<event>
 4    1  0.6136512E+003  0.2349764E+02  0.7546771E-02  0.1486342E+00
          2   -1    0    0  501    0  0.00000000000E+00  0.00000000000E+00  0.35285875825E+01  0.35285875825E+01  0.00000000000E+00 0. -1.
          2   -1    0    0  502    0 -0.00000000000E+00 -0.00000000000E+00 -0.23803145443E+03  0.23803145443E+03  0.00000000000E+00 0.  1.
          2    1    1    2  501    0 -0.99671297868E+01  0.21278993358E+02 -0.18794899891E+03  0.18941215755E+03  0.00000000000E+00 0.  1.
          2    1    1    2  502    0  0.99671297868E+01 -0.21278993358E+02 -0.46553867937E+02  0.52147884467E+02  0.00000000000E+00 0. -1.
</event>
<event>
 4    1  0.6136512E+003  0.2616367E+02  0.7546771E-02  0.1456195E+00
          2   -1    0    0  502    0  0.00000000000E+00  0.00000000000E+00  0.19257983923E+02  0.19257983923E+02  0.00000000000E+00 0. -1.
          2   -1    0    0  501    0 -0.00000000000E+00 -0.00000000000E+00 -0.71918139340E+03  0.71918139340E+03  0.00000000000E+00 0.  1.
          2    1    1    2  501    0 -0.26013975660E+02  0.27947860485E+01  0.10017992778E+02  0.28016030019E+02  0.00000000000E+00 0. -1.
          2    1    1    2  502    0  0.26013975660E+02 -0.27947860485E+01 -0.70994140226E+03  0.71042334731E+03  0.00000000000E+00 0.  1.
</event>
<event>
 4    1  0.6136512E+003  0.3111970E+02  0.7546771E-02  0.1410109E+00
          2   -1    0    0  501    0  0.00000000000E+00  0.00000000000E+00  0.27372235250E+02  0.27372235250E+02  0.00000000000E+00 0.  1.
          2   -1    0    0  502    0 -0.00000000000E+00 -0.00000000000E+00 -0.15422162092E+04  0.15422162092E+04  0.00000000000E+00 0.  1.
          2    1    1    2  501    0  0.55559315621E+00  0.31114738382E+02 -0.15331619371E+04  0.15334777341E+04  0.00000000000E+00 0.  1.
          2    1    1    2  502    0 -0.55559315621E+00 -0.31114738382E+02  0.18317963142E+02  0.36110710351E+02  0.00000000000E+00 0.  1.
</event>
<event>
 4    1  0.6136512E+003  0.3712867E+02  0.7546771E-02  0.1366186E+00
          2   -1    0    0  501    0  0.00000000000E+00  0.00000000000E+00  0.44900277333E+03  0.44900277333E+03  0.00000000000E+00 0. -1.
          2   -1    0    0  502    0 -0.00000000000E+00 -0.00000000000E+00 -0.39344236572E+01  0.39344236572E+01  0.00000000000E+00 0. -1.
          2    1    1    2  501    0 -0.32395883748E+02 -0.18139600525E+02  0.11639520515E+03  0.12217357396E+03  0.00000000000E+00 0. -1.
          2    1    1    2  502    0  0.32395883748E+02  0.18139600525E+02  0.32867314452E+03  0.33076362303E+03  0.00000000000E+00 0. -1.
</event>
<event>
 4    1  0.6136512E+003  0.3589342E+02  0.7546771E-02  0.1374389E+00
          2   -1    0    0  502    0  0.00000000000E+00  0.00000000000E+00  0.39886804836E+01  0.39886804836E+01  0.00000000000E+00 0.  1.
          2   -1    0    0  501    0 -0.00000000000E+00 -0.00000000000E+00 -0.97739010842E+03  0.97739010842E+03  0.00000000000E+00 0.  1.
          2    1    1    2  501    0 -0.33240441665E+02  0.13542907613E+02 -0.85195116331E+02  0.92447526496E+02  0.00000000000E+00 0.  1.
          2    1    1    2  502    0  0.33240441665E+02 -0.13542907613E+02 -0.88820631160E+03  0.88893126240E+03  0.00000000000E+00 0.  1.
</event>
<event>
 4    1  0.6136512E+003  0.2060837E+02  0.7546771E-02  0.1524930E+00
          2   -1    0    0  501    0  0.00000000000E+00  0.00000000000E+00  0.27429384626E+01  0.27429384626E+01  0.00000000000E+00 0.  1.
          2   -1    0    0  502    0 -0.00000000000E+00 -0.00000000000E+00 -0.21708520782E+03  0.21708520782E+03  0.00000000000E+00 0. -1.
          2    1    1    2  501    0  0.20606618133E+02  0.26848101130E+00 -0.16602922299E+03  0.16730334031E+03  0.00000000000E+00 0.  1.
          2    1    1    2  502    0 -0.20606618133E+02 -0.26848101130E+00 -0.48313046371E+02  0.52524805974E+02  0.00000000000E+00 0. -1.
</event>
<event>
 4    1  0.6136512E+003  0.2315843E+02  0.7546771E-02  0.1490518E+00
          2   -1    0    0  501    0  0.00000000000E+00  0.00000000000E+00  0.20944023900E+01  0.20944023900E+01  0.00000000000E+00 0. -1.
          2   -1    0    0  502    0 -0.00000000000E+00 -0.00000000000E+00 -0.11259748009E+04  0.11259748009E+04  0.00000000000E+00 0.  1.
          2    1    1    2  501    0  0.23049428033E+02  0.22442520765E+01 -0.10577069231E+04  0.10579604189E+04  0.00000000000E+00 0.  1.
          2    1    1    2  502    0 -0.23049428033E+02 -0.22442520765E+01 -0.66173475434E+02  0.70108784407E+02  0.00000000000E+00 0. -1.
</event>
<event>
 4    1  0.6136512E+003  0.2589701E+02  0.7546771E-02  0.1459014E+00
          2   -1    0    0  502    0  0.00000000000E+00  0.00000000000E+00  0.29322467210E+00  0.29322467210E+00  0.00000000000E+00 0. -1.
          2   -1    0    0  501    0 -0.00000000000E+00 -0.00000000000E+00 -0.24453905185E+04  0.24453905185E+04  0.00000000000E+00 0.  1.
          2    1    1    2  501    0  0.23184400152E+02  0.11538564360E+02 -0.91150120573E+03  0.91186901632E+03  0.00000000000E+00 0. -1.
          2    1    1    2  502    0 -0.23184400152E+02 -0.11538564360E+02 -0.15335960881E+04  0.15338147268E+04  0.00000000000E+00 0.  1.
</event>
<event>
 4    1  0.6136512E+003  0.2005002E+02  0.7546771E-02  0.1533272E+00
          2   -1    0    0  502    0  0.00000000000E+00  0.00000000000E+00  0.10667732241E+03  0.10667732241E+03  0.00000000000E+00 0. -1.
          2   -1    0    0  501    0 -0.00000000000E+00 -0.00000000000E+00 -0.27638127239E+03  0.27638127239E+03  0.00000000000E+00 0. -1.
          2    1    1    2  501    0  0.31632081700E+01 -0.19798925095E+02  0.10536710867E+03  0.10725777786E+03  0.00000000000E+00 0. -1.
          2    1    1    2  502    0 -0.31632081700E+01  0.19798925095E+02 -0.27507105865E+03  0.27580081695E+03  0.00000000000E+00 0. -1.
</event>
<event>
 4    1  0.6136512E+003  0.2085210E+02  0.7546771E-02  0.1521387E+00
          2   -1    0    0  502    0  0.00000000000E+00  0.00000000000E+00  0.70615526312E+02  0.70615526312E+02  0.00000000000E+00 0. -1.
          2   -1    0    0  501    0 -0.00000000000E+00 -0.00000000000E+00 -0.47105402524E+03  0.47105402524E+03  0.00000000000E+00 0. -1.
          2    1    1    2  501    0 -0.20751598381E+02 -0.20448265340E+01  0.68839581663E+02  0.71928423829E+02  0.00000000000E+00 0. -1.
          2    1    1    2  502    0  0.20751598381E+02  0.20448265340E+01 -0.46927808059E+03  0.46974112772E+03  0.00000000000E+00 0. -1.
</event>
<event>
 4    1  0.6136512E+003  0.2545651E+02  0.7546771E-02  0.1463761E+00
          2   -1    0    0  501    0  0.00000000000E+00  0.00000000000E+00  0.63831640229E+00  0.63831640229E+00  0.00000000000E+00 0. -1.
          2   -1    0    0  502    0 -0.00000000000E+00 -0.00000000000E+00 -0.14534491718E+04  0.14534491718E+04  0.00000000000E+00 0. -1.
          2    1    1    2  501    0 -0.33468630152E+01 -0.25235542785E+02 -0.11256226721E+04  0.11259104911E+04  0.00000000000E+00 0. -1.
          2    1    1    2  502    0  0.33468630152E+01  0.25235542785E+02 -0.32718818329E+03  0.32817699705E+03  0.00000000000E+00 0. -1.
</event>
<event>
 4    1  0.6136512E+003  0.1052216E+03  0.7546771E-02  0.1155055E+00
          2   -1    0    0  502    0  0.00000000000E+00  0.00000000000E+00  0.73523821483E+02  0.73523821483E+02  0.00000000000E+00 0. -1.
          2   -1    0    0  501    0 -0.00000000000E+00 -0.00000000000E+00 -0.31408551368E+03  0.31408551368E+03  0.00000000000E+00 0. -1.
          2    1    1    2  501    0  0.14282687147E+02  0.10424773540E+03  0.19548982397E+02  0.10702218555E+03  0.00000000000E+00 0. -1.
          2    1    1    2  502    0 -0.14282687147E+02 -0.10424773540E+03 -0.26011067460E+03  0.28058714961E+03  0.00000000000E+00 0. -1.
</event>
<event>
 4    1  0.6136512E+003  0.2420824E+02  0.7546771E-02  0.1477859E+00
          2   -1    0    0  501    0  0.00000000000E+00  0.00000000000E+00  0.10453741188E+04  0.10453741188E+04  0.00000000000E+00 0. -1.
          2   -1    0    0  502    0 -0.00000000000E+00 -0.00000000000E+00 -0.85353653569E+01  0.85353653569E+01  0.00000000000E+00 0.  1.
          2    1    1    2  501    0  0.90373963159E+01 -0.22458062426E+02  0.90636958303E+01  0.25849365219E+02  0.00000000000E+00 0.  1.
          2    1    1    2  502    0 -0.90373963159E+01  0.22458062426E+02  0.10277750576E+04  0.10280601190E+04  0.00000000000E+00 0. -1.
</event>
<event>
 4    1  0.6136512E+003  0.2722759E+02  0.7546771E-02  0.1445335E+00
          2   -1    0    0  502    0  0.00000000000E+00  0.00000000000E+00  0.45149163193E+02  0.45149163193E+02  0.00000000000E+00 0.  1.
          2   -1    0    0  501    0 -0.00000000000E+00 -0.00000000000E+00 -0.31128616788E+02  0.31128616788E+02  0.00000000000E+00 0. -1.
          2    1    1    2  501    0 -0.18820801968E+02 -0.19675342148E+02  0.33226883233E+02  0.42957740219E+02  0.00000000000E+00 0.  1.
          2    1    1    2  502    0  0.18820801968E+02  0.19675342148E+02 -0.19206336828E+02  0.33320039762E+02  0.00000000000E+00 0. -1.
</event>
<event>
 4    1  0.6136512E+003  0.2323822E+02  0.7546771E-02  0.1489528E+00
          2   -1    0    0  502    0  0.00000000000E+00  0.00000000000E+00  0.30410002828E+03  0.30410002828E+03  0.00000000000E+00 0. -1.
          2   -1    0    0  501    0 -0.00000000000E+00 -0.00000000000E+00 -0.53165116970E+01  0.53165116970E+01  0.00000000000E+00 0.  1.
          2    1    1    2  501    0 -0.21981043800E+02 -0.75397968985E+01  0.27564619163E+03  0.27662400074E+03  0.00000000000E+00 0. -1.
          2    1    1    2  502    0  0.21981043800E+02  0.75397968985E+01  0.23137324953E+02  0.32792539239E+02  0.00000000000E+00 0.  1.
</event>
<event>
 4    1  0.6136512E+003  0.2037120E+02  0.7546771E-02  0.1528435E+00
          2   -1    0    0  501    0  0.00000000000E+00  0.00000000000E+00  0.59217922658E+03  0.59217922658E+03  0.00000000000E+00 0.  1.
          2   -1    0    0  502    0 -0.00000000000E+00 -0.00000000000E+00 -0.70812322721E+01  0.70812322721E+01  0.00000000000E+00 0. -1.
          2    1    1    2  501    0 -0.70127374655E+01  0.19126085300E+02  0.81310230728E+01  0.21933972779E+02  0.00000000000E+00 0. -1.
          2    1    1    2  502    0  0.70127374655E+01 -0.19126085300E+02  0.57696697124E+03  0.57732648608E+03  0.00000000000E+00 0.  1.
</event>
<event>
 4    1  0.6136512E+003  0.3572312E+02  0.7546771E-02  0.1375550E+00
          2   -1    0    0  502    0  0.00000000000E+00  0.00000000000E+00  0.96520616026E+01  0.96520616026E+01  0.00000000000E+00 0. -1.
          2   -1    0    0  501    0 -0.00000000000E+00 -0.00000000000E+00 -0.20416507001E+03  0.20416507001E+03  0.00000000000E+00 0. -1.
          2    1    1    2  501    0  0.35096949135E+02  0.66592266643E+01 -0.16072224115E+03  0.16464440451E+03  0.00000000000E+00 0. -1.
          2    1    1    2  502    0 -0.35096949135E+02 -0.66592266643E+01 -0.33790767262E+02  0.49172727101E+02  0.00000000000E+00 0. -1.
</event>
<event>
 4    1  0.6136512E+003  0.2361510E+02  0.7546771E-02  0.1484915E+00
          2   -1    0    0  501    0  0.00000000000E+00  0.00000000000E+00  0.19791952212E+01  0.19791952212E+01  0.00000000000E+00 0.  1.
          2   -1    0    0  502    0 -0.00000000000E+00 -0.00000000000E+00 -0.90473941625E+03  0.90473941625E+03  0.00000000000E+00 0. -1.
          2    1    1    2  501    0  0.17168420514E+02 -0.16214750764E+02 -0.82757685087E+03  0.82791371344E+03  0.00000000000E+00 0. -1.
          2    1    1    2  502    0 -0.17168420514E+02  0.16214750764E+02 -0.75183370153E+02  0.78804898026E+02  0.00000000000E+00 0.  1.
</event>
<event>
 4    1  0.6136512E+003  0.2946548E+02  0.7546771E-02  0.1424299E+00
          2   -1    0    0  502    0  0.00000000000E+00  0.00000000000E+00  0.14020465274E+03  0.14020465274E+03  0.00000000000E+00 0.  1.
          2   -1    0    0  501    0 -0.00000000000E+00 -0.00000000000E+00 -0.10653637680E+04  0.10653637680E+04  0.00000000000E+00 0. -1.
          2    1    1    2  501    0 -0.28603490338E+02 -0.70749536975E+01  0.13845024275E+03  0.14155099557E+03  0.00000000000E+00 0.  1.
          2    1    1    2  502    0  0.28603490338E+02  0.70749536975E+01 -0.10636093580E+04  0.10640174252E+04  0.00000000000E+00 0. -1.
</event>
<event>
 4    1  0.6136512E+003  0.4065792E+02  0.7546771E-02  0.1344673E+00
          2   -1    0    0  502    0  0.00000000000E+00  0.00000000000E+00  0.13654446786E+04  0.13654446786E+04  0.00000000000E+00 0.  1.
          2   -1    0    0  501    0 -0.00000000000E+00 -0.00000000000E+00 -0.26640910647E+01  0.26640910647E+01  0.00000000000E+00 0. -1.
          2    1    1    2  501    0 -0.24802895453E+02  0.32216194812E+02  0.11866512862E+04  0.11873476078E+04  0.00000000000E+00 0.  1.
          2    1    1    2  502    0  0.24802895453E+02 -0.32216194812E+02  0.17612930132E+03  0.18076116180E+03  0.00000000000E+00 0. -1.
</event>
<event>
 4    1  0.6136512E+003  0.2001304E+02  0.7546771E-02  0.1533836E+00
          2   -1    0    0  502    0  0.00000000000E+00  0.00000000000E+00  0.11756407040E+04  0.11756407040E+04  0.00000000000E+00 0. -1.
          2   -1    0    0  501    0 -0.00000000000E+00 -0.00000000000E+00 -0.94275384201E+00  0.94275384201E+00  0.00000000000E+00 0.  1.
          2    1    1    2  501    0 -0.18820103091E+02 -0.68062765382E+01  0.10574780546E+04  0.10576674135E+04  0.00000000000E+00 0. -1.
          2    1    1    2  502    0  0.18820103091E+02  0.68062765382E+01  0.11721989563E+03  0.11891604439E+03  0.00000000000E+00 0.  1.
</event>
<event>
 4    1  0.6136512E+003  0.2587441E+02  0.7546771E-02  0.1459255E+00
          2   -1    0    0  501    0  0.00000000000E+00  0.00000000000E+00  0.11436389322E+04  0.11436389322E+04  0.00000000000E+00 0.  1.
          2   -1    0    0  502    0 -0.00000000000E+00 -0.00000000000E+00 -0.12948784164E+02  0.12948784164E+02  0.00000000000E+00 0.  1.
          2    1    1    2  501    0 -0.24668035794E+02  0.78085211673E+01  0.27437905843E+00  0.25875862819E+02  0.00000000000E+00 0.  1.
          2    1    1    2  502    0  0.24668035794E+02 -0.78085211673E+01  0.11304157690E+04  0.11307118536E+04  0.00000000000E+00 0.  1.
</event>
<event>
 4    1  0.6136512E+003  0.4324510E+02  0.7546771E-02  0.1330452E+00
          2   -1    0    0  502    0  0.00000000000E+00  0.00000000000E+00  0.18243767665E+02  0.18243767665E+02  0.00000000000E+00 0.  1.
          2   -1    0    0  501    0 -0.00000000000E+00 -0.00000000000E+00 -0.21754284151E+03  0.21754284151E+03  0.00000000000E+00 0.  1.
          2    1    1    2  501    0 -0.31731683244E+02 -0.29380930878E+02 -0.13919946201E+02  0.45430207164E+02  0.00000000000E+00 0.  1.
          2    1    1    2  502    0  0.31731683244E+02  0.29380930878E+02 -0.18537912764E+03  0.19035640201E+03  0.00000000000E+00 0.  1.
</event>
<event>
 4    1  0.6136512E+003  0.6102042E+02  0.7546771E-02  0.1256404E+00
          2   -1    0    0  501    0  0.00000000000E+00  0.00000000000E+00  0.12580128461E+03  0.12580128461E+03  0.00000000000E+00 0.  1.
          2   -1    0    0  502    0 -0.00000000000E+00 -0.00000000000E+00 -0.45332088842E+02  0.45332088842E+02  0.00000000000E+00 0.  1.
          2    1    1    2  501    0 -0.60881182115E+02  0.41198617014E+01 -0.10175772389E+02  0.61863057957E+02  0.00000000000E+00 0.  1.
          2    1    1    2  502    0  0.60881182115E+02 -0.41198617014E+01  0.90644968158E+02  0.10927031550E+03  0.00000000000E+00 0.  1.
</event>
<event>
 4    1  0.6136512E+003  0.4930668E+02  0.7546771E-02  0.1301207E+00
          2   -1    0    0  502    0  0.00000000000E+00  0.00000000000E+00  0.40746144726E+02  0.40746144726E+02  0.00000000000E+00 0.  1.
          2   -1    0    0  501    0 -0.00000000000E+00 -0.00000000000E+00 -0.70986206268E+02  0.70986206268E+02  0.00000000000E+00 0.  1.
          2    1    1    2  501    0  0.73186961456E+01 -0.48760485218E+02  0.71897046165E+01  0.49828105367E+02  0.00000000000E+00 0.  1.
          2    1    1    2  502    0 -0.73186961456E+01  0.48760485218E+02 -0.37429766158E+02  0.61904245627E+02  0.00000000000E+00 0.  1.
</event>
<event>
 4    1  0.6136512E+003  0.2783097E+02  0.7546771E-02  0.1439435E+00
          2   -1    0    0  502    0  0.00000000000E+00  0.00000000000E+00  0.15338491493E+02  0.15338491493E+02  0.00000000000E+00 0. -1.
          2   -1    0    0  501    0 -0.00000000000E+00 -0.00000000000E+00 -0.70144853819E+03  0.70144853819E+03  0.00000000000E+00 0.  1.
          2    1    1    2  501    0  0.27669617678E+02  0.29924716647E+01  0.21970072871E+01  0.27917547710E+02  0.00000000000E+00 0. -1.
          2    1    1    2  502    0 -0.27669617678E+02 -0.29924716647E+01 -0.68830705399E+03  0.68886948197E+03  0.00000000000E+00 0.  1.
</event>
<event>
 4    1  0.6136512E+003  0.2134875E+02  0.7546771E-02  0.1514343E+00
          2   -1    0    0  501    0  0.00000000000E+00  0.00000000000E+00  0.50718457500E+01  0.50718457500E+01  0.00000000000E+00 0.  1.
          2   -1    0    0  502    0 -0.00000000000E+00 -0.00000000000E+00 -0.10830047739E+04  0.10830047739E+04  0.00000000000E+00 0. -1.
          2    1    1    2  501    0 -0.15024696158E+02 -0.15166668784E+02 -0.10599452096E+04  0.10601601844E+04  0.00000000000E+00 0. -1.
          2    1    1    2  502    0  0.15024696158E+02  0.15166668784E+02 -0.17987718598E+02  0.27916435249E+02  0.00000000000E+00 0.  1.
</event>
<event>
 4    1  0.6136512E+003  0.2844279E+02  0.7546771E-02  0.1433630E+00
          2   -1    0    0  502    0  0.00000000000E+00  0.00000000000E+00  0.35826908589E+01  0.35826908589E+01  0.00000000000E+00 0. -1.
          2   -1    0    0  501    0 -0.00000000000E+00 -0.00000000000E+00 -0.42820745077E+03  0.42820745077E+03  0.00000000000E+00 0.  1.
          2    1    1    2  501    0  0.23180017919E+01  0.28348176754E+02 -0.36074271833E+03  0.36186226811E+03  0.00000000000E+00 0.  1.
          2    1    1    2  502    0 -0.23180017919E+01 -0.28348176754E+02 -0.63882041588E+02  0.69927873520E+02  0.00000000000E+00 0. -1.
</event>
<event>
 4    1  0.6136512E+003  0.2989624E+02  0.7546771E-02  0.1420500E+00
          2   -1    0    0  502    0  0.00000000000E+00  0.00000000000E+00  0.91987984225E+03  0.91987984225E+03  0.00000000000E+00 0. -1.
          2   -1    0    0  501    0 -0.00000000000E+00 -0.00000000000E+00 -0.14133701529E+02  0.14133701529E+02  0.00000000000E+00 0. -1.
          2    1    1    2  501    0  0.68373318858E+01  0.29103882836E+02  0.90354167369E+03  0.90403613932E+03  0.00000000000E+00 0. -1.
          2    1    1    2  502    0 -0.68373318858E+01 -0.29103882836E+02  0.22044670351E+01  0.29977404463E+02  0.00000000000E+00 0. -1.
</event>
<event>
 4    1  0.6136512E+003  0.2007639E+02  0.7546771E-02  0.1532871E+00
          2   -1    0    0  501    0  0.00000000000E+00  0.00000000000E+00  0.44337353866E+02  0.44337353866E+02  0.00000000000E+00 0.  1.
          2   -1    0    0  502    0 -0.00000000000E+00 -0.00000000000E+00 -0.22508497219E+02  0.22508497219E+02  0.00000000000E+00 0. -1.
          2    1    1    2  501    0 -0.15124749981E+02  0.13202407029E+02 -0.14890957233E+02  0.24996044100E+02  0.00000000000E+00 0. -1.
          2    1    1    2  502    0  0.15124749981E+02 -0.13202407029E+02  0.36719813880E+02  0.41849806985E+02  0.00000000000E+00 0.  1.
</event>
<event>
 4    1  0.6136512E+003  0.2546898E+02  0.7546771E-02  0.1463625E+00
          2   -1    0    0  501    0  0.00000000000E+00  0.00000000000E+00  0.72289480278E+02  0.72289480278E+02  0.00000000000E+00 0.  1.
          2   -1    0    0  502    0 -0.00000000000E+00 -0.00000000000E+00 -0.10042135463E+04  0.10042135463E+04  0.00000000000E+00 0.  1.
          2    1    1    2  501    0 -0.25363670978E+02 -0.23136832030E+01 -0.10018033600E+04  0.10021270583E+04  0.00000000000E+00 0.  1.
          2    1    1    2  502    0  0.25363670978E+02  0.23136832030E+01  0.69879293944E+02  0.74375968279E+02  0.00000000000E+00 0.  1.
</event>
<event>
 4    1  0.6136512E+003  0.7616659E+02  0.7546771E-02  0.1213038E+00
          2   -1    0    0  501    0  0.00000000000E+00  0.00000000000E+00  0.24311406607E+03  0.24311406607E+03  0.00000000000E+00 0.  1.
          2   -1    0    0  502    0 -0.00000000000E+00 -0.00000000000E+00 -0.11888551901E+03  0.11888551901E+03  0.00000000000E+00 0.  1.
          2    1    1    2  501    0 -0.29595831311E+02  0.70181455494E+02 -0.99704024612E+02  0.12546809335E+03  0.00000000000E+00 0.  1.
          2    1    1    2  502    0  0.29595831311E+02 -0.70181455494E+02  0.22393257167E+03  0.23653149173E+03  0.00000000000E+00 0.  1.
</event>
<event>
 4    1  0.6136512E+003  0.3133163E+02  0.7546771E-02  0.1408367E+00
          2   -1    0    0  501    0  0.00000000000E+00  0.00000000000E+00  0.78469423469E+01  0.78469423469E+01  0.00000000000E+00 0. -1.
          2   -1    0    0  502    0 -0.00000000000E+00 -0.00000000000E+00 -0.55197048563E+03  0.55197048563E+03  0.00000000000E+00 0. -1.
          2    1    1    2  501    0 -0.31329473967E+02 -0.36715742648E+00 -0.51821490670E+03  0.51916120836E+03  0.00000000000E+00 0. -1.
          2    1    1    2  502    0  0.31329473967E+02  0.36715742648E+00 -0.25908636582E+02  0.40656219612E+02  0.00000000000E+00 0. -1.
</event>
<event>
 4    1  0.6136512E+003  0.2189419E+02  0.7546771E-02  0.1506871E+00
          2   -1    0    0  502    0  0.00000000000E+00  0.00000000000E+00  0.15859609528E+03  0.15859609528E+03  0.00000000000E+00 0.  1.
          2   -1    0    0  501    0 -0.00000000000E+00 -0.00000000000E+00 -0.48631334022E+02  0.48631334022E+02  0.00000000000E+00 0. -1.
          2    1    1    2  501    0  0.60545958319E+01  0.21040380994E+02  0.15532459139E+03  0.15686007922E+03  0.00000000000E+00 0.  1.
          2    1    1    2  502    0 -0.60545958319E+01 -0.21040380994E+02 -0.45359830140E+02  0.50367350073E+02  0.00000000000E+00 0. -1.
</event>
<event>
 4    1  0.6136512E+003  0.4465299E+02  0.7546771E-02  0.1323184E+00
          2   -1    0    0  502    0  0.00000000000E+00  0.00000000000E+00  0.90984462527E+01  0.90984462527E+01  0.00000000000E+00 0. -1.
          2   -1    0    0  501    0 -0.00000000000E+00 -0.00000000000E+00 -0.28790174534E+04  0.28790174534E+04  0.00000000000E+00 0. -1.
          2    1    1    2  501    0 -0.43973247066E+02  0.77616399012E+01 -0.46948897987E+02  0.64792658023E+02  0.00000000000E+00 0. -1.
          2    1    1    2  502    0  0.43973247066E+02 -0.77616399012E+01 -0.28229701092E+04  0.28233232417E+04  0.00000000000E+00 0. -1.
</event>
<event>
 4    1  0.6136512E+003  0.2138422E+02  0.7546771E-02  0.1513849E+00
          2   -1    0    0  501    0  0.00000000000E+00  0.00000000000E+00  0.51452896475E+02  0.51452896475E+02  0.00000000000E+00 0. -1.
          2   -1    0    0  502    0 -0.00000000000E+00 -0.00000000000E+00 -0.61017113803E+02  0.61017113803E+02  0.00000000000E+00 0.  1.
          2    1    1    2  501    0  0.13544749594E+02  0.16547653010E+02 -0.56760564006E+02  0.60655145602E+02  0.00000000000E+00 0.  1.
          2    1    1    2  502    0 -0.13544749594E+02 -0.16547653010E+02  0.47196346678E+02  0.51814864676E+02  0.00000000000E+00 0. -1.
</event>
<event>
 4    1  0.6136512E+003  0.2129232E+02  0.7546771E-02  0.1515132E+00
          2   -1    0    0  501    0  0.00000000000E+00  0.00000000000E+00  0.23257180342E+01  0.23257180342E+01  0.00000000000E+00 0.  1.
          2   -1    0    0  502    0 -0.00000000000E+00 -0.00000000000E+00 -0.28363057762E+03  0.28363057762E+03  0.00000000000E+00 0.  1.
          2    1    1    2  501    0 -0.52555486547E+01  0.20633513691E+02 -0.22060737920E+03  0.22163253018E+03  0.00000000000E+00 0.  1.
          2    1    1    2  502    0  0.52555486547E+01 -0.20633513691E+02 -0.60697480383E+02  0.64323765466E+02  0.00000000000E+00 0.  1.
</event>
<event>
 4    1  0.6136512E+003  0.2027638E+02  0.7546771E-02  0.1529852E+00
          2   -1    0    0  501    0  0.00000000000E+00  0.00000000000E+00  0.78961142815E+00  0.78961142815E+00  0.00000000000E+00 0. -1.
          2   -1    0    0  502    0 -0.00000000000E+00 -0.00000000000E+00 -0.55788376944E+03  0.55788376944E+03  0.00000000000E+00 0.  1.
          2    1    1    2  501    0  0.16706283115E+02 -0.11490501380E+02 -0.35068679602E+03  0.35127248742E+03  0.00000000000E+00 0.  1.
          2    1    1    2  502    0 -0.16706283115E+02  0.11490501380E+02 -0.20640736200E+03  0.20740089345E+03  0.00000000000E+00 0. -1.
</event>
<event>
 4    1  0.6136512E+003  0.2217127E+02  0.7546771E-02  0.1503175E+00
          2   -1    0    0  501    0  0.00000000000E+00  0.00000000000E+00  0.16847600223E+03  0.16847600223E+03  0.00000000000E+00 0.  1.
          2   -1    0    0  502    0 -0.00000000000E+00 -0.00000000000E+00 -0.52333023513E+01  0.52333023513E+01  0.00000000000E+00 0.  1.
          2    1    1    2  501    0  0.20784416781E+02  0.77183729957E+01  0.23846930787E+02  0.32561347800E+02  0.00000000000E+00 0.  1.
          2    1    1    2  502    0 -0.20784416781E+02 -0.77183729957E+01  0.13939576910E+03  0.14114795679E+03  0.00000000000E+00 0.  1.
</event>
<event>
 4    1  0.6136512E+003  0.4688847E+02  0.7546771E-02  0.1312258E+00
          2   -1    0    0  501    0  0.00000000000E+00  0.00000000000E+00  0.20705148437E+01  0.20705148437E+01  0.00000000000E+00 0.  1.
          2   -1    0    0  502    0 -0.00000000000E+00 -0.00000000000E+00 -0.24951433028E+04  0.24951433028E+04  0.00000000000E+00 0. -1.
          2    1    1    2  501    0  0.14032114426E+02  0.44739560713E+02 -0.21928803439E+04  0.21933815745E+04  0.00000000000E+00 0. -1.
          2    1    1    2  502    0 -0.14032114426E+02 -0.44739560713E+02 -0.30019244405E+03  0.30383224317E+03  0.00000000000E+00 0.  1.
</event>
<event>
 4    1  0.6136512E+003  0.2564402E+02  0.7546771E-02  0.1461726E+00
          2   -1    0    0  502    0  0.00000000000E+00  0.00000000000E+00  0.16047785748E+02  0.16047785748E+02  0.00000000000E+00 0.  1.
          2   -1    0    0  501    0 -0.00000000000E+00 -0.00000000000E+00 -0.25502344194E+03  0.25502344194E+03  0.00000000000E+00 0. -1.
          2    1    1    2  501    0  0.14461252782E+02  0.21177532410E+02  0.46819097158E+01  0.26067911109E+02  0.00000000000E+00 0.  1.
          2    1    1    2  502    0 -0.14461252782E+02 -0.21177532410E+02 -0.24365756591E+03  0.24500331658E+03  0.00000000000E+00 0. -1.
</event>
<event>
 4    1  0.6136512E+003  0.2438698E+02  0.7546771E-02  0.1475779E+00
          2   -1    0    0  502    0  0.00000000000E+00  0.00000000000E+00  0.22829907719E+02  0.22829907719E+02  0.00000000000E+00 0.  1.
          2   -1    0    0  501    0 -0.00000000000E+00 -0.00000000000E+00 -0.85814989583E+03  0.85814989583E+03  0.00000000000E+00 0.  1.
          2    1    1    2  501    0 -0.11923082813E+02 -0.21273574874E+02  0.16092562132E+02  0.29218067144E+02  0.00000000000E+00 0.  1.
          2    1    1    2  502    0  0.11923082813E+02  0.21273574874E+02 -0.85141255024E+03  0.85176173640E+03  0.00000000000E+00 0.  1.
</event>
<event>
 4    1  0.6136512E+003  0.2032458E+02  0.7546771E-02  0.1529130E+00
          2   -1    0    0  501    0  0.00000000000E+00  0.00000000000E+00  0.41373158207E+03  0.41373158207E+03  0.00000000000E+00 0. -1.
          2   -1    0    0  502    0 -0.00000000000E+00 -0.00000000000E+00 -0.48210910557E+01  0.48210910557E+01  0.00000000000E+00 0. -1.
          2    1    1    2  501    0 -0.88454897991E+01 -0.18298792918E+02  0.18105217480E+02  0.27219247089E+02  0.00000000000E+00 0. -1.
          2    1    1    2  502    0  0.88454897991E+01  0.18298792918E+02  0.39080527353E+03  0.39133342603E+03  0.00000000000E+00 0. -1.
</event>
<event>
 4    1  0.6136512E+003  0.2020355E+02  0.7546771E-02  0.1530946E+00
          2   -1    0    0  501    0  0.00000000000E+00  0.00000000000E+00  0.11036169210E+04  0.11036169210E+04  0.00000000000E+00 0. -1.
          2   -1    0    0  502    0 -0.00000000000E+00 -0.00000000000E+00 -0.18506954590E+01  0.18506954590E+01  0.00000000000E+00 0.  1.
          2    1    1    2  501    0  0.11177607565E+02 -0.16829875078E+02  0.56456348566E+02  0.59962512451E+02  0.00000000000E+00 0.  1.
          2    1    1    2  502    0 -0.11177607565E+02  0.16829875078E+02  0.10453098770E+04  0.10455051040E+04  0.00000000000E+00 0. -1.
</event>
<event>
 4    1  0.6136512E+003  0.7048535E+02  0.7546771E-02  0.1227846E+00
          2   -1    0    0  502    0  0.00000000000E+00  0.00000000000E+00  0.33639301766E+02  0.33639301766E+02  0.00000000000E+00 0.  1.
          2   -1    0    0  501    0 -0.00000000000E+00 -0.00000000000E+00 -0.93489380734E+03  0.93489380734E+03  0.00000000000E+00 0.  1.
          2    1    1    2  501    0 -0.55641857377E+02  0.43268552033E+02 -0.62549674551E+01  0.70762338184E+02  0.00000000000E+00 0.  1.
          2    1    1    2  502    0  0.55641857377E+02 -0.43268552033E+02 -0.89499953812E+03  0.89777077092E+03  0.00000000000E+00 0.  1.
</event>
<event>
 4    1  0.6136512E+003  0.2281391E+02  0.7546771E-02  0.1494848E+00
          2   -1    0    0  502    0  0.00000000000E+00  0.00000000000E+00  0.15586145144E+01  0.15586145144E+01  0.00000000000E+00 0.  1.
          2   -1    0    0  501    0 -0.00000000000E+00 -0.00000000000E+00 -0.81023930731E+03  0.81023930731E+03  0.00000000000E+00 0. -1.
          2    1    1    2  501    0  0.22633310276E+02 -0.28649530282E+01 -0.93130087510E+02  0.95883720670E+02  0.00000000000E+00 0.  1.
          2    1    1    2  502    0 -0.22633310276E+02  0.28649530282E+01 -0.71555060528E+03  0.71591420115E+03  0.00000000000E+00 0. -1.
</event>
<event>
 4    1  0.6136512E+003  0.2840942E+02  0.7546771E-02  0.1433942E+00
          2   -1    0    0  502    0  0.00000000000E+00  0.00000000000E+00  0.12810451209E+03  0.12810451209E+03  0.00000000000E+00 0.  1.
          2   -1    0    0  501    0 -0.00000000000E+00 -0.00000000000E+00 -0.19659736057E+02  0.19659736057E+02  0.00000000000E+00 0. -1.
          2    1    1    2  501    0 -0.15503097043E+02  0.23806498453E+02  0.11512624272E+03  0.11857970800E+03  0.00000000000E+00 0.  1.
          2    1    1    2  502    0  0.15503097043E+02 -0.23806498453E+02 -0.66814666872E+01  0.29184540148E+02  0.00000000000E+00 0. -1.
</event>
<event>
 4    1  0.6136512E+003  0.3100536E+02  0.7546771E-02  0.1411056E+00
          2   -1    0    0  501    0  0.00000000000E+00  0.00000000000E+00  0.75622278267E+03  0.75622278267E+03  0.00000000000E+00 0. -1.
          2   -1    0    0  502    0 -0.00000000000E+00 -0.00000000000E+00 -0.33329249754E+03  0.33329249754E+03  0.00000000000E+00 0.  1.
          2    1    1    2  501    0 -0.18269314781E+02  0.25051237737E+02 -0.33225261014E+03  0.33369616317E+03  0.00000000000E+00 0.  1.
          2    1    1    2  502    0  0.18269314781E+02 -0.25051237737E+02  0.75518289526E+03  0.75581911703E+03  0.00000000000E+00 0. -1.
</event>
<event>
 4    1  0.6136512E+003  0.2585072E+02  0.7546771E-02  0.1459507E+00
          2   -1    0    0  501    0  0.00000000000E+00  0.00000000000E+00  0.76161144746E+03  0.76161144746E+03  0.00000000000E+00 0.  1.
          2   -1    0    0  502    0 -0.00000000000E+00 -0.00000000000E+00 -0.16772313706E+03  0.16772313706E+03  0.00000000000E+00 0.  1.
          2    1    1    2  501    0 -0.20283949309E+02  0.16025634314E+02 -0.16650611078E+03  0.16850087383E+03  0.00000000000E+00 0.  1.
          2    1    1    2  502    0  0.20283949309E+02 -0.16025634314E+02  0.76039442118E+03  0.76083371068E+03  0.00000000000E+00 0.  1.
</event>
<event>
 4    1  0.6136512E+003  0.2163363E+02  0.7546771E-02  0.1510407E+00
          2   -1    0    0  502    0  0.00000000000E+00  0.00000000000E+00  0.12337242040E+01  0.12337242040E+01  0.00000000000E+00 0.  1.
          2   -1    0    0  501    0 -0.00000000000E+00 -0.00000000000E+00 -0.38668943385E+03  0.38668943385E+03  0.00000000000E+00 0.  1.
          2    1    1    2  501    0 -0.57578405228E+01 -0.20853325246E+02 -0.21944874125E+03  0.22051250290E+03  0.00000000000E+00 0.  1.
          2    1    1    2  502    0  0.57578405228E+01  0.20853325246E+02 -0.16600696839E+03  0.16741065515E+03  0.00000000000E+00 0.  1.
</event>
<event>
 4    1  0.6136512E+003  0.9451649E+02  0.7546771E-02  0.1173665E+00
          2   -1    0    0  502    0  0.00000000000E+00  0.00000000000E+00  0.21653250678E+03  0.21653250678E+03  0.00000000000E+00 0.  1.
          2   -1    0    0  501    0 -0.00000000000E+00 -0.00000000000E+00 -0.36830697075E+03  0.36830697075E+03  0.00000000000E+00 0. -1.
          2    1    1    2  501    0 -0.92301903467E+02  0.20340262049E+02  0.19966829245E+03  0.22090901895E+03  0.00000000000E+00 0.  1.
          2    1    1    2  502    0  0.92301903467E+02 -0.20340262049E+02 -0.35144275641E+03  0.36393045858E+03  0.00000000000E+00 0. -1.
</event>
<event>
 4    1  0.6136512E+003  0.2610959E+02  0.7546771E-02  0.1456763E+00
          2   -1    0    0  502    0  0.00000000000E+00  0.00000000000E+00  0.44755240269E+02  0.44755240269E+02  0.00000000000E+00 0.  1.
          2   -1    0    0  501    0 -0.00000000000E+00 -0.00000000000E+00 -0.11534247443E+03  0.11534247443E+03  0.00000000000E+00 0.  1.
          2    1    1    2  501    0 -0.10130900818E+02 -0.24063985942E+02  0.39282595796E+02  0.47168134405E+02  0.00000000000E+00 0.  1.
          2    1    1    2  502    0  0.10130900818E+02  0.24063985942E+02 -0.10986982996E+03  0.11292958030E+03  0.00000000000E+00 0.  1.
</event>
<event>
 4    1  0.6136512E+003  0.2274964E+02  0.7546771E-02  0.1495666E+00
          2   -1    0    0  502    0  0.00000000000E+00  0.00000000000E+00  0.30629083120E+01  0.30629083120E+01  0.00000000000E+00 0.  1.
          2   -1    0    0  501    0 -0.00000000000E+00 -0.00000000000E+00 -0.12726953303E+04  0.12726953303E+04  0.00000000000E+00 0.  1.
          2    1    1    2  501    0  0.22070817254E+02  0.55159081751E+01 -0.40789133936E+02  0.46704385924E+02  0.00000000000E+00 0.  1.
          2    1    1    2  502    0 -0.22070817254E+02 -0.55159081751E+01 -0.12288432881E+04  0.12290538527E+04  0.00000000000E+00 0.  1.
</event>
<event>
 4    1  0.6136512E+003  0.4494123E+02  0.7546771E-02  0.1321734E+00
          2   -1    0    0  502    0  0.00000000000E+00  0.00000000000E+00  0.13340234794E+01  0.13340234794E+01  0.00000000000E+00 0. -1.
          2   -1    0    0  501    0 -0.00000000000E+00 -0.00000000000E+00 -0.15186199785E+04  0.15186199785E+04  0.00000000000E+00 0. -1.
          2    1    1    2  501    0 -0.38724171252E+02  0.22806854525E+02 -0.71673394764E+03  0.71814153602E+03  0.00000000000E+00 0. -1.
          2    1    1    2  502    0  0.38724171252E+02 -0.22806854525E+02 -0.80055200738E+03  0.80181246596E+03  0.00000000000E+00 0. -1.
</event>
<event>
 4    1  0.6136512E+003  0.2424660E+02  0.7546771E-02  0.1477411E+00
          2   -1    0    0  502    0  0.00000000000E+00  0.00000000000E+00  0.10514198440E+01  0.10514198440E+01  0.00000000000E+00 0. -1.
          2   -1    0    0  501    0 -0.00000000000E+00 -0.00000000000E+00 -0.94895012205E+03  0.94895012205E+03  0.00000000000E+00 0. -1.
          2    1    1    2  501    0  0.24171650351E+02  0.19050009255E+01 -0.16951366071E+03  0.17123895257E+03  0.00000000000E+00 0. -1.
          2    1    1    2  502    0 -0.24171650351E+02 -0.19050009255E+01 -0.77838504150E+03  0.77876258933E+03  0.00000000000E+00 0. -1.
</event>
<event>
 4    1  0.6136512E+003  0.3140505E+02  0.7546771E-02  0.1407767E+00
          2   -1    0    0  501    0  0.00000000000E+00  0.00000000000E+00  0.44607439180E+01  0.44607439180E+01  0.00000000000E+00 0. -1.
          2   -1    0    0  502    0 -0.00000000000E+00 -0.00000000000E+00 -0.54171894509E+03  0.54171894509E+03  0.00000000000E+00 0. -1.
          2    1    1    2  501    0  0.28140074135E+02  0.13943209882E+02 -0.47872237885E+03  0.47975138654E+03  0.00000000000E+00 0. -1.
          2    1    1    2  502    0 -0.28140074135E+02 -0.13943209882E+02 -0.58535822328E+02  0.66428302475E+02  0.00000000000E+00 0. -1.
</event>
<event>
 4    1  0.6136512E+003  0.2729098E+02  0.7546771E-02  0.1444707E+00
          2   -1    0    0  501    0  0.00000000000E+00  0.00000000000E+00  0.35491909004E+03  0.35491909004E+03  0.00000000000E+00 0.  1.
          2   -1    0    0  502    0 -0.00000000000E+00 -0.00000000000E+00 -0.15367450529E+02  0.15367450529E+02  0.00000000000E+00 0. -1.
          2    1    1    2  501    0 -0.23461905910E+02 -0.13940458338E+02 -0.22625506693E+01  0.27384604126E+02  0.00000000000E+00 0. -1.
          2    1    1    2  502    0  0.23461905910E+02  0.13940458338E+02  0.34181419018E+03  0.34290193644E+03  0.00000000000E+00 0.  1.
</event>
<event>
 4    1  0.6136512E+003  0.8677687E+02  0.7546771E-02  0.1188932E+00
          2   -1    0    0  502    0  0.00000000000E+00  0.00000000000E+00  0.17502042091E+03  0.17502042091E+03  0.00000000000E+00 0.  1.
          2   -1    0    0  501    0 -0.00000000000E+00 -0.00000000000E+00 -0.45226102213E+02  0.45226102213E+02  0.00000000000E+00 0.  1.
          2    1    1    2  501    0 -0.64786980326E+02 -0.57731035323E+02  0.89192364498E+02  0.12444076159E+03  0.00000000000E+00 0.  1.
          2    1    1    2  502    0  0.64786980326E+02  0.57731035323E+02  0.40601954203E+02  0.95805761541E+02  0.00000000000E+00 0.  1.
</event>
<event>
 4    1  0.6136512E+003  0.2640002E+02  0.7546771E-02  0.1453730E+00
          2   -1    0    0  501    0  0.00000000000E+00  0.00000000000E+00  0.45977130131E+01  0.45977130131E+01  0.00000000000E+00 0.  1.
          2   -1    0    0  502    0 -0.00000000000E+00 -0.00000000000E+00 -0.49684258445E+03  0.49684258445E+03  0.00000000000E+00 0.  1.
          2    1    1    2  501    0  0.25281645955E+02 -0.76025850036E+01 -0.45512382575E+03  0.45588886550E+03  0.00000000000E+00 0.  1.
          2    1    1    2  502    0 -0.25281645955E+02  0.76025850036E+01 -0.37121045680E+02  0.45551431957E+02  0.00000000000E+00 0.  1.
</event>
<event>
 4    1  0.6136512E+003  0.2095919E+02  0.7546771E-02  0.1519848E+00
          2   -1    0    0  501    0  0.00000000000E+00  0.00000000000E+00  0.54640925344E+03  0.54640925344E+03  0.00000000000E+00 0.  1.
          2   -1    0    0  502    0 -0.00000000000E+00 -0.00000000000E+00 -0.79602128477E+01  0.79602128477E+01  0.00000000000E+00 0. -1.
          2    1    1    2  501    0  0.10641550966E+02  0.18056716278E+02  0.64096084228E+01  0.21917360467E+02  0.00000000000E+00 0. -1.
          2    1    1    2  502    0 -0.10641550966E+02 -0.18056716278E+02  0.53203943217E+03  0.53245210582E+03  0.00000000000E+00 0.  1.
</event>
<event>
 4    1  0.6136512E+003  0.2623683E+02  0.7546771E-02  0.1455429E+00
          2   -1    0    0  502    0  0.00000000000E+00  0.00000000000E+00  0.17845319548E+02  0.17845319548E+02  0.00000000000E+00 0. -1.
          2   -1    0    0  501    0 -0.00000000000E+00 -0.00000000000E+00 -0.48071602358E+03  0.48071602358E+03  0.00000000000E+00 0.  1.
          2    1    1    2  501    0 -0.11168514635E+02 -0.23741004920E+02  0.76346293667E+01  0.27325054425E+02  0.00000000000E+00 0. -1.
          2    1    1    2  502    0  0.11168514635E+02  0.23741004920E+02 -0.47050533340E+03  0.47123628870E+03  0.00000000000E+00 0.  1.
</event>
<event>
 4    1  0.6136512E+003  0.3569330E+02  0.7546771E-02  0.1375754E+00
          2   -1    0    0  501    0  0.00000000000E+00  0.00000000000E+00  0.20040431818E+04  0.20040431818E+04  0.00000000000E+00 0. -1.
          2   -1    0    0  502    0 -0.00000000000E+00 -0.00000000000E+00 -0.37583924692E+02  0.37583924692E+02  0.00000000000E+00 0.  1.
          2    1    1    2  501    0  0.24915916310E+02  0.25557947675E+02 -0.28913729988E+02  0.45934903469E+02  0.00000000000E+00 0.  1.
          2    1    1    2  502    0 -0.24915916310E+02 -0.25557947675E+02  0.19953729871E+04  0.19956922030E+04  0.00000000000E+00 0. -1.
</event>
<event>
 4    1  0.6136512E+003  0.2062083E+02  0.7546771E-02  0.1524748E+00
          2   -1    0    0  502    0  0.00000000000E+00  0.00000000000E+00  0.80497218874E+03  0.80497218874E+03  0.00000000000E+00 0. -1.
          2   -1    0    0  501    0 -0.00000000000E+00 -0.00000000000E+00 -0.15235858801E+01  0.15235858801E+01  0.00000000000E+00 0.  1.
          2    1    1    2  501    0  0.20119738891E+02 -0.45182701819E+01  0.72765525123E+03  0.72794737673E+03  0.00000000000E+00 0. -1.
          2    1    1    2  502    0 -0.20119738891E+02  0.45182701819E+01  0.75793351639E+02  0.78548397890E+02  0.00000000000E+00 0.  1.
</event>
<event>
 4    1  0.6136512E+003  0.2362353E+02  0.7546771E-02  0.1484813E+00
          2   -1    0    0  501    0  0.00000000000E+00  0.00000000000E+00  0.86057205997E+00  0.86057205997E+00  0.00000000000E+00 0.  1.
          2   -1    0    0  502    0 -0.00000000000E+00 -0.00000000000E+00 -0.12709837202E+04  0.12709837202E+04  0.00000000000E+00 0.  1.
          2    1    1    2  501    0 -0.22902854868E+02  0.57905396892E+01 -0.10801045545E+04  0.10803628649E+04  0.00000000000E+00 0.  1.
          2    1    1    2  502    0  0.22902854868E+02 -0.57905396892E+01 -0.19001859356E+03  0.19148142733E+03  0.00000000000E+00 0.  1.
</event>
<event>
 4    1  0.1619117E+004  0.2151793E+02  0.7546771E-02  0.1511997E+00
          2   -1    0    0  502    0  0.00000000000E+00  0.00000000000E+00  0.78707566423E+03  0.78707566423E+03  0.00000000000E+00 0. -1.
          2   -1    0    0  501    0 -0.00000000000E+00 -0.00000000000E+00 -0.14273206463E+04  0.14273206463E+04  0.00000000000E+00 0. -1.
          2    1    1    2  501    0  0.43284379389E+01  0.21078095954E+02  0.78684747074E+03  0.78714164146E+03  0.00000000000E+00 0. -1.
          2    1    1    2  502    0 -0.43284379389E+01 -0.21078095954E+02 -0.14270924528E+04  0.14272546691E+04  0.00000000000E+00 0. -1.
</event>
<event>
 4    1  0.6136512E+003  0.3147030E+02  0.7546771E-02  0.1407236E+00
          2   -1    0    0  502    0  0.00000000000E+00  0.00000000000E+00  0.43587970707E+01  0.43587970707E+01  0.00000000000E+00 0. -1.
          2   -1    0    0  501    0 -0.00000000000E+00 -0.00000000000E+00 -0.62526660518E+03  0.62526660518E+03  0.00000000000E+00 0.  1.
          2    1    1    2  501    0  0.31469548673E+02 -0.21801525639E+00 -0.59271145567E+02  0.67107739652E+02  0.00000000000E+00 0. -1.
          2    1    1    2  502    0 -0.31469548673E+02  0.21801525639E+00 -0.56163666255E+03  0.56251766260E+03  0.00000000000E+00 0.  1.
</event>
<event>
 4    1  0.6136512E+003  0.2318020E+02  0.7546771E-02  0.1490248E+00
          2   -1    0    0  502    0  0.00000000000E+00  0.00000000000E+00  0.98507524324E+01  0.98507524324E+01  0.00000000000E+00 0.  1.
          2   -1    0    0  501    0 -0.00000000000E+00 -0.00000000000E+00 -0.18392477002E+03  0.18392477002E+03  0.00000000000E+00 0. -1.
          2    1    1    2  501    0 -0.82253970919E+01  0.21671742146E+02 -0.57764309575E+01  0.23889092063E+02  0.00000000000E+00 0.  1.
          2    1    1    2  502    0  0.82253970919E+01 -0.21671742146E+02 -0.16829758663E+03  0.16988643038E+03  0.00000000000E+00 0. -1.
</event>
<event>
 4    1  0.6136512E+003  0.3227077E+02  0.7546771E-02  0.1400838E+00
          2   -1    0    0  502    0  0.00000000000E+00  0.00000000000E+00  0.15421994885E+04  0.15421994885E+04  0.00000000000E+00 0. -1.
          2   -1    0    0  501    0 -0.00000000000E+00 -0.00000000000E+00 -0.54215523849E+02  0.54215523849E+02  0.00000000000E+00 0. -1.
          2    1    1    2  501    0  0.31348814835E+02 -0.76586041874E+01  0.15372129537E+04  0.15375516471E+04  0.00000000000E+00 0. -1.
          2    1    1    2  502    0 -0.31348814835E+02  0.76586041874E+01 -0.49228989042E+02  0.58863365277E+02  0.00000000000E+00 0. -1.
</event>
<event>
 4    1  0.6136512E+003  0.2867844E+02  0.7546771E-02  0.1431439E+00
          2   -1    0    0  502    0  0.00000000000E+00  0.00000000000E+00  0.94562064588E+01  0.94562064588E+01  0.00000000000E+00 0. -1.
          2   -1    0    0  501    0 -0.00000000000E+00 -0.00000000000E+00 -0.77752979306E+03  0.77752979306E+03  0.00000000000E+00 0. -1.
          2    1    1    2  501    0 -0.75707045483E+01  0.27661111333E+02 -0.13204460365E+02  0.31572304653E+02  0.00000000000E+00 0. -1.
          2    1    1    2  502    0  0.75707045483E+01 -0.27661111333E+02 -0.75486912624E+03  0.75541369487E+03  0.00000000000E+00 0. -1.
</event>
<event>
 4    1  0.6136512E+003  0.5675217E+02  0.7546771E-02  0.1271286E+00
          2   -1    0    0  502    0  0.00000000000E+00  0.00000000000E+00  0.52369041891E+03  0.52369041891E+03  0.00000000000E+00 0. -1.
          2   -1    0    0  501    0 -0.00000000000E+00 -0.00000000000E+00 -0.23269831059E+04  0.23269831059E+04  0.00000000000E+00 0. -1.
          2    1    1    2  501    0 -0.24857606928E+02  0.51018709223E+02  0.52180559019E+03  0.52488273287E+03  0.00000000000E+00 0. -1.
          2    1    1    2  502    0  0.24857606928E+02 -0.51018709223E+02 -0.23250982771E+04  0.23257907919E+04  0.00000000000E+00 0. -1.
</event>
<event>
 4    1  0.6136512E+003  0.2421522E+02  0.7546771E-02  0.1477777E+00
          2   -1    0    0  501    0  0.00000000000E+00  0.00000000000E+00  0.16294142912E+02  0.16294142912E+02  0.00000000000E+00 0. -1.
          2   -1    0    0  502    0 -0.00000000000E+00 -0.00000000000E+00 -0.55193800226E+02  0.55193800226E+02  0.00000000000E+00 0.  1.
          2    1    1    2  501    0  0.14380298557E+02  0.19482912661E+02 -0.40535405093E+02  0.47217538462E+02  0.00000000000E+00 0.  1.
          2    1    1    2  502    0 -0.14380298557E+02 -0.19482912661E+02  0.16357477789E+01  0.24270404676E+02  0.00000000000E+00 0. -1.
</event>
<event>
 4    1  0.6136512E+003  0.2644472E+02  0.7546771E-02  0.1453267E+00
          2   -1    0    0  502    0  0.00000000000E+00  0.00000000000E+00  0.20678979946E+04  0.20678979946E+04  0.00000000000E+00 0.  1.
          2   -1    0    0  501    0 -0.00000000000E+00 -0.00000000000E+00 -0.68122180839E+00  0.68122180839E+00  0.00000000000E+00 0.  1.
          2    1    1    2  501    0  0.61015075019E+01 -0.25731207186E+02  0.17675658719E+04  0.17677636819E+04  0.00000000000E+00 0.  1.
          2    1    1    2  502    0 -0.61015075019E+01  0.25731207186E+02  0.29965090083E+03  0.30081553448E+03  0.00000000000E+00 0.  1.
</event>
<event>
 4    1  0.6136512E+003  0.3599400E+02  0.7546771E-02  0.1373707E+00
          2   -1    0    0  502    0  0.00000000000E+00  0.00000000000E+00  0.23213694702E+03  0.23213694702E+03  0.00000000000E+00 0. -1.
          2   -1    0    0  501    0 -0.00000000000E+00 -0.00000000000E+00 -0.98521573530E+01  0.98521573530E+01  0.00000000000E+00 0.  1.
          2    1    1    2  501    0 -0.33665035010E+02  0.12737090907E+02  0.19080790757E+03  0.19417318471E+03  0.00000000000E+00 0. -1.
          2    1    1    2  502    0  0.33665035010E+02 -0.12737090907E+02  0.31476882090E+02  0.47815919661E+02  0.00000000000E+00 0.  1.
</event>
<event>
 4    1  0.6136512E+003  0.2701800E+02  0.7546771E-02  0.1447427E+00
          2   -1    0    0  502    0  0.00000000000E+00  0.00000000000E+00  0.79101128485E+03  0.79101128485E+03  0.00000000000E+00 0.  1.
          2   -1    0    0  501    0 -0.00000000000E+00 -0.00000000000E+00 -0.13713665043E+01  0.13713665043E+01  0.00000000000E+00 0.  1.
          2    1    1    2  501    0 -0.76999018920E+01  0.25897562443E+02  0.62140178914E+03  0.62198887110E+03  0.00000000000E+00 0.  1.
          2    1    1    2  502    0  0.76999018920E+01 -0.25897562443E+02  0.16823812921E+03  0.17039378025E+03  0.00000000000E+00 0.  1.
</event>
<event>
 4    1  0.6136512E+003  0.5280608E+02  0.7546771E-02  0.1286444E+00
          2   -1    0    0  501    0  0.00000000000E+00  0.00000000000E+00  0.48173453081E+03  0.48173453081E+03  0.00000000000E+00 0.  1.
          2   -1    0    0  502    0 -0.00000000000E+00 -0.00000000000E+00 -0.31874135704E+02  0.31874135704E+02  0.00000000000E+00 0. -1.
          2    1    1    2  501    0 -0.93991005914E+01 -0.51962863507E+02 -0.73886844424E+01  0.53320492623E+02  0.00000000000E+00 0. -1.
          2    1    1    2  502    0  0.93991005914E+01  0.51962863507E+02  0.45724907955E+03  0.46028817389E+03  0.00000000000E+00 0.  1.
</event>
<event>
 4    1  0.6136512E+003  0.2070717E+02  0.7546771E-02  0.1523487E+00
          2   -1    0    0  501    0  0.00000000000E+00  0.00000000000E+00  0.29630307564E+02  0.29630307564E+02  0.00000000000E+00 0. -1.
          2   -1    0    0  502    0 -0.00000000000E+00 -0.00000000000E+00 -0.11258907234E+04  0.11258907234E+04  0.00000000000E+00 0.  1.
          2    1    1    2  501    0  0.17494294846E+02 -0.11078660857E+02 -0.11221656963E+04  0.11223567334E+04  0.00000000000E+00 0.  1.
          2    1    1    2  502    0 -0.17494294846E+02  0.11078660857E+02  0.25905280445E+02  0.33164297572E+02  0.00000000000E+00 0. -1.
</event>
<event>
 4    1  0.6136512E+003  0.2436294E+02  0.7546771E-02  0.1476058E+00
          2   -1    0    0  502    0  0.00000000000E+00  0.00000000000E+00  0.19833962134E+03  0.19833962134E+03  0.00000000000E+00 0. -1.
          2   -1    0    0  501    0 -0.00000000000E+00 -0.00000000000E+00 -0.31929600733E+03  0.31929600733E+03  0.00000000000E+00 0.  1.
          2    1    1    2  501    0  0.63854414690E-01 -0.24362858807E+02  0.19712387804E+03  0.19862370518E+03  0.00000000000E+00 0. -1.
          2    1    1    2  502    0 -0.63854414690E-01  0.24362858807E+02 -0.31808026403E+03  0.31901192349E+03  0.00000000000E+00 0.  1.
</event>
<event>
 4    1  0.6136512E+003  0.3678369E+02  0.7546771E-02  0.1368439E+00
          2   -1    0    0  502    0  0.00000000000E+00  0.00000000000E+00  0.98394090056E+02  0.98394090056E+02  0.00000000000E+00 0.  1.
          2   -1    0    0  501    0 -0.00000000000E+00 -0.00000000000E+00 -0.53775481813E+03  0.53775481813E+03  0.00000000000E+00 0.  1.
          2    1    1    2  501    0 -0.36071701027E+02 -0.72022337213E+01  0.94300923251E+02  0.10122106456E+03  0.00000000000E+00 0.  1.
          2    1    1    2  502    0  0.36071701027E+02  0.72022337213E+01 -0.53366165133E+03  0.53492784362E+03  0.00000000000E+00 0.  1.
</event>
<event>
 4    1  0.6136512E+003  0.2014690E+02  0.7546771E-02  0.1531802E+00
          2   -1    0    0  501    0  0.00000000000E+00  0.00000000000E+00  0.86734130315E+00  0.86734130315E+00  0.00000000000E+00 0.  1.
          2   -1    0    0  502    0 -0.00000000000E+00 -0.00000000000E+00 -0.73569901789E+03  0.73569901789E+03  0.00000000000E+00 0.  1.
          2    1    1    2  501    0 -0.12969877222E+01  0.20105113735E+02 -0.58957896328E+03  0.58992308966E+03  0.00000000000E+00 0.  1.
          2    1    1    2  502    0  0.12969877222E+01 -0.20105113735E+02 -0.14525271331E+03  0.14664326954E+03  0.00000000000E+00 0.  1.
</event>
<event>
 4    1  0.6136512E+003  0.2039074E+02  0.7546771E-02  0.1528144E+00
          2   -1    0    0  501    0  0.00000000000E+00  0.00000000000E+00  0.10938208395E+04  0.10938208395E+04  0.00000000000E+00 0.  1.
          2   -1    0    0  502    0 -0.00000000000E+00 -0.00000000000E+00 -0.77335626455E+00  0.77335626455E+00  0.00000000000E+00 0.  1.
          2    1    1    2  501    0 -0.17074863567E+02 -0.11145904197E+02  0.15625780831E+03  0.15758262850E+03  0.00000000000E+00 0.  1.
          2    1    1    2  502    0  0.17074863567E+02  0.11145904197E+02  0.93678967491E+03  0.93701156725E+03  0.00000000000E+00 0.  1.
</event>
<event>
 4    1  0.6136512E+003  0.3142921E+02  0.7546771E-02  0.1407570E+00
          2   -1    0    0  501    0  0.00000000000E+00  0.00000000000E+00  0.52997347251E+01  0.52997347251E+01  0.00000000000E+00 0.  1.
          2   -1    0    0  502    0 -0.00000000000E+00 -0.00000000000E+00 -0.18668058568E+03  0.18668058568E+03  0.00000000000E+00 0.  1.
          2    1    1    2  501    0  0.91693151443E+00 -0.31415827701E+02 -0.94505231363E+02  0.99594345967E+02  0.00000000000E+00 0.  1.
          2    1    1    2  502    0 -0.91693151443E+00  0.31415827701E+02 -0.86875619596E+02  0.92385974442E+02  0.00000000000E+00 0.  1.
</event>
<event>
 4    1  0.6136512E+003  0.2730178E+02  0.7546771E-02  0.1444600E+00
          2   -1    0    0  502    0  0.00000000000E+00  0.00000000000E+00  0.15784844683E+04  0.15784844683E+04  0.00000000000E+00 0. -1.
          2   -1    0    0  501    0 -0.00000000000E+00 -0.00000000000E+00 -0.50193467127E+00  0.50193467127E+00  0.00000000000E+00 0. -1.
          2    1    1    2  501    0 -0.17962644631E+02  0.20560409480E+02  0.98109372603E+03  0.98147352807E+03  0.00000000000E+00 0. -1.
          2    1    1    2  502    0  0.17962644631E+02 -0.20560409480E+02  0.59688880755E+03  0.59751287486E+03  0.00000000000E+00 0. -1.
</event>
<event>
 4    1  0.6136512E+003  0.2645122E+02  0.7546771E-02  0.1453200E+00
          2   -1    0    0  501    0  0.00000000000E+00  0.00000000000E+00  0.52052544146E+03  0.52052544146E+03  0.00000000000E+00 0.  1.
          2   -1    0    0  502    0 -0.00000000000E+00 -0.00000000000E+00 -0.71487917314E+01  0.71487917314E+01  0.00000000000E+00 0. -1.
          2    1    1    2  501    0  0.17565251256E+02  0.19776978489E+02  0.18945680734E+02  0.32536222097E+02  0.00000000000E+00 0. -1.
          2    1    1    2  502    0 -0.17565251256E+02 -0.19776978489E+02  0.49443096899E+03  0.49513801109E+03  0.00000000000E+00 0.  1.
</event>
<event>
 4    1  0.6136512E+003  0.3368662E+02  0.7546771E-02  0.1390039E+00
          2   -1    0    0  502    0  0.00000000000E+00  0.00000000000E+00  0.10503758902E+04  0.10503758902E+04  0.00000000000E+00 0. -1.
          2   -1    0    0  501    0 -0.00000000000E+00 -0.00000000000E+00 -0.56062259225E+02  0.56062259225E+02  0.00000000000E+00 0. -1.
          2    1    1    2  501    0 -0.30551688335E+02 -0.14190943347E+02  0.10450194737E+04  0.10455622837E+04  0.00000000000E+00 0. -1.
          2    1    1    2  502    0  0.30551688335E+02  0.14190943347E+02 -0.50705842801E+02  0.60875865721E+02  0.00000000000E+00 0. -1.
</event>
<event>
 4    1  0.6136512E+003  0.2157036E+02  0.7546771E-02  0.1511275E+00
          2   -1    0    0  502    0  0.00000000000E+00  0.00000000000E+00  0.24885983079E+03  0.24885983079E+03  0.00000000000E+00 0. -1.
          2   -1    0    0  501    0 -0.00000000000E+00 -0.00000000000E+00 -0.30719762219E+01  0.30719762219E+01  0.00000000000E+00 0. -1.
          2    1    1    2  501    0  0.14849057187E+02 -0.15645631278E+02  0.20169926005E+03  0.20284938201E+03  0.00000000000E+00 0. -1.
          2    1    1    2  502    0 -0.14849057187E+02  0.15645631278E+02  0.44088594518E+02  0.49082425001E+02  0.00000000000E+00 0. -1.
</event>
<event>
 4    1  0.6136512E+003  0.2271484E+02  0.7546771E-02  0.1496110E+00
          2   -1    0    0  501    0  0.00000000000E+00  0.00000000000E+00  0.52619118536E+03  0.52619118536E+03  0.00000000000E+00 0. -1.
          2   -1    0    0  502    0 -0.00000000000E+00 -0.00000000000E+00 -0.98112176564E+00  0.98112176564E+00  0.00000000000E+00 0.  1.
          2    1    1    2  501    0  0.20119022516E+02  0.10544613249E+02  0.26889188637E+03  0.26984960717E+03  0.00000000000E+00 0. -1.
          2    1    1    2  502    0 -0.20119022516E+02 -0.10544613249E+02  0.25631817723E+03  0.25732269995E+03  0.00000000000E+00 0.  1.
</event>
<event>
 4    1  0.6136512E+003  0.2145912E+02  0.7546771E-02  0.1512810E+00
          2   -1    0    0  502    0  0.00000000000E+00  0.00000000000E+00  0.11420178918E+04  0.11420178918E+04  0.00000000000E+00 0.  1.
          2   -1    0    0  501    0 -0.00000000000E+00 -0.00000000000E+00 -0.28303177234E+03  0.28303177234E+03  0.00000000000E+00 0.  1.
          2    1    1    2  501    0 -0.20413173682E+02 -0.66178792153E+01  0.11415101527E+04  0.11417118387E+04  0.00000000000E+00 0.  1.
          2    1    1    2  502    0  0.20413173682E+02  0.66178792153E+01 -0.28252403320E+03  0.28333782544E+03  0.00000000000E+00 0.  1.
</event>
<event>
 4    1  0.6136512E+003  0.3751902E+02  0.7546771E-02  0.1363671E+00
          2   -1    0    0  501    0  0.00000000000E+00  0.00000000000E+00  0.15020273717E+04  0.15020273717E+04  0.00000000000E+00 0. -1.
          2   -1    0    0  502    0 -0.00000000000E+00 -0.00000000000E+00 -0.11343669020E+03  0.11343669020E+03  0.00000000000E+00 0. -1.
          2    1    1    2  501    0  0.35712143616E+02  0.11503019999E+02 -0.11009313399E+03  0.11631068232E+03  0.00000000000E+00 0. -1.
          2    1    1    2  502    0 -0.35712143616E+02 -0.11503019999E+02  0.14986838154E+04  0.14991533795E+04  0.00000000000E+00 0. -1.
</event>
<event>
 4    1  0.6136512E+003  0.2627388E+02  0.7546771E-02  0.1455042E+00
          2   -1    0    0  502    0  0.00000000000E+00  0.00000000000E+00  0.90077635939E+02  0.90077635939E+02  0.00000000000E+00 0.  1.
          2   -1    0    0  501    0 -0.00000000000E+00 -0.00000000000E+00 -0.12372593782E+04  0.12372593782E+04  0.00000000000E+00 0.  1.
          2    1    1    2  501    0  0.42968251048E+01  0.25920146835E+02  0.88019064502E+02  0.91856803960E+02  0.00000000000E+00 0.  1.
          2    1    1    2  502    0 -0.42968251048E+01 -0.25920146835E+02 -0.12352008068E+04  0.12354802102E+04  0.00000000000E+00 0.  1.
</event>
<event>
 4    1  0.6136512E+003  0.2066732E+02  0.7546771E-02  0.1524068E+00
          2   -1    0    0  501    0  0.00000000000E+00  0.00000000000E+00  0.33438323236E+02  0.33438323236E+02  0.00000000000E+00 0.  1.
          2   -1    0    0  502    0 -0.00000000000E+00 -0.00000000000E+00 -0.13046559134E+03  0.13046559134E+03  0.00000000000E+00 0.  1.
          2    1    1    2  501    0 -0.63967964291E+01  0.19652459966E+02 -0.12635029863E+03  0.12802943470E+03  0.00000000000E+00 0.  1.
          2    1    1    2  502    0  0.63967964291E+01 -0.19652459966E+02  0.29323030522E+02  0.35874479874E+02  0.00000000000E+00 0.  1.
</event>
<event>
 4    1  0.7270175E+003  0.2061865E+02  0.7546771E-02  0.1524780E+00
          2   -1    0    0  501    0  0.00000000000E+00  0.00000000000E+00  0.12789946413E+04  0.12789946413E+04  0.00000000000E+00 0.  1.
          2   -1    0    0  502    0 -0.00000000000E+00 -0.00000000000E+00 -0.40090831449E+03  0.40090831449E+03  0.00000000000E+00 0. -1.
          2    1    1    2  501    0  0.10681234326E+02 -0.17636327461E+02 -0.40056004053E+03  0.40109035751E+03  0.00000000000E+00 0. -1.
          2    1    1    2  502    0 -0.10681234326E+02  0.17636327461E+02  0.12786463674E+04  0.12788125983E+04  0.00000000000E+00 0.  1.
</event>
<event>
 4    1  0.6136512E+003  0.2168635E+02  0.7546771E-02  0.1509687E+00
          2   -1    0    0  501    0  0.00000000000E+00  0.00000000000E+00  0.82709424842E+03  0.82709424842E+03  0.00000000000E+00 0.  1.
          2   -1    0    0  502    0 -0.00000000000E+00 -0.00000000000E+00 -0.78448927343E+00  0.78448927343E+00  0.00000000000E+00 0.  1.
          2    1    1    2  501    0 -0.19756638268E+02  0.89427619871E+01  0.19601268733E+03  0.19720869997E+03  0.00000000000E+00 0.  1.
          2    1    1    2  502    0  0.19756638268E+02 -0.89427619871E+01  0.63029707181E+03  0.63067003772E+03  0.00000000000E+00 0.  1.
</event>
<event>
 4    1  0.6136512E+003  0.2125243E+02  0.7546771E-02  0.1515691E+00
          2   -1    0    0  501    0  0.00000000000E+00  0.00000000000E+00  0.68667488240E+00  0.68667488240E+00  0.00000000000E+00 0.  1.
          2   -1    0    0  502    0 -0.00000000000E+00 -0.00000000000E+00 -0.92259920615E+03  0.92259920615E+03  0.00000000000E+00 0.  1.
          2    1    1    2  501    0  0.14466872029E+02 -0.15568408802E+02 -0.70829528125E+03  0.70861404952E+03  0.00000000000E+00 0.  1.
          2    1    1    2  502    0 -0.14466872029E+02  0.15568408802E+02 -0.21361725001E+03  0.21467183151E+03  0.00000000000E+00 0.  1.
</event>
<event>
 4    1  0.6136512E+003  0.2042981E+02  0.7546771E-02  0.1527563E+00
          2   -1    0    0  502    0  0.00000000000E+00  0.00000000000E+00  0.12493348726E+04  0.12493348726E+04  0.00000000000E+00 0. -1.
          2   -1    0    0  501    0 -0.00000000000E+00 -0.00000000000E+00 -0.27668395455E+01  0.27668395455E+01  0.00000000000E+00 0. -1.
          2    1    1    2  501    0 -0.15406074527E+02 -0.13417533446E+02  0.12103234185E+04  0.12104958301E+04  0.00000000000E+00 0. -1.
          2    1    1    2  502    0  0.15406074527E+02  0.13417533446E+02  0.36244614563E+02  0.41605882048E+02  0.00000000000E+00 0. -1.
</event>
<event>
 4    1  0.6136512E+003  0.4109805E+02  0.7546771E-02  0.1342169E+00
          2   -1    0    0  502    0  0.00000000000E+00  0.00000000000E+00  0.16892741122E+03  0.16892741122E+03  0.00000000000E+00 0. -1.
          2   -1    0    0  501    0 -0.00000000000E+00 -0.00000000000E+00 -0.14803211763E+02  0.14803211763E+02  0.00000000000E+00 0. -1.
          2    1    1    2  501    0 -0.36237519666E+02 -0.19387926102E+02  0.12939798122E+03  0.13576776883E+03  0.00000000000E+00 0. -1.
          2    1    1    2  502    0  0.36237519666E+02  0.19387926102E+02  0.24726218238E+02  0.47962854152E+02  0.00000000000E+00 0. -1.
</event>
<event>
 4    1  0.6136512E+003  0.2286239E+02  0.7546771E-02  0.1494233E+00
          2   -1    0    0  501    0  0.00000000000E+00  0.00000000000E+00  0.55623046410E+03  0.55623046410E+03  0.00000000000E+00 0.  1.
          2   -1    0    0  502    0 -0.00000000000E+00 -0.00000000000E+00 -0.70592699441E+02  0.70592699441E+02  0.00000000000E+00 0. -1.
          2    1    1    2  501    0 -0.22815383473E+02  0.14653363849E+01 -0.68499713348E+02  0.72214262182E+02  0.00000000000E+00 0. -1.
          2    1    1    2  502    0  0.22815383473E+02 -0.14653363849E+01  0.55413747801E+03  0.55460890136E+03  0.00000000000E+00 0.  1.
</event>
<event>
 4    1  0.6136512E+003  0.2329340E+02  0.7546771E-02  0.1488846E+00
          2   -1    0    0  502    0  0.00000000000E+00  0.00000000000E+00  0.93620082279E+03  0.93620082279E+03  0.00000000000E+00 0. -1.
          2   -1    0    0  501    0 -0.00000000000E+00 -0.00000000000E+00 -0.51722906751E+01  0.51722906751E+01  0.00000000000E+00 0.  1.
          2    1    1    2  501    0  0.22442730688E+02 -0.62374799046E+01  0.90904726278E+03  0.90934564841E+03  0.00000000000E+00 0. -1.
          2    1    1    2  502    0 -0.22442730688E+02  0.62374799046E+01  0.21981269339E+02  0.32027465059E+02  0.00000000000E+00 0.  1.
</event>
<event>
 4    1  0.6136512E+003  0.2743635E+02  0.7546771E-02  0.1443273E+00
          2   -1    0    0  502    0  0.00000000000E+00  0.00000000000E+00  0.17495325456E+02  0.17495325456E+02  0.00000000000E+00 0. -1.
          2   -1    0    0  501    0 -0.00000000000E+00 -0.00000000000E+00 -0.18629279507E+04  0.18629279507E+04  0.00000000000E+00 0. -1.
          2    1    1    2  501    0 -0.26236585325E+02 -0.80246287822E+01  0.65743938885E+01  0.28213041871E+02  0.00000000000E+00 0. -1.
          2    1    1    2  502    0  0.26236585325E+02  0.80246287822E+01 -0.18520070191E+04  0.18522102343E+04  0.00000000000E+00 0. -1.
</event>
<event>
 4    1  0.6136512E+003  0.2272023E+02  0.7546771E-02  0.1496041E+00
          2   -1    0    0  502    0  0.00000000000E+00  0.00000000000E+00  0.59563712279E+02  0.59563712279E+02  0.00000000000E+00 0.  1.
          2   -1    0    0  501    0 -0.00000000000E+00 -0.00000000000E+00 -0.97832752451E+01  0.97832752451E+01  0.00000000000E+00 0. -1.
          2    1    1    2  501    0 -0.13022443684E+02  0.18617862697E+02  0.36605117778E+02  0.43082983862E+02  0.00000000000E+00 0.  1.
          2    1    1    2  502    0  0.13022443684E+02 -0.18617862697E+02  0.13175319256E+02  0.26264003663E+02  0.00000000000E+00 0. -1.
</event>
<event>
 4    1  0.6136512E+003  0.2198548E+02  0.7546771E-02  0.1505646E+00
          2   -1    0    0  502    0  0.00000000000E+00  0.00000000000E+00  0.93633225583E+03  0.93633225583E+03  0.00000000000E+00 0. -1.
          2   -1    0    0  501    0 -0.00000000000E+00 -0.00000000000E+00 -0.15002647471E+01  0.15002647471E+01  0.00000000000E+00 0.  1.
          2    1    1    2  501    0 -0.12204267647E+02 -0.18287071771E+02  0.84718275449E+03  0.84746798208E+03  0.00000000000E+00 0. -1.
          2    1    1    2  502    0  0.12204267647E+02  0.18287071771E+02  0.87649236589E+02  0.90364538495E+02  0.00000000000E+00 0.  1.
</event>
<event>
 4    1  0.6136512E+003  0.2271445E+02  0.7546771E-02  0.1496115E+00
          2   -1    0    0  502    0  0.00000000000E+00  0.00000000000E+00  0.62939063396E+03  0.62939063396E+03  0.00000000000E+00 0. -1.
          2   -1    0    0  501    0 -0.00000000000E+00 -0.00000000000E+00 -0.30377385079E+03  0.30377385079E+03  0.00000000000E+00 0.  1.
          2    1    1    2  501    0  0.19582096227E+02  0.11510333886E+02  0.62876065605E+03  0.62917081057E+03  0.00000000000E+00 0. -1.
          2    1    1    2  502    0 -0.19582096227E+02 -0.11510333886E+02 -0.30314387287E+03  0.30399367418E+03  0.00000000000E+00 0.  1.
</event>
<event>
 4    1  0.6136512E+003  0.2902710E+02  0.7546771E-02  0.1428243E+00
          2   -1    0    0  501    0  0.00000000000E+00  0.00000000000E+00  0.17990556930E+04  0.17990556930E+04  0.00000000000E+00 0. -1.
          2   -1    0    0  502    0 -0.00000000000E+00 -0.00000000000E+00 -0.80397958945E+01  0.80397958945E+01  0.00000000000E+00 0. -1.
          2    1    1    2  501    0  0.25840761534E+02 -0.13222246134E+02  0.18672205714E+02  0.34514113283E+02  0.00000000000E+00 0. -1.
          2    1    1    2  502    0 -0.25840761534E+02  0.13222246134E+02  0.17723436914E+04  0.17725813756E+04  0.00000000000E+00 0. -1.
</event>
<event>
 4    1  0.6136512E+003  0.5421291E+02  0.7546771E-02  0.1280872E+00
          2   -1    0    0  502    0  0.00000000000E+00  0.00000000000E+00  0.18153894886E+04  0.18153894886E+04  0.00000000000E+00 0.  1.
          2   -1    0    0  501    0 -0.00000000000E+00 -0.00000000000E+00 -0.16312470773E+01  0.16312470773E+01  0.00000000000E+00 0.  1.
          2    1    1    2  501    0  0.27686919647E+02 -0.46609803938E+02  0.98573418422E+03  0.98722384559E+03  0.00000000000E+00 0.  1.
          2    1    1    2  502    0 -0.27686919647E+02  0.46609803938E+02  0.82802405730E+03  0.82979689009E+03  0.00000000000E+00 0.  1.
</event>
<event>
 4    1  0.6136512E+003  0.2427944E+02  0.7546771E-02  0.1477028E+00
          2   -1    0    0  502    0  0.00000000000E+00  0.00000000000E+00  0.70957651651E+02  0.70957651651E+02  0.00000000000E+00 0.  1.
          2   -1    0    0  501    0 -0.00000000000E+00 -0.00000000000E+00 -0.56035827906E+02  0.56035827906E+02  0.00000000000E+00 0.  1.
          2    1    1    2  501    0  0.16415953542E+02  0.17888756244E+02  0.66062039265E+02  0.70382413730E+02  0.00000000000E+00 0.  1.
          2    1    1    2  502    0 -0.16415953542E+02 -0.17888756244E+02 -0.51140215520E+02  0.56611065827E+02  0.00000000000E+00 0.  1.
</event>
<event>
 4    1  0.6136512E+003  0.2199949E+02  0.7546771E-02  0.1505459E+00
          2   -1    0    0  502    0  0.00000000000E+00  0.00000000000E+00  0.22808414516E+01  0.22808414516E+01  0.00000000000E+00 0.  1.
          2   -1    0    0  501    0 -0.00000000000E+00 -0.00000000000E+00 -0.12310356087E+04  0.12310356087E+04  0.00000000000E+00 0. -1.
          2    1    1    2  501    0 -0.21486756197E+02 -0.47219756320E+01 -0.53377399031E+02  0.57733218108E+02  0.00000000000E+00 0.  1.
          2    1    1    2  502    0  0.21486756197E+02  0.47219756320E+01 -0.11753773682E+04  0.11755832320E+04  0.00000000000E+00 0. -1.
</event>
<event>
 4    1  0.6136512E+003  0.5934124E+02  0.7546771E-02  0.1262087E+00
          2   -1    0    0  502    0  0.00000000000E+00  0.00000000000E+00  0.17599101570E+04  0.17599101570E+04  0.00000000000E+00 0. -1.
          2   -1    0    0  501    0 -0.00000000000E+00 -0.00000000000E+00 -0.34314457551E+01  0.34314457551E+01  0.00000000000E+00 0.  1.
          2    1    1    2  501    0 -0.23112892718E+02  0.54655076069E+02  0.14475123532E+04  0.14487281995E+04  0.00000000000E+00 0. -1.
          2    1    1    2  502    0  0.23112892718E+02 -0.54655076069E+02  0.30896635804E+03  0.31461340332E+03  0.00000000000E+00 0.  1.
</event>
<event>
 4    1  0.6136512E+003  0.3684056E+02  0.7546771E-02  0.1368066E+00
          2   -1    0    0  501    0  0.00000000000E+00  0.00000000000E+00  0.17846071401E+04  0.17846071401E+04  0.00000000000E+00 0. -1.
          2   -1    0    0  502    0 -0.00000000000E+00 -0.00000000000E+00 -0.10052081145E+01  0.10052081145E+01  0.00000000000E+00 0.  1.
          2    1    1    2  501    0  0.33414373229E+02 -0.15514727890E+02  0.13322916969E+04  0.13328009577E+04  0.00000000000E+00 0. -1.
          2    1    1    2  502    0 -0.33414373229E+02  0.15514727890E+02  0.45131023503E+03  0.45281139049E+03  0.00000000000E+00 0.  1.
</event>
<event>
 4    1  0.6136512E+003  0.2459497E+02  0.7546771E-02  0.1473386E+00
          2   -1    0    0  502    0  0.00000000000E+00  0.00000000000E+00  0.13009177205E+04  0.13009177205E+04  0.00000000000E+00 0. -1.
          2   -1    0    0  501    0 -0.00000000000E+00 -0.00000000000E+00 -0.28716517262E+01  0.28716517262E+01  0.00000000000E+00 0. -1.
          2    1    1    2  501    0 -0.24110559029E+02 -0.48573292506E+01  0.12458097593E+04  0.12460525146E+04  0.00000000000E+00 0. -1.
          2    1    1    2  502    0  0.24110559029E+02  0.48573292506E+01  0.52236309458E+02  0.57736857639E+02  0.00000000000E+00 0. -1.
</event>
<event>
 4    1  0.6136512E+003  0.2117141E+02  0.7546771E-02  0.1516832E+00
          2   -1    0    0  502    0  0.00000000000E+00  0.00000000000E+00  0.52855557842E+03  0.52855557842E+03  0.00000000000E+00 0. -1.
          2   -1    0    0  501    0 -0.00000000000E+00 -0.00000000000E+00 -0.80932090047E+02  0.80932090047E+02  0.00000000000E+00 0.  1.
          2    1    1    2  501    0  0.15021067869E+02  0.14919651939E+02  0.52695478558E+03  0.52737991481E+03  0.00000000000E+00 0. -1.
          2    1    1    2  502    0 -0.15021067869E+02 -0.14919651939E+02 -0.79331297210E+02  0.82107753659E+02  0.00000000000E+00 0.  1.
</event>
<event>
 4    1  0.6136512E+003  0.2703745E+02  0.7546771E-02  0.1447232E+00
          2   -1    0    0  502    0  0.00000000000E+00  0.00000000000E+00  0.13981879881E+03  0.13981879881E+03  0.00000000000E+00 0.  1.
          2   -1    0    0  501    0 -0.00000000000E+00 -0.00000000000E+00 -0.12012458737E+03  0.12012458737E+03  0.00000000000E+00 0. -1.
          2    1    1    2  501    0  0.24127440417E+02 -0.12202052351E+02  0.13695885642E+03  0.13960211967E+03  0.00000000000E+00 0.  1.
          2    1    1    2  502    0 -0.24127440417E+02  0.12202052351E+02 -0.11726464498E+03  0.12034126651E+03  0.00000000000E+00 0. -1.
</event>
<event>
 4    1  0.6136512E+003  0.2104433E+02  0.7546771E-02  0.1518633E+00
          2   -1    0    0  502    0  0.00000000000E+00  0.00000000000E+00  0.13754453597E+01  0.13754453597E+01  0.00000000000E+00 0.  1.
          2   -1    0    0  501    0 -0.00000000000E+00 -0.00000000000E+00 -0.70880695460E+03  0.70880695460E+03  0.00000000000E+00 0. -1.
          2    1    1    2  501    0 -0.19798417850E+02 -0.71334892633E+01 -0.91393548836E+02  0.93785098962E+02  0.00000000000E+00 0.  1.
          2    1    1    2  502    0  0.19798417850E+02  0.71334892633E+01 -0.61603796041E+03  0.61639730100E+03  0.00000000000E+00 0. -1.
</event>
<event>
 4    1  0.6136512E+003  0.2191386E+02  0.7546771E-02  0.1506607E+00
          2   -1    0    0  502    0  0.00000000000E+00  0.00000000000E+00  0.58457680493E+02  0.58457680493E+02  0.00000000000E+00 0.  1.
          2   -1    0    0  501    0 -0.00000000000E+00 -0.00000000000E+00 -0.11958606479E+03  0.11958606479E+03  0.00000000000E+00 0. -1.
          2    1    1    2  501    0  0.19729739275E+02 -0.95370142172E+01  0.55345674378E+02  0.59526136481E+02  0.00000000000E+00 0.  1.
          2    1    1    2  502    0 -0.19729739275E+02  0.95370142172E+01 -0.11647405867E+03  0.11851760880E+03  0.00000000000E+00 0. -1.
</event>
<event>
 4    1  0.6136512E+003  0.2476543E+02  0.7546771E-02  0.1471445E+00
          2   -1    0    0  502    0  0.00000000000E+00  0.00000000000E+00  0.12067148903E+02  0.12067148903E+02  0.00000000000E+00 0. -1.
          2   -1    0    0  501    0 -0.00000000000E+00 -0.00000000000E+00 -0.48555319971E+03  0.48555319971E+03  0.00000000000E+00 0.  1.
          2    1    1    2  501    0  0.94739090671E+01 -0.22881685935E+02 -0.13150509323E+01  0.24800319820E+02  0.00000000000E+00 0. -1.
          2    1    1    2  502    0 -0.94739090671E+01  0.22881685935E+02 -0.47217099988E+03  0.47282002879E+03  0.00000000000E+00 0.  1.
</event>
<event>
 4    1  0.6136512E+003  0.2490672E+02  0.7546771E-02  0.1469850E+00
          2   -1    0    0  502    0  0.00000000000E+00  0.00000000000E+00  0.28249908227E+03  0.28249908227E+03  0.00000000000E+00 0.  1.
          2   -1    0    0  501    0 -0.00000000000E+00 -0.00000000000E+00 -0.17494935296E+02  0.17494935296E+02  0.00000000000E+00 0. -1.
          2    1    1    2  501    0 -0.19147859039E+02 -0.15928090793E+02  0.27276994535E+03  0.27390470545E+03  0.00000000000E+00 0.  1.
          2    1    1    2  502    0  0.19147859039E+02  0.15928090793E+02 -0.77657983780E+01  0.26089312113E+02  0.00000000000E+00 0. -1.
</event>
<event>
 4    1  0.6136512E+003  0.2091035E+02  0.7546771E-02  0.1520549E+00
          2   -1    0    0  501    0  0.00000000000E+00  0.00000000000E+00  0.49753666582E+01  0.49753666582E+01  0.00000000000E+00 0. -1.
          2   -1    0    0  502    0 -0.00000000000E+00 -0.00000000000E+00 -0.77723870892E+03  0.77723870892E+03  0.00000000000E+00 0.  1.
          2    1    1    2  501    0 -0.10742663902E+02  0.17939842780E+02 -0.75446462378E+03  0.75475433839E+03  0.00000000000E+00 0.  1.
          2    1    1    2  502    0  0.10742663902E+02 -0.17939842780E+02 -0.17798718480E+02  0.27459737184E+02  0.00000000000E+00 0. -1.
</event>
<event>
 4    1  0.6136512E+003  0.2123296E+02  0.7546771E-02  0.1515965E+00
          2   -1    0    0  501    0  0.00000000000E+00  0.00000000000E+00  0.14584692314E+02  0.14584692314E+02  0.00000000000E+00 0. -1.
          2   -1    0    0  502    0 -0.00000000000E+00 -0.00000000000E+00 -0.11308321344E+04  0.11308321344E+04  0.00000000000E+00 0.  1.
          2    1    1    2  501    0 -0.20328197020E+02  0.61321328265E+01 -0.11229502857E+04  0.11231510062E+04  0.00000000000E+00 0.  1.
          2    1    1    2  502    0  0.20328197020E+02 -0.61321328265E+01  0.67028436508E+01  0.22265820445E+02  0.00000000000E+00 0. -1.
</event>
<event>
 4    1  0.6136512E+003  0.2298296E+02  0.7546771E-02  0.1492712E+00
          2   -1    0    0  502    0  0.00000000000E+00  0.00000000000E+00  0.86272297723E+00  0.86272297723E+00  0.00000000000E+00 0.  1.
          2   -1    0    0  501    0 -0.00000000000E+00 -0.00000000000E+00 -0.16117758186E+04  0.16117758186E+04  0.00000000000E+00 0. -1.
          2    1    1    2  501    0 -0.33909631290E+01 -0.22731432642E+02 -0.17049405257E+03  0.17203615499E+03  0.00000000000E+00 0.  1.
          2    1    1    2  502    0  0.33909631290E+01  0.22731432642E+02 -0.14404190431E+04  0.14406023866E+04  0.00000000000E+00 0. -1.
</event>
<event>
 4    1  0.6136512E+003  0.2111800E+02  0.7546771E-02  0.1517587E+00
          2   -1    0    0  501    0  0.00000000000E+00  0.00000000000E+00  0.28628167310E+01  0.28628167310E+01  0.00000000000E+00 0.  1.
          2   -1    0    0  502    0 -0.00000000000E+00 -0.00000000000E+00 -0.15762561508E+03  0.15762561508E+03  0.00000000000E+00 0.  1.
          2    1    1    2  501    0  0.20847606821E+02  0.33685320795E+01 -0.86064315951E+02  0.88617358337E+02  0.00000000000E+00 0.  1.
          2    1    1    2  502    0 -0.20847606821E+02 -0.33685320795E+01 -0.68698482400E+02  0.71871073475E+02  0.00000000000E+00 0.  1.
</event>
<event>
 4    1  0.6136512E+003  0.2630630E+02  0.7546771E-02  0.1454704E+00
          2   -1    0    0  501    0  0.00000000000E+00  0.00000000000E+00  0.12618529560E+04  0.12618529560E+04  0.00000000000E+00 0.  1.
          2   -1    0    0  502    0 -0.00000000000E+00 -0.00000000000E+00 -0.81464174853E+01  0.81464174853E+01  0.00000000000E+00 0. -1.
          2    1    1    2  501    0  0.10406718731E+02 -0.24160326272E+02  0.13600033612E+02  0.29613883139E+02  0.00000000000E+00 0. -1.
          2    1    1    2  502    0 -0.10406718731E+02  0.24160326272E+02  0.12401065049E+04  0.12403854903E+04  0.00000000000E+00 0.  1.
</event>
<event>
 4    1  0.6136512E+003  0.2324113E+02  0.7546771E-02  0.1489492E+00
          2   -1    0    0  502    0  0.00000000000E+00  0.00000000000E+00  0.16495038260E+04  0.16495038260E+04  0.00000000000E+00 0. -1.
          2   -1    0    0  501    0 -0.00000000000E+00 -0.00000000000E+00 -0.10293703038E+03  0.10293703038E+03  0.00000000000E+00 0. -1.
          2    1    1    2  501    0  0.12722249432E+02 -0.19449795947E+02  0.16481090041E+04  0.16482728656E+04  0.00000000000E+00 0. -1.
          2    1    1    2  502    0 -0.12722249432E+02  0.19449795947E+02 -0.10154220847E+03  0.10416799074E+03  0.00000000000E+00 0. -1.
</event>
<event>
 4    1  0.6136512E+003  0.4889389E+02  0.7546771E-02  0.1303041E+00
          2   -1    0    0  501    0  0.00000000000E+00  0.00000000000E+00  0.16520816887E+04  0.16520816887E+04  0.00000000000E+00 0.  1.
          2   -1    0    0  502    0 -0.00000000000E+00 -0.00000000000E+00 -0.53352366931E+03  0.53352366931E+03  0.00000000000E+00 0.  1.
          2    1    1    2  501    0  0.42122095170E+02 -0.24826228170E+02 -0.53204070565E+03  0.53428262649E+03  0.00000000000E+00 0.  1.
          2    1    1    2  502    0 -0.42122095170E+02  0.24826228170E+02  0.16505987250E+04  0.16513227315E+04  0.00000000000E+00 0.  1.
</event>
<event>
 4    1  0.6136512E+003  0.2248071E+02  0.7546771E-02  0.1499124E+00
          2   -1    0    0  502    0  0.00000000000E+00  0.00000000000E+00  0.24320247969E+03  0.24320247969E+03  0.00000000000E+00 0.  1.
          2   -1    0    0  501    0 -0.00000000000E+00 -0.00000000000E+00 -0.73701572580E+02  0.73701572580E+02  0.00000000000E+00 0. -1.
          2    1    1    2  501    0 -0.10638791815E+02  0.19804004210E+02  0.24095271360E+03  0.24199915840E+03  0.00000000000E+00 0.  1.
          2    1    1    2  502    0  0.10638791815E+02 -0.19804004210E+02 -0.71451806494E+02  0.74904893868E+02  0.00000000000E+00 0. -1.
</event>
<event>
 4    1  0.6136512E+003  0.3299329E+02  0.7546771E-02  0.1395248E+00
          2   -1    0    0  501    0  0.00000000000E+00  0.00000000000E+00  0.14098426844E+04  0.14098426844E+04  0.00000000000E+00 0.  1.
          2   -1    0    0  502    0 -0.00000000000E+00 -0.00000000000E+00 -0.30284398295E+02  0.30284398295E+02  0.00000000000E+00 0. -1.
          2    1    1    2  501    0  0.30564125083E+02  0.12425423679E+02 -0.21045986263E+02  0.39134261632E+02  0.00000000000E+00 0. -1.
          2    1    1    2  502    0 -0.30564125083E+02 -0.12425423679E+02  0.14006042724E+04  0.14009928211E+04  0.00000000000E+00 0.  1.
</event>
<event>
 4    1  0.6136512E+003  0.7960682E+02  0.7546771E-02  0.1204763E+00
          2   -1    0    0  502    0  0.00000000000E+00  0.00000000000E+00  0.88502307179E+02  0.88502307179E+02  0.00000000000E+00 0.  1.
          2   -1    0    0  501    0 -0.00000000000E+00 -0.00000000000E+00 -0.29275106107E+03  0.29275106107E+03  0.00000000000E+00 0. -1.
          2    1    1    2  501    0  0.49663617010E+02  0.62215513999E+02  0.63556980697E+02  0.10186625954E+03  0.00000000000E+00 0.  1.
          2    1    1    2  502    0 -0.49663617010E+02 -0.62215513999E+02 -0.26780573459E+03  0.27938710872E+03  0.00000000000E+00 0. -1.
</event>
<event>
 4    1  0.6136512E+003  0.2059112E+02  0.7546771E-02  0.1525183E+00
          2   -1    0    0  502    0  0.00000000000E+00  0.00000000000E+00  0.80275028564E+00  0.80275028564E+00  0.00000000000E+00 0. -1.
          2   -1    0    0  501    0 -0.00000000000E+00 -0.00000000000E+00 -0.10271865322E+04  0.10271865322E+04  0.00000000000E+00 0.  1.
          2    1    1    2  501    0  0.75131925426E+00 -0.20577410686E+02 -0.15494014643E+03  0.15630240973E+03  0.00000000000E+00 0. -1.
          2    1    1    2  502    0 -0.75131925426E+00  0.20577410686E+02 -0.87144363547E+03  0.87168687275E+03  0.00000000000E+00 0.  1.
</event>
<event>
 4    1  0.6136512E+003  0.2222694E+02  0.7546771E-02  0.1502440E+00
          2   -1    0    0  502    0  0.00000000000E+00  0.00000000000E+00  0.37531835228E+01  0.37531835228E+01  0.00000000000E+00 0. -1.
          2   -1    0    0  501    0 -0.00000000000E+00 -0.00000000000E+00 -0.10163173278E+04  0.10163173278E+04  0.00000000000E+00 0.  1.
          2    1    1    2  501    0  0.18123737155E+02 -0.12867289957E+02 -0.30421109413E+02  0.37675998954E+02  0.00000000000E+00 0. -1.
          2    1    1    2  502    0 -0.18123737155E+02  0.12867289957E+02 -0.98214303486E+03  0.98239451236E+03  0.00000000000E+00 0.  1.
</event>
<event>
 4    1  0.6136512E+003  0.2037897E+02  0.7546771E-02  0.1528319E+00
          2   -1    0    0  502    0  0.00000000000E+00  0.00000000000E+00  0.57762583222E+02  0.57762583222E+02  0.00000000000E+00 0.  1.
          2   -1    0    0  501    0 -0.00000000000E+00 -0.00000000000E+00 -0.73889408114E+03  0.73889408114E+03  0.00000000000E+00 0. -1.
          2    1    1    2  501    0 -0.20378859690E+02 -0.67359164174E-01  0.55819876408E+02  0.59423573283E+02  0.00000000000E+00 0.  1.
          2    1    1    2  502    0  0.20378859690E+02  0.67359164174E-01 -0.73695137433E+03  0.73723309108E+03  0.00000000000E+00 0. -1.
</event>
<event>
 4    1  0.6136512E+003  0.3083967E+02  0.7546771E-02  0.1412437E+00
          2   -1    0    0  501    0  0.00000000000E+00  0.00000000000E+00  0.93093745017E+03  0.93093745017E+03  0.00000000000E+00 0. -1.
          2   -1    0    0  502    0 -0.00000000000E+00 -0.00000000000E+00 -0.14331734219E+01  0.14331734219E+01  0.00000000000E+00 0.  1.
          2    1    1    2  501    0 -0.16919163270E+02 -0.25784237221E+02  0.21494168153E+03  0.21714283648E+03  0.00000000000E+00 0.  1.
          2    1    1    2  502    0  0.16919163270E+02  0.25784237221E+02  0.71456259522E+03  0.71522778712E+03  0.00000000000E+00 0. -1.
</event>
<event>
 4    1  0.6136512E+003  0.2190926E+02  0.7546771E-02  0.1506668E+00
          2   -1    0    0  501    0  0.00000000000E+00  0.00000000000E+00  0.21816009531E+01  0.21816009531E+01  0.00000000000E+00 0.  1.
          2   -1    0    0  502    0 -0.00000000000E+00 -0.00000000000E+00 -0.11751873990E+04  0.11751873990E+04  0.00000000000E+00 0.  1.
          2    1    1    2  501    0 -0.31340528698E+01  0.21683942515E+02 -0.11172244450E+04  0.11174392495E+04  0.00000000000E+00 0.  1.
          2    1    1    2  502    0  0.31340528698E+01 -0.21683942515E+02 -0.55781353021E+02  0.59929750502E+02  0.00000000000E+00 0.  1.
</event>
<event>
 4    1  0.6136512E+003  0.2229038E+02  0.7546771E-02  0.1501606E+00
          2   -1    0    0  501    0  0.00000000000E+00  0.00000000000E+00  0.29555053367E+01  0.29555053367E+01  0.00000000000E+00 0. -1.
          2   -1    0    0  502    0 -0.00000000000E+00 -0.00000000000E+00 -0.18832220311E+03  0.18832220311E+03  0.00000000000E+00 0.  1.
          2    1    1    2  501    0  0.55826556230E+01 -0.21579965330E+02 -0.61354052735E+02  0.65277720047E+02  0.00000000000E+00 0. -1.
          2    1    1    2  502    0 -0.55826556230E+01  0.21579965330E+02 -0.12401264504E+03  0.12599998840E+03  0.00000000000E+00 0.  1.
</event>
<event>
 4    1  0.6136512E+003  0.2946599E+02  0.7546771E-02  0.1424294E+00
          2   -1    0    0  502    0  0.00000000000E+00  0.00000000000E+00  0.13940774967E+03  0.13940774967E+03  0.00000000000E+00 0.  1.
          2   -1    0    0  501    0 -0.00000000000E+00 -0.00000000000E+00 -0.21165295432E+04  0.21165295432E+04  0.00000000000E+00 0.  1.
          2    1    1    2  501    0  0.26913871960E+02  0.11995337284E+02  0.13774694818E+03  0.14086328959E+03  0.00000000000E+00 0.  1.
          2    1    1    2  502    0 -0.26913871960E+02 -0.11995337284E+02 -0.21148687417E+04  0.21150740033E+04  0.00000000000E+00 0.  1.
</event>
<event>
 4    1  0.6136512E+003  0.2964331E+02  0.7546771E-02  0.1422722E+00
          2   -1    0    0  501    0  0.00000000000E+00  0.00000000000E+00  0.87156661015E+03  0.87156661015E+03  0.00000000000E+00 0. -1.
          2   -1    0    0  502    0 -0.00000000000E+00 -0.00000000000E+00 -0.23453251456E+01  0.23453251456E+01  0.00000000000E+00 0. -1.
          2    1    1    2  501    0 -0.29355720324E+02 -0.41191822565E+01  0.10468213690E+03  0.10879832611E+03  0.00000000000E+00 0. -1.
          2    1    1    2  502    0  0.29355720324E+02  0.41191822565E+01  0.76453914810E+03  0.76511360918E+03  0.00000000000E+00 0. -1.
</event>
<event>
 4    1  0.6136512E+003  0.3095607E+02  0.7546771E-02  0.1411466E+00
          2   -1    0    0  501    0  0.00000000000E+00  0.00000000000E+00  0.13933968741E+04  0.13933968741E+04  0.00000000000E+00 0. -1.
          2   -1    0    0  502    0 -0.00000000000E+00 -0.00000000000E+00 -0.70832495324E+00  0.70832495324E+00  0.00000000000E+00 0. -1.
          2    1    1    2  501    0 -0.32087438049E+01 -0.30789316212E+02  0.81520842530E+03  0.81579596390E+03  0.00000000000E+00 0. -1.
          2    1    1    2  502    0  0.32087438049E+01  0.30789316212E+02  0.57748012386E+03  0.57830923517E+03  0.00000000000E+00 0. -1.
</event>
<event>
 4    1  0.6136512E+003  0.2524374E+02  0.7546771E-02  0.1466095E+00
          2   -1    0    0  501    0  0.00000000000E+00  0.00000000000E+00  0.48640650858E+03  0.48640650858E+03  0.00000000000E+00 0. -1.
          2   -1    0    0  502    0 -0.00000000000E+00 -0.00000000000E+00 -0.36395982144E+03  0.36395982144E+03  0.00000000000E+00 0. -1.
          2    1    1    2  501    0 -0.25240184401E+02  0.42393645819E+00 -0.36319388604E+03  0.36407011068E+03  0.00000000000E+00 0. -1.
          2    1    1    2  502    0  0.25240184401E+02 -0.42393645819E+00  0.48564057318E+03  0.48629621934E+03  0.00000000000E+00 0. -1.
</event>
<event>
 4    1  0.6136512E+003  0.2397032E+02  0.7546771E-02  0.1480660E+00
          2   -1    0    0  501    0  0.00000000000E+00  0.00000000000E+00  0.41867494007E+01  0.41867494007E+01  0.00000000000E+00 0.  1.
          2   -1    0    0  502    0 -0.00000000000E+00 -0.00000000000E+00 -0.10515592992E+04  0.10515592992E+04  0.00000000000E+00 0.  1.
          2    1    1    2  501    0  0.20876129466E+02 -0.11779784658E+02 -0.10159097103E+04  0.10161924599E+04  0.00000000000E+00 0.  1.
          2    1    1    2  502    0 -0.20876129466E+02  0.11779784658E+02 -0.31462839474E+02  0.39553588660E+02  0.00000000000E+00 0.  1.
</event>
<event>
 4    1  0.6136512E+003  0.2939248E+02  0.7546771E-02  0.1424950E+00
          2   -1    0    0  502    0  0.00000000000E+00  0.00000000000E+00  0.13944376058E+02  0.13944376058E+02  0.00000000000E+00 0.  1.
          2   -1    0    0  501    0 -0.00000000000E+00 -0.00000000000E+00 -0.10787931456E+03  0.10787931456E+03  0.00000000000E+00 0. -1.
          2    1    1    2  501    0  0.28600600363E+02 -0.67766871923E+01 -0.72248908755E+01  0.30267422728E+02  0.00000000000E+00 0.  1.
          2    1    1    2  502    0 -0.28600600363E+02  0.67766871923E+01 -0.86710047631E+02  0.91556267894E+02  0.00000000000E+00 0. -1.
</event>
<event>
 4    1  0.6136512E+003  0.2712371E+02  0.7546771E-02  0.1446369E+00
          2   -1    0    0  501    0  0.00000000000E+00  0.00000000000E+00  0.10041599366E+02  0.10041599366E+02  0.00000000000E+00 0. -1.
          2   -1    0    0  502    0 -0.00000000000E+00 -0.00000000000E+00 -0.14857104497E+03  0.14857104497E+03  0.00000000000E+00 0. -1.
          2    1    1    2  501    0  0.21679113058E+02  0.16300671354E+02 -0.12572671530E+03  0.12861921618E+03  0.00000000000E+00 0. -1.
          2    1    1    2  502    0 -0.21679113058E+02 -0.16300671354E+02 -0.12802730305E+02  0.29993428161E+02  0.00000000000E+00 0. -1.
</event>
<event>
 4    1  0.6136512E+003  0.5861143E+02  0.7546771E-02  0.1264625E+00
          2   -1    0    0  502    0  0.00000000000E+00  0.00000000000E+00  0.21874424020E+02  0.21874424020E+02  0.00000000000E+00 0.  1.
          2   -1    0    0  501    0 -0.00000000000E+00 -0.00000000000E+00 -0.38871792651E+03  0.38871792651E+03  0.00000000000E+00 0.  1.
          2    1    1    2  501    0 -0.57510216981E+02 -0.11308150867E+02 -0.24932463797E+02  0.63694011369E+02  0.00000000000E+00 0.  1.
          2    1    1    2  502    0  0.57510216981E+02  0.11308150867E+02 -0.34191103869E+03  0.34689833916E+03  0.00000000000E+00 0.  1.
</event>
<event>
 4    1  0.6136512E+003  0.4916580E+02  0.7546771E-02  0.1301830E+00
          2   -1    0    0  502    0  0.00000000000E+00  0.00000000000E+00  0.14291240566E+04  0.14291240566E+04  0.00000000000E+00 0. -1.
          2   -1    0    0  501    0 -0.00000000000E+00 -0.00000000000E+00 -0.86351305480E+01  0.86351305480E+01  0.00000000000E+00 0. -1.
          2    1    1    2  501    0  0.48482073138E+02 -0.81709562871E+01  0.13548839686E+04  0.13557757353E+04  0.00000000000E+00 0. -1.
          2    1    1    2  502    0 -0.48482073138E+02  0.81709562871E+01  0.65604957476E+02  0.81983451915E+02  0.00000000000E+00 0. -1.
</event>
<event>
 4    1  0.6136512E+003  0.2263124E+02  0.7546771E-02  0.1497181E+00
          2   -1    0    0  502    0  0.00000000000E+00  0.00000000000E+00  0.42851996805E+03  0.42851996805E+03  0.00000000000E+00 0. -1.
          2   -1    0    0  501    0 -0.00000000000E+00 -0.00000000000E+00 -0.49589282198E+01  0.49589282198E+01  0.00000000000E+00 0.  1.
          2    1    1    2  501    0  0.19442671319E+02 -0.11582558048E+02  0.40060242060E+03  0.40124116503E+03  0.00000000000E+00 0. -1.
          2    1    1    2  502    0 -0.19442671319E+02  0.11582558048E+02  0.22958619231E+02  0.32237731246E+02  0.00000000000E+00 0.  1.
</event>
<event>
 4    1  0.6136512E+003  0.5326867E+02  0.7546771E-02  0.1284590E+00
          2   -1    0    0  501    0  0.00000000000E+00  0.00000000000E+00  0.34437956431E+03  0.34437956431E+03  0.00000000000E+00 0.  1.
          2   -1    0    0  502    0 -0.00000000000E+00 -0.00000000000E+00 -0.13102888654E+03  0.13102888654E+03  0.00000000000E+00 0.  1.
          2    1    1    2  501    0  0.46740843037E+02 -0.25550819587E+02 -0.12343366359E+03  0.13443742074E+03  0.00000000000E+00 0.  1.
          2    1    1    2  502    0 -0.46740843037E+02  0.25550819587E+02  0.33678434136E+03  0.34097103011E+03  0.00000000000E+00 0.  1.
</event>
<event>
 4    1  0.6136512E+003  0.2161573E+02  0.7546771E-02  0.1510653E+00
          2   -1    0    0  502    0  0.00000000000E+00  0.00000000000E+00  0.14381793302E+04  0.14381793302E+04  0.00000000000E+00 0.  1.
          2   -1    0    0  501    0 -0.00000000000E+00 -0.00000000000E+00 -0.10040009801E+01  0.10040009801E+01  0.00000000000E+00 0.  1.
          2    1    1    2  501    0 -0.18196938615E+02  0.11666662078E+02  0.13104105672E+04  0.13105888349E+04  0.00000000000E+00 0.  1.
          2    1    1    2  502    0  0.18196938615E+02 -0.11666662078E+02  0.12676476195E+03  0.12859449620E+03  0.00000000000E+00 0.  1.
</event>
<event>
 4    1  0.6136512E+003  0.2440996E+02  0.7546771E-02  0.1475514E+00
          2   -1    0    0  501    0  0.00000000000E+00  0.00000000000E+00  0.52049215740E+02  0.52049215740E+02  0.00000000000E+00 0. -1.
          2   -1    0    0  502    0 -0.00000000000E+00 -0.00000000000E+00 -0.35221129702E+02  0.35221129702E+02  0.00000000000E+00 0. -1.
          2    1    1    2  501    0  0.22264190335E+02  0.10007592994E+02 -0.27435248584E+02  0.36722458437E+02  0.00000000000E+00 0. -1.
          2    1    1    2  502    0 -0.22264190335E+02 -0.10007592994E+02  0.44263334622E+02  0.50547887005E+02  0.00000000000E+00 0. -1.
</event>
<event>
 4    1  0.6136512E+003  0.3234303E+02  0.7546771E-02  0.1400271E+00
          2   -1    0    0  501    0  0.00000000000E+00  0.00000000000E+00  0.76520477864E+02  0.76520477864E+02  0.00000000000E+00 0.  1.
          2   -1    0    0  502    0 -0.00000000000E+00 -0.00000000000E+00 -0.20019424351E+02  0.20019424351E+02  0.00000000000E+00 0. -1.
          2    1    1    2  501    0  0.32341173703E+02  0.34692763645E+00  0.10672547257E+01  0.32360638249E+02  0.00000000000E+00 0. -1.
          2    1    1    2  502    0 -0.32341173703E+02 -0.34692763645E+00  0.55433798787E+02  0.64179263966E+02  0.00000000000E+00 0.  1.
</event>
<event>
 4    1  0.6136512E+003  0.2241446E+02  0.7546771E-02  0.1499985E+00
          2   -1    0    0  502    0  0.00000000000E+00  0.00000000000E+00  0.21537712424E+01  0.21537712424E+01  0.00000000000E+00 0. -1.
          2   -1    0    0  501    0 -0.00000000000E+00 -0.00000000000E+00 -0.23460476225E+03  0.23460476225E+03  0.00000000000E+00 0. -1.
          2    1    1    2  501    0 -0.86473346727E+01  0.20679258774E+02 -0.10729313906E+03  0.10960942400E+03  0.00000000000E+00 0. -1.
          2    1    1    2  502    0  0.86473346727E+01 -0.20679258774E+02 -0.12515785195E+03  0.12714910949E+03  0.00000000000E+00 0. -1.
</event>
<event>
 4    1  0.6136512E+003  0.2075177E+02  0.7546771E-02  0.1522839E+00
          2   -1    0    0  501    0  0.00000000000E+00  0.00000000000E+00  0.26262400621E+01  0.26262400621E+01  0.00000000000E+00 0. -1.
          2   -1    0    0  502    0 -0.00000000000E+00 -0.00000000000E+00 -0.50499533152E+03  0.50499533152E+03  0.00000000000E+00 0. -1.
          2    1    1    2  501    0 -0.56922400339E+01 -0.19955813692E+02 -0.45975698503E+03  0.46022507687E+03  0.00000000000E+00 0. -1.
          2    1    1    2  502    0  0.56922400339E+01  0.19955813692E+02 -0.42612106430E+02  0.47396494713E+02  0.00000000000E+00 0. -1.
</event>
<event>
 4    1  0.6136512E+003  0.2047161E+02  0.7546771E-02  0.1526944E+00
          2   -1    0    0  502    0  0.00000000000E+00  0.00000000000E+00  0.43605672047E+02  0.43605672047E+02  0.00000000000E+00 0. -1.
          2   -1    0    0  501    0 -0.00000000000E+00 -0.00000000000E+00 -0.77705449399E+03  0.77705449399E+03  0.00000000000E+00 0. -1.
          2    1    1    2  501    0  0.11426700907E+02  0.16985794245E+02  0.41060237579E+02  0.45880603852E+02  0.00000000000E+00 0. -1.
          2    1    1    2  502    0 -0.11426700907E+02 -0.16985794245E+02 -0.77450905952E+03  0.77477956219E+03  0.00000000000E+00 0. -1.
</event>
<event>
 4    1  0.6136512E+003  0.2697873E+02  0.7546771E-02  0.1447822E+00
          2   -1    0    0  502    0  0.00000000000E+00  0.00000000000E+00  0.13188979909E+03  0.13188979909E+03  0.00000000000E+00 0.  1.
          2   -1    0    0  501    0 -0.00000000000E+00 -0.00000000000E+00 -0.75901706454E+01  0.75901706454E+01  0.00000000000E+00 0.  1.
          2    1    1    2  501    0  0.22703200980E+02 -0.14574522214E+02  0.98583406101E+02  0.10220831664E+03  0.00000000000E+00 0.  1.
          2    1    1    2  502    0 -0.22703200980E+02  0.14574522214E+02  0.25716222339E+02  0.37271653088E+02  0.00000000000E+00 0.  1.
</event>
<event>
 4    1  0.6136512E+003  0.3918207E+02  0.7546771E-02  0.1353347E+00
          2   -1    0    0  502    0  0.00000000000E+00  0.00000000000E+00  0.12426249259E+02  0.12426249259E+02  0.00000000000E+00 0.  1.
          2   -1    0    0  501    0 -0.00000000000E+00 -0.00000000000E+00 -0.25470995583E+04  0.25470995583E+04  0.00000000000E+00 0. -1.
          2    1    1    2  501    0  0.18742701015E+02 -0.34408516263E+02 -0.18997153122E+02  0.43544536505E+02  0.00000000000E+00 0.  1.
          2    1    1    2  502    0 -0.18742701015E+02  0.34408516263E+02 -0.25156761559E+04  0.25159812710E+04  0.00000000000E+00 0. -1.
</event>
<event>
 4    1  0.6136512E+003  0.3272483E+02  0.7546771E-02  0.1397305E+00
          2   -1    0    0  501    0  0.00000000000E+00  0.00000000000E+00  0.45981237450E+02  0.45981237450E+02  0.00000000000E+00 0. -1.
          2   -1    0    0  502    0 -0.00000000000E+00 -0.00000000000E+00 -0.28828858439E+02  0.28828858439E+02  0.00000000000E+00 0. -1.
          2    1    1    2  501    0  0.32554979077E+02  0.33298874037E+01 -0.78190049118E+01  0.33645975252E+02  0.00000000000E+00 0. -1.
          2    1    1    2  502    0 -0.32554979077E+02 -0.33298874037E+01  0.24971383922E+02  0.41164120637E+02  0.00000000000E+00 0. -1.
</event>
<event>
 4    1  0.6136512E+003  0.2931248E+02  0.7546771E-02  0.1425667E+00
          2   -1    0    0  502    0  0.00000000000E+00  0.00000000000E+00  0.56963474814E+02  0.56963474814E+02  0.00000000000E+00 0.  1.
          2   -1    0    0  501    0 -0.00000000000E+00 -0.00000000000E+00 -0.24050347148E+02  0.24050347148E+02  0.00000000000E+00 0. -1.
          2    1    1    2  501    0  0.28930901072E+02 -0.47142865193E+01  0.41189907026E+02  0.50555217090E+02  0.00000000000E+00 0.  1.
          2    1    1    2  502    0 -0.28930901072E+02  0.47142865193E+01 -0.82767793594E+01  0.30458604872E+02  0.00000000000E+00 0. -1.
</event>
<event>
 4    1  0.6136512E+003  0.4821118E+02  0.7546771E-02  0.1306120E+00
          2   -1    0    0  501    0  0.00000000000E+00  0.00000000000E+00  0.10448190682E+03  0.10448190682E+03  0.00000000000E+00 0.  1.
          2   -1    0    0  502    0 -0.00000000000E+00 -0.00000000000E+00 -0.32698078984E+03  0.32698078984E+03  0.00000000000E+00 0. -1.
          2    1    1    2  501    0 -0.22197512361E+02 -0.42797055615E+02 -0.31951289644E+03  0.32312970850E+03  0.00000000000E+00 0. -1.
          2    1    1    2  502    0  0.22197512361E+02  0.42797055615E+02  0.97014013419E+02  0.10833298816E+03  0.00000000000E+00 0.  1.
</event>
<event>
 4    1  0.6136512E+003  0.2051687E+02  0.7546771E-02  0.1526276E+00
          2   -1    0    0  502    0  0.00000000000E+00  0.00000000000E+00  0.60666284289E+02  0.60666284289E+02  0.00000000000E+00 0.  1.
          2   -1    0    0  501    0 -0.00000000000E+00 -0.00000000000E+00 -0.94533713094E+01  0.94533713094E+01  0.00000000000E+00 0. -1.
          2    1    1    2  501    0  0.12269713578E+02 -0.16443730067E+02  0.43689075339E+02  0.48266732164E+02  0.00000000000E+00 0.  1.
          2    1    1    2  502    0 -0.12269713578E+02  0.16443730067E+02  0.75238376406E+01  0.21852923435E+02  0.00000000000E+00 0. -1.
</event>
<event>
 4    1  0.6136512E+003  0.2317517E+02  0.7546771E-02  0.1490310E+00
          2   -1    0    0  501    0  0.00000000000E+00  0.00000000000E+00  0.14000252552E+02  0.14000252552E+02  0.00000000000E+00 0. -1.
          2   -1    0    0  502    0 -0.00000000000E+00 -0.00000000000E+00 -0.86629924802E+03  0.86629924802E+03  0.00000000000E+00 0. -1.
          2    1    1    2  501    0  0.10455360767E+02 -0.20682698822E+02 -0.85644320752E+03  0.85675670777E+03  0.00000000000E+00 0. -1.
          2    1    1    2  502    0 -0.10455360767E+02  0.20682698822E+02  0.41442120541E+01  0.23542792801E+02  0.00000000000E+00 0. -1.
</event>
<event>
 4    1  0.6136512E+003  0.5193040E+02  0.7546771E-02  0.1290013E+00
          2   -1    0    0  501    0  0.00000000000E+00  0.00000000000E+00  0.84841447349E+03  0.84841447349E+03  0.00000000000E+00 0.  1.
          2   -1    0    0  502    0 -0.00000000000E+00 -0.00000000000E+00 -0.53590986661E+01  0.53590986661E+01  0.00000000000E+00 0. -1.
          2    1    1    2  501    0 -0.19413633396E+02  0.48165104355E+02  0.14922922138E+03  0.15800673072E+03  0.00000000000E+00 0. -1.
          2    1    1    2  502    0  0.19413633396E+02 -0.48165104355E+02  0.69382615344E+03  0.69576684144E+03  0.00000000000E+00 0.  1.
</event>
<event>
 4    1  0.6136512E+003  0.2182062E+02  0.7546771E-02  0.1507864E+00
          2   -1    0    0  502    0  0.00000000000E+00  0.00000000000E+00  0.62152411179E+01  0.62152411179E+01  0.00000000000E+00 0.  1.
          2   -1    0    0  501    0 -0.00000000000E+00 -0.00000000000E+00 -0.15671118059E+03  0.15671118059E+03  0.00000000000E+00 0. -1.
          2    1    1    2  501    0  0.16437683681E+02 -0.14350678941E+02 -0.17006082910E+02  0.27664892677E+02  0.00000000000E+00 0.  1.
          2    1    1    2  502    0 -0.16437683681E+02  0.14350678941E+02 -0.13348985656E+03  0.13526152903E+03  0.00000000000E+00 0. -1.
</event>
<event>
 4    1  0.6136512E+003  0.2964401E+02  0.7546771E-02  0.1422716E+00
          2   -1    0    0  502    0  0.00000000000E+00  0.00000000000E+00  0.54144245814E+01  0.54144245814E+01  0.00000000000E+00 0.  1.
          2   -1    0    0  501    0 -0.00000000000E+00 -0.00000000000E+00 -0.22403413098E+04  0.22403413098E+04  0.00000000000E+00 0. -1.
          2    1    1    2  501    0 -0.17026018653E+02 -0.24266886357E+02 -0.36023512050E+02  0.46652550895E+02  0.00000000000E+00 0.  1.
          2    1    1    2  502    0  0.17026018653E+02  0.24266886357E+02 -0.21989033731E+04  0.21991031835E+04  0.00000000000E+00 0. -1.
</event>
<event>
 4    1  0.6136512E+003  0.2050980E+02  0.7546771E-02  0.1526380E+00
          2   -1    0    0  501    0  0.00000000000E+00  0.00000000000E+00  0.20371013861E+01  0.20371013861E+01  0.00000000000E+00 0. -1.
          2   -1    0    0  502    0 -0.00000000000E+00 -0.00000000000E+00 -0.65532467060E+03  0.65532467060E+03  0.00000000000E+00 0. -1.
          2    1    1    2  501    0  0.11999812774E+02 -0.16632996008E+02 -0.59865497851E+03  0.59900620644E+03  0.00000000000E+00 0. -1.
          2    1    1    2  502    0 -0.11999812774E+02  0.16632996008E+02 -0.54632590707E+02  0.58355565546E+02  0.00000000000E+00 0. -1.
</event>
<event>
 4    1  0.6136512E+003  0.2545820E+02  0.7546771E-02  0.1463742E+00
          2   -1    0    0  502    0  0.00000000000E+00  0.00000000000E+00  0.68731470258E+00  0.68731470258E+00  0.00000000000E+00 0. -1.
          2   -1    0    0  501    0 -0.00000000000E+00 -0.00000000000E+00 -0.20984734238E+04  0.20984734238E+04  0.00000000000E+00 0.  1.
          2    1    1    2  501    0 -0.10893647531E+02 -0.23009747231E+02 -0.27005207607E+03  0.27124941256E+03  0.00000000000E+00 0. -1.
          2    1    1    2  502    0  0.10893647531E+02  0.23009747231E+02 -0.18277340331E+04  0.18279113260E+04  0.00000000000E+00 0.  1.
</event>
<event>
 4    1  0.6136512E+003  0.2613102E+02  0.7546771E-02  0.1456538E+00
          2   -1    0    0  501    0  0.00000000000E+00  0.00000000000E+00  0.76775112485E+03  0.76775112485E+03  0.00000000000E+00 0.  1.
          2   -1    0    0  502    0 -0.00000000000E+00 -0.00000000000E+00 -0.27509633887E+01  0.27509633887E+01  0.00000000000E+00 0.  1.
          2    1    1    2  501    0 -0.15776478325E+02  0.20831059311E+02  0.65586040029E+02  0.70599992543E+02  0.00000000000E+00 0.  1.
          2    1    1    2  502    0  0.15776478325E+02 -0.20831059311E+02  0.69941412143E+03  0.69990209569E+03  0.00000000000E+00 0.  1.
</event>
<event>
 4    1  0.7893382E+003  0.2345324E+02  0.7546771E-02  0.1486884E+00
          2   -1    0    0  501    0  0.00000000000E+00  0.00000000000E+00  0.10125780230E+04  0.10125780230E+04  0.00000000000E+00 0. -1.
          2   -1    0    0  502    0 -0.00000000000E+00 -0.00000000000E+00 -0.32186431521E+03  0.32186431521E+03  0.00000000000E+00 0.  1.
          2    1    1    2  501    0  0.14926994696E+02  0.18089752495E+02 -0.32130103119E+03  0.32215587370E+03  0.00000000000E+00 0.  1.
          2    1    1    2  502    0 -0.14926994696E+02 -0.18089752495E+02  0.10120147389E+04  0.10122864645E+04  0.00000000000E+00 0. -1.
</event>
<event>
 4    1  0.6136512E+003  0.2078678E+02  0.7546771E-02  0.1522331E+00
          2   -1    0    0  502    0  0.00000000000E+00  0.00000000000E+00  0.49807081081E+01  0.49807081081E+01  0.00000000000E+00 0.  1.
          2   -1    0    0  501    0 -0.00000000000E+00 -0.00000000000E+00 -0.92064901301E+03  0.92064901301E+03  0.00000000000E+00 0.  1.
          2    1    1    2  501    0 -0.20078496073E+02  0.53799743064E+01 -0.17364224823E+02  0.27085169961E+02  0.00000000000E+00 0.  1.
          2    1    1    2  502    0  0.20078496073E+02 -0.53799743064E+01 -0.89830408008E+03  0.89854455116E+03  0.00000000000E+00 0.  1.
</event>
<event>
 4    1  0.6136512E+003  0.2489442E+02  0.7546771E-02  0.1469988E+00
          2   -1    0    0  502    0  0.00000000000E+00  0.00000000000E+00  0.33081479102E+03  0.33081479102E+03  0.00000000000E+00 0.  1.
          2   -1    0    0  501    0 -0.00000000000E+00 -0.00000000000E+00 -0.48821942027E+01  0.48821942027E+01  0.00000000000E+00 0.  1.
          2    1    1    2  501    0 -0.24875810392E+02  0.96233592011E+00  0.29473423307E+03  0.29578370506E+03  0.00000000000E+00 0.  1.
          2    1    1    2  502    0  0.24875810392E+02 -0.96233592011E+00  0.31198363743E+02  0.39913280163E+02  0.00000000000E+00 0.  1.
</event>
<event>
 4    1  0.6136512E+003  0.2089081E+02  0.7546771E-02  0.1520830E+00
          2   -1    0    0  502    0  0.00000000000E+00  0.00000000000E+00  0.13025855466E+04  0.13025855466E+04  0.00000000000E+00 0. -1.
          2   -1    0    0  501    0 -0.00000000000E+00 -0.00000000000E+00 -0.87847596973E+01  0.87847596973E+01  0.00000000000E+00 0.  1.
          2    1    1    2  501    0 -0.20022201350E+02 -0.59613311161E+01  0.12899602585E+04  0.12901294100E+04  0.00000000000E+00 0. -1.
          2    1    1    2  502    0  0.20022201350E+02  0.59613311161E+01  0.38405283479E+01  0.21240896251E+02  0.00000000000E+00 0.  1.
</event>
<event>
 4    1  0.6136512E+003  0.2891904E+02  0.7546771E-02  0.1429228E+00
          2   -1    0    0  502    0  0.00000000000E+00  0.00000000000E+00  0.17652270859E+03  0.17652270859E+03  0.00000000000E+00 0.  1.
          2   -1    0    0  501    0 -0.00000000000E+00 -0.00000000000E+00 -0.67670216923E+03  0.67670216923E+03  0.00000000000E+00 0.  1.
          2    1    1    2  501    0  0.20386041834E+02 -0.20511459494E+02  0.17502669634E+03  0.17739970435E+03  0.00000000000E+00 0.  1.
          2    1    1    2  502    0 -0.20386041834E+02  0.20511459494E+02 -0.67520615698E+03  0.67582517347E+03  0.00000000000E+00 0.  1.
</event>
<event>
 4    1  0.6136512E+003  0.2277568E+02  0.7546771E-02  0.1495334E+00
          2   -1    0    0  502    0  0.00000000000E+00  0.00000000000E+00  0.16693389745E+03  0.16693389745E+03  0.00000000000E+00 0.  1.
          2   -1    0    0  501    0 -0.00000000000E+00 -0.00000000000E+00 -0.50209851219E+01  0.50209851219E+01  0.00000000000E+00 0.  1.
          2    1    1    2  501    0  0.18744688445E+02  0.12937087803E+02  0.13403428272E+03  0.13595558293E+03  0.00000000000E+00 0.  1.
          2    1    1    2  502    0 -0.18744688445E+02 -0.12937087803E+02  0.27878629601E+02  0.35999299634E+02  0.00000000000E+00 0.  1.
</event>
<event>
 4    1  0.6136512E+003  0.2607813E+02  0.7546771E-02  0.1457095E+00
          2   -1    0    0  501    0  0.00000000000E+00  0.00000000000E+00  0.49735720123E+02  0.49735720123E+02  0.00000000000E+00 0. -1.
          2   -1    0    0  502    0 -0.00000000000E+00 -0.00000000000E+00 -0.41132936668E+02  0.41132936668E+02  0.00000000000E+00 0. -1.
          2    1    1    2  501    0 -0.15658769999E+02 -0.20853575009E+02 -0.32820825298E+02  0.41919866911E+02  0.00000000000E+00 0. -1.
          2    1    1    2  502    0  0.15658769999E+02  0.20853575009E+02  0.41423608753E+02  0.48948789880E+02  0.00000000000E+00 0. -1.
</event>
<event>
 4    1  0.6136512E+003  0.2985672E+02  0.7546771E-02  0.1420846E+00
          2   -1    0    0  502    0  0.00000000000E+00  0.00000000000E+00  0.95761525926E+03  0.95761525926E+03  0.00000000000E+00 0.  1.
          2   -1    0    0  501    0 -0.00000000000E+00 -0.00000000000E+00 -0.13511577003E+02  0.13511577003E+02  0.00000000000E+00 0. -1.
          2    1    1    2  501    0  0.21395161886E+02  0.20824770253E+02  0.94059036720E+03  0.94106411199E+03  0.00000000000E+00 0.  1.
          2    1    1    2  502    0 -0.21395161886E+02 -0.20824770253E+02  0.35133150623E+01  0.30062724277E+02  0.00000000000E+00 0. -1.
</event>
<event>
 4    1  0.6136512E+003  0.2104746E+02  0.7546771E-02  0.1518588E+00
          2   -1    0    0  502    0  0.00000000000E+00  0.00000000000E+00  0.10103997264E+01  0.10103997264E+01  0.00000000000E+00 0.  1.
          2   -1    0    0  501    0 -0.00000000000E+00 -0.00000000000E+00 -0.77540445115E+03  0.77540445115E+03  0.00000000000E+00 0. -1.
          2    1    1    2  501    0 -0.99051754300E+01 -0.18571033420E+02 -0.13128293033E+03  0.13295940575E+03  0.00000000000E+00 0.  1.
          2    1    1    2  502    0  0.99051754300E+01  0.18571033420E+02 -0.64311112110E+03  0.64345544513E+03  0.00000000000E+00 0. -1.
</event>
<event>
 4    1  0.6136512E+003  0.8414525E+02  0.7546771E-02  0.1194538E+00
          2   -1    0    0  501    0  0.00000000000E+00  0.00000000000E+00  0.32022070833E+01  0.32022070833E+01  0.00000000000E+00 0.  1.
          2   -1    0    0  502    0 -0.00000000000E+00 -0.00000000000E+00 -0.43504916771E+04  0.43504916771E+04  0.00000000000E+00 0.  1.
          2    1    1    2  501    0 -0.36289899939E+00  0.84144469443E+02 -0.37001669676E+04  0.37011236147E+04  0.00000000000E+00 0.  1.
          2    1    1    2  502    0  0.36289899939E+00 -0.84144469443E+02 -0.64712250243E+03  0.65257026946E+03  0.00000000000E+00 0.  1.
</event>
<event>
 4    1  0.6136512E+003  0.2864697E+02  0.7546771E-02  0.1431730E+00
          2   -1    0    0  502    0  0.00000000000E+00  0.00000000000E+00  0.27261052168E+02  0.27261052168E+02  0.00000000000E+00 0. -1.
          2   -1    0    0  501    0 -0.00000000000E+00 -0.00000000000E+00 -0.92530580365E+02  0.92530580365E+02  0.00000000000E+00 0.  1.
          2    1    1    2  501    0 -0.17202585267E+02 -0.22906761726E+02  0.16562496346E+02  0.33090254727E+02  0.00000000000E+00 0. -1.
          2    1    1    2  502    0  0.17202585267E+02  0.22906761726E+02 -0.81832024544E+02  0.86701377807E+02  0.00000000000E+00 0.  1.
</event>
<event>
 4    1  0.6136512E+003  0.3096337E+02  0.7546771E-02  0.1411405E+00
          2   -1    0    0  501    0  0.00000000000E+00  0.00000000000E+00  0.73849415591E+02  0.73849415591E+02  0.00000000000E+00 0. -1.
          2   -1    0    0  502    0 -0.00000000000E+00 -0.00000000000E+00 -0.25247346655E+03  0.25247346655E+03  0.00000000000E+00 0.  1.
          2    1    1    2  501    0  0.30201862270E+02 -0.68247741167E+01 -0.24822321368E+03  0.25014694448E+03  0.00000000000E+00 0.  1.
          2    1    1    2  502    0 -0.30201862270E+02  0.68247741167E+01  0.69599162720E+02  0.76175937655E+02  0.00000000000E+00 0. -1.
</event>
<event>
 4    1  0.6136512E+003  0.2295215E+02  0.7546771E-02  0.1493100E+00
          2   -1    0    0  501    0  0.00000000000E+00  0.00000000000E+00  0.70082317203E+01  0.70082317203E+01  0.00000000000E+00 0. -1.
          2   -1    0    0  502    0 -0.00000000000E+00 -0.00000000000E+00 -0.42385984441E+03  0.42385984441E+03  0.00000000000E+00 0.  1.
          2    1    1    2  501    0 -0.22729496395E+02 -0.31892480551E+01 -0.40382532869E+03  0.40447706659E+03  0.00000000000E+00 0.  1.
          2    1    1    2  502    0  0.22729496395E+02  0.31892480551E+01 -0.13026284002E+02  0.26391009538E+02  0.00000000000E+00 0. -1.
</event>
<event>
 4    1  0.6136512E+003  0.2004942E+02  0.7546771E-02  0.1533282E+00
          2   -1    0    0  501    0  0.00000000000E+00  0.00000000000E+00  0.64565199615E+02  0.64565199615E+02  0.00000000000E+00 0.  1.
          2   -1    0    0  502    0 -0.00000000000E+00 -0.00000000000E+00 -0.12016985155E+04  0.12016985155E+04  0.00000000000E+00 0.  1.
          2    1    1    2  501    0 -0.54615878053E+01 -0.19291194377E+02 -0.12000562731E+04  0.12002237449E+04  0.00000000000E+00 0.  1.
          2    1    1    2  502    0  0.54615878053E+01  0.19291194377E+02  0.62922957233E+02  0.66039970236E+02  0.00000000000E+00 0.  1.
</event>
<event>
 4    1  0.6136512E+003  0.2003752E+02  0.7546771E-02  0.1533463E+00
          2   -1    0    0  502    0  0.00000000000E+00  0.00000000000E+00  0.47408191347E+01  0.47408191347E+01  0.00000000000E+00 0.  1.
          2   -1    0    0  501    0 -0.00000000000E+00 -0.00000000000E+00 -0.92803001668E+02  0.92803001668E+02  0.00000000000E+00 0. -1.
          2    1    1    2  501    0 -0.13219811734E+02  0.15057842966E+02 -0.29611007968E+02  0.35753515211E+02  0.00000000000E+00 0.  1.
          2    1    1    2  502    0  0.13219811734E+02 -0.15057842966E+02 -0.58451174565E+02  0.61790305592E+02  0.00000000000E+00 0. -1.
</event>
<event>
 4    1  0.6136512E+003  0.5354045E+02  0.7546771E-02  0.1283511E+00
          2   -1    0    0  502    0  0.00000000000E+00  0.00000000000E+00  0.15567877741E+03  0.15567877741E+03  0.00000000000E+00 0. -1.
          2   -1    0    0  501    0 -0.00000000000E+00 -0.00000000000E+00 -0.75653910218E+03  0.75653910218E+03  0.00000000000E+00 0. -1.
          2    1    1    2  501    0  0.52772876042E+02 -0.90334624176E+01  0.15009396135E+03  0.15935738804E+03  0.00000000000E+00 0. -1.
          2    1    1    2  502    0 -0.52772876042E+02  0.90334624176E+01 -0.75095428612E+03  0.75286049154E+03  0.00000000000E+00 0. -1.
</event>
<event>
 4    1  0.6136512E+003  0.2290028E+02  0.7546771E-02  0.1493754E+00
          2   -1    0    0  501    0  0.00000000000E+00  0.00000000000E+00  0.55259491038E+03  0.55259491038E+03  0.00000000000E+00 0.  1.
          2   -1    0    0  502    0 -0.00000000000E+00 -0.00000000000E+00 -0.68027186838E+01  0.68027186838E+01  0.00000000000E+00 0.  1.
          2    1    1    2  501    0 -0.15350144967E+02 -0.16993994059E+02  0.13439564466E+02  0.26552677409E+02  0.00000000000E+00 0.  1.
          2    1    1    2  502    0  0.15350144967E+02  0.16993994059E+02  0.53235262723E+03  0.53284495166E+03  0.00000000000E+00 0.  1.
</event>
<event>
 4    1  0.6136512E+003  0.2178362E+02  0.7546771E-02  0.1508364E+00
          2   -1    0    0  502    0  0.00000000000E+00  0.00000000000E+00  0.39445848926E+03  0.39445848926E+03  0.00000000000E+00 0. -1.
          2   -1    0    0  501    0 -0.00000000000E+00 -0.00000000000E+00 -0.13495404725E+03  0.13495404725E+03  0.00000000000E+00 0. -1.
          2    1    1    2  501    0 -0.20138149748E+02 -0.83054844638E+01  0.39327605165E+03  0.39387888868E+03  0.00000000000E+00 0. -1.
          2    1    1    2  502    0  0.20138149748E+02  0.83054844638E+01 -0.13377160964E+03  0.13553364782E+03  0.00000000000E+00 0. -1.
</event>
<event>
 4    1  0.6136512E+003  0.4004008E+02  0.7546771E-02  0.1348251E+00
          2   -1    0    0  501    0  0.00000000000E+00  0.00000000000E+00  0.99663028347E+03  0.99663028347E+03  0.00000000000E+00 0.  1.
          2   -1    0    0  502    0 -0.00000000000E+00 -0.00000000000E+00 -0.20638544930E+03  0.20638544930E+03  0.00000000000E+00 0. -1.
          2    1    1    2  501    0 -0.34913987951E+02 -0.19601564078E+02 -0.20403669961E+03  0.20792831134E+03  0.00000000000E+00 0. -1.
          2    1    1    2  502    0  0.34913987951E+02  0.19601564078E+02  0.99428153378E+03  0.99508742143E+03  0.00000000000E+00 0.  1.
</event>
<event>
 4    1  0.6136512E+003  0.2962114E+02  0.7546771E-02  0.1422918E+00
          2   -1    0    0  502    0  0.00000000000E+00  0.00000000000E+00  0.92876445869E+01  0.92876445869E+01  0.00000000000E+00 0. -1.
          2   -1    0    0  501    0 -0.00000000000E+00 -0.00000000000E+00 -0.20592498903E+04  0.20592498903E+04  0.00000000000E+00 0.  1.
          2    1    1    2  501    0  0.20118098529E+02 -0.21741073492E+02 -0.14715123694E+02  0.33074870073E+02  0.00000000000E+00 0. -1.
          2    1    1    2  502    0 -0.20118098529E+02  0.21741073492E+02 -0.20352471220E+04  0.20354626648E+04  0.00000000000E+00 0.  1.
</event>
<event>
 4    1  0.6136512E+003  0.3112733E+02  0.7546771E-02  0.1410046E+00
          2   -1    0    0  501    0  0.00000000000E+00  0.00000000000E+00  0.32931532836E+03  0.32931532836E+03  0.00000000000E+00 0.  1.
          2   -1    0    0  502    0 -0.00000000000E+00 -0.00000000000E+00 -0.18042115175E+03  0.18042115175E+03  0.00000000000E+00 0. -1.
          2    1    1    2  501    0 -0.27141375425E+02  0.15239969047E+02 -0.17833449192E+03  0.18103066571E+03  0.00000000000E+00 0. -1.
          2    1    1    2  502    0  0.27141375425E+02 -0.15239969047E+02  0.32722866853E+03  0.32870581440E+03  0.00000000000E+00 0.  1.
</event>
<event>
 4    1  0.6136512E+003  0.1302963E+03  0.7546771E-02  0.1119719E+00
          2   -1    0    0  501    0  0.00000000000E+00  0.00000000000E+00  0.11488708253E+04  0.11488708253E+04  0.00000000000E+00 0. -1.
          2   -1    0    0  502    0 -0.00000000000E+00 -0.00000000000E+00 -0.44004513703E+03  0.44004513703E+03  0.00000000000E+00 0. -1.
          2    1    1    2  501    0  0.13016293857E+03  0.58933978939E+01 -0.42659181879E+03  0.44604674931E+03  0.00000000000E+00 0. -1.
          2    1    1    2  502    0 -0.13016293857E+03 -0.58933978939E+01  0.11354175070E+04  0.11428692130E+04  0.00000000000E+00 0. -1.
</event>
<event>
 4    1  0.6136512E+003  0.2053108E+02  0.7546771E-02  0.1526066E+00
          2   -1    0    0  501    0  0.00000000000E+00  0.00000000000E+00  0.53013145913E+02  0.53013145913E+02  0.00000000000E+00 0.  1.
          2   -1    0    0  502    0 -0.00000000000E+00 -0.00000000000E+00 -0.94965510952E+01  0.94965510952E+01  0.00000000000E+00 0.  1.
          2    1    1    2  501    0 -0.15896046992E+02 -0.12993888489E+02  0.91508078701E+01  0.22478050020E+02  0.00000000000E+00 0.  1.
          2    1    1    2  502    0  0.15896046992E+02  0.12993888489E+02  0.34365786948E+02  0.40031646988E+02  0.00000000000E+00 0.  1.
</event>
<event>
 4    1  0.6136512E+003  0.2875175E+02  0.7546771E-02  0.1430763E+00
          2   -1    0    0  502    0  0.00000000000E+00  0.00000000000E+00  0.88526366919E+03  0.88526366919E+03  0.00000000000E+00 0. -1.
          2   -1    0    0  501    0 -0.00000000000E+00 -0.00000000000E+00 -0.13981795121E+01  0.13981795121E+01  0.00000000000E+00 0.  1.
          2    1    1    2  501    0  0.27115998331E+01 -0.28623598382E+02  0.69742691900E+03  0.69801931958E+03  0.00000000000E+00 0. -1.
          2    1    1    2  502    0 -0.27115998331E+01  0.28623598382E+02  0.18643857067E+03  0.18864252912E+03  0.00000000000E+00 0.  1.
</event>
<event>
 4    1  0.6136512E+003  0.2467253E+02  0.7546771E-02  0.1472500E+00
          2   -1    0    0  501    0  0.00000000000E+00  0.00000000000E+00  0.29808234909E+03  0.29808234909E+03  0.00000000000E+00 0. -1.
          2   -1    0    0  502    0 -0.00000000000E+00 -0.00000000000E+00 -0.33811809335E+03  0.33811809335E+03  0.00000000000E+00 0. -1.
          2    1    1    2  501    0  0.11794810794E+02  0.21670630836E+02 -0.33715600717E+03  0.33805754980E+03  0.00000000000E+00 0. -1.
          2    1    1    2  502    0 -0.11794810794E+02 -0.21670630836E+02  0.29712026291E+03  0.29814289265E+03  0.00000000000E+00 0. -1.
</event>
<event>
 4    1  0.6136512E+003  0.4032518E+02  0.7546771E-02  0.1346591E+00
          2   -1    0    0  501    0  0.00000000000E+00  0.00000000000E+00  0.14313849660E+02  0.14313849660E+02  0.00000000000E+00 0. -1.
          2   -1    0    0  502    0 -0.00000000000E+00 -0.00000000000E+00 -0.37854531708E+03  0.37854531708E+03  0.00000000000E+00 0.  1.
          2    1    1    2  501    0 -0.35019776632E+02 -0.19993375733E+02 -0.34644778343E+03  0.34878673494E+03  0.00000000000E+00 0.  1.
          2    1    1    2  502    0  0.35019776632E+02  0.19993375733E+02 -0.17783683998E+02  0.44072431804E+02  0.00000000000E+00 0. -1.
</event>
<event>
 4    1  0.6136512E+003  0.2407727E+02  0.7546771E-02  0.1479396E+00
          2   -1    0    0  502    0  0.00000000000E+00  0.00000000000E+00  0.17327428818E+04  0.17327428818E+04  0.00000000000E+00 0. -1.
          2   -1    0    0  501    0 -0.00000000000E+00 -0.00000000000E+00 -0.48015724726E+00  0.48015724726E+00  0.00000000000E+00 0.  1.
          2    1    1    2  501    0 -0.94390663302E+01  0.22149918222E+02  0.13433331613E+04  0.13435489187E+04  0.00000000000E+00 0. -1.
          2    1    1    2  502    0  0.94390663302E+01 -0.22149918222E+02  0.38892956329E+03  0.38967412033E+03  0.00000000000E+00 0.  1.
</event>
<event>
 4    1  0.6136512E+003  0.3672809E+02  0.7546771E-02  0.1368805E+00
          2   -1    0    0  501    0  0.00000000000E+00  0.00000000000E+00  0.42549447881E+02  0.42549447881E+02  0.00000000000E+00 0.  1.
          2   -1    0    0  502    0 -0.00000000000E+00 -0.00000000000E+00 -0.42282059528E+03  0.42282059528E+03  0.00000000000E+00 0.  1.
          2    1    1    2  501    0 -0.27135922346E+02 -0.24750647033E+02 -0.41392725452E+03  0.41555351622E+03  0.00000000000E+00 0.  1.
          2    1    1    2  502    0  0.27135922346E+02  0.24750647033E+02  0.33656107119E+02  0.49816526942E+02  0.00000000000E+00 0.  1.
</event>
<event>
 4    1  0.6136512E+003  0.2168539E+02  0.7546771E-02  0.1509700E+00
          2   -1    0    0  502    0  0.00000000000E+00  0.00000000000E+00  0.11531828549E+03  0.11531828549E+03  0.00000000000E+00 0. -1.
          2   -1    0    0  501    0 -0.00000000000E+00 -0.00000000000E+00 -0.66914804508E+02  0.66914804508E+02  0.00000000000E+00 0.  1.
          2    1    1    2  501    0 -0.95473960005E+01  0.19470576697E+02  0.11249825036E+03  0.11456924745E+03  0.00000000000E+00 0. -1.
          2    1    1    2  502    0  0.95473960005E+01 -0.19470576697E+02 -0.64094769375E+02  0.67663842550E+02  0.00000000000E+00 0.  1.
</event>
<event>
 4    1  0.6136512E+003  0.2007751E+02  0.7546771E-02  0.1532854E+00
          2   -1    0    0  502    0  0.00000000000E+00  0.00000000000E+00  0.65989991474E+02  0.65989991474E+02  0.00000000000E+00 0.  1.
          2   -1    0    0  501    0 -0.00000000000E+00 -0.00000000000E+00 -0.88195391687E+02  0.88195391687E+02  0.00000000000E+00 0.  1.
          2    1    1    2  501    0 -0.19939352192E+02  0.23512966450E+01  0.63272287605E+02  0.66381388510E+02  0.00000000000E+00 0.  1.
          2    1    1    2  502    0  0.19939352192E+02 -0.23512966450E+01 -0.85477687819E+02  0.87803994651E+02  0.00000000000E+00 0.  1.
</event>
<event>
 4    1  0.6136512E+003  0.2279942E+02  0.7546771E-02  0.1495032E+00
          2   -1    0    0  502    0  0.00000000000E+00  0.00000000000E+00  0.15139346418E+04  0.15139346418E+04  0.00000000000E+00 0. -1.
          2   -1    0    0  501    0 -0.00000000000E+00 -0.00000000000E+00 -0.95371725631E+00  0.95371725631E+00  0.00000000000E+00 0.  1.
          2    1    1    2  501    0 -0.17911569296E+02  0.14106358741E+02  0.13624385736E+04  0.13626293262E+04  0.00000000000E+00 0. -1.
          2    1    1    2  502    0  0.17911569296E+02 -0.14106358741E+02  0.15054235094E+03  0.15225903290E+03  0.00000000000E+00 0.  1.
</event>
<event>
 4    1  0.6136512E+003  0.3757173E+02  0.7546771E-02  0.1363335E+00
          2   -1    0    0  501    0  0.00000000000E+00  0.00000000000E+00  0.14491117684E+02  0.14491117684E+02  0.00000000000E+00 0. -1.
          2   -1    0    0  502    0 -0.00000000000E+00 -0.00000000000E+00 -0.66902725774E+03  0.66902725774E+03  0.00000000000E+00 0. -1.
          2    1    1    2  501    0  0.17604022371E+02  0.33192364531E+02 -0.64316799276E+03  0.64426446555E+03  0.00000000000E+00 0. -1.
          2    1    1    2  502    0 -0.17604022371E+02 -0.33192364531E+02 -0.11368147294E+02  0.39253909865E+02  0.00000000000E+00 0. -1.
</event>
<event>
 4    1  0.6136512E+003  0.2297467E+02  0.7546771E-02  0.1492816E+00
          2   -1    0    0  502    0  0.00000000000E+00  0.00000000000E+00  0.14509699191E+04  0.14509699191E+04  0.00000000000E+00 0. -1.
          2   -1    0    0  501    0 -0.00000000000E+00 -0.00000000000E+00 -0.15750783795E+02  0.15750783795E+02  0.00000000000E+00 0.  1.
          2    1    1    2  501    0 -0.22432904030E+02  0.49598764800E+01  0.14424515762E+04  0.14426345293E+04  0.00000000000E+00 0. -1.
          2    1    1    2  502    0  0.22432904030E+02 -0.49598764800E+01 -0.72324408528E+01  0.24086173598E+02  0.00000000000E+00 0.  1.
</event>
<event>
 4    1  0.6136512E+003  0.5172784E+02  0.7546771E-02  0.1290850E+00
          2   -1    0    0  502    0  0.00000000000E+00  0.00000000000E+00  0.10616540447E+04  0.10616540447E+04  0.00000000000E+00 0. -1.
          2   -1    0    0  501    0 -0.00000000000E+00 -0.00000000000E+00 -0.19933083788E+03  0.19933083788E+03  0.00000000000E+00 0.  1.
          2    1    1    2  501    0 -0.35668327226E+02  0.37463842268E+02  0.10576553304E+04  0.10589195281E+04  0.00000000000E+00 0. -1.
          2    1    1    2  502    0  0.35668327226E+02 -0.37463842268E+02 -0.19533212351E+03  0.20206535457E+03  0.00000000000E+00 0.  1.
</event>
<event>
 4    1  0.6136512E+003  0.2156117E+02  0.7546771E-02  0.1511402E+00
          2   -1    0    0  501    0  0.00000000000E+00  0.00000000000E+00  0.18373807389E+03  0.18373807389E+03  0.00000000000E+00 0.  1.
          2   -1    0    0  502    0 -0.00000000000E+00 -0.00000000000E+00 -0.25808837442E+01  0.25808837442E+01  0.00000000000E+00 0. -1.
          2    1    1    2  501    0  0.96507271528E+01  0.19280754020E+02  0.77516533486E+02  0.80459287679E+02  0.00000000000E+00 0. -1.
          2    1    1    2  502    0 -0.96507271528E+01 -0.19280754020E+02  0.10364065666E+03  0.10585966996E+03  0.00000000000E+00 0.  1.
</event>
<event>
 4    1  0.6136512E+003  0.3214639E+02  0.7546771E-02  0.1401817E+00
          2   -1    0    0  501    0  0.00000000000E+00  0.00000000000E+00  0.25347762430E+03  0.25347762430E+03  0.00000000000E+00 0. -1.
          2   -1    0    0  502    0 -0.00000000000E+00 -0.00000000000E+00 -0.47042804608E+01  0.47042804608E+01  0.00000000000E+00 0. -1.
          2    1    1    2  501    0 -0.18698161733E+02 -0.26148974513E+02  0.77242047278E+02  0.83664353150E+02  0.00000000000E+00 0. -1.
          2    1    1    2  502    0  0.18698161733E+02  0.26148974513E+02  0.17153129656E+03  0.17451755161E+03  0.00000000000E+00 0. -1.
</event>
<event>
 4    1  0.6136512E+003  0.2048513E+02  0.7546771E-02  0.1526744E+00
          2   -1    0    0  501    0  0.00000000000E+00  0.00000000000E+00  0.41909344752E+03  0.41909344752E+03  0.00000000000E+00 0.  1.
          2   -1    0    0  502    0 -0.00000000000E+00 -0.00000000000E+00 -0.12976714260E+01  0.12976714260E+01  0.00000000000E+00 0.  1.
          2    1    1    2  501    0 -0.29099604157E+01 -0.20277393881E+02  0.10844664755E+03  0.11036446864E+03  0.00000000000E+00 0.  1.
          2    1    1    2  502    0  0.29099604157E+01  0.20277393881E+02  0.30934912854E+03  0.31002665031E+03  0.00000000000E+00 0.  1.
</event>
<event>
 4    1  0.6136512E+003  0.2114662E+02  0.7546771E-02  0.1517182E+00
          2   -1    0    0  502    0  0.00000000000E+00  0.00000000000E+00  0.27217607406E+02  0.27217607406E+02  0.00000000000E+00 0. -1.
          2   -1    0    0  501    0 -0.00000000000E+00 -0.00000000000E+00 -0.80805087323E+03  0.80805087323E+03  0.00000000000E+00 0.  1.
          2    1    1    2  501    0 -0.21123626342E+02 -0.98585239909E+00  0.22950005069E+02  0.31207086174E+02  0.00000000000E+00 0. -1.
          2    1    1    2  502    0  0.21123626342E+02  0.98585239909E+00 -0.80378327089E+03  0.80406139446E+03  0.00000000000E+00 0.  1.
</event>
<event>
 4    1  0.6136512E+003  0.2158443E+02  0.7546771E-02  0.1511082E+00
          2   -1    0    0  501    0  0.00000000000E+00  0.00000000000E+00  0.39209543806E+01  0.39209543806E+01  0.00000000000E+00 0. -1.
          2   -1    0    0  502    0 -0.00000000000E+00 -0.00000000000E+00 -0.12732845823E+03  0.12732845823E+03  0.00000000000E+00 0. -1.
          2    1    1    2  501    0  0.16718237890E+02  0.13652398418E+02 -0.78667908541E+02  0.81575286055E+02  0.00000000000E+00 0. -1.
          2    1    1    2  502    0 -0.16718237890E+02 -0.13652398418E+02 -0.44739595311E+02  0.49674126558E+02  0.00000000000E+00 0. -1.
</event>
<event>
 4    1  0.6136512E+003  0.2416359E+02  0.7546771E-02  0.1478382E+00
          2   -1    0    0  502    0  0.00000000000E+00  0.00000000000E+00  0.37288446007E+02  0.37288446007E+02  0.00000000000E+00 0.  1.
          2   -1    0    0  501    0 -0.00000000000E+00 -0.00000000000E+00 -0.24918185585E+02  0.24918185585E+02  0.00000000000E+00 0. -1.
          2    1    1    2  501    0  0.17889555938E+02 -0.16243236958E+02  0.25145550885E+02  0.34873739229E+02  0.00000000000E+00 0.  1.
          2    1    1    2  502    0 -0.17889555938E+02  0.16243236958E+02 -0.12775290463E+02  0.27332892363E+02  0.00000000000E+00 0. -1.
</event>
<event>
 4    1  0.6136512E+003  0.2278027E+02  0.7546771E-02  0.1495276E+00
          2   -1    0    0  501    0  0.00000000000E+00  0.00000000000E+00  0.19610022669E+03  0.19610022669E+03  0.00000000000E+00 0.  1.
          2   -1    0    0  502    0 -0.00000000000E+00 -0.00000000000E+00 -0.35717071121E+02  0.35717071121E+02  0.00000000000E+00 0.  1.
          2    1    1    2  501    0 -0.11167043206E+02 -0.19855428816E+02 -0.31340567455E+02  0.38744961942E+02  0.00000000000E+00 0.  1.
          2    1    1    2  502    0  0.11167043206E+02  0.19855428816E+02  0.19172372302E+03  0.19307233587E+03  0.00000000000E+00 0.  1.
</event>
<event>
 4    1  0.6136512E+003  0.2712555E+02  0.7546771E-02  0.1446351E+00
          2   -1    0    0  501    0  0.00000000000E+00  0.00000000000E+00  0.86770020112E+03  0.86770020112E+03  0.00000000000E+00 0. -1.
          2   -1    0    0  502    0 -0.00000000000E+00 -0.00000000000E+00 -0.38469817895E+02  0.38469817895E+02  0.00000000000E+00 0. -1.
          2    1    1    2  501    0 -0.79807201276E+00 -0.27113803814E+02 -0.33448356106E+02  0.43064925431E+02  0.00000000000E+00 0. -1.
          2    1    1    2  502    0  0.79807201276E+00  0.27113803814E+02  0.86267873933E+03  0.86310509359E+03  0.00000000000E+00 0. -1.
</event>
<event>
 4    1  0.6136512E+003  0.2674564E+02  0.7546771E-02  0.1450180E+00
          2   -1    0    0  502    0  0.00000000000E+00  0.00000000000E+00  0.11944054028E+03  0.11944054028E+03  0.00000000000E+00 0.  1.
          2   -1    0    0  501    0 -0.00000000000E+00 -0.00000000000E+00 -0.11504076181E+04  0.11504076181E+04  0.00000000000E+00 0.  1.
          2    1    1    2  501    0 -0.59444298911E+01  0.26076678383E+02  0.11778568237E+03  0.12078408991E+03  0.00000000000E+00 0.  1.
          2    1    1    2  502    0  0.59444298911E+01 -0.26076678383E+02 -0.11487527602E+04  0.11490640685E+04  0.00000000000E+00 0.  1.
</event>
<event>
 4    1  0.6136512E+003  0.2458500E+02  0.7546771E-02  0.1473500E+00
          2   -1    0    0  501    0  0.00000000000E+00  0.00000000000E+00  0.13539290612E+02  0.13539290612E+02  0.00000000000E+00 0.  1.
          2   -1    0    0  502    0 -0.00000000000E+00 -0.00000000000E+00 -0.39326144255E+03  0.39326144255E+03  0.00000000000E+00 0.  1.
          2    1    1    2  501    0 -0.24210989074E+02 -0.42720456901E+01 -0.38136901700E+03  0.38216063311E+03  0.00000000000E+00 0.  1.
          2    1    1    2  502    0  0.24210989074E+02  0.42720456901E+01  0.16468650631E+01  0.24640100058E+02  0.00000000000E+00 0.  1.
</event>
<event>
 4    1  0.6136512E+003  0.2153008E+02  0.7546771E-02  0.1511830E+00
          2   -1    0    0  501    0  0.00000000000E+00  0.00000000000E+00  0.68526204863E+00  0.68526204863E+00  0.00000000000E+00 0. -1.
          2   -1    0    0  502    0 -0.00000000000E+00 -0.00000000000E+00 -0.15772137181E+04  0.15772137181E+04  0.00000000000E+00 0. -1.
          2    1    1    2  501    0  0.21292863207E+02 -0.31872281556E+01 -0.13844886269E+04  0.13846560232E+04  0.00000000000E+00 0. -1.
          2    1    1    2  502    0 -0.21292863207E+02  0.31872281556E+01 -0.19203982920E+03  0.19324295704E+03  0.00000000000E+00 0. -1.
</event>
<event>
 4    1  0.6136512E+003  0.2657146E+02  0.7546771E-02  0.1451961E+00
          2   -1    0    0  501    0  0.00000000000E+00  0.00000000000E+00  0.42905481568E+01  0.42905481568E+01  0.00000000000E+00 0.  1.
          2   -1    0    0  502    0 -0.00000000000E+00 -0.00000000000E+00 -0.29579699427E+03  0.29579699427E+03  0.00000000000E+00 0. -1.
          2    1    1    2  501    0 -0.24655017398E+02  0.99082136571E+01 -0.24569638749E+03  0.24712902987E+03  0.00000000000E+00 0. -1.
          2    1    1    2  502    0  0.24655017398E+02 -0.99082136571E+01 -0.45810058624E+02  0.52958512553E+02  0.00000000000E+00 0.  1.
</event>
<event>
 4    1  0.6136512E+003  0.2568774E+02  0.7546771E-02  0.1461255E+00
          2   -1    0    0  501    0  0.00000000000E+00  0.00000000000E+00  0.97828485368E+02  0.97828485368E+02  0.00000000000E+00 0.  1.
          2   -1    0    0  502    0 -0.00000000000E+00 -0.00000000000E+00 -0.17954665187E+02  0.17954665187E+02  0.00000000000E+00 0.  1.
          2    1    1    2  501    0  0.24831859440E+02 -0.65756241479E+01 -0.58057753790E+01  0.26335662208E+02  0.00000000000E+00 0.  1.
          2    1    1    2  502    0 -0.24831859440E+02  0.65756241479E+01  0.85679595560E+02  0.89447488346E+02  0.00000000000E+00 0.  1.
</event>
<event>
 4    1  0.6136512E+003  0.2700226E+02  0.7546771E-02  0.1447585E+00
          2   -1    0    0  501    0  0.00000000000E+00  0.00000000000E+00  0.35647455527E+01  0.35647455527E+01  0.00000000000E+00 0.  1.
          2   -1    0    0  502    0 -0.00000000000E+00 -0.00000000000E+00 -0.68425034063E+03  0.68425034063E+03  0.00000000000E+00 0.  1.
          2    1    1    2  501    0 -0.22999179449E+02  0.14147786316E+02 -0.62829812644E+03  0.62887809454E+03  0.00000000000E+00 0.  1.
          2    1    1    2  502    0  0.22999179449E+02 -0.14147786316E+02 -0.52387468645E+02  0.58936991643E+02  0.00000000000E+00 0.  1.
</event>
<event>
 4    1  0.6136512E+003  0.2128761E+02  0.7546771E-02  0.1515198E+00
          2   -1    0    0  502    0  0.00000000000E+00  0.00000000000E+00  0.48196624719E+02  0.48196624719E+02  0.00000000000E+00 0.  1.
          2   -1    0    0  501    0 -0.00000000000E+00 -0.00000000000E+00 -0.25423382612E+03  0.25423382612E+03  0.00000000000E+00 0.  1.
          2    1    1    2  501    0 -0.18852114911E+02  0.98873795257E+01  0.45374073720E+02  0.50119547847E+02  0.00000000000E+00 0.  1.
          2    1    1    2  502    0  0.18852114911E+02 -0.98873795257E+01 -0.25141127512E+03  0.25231090299E+03  0.00000000000E+00 0.  1.
</event>
<event>
 4    1  0.6136512E+003  0.2074517E+02  0.7546771E-02  0.1522934E+00
          2   -1    0    0  502    0  0.00000000000E+00  0.00000000000E+00  0.12309659854E+03  0.12309659854E+03  0.00000000000E+00 0.  1.
          2   -1    0    0  501    0 -0.00000000000E+00 -0.00000000000E+00 -0.19007077826E+02  0.19007077826E+02  0.00000000000E+00 0. -1.
          2    1    1    2  501    0 -0.98865054442E+01  0.18237851606E+02  0.11623023425E+03  0.11806705542E+03  0.00000000000E+00 0.  1.
          2    1    1    2  502    0  0.98865054442E+01 -0.18237851606E+02 -0.12140713541E+02  0.24036620944E+02  0.00000000000E+00 0. -1.
</event>
<event>
 4    1  0.1110740E+004  0.2695009E+02  0.7546771E-02  0.1448110E+00
          2   -1    0    0  502    0  0.00000000000E+00  0.00000000000E+00  0.97916828932E+03  0.97916828932E+03  0.00000000000E+00 0.  1.
          2   -1    0    0  501    0 -0.00000000000E+00 -0.00000000000E+00 -0.48039616322E+03  0.48039616322E+03  0.00000000000E+00 0.  1.
          2    1    1    2  501    0 -0.59949787940E+01 -0.26274845878E+02  0.97860465872E+03  0.97897568170E+03  0.00000000000E+00 0.  1.
          2    1    1    2  502    0  0.59949787940E+01  0.26274845878E+02 -0.47983253262E+03  0.48058877084E+03  0.00000000000E+00 0.  1.
</event>
<event>
 4    1  0.6136512E+003  0.2035296E+02  0.7546771E-02  0.1528707E+00
          2   -1    0    0  501    0  0.00000000000E+00  0.00000000000E+00  0.30223428471E+01  0.30223428471E+01  0.00000000000E+00 0.  1.
          2   -1    0    0  502    0 -0.00000000000E+00 -0.00000000000E+00 -0.15048479127E+03  0.15048479127E+03  0.00000000000E+00 0.  1.
          2    1    1    2  501    0  0.89405629710E+01  0.18284128145E+02 -0.96655852376E+02  0.98775486872E+02  0.00000000000E+00 0.  1.
          2    1    1    2  502    0 -0.89405629710E+01 -0.18284128145E+02 -0.50806596045E+02  0.54731647243E+02  0.00000000000E+00 0.  1.
</event>
<event>
 4    1  0.6136512E+003  0.2378811E+02  0.7546771E-02  0.1482832E+00
          2   -1    0    0  502    0  0.00000000000E+00  0.00000000000E+00  0.92795990185E+02  0.92795990185E+02  0.00000000000E+00 0.  1.
          2   -1    0    0  501    0 -0.00000000000E+00 -0.00000000000E+00 -0.20542232104E+03  0.20542232104E+03  0.00000000000E+00 0. -1.
          2    1    1    2  501    0 -0.22910581375E+02 -0.64015342487E+01  0.90566133043E+02  0.93638127032E+02  0.00000000000E+00 0.  1.
          2    1    1    2  502    0  0.22910581375E+02  0.64015342487E+01 -0.20319246390E+03  0.20458018419E+03  0.00000000000E+00 0. -1.
</event>
<event>
 4    1  0.6136512E+003  0.2088215E+02  0.7546771E-02  0.1520954E+00
          2   -1    0    0  501    0  0.00000000000E+00  0.00000000000E+00  0.13320697073E+04  0.13320697073E+04  0.00000000000E+00 0. -1.
          2   -1    0    0  502    0 -0.00000000000E+00 -0.00000000000E+00 -0.24562457038E+02  0.24562457038E+02  0.00000000000E+00 0.  1.
          2    1    1    2  501    0 -0.36353677921E+01 -0.20563274750E+02 -0.20027135633E+02  0.28933550233E+02  0.00000000000E+00 0.  1.
          2    1    1    2  502    0  0.36353677921E+01  0.20563274750E+02  0.13275343859E+04  0.13276986141E+04  0.00000000000E+00 0. -1.
</event>
<event>
 4    1  0.6136512E+003  0.2084190E+02  0.7546771E-02  0.1521534E+00
          2   -1    0    0  502    0  0.00000000000E+00  0.00000000000E+00  0.16264282296E+03  0.16264282296E+03  0.00000000000E+00 0. -1.
          2   -1    0    0  501    0 -0.00000000000E+00 -0.00000000000E+00 -0.12315063783E+02  0.12315063783E+02  0.00000000000E+00 0.  1.
          2    1    1    2  501    0  0.13432084957E+02  0.15936240937E+02  0.15257796391E+03  0.15399486924E+03  0.00000000000E+00 0. -1.
          2    1    1    2  502    0 -0.13432084957E+02 -0.15936240937E+02 -0.22502047331E+01  0.20963017503E+02  0.00000000000E+00 0.  1.
</event>
<event>
 4    1  0.6136512E+003  0.2015548E+02  0.7546771E-02  0.1531672E+00
          2   -1    0    0  502    0  0.00000000000E+00  0.00000000000E+00  0.11259744439E+04  0.11259744439E+04  0.00000000000E+00 0.  1.
          2   -1    0    0  501    0 -0.00000000000E+00 -0.00000000000E+00 -0.72164987252E+00  0.72164987252E+00  0.00000000000E+00 0.  1.
          2    1    1    2  501    0  0.19014954243E+02  0.66839400179E+01  0.96099132707E+03  0.96120267074E+03  0.00000000000E+00 0.  1.
          2    1    1    2  502    0 -0.19014954243E+02 -0.66839400179E+01  0.16426146693E+03  0.16549342300E+03  0.00000000000E+00 0.  1.
</event>
<event>
 4    1  0.6136512E+003  0.3336451E+02  0.7546771E-02  0.1392441E+00
          2   -1    0    0  502    0  0.00000000000E+00  0.00000000000E+00  0.64861206811E+02  0.64861206811E+02  0.00000000000E+00 0. -1.
          2   -1    0    0  501    0 -0.00000000000E+00 -0.00000000000E+00 -0.13904550376E+03  0.13904550376E+03  0.00000000000E+00 0. -1.
          2    1    1    2  501    0  0.98808037365E+01 -0.31867851889E+02  0.58361900069E+02  0.67225751361E+02  0.00000000000E+00 0. -1.
          2    1    1    2  502    0 -0.98808037365E+01  0.31867851889E+02 -0.13254619701E+03  0.13668095920E+03  0.00000000000E+00 0. -1.
</event>
<event>
 4    1  0.6136512E+003  0.4623447E+02  0.7546771E-02  0.1315379E+00
          2   -1    0    0  502    0  0.00000000000E+00  0.00000000000E+00  0.37163924805E+02  0.37163924805E+02  0.00000000000E+00 0.  1.
          2   -1    0    0  501    0 -0.00000000000E+00 -0.00000000000E+00 -0.71808949606E+02  0.71808949606E+02  0.00000000000E+00 0. -1.
          2    1    1    2  501    0 -0.45993799290E+02 -0.47113539254E+01  0.69836650865E+01  0.46758935050E+02  0.00000000000E+00 0.  1.
          2    1    1    2  502    0  0.45993799290E+02  0.47113539254E+01 -0.41628689887E+02  0.62213939360E+02  0.00000000000E+00 0. -1.
</event>
<event>
 4    1  0.6136512E+003  0.6087824E+02  0.7546771E-02  0.1256877E+00
          2   -1    0    0  501    0  0.00000000000E+00  0.00000000000E+00  0.25379261493E+04  0.25379261493E+04  0.00000000000E+00 0. -1.
          2   -1    0    0  502    0 -0.00000000000E+00 -0.00000000000E+00 -0.11167472429E+03  0.11167472429E+03  0.00000000000E+00 0.  1.
          2    1    1    2  501    0  0.56578051509E+02 -0.22474090278E+02 -0.10298436744E+03  0.11963252310E+03  0.00000000000E+00 0.  1.
          2    1    1    2  502    0 -0.56578051509E+02  0.22474090278E+02  0.25292357924E+04  0.25299683505E+04  0.00000000000E+00 0. -1.
</event>
<event>
 4    1  0.8645672E+003  0.2534879E+02  0.7546771E-02  0.1464939E+00
          2   -1    0    0  501    0  0.00000000000E+00  0.00000000000E+00  0.35134477390E+03  0.35134477390E+03  0.00000000000E+00 0.  1.
          2   -1    0    0  502    0 -0.00000000000E+00 -0.00000000000E+00 -0.78116249429E+03  0.78116249429E+03  0.00000000000E+00 0. -1.
          2    1    1    2  501    0  0.21518367918E+02  0.13398544984E+02 -0.78049924771E+03  0.78091077393E+03  0.00000000000E+00 0. -1.
          2    1    1    2  502    0 -0.21518367918E+02 -0.13398544984E+02  0.35068152732E+03  0.35159649425E+03  0.00000000000E+00 0.  1.
</event>
<event>
 4    1  0.6136512E+003  0.5277985E+02  0.7546771E-02  0.1286550E+00
          2   -1    0    0  501    0  0.00000000000E+00  0.00000000000E+00  0.26879384463E+03  0.26879384463E+03  0.00000000000E+00 0. -1.
          2   -1    0    0  502    0 -0.00000000000E+00 -0.00000000000E+00 -0.36219755646E+02  0.36219755646E+02  0.00000000000E+00 0.  1.
          2    1    1    2  501    0  0.10408562140E+02 -0.51743350247E+02 -0.12566734492E+02  0.54255278788E+02  0.00000000000E+00 0.  1.
          2    1    1    2  502    0 -0.10408562140E+02  0.51743350247E+02  0.24514082348E+03  0.25075832149E+03  0.00000000000E+00 0. -1.
</event>
<event>
 4    1  0.6136512E+003  0.2337288E+02  0.7546771E-02  0.1487868E+00
          2   -1    0    0  502    0  0.00000000000E+00  0.00000000000E+00  0.24784713488E+01  0.24784713488E+01  0.00000000000E+00 0.  1.
          2   -1    0    0  501    0 -0.00000000000E+00 -0.00000000000E+00 -0.78715653985E+03  0.78715653985E+03  0.00000000000E+00 0.  1.
          2    1    1    2  501    0  0.21902731282E+02 -0.81585593855E+01 -0.57328509011E+02  0.61910012714E+02  0.00000000000E+00 0.  1.
          2    1    1    2  502    0 -0.21902731282E+02  0.81585593855E+01 -0.72734955949E+03  0.72772499849E+03  0.00000000000E+00 0.  1.
</event>
<event>
 4    1  0.6136512E+003  0.2065211E+02  0.7546771E-02  0.1524290E+00
          2   -1    0    0  502    0  0.00000000000E+00  0.00000000000E+00  0.99958461281E+03  0.99958461281E+03  0.00000000000E+00 0.  1.
          2   -1    0    0  501    0 -0.00000000000E+00 -0.00000000000E+00 -0.97115613943E+00  0.97115613943E+00  0.00000000000E+00 0.  1.
          2    1    1    2  501    0 -0.20493899013E+02  0.25514519640E+01  0.87389432376E+03  0.87413831795E+03  0.00000000000E+00 0.  1.
          2    1    1    2  502    0  0.20493899013E+02 -0.25514519640E+01  0.12471913291E+03  0.12641745100E+03  0.00000000000E+00 0.  1.
</event>
<event>
 4    1  0.6136512E+003  0.2895570E+02  0.7546771E-02  0.1428894E+00
          2   -1    0    0  501    0  0.00000000000E+00  0.00000000000E+00  0.28880002734E+03  0.28880002734E+03  0.00000000000E+00 0. -1.
          2   -1    0    0  502    0 -0.00000000000E+00 -0.00000000000E+00 -0.21834110363E+02  0.21834110363E+02  0.00000000000E+00 0. -1.
          2    1    1    2  501    0 -0.16194669284E+02  0.24003441677E+02 -0.11140136099E+02  0.31024750730E+02  0.00000000000E+00 0. -1.
          2    1    1    2  502    0  0.16194669284E+02 -0.24003441677E+02  0.27810605307E+03  0.27960938697E+03  0.00000000000E+00 0. -1.
</event>
<event>
 4    1  0.6136512E+003  0.2187302E+02  0.7546771E-02  0.1507156E+00
          2   -1    0    0  502    0  0.00000000000E+00  0.00000000000E+00  0.20915670487E+01  0.20915670487E+01  0.00000000000E+00 0.  1.
          2   -1    0    0  501    0 -0.00000000000E+00 -0.00000000000E+00 -0.13934379142E+04  0.13934379142E+04  0.00000000000E+00 0.  1.
          2    1    1    2  501    0  0.89756907036E+01 -0.19946580816E+02 -0.57745422718E+02  0.61749193960E+02  0.00000000000E+00 0.  1.
          2    1    1    2  502    0 -0.89756907036E+01  0.19946580816E+02 -0.13336009245E+04  0.13337802873E+04  0.00000000000E+00 0.  1.
</event>
<event>
 4    1  0.6136512E+003  0.2407540E+02  0.7546771E-02  0.1479418E+00
          2   -1    0    0  501    0  0.00000000000E+00  0.00000000000E+00  0.98138672857E+03  0.98138672857E+03  0.00000000000E+00 0. -1.
          2   -1    0    0  502    0 -0.00000000000E+00 -0.00000000000E+00 -0.11388614797E+02  0.11388614797E+02  0.00000000000E+00 0. -1.
          2    1    1    2  501    0 -0.22092270736E+02 -0.95685037329E+01  0.16541668432E+01  0.24132156097E+02  0.00000000000E+00 0. -1.
          2    1    1    2  502    0  0.22092270736E+02  0.95685037329E+01  0.96834394693E+03  0.96864318727E+03  0.00000000000E+00 0. -1.
</event>
<event>
 4    1  0.6136512E+003  0.2130000E+02  0.7546771E-02  0.1515025E+00
          2   -1    0    0  501    0  0.00000000000E+00  0.00000000000E+00  0.75768239751E+03  0.75768239751E+03  0.00000000000E+00 0.  1.
          2   -1    0    0  502    0 -0.00000000000E+00 -0.00000000000E+00 -0.86814460640E+00  0.86814460640E+00  0.00000000000E+00 0. -1.
          2    1    1    2  501    0  0.97125403731E+01  0.18956697411E+02  0.16714400045E+03  0.16849571717E+03  0.00000000000E+00 0. -1.
          2    1    1    2  502    0 -0.97125403731E+01 -0.18956697411E+02  0.58967025245E+03  0.59005482494E+03  0.00000000000E+00 0.  1.
</event>
<event>
 4    1  0.6136512E+003  0.5893795E+02  0.7546771E-02  0.1263484E+00
          2   -1    0    0  502    0  0.00000000000E+00  0.00000000000E+00  0.11504537564E+04  0.11504537564E+04  0.00000000000E+00 0.  1.
          2   -1    0    0  501    0 -0.00000000000E+00 -0.00000000000E+00 -0.55177579395E+01  0.55177579395E+01  0.00000000000E+00 0.  1.
          2    1    1    2  501    0 -0.58803934457E+02 -0.39722607931E+01  0.96139046604E+03  0.96319536427E+03  0.00000000000E+00 0.  1.
          2    1    1    2  502    0  0.58803934457E+02  0.39722607931E+01  0.18354553243E+03  0.19277615008E+03  0.00000000000E+00 0.  1.
</event>
<event>
 4    1  0.6136512E+003  0.2967108E+02  0.7546771E-02  0.1422477E+00
          2   -1    0    0  502    0  0.00000000000E+00  0.00000000000E+00  0.12851072888E+04  0.12851072888E+04  0.00000000000E+00 0.  1.
          2   -1    0    0  501    0 -0.00000000000E+00 -0.00000000000E+00 -0.13461505217E+01  0.13461505217E+01  0.00000000000E+00 0.  1.
          2    1    1    2  501    0  0.26397576445E+02  0.13547735417E+02  0.10926436611E+04  0.10930464506E+04  0.00000000000E+00 0.  1.
          2    1    1    2  502    0 -0.26397576445E+02 -0.13547735417E+02  0.19111747722E+03  0.19340698870E+03  0.00000000000E+00 0.  1.
</event>
<event>
 4    1  0.6136512E+003  0.4754892E+02  0.7546771E-02  0.1309164E+00
          2   -1    0    0  502    0  0.00000000000E+00  0.00000000000E+00  0.13403775411E+04  0.13403775411E+04  0.00000000000E+00 0. -1.
          2   -1    0    0  501    0 -0.00000000000E+00 -0.00000000000E+00 -0.45086875853E+01  0.45086875853E+01  0.00000000000E+00 0. -1.
          2    1    1    2  501    0  0.92774301018E+01  0.46635062275E+02  0.11999240388E+04  0.12008657705E+04  0.00000000000E+00 0. -1.
          2    1    1    2  502    0 -0.92774301018E+01 -0.46635062275E+02  0.13594481468E+03  0.14402045821E+03  0.00000000000E+00 0. -1.
</event>
<event>
 4    1  0.6136512E+003  0.2520311E+02  0.7546771E-02  0.1466544E+00
          2   -1    0    0  501    0  0.00000000000E+00  0.00000000000E+00  0.20343200229E+03  0.20343200229E+03  0.00000000000E+00 0.  1.
          2   -1    0    0  502    0 -0.00000000000E+00 -0.00000000000E+00 -0.65117089258E+02  0.65117089258E+02  0.00000000000E+00 0. -1.
          2    1    1    2  501    0  0.10137803324E+02  0.23074269869E+02 -0.61858270303E+02  0.66795528227E+02  0.00000000000E+00 0. -1.
          2    1    1    2  502    0 -0.10137803324E+02 -0.23074269869E+02  0.20017318334E+03  0.20175356332E+03  0.00000000000E+00 0.  1.
</event>
<event>
 4    1  0.6136512E+003  0.2818608E+02  0.7546771E-02  0.1436044E+00
          2   -1    0    0  501    0  0.00000000000E+00  0.00000000000E+00  0.14705094109E+01  0.14705094109E+01  0.00000000000E+00 0.  1.
          2   -1    0    0  502    0 -0.00000000000E+00 -0.00000000000E+00 -0.67176378809E+03  0.67176378809E+03  0.00000000000E+00 0.  1.
          2    1    1    2  501    0 -0.26514794299E+02 -0.95614209144E+01 -0.48408264008E+03  0.48490252373E+03  0.00000000000E+00 0.  1.
          2    1    1    2  502    0  0.26514794299E+02  0.95614209144E+01 -0.18621063859E+03  0.18833177377E+03  0.00000000000E+00 0.  1.
</event>
<event>
 4    1  0.6136512E+003  0.4219764E+02  0.7546771E-02  0.1336068E+00
          2   -1    0    0  501    0  0.00000000000E+00  0.00000000000E+00  0.24470098499E+01  0.24470098499E+01  0.00000000000E+00 0. -1.
          2   -1    0    0  502    0 -0.00000000000E+00 -0.00000000000E+00 -0.14329216071E+04  0.14329216071E+04  0.00000000000E+00 0. -1.
          2    1    1    2  501    0 -0.28913627319E+02  0.30735045308E+02 -0.12187275972E+04  0.12194579112E+04  0.00000000000E+00 0. -1.
          2    1    1    2  502    0  0.28913627319E+02 -0.30735045308E+02 -0.21174700004E+03  0.21591070581E+03  0.00000000000E+00 0. -1.
</event>
<event>
 4    1  0.6136512E+003  0.2074052E+02  0.7546771E-02  0.1523002E+00
          2   -1    0    0  501    0  0.00000000000E+00  0.00000000000E+00  0.52721999950E+02  0.52721999950E+02  0.00000000000E+00 0.  1.
          2   -1    0    0  502    0 -0.00000000000E+00 -0.00000000000E+00 -0.33929644069E+02  0.33929644069E+02  0.00000000000E+00 0.  1.
          2    1    1    2  501    0  0.90891888462E+00 -0.20720595932E+02 -0.28362617258E+02  0.35136978912E+02  0.00000000000E+00 0.  1.
          2    1    1    2  502    0 -0.90891888462E+00  0.20720595932E+02  0.47154973140E+02  0.51514665107E+02  0.00000000000E+00 0.  1.
</event>
<event>
 4    1  0.6136512E+003  0.2190046E+02  0.7546771E-02  0.1506787E+00
          2   -1    0    0  501    0  0.00000000000E+00  0.00000000000E+00  0.36244426343E+01  0.36244426343E+01  0.00000000000E+00 0.  1.
          2   -1    0    0  502    0 -0.00000000000E+00 -0.00000000000E+00 -0.14292838132E+04  0.14292838132E+04  0.00000000000E+00 0.  1.
          2    1    1    2  501    0 -0.85355608980E+01  0.20168645907E+02 -0.13953114571E+04  0.13954833186E+04  0.00000000000E+00 0.  1.
          2    1    1    2  502    0  0.85355608980E+01 -0.20168645907E+02 -0.30347913440E+02  0.37424937244E+02  0.00000000000E+00 0.  1.
</event>
<event>
 4    1  0.6136512E+003  0.2811172E+02  0.7546771E-02  0.1436749E+00
          2   -1    0    0  502    0  0.00000000000E+00  0.00000000000E+00  0.22582963981E+02  0.22582963981E+02  0.00000000000E+00 0. -1.
          2   -1    0    0  501    0 -0.00000000000E+00 -0.00000000000E+00 -0.18762786050E+03  0.18762786050E+03  0.00000000000E+00 0. -1.
          2    1    1    2  501    0  0.22800042822E+02  0.16444656259E+02  0.12276132168E+02  0.30675268429E+02  0.00000000000E+00 0. -1.
          2    1    1    2  502    0 -0.22800042822E+02 -0.16444656259E+02 -0.17732102869E+03  0.17953555605E+03  0.00000000000E+00 0. -1.
</event>
<event>
 4    1  0.6136512E+003  0.2811132E+02  0.7546771E-02  0.1436753E+00
          2   -1    0    0  501    0  0.00000000000E+00  0.00000000000E+00  0.17673568089E+03  0.17673568089E+03  0.00000000000E+00 0. -1.
          2   -1    0    0  502    0 -0.00000000000E+00 -0.00000000000E+00 -0.50332357565E+01  0.50332357565E+01  0.00000000000E+00 0.  1.
          2    1    1    2  501    0  0.86300175050E+01  0.26753856962E+02  0.55484897731E+02  0.62199838752E+02  0.00000000000E+00 0.  1.
          2    1    1    2  502    0 -0.86300175050E+01 -0.26753856962E+02  0.11621754740E+03  0.11956907790E+03  0.00000000000E+00 0. -1.
</event>
<event>
 4    1  0.6136512E+003  0.2080569E+02  0.7546771E-02  0.1522057E+00
          2   -1    0    0  501    0  0.00000000000E+00  0.00000000000E+00  0.11609939642E+03  0.11609939642E+03  0.00000000000E+00 0. -1.
          2   -1    0    0  502    0 -0.00000000000E+00 -0.00000000000E+00 -0.11271020052E+03  0.11271020052E+03  0.00000000000E+00 0.  1.
          2    1    1    2  501    0 -0.11245896212E+02 -0.17504477831E+02 -0.11080200640E+03  0.11273846526E+03  0.00000000000E+00 0.  1.
          2    1    1    2  502    0  0.11245896212E+02  0.17504477831E+02  0.11419120231E+03  0.11607113168E+03  0.00000000000E+00 0. -1.
</event>
<event>
 4    1  0.6136512E+003  0.2075860E+02  0.7546771E-02  0.1522740E+00
          2   -1    0    0  502    0  0.00000000000E+00  0.00000000000E+00  0.11595123531E+04  0.11595123531E+04  0.00000000000E+00 0.  1.
          2   -1    0    0  501    0 -0.00000000000E+00 -0.00000000000E+00 -0.38484688530E+00  0.38484688530E+00  0.00000000000E+00 0.  1.
          2    1    1    2  501    0 -0.15103451733E+02 -0.14240963557E+02  0.68700530822E+03  0.68731885818E+03  0.00000000000E+00 0.  1.
          2    1    1    2  502    0  0.15103451733E+02  0.14240963557E+02  0.47212219795E+03  0.47257834175E+03  0.00000000000E+00 0.  1.
</event>
<event>
 4    1  0.6136512E+003  0.2322867E+02  0.7546771E-02  0.1489646E+00
          2   -1    0    0  501    0  0.00000000000E+00  0.00000000000E+00  0.35824420616E+03  0.35824420616E+03  0.00000000000E+00 0.  1.
          2   -1    0    0  502    0 -0.00000000000E+00 -0.00000000000E+00 -0.15062126497E+01  0.15062126497E+01  0.00000000000E+00 0.  1.
          2    1    1    2  501    0 -0.22667390015E+02 -0.50754950402E+01  0.17948403723E+03  0.18098091292E+03  0.00000000000E+00 0.  1.
          2    1    1    2  502    0  0.22667390015E+02  0.50754950402E+01  0.17725395628E+03  0.17876950589E+03  0.00000000000E+00 0.  1.
</event>
<event>
 4    1  0.6136512E+003  0.2105843E+02  0.7546771E-02  0.1518432E+00
          2   -1    0    0  501    0  0.00000000000E+00  0.00000000000E+00  0.44192896963E+02  0.44192896963E+02  0.00000000000E+00 0.  1.
          2   -1    0    0  502    0 -0.00000000000E+00 -0.00000000000E+00 -0.76690292615E+02  0.76690292615E+02  0.00000000000E+00 0. -1.
          2    1    1    2  501    0 -0.19330470954E+02  0.83540527504E+01 -0.72597461885E+02  0.75590004477E+02  0.00000000000E+00 0. -1.
          2    1    1    2  502    0  0.19330470954E+02 -0.83540527504E+01  0.40100066234E+02  0.45293185101E+02  0.00000000000E+00 0.  1.
</event>
<event>
 4    1  0.6136512E+003  0.2296101E+02  0.7546771E-02  0.1492988E+00
          2   -1    0    0  502    0  0.00000000000E+00  0.00000000000E+00  0.79828638447E+01  0.79828638447E+01  0.00000000000E+00 0. -1.
          2   -1    0    0  501    0 -0.00000000000E+00 -0.00000000000E+00 -0.28758986970E+03  0.28758986970E+03  0.00000000000E+00 0. -1.
          2    1    1    2  501    0 -0.22911708754E+01  0.22846415146E+02 -0.10091281721E+02  0.25080712027E+02  0.00000000000E+00 0. -1.
          2    1    1    2  502    0  0.22911708754E+01 -0.22846415146E+02 -0.26951572414E+03  0.27049202152E+03  0.00000000000E+00 0. -1.
</event>
<event>
 4    1  0.6136512E+003  0.4163982E+02  0.7546771E-02  0.1339135E+00
          2   -1    0    0  502    0  0.00000000000E+00  0.00000000000E+00  0.34276960389E+02  0.34276960389E+02  0.00000000000E+00 0.  1.
          2   -1    0    0  501    0 -0.00000000000E+00 -0.00000000000E+00 -0.19099387691E+03  0.19099387691E+03  0.00000000000E+00 0.  1.
          2    1    1    2  501    0 -0.32632765859E+02 -0.25864598083E+02  0.18216310105E+02  0.45450069256E+02  0.00000000000E+00 0.  1.
          2    1    1    2  502    0  0.32632765859E+02  0.25864598083E+02 -0.17493322663E+03  0.17982076805E+03  0.00000000000E+00 0.  1.
</event>
<event>
 4    1  0.6136512E+003  0.3310178E+02  0.7546771E-02  0.1394423E+00
          2   -1    0    0  501    0  0.00000000000E+00  0.00000000000E+00  0.13096441957E+02  0.13096441957E+02  0.00000000000E+00 0. -1.
          2   -1    0    0  502    0 -0.00000000000E+00 -0.00000000000E+00 -0.94033626997E+02  0.94033626997E+02  0.00000000000E+00 0. -1.
          2    1    1    2  501    0  0.17706244992E+02 -0.27968132938E+02 -0.22682586988E+02  0.40127637909E+02  0.00000000000E+00 0. -1.
          2    1    1    2  502    0 -0.17706244992E+02  0.27968132938E+02 -0.58254598052E+02  0.67002431045E+02  0.00000000000E+00 0. -1.
</event>
<event>
 4    1  0.6136512E+003  0.2398184E+02  0.7546771E-02  0.1480524E+00
          2   -1    0    0  502    0  0.00000000000E+00  0.00000000000E+00  0.32393384891E+02  0.32393384891E+02  0.00000000000E+00 0. -1.
          2   -1    0    0  501    0 -0.00000000000E+00 -0.00000000000E+00 -0.41274579872E+03  0.41274579872E+03  0.00000000000E+00 0. -1.
          2    1    1    2  501    0 -0.11839312688E+02 -0.20855680711E+02  0.27553784938E+02  0.36528616279E+02  0.00000000000E+00 0. -1.
          2    1    1    2  502    0  0.11839312688E+02  0.20855680711E+02 -0.40790619876E+03  0.40861056733E+03  0.00000000000E+00 0. -1.
</event>
<event>
 4    1  0.6136512E+003  0.2095976E+02  0.7546771E-02  0.1519840E+00
          2   -1    0    0  501    0  0.00000000000E+00  0.00000000000E+00  0.14027917519E+04  0.14027917519E+04  0.00000000000E+00 0. -1.
          2   -1    0    0  502    0 -0.00000000000E+00 -0.00000000000E+00 -0.47408459432E+01  0.47408459432E+01  0.00000000000E+00 0. -1.
          2    1    1    2  501    0  0.15991309732E+02  0.13549525521E+02  0.18900855717E+02  0.28223287824E+02  0.00000000000E+00 0. -1.
          2    1    1    2  502    0 -0.15991309732E+02 -0.13549525521E+02  0.13791500503E+04  0.13793093101E+04  0.00000000000E+00 0. -1.
</event>
<event>
 4    1  0.6136512E+003  0.2288861E+02  0.7546771E-02  0.1493902E+00
          2   -1    0    0  501    0  0.00000000000E+00  0.00000000000E+00  0.52677529847E+00  0.52677529847E+00  0.00000000000E+00 0. -1.
          2   -1    0    0  502    0 -0.00000000000E+00 -0.00000000000E+00 -0.99452325112E+03  0.99452325112E+03  0.00000000000E+00 0. -1.
          2    1    1    2  501    0 -0.22837676409E+02  0.15260661565E+01 -0.49795583798E+03  0.49848159938E+03  0.00000000000E+00 0. -1.
          2    1    1    2  502    0  0.22837676409E+02 -0.15260661565E+01 -0.49604063784E+03  0.49656842704E+03  0.00000000000E+00 0. -1.
</event>
<event>
 4    1  0.6136512E+003  0.3763840E+02  0.7546771E-02  0.1362909E+00
          2   -1    0    0  501    0  0.00000000000E+00  0.00000000000E+00  0.65275142286E+01  0.65275142286E+01  0.00000000000E+00 0.  1.
          2   -1    0    0  502    0 -0.00000000000E+00 -0.00000000000E+00 -0.22259347646E+03  0.22259347646E+03  0.00000000000E+00 0.  1.
          2    1    1    2  501    0  0.13738665257E+02  0.35041379255E+02 -0.89917294690E+02  0.97477018151E+02  0.00000000000E+00 0.  1.
          2    1    1    2  502    0 -0.13738665257E+02 -0.35041379255E+02 -0.12614866755E+03  0.13164397254E+03  0.00000000000E+00 0.  1.
</event>
<event>
 4    1  0.6136512E+003  0.2141825E+02  0.7546771E-02  0.1513376E+00
          2   -1    0    0  501    0  0.00000000000E+00  0.00000000000E+00  0.56065272130E+02  0.56065272130E+02  0.00000000000E+00 0. -1.
          2   -1    0    0  502    0 -0.00000000000E+00 -0.00000000000E+00 -0.39858957255E+02  0.39858957255E+02  0.00000000000E+00 0.  1.
          2    1    1    2  501    0  0.19747756888E+02  0.82926170910E+01 -0.34653644104E+02  0.40738390371E+02  0.00000000000E+00 0.  1.
          2    1    1    2  502    0 -0.19747756888E+02 -0.82926170910E+01  0.50859958979E+02  0.55185839014E+02  0.00000000000E+00 0. -1.
</event>
<event>
 4    1  0.6136512E+003  0.2132405E+02  0.7546771E-02  0.1514688E+00
          2   -1    0    0  501    0  0.00000000000E+00  0.00000000000E+00  0.10627924573E+03  0.10627924573E+03  0.00000000000E+00 0. -1.
          2   -1    0    0  502    0 -0.00000000000E+00 -0.00000000000E+00 -0.40124039949E+02  0.40124039949E+02  0.00000000000E+00 0. -1.
          2    1    1    2  501    0  0.19894319101E+02  0.76766514861E+01 -0.36111247105E+02  0.41937299365E+02  0.00000000000E+00 0. -1.
          2    1    1    2  502    0 -0.19894319101E+02 -0.76766514861E+01  0.10226645289E+03  0.10446598631E+03  0.00000000000E+00 0. -1.
</event>
<event>
 4    1  0.6136512E+003  0.2329329E+02  0.7546771E-02  0.1488848E+00
          2   -1    0    0  502    0  0.00000000000E+00  0.00000000000E+00  0.29431735900E+02  0.29431735900E+02  0.00000000000E+00 0.  1.
          2   -1    0    0  501    0 -0.00000000000E+00 -0.00000000000E+00 -0.94854516401E+02  0.94854516401E+02  0.00000000000E+00 0. -1.
          2    1    1    2  501    0  0.16296119797E+02  0.16643729285E+02  0.23066993262E+02  0.32782059470E+02  0.00000000000E+00 0.  1.
          2    1    1    2  502    0 -0.16296119797E+02 -0.16643729285E+02 -0.88489773763E+02  0.91504192831E+02  0.00000000000E+00 0. -1.
</event>
<event>
 4    1  0.6136512E+003  0.4120850E+02  0.7546771E-02  0.1341546E+00
          2   -1    0    0  501    0  0.00000000000E+00  0.00000000000E+00  0.27188028031E+04  0.27188028031E+04  0.00000000000E+00 0.  1.
          2   -1    0    0  502    0 -0.00000000000E+00 -0.00000000000E+00 -0.77993744367E+00  0.77993744367E+00  0.00000000000E+00 0.  1.
          2    1    1    2  501    0 -0.17566800063E+02  0.37276639587E+02  0.75214549203E+03  0.75327351043E+03  0.00000000000E+00 0.  1.
          2    1    1    2  502    0  0.17566800063E+02 -0.37276639587E+02  0.19658773736E+04  0.19663092301E+04  0.00000000000E+00 0.  1.
</event>
<event>
 4    1  0.6136512E+003  0.3136229E+02  0.7546771E-02  0.1408116E+00
          2   -1    0    0  501    0  0.00000000000E+00  0.00000000000E+00  0.13632084914E+03  0.13632084914E+03  0.00000000000E+00 0.  1.
          2   -1    0    0  502    0 -0.00000000000E+00 -0.00000000000E+00 -0.14998666361E+02  0.14998666361E+02  0.00000000000E+00 0. -1.
          2    1    1    2  501    0  0.10498310169E+02  0.29552979634E+02  0.61577769207E+01  0.31961091005E+02  0.00000000000E+00 0. -1.
          2    1    1    2  502    0 -0.10498310169E+02 -0.29552979634E+02  0.11516440585E+03  0.11935842449E+03  0.00000000000E+00 0.  1.
</event>
<event>
 4    1  0.6136512E+003  0.2960963E+02  0.7546771E-02  0.1423019E+00
          2   -1    0    0  502    0  0.00000000000E+00  0.00000000000E+00  0.30009665281E+04  0.30009665281E+04  0.00000000000E+00 0. -1.
          2   -1    0    0  501    0 -0.00000000000E+00 -0.00000000000E+00 -0.35785777135E+00  0.35785777135E+00  0.00000000000E+00 0.  1.
          2    1    1    2  501    0  0.24085385269E+02  0.17222784941E+02  0.21433452094E+04  0.21435497234E+04  0.00000000000E+00 0. -1.
          2    1    1    2  502    0 -0.24085385269E+02 -0.17222784941E+02  0.85726346092E+03  0.85777466245E+03  0.00000000000E+00 0.  1.
</event>
<event>
 4    1  0.6136512E+003  0.4266634E+02  0.7546771E-02  0.1333532E+00
          2   -1    0    0  501    0  0.00000000000E+00  0.00000000000E+00  0.12919137780E+02  0.12919137780E+02  0.00000000000E+00 0. -1.
          2   -1    0    0  502    0 -0.00000000000E+00 -0.00000000000E+00 -0.86338351251E+03  0.86338351251E+03  0.00000000000E+00 0. -1.
          2    1    1    2  501    0 -0.30898718386E+02  0.29422536602E+02 -0.82603768193E+03  0.82713884471E+03  0.00000000000E+00 0. -1.
          2    1    1    2  502    0  0.30898718386E+02 -0.29422536602E+02 -0.24426692800E+02  0.49163805580E+02  0.00000000000E+00 0. -1.
</event>
<event>
 4    1  0.6136512E+003  0.4909708E+02  0.7546771E-02  0.1302135E+00
          2   -1    0    0  502    0  0.00000000000E+00  0.00000000000E+00  0.57192149029E+01  0.57192149029E+01  0.00000000000E+00 0.  1.
          2   -1    0    0  501    0 -0.00000000000E+00 -0.00000000000E+00 -0.23371375550E+04  0.23371375550E+04  0.00000000000E+00 0.  1.
          2    1    1    2  501    0  0.30061614368E+02  0.38817809942E+02 -0.10515519550E+03  0.11605230790E+03  0.00000000000E+00 0.  1.
          2    1    1    2  502    0 -0.30061614368E+02 -0.38817809942E+02 -0.22262631446E+04  0.22268044620E+04  0.00000000000E+00 0.  1.
</event>
<event>
 4    1  0.6136512E+003  0.2357436E+02  0.7546771E-02  0.1485409E+00
          2   -1    0    0  501    0  0.00000000000E+00  0.00000000000E+00  0.46922599796E+02  0.46922599796E+02  0.00000000000E+00 0. -1.
          2   -1    0    0  502    0 -0.00000000000E+00 -0.00000000000E+00 -0.41299194409E+03  0.41299194409E+03  0.00000000000E+00 0.  1.
          2    1    1    2  501    0 -0.10418807683E+02 -0.21147082794E+02 -0.40967054354E+03  0.41034827270E+03  0.00000000000E+00 0.  1.
          2    1    1    2  502    0  0.10418807683E+02  0.21147082794E+02  0.43601199242E+02  0.49566271189E+02  0.00000000000E+00 0. -1.
</event>
<event>
 4    1  0.6136512E+003  0.2718053E+02  0.7546771E-02  0.1445803E+00
          2   -1    0    0  502    0  0.00000000000E+00  0.00000000000E+00  0.29986622432E+02  0.29986622432E+02  0.00000000000E+00 0. -1.
          2   -1    0    0  501    0 -0.00000000000E+00 -0.00000000000E+00 -0.45386695600E+02  0.45386695600E+02  0.00000000000E+00 0.  1.
          2    1    1    2  501    0 -0.18752157087E+02  0.19675820283E+02  0.17781693600E+02  0.32480300592E+02  0.00000000000E+00 0. -1.
          2    1    1    2  502    0  0.18752157087E+02 -0.19675820283E+02 -0.33181766769E+02  0.42893017440E+02  0.00000000000E+00 0.  1.
</event>
<event>
 4    1  0.6136512E+003  0.2536902E+02  0.7546771E-02  0.1464717E+00
          2   -1    0    0  502    0  0.00000000000E+00  0.00000000000E+00  0.16373206542E+04  0.16373206542E+04  0.00000000000E+00 0.  1.
          2   -1    0    0  501    0 -0.00000000000E+00 -0.00000000000E+00 -0.21043883576E+01  0.21043883576E+01  0.00000000000E+00 0. -1.
          2    1    1    2  501    0 -0.94154718735E+01  0.23557081789E+02  0.15568109201E+04  0.15570176069E+04  0.00000000000E+00 0.  1.
          2    1    1    2  502    0  0.94154718735E+01 -0.23557081789E+02  0.78405345763E+02  0.82407435691E+02  0.00000000000E+00 0. -1.
</event>
<event>
 4    1  0.6136512E+003  0.2781883E+02  0.7546771E-02  0.1439552E+00
          2   -1    0    0  502    0  0.00000000000E+00  0.00000000000E+00  0.12622374422E+04  0.12622374422E+04  0.00000000000E+00 0.  1.
          2   -1    0    0  501    0 -0.00000000000E+00 -0.00000000000E+00 -0.15738812254E+01  0.15738812254E+01  0.00000000000E+00 0. -1.
          2    1    1    2  501    0 -0.27759533034E+02 -0.18154477395E+01  0.11240472982E+04  0.11243914870E+04  0.00000000000E+00 0.  1.
          2    1    1    2  502    0  0.27759533034E+02  0.18154477395E+01  0.13661626277E+03  0.13941983638E+03  0.00000000000E+00 0. -1.
</event>
<event>
 4    1  0.7999169E+003  0.5351746E+02  0.7546771E-02  0.1283602E+00
          2   -1    0    0  502    0  0.00000000000E+00  0.00000000000E+00  0.14032261479E+04  0.14032261479E+04  0.00000000000E+00 0.  1.
          2   -1    0    0  501    0 -0.00000000000E+00 -0.00000000000E+00 -0.13536998898E+04  0.13536998898E+04  0.00000000000E+00 0.  1.
          2    1    1    2  501    0 -0.52443132298E+02 -0.10669417151E+02  0.14021865394E+04  0.14032074721E+04  0.00000000000E+00 0.  1.
          2    1    1    2  502    0  0.52443132298E+02  0.10669417151E+02 -0.13526602812E+04  0.13537185656E+04  0.00000000000E+00 0.  1.
</event>
<event>
 4    1  0.6136512E+003  0.2323352E+02  0.7546771E-02  0.1489586E+00
          2   -1    0    0  502    0  0.00000000000E+00  0.00000000000E+00  0.13879772527E+03  0.13879772527E+03  0.00000000000E+00 0.  1.
          2   -1    0    0  501    0 -0.00000000000E+00 -0.00000000000E+00 -0.11895716375E+04  0.11895716375E+04  0.00000000000E+00 0. -1.
          2    1    1    2  501    0 -0.58251708712E+01  0.22491415491E+02  0.13771112132E+03  0.13965725660E+03  0.00000000000E+00 0.  1.
          2    1    1    2  502    0  0.58251708712E+01 -0.22491415491E+02 -0.11884850336E+04  0.11887121062E+04  0.00000000000E+00 0. -1.
</event>
<event>
 4    1  0.6136512E+003  0.2055304E+02  0.7546771E-02  0.1525743E+00
          2   -1    0    0  502    0  0.00000000000E+00  0.00000000000E+00  0.11322272429E+02  0.11322272429E+02  0.00000000000E+00 0.  1.
          2   -1    0    0  501    0 -0.00000000000E+00 -0.00000000000E+00 -0.37767605835E+02  0.37767605835E+02  0.00000000000E+00 0.  1.
          2    1    1    2  501    0  0.12014251179E+02 -0.16675889965E+02 -0.10519218625E+02  0.23088557729E+02  0.00000000000E+00 0.  1.
          2    1    1    2  502    0 -0.12014251179E+02  0.16675889965E+02 -0.15926114781E+02  0.26001320535E+02  0.00000000000E+00 0.  1.
</event>
<event>
 4    1  0.6136512E+003  0.2076940E+02  0.7546771E-02  0.1522583E+00
          2   -1    0    0  502    0  0.00000000000E+00  0.00000000000E+00  0.14475554851E+04  0.14475554851E+04  0.00000000000E+00 0. -1.
          2   -1    0    0  501    0 -0.00000000000E+00 -0.00000000000E+00 -0.24954428280E+01  0.24954428280E+01  0.00000000000E+00 0.  1.
          2    1    1    2  501    0  0.16014680303E+02  0.13224893496E+02  0.14028895871E+04  0.14030433213E+04  0.00000000000E+00 0. -1.
          2    1    1    2  502    0 -0.16014680303E+02 -0.13224893496E+02  0.42170455151E+02  0.47007606627E+02  0.00000000000E+00 0.  1.
</event>
<event>
 4    1  0.6136512E+003  0.3766039E+02  0.7546771E-02  0.1362769E+00
          2   -1    0    0  501    0  0.00000000000E+00  0.00000000000E+00  0.21106563611E+01  0.21106563611E+01  0.00000000000E+00 0. -1.
          2   -1    0    0  502    0 -0.00000000000E+00 -0.00000000000E+00 -0.15438861001E+04  0.15438861001E+04  0.00000000000E+00 0. -1.
          2    1    1    2  501    0  0.21905373100E+02  0.30634286055E+02 -0.13517958660E+04  0.13523203645E+04  0.00000000000E+00 0. -1.
          2    1    1    2  502    0 -0.21905373100E+02 -0.30634286055E+02 -0.18997957771E+03  0.19367639195E+03  0.00000000000E+00 0. -1.
</event>
<event>
 4    1  0.6136512E+003  0.2991032E+02  0.7546771E-02  0.1420377E+00
          2   -1    0    0  502    0  0.00000000000E+00  0.00000000000E+00  0.12058699161E+04  0.12058699161E+04  0.00000000000E+00 0. -1.
          2   -1    0    0  501    0 -0.00000000000E+00 -0.00000000000E+00 -0.19994607939E+03  0.19994607939E+03  0.00000000000E+00 0.  1.
          2    1    1    2  501    0 -0.16253462512E+02 -0.25108808062E+02  0.12045646450E+04  0.12049359366E+04  0.00000000000E+00 0. -1.
          2    1    1    2  502    0  0.16253462512E+02  0.25108808062E+02 -0.19864080837E+03  0.20088005883E+03  0.00000000000E+00 0.  1.
</event>
<event>
 4    1  0.6136512E+003  0.1535621E+03  0.7546771E-02  0.1094021E+00
          2   -1    0    0  502    0  0.00000000000E+00  0.00000000000E+00  0.62998145364E+03  0.62998145364E+03  0.00000000000E+00 0. -1.
          2   -1    0    0  501    0 -0.00000000000E+00 -0.00000000000E+00 -0.66331349727E+02  0.66331349727E+02  0.00000000000E+00 0.  1.
          2    1    1    2  501    0 -0.69959862650E+02  0.13670014515E+03  0.51163077310E+03  0.53417914602E+03  0.00000000000E+00 0. -1.
          2    1    1    2  502    0  0.69959862650E+02 -0.13670014515E+03  0.52019330815E+02  0.16213365734E+03  0.00000000000E+00 0.  1.
</event>
<event>
 4    1  0.6136512E+003  0.2316204E+02  0.7546771E-02  0.1490473E+00
          2   -1    0    0  501    0  0.00000000000E+00  0.00000000000E+00  0.73425808323E+00  0.73425808323E+00  0.00000000000E+00 0.  1.
          2   -1    0    0  502    0 -0.00000000000E+00 -0.00000000000E+00 -0.12205289963E+04  0.12205289963E+04  0.00000000000E+00 0.  1.
          2    1    1    2  501    0 -0.13108288433E+02 -0.19095882895E+02 -0.99675671575E+03  0.99702579222E+03  0.00000000000E+00 0.  1.
          2    1    1    2  502    0  0.13108288433E+02  0.19095882895E+02 -0.22303802244E+03  0.22423746213E+03  0.00000000000E+00 0.  1.
</event>
<event>
 4    1  0.6136512E+003  0.2349454E+02  0.7546771E-02  0.1486380E+00
          2   -1    0    0  502    0  0.00000000000E+00  0.00000000000E+00  0.38765311046E+03  0.38765311046E+03  0.00000000000E+00 0.  1.
          2   -1    0    0  501    0 -0.00000000000E+00 -0.00000000000E+00 -0.27262142155E+02  0.27262142155E+02  0.00000000000E+00 0. -1.
          2    1    1    2  501    0  0.21009970788E+02 -0.10515445013E+02  0.38216256566E+03  0.38288408173E+03  0.00000000000E+00 0.  1.
          2    1    1    2  502    0 -0.21009970788E+02  0.10515445013E+02 -0.21771597355E+02  0.32031170877E+02  0.00000000000E+00 0. -1.
</event>
<event>
 4    1  0.6136512E+003  0.2439012E+02  0.7546771E-02  0.1475743E+00
          2   -1    0    0  501    0  0.00000000000E+00  0.00000000000E+00  0.20520147521E+04  0.20520147521E+04  0.00000000000E+00 0.  1.
          2   -1    0    0  502    0 -0.00000000000E+00 -0.00000000000E+00 -0.29005669328E+00  0.29005669328E+00  0.00000000000E+00 0.  1.
          2    1    1    2  501    0 -0.24377644645E+02  0.77997782569E+00  0.10019692336E+04  0.10022660440E+04  0.00000000000E+00 0.  1.
          2    1    1    2  502    0  0.24377644645E+02 -0.77997782569E+00  0.10497554619E+04  0.10500387648E+04  0.00000000000E+00 0.  1.
</event>
<event>
 4    1  0.6136512E+003  0.2048327E+02  0.7546771E-02  0.1526772E+00
          2   -1    0    0  501    0  0.00000000000E+00  0.00000000000E+00  0.12086186956E+03  0.12086186956E+03  0.00000000000E+00 0.  1.
          2   -1    0    0  502    0 -0.00000000000E+00 -0.00000000000E+00 -0.35969399247E+03  0.35969399247E+03  0.00000000000E+00 0. -1.
          2    1    1    2  501    0  0.13922443351E+02 -0.15024317485E+02 -0.35853170959E+03  0.35911634789E+03  0.00000000000E+00 0. -1.
          2    1    1    2  502    0 -0.13922443351E+02  0.15024317485E+02  0.11969958667E+03  0.12143951414E+03  0.00000000000E+00 0.  1.
</event>
<event>
 4    1  0.6136512E+003  0.2222726E+02  0.7546771E-02  0.1502436E+00
          2   -1    0    0  501    0  0.00000000000E+00  0.00000000000E+00  0.31031275576E+01  0.31031275576E+01  0.00000000000E+00 0.  1.
          2   -1    0    0  502    0 -0.00000000000E+00 -0.00000000000E+00 -0.93787656532E+03  0.93787656532E+03  0.00000000000E+00 0.  1.
          2    1    1    2  501    0  0.84642509780E+01 -0.20552555546E+02 -0.89608622586E+03  0.89636185509E+03  0.00000000000E+00 0.  1.
          2    1    1    2  502    0 -0.84642509780E+01  0.20552555546E+02 -0.38687211904E+02  0.44617837790E+02  0.00000000000E+00 0.  1.
</event>
<event>
 4    1  0.6136512E+003  0.3762105E+02  0.7546771E-02  0.1363020E+00
          2   -1    0    0  502    0  0.00000000000E+00  0.00000000000E+00  0.44960689174E+03  0.44960689174E+03  0.00000000000E+00 0.  1.
          2   -1    0    0  501    0 -0.00000000000E+00 -0.00000000000E+00 -0.11154629810E+02  0.11154629810E+02  0.00000000000E+00 0. -1.
          2    1    1    2  501    0 -0.37620384808E+02  0.22347014149E+00  0.41441033147E+03  0.41611448680E+03  0.00000000000E+00 0.  1.
          2    1    1    2  502    0  0.37620384808E+02 -0.22347014149E+00  0.24041930458E+02  0.44647034752E+02  0.00000000000E+00 0. -1.
</event>
<event>
 4    1  0.6136512E+003  0.3051421E+02  0.7546771E-02  0.1415180E+00
          2   -1    0    0  501    0  0.00000000000E+00  0.00000000000E+00  0.12751978353E+04  0.12751978353E+04  0.00000000000E+00 0.  1.
          2   -1    0    0  502    0 -0.00000000000E+00 -0.00000000000E+00 -0.55279102145E+02  0.55279102145E+02  0.00000000000E+00 0.  1.
          2    1    1    2  501    0  0.26922842866E+02  0.14362359135E+02 -0.50870973311E+02  0.59320930147E+02  0.00000000000E+00 0.  1.
          2    1    1    2  502    0 -0.26922842866E+02 -0.14362359135E+02  0.12707897065E+04  0.12711560073E+04  0.00000000000E+00 0.  1.
</event>
<event>
 4    1  0.6136512E+003  0.2245849E+02  0.7546771E-02  0.1499412E+00
          2   -1    0    0  501    0  0.00000000000E+00  0.00000000000E+00  0.97877674980E+00  0.97877674980E+00  0.00000000000E+00 0.  1.
          2   -1    0    0  502    0 -0.00000000000E+00 -0.00000000000E+00 -0.75849247156E+03  0.75849247156E+03  0.00000000000E+00 0.  1.
          2    1    1    2  501    0 -0.19780630832E+02 -0.10635329798E+02 -0.59376878807E+03  0.59419336691E+03  0.00000000000E+00 0.  1.
          2    1    1    2  502    0  0.19780630832E+02  0.10635329798E+02 -0.16374490674E+03  0.16527788140E+03  0.00000000000E+00 0.  1.
</event>
<event>
 4    1  0.6136512E+003  0.3532531E+02  0.7546771E-02  0.1378291E+00
          2   -1    0    0  502    0  0.00000000000E+00  0.00000000000E+00  0.14203325941E+01  0.14203325941E+01  0.00000000000E+00 0. -1.
          2   -1    0    0  501    0 -0.00000000000E+00 -0.00000000000E+00 -0.88324230708E+03  0.88324230708E+03  0.00000000000E+00 0. -1.
          2    1    1    2  501    0 -0.35179227962E+02 -0.32092885416E+01 -0.47304382521E+03  0.47436097877E+03  0.00000000000E+00 0. -1.
          2    1    1    2  502    0  0.35179227962E+02  0.32092885416E+01 -0.40877814928E+03  0.41030166090E+03  0.00000000000E+00 0. -1.
</event>
<event>
 4    1  0.6136512E+003  0.2135046E+02  0.7546771E-02  0.1514320E+00
          2   -1    0    0  502    0  0.00000000000E+00  0.00000000000E+00  0.88539851987E+03  0.88539851987E+03  0.00000000000E+00 0.  1.
          2   -1    0    0  501    0 -0.00000000000E+00 -0.00000000000E+00 -0.51019037679E+02  0.51019037679E+02  0.00000000000E+00 0. -1.
          2    1    1    2  501    0  0.13341645788E+02  0.16668614031E+02  0.88303013190E+03  0.88328820668E+03  0.00000000000E+00 0.  1.
          2    1    1    2  502    0 -0.13341645788E+02 -0.16668614031E+02 -0.48650649716E+02  0.53129350869E+02  0.00000000000E+00 0. -1.
</event>
<event>
 4    1  0.6136512E+003  0.3343921E+02  0.7546771E-02  0.1391881E+00
          2   -1    0    0  501    0  0.00000000000E+00  0.00000000000E+00  0.27276562344E+02  0.27276562344E+02  0.00000000000E+00 0. -1.
          2   -1    0    0  502    0 -0.00000000000E+00 -0.00000000000E+00 -0.15572677102E+04  0.15572677102E+04  0.00000000000E+00 0.  1.
          2    1    1    2  501    0  0.34940162028E+01 -0.33256162700E+02 -0.15467701068E+04  0.15471315211E+04  0.00000000000E+00 0.  1.
          2    1    1    2  502    0 -0.34940162028E+01  0.33256162700E+02  0.16778958901E+02  0.37412751417E+02  0.00000000000E+00 0. -1.
</event>
<event>
 4    1  0.6136512E+003  0.2622031E+02  0.7546771E-02  0.1455601E+00
          2   -1    0    0  501    0  0.00000000000E+00  0.00000000000E+00  0.11868305895E+04  0.11868305895E+04  0.00000000000E+00 0.  1.
          2   -1    0    0  502    0 -0.00000000000E+00 -0.00000000000E+00 -0.11550504021E+01  0.11550504021E+01  0.00000000000E+00 0.  1.
          2    1    1    2  501    0 -0.13880714238E+02 -0.22244784647E+02  0.17345922661E+03  0.17542978073E+03  0.00000000000E+00 0.  1.
          2    1    1    2  502    0  0.13880714238E+02  0.22244784647E+02  0.10122163125E+04  0.10125558591E+04  0.00000000000E+00 0.  1.
</event>
<event>
 4    1  0.6136512E+003  0.2753042E+02  0.7546771E-02  0.1442351E+00
          2   -1    0    0  502    0  0.00000000000E+00  0.00000000000E+00  0.10356814942E+04  0.10356814942E+04  0.00000000000E+00 0.  1.
          2   -1    0    0  501    0 -0.00000000000E+00 -0.00000000000E+00 -0.14475532619E+01  0.14475532619E+01  0.00000000000E+00 0. -1.
          2    1    1    2  501    0 -0.29157212626E+01 -0.27375586515E+02  0.88175633168E+03  0.88218600795E+03  0.00000000000E+00 0.  1.
          2    1    1    2  502    0  0.29157212626E+01  0.27375586515E+02  0.15247760923E+03  0.15494303948E+03  0.00000000000E+00 0. -1.
</event>
<event>
 4    1  0.6136512E+003  0.2855582E+02  0.7546771E-02  0.1432576E+00
          2   -1    0    0  501    0  0.00000000000E+00  0.00000000000E+00  0.11588920461E+03  0.11588920461E+03  0.00000000000E+00 0.  1.
          2   -1    0    0  502    0 -0.00000000000E+00 -0.00000000000E+00 -0.26167978004E+03  0.26167978004E+03  0.00000000000E+00 0. -1.
          2    1    1    2  501    0  0.27360435042E+02 -0.81756769170E+01 -0.25912436230E+03  0.26069305751E+03  0.00000000000E+00 0. -1.
          2    1    1    2  502    0 -0.27360435042E+02  0.81756769170E+01  0.11333378687E+03  0.11687592714E+03  0.00000000000E+00 0.  1.
</event>
<event>
 4    1  0.6136512E+003  0.3762347E+02  0.7546771E-02  0.1363005E+00
          2   -1    0    0  502    0  0.00000000000E+00  0.00000000000E+00  0.51008134471E+01  0.51008134471E+01  0.00000000000E+00 0. -1.
          2   -1    0    0  501    0 -0.00000000000E+00 -0.00000000000E+00 -0.32390473243E+03  0.32390473243E+03  0.00000000000E+00 0.  1.
          2    1    1    2  501    0 -0.36856769563E+02  0.75567179901E+01 -0.97143252408E+02  0.10417455034E+03  0.00000000000E+00 0. -1.
          2    1    1    2  502    0  0.36856769563E+02 -0.75567179901E+01 -0.22166066657E+03  0.22483099554E+03  0.00000000000E+00 0.  1.
</event>
<event>
 4    1  0.6136512E+003  0.2345070E+02  0.7546771E-02  0.1486915E+00
          2   -1    0    0  501    0  0.00000000000E+00  0.00000000000E+00  0.12804245111E+04  0.12804245111E+04  0.00000000000E+00 0. -1.
          2   -1    0    0  502    0 -0.00000000000E+00 -0.00000000000E+00 -0.44359929190E+01  0.44359929190E+01  0.00000000000E+00 0. -1.
          2    1    1    2  501    0 -0.14554383782E+01 -0.23405490084E+02  0.27455766390E+02  0.36107539033E+02  0.00000000000E+00 0. -1.
          2    1    1    2  502    0  0.14554383782E+01  0.23405490084E+02  0.12485327518E+04  0.12487529650E+04  0.00000000000E+00 0. -1.
</event>
<event>
 4    1  0.6136512E+003  0.2096113E+02  0.7546771E-02  0.1519820E+00
          2   -1    0    0  501    0  0.00000000000E+00  0.00000000000E+00  0.11153389118E+04  0.11153389118E+04  0.00000000000E+00 0.  1.
          2   -1    0    0  502    0 -0.00000000000E+00 -0.00000000000E+00 -0.31264684805E+02  0.31264684805E+02  0.00000000000E+00 0. -1.
          2    1    1    2  501    0 -0.76468677036E+01 -0.19516513816E+02 -0.27641451998E+02  0.34690326689E+02  0.00000000000E+00 0. -1.
          2    1    1    2  502    0  0.76468677036E+01  0.19516513816E+02  0.11117156789E+04  0.11119132699E+04  0.00000000000E+00 0.  1.
</event>
<event>
 4    1  0.6136512E+003  0.3164635E+02  0.7546771E-02  0.1405809E+00
          2   -1    0    0  501    0  0.00000000000E+00  0.00000000000E+00  0.12197208778E+01  0.12197208778E+01  0.00000000000E+00 0. -1.
          2   -1    0    0  502    0 -0.00000000000E+00 -0.00000000000E+00 -0.14928248406E+04  0.14928248406E+04  0.00000000000E+00 0. -1.
          2    1    1    2  501    0 -0.22498626806E+02 -0.22255404565E+02 -0.12469096534E+04  0.12473111781E+04  0.00000000000E+00 0. -1.
          2    1    1    2  502    0  0.22498626806E+02  0.22255404565E+02 -0.24469546634E+03  0.24673338341E+03  0.00000000000E+00 0. -1.
</event>
<event>
 4    1  0.6136512E+003  0.2432953E+02  0.7546771E-02  0.1476445E+00
          2   -1    0    0  501    0  0.00000000000E+00  0.00000000000E+00  0.45966607419E+02  0.45966607419E+02  0.00000000000E+00 0.  1.
          2   -1    0    0  502    0 -0.00000000000E+00 -0.00000000000E+00 -0.18662462784E+03  0.18662462784E+03  0.00000000000E+00 0.  1.
          2    1    1    2  501    0 -0.77881446431E+01  0.23049318160E+02 -0.18254065452E+03  0.18415487182E+03  0.00000000000E+00 0.  1.
          2    1    1    2  502    0  0.77881446431E+01 -0.23049318160E+02  0.41882634093E+02  0.48436363439E+02  0.00000000000E+00 0.  1.
</event>
<event>
 4    1  0.6136512E+003  0.2429448E+02  0.7546771E-02  0.1476853E+00
          2   -1    0    0  502    0  0.00000000000E+00  0.00000000000E+00  0.96825301192E+01  0.96825301192E+01  0.00000000000E+00 0. -1.
          2   -1    0    0  501    0 -0.00000000000E+00 -0.00000000000E+00 -0.41510143918E+03  0.41510143918E+03  0.00000000000E+00 0. -1.
          2    1    1    2  501    0 -0.46301892848E+01 -0.23849177031E+02 -0.65311533526E+01  0.25157063859E+02  0.00000000000E+00 0. -1.
          2    1    1    2  502    0  0.46301892848E+01  0.23849177031E+02 -0.39888775571E+03  0.39962690544E+03  0.00000000000E+00 0. -1.
</event>
<event>
 4    1  0.6136512E+003  0.3443355E+02  0.7546771E-02  0.1384590E+00
          2   -1    0    0  501    0  0.00000000000E+00  0.00000000000E+00  0.40938972719E+03  0.40938972719E+03  0.00000000000E+00 0. -1.
          2   -1    0    0  502    0 -0.00000000000E+00 -0.00000000000E+00 -0.29839322815E+01  0.29839322815E+01  0.00000000000E+00 0.  1.
          2    1    1    2  501    0  0.24483005992E+02 -0.24212634889E+02  0.23856010302E+03  0.24103234643E+03  0.00000000000E+00 0. -1.
          2    1    1    2  502    0 -0.24483005992E+02  0.24212634889E+02  0.16784569189E+03  0.17134131304E+03  0.00000000000E+00 0.  1.
</event>
<event>
 4    1  0.6136512E+003  0.2426863E+02  0.7546771E-02  0.1477154E+00
          2   -1    0    0  501    0  0.00000000000E+00  0.00000000000E+00  0.11670151992E+04  0.11670151992E+04  0.00000000000E+00 0.  1.
          2   -1    0    0  502    0 -0.00000000000E+00 -0.00000000000E+00 -0.55812179646E+01  0.55812179646E+01  0.00000000000E+00 0.  1.
          2    1    1    2  501    0  0.16849698384E+02 -0.17465798940E+02  0.21554544701E+02  0.32458663951E+02  0.00000000000E+00 0.  1.
          2    1    1    2  502    0 -0.16849698384E+02  0.17465798940E+02  0.11398794365E+04  0.11401377532E+04  0.00000000000E+00 0.  1.
</event>
<event>
 4    1  0.6136512E+003  0.3028586E+02  0.7546771E-02  0.1417128E+00
          2   -1    0    0  502    0  0.00000000000E+00  0.00000000000E+00  0.19518447449E+02  0.19518447449E+02  0.00000000000E+00 0.  1.
          2   -1    0    0  501    0 -0.00000000000E+00 -0.00000000000E+00 -0.70479185343E+02  0.70479185343E+02  0.00000000000E+00 0.  1.
          2    1    1    2  501    0 -0.18262538987E+02 -0.24160154808E+02  0.49582206925E+00  0.30289919942E+02  0.00000000000E+00 0.  1.
          2    1    1    2  502    0  0.18262538987E+02  0.24160154808E+02 -0.51456559963E+02  0.59707712850E+02  0.00000000000E+00 0.  1.
</event>
<event>
 4    1  0.6136512E+003  0.2047893E+02  0.7546771E-02  0.1526836E+00
          2   -1    0    0  502    0  0.00000000000E+00  0.00000000000E+00  0.33583902335E+01  0.33583902335E+01  0.00000000000E+00 0. -1.
          2   -1    0    0  501    0 -0.00000000000E+00 -0.00000000000E+00 -0.44656121822E+03  0.44656121822E+03  0.00000000000E+00 0.  1.
          2    1    1    2  501    0  0.13909484281E+02  0.15030396913E+02 -0.30669237768E+02  0.36878025023E+02  0.00000000000E+00 0. -1.
          2    1    1    2  502    0 -0.13909484281E+02 -0.15030396913E+02 -0.41253359022E+03  0.41304158343E+03  0.00000000000E+00 0.  1.
</event>
<event>
 4    1  0.1078369E+004  0.2291367E+02  0.7546771E-02  0.1493585E+00
          2   -1    0    0  501    0  0.00000000000E+00  0.00000000000E+00  0.10921708917E+04  0.10921708917E+04  0.00000000000E+00 0. -1.
          2   -1    0    0  502    0 -0.00000000000E+00 -0.00000000000E+00 -0.61050703782E+03  0.61050703782E+03  0.00000000000E+00 0.  1.
          2    1    1    2  501    0 -0.19332984417E+02  0.12299275753E+02 -0.61017178979E+03  0.61060187481E+03  0.00000000000E+00 0.  1.
          2    1    1    2  502    0  0.19332984417E+02 -0.12299275753E+02  0.10918356436E+04  0.10920760547E+04  0.00000000000E+00 0. -1.
</event>
<event>
 4    1  0.6136512E+003  0.2224655E+02  0.7546771E-02  0.1502182E+00
          2   -1    0    0  502    0  0.00000000000E+00  0.00000000000E+00  0.17000125201E+03  0.17000125201E+03  0.00000000000E+00 0. -1.
          2   -1    0    0  501    0 -0.00000000000E+00 -0.00000000000E+00 -0.26832617954E+03  0.26832617954E+03  0.00000000000E+00 0. -1.
          2    1    1    2  501    0 -0.18331757920E+02  0.12603794972E+02  0.16880910000E+03  0.17026867369E+03  0.00000000000E+00 0. -1.
          2    1    1    2  502    0  0.18331757920E+02 -0.12603794972E+02 -0.26713402754E+03  0.26805875786E+03  0.00000000000E+00 0. -1.
</event>
<event>
 4    1  0.6136512E+003  0.2522250E+02  0.7546771E-02  0.1466330E+00
          2   -1    0    0  502    0  0.00000000000E+00  0.00000000000E+00  0.21142298898E+03  0.21142298898E+03  0.00000000000E+00 0. -1.
          2   -1    0    0  501    0 -0.00000000000E+00 -0.00000000000E+00 -0.10155324533E+02  0.10155324533E+02  0.00000000000E+00 0. -1.
          2    1    1    2  501    0 -0.13446775226E+02  0.21339132634E+02  0.19357141042E+03  0.19520774902E+03  0.00000000000E+00 0. -1.
          2    1    1    2  502    0  0.13446775226E+02 -0.21339132634E+02  0.76962540268E+01  0.26370564492E+02  0.00000000000E+00 0. -1.
</event>
<event>
 4    1  0.6136512E+003  0.2408882E+02  0.7546771E-02  0.1479260E+00
          2   -1    0    0  502    0  0.00000000000E+00  0.00000000000E+00  0.10972863207E+04  0.10972863207E+04  0.00000000000E+00 0. -1.
          2   -1    0    0  501    0 -0.00000000000E+00 -0.00000000000E+00 -0.26043611413E+02  0.26043611413E+02  0.00000000000E+00 0. -1.
          2    1    1    2  501    0 -0.40757412551E+01 -0.23741518291E+02  0.10915546807E+04  0.10918204488E+04  0.00000000000E+00 0. -1.
          2    1    1    2  502    0  0.40757412551E+01  0.23741518291E+02 -0.20311971427E+02  0.31509483347E+02  0.00000000000E+00 0. -1.
</event>
<event>
 4    1  0.6136512E+003  0.6510207E+02  0.7546771E-02  0.1243418E+00
          2   -1    0    0  502    0  0.00000000000E+00  0.00000000000E+00  0.48736917167E+03  0.48736917167E+03  0.00000000000E+00 0.  1.
          2   -1    0    0  501    0 -0.00000000000E+00 -0.00000000000E+00 -0.10428140372E+04  0.10428140372E+04  0.00000000000E+00 0. -1.
          2    1    1    2  501    0  0.23357372995E+02 -0.60767697987E+02  0.48417236462E+03  0.48852958831E+03  0.00000000000E+00 0.  1.
          2    1    1    2  502    0 -0.23357372995E+02  0.60767697987E+02 -0.10396172301E+04  0.10416536205E+04  0.00000000000E+00 0. -1.
</event>
<event>
 4    1  0.6136512E+003  0.3124979E+02  0.7546771E-02  0.1409038E+00
          2   -1    0    0  501    0  0.00000000000E+00  0.00000000000E+00  0.23742933977E+02  0.23742933977E+02  0.00000000000E+00 0. -1.
          2   -1    0    0  502    0 -0.00000000000E+00 -0.00000000000E+00 -0.19096291279E+03  0.19096291279E+03  0.00000000000E+00 0.  1.
          2    1    1    2  501    0  0.10688562893E+02 -0.29365014849E+02 -0.17870173346E+03  0.18141350285E+03  0.00000000000E+00 0.  1.
          2    1    1    2  502    0 -0.10688562893E+02  0.29365014849E+02  0.11481754648E+02  0.33292343919E+02  0.00000000000E+00 0. -1.
</event>
<event>
 4    1  0.6136512E+003  0.3636538E+02  0.7546771E-02  0.1371210E+00
          2   -1    0    0  502    0  0.00000000000E+00  0.00000000000E+00  0.10455747463E+04  0.10455747463E+04  0.00000000000E+00 0. -1.
          2   -1    0    0  501    0 -0.00000000000E+00 -0.00000000000E+00 -0.12150753669E+02  0.12150753669E+02  0.00000000000E+00 0.  1.
          2    1    1    2  501    0  0.34806950628E+02 -0.10531708428E+02  0.10172933338E+04  0.10179431063E+04  0.00000000000E+00 0. -1.
          2    1    1    2  502    0 -0.34806950628E+02  0.10531708428E+02  0.16130658910E+02  0.39782393735E+02  0.00000000000E+00 0.  1.
</event>
<event>
 4    1  0.6136512E+003  0.2834729E+02  0.7546771E-02  0.1434524E+00
          2   -1    0    0  502    0  0.00000000000E+00  0.00000000000E+00  0.19463980810E+02  0.19463980810E+02  0.00000000000E+00 0.  1.
          2   -1    0    0  501    0 -0.00000000000E+00 -0.00000000000E+00 -0.12707036229E+04  0.12707036229E+04  0.00000000000E+00 0.  1.
          2    1    1    2  501    0  0.16861525756E+02 -0.22787233642E+02  0.88981239106E+01  0.29711036283E+02  0.00000000000E+00 0.  1.
          2    1    1    2  502    0 -0.16861525756E+02  0.22787233642E+02 -0.12601377660E+04  0.12604565674E+04  0.00000000000E+00 0.  1.
</event>
<event>
 4    1  0.6136512E+003  0.3002109E+02  0.7546771E-02  0.1419413E+00
          2   -1    0    0  501    0  0.00000000000E+00  0.00000000000E+00  0.15141295970E+04  0.15141295970E+04  0.00000000000E+00 0. -1.
          2   -1    0    0  502    0 -0.00000000000E+00 -0.00000000000E+00 -0.43997881971E+01  0.43997881971E+01  0.00000000000E+00 0. -1.
          2    1    1    2  501    0  0.35902309757E+01 -0.29805634145E+02  0.48825321024E+02  0.57316468474E+02  0.00000000000E+00 0. -1.
          2    1    1    2  502    0 -0.35902309757E+01  0.29805634145E+02  0.14609044878E+04  0.14612129167E+04  0.00000000000E+00 0. -1.
</event>
<event>
 4    1  0.6136512E+003  0.3010850E+02  0.7546771E-02  0.1418656E+00
          2   -1    0    0  501    0  0.00000000000E+00  0.00000000000E+00  0.15142273106E+04  0.15142273106E+04  0.00000000000E+00 0.  1.
          2   -1    0    0  502    0 -0.00000000000E+00 -0.00000000000E+00 -0.52722907293E+01  0.52722907293E+01  0.00000000000E+00 0.  1.
          2    1    1    2  501    0  0.16018793511E+01 -0.30065854166E+02  0.39161938911E+02  0.49398168624E+02  0.00000000000E+00 0.  1.
          2    1    1    2  502    0 -0.16018793511E+01  0.30065854166E+02  0.14697930809E+04  0.14701014327E+04  0.00000000000E+00 0.  1.
</event>
<event>
 4    1  0.6136512E+003  0.2976182E+02  0.7546771E-02  0.1421678E+00
          2   -1    0    0  501    0  0.00000000000E+00  0.00000000000E+00  0.75838411728E+03  0.75838411728E+03  0.00000000000E+00 0.  1.
          2   -1    0    0  502    0 -0.00000000000E+00 -0.00000000000E+00 -0.16127162389E+01  0.16127162389E+01  0.00000000000E+00 0. -1.
          2    1    1    2  501    0 -0.23208288500E+01 -0.29671191210E+02  0.17883118222E+03  0.18129080939E+03  0.00000000000E+00 0. -1.
          2    1    1    2  502    0  0.23208288500E+01  0.29671191210E+02  0.57794021882E+03  0.57870602413E+03  0.00000000000E+00 0.  1.
</event>
<event>
 4    1  0.6136512E+003  0.2053394E+02  0.7546771E-02  0.1526024E+00
          2   -1    0    0  502    0  0.00000000000E+00  0.00000000000E+00  0.66170085273E+03  0.66170085273E+03  0.00000000000E+00 0.  1.
          2   -1    0    0  501    0 -0.00000000000E+00 -0.00000000000E+00 -0.37821904150E+01  0.37821904150E+01  0.00000000000E+00 0.  1.
          2    1    1    2  501    0 -0.26373799214E+01  0.20363867120E+02  0.63237934819E+03  0.63271263846E+03  0.00000000000E+00 0.  1.
          2    1    1    2  502    0  0.26373799214E+01 -0.20363867120E+02  0.25539314128E+02  0.32770404682E+02  0.00000000000E+00 0.  1.
</event>
<event>
 4    1  0.6136512E+003  0.2328276E+02  0.7546771E-02  0.1488978E+00
          2   -1    0    0  502    0  0.00000000000E+00  0.00000000000E+00  0.10361505137E+03  0.10361505137E+03  0.00000000000E+00 0. -1.
          2   -1    0    0  501    0 -0.00000000000E+00 -0.00000000000E+00 -0.74550535759E+01  0.74550535759E+01  0.00000000000E+00 0. -1.
          2    1    1    2  501    0  0.14885171129E+02  0.17903032622E+02  0.78407893900E+02  0.81791715488E+02  0.00000000000E+00 0. -1.
          2    1    1    2  502    0 -0.14885171129E+02 -0.17903032622E+02  0.17752103896E+02  0.29278389460E+02  0.00000000000E+00 0. -1.
</event>
<event>
 4    1  0.6136512E+003  0.3279132E+02  0.7546771E-02  0.1396793E+00
          2   -1    0    0  501    0  0.00000000000E+00  0.00000000000E+00  0.21992793694E+01  0.21992793694E+01  0.00000000000E+00 0.  1.
          2   -1    0    0  502    0 -0.00000000000E+00 -0.00000000000E+00 -0.23561558749E+04  0.23561558749E+04  0.00000000000E+00 0. -1.
          2    1    1    2  501    0  0.32749472421E+02 -0.16561854201E+01 -0.22267064279E+04  0.22269478636E+04  0.00000000000E+00 0. -1.
          2    1    1    2  502    0 -0.32749472421E+02  0.16561854201E+01 -0.12725016767E+03  0.13140729076E+03  0.00000000000E+00 0.  1.
</event>
<event>
 4    1  0.6136512E+003  0.2103305E+02  0.7546771E-02  0.1518793E+00
          2   -1    0    0  502    0  0.00000000000E+00  0.00000000000E+00  0.63501497503E+03  0.63501497503E+03  0.00000000000E+00 0. -1.
          2   -1    0    0  501    0 -0.00000000000E+00 -0.00000000000E+00 -0.23755072023E+01  0.23755072023E+01  0.00000000000E+00 0.  1.
          2    1    1    2  501    0 -0.10625416277E+02  0.18151852136E+02  0.58423845083E+03  0.58461693153E+03  0.00000000000E+00 0. -1.
          2    1    1    2  502    0  0.10625416277E+02 -0.18151852136E+02  0.48401017003E+02  0.52773550705E+02  0.00000000000E+00 0.  1.
</event>
<event>
 4    1  0.6136512E+003  0.2803966E+02  0.7546771E-02  0.1437435E+00
          2   -1    0    0  502    0  0.00000000000E+00  0.00000000000E+00  0.15457558540E+03  0.15457558540E+03  0.00000000000E+00 0.  1.
          2   -1    0    0  501    0 -0.00000000000E+00 -0.00000000000E+00 -0.33629452648E+03  0.33629452648E+03  0.00000000000E+00 0.  1.
          2    1    1    2  501    0 -0.27501183394E+02  0.54687588834E+01  0.15271245674E+03  0.15526531118E+03  0.00000000000E+00 0.  1.
          2    1    1    2  502    0  0.27501183394E+02 -0.54687588834E+01 -0.33443139782E+03  0.33560480071E+03  0.00000000000E+00 0.  1.
</event>
<event>
 4    1  0.6136512E+003  0.2239164E+02  0.7546771E-02  0.1500282E+00
          2   -1    0    0  501    0  0.00000000000E+00  0.00000000000E+00  0.44156472825E+00  0.44156472825E+00  0.00000000000E+00 0.  1.
          2   -1    0    0  502    0 -0.00000000000E+00 -0.00000000000E+00 -0.19988255731E+04  0.19988255731E+04  0.00000000000E+00 0.  1.
          2    1    1    2  501    0  0.20871494340E+02 -0.81096529583E+01 -0.16561641439E+04  0.16563155066E+04  0.00000000000E+00 0.  1.
          2    1    1    2  502    0 -0.20871494340E+02  0.81096529583E+01 -0.34221986441E+03  0.34295163120E+03  0.00000000000E+00 0.  1.
</event>
<event>
 4    1  0.6136512E+003  0.2202861E+02  0.7546771E-02  0.1505070E+00
          2   -1    0    0  502    0  0.00000000000E+00  0.00000000000E+00  0.92743429328E+03  0.92743429328E+03  0.00000000000E+00 0. -1.
          2   -1    0    0  501    0 -0.00000000000E+00 -0.00000000000E+00 -0.56191659511E+01  0.56191659511E+01  0.00000000000E+00 0.  1.
          2    1    1    2  501    0  0.96643021392E+01 -0.19795482618E+02  0.90518336145E+03  0.90545136684E+03  0.00000000000E+00 0. -1.
          2    1    1    2  502    0 -0.96643021392E+01  0.19795482618E+02  0.16631765873E+02  0.27602092384E+02  0.00000000000E+00 0.  1.
</event>
<event>
 4    1  0.6136512E+003  0.2843018E+02  0.7546771E-02  0.1433747E+00
          2   -1    0    0  501    0  0.00000000000E+00  0.00000000000E+00  0.26749434768E+01  0.26749434768E+01  0.00000000000E+00 0.  1.
          2   -1    0    0  502    0 -0.00000000000E+00 -0.00000000000E+00 -0.49072620335E+03  0.49072620335E+03  0.00000000000E+00 0. -1.
          2    1    1    2  501    0 -0.26442464681E+02  0.10443712559E+02 -0.39694988430E+03  0.39796668920E+03  0.00000000000E+00 0. -1.
          2    1    1    2  502    0  0.26442464681E+02 -0.10443712559E+02 -0.91101375572E+02  0.95434457622E+02  0.00000000000E+00 0.  1.
</event>
<event>
 4    1  0.6136512E+003  0.2099309E+02  0.7546771E-02  0.1519363E+00
          2   -1    0    0  501    0  0.00000000000E+00  0.00000000000E+00  0.11294711640E+04  0.11294711640E+04  0.00000000000E+00 0. -1.
          2   -1    0    0  502    0 -0.00000000000E+00 -0.00000000000E+00 -0.93012080010E+00  0.93012080010E+00  0.00000000000E+00 0.  1.
          2    1    1    2  501    0  0.11111345607E+02 -0.17811450376E+02  0.13364326327E+03  0.13528204457E+03  0.00000000000E+00 0.  1.
          2    1    1    2  502    0 -0.11111345607E+02  0.17811450376E+02  0.99489777988E+03  0.99511924018E+03  0.00000000000E+00 0. -1.
</event>
<event>
 4    1  0.6136512E+003  0.2935476E+02  0.7546771E-02  0.1425288E+00
          2   -1    0    0  502    0  0.00000000000E+00  0.00000000000E+00  0.11548311943E+02  0.11548311943E+02  0.00000000000E+00 0.  1.
          2   -1    0    0  501    0 -0.00000000000E+00 -0.00000000000E+00 -0.27634881905E+03  0.27634881905E+03  0.00000000000E+00 0. -1.
          2    1    1    2  501    0  0.50535592513E+01  0.28916493660E+02 -0.94114487554E+01  0.30826570266E+02  0.00000000000E+00 0.  1.
          2    1    1    2  502    0 -0.50535592513E+01 -0.28916493660E+02 -0.25538905835E+03  0.25707056072E+03  0.00000000000E+00 0. -1.
</event>
<event>
 4    1  0.6136512E+003  0.2543025E+02  0.7546771E-02  0.1464047E+00
          2   -1    0    0  502    0  0.00000000000E+00  0.00000000000E+00  0.24027477282E+01  0.24027477282E+01  0.00000000000E+00 0.  1.
          2   -1    0    0  501    0 -0.00000000000E+00 -0.00000000000E+00 -0.83804790860E+03  0.83804790860E+03  0.00000000000E+00 0. -1.
          2    1    1    2  501    0  0.78052288517E+01 -0.24202812364E+02 -0.71592130130E+02  0.75974540606E+02  0.00000000000E+00 0.  1.
          2    1    1    2  502    0 -0.78052288517E+01  0.24202812364E+02 -0.76405303074E+03  0.76447611572E+03  0.00000000000E+00 0. -1.
</event>
<event>
 4    1  0.6136512E+003  0.2051085E+02  0.7546771E-02  0.1526365E+00
          2   -1    0    0  501    0  0.00000000000E+00  0.00000000000E+00  0.37206024353E+01  0.37206024353E+01  0.00000000000E+00 0.  1.
          2   -1    0    0  502    0 -0.00000000000E+00 -0.00000000000E+00 -0.29938779328E+03  0.29938779328E+03  0.00000000000E+00 0. -1.
          2    1    1    2  501    0 -0.13458381952E+02  0.15477945911E+02 -0.26739089758E+03  0.26817641015E+03  0.00000000000E+00 0. -1.
          2    1    1    2  502    0  0.13458381952E+02 -0.15477945911E+02 -0.28276293261E+02  0.34931985558E+02  0.00000000000E+00 0.  1.
</event>
<event>
 4    1  0.6136512E+003  0.2126804E+02  0.7546771E-02  0.1515472E+00
          2   -1    0    0  502    0  0.00000000000E+00  0.00000000000E+00  0.10010754311E+04  0.10010754311E+04  0.00000000000E+00 0.  1.
          2   -1    0    0  501    0 -0.00000000000E+00 -0.00000000000E+00 -0.37196095166E+03  0.37196095166E+03  0.00000000000E+00 0. -1.
          2    1    1    2  501    0  0.21015163280E+02 -0.32699566456E+01  0.10006583265E+04  0.10008843171E+04  0.00000000000E+00 0.  1.
          2    1    1    2  502    0 -0.21015163280E+02  0.32699566456E+01 -0.37154384707E+03  0.37215206570E+03  0.00000000000E+00 0. -1.
</event>
<event>
 4    1  0.6136512E+003  0.2151418E+02  0.7546771E-02  0.1512049E+00
          2   -1    0    0  502    0  0.00000000000E+00  0.00000000000E+00  0.29527227825E+03  0.29527227825E+03  0.00000000000E+00 0. -1.
          2   -1    0    0  501    0 -0.00000000000E+00 -0.00000000000E+00 -0.75487916585E+01  0.75487916585E+01  0.00000000000E+00 0. -1.
          2    1    1    2  501    0 -0.38886440923E+00 -0.21510662220E+02  0.27863767495E+03  0.27946701720E+03  0.00000000000E+00 0. -1.
          2    1    1    2  502    0  0.38886440923E+00  0.21510662220E+02  0.90858116504E+01  0.23354052711E+02  0.00000000000E+00 0. -1.
</event>
<event>
 4    1  0.6136512E+003  0.3048927E+02  0.7546771E-02  0.1415391E+00
          2   -1    0    0  502    0  0.00000000000E+00  0.00000000000E+00  0.11146025415E+04  0.11146025415E+04  0.00000000000E+00 0.  1.
          2   -1    0    0  501    0 -0.00000000000E+00 -0.00000000000E+00 -0.96573374978E+01  0.96573374978E+01  0.00000000000E+00 0.  1.
          2    1    1    2  501    0 -0.19416634557E+02  0.23507234095E+02  0.10897815554E+04  0.10902079776E+04  0.00000000000E+00 0.  1.
          2    1    1    2  502    0  0.19416634557E+02 -0.23507234095E+02  0.15163648517E+02  0.34051901395E+02  0.00000000000E+00 0.  1.
</event>
<event>
 4    1  0.6136512E+003  0.2220753E+02  0.7546771E-02  0.1502696E+00
          2   -1    0    0  502    0  0.00000000000E+00  0.00000000000E+00  0.39486954111E+01  0.39486954111E+01  0.00000000000E+00 0. -1.
          2   -1    0    0  501    0 -0.00000000000E+00 -0.00000000000E+00 -0.32772728227E+03  0.32772728227E+03  0.00000000000E+00 0. -1.
          2    1    1    2  501    0  0.19783520777E+02  0.10088929038E+02 -0.31423771591E+02  0.38478924160E+02  0.00000000000E+00 0. -1.
          2    1    1    2  502    0 -0.19783520777E+02 -0.10088929038E+02 -0.29235481527E+03  0.29319705352E+03  0.00000000000E+00 0. -1.
</event>
<event>
 4    1  0.6136512E+003  0.2773805E+02  0.7546771E-02  0.1440332E+00
          2   -1    0    0  502    0  0.00000000000E+00  0.00000000000E+00  0.15943926431E+03  0.15943926431E+03  0.00000000000E+00 0. -1.
          2   -1    0    0  501    0 -0.00000000000E+00 -0.00000000000E+00 -0.33840286587E+02  0.33840286587E+02  0.00000000000E+00 0.  1.
          2    1    1    2  501    0 -0.27134512722E+02 -0.57547933515E+01  0.15228390333E+03  0.15478949138E+03  0.00000000000E+00 0. -1.
          2    1    1    2  502    0  0.27134512722E+02  0.57547933515E+01 -0.26684925608E+02  0.38490059520E+02  0.00000000000E+00 0.  1.
</event>
<event>
 4    1  0.6136512E+003  0.2669709E+02  0.7546771E-02  0.1450675E+00
          2   -1    0    0  502    0  0.00000000000E+00  0.00000000000E+00  0.15528833379E+04  0.15528833379E+04  0.00000000000E+00 0.  1.
          2   -1    0    0  501    0 -0.00000000000E+00 -0.00000000000E+00 -0.94553685480E+00  0.94553685480E+00  0.00000000000E+00 0.  1.
          2    1    1    2  501    0 -0.36888894208E+01 -0.26441006964E+02  0.13332867528E+04  0.13335540109E+04  0.00000000000E+00 0.  1.
          2    1    1    2  502    0  0.36888894208E+01  0.26441006964E+02  0.21865104828E+03  0.22027486391E+03  0.00000000000E+00 0.  1.
</event>
<event>
 4    1  0.6136512E+003  0.2490598E+02  0.7546771E-02  0.1469858E+00
          2   -1    0    0  502    0  0.00000000000E+00  0.00000000000E+00  0.27139558360E+02  0.27139558360E+02  0.00000000000E+00 0.  1.
          2   -1    0    0  501    0 -0.00000000000E+00 -0.00000000000E+00 -0.53863176635E+03  0.53863176635E+03  0.00000000000E+00 0. -1.
          2    1    1    2  501    0 -0.17024368211E+02 -0.18179070593E+02  0.21072534874E+02  0.32624522166E+02  0.00000000000E+00 0.  1.
          2    1    1    2  502    0  0.17024368211E+02  0.18179070593E+02 -0.53256474286E+03  0.53314680254E+03  0.00000000000E+00 0. -1.
</event>
<event>
 4    1  0.6136512E+003  0.2868273E+02  0.7546771E-02  0.1431400E+00
          2   -1    0    0  502    0  0.00000000000E+00  0.00000000000E+00  0.93163790203E+01  0.93163790203E+01  0.00000000000E+00 0. -1.
          2   -1    0    0  501    0 -0.00000000000E+00 -0.00000000000E+00 -0.17608515134E+04  0.17608515134E+04  0.00000000000E+00 0.  1.
          2    1    1    2  501    0  0.24962302890E+02 -0.14127358780E+02 -0.13162558613E+02  0.31558703727E+02  0.00000000000E+00 0. -1.
          2    1    1    2  502    0 -0.24962302890E+02  0.14127358780E+02 -0.17383725758E+04  0.17386091887E+04  0.00000000000E+00 0.  1.
</event>
<event>
 4    1  0.6136512E+003  0.2296895E+02  0.7546771E-02  0.1492888E+00
          2   -1    0    0  502    0  0.00000000000E+00  0.00000000000E+00  0.45155127172E+03  0.45155127172E+03  0.00000000000E+00 0. -1.
          2   -1    0    0  501    0 -0.00000000000E+00 -0.00000000000E+00 -0.75790210419E+01  0.75790210419E+01  0.00000000000E+00 0.  1.
          2    1    1    2  501    0  0.35656730917E+00  0.22966177291E+02  0.43311661425E+03  0.43372522866E+03  0.00000000000E+00 0. -1.
          2    1    1    2  502    0 -0.35656730917E+00 -0.22966177291E+02  0.10855636428E+02  0.25405064099E+02  0.00000000000E+00 0.  1.
</event>
<event>
 4    1  0.6136512E+003  0.3676725E+02  0.7546771E-02  0.1368547E+00
          2   -1    0    0  502    0  0.00000000000E+00  0.00000000000E+00  0.42983550488E+00  0.42983550488E+00  0.00000000000E+00 0. -1.
          2   -1    0    0  501    0 -0.00000000000E+00 -0.00000000000E+00 -0.34497550372E+04  0.34497550372E+04  0.00000000000E+00 0.  1.
          2    1    1    2  501    0 -0.17399403420E+02 -0.32389681616E+02 -0.12119229324E+04  0.12124805255E+04  0.00000000000E+00 0. -1.
          2    1    1    2  502    0  0.17399403420E+02  0.32389681616E+02 -0.22374022694E+04  0.22377043472E+04  0.00000000000E+00 0.  1.
</event>
<event>
 4    1  0.6136512E+003  0.2857835E+02  0.7546771E-02  0.1432366E+00
          2   -1    0    0  502    0  0.00000000000E+00  0.00000000000E+00  0.13043795287E+04  0.13043795287E+04  0.00000000000E+00 0. -1.
          2   -1    0    0  501    0 -0.00000000000E+00 -0.00000000000E+00 -0.18122875135E+03  0.18122875135E+03  0.00000000000E+00 0. -1.
          2    1    1    2  501    0  0.10874348515E+02 -0.26428599339E+02  0.13030952382E+04  0.13034085784E+04  0.00000000000E+00 0. -1.
          2    1    1    2  502    0 -0.10874348515E+02  0.26428599339E+02 -0.17994446084E+03  0.18219970171E+03  0.00000000000E+00 0. -1.
</event>
<event>
 4    1  0.6136512E+003  0.3480681E+02  0.7546771E-02  0.1381926E+00
          2   -1    0    0  501    0  0.00000000000E+00  0.00000000000E+00  0.11526037158E+03  0.11526037158E+03  0.00000000000E+00 0. -1.
          2   -1    0    0  502    0 -0.00000000000E+00 -0.00000000000E+00 -0.10531814124E+02  0.10531814124E+02  0.00000000000E+00 0. -1.
          2    1    1    2  501    0 -0.22131173420E+02  0.26864945627E+02  0.49575409491E+02  0.60574213711E+02  0.00000000000E+00 0. -1.
          2    1    1    2  502    0  0.22131173420E+02 -0.26864945627E+02  0.55153147968E+02  0.65217971996E+02  0.00000000000E+00 0. -1.
</event>
<event>
 4    1  0.6136512E+003  0.3299818E+02  0.7546771E-02  0.1395210E+00
          2   -1    0    0  501    0  0.00000000000E+00  0.00000000000E+00  0.26178488147E+03  0.26178488147E+03  0.00000000000E+00 0. -1.
          2   -1    0    0  502    0 -0.00000000000E+00 -0.00000000000E+00 -0.85299563895E+02  0.85299563895E+02  0.00000000000E+00 0.  1.
          2    1    1    2  501    0  0.27772354574E+02 -0.17820660785E+02 -0.81015484261E+02  0.87477930471E+02  0.00000000000E+00 0.  1.
          2    1    1    2  502    0 -0.27772354574E+02  0.17820660785E+02  0.25750080183E+03  0.25960651489E+03  0.00000000000E+00 0. -1.
</event>
<event>
 4    1  0.6136512E+003  0.2297904E+02  0.7546771E-02  0.1492761E+00
          2   -1    0    0  501    0  0.00000000000E+00  0.00000000000E+00  0.32917539691E+01  0.32917539691E+01  0.00000000000E+00 0.  1.
          2   -1    0    0  502    0 -0.00000000000E+00 -0.00000000000E+00 -0.11359264537E+04  0.11359264537E+04  0.00000000000E+00 0.  1.
          2    1    1    2  501    0  0.22973679702E+02  0.49648822259E+00 -0.10941772787E+04  0.10944185459E+04  0.00000000000E+00 0.  1.
          2    1    1    2  502    0 -0.22973679702E+02 -0.49648822259E+00 -0.38457421055E+02  0.44799661760E+02  0.00000000000E+00 0.  1.
</event>
<event>
 4    1  0.6136512E+003  0.2262468E+02  0.7546771E-02  0.1497266E+00
          2   -1    0    0  501    0  0.00000000000E+00  0.00000000000E+00  0.11009673633E+04  0.11009673633E+04  0.00000000000E+00 0.  1.
          2   -1    0    0  502    0 -0.00000000000E+00 -0.00000000000E+00 -0.10326975511E+02  0.10326975511E+02  0.00000000000E+00 0. -1.
          2    1    1    2  501    0 -0.15134686761E+02 -0.16817169777E+02  0.23250193137E+01  0.22743826800E+02  0.00000000000E+00 0. -1.
          2    1    1    2  502    0  0.15134686761E+02  0.16817169777E+02  0.10883153685E+04  0.10885505120E+04  0.00000000000E+00 0.  1.
</event>
<event>
 4    1  0.6136512E+003  0.2194537E+02  0.7546771E-02  0.1506183E+00
          2   -1    0    0  501    0  0.00000000000E+00  0.00000000000E+00  0.18749954392E+01  0.18749954392E+01  0.00000000000E+00 0. -1.
          2   -1    0    0  502    0 -0.00000000000E+00 -0.00000000000E+00 -0.44839799158E+03  0.44839799158E+03  0.00000000000E+00 0.  1.
          2    1    1    2  501    0  0.20998715581E+02  0.63759779851E+01 -0.37040764542E+03  0.37105716936E+03  0.00000000000E+00 0.  1.
          2    1    1    2  502    0 -0.20998715581E+02 -0.63759779851E+01 -0.76115350722E+02  0.79215817655E+02  0.00000000000E+00 0. -1.
</event>
<event>
 4    1  0.6136512E+003  0.2627753E+02  0.7546771E-02  0.1455004E+00
          2   -1    0    0  501    0  0.00000000000E+00  0.00000000000E+00  0.13923971587E+03  0.13923971587E+03  0.00000000000E+00 0.  1.
          2   -1    0    0  502    0 -0.00000000000E+00 -0.00000000000E+00 -0.61186952990E+03  0.61186952990E+03  0.00000000000E+00 0. -1.
          2    1    1    2  501    0 -0.22643857073E+02 -0.13332819718E+02 -0.61034451967E+03  0.61090992874E+03  0.00000000000E+00 0. -1.
          2    1    1    2  502    0  0.22643857073E+02  0.13332819718E+02  0.13771470564E+03  0.14019931703E+03  0.00000000000E+00 0.  1.
</event>
<event>
 4    1  0.6136512E+003  0.2430448E+02  0.7546771E-02  0.1476737E+00
          2   -1    0    0  502    0  0.00000000000E+00  0.00000000000E+00  0.95244534990E+01  0.95244534990E+01  0.00000000000E+00 0.  1.
          2   -1    0    0  501    0 -0.00000000000E+00 -0.00000000000E+00 -0.66036587727E+03  0.66036587727E+03  0.00000000000E+00 0. -1.
          2    1    1    2  501    0 -0.72571772516E+01 -0.23195713048E+02 -0.65919370285E+01  0.25182560618E+02  0.00000000000E+00 0.  1.
          2    1    1    2  502    0  0.72571772516E+01  0.23195713048E+02 -0.64424948674E+03  0.64470777015E+03  0.00000000000E+00 0. -1.
</event>
<event>
 4    1  0.6136512E+003  0.3575096E+02  0.7546771E-02  0.1375359E+00
          2   -1    0    0  502    0  0.00000000000E+00  0.00000000000E+00  0.12183747287E+02  0.12183747287E+02  0.00000000000E+00 0. -1.
          2   -1    0    0  501    0 -0.00000000000E+00 -0.00000000000E+00 -0.28777795224E+03  0.28777795224E+03  0.00000000000E+00 0. -1.
          2    1    1    2  501    0 -0.33391311008E+02  0.12773067587E+02 -0.18238099073E+02  0.40134264217E+02  0.00000000000E+00 0. -1.
          2    1    1    2  502    0  0.33391311008E+02 -0.12773067587E+02 -0.25735610588E+03  0.25982743531E+03  0.00000000000E+00 0. -1.
</event>
<event>
 4    1  0.6136512E+003  0.6049769E+02  0.7546771E-02  0.1258151E+00
          2   -1    0    0  502    0  0.00000000000E+00  0.00000000000E+00  0.10427997837E+04  0.10427997837E+04  0.00000000000E+00 0.  1.
          2   -1    0    0  501    0 -0.00000000000E+00 -0.00000000000E+00 -0.59969008957E+01  0.59969008957E+01  0.00000000000E+00 0. -1.
          2    1    1    2  501    0 -0.19475793515E+02  0.57277082939E+02  0.85611507075E+03  0.85824995492E+03  0.00000000000E+00 0.  1.
          2    1    1    2  502    0  0.19475793515E+02 -0.57277082939E+02  0.18068781204E+03  0.19054672966E+03  0.00000000000E+00 0. -1.
</event>
<event>
 4    1  0.6136512E+003  0.2426409E+02  0.7546771E-02  0.1477207E+00
          2   -1    0    0  502    0  0.00000000000E+00  0.00000000000E+00  0.24000900001E+03  0.24000900001E+03  0.00000000000E+00 0. -1.
          2   -1    0    0  501    0 -0.00000000000E+00 -0.00000000000E+00 -0.30837910469E+01  0.30837910469E+01  0.00000000000E+00 0.  1.
          2    1    1    2  501    0 -0.24232378468E+02 -0.12400514798E+01  0.17343401723E+03  0.17512311163E+03  0.00000000000E+00 0. -1.
          2    1    1    2  502    0  0.24232378468E+02  0.12400514798E+01  0.63491191727E+02  0.67969679422E+02  0.00000000000E+00 0.  1.
</event>
<event>
 4    1  0.6136512E+003  0.2894585E+02  0.7546771E-02  0.1428983E+00
          2   -1    0    0  502    0  0.00000000000E+00  0.00000000000E+00  0.82993241802E+02  0.82993241802E+02  0.00000000000E+00 0.  1.
          2   -1    0    0  501    0 -0.00000000000E+00 -0.00000000000E+00 -0.20472500239E+02  0.20472500239E+02  0.00000000000E+00 0. -1.
          2    1    1    2  501    0 -0.14360275524E+02 -0.25132542375E+02  0.68091587160E+02  0.73988691307E+02  0.00000000000E+00 0.  1.
          2    1    1    2  502    0  0.14360275524E+02  0.25132542375E+02 -0.55708455966E+01  0.29477050735E+02  0.00000000000E+00 0. -1.
</event>
<event>
 4    1  0.6136512E+003  0.2478802E+02  0.7546771E-02  0.1471189E+00
          2   -1    0    0  502    0  0.00000000000E+00  0.00000000000E+00  0.23562333645E+01  0.23562333645E+01  0.00000000000E+00 0. -1.
          2   -1    0    0  501    0 -0.00000000000E+00 -0.00000000000E+00 -0.29680993421E+03  0.29680993421E+03  0.00000000000E+00 0.  1.
          2    1    1    2  501    0  0.23269560401E+02 -0.85424529939E+01 -0.95106514340E+02  0.98283747457E+02  0.00000000000E+00 0. -1.
          2    1    1    2  502    0 -0.23269560401E+02  0.85424529939E+01 -0.19934718650E+03  0.20088242011E+03  0.00000000000E+00 0.  1.
</event>
<event>
 4    1  0.6136512E+003  0.2153452E+02  0.7546771E-02  0.1511768E+00
          2   -1    0    0  501    0  0.00000000000E+00  0.00000000000E+00  0.46269957385E+02  0.46269957385E+02  0.00000000000E+00 0. -1.
          2   -1    0    0  502    0 -0.00000000000E+00 -0.00000000000E+00 -0.69015679860E+03  0.69015679860E+03  0.00000000000E+00 0. -1.
          2    1    1    2  501    0  0.13939723144E+02  0.16414008586E+02 -0.68747344165E+03  0.68781063421E+03  0.00000000000E+00 0. -1.
          2    1    1    2  502    0 -0.13939723144E+02 -0.16414008586E+02  0.43586600433E+02  0.48616121776E+02  0.00000000000E+00 0. -1.
</event>
<event>
 4    1  0.6136512E+003  0.4678854E+02  0.7546771E-02  0.1312731E+00
          2   -1    0    0  502    0  0.00000000000E+00  0.00000000000E+00  0.15290092638E+04  0.15290092638E+04  0.00000000000E+00 0. -1.
          2   -1    0    0  501    0 -0.00000000000E+00 -0.00000000000E+00 -0.60886448701E+01  0.60886448701E+01  0.00000000000E+00 0. -1.
          2    1    1    2  501    0  0.44728701057E+02 -0.13729933828E+02  0.14327248589E+04  0.14334886428E+04  0.00000000000E+00 0. -1.
          2    1    1    2  502    0 -0.44728701057E+02  0.13729933828E+02  0.90195760109E+02  0.10160926593E+03  0.00000000000E+00 0. -1.
</event>
<event>
 4    1  0.6136512E+003  0.2153565E+02  0.7546771E-02  0.1511753E+00
          2   -1    0    0  501    0  0.00000000000E+00  0.00000000000E+00  0.89333021741E+01  0.89333021741E+01  0.00000000000E+00 0. -1.
          2   -1    0    0  502    0 -0.00000000000E+00 -0.00000000000E+00 -0.83795921007E+02  0.83795921007E+02  0.00000000000E+00 0.  1.
          2    1    1    2  501    0 -0.21327273128E+02 -0.29885690530E+01 -0.66029046133E+02  0.69452278993E+02  0.00000000000E+00 0.  1.
          2    1    1    2  502    0  0.21327273128E+02  0.29885690530E+01 -0.88335726993E+01  0.23276944188E+02  0.00000000000E+00 0. -1.
</event>
<event>
 4    1  0.6136512E+003  0.3254283E+02  0.7546771E-02  0.1398713E+00
          2   -1    0    0  501    0  0.00000000000E+00  0.00000000000E+00  0.22089329658E+02  0.22089329658E+02  0.00000000000E+00 0. -1.
          2   -1    0    0  502    0 -0.00000000000E+00 -0.00000000000E+00 -0.90818255097E+03  0.90818255097E+03  0.00000000000E+00 0.  1.
          2    1    1    2  501    0  0.29458234567E+01  0.32409230613E+02 -0.89573873618E+03  0.89632969358E+03  0.00000000000E+00 0.  1.
          2    1    1    2  502    0 -0.29458234567E+01 -0.32409230613E+02  0.96455148635E+01  0.33942187050E+02  0.00000000000E+00 0. -1.
</event>
<event>
 4    1  0.6136512E+003  0.2724566E+02  0.7546771E-02  0.1445156E+00
          2   -1    0    0  501    0  0.00000000000E+00  0.00000000000E+00  0.25077780304E+01  0.25077780304E+01  0.00000000000E+00 0.  1.
          2   -1    0    0  502    0 -0.00000000000E+00 -0.00000000000E+00 -0.60473253472E+03  0.60473253472E+03  0.00000000000E+00 0. -1.
          2    1    1    2  501    0 -0.26295951283E+02  0.71308336666E+01 -0.51804932727E+03  0.51876529503E+03  0.00000000000E+00 0. -1.
          2    1    1    2  502    0  0.26295951283E+02 -0.71308336666E+01 -0.84175429422E+02  0.88475017723E+02  0.00000000000E+00 0.  1.
</event>
<event>
 4    1  0.6136512E+003  0.2096454E+02  0.7546771E-02  0.1519772E+00
          2   -1    0    0  502    0  0.00000000000E+00  0.00000000000E+00  0.28660426349E+02  0.28660426349E+02  0.00000000000E+00 0. -1.
          2   -1    0    0  501    0 -0.00000000000E+00 -0.00000000000E+00 -0.10089743275E+04  0.10089743275E+04  0.00000000000E+00 0. -1.
          2    1    1    2  501    0 -0.20292735783E+02 -0.52646856699E+01  0.24702641315E+02  0.32399576057E+02  0.00000000000E+00 0. -1.
          2    1    1    2  502    0  0.20292735783E+02  0.52646856699E+01 -0.10050165425E+04  0.10052351778E+04  0.00000000000E+00 0. -1.
</event>
<event>
 4    1  0.6136512E+003  0.2412320E+02  0.7546771E-02  0.1478856E+00
          2   -1    0    0  502    0  0.00000000000E+00  0.00000000000E+00  0.23174028976E+03  0.23174028976E+03  0.00000000000E+00 0. -1.
          2   -1    0    0  501    0 -0.00000000000E+00 -0.00000000000E+00 -0.11674725084E+03  0.11674725084E+03  0.00000000000E+00 0. -1.
          2    1    1    2  501    0 -0.19608122680E+02  0.14051701591E+02  0.22985619265E+03  0.23111858015E+03  0.00000000000E+00 0. -1.
          2    1    1    2  502    0  0.19608122680E+02 -0.14051701591E+02 -0.11486315373E+03  0.11736896045E+03  0.00000000000E+00 0. -1.
</event>
<event>
 4    1  0.6136512E+003  0.3419986E+02  0.7546771E-02  0.1386277E+00
          2   -1    0    0  501    0  0.00000000000E+00  0.00000000000E+00  0.33831519467E+03  0.33831519467E+03  0.00000000000E+00 0. -1.
          2   -1    0    0  502    0 -0.00000000000E+00 -0.00000000000E+00 -0.26202842730E+02  0.26202842730E+02  0.00000000000E+00 0. -1.
          2    1    1    2  501    0 -0.20619026751E+02  0.27285267949E+02 -0.13754009670E+02  0.36861943698E+02  0.00000000000E+00 0. -1.
          2    1    1    2  502    0  0.20619026751E+02 -0.27285267949E+02  0.32586636161E+03  0.32765609371E+03  0.00000000000E+00 0. -1.
</event>
<event>
 4    1  0.6136512E+003  0.2757546E+02  0.7546771E-02  0.1441912E+00
          2   -1    0    0  501    0  0.00000000000E+00  0.00000000000E+00  0.31427202723E+02  0.31427202723E+02  0.00000000000E+00 0.  1.
          2   -1    0    0  502    0 -0.00000000000E+00 -0.00000000000E+00 -0.11856043798E+03  0.11856043798E+03  0.00000000000E+00 0.  1.
          2    1    1    2  501    0 -0.27575072282E+02 -0.14699398666E+00 -0.11047187204E+03  0.11386149802E+03  0.00000000000E+00 0.  1.
          2    1    1    2  502    0  0.27575072282E+02  0.14699398666E+00  0.23338636783E+02  0.36126142687E+02  0.00000000000E+00 0.  1.
</event>
<event>
 4    1  0.6136512E+003  0.2095379E+02  0.7546771E-02  0.1519926E+00
          2   -1    0    0  502    0  0.00000000000E+00  0.00000000000E+00  0.76182145233E+03  0.76182145233E+03  0.00000000000E+00 0. -1.
          2   -1    0    0  501    0 -0.00000000000E+00 -0.00000000000E+00 -0.60524340508E+00  0.60524340508E+00  0.00000000000E+00 0.  1.
          2    1    1    2  501    0  0.20670655092E+02  0.34330020057E+01  0.46392700805E+03  0.46439996800E+03  0.00000000000E+00 0. -1.
          2    1    1    2  502    0 -0.20670655092E+02 -0.34330020057E+01  0.29728920088E+03  0.29802672773E+03  0.00000000000E+00 0.  1.
</event>
<event>
 4    1  0.6136512E+003  0.2445729E+02  0.7546771E-02  0.1474967E+00
          2   -1    0    0  501    0  0.00000000000E+00  0.00000000000E+00  0.10518414842E+02  0.10518414842E+02  0.00000000000E+00 0.  1.
          2   -1    0    0  502    0 -0.00000000000E+00 -0.00000000000E+00 -0.74389407728E+03  0.74389407728E+03  0.00000000000E+00 0. -1.
          2    1    1    2  501    0 -0.15280569327E+02 -0.19096157555E+02 -0.72918949274E+03  0.72959953081E+03  0.00000000000E+00 0. -1.
          2    1    1    2  502    0  0.15280569327E+02  0.19096157555E+02 -0.41861696960E+01  0.24812961312E+02  0.00000000000E+00 0.  1.
</event>
<event>
 4    1  0.6136512E+003  0.2720283E+02  0.7546771E-02  0.1445581E+00
          2   -1    0    0  501    0  0.00000000000E+00  0.00000000000E+00  0.13081539643E+03  0.13081539643E+03  0.00000000000E+00 0.  1.
          2   -1    0    0  502    0 -0.00000000000E+00 -0.00000000000E+00 -0.24578525153E+03  0.24578525153E+03  0.00000000000E+00 0.  1.
          2    1    1    2  501    0  0.15682141248E+02 -0.22227564349E+02 -0.24360575906E+03  0.24511988907E+03  0.00000000000E+00 0.  1.
          2    1    1    2  502    0 -0.15682141248E+02  0.22227564349E+02  0.12863590396E+03  0.13148075889E+03  0.00000000000E+00 0.  1.
</event>
<event>
 4    1  0.6136512E+003  0.2296367E+02  0.7546771E-02  0.1492955E+00
          2   -1    0    0  501    0  0.00000000000E+00  0.00000000000E+00  0.38344091196E+01  0.38344091196E+01  0.00000000000E+00 0.  1.
          2   -1    0    0  502    0 -0.00000000000E+00 -0.00000000000E+00 -0.78192994673E+03  0.78192994673E+03  0.00000000000E+00 0.  1.
          2    1    1    2  501    0 -0.22617322622E+02  0.39732717933E+01 -0.74571036754E+03  0.74606385948E+03  0.00000000000E+00 0.  1.
          2    1    1    2  502    0  0.22617322622E+02 -0.39732717933E+01 -0.32385170079E+02  0.39700496375E+02  0.00000000000E+00 0.  1.
</event>
<event>
 4    1  0.6136512E+003  0.2672254E+02  0.7546771E-02  0.1450415E+00
          2   -1    0    0  502    0  0.00000000000E+00  0.00000000000E+00  0.40862873679E+02  0.40862873679E+02  0.00000000000E+00 0. -1.
          2   -1    0    0  501    0 -0.00000000000E+00 -0.00000000000E+00 -0.10147808114E+03  0.10147808114E+03  0.00000000000E+00 0. -1.
          2    1    1    2  501    0  0.37774286694E+01 -0.26454206263E+02  0.34445471286E+02  0.43595693463E+02  0.00000000000E+00 0. -1.
          2    1    1    2  502    0 -0.37774286694E+01  0.26454206263E+02 -0.95060678747E+02  0.98745261356E+02  0.00000000000E+00 0. -1.
</event>
<event>
 4    1  0.6136512E+003  0.2058820E+02  0.7546771E-02  0.1525226E+00
          2   -1    0    0  501    0  0.00000000000E+00  0.00000000000E+00  0.69479543273E+01  0.69479543273E+01  0.00000000000E+00 0. -1.
          2   -1    0    0  502    0 -0.00000000000E+00 -0.00000000000E+00 -0.51535573587E+03  0.51535573587E+03  0.00000000000E+00 0. -1.
          2    1    1    2  501    0 -0.48100406923E+01 -0.20018426821E+02 -0.49941164502E+03  0.49983583814E+03  0.00000000000E+00 0. -1.
          2    1    1    2  502    0  0.48100406923E+01  0.20018426821E+02 -0.89961365210E+01  0.22467852059E+02  0.00000000000E+00 0. -1.
</event>
<event>
 4    1  0.6136512E+003  0.2045910E+02  0.7546771E-02  0.1527129E+00
          2   -1    0    0  501    0  0.00000000000E+00  0.00000000000E+00  0.23960306708E+03  0.23960306708E+03  0.00000000000E+00 0.  1.
          2   -1    0    0  502    0 -0.00000000000E+00 -0.00000000000E+00 -0.14111502693E+03  0.14111502693E+03  0.00000000000E+00 0.  1.
          2    1    1    2  501    0 -0.15974232059E+02  0.12782747459E+02 -0.13993307103E+03  0.14142078734E+03  0.00000000000E+00 0.  1.
          2    1    1    2  502    0  0.15974232059E+02 -0.12782747459E+02  0.23842111118E+03  0.23929730667E+03  0.00000000000E+00 0.  1.
</event>
<event>
 4    1  0.6136512E+003  0.3717509E+02  0.7546771E-02  0.1365885E+00
          2   -1    0    0  501    0  0.00000000000E+00  0.00000000000E+00  0.26813502705E+01  0.26813502705E+01  0.00000000000E+00 0.  1.
          2   -1    0    0  502    0 -0.00000000000E+00 -0.00000000000E+00 -0.15666622824E+04  0.15666622824E+04  0.00000000000E+00 0.  1.
          2    1    1    2  501    0 -0.33582053355E+02 -0.15944681887E+02 -0.14247587184E+04  0.14252436258E+04  0.00000000000E+00 0.  1.
          2    1    1    2  502    0  0.33582053355E+02  0.15944681887E+02 -0.13922221370E+03  0.14410000686E+03  0.00000000000E+00 0.  1.
</event>
<event>
 4    1  0.6136512E+003  0.2169435E+02  0.7546771E-02  0.1509578E+00
          2   -1    0    0  501    0  0.00000000000E+00  0.00000000000E+00  0.73393037418E+03  0.73393037418E+03  0.00000000000E+00 0.  1.
          2   -1    0    0  502    0 -0.00000000000E+00 -0.00000000000E+00 -0.15477779982E+01  0.15477779982E+01  0.00000000000E+00 0.  1.
          2    1    1    2  501    0  0.28551806830E+01 -0.21505649582E+02  0.84760199714E+02  0.87492493828E+02  0.00000000000E+00 0.  1.
          2    1    1    2  502    0 -0.28551806830E+01  0.21505649582E+02  0.64762239647E+03  0.64798565835E+03  0.00000000000E+00 0.  1.
</event>
<event>
 4    1  0.6136512E+003  0.4563912E+02  0.7546771E-02  0.1318274E+00
          2   -1    0    0  502    0  0.00000000000E+00  0.00000000000E+00  0.15335145654E+04  0.15335145654E+04  0.00000000000E+00 0. -1.
          2   -1    0    0  501    0 -0.00000000000E+00 -0.00000000000E+00 -0.57731423482E+01  0.57731423482E+01  0.00000000000E+00 0. -1.
          2    1    1    2  501    0  0.30304633156E+02 -0.34125632338E+02  0.14369134764E+04  0.14376380867E+04  0.00000000000E+00 0. -1.
          2    1    1    2  502    0 -0.30304633156E+02  0.34125632338E+02  0.90827946653E+02  0.10164962108E+03  0.00000000000E+00 0. -1.
</event>
<event>
 4    1  0.6136512E+003  0.2035558E+02  0.7546771E-02  0.1528668E+00
          2   -1    0    0  502    0  0.00000000000E+00  0.00000000000E+00  0.10732323727E+04  0.10732323727E+04  0.00000000000E+00 0. -1.
          2   -1    0    0  501    0 -0.00000000000E+00 -0.00000000000E+00 -0.28392940795E+03  0.28392940795E+03  0.00000000000E+00 0. -1.
          2    1    1    2  501    0 -0.20280277492E+02 -0.17493019507E+01  0.10727708615E+04  0.10729639654E+04  0.00000000000E+00 0. -1.
          2    1    1    2  502    0  0.20280277492E+02  0.17493019507E+01 -0.28346789676E+03  0.28419781527E+03  0.00000000000E+00 0. -1.
</event>
<event>
 4    1  0.6136512E+003  0.4883375E+02  0.7546771E-02  0.1303310E+00
          2   -1    0    0  502    0  0.00000000000E+00  0.00000000000E+00  0.15611547723E+03  0.15611547723E+03  0.00000000000E+00 0.  1.
          2   -1    0    0  501    0 -0.00000000000E+00 -0.00000000000E+00 -0.11143530802E+04  0.11143530802E+04  0.00000000000E+00 0.  1.
          2    1    1    2  501    0  0.25187475907E+00  0.48833103273E+02  0.15174658452E+03  0.15941066881E+03  0.00000000000E+00 0.  1.
          2    1    1    2  502    0 -0.25187475907E+00 -0.48833103273E+02 -0.11099841875E+04  0.11110578886E+04  0.00000000000E+00 0.  1.
</event>
<event>
 4    1  0.6136512E+003  0.2185934E+02  0.7546771E-02  0.1507341E+00
          2   -1    0    0  502    0  0.00000000000E+00  0.00000000000E+00  0.55071661694E+03  0.55071661694E+03  0.00000000000E+00 0. -1.
          2   -1    0    0  501    0 -0.00000000000E+00 -0.00000000000E+00 -0.32126201626E+03  0.32126201626E+03  0.00000000000E+00 0.  1.
          2    1    1    2  501    0  0.13422080502E+02 -0.17253366398E+02  0.55012746672E+03  0.55056158650E+03  0.00000000000E+00 0. -1.
          2    1    1    2  502    0 -0.13422080502E+02  0.17253366398E+02 -0.32067286603E+03  0.32141704670E+03  0.00000000000E+00 0.  1.
</event>
<event>
 4    1  0.6136512E+003  0.2100460E+02  0.7546771E-02  0.1519199E+00
          2   -1    0    0  501    0  0.00000000000E+00  0.00000000000E+00  0.33582380989E+03  0.33582380989E+03  0.00000000000E+00 0. -1.
          2   -1    0    0  502    0 -0.00000000000E+00 -0.00000000000E+00 -0.37013229909E+03  0.37013229909E+03  0.00000000000E+00 0.  1.
          2    1    1    2  501    0 -0.20705101197E+02 -0.35344066328E+01 -0.36950530423E+03  0.37010182801E+03  0.00000000000E+00 0.  1.
          2    1    1    2  502    0  0.20705101197E+02  0.35344066328E+01  0.33519681502E+03  0.33585428097E+03  0.00000000000E+00 0. -1.
</event>
<event>
 4    1  0.6136512E+003  0.2238039E+02  0.7546771E-02  0.1500429E+00
          2   -1    0    0  502    0  0.00000000000E+00  0.00000000000E+00  0.21950046891E+02  0.21950046891E+02  0.00000000000E+00 0.  1.
          2   -1    0    0  501    0 -0.00000000000E+00 -0.00000000000E+00 -0.50337032640E+03  0.50337032640E+03  0.00000000000E+00 0.  1.
          2    1    1    2  501    0 -0.12955370697E+02  0.18249395766E+02  0.15927440651E+02  0.27469354587E+02  0.00000000000E+00 0.  1.
          2    1    1    2  502    0  0.12955370697E+02 -0.18249395766E+02 -0.49734772016E+03  0.49785101870E+03  0.00000000000E+00 0.  1.
</event>
<event>
 4    1  0.6136512E+003  0.3178560E+02  0.7546771E-02  0.1404689E+00
          2   -1    0    0  501    0  0.00000000000E+00  0.00000000000E+00  0.10485315702E+04  0.10485315702E+04  0.00000000000E+00 0. -1.
          2   -1    0    0  502    0 -0.00000000000E+00 -0.00000000000E+00 -0.44285921178E+01  0.44285921178E+01  0.00000000000E+00 0.  1.
          2    1    1    2  501    0 -0.24570831207E+02  0.20164290628E+02  0.56355326831E+02  0.64701215020E+02  0.00000000000E+00 0.  1.
          2    1    1    2  502    0  0.24570831207E+02 -0.20164290628E+02  0.98774765127E+03  0.98825894732E+03  0.00000000000E+00 0. -1.
</event>
<event>
 4    1  0.6136512E+003  0.3335750E+02  0.7546771E-02  0.1392493E+00
          2   -1    0    0  502    0  0.00000000000E+00  0.00000000000E+00  0.10408965876E+04  0.10408965876E+04  0.00000000000E+00 0.  1.
          2   -1    0    0  501    0 -0.00000000000E+00 -0.00000000000E+00 -0.19988611557E+01  0.19988611557E+01  0.00000000000E+00 0. -1.
          2    1    1    2  501    0  0.29148083069E+02  0.16220735944E+02  0.87510269342E+03  0.87573822976E+03  0.00000000000E+00 0.  1.
          2    1    1    2  502    0 -0.29148083069E+02 -0.16220735944E+02  0.16379503304E+03  0.16715721902E+03  0.00000000000E+00 0. -1.
</event>
<event>
 4    1  0.6136512E+003  0.3491880E+02  0.7546771E-02  0.1381135E+00
          2   -1    0    0  502    0  0.00000000000E+00  0.00000000000E+00  0.17316983453E+04  0.17316983453E+04  0.00000000000E+00 0.  1.
          2   -1    0    0  501    0 -0.00000000000E+00 -0.00000000000E+00 -0.74362951344E+02  0.74362951344E+02  0.00000000000E+00 0. -1.
          2    1    1    2  501    0 -0.28007274875E+02  0.20854617425E+02  0.17274129198E+04  0.17277658169E+04  0.00000000000E+00 0.  1.
          2    1    1    2  502    0  0.28007274875E+02 -0.20854617425E+02 -0.70077525870E+02  0.78295479729E+02  0.00000000000E+00 0. -1.
</event>
<event>
 4    1  0.6136512E+003  0.4308315E+02  0.7546771E-02  0.1331308E+00
          2   -1    0    0  502    0  0.00000000000E+00  0.00000000000E+00  0.91997862574E+03  0.91997862574E+03  0.00000000000E+00 0.  1.
          2   -1    0    0  501    0 -0.00000000000E+00 -0.00000000000E+00 -0.16590772235E+02  0.16590772235E+02  0.00000000000E+00 0. -1.
          2    1    1    2  501    0 -0.33961296649E+02  0.26510154541E+02  0.89058178736E+03  0.89162328253E+03  0.00000000000E+00 0.  1.
          2    1    1    2  502    0  0.33961296649E+02 -0.26510154541E+02  0.12806066145E+02  0.44946115449E+02  0.00000000000E+00 0. -1.
</event>
<event>
 4    1  0.6136512E+003  0.2103902E+02  0.7546771E-02  0.1518708E+00
          2   -1    0    0  501    0  0.00000000000E+00  0.00000000000E+00  0.47887779086E+03  0.47887779086E+03  0.00000000000E+00 0.  1.
          2   -1    0    0  502    0 -0.00000000000E+00 -0.00000000000E+00 -0.30414790577E+01  0.30414790577E+01  0.00000000000E+00 0. -1.
          2    1    1    2  501    0 -0.19238184634E+02  0.85166102940E+01  0.36880342906E+02  0.42459393445E+02  0.00000000000E+00 0. -1.
          2    1    1    2  502    0  0.19238184634E+02 -0.85166102940E+01  0.43895596890E+03  0.43945987648E+03  0.00000000000E+00 0.  1.
</event>
<event>
 4    1  0.6136512E+003  0.3408458E+02  0.7546771E-02  0.1387116E+00
          2   -1    0    0  501    0  0.00000000000E+00  0.00000000000E+00  0.58686182086E+02  0.58686182086E+02  0.00000000000E+00 0. -1.
          2   -1    0    0  502    0 -0.00000000000E+00 -0.00000000000E+00 -0.20433730213E+03  0.20433730213E+03  0.00000000000E+00 0.  1.
          2    1    1    2  501    0 -0.29407011048E+02  0.17233283325E+02 -0.19780465039E+03  0.20071979989E+03  0.00000000000E+00 0.  1.
          2    1    1    2  502    0  0.29407011048E+02 -0.17233283325E+02  0.52153530345E+02  0.62303684324E+02  0.00000000000E+00 0. -1.
</event>
<event>
 4    1  0.6136512E+003  0.3904658E+02  0.7546771E-02  0.1354165E+00
          2   -1    0    0  502    0  0.00000000000E+00  0.00000000000E+00  0.32314830062E+02  0.32314830062E+02  0.00000000000E+00 0.  1.
          2   -1    0    0  501    0 -0.00000000000E+00 -0.00000000000E+00 -0.47288598310E+02  0.47288598310E+02  0.00000000000E+00 0.  1.
          2    1    1    2  501    0  0.38837535615E+02  0.40350168846E+01 -0.55854610775E+01  0.39444047831E+02  0.00000000000E+00 0.  1.
          2    1    1    2  502    0 -0.38837535615E+02 -0.40350168846E+01 -0.93883071709E+01  0.40159380541E+02  0.00000000000E+00 0.  1.
</event>
<event>
 4    1  0.6136512E+003  0.2918766E+02  0.7546771E-02  0.1426789E+00
          2   -1    0    0  501    0  0.00000000000E+00  0.00000000000E+00  0.17843885801E+04  0.17843885801E+04  0.00000000000E+00 0.  1.
          2   -1    0    0  502    0 -0.00000000000E+00 -0.00000000000E+00 -0.86589640169E+00  0.86589640169E+00  0.00000000000E+00 0. -1.
          2    1    1    2  501    0  0.32980855348E+00  0.29185800066E+02  0.29388111079E+03  0.29532698315E+03  0.00000000000E+00 0. -1.
          2    1    1    2  502    0 -0.32980855348E+00 -0.29185800066E+02  0.14896415729E+04  0.14899274933E+04  0.00000000000E+00 0.  1.
</event>
<event>
 4    1  0.6136512E+003  0.3016565E+02  0.7546771E-02  0.1418162E+00
          2   -1    0    0  502    0  0.00000000000E+00  0.00000000000E+00  0.72015012250E+00  0.72015012250E+00  0.00000000000E+00 0. -1.
          2   -1    0    0  501    0 -0.00000000000E+00 -0.00000000000E+00 -0.12694235719E+04  0.12694235719E+04  0.00000000000E+00 0. -1.
          2    1    1    2  501    0 -0.27783870665E+02 -0.11748329500E+02 -0.67744290593E+03  0.67811419208E+03  0.00000000000E+00 0. -1.
          2    1    1    2  502    0  0.27783870665E+02  0.11748329500E+02 -0.59126051585E+03  0.59202952993E+03  0.00000000000E+00 0. -1.
</event>
<event>
 4    1  0.6136512E+003  0.2134233E+02  0.7546771E-02  0.1514433E+00
          2   -1    0    0  502    0  0.00000000000E+00  0.00000000000E+00  0.31212231981E+03  0.31212231981E+03  0.00000000000E+00 0.  1.
          2   -1    0    0  501    0 -0.00000000000E+00 -0.00000000000E+00 -0.37167513635E+03  0.37167513635E+03  0.00000000000E+00 0.  1.
          2    1    1    2  501    0 -0.21326930495E+02 -0.81051219822E+00  0.31145044308E+03  0.31218083443E+03  0.00000000000E+00 0.  1.
          2    1    1    2  502    0  0.21326930495E+02  0.81051219822E+00 -0.37100325962E+03  0.37161662172E+03  0.00000000000E+00 0.  1.
</event>
<event>
 4    1  0.6136512E+003  0.2103836E+02  0.7546771E-02  0.1518718E+00
          2   -1    0    0  501    0  0.00000000000E+00  0.00000000000E+00  0.11837421565E+02  0.11837421565E+02  0.00000000000E+00 0. -1.
          2   -1    0    0  502    0 -0.00000000000E+00 -0.00000000000E+00 -0.51200508077E+02  0.51200508077E+02  0.00000000000E+00 0. -1.
          2    1    1    2  501    0 -0.14679172806E+02  0.15070975615E+02 -0.36050640322E+02  0.41740401147E+02  0.00000000000E+00 0. -1.
          2    1    1    2  502    0  0.14679172806E+02 -0.15070975615E+02 -0.33124461902E+01  0.21297528496E+02  0.00000000000E+00 0. -1.
</event>
<event>
 4    1  0.6136512E+003  0.2003351E+02  0.7546771E-02  0.1533524E+00
          2   -1    0    0  502    0  0.00000000000E+00  0.00000000000E+00  0.15284303729E+04  0.15284303729E+04  0.00000000000E+00 0.  1.
          2   -1    0    0  501    0 -0.00000000000E+00 -0.00000000000E+00 -0.98818241201E+00  0.98818241201E+00  0.00000000000E+00 0. -1.
          2    1    1    2  501    0  0.19663694614E+02 -0.38315140318E+01  0.14189996518E+04  0.14191410617E+04  0.00000000000E+00 0.  1.
          2    1    1    2  502    0 -0.19663694614E+02  0.38315140318E+01  0.10844253875E+03  0.11027749361E+03  0.00000000000E+00 0. -1.
</event>
<event>
 4    1  0.6136512E+003  0.3214931E+02  0.7546771E-02  0.1401794E+00
          2   -1    0    0  502    0  0.00000000000E+00  0.00000000000E+00  0.23780978760E+02  0.23780978760E+02  0.00000000000E+00 0.  1.
          2   -1    0    0  501    0 -0.00000000000E+00 -0.00000000000E+00 -0.98877147492E+03  0.98877147492E+03  0.00000000000E+00 0.  1.
          2    1    1    2  501    0 -0.13393821488E+02 -0.29226421656E+02  0.12529015180E+02  0.34504411287E+02  0.00000000000E+00 0.  1.
          2    1    1    2  502    0  0.13393821488E+02  0.29226421656E+02 -0.97751951134E+03  0.97804804240E+03  0.00000000000E+00 0.  1.
</event>
<event>
 4    1  0.6136512E+003  0.3531503E+02  0.7546771E-02  0.1378362E+00
          2   -1    0    0  501    0  0.00000000000E+00  0.00000000000E+00  0.49936682091E+02  0.49936682091E+02  0.00000000000E+00 0. -1.
          2   -1    0    0  502    0 -0.00000000000E+00 -0.00000000000E+00 -0.28876552941E+02  0.28876552941E+02  0.00000000000E+00 0. -1.
          2    1    1    2  501    0 -0.15219687187E+02 -0.31867106191E+02 -0.39554696666E+01  0.35535856192E+02  0.00000000000E+00 0. -1.
          2    1    1    2  502    0  0.15219687187E+02  0.31867106191E+02  0.25015598817E+02  0.43277378840E+02  0.00000000000E+00 0. -1.
</event>
<event>
 4    1  0.6136512E+003  0.2369342E+02  0.7546771E-02  0.1483970E+00
          2   -1    0    0  501    0  0.00000000000E+00  0.00000000000E+00  0.18976313577E+02  0.18976313577E+02  0.00000000000E+00 0. -1.
          2   -1    0    0  502    0 -0.00000000000E+00 -0.00000000000E+00 -0.22931098839E+03  0.22931098839E+03  0.00000000000E+00 0. -1.
          2    1    1    2  501    0  0.22829305938E+02 -0.63404197721E+01 -0.22102678100E+03  0.22229308593E+03  0.00000000000E+00 0. -1.
          2    1    1    2  502    0 -0.22829305938E+02  0.63404197721E+01  0.10692106190E+02  0.25994216035E+02  0.00000000000E+00 0. -1.
</event>
<event>
 4    1  0.6136512E+003  0.2303945E+02  0.7546771E-02  0.1492003E+00
          2   -1    0    0  501    0  0.00000000000E+00  0.00000000000E+00  0.10952192003E+02  0.10952192003E+02  0.00000000000E+00 0. -1.
          2   -1    0    0  502    0 -0.00000000000E+00 -0.00000000000E+00 -0.59210189267E+02  0.59210189267E+02  0.00000000000E+00 0.  1.
          2    1    1    2  501    0 -0.20708620023E+02 -0.10097989240E+02 -0.39072393866E+02  0.45359324205E+02  0.00000000000E+00 0.  1.
          2    1    1    2  502    0  0.20708620023E+02  0.10097989240E+02 -0.91856033977E+01  0.24803057064E+02  0.00000000000E+00 0. -1.
</event>
<event>
 4    1  0.6136512E+003  0.2326640E+02  0.7546771E-02  0.1489180E+00
          2   -1    0    0  502    0  0.00000000000E+00  0.00000000000E+00  0.14017238964E+02  0.14017238964E+02  0.00000000000E+00 0.  1.
          2   -1    0    0  501    0 -0.00000000000E+00 -0.00000000000E+00 -0.62067351261E+02  0.62067351261E+02  0.00000000000E+00 0. -1.
          2    1    1    2  501    0 -0.24687341059E+01  0.23135049542E+02 -0.64230482096E+00  0.23275259846E+02  0.00000000000E+00 0.  1.
          2    1    1    2  502    0  0.24687341059E+01 -0.23135049542E+02 -0.47407807476E+02  0.52809330379E+02  0.00000000000E+00 0. -1.
</event>
<event>
 4    1  0.6136512E+003  0.3199847E+02  0.7546771E-02  0.1402989E+00
          2   -1    0    0  502    0  0.00000000000E+00  0.00000000000E+00  0.13736880962E+01  0.13736880962E+01  0.00000000000E+00 0.  1.
          2   -1    0    0  501    0 -0.00000000000E+00 -0.00000000000E+00 -0.80942913224E+03  0.80942913224E+03  0.00000000000E+00 0.  1.
          2    1    1    2  501    0 -0.30142116690E+02 -0.10740326877E+02 -0.28997742420E+03  0.29173756763E+03  0.00000000000E+00 0.  1.
          2    1    1    2  502    0  0.30142116690E+02  0.10740326877E+02 -0.51807801994E+03  0.51906525270E+03  0.00000000000E+00 0.  1.
</event>
<event>
 4    1  0.6136512E+003  0.3093779E+02  0.7546771E-02  0.1411618E+00
          2   -1    0    0  502    0  0.00000000000E+00  0.00000000000E+00  0.51661619713E+01  0.51661619713E+01  0.00000000000E+00 0. -1.
          2   -1    0    0  501    0 -0.00000000000E+00 -0.00000000000E+00 -0.14578545939E+04  0.14578545939E+04  0.00000000000E+00 0. -1.
          2    1    1    2  501    0 -0.22781274926E+02  0.20932284297E+02 -0.42894896845E+02  0.52887798105E+02  0.00000000000E+00 0. -1.
          2    1    1    2  502    0  0.22781274926E+02 -0.20932284297E+02 -0.14097935351E+04  0.14101329578E+04  0.00000000000E+00 0. -1.
</event>
<event>
 4    1  0.6136512E+003  0.2511926E+02  0.7546771E-02  0.1467474E+00
          2   -1    0    0  502    0  0.00000000000E+00  0.00000000000E+00  0.25521984363E+00  0.25521984363E+00  0.00000000000E+00 0.  1.
          2   -1    0    0  501    0 -0.00000000000E+00 -0.00000000000E+00 -0.26406152007E+04  0.26406152007E+04  0.00000000000E+00 0. -1.
          2    1    1    2  501    0 -0.20073917985E+02 -0.15100161934E+02 -0.16535611836E+04  0.16537519660E+04  0.00000000000E+00 0. -1.
          2    1    1    2  502    0  0.20073917985E+02  0.15100161934E+02 -0.98679879721E+03  0.98711845452E+03  0.00000000000E+00 0.  1.
</event>
<event>
 4    1  0.6136512E+003  0.2789013E+02  0.7546771E-02  0.1438866E+00
          2   -1    0    0  502    0  0.00000000000E+00  0.00000000000E+00  0.58423686733E+00  0.58423686733E+00  0.00000000000E+00 0. -1.
          2   -1    0    0  501    0 -0.00000000000E+00 -0.00000000000E+00 -0.14180312309E+04  0.14180312309E+04  0.00000000000E+00 0.  1.
          2    1    1    2  501    0 -0.27731759880E+02 -0.29679324369E+01 -0.53341515066E+03  0.53414378409E+03  0.00000000000E+00 0. -1.
          2    1    1    2  502    0  0.27731759880E+02  0.29679324369E+01 -0.88403184336E+03  0.88447168366E+03  0.00000000000E+00 0.  1.
</event>
<event>
 4    1  0.6136512E+003  0.2102908E+02  0.7546771E-02  0.1518850E+00
          2   -1    0    0  502    0  0.00000000000E+00  0.00000000000E+00  0.22793225010E+03  0.22793225010E+03  0.00000000000E+00 0.  1.
          2   -1    0    0  501    0 -0.00000000000E+00 -0.00000000000E+00 -0.20371751953E+03  0.20371751953E+03  0.00000000000E+00 0. -1.
          2    1    1    2  501    0 -0.15866736321E+02  0.13801052799E+02  0.22690206369E+03  0.22787445861E+03  0.00000000000E+00 0.  1.
          2    1    1    2  502    0  0.15866736321E+02 -0.13801052799E+02 -0.20268733311E+03  0.20377531102E+03  0.00000000000E+00 0. -1.
</event>
<event>
 4    1  0.6136512E+003  0.4214330E+02  0.7546771E-02  0.1336364E+00
          2   -1    0    0  502    0  0.00000000000E+00  0.00000000000E+00  0.25900027066E+02  0.25900027066E+02  0.00000000000E+00 0. -1.
          2   -1    0    0  501    0 -0.00000000000E+00 -0.00000000000E+00 -0.23970625923E+03  0.23970625923E+03  0.00000000000E+00 0. -1.
          2    1    1    2  501    0  0.18420013873E+02 -0.37904633196E+02  0.53078016976E+01  0.42476239095E+02  0.00000000000E+00 0. -1.
          2    1    1    2  502    0 -0.18420013873E+02  0.37904633196E+02 -0.21911403386E+03  0.22313004720E+03  0.00000000000E+00 0. -1.
</event>
<event>
 4    1  0.6136512E+003  0.2099144E+02  0.7546771E-02  0.1519387E+00
          2   -1    0    0  501    0  0.00000000000E+00  0.00000000000E+00  0.59806683787E+02  0.59806683787E+02  0.00000000000E+00 0. -1.
          2   -1    0    0  502    0 -0.00000000000E+00 -0.00000000000E+00 -0.43096420244E+03  0.43096420244E+03  0.00000000000E+00 0. -1.
          2    1    1    2  501    0 -0.14513894246E+02 -0.15165336514E+02 -0.42885760994E+03  0.42937104020E+03  0.00000000000E+00 0. -1.
          2    1    1    2  502    0  0.14513894246E+02  0.15165336514E+02  0.57700091287E+02  0.61399846029E+02  0.00000000000E+00 0. -1.
</event>
<event>
 4    1  0.6136512E+003  0.2305301E+02  0.7546771E-02  0.1491834E+00
          2   -1    0    0  502    0  0.00000000000E+00  0.00000000000E+00  0.98803378483E+00  0.98803378483E+00  0.00000000000E+00 0. -1.
          2   -1    0    0  501    0 -0.00000000000E+00 -0.00000000000E+00 -0.76531876722E+03  0.76531876722E+03  0.00000000000E+00 0. -1.
          2    1    1    2  501    0  0.32925774647E+01 -0.22816660722E+02 -0.17329049183E+03  0.17481714914E+03  0.00000000000E+00 0. -1.
          2    1    1    2  502    0 -0.32925774647E+01  0.22816660722E+02 -0.59104024160E+03  0.59148965187E+03  0.00000000000E+00 0. -1.
</event>
<event>
 4    1  0.6136512E+003  0.2301435E+02  0.7546771E-02  0.1492318E+00
          2   -1    0    0  501    0  0.00000000000E+00  0.00000000000E+00  0.25210629252E+03  0.25210629252E+03  0.00000000000E+00 0. -1.
          2   -1    0    0  502    0 -0.00000000000E+00 -0.00000000000E+00 -0.71435566504E+02  0.71435566504E+02  0.00000000000E+00 0. -1.
          2    1    1    2  501    0  0.20969135912E+02 -0.94844931945E+01 -0.69038949201E+02  0.72773874287E+02  0.00000000000E+00 0. -1.
          2    1    1    2  502    0 -0.20969135912E+02  0.94844931945E+01  0.24970967522E+03  0.25076798474E+03  0.00000000000E+00 0. -1.
</event>
<event>
 4    1  0.6136512E+003  0.2401489E+02  0.7546771E-02  0.1480133E+00
          2   -1    0    0  502    0  0.00000000000E+00  0.00000000000E+00  0.72413395405E+01  0.72413395405E+01  0.00000000000E+00 0. -1.
          2   -1    0    0  501    0 -0.00000000000E+00 -0.00000000000E+00 -0.98423408060E+02  0.98423408060E+02  0.00000000000E+00 0.  1.
          2    1    1    2  501    0 -0.23503486190E+02 -0.49295979611E+01 -0.22512142918E+02  0.32916734010E+02  0.00000000000E+00 0. -1.
          2    1    1    2  502    0  0.23503486190E+02  0.49295979611E+01 -0.68669925602E+02  0.72748013590E+02  0.00000000000E+00 0.  1.
</event>
<event>
 4    1  0.6136512E+003  0.2072463E+02  0.7546771E-02  0.1523233E+00
          2   -1    0    0  502    0  0.00000000000E+00  0.00000000000E+00  0.20844355194E+03  0.20844355194E+03  0.00000000000E+00 0.  1.
          2   -1    0    0  501    0 -0.00000000000E+00 -0.00000000000E+00 -0.37520213898E+03  0.37520213898E+03  0.00000000000E+00 0.  1.
          2    1    1    2  501    0  0.82184208054E+01 -0.19025456462E+02  0.20764112271E+03  0.20867282112E+03  0.00000000000E+00 0.  1.
          2    1    1    2  502    0 -0.82184208054E+01  0.19025456462E+02 -0.37439970974E+03  0.37497286981E+03  0.00000000000E+00 0.  1.
</event>
<event>
 4    1  0.6136512E+003  0.2151253E+02  0.7546771E-02  0.1512072E+00
          2   -1    0    0  501    0  0.00000000000E+00  0.00000000000E+00  0.24516931054E+02  0.24516931054E+02  0.00000000000E+00 0.  1.
          2   -1    0    0  502    0 -0.00000000000E+00 -0.00000000000E+00 -0.57961771894E+03  0.57961771894E+03  0.00000000000E+00 0.  1.
          2    1    1    2  501    0  0.19314175197E+02  0.94737279316E+01 -0.57465832290E+03  0.57506084632E+03  0.00000000000E+00 0.  1.
          2    1    1    2  502    0 -0.19314175197E+02 -0.94737279316E+01  0.19557535016E+02  0.29073803679E+02  0.00000000000E+00 0.  1.
</event>
<event>
 4    1  0.6136512E+003  0.2046170E+02  0.7546771E-02  0.1527091E+00
          2   -1    0    0  502    0  0.00000000000E+00  0.00000000000E+00  0.32287515536E+01  0.32287515536E+01  0.00000000000E+00 0.  1.
          2   -1    0    0  501    0 -0.00000000000E+00 -0.00000000000E+00 -0.10978146669E+04  0.10978146669E+04  0.00000000000E+00 0.  1.
          2    1    1    2  501    0  0.10068687164E+02 -0.17812987436E+02 -0.30306157387E+02  0.36566981803E+02  0.00000000000E+00 0.  1.
          2    1    1    2  502    0 -0.10068687164E+02  0.17812987436E+02 -0.10642797580E+04  0.10644764367E+04  0.00000000000E+00 0.  1.
</event>
<event>
 4    1  0.6136512E+003  0.3525546E+02  0.7546771E-02  0.1378776E+00
          2   -1    0    0  502    0  0.00000000000E+00  0.00000000000E+00  0.69049255585E+01  0.69049255585E+01  0.00000000000E+00 0. -1.
          2   -1    0    0  501    0 -0.00000000000E+00 -0.00000000000E+00 -0.45996714862E+03  0.45996714862E+03  0.00000000000E+00 0.  1.
          2    1    1    2  501    0  0.24569218360E+02  0.25284394820E+02 -0.44413798463E+02  0.56705666438E+02  0.00000000000E+00 0. -1.
          2    1    1    2  502    0 -0.24569218360E+02 -0.25284394820E+02 -0.40864842460E+03  0.41016640774E+03  0.00000000000E+00 0.  1.
</event>
<event>
 4    1  0.6136512E+003  0.2219451E+02  0.7546771E-02  0.1502868E+00
          2   -1    0    0  502    0  0.00000000000E+00  0.00000000000E+00  0.34321412830E+03  0.34321412830E+03  0.00000000000E+00 0. -1.
          2   -1    0    0  501    0 -0.00000000000E+00 -0.00000000000E+00 -0.50072407155E+02  0.50072407155E+02  0.00000000000E+00 0. -1.
          2    1    1    2  501    0  0.16466976269E+02  0.14880690499E+02  0.34037540770E+03  0.34109824747E+03  0.00000000000E+00 0. -1.
          2    1    1    2  502    0 -0.16466976269E+02 -0.14880690499E+02 -0.47233686558E+02  0.52188287987E+02  0.00000000000E+00 0. -1.
</event>
<event>
 4    1  0.6136512E+003  0.2849476E+02  0.7546771E-02  0.1433144E+00
          2   -1    0    0  501    0  0.00000000000E+00  0.00000000000E+00  0.39139054122E+03  0.39139054122E+03  0.00000000000E+00 0.  1.
          2   -1    0    0  502    0 -0.00000000000E+00 -0.00000000000E+00 -0.86011234098E+02  0.86011234098E+02  0.00000000000E+00 0. -1.
          2    1    1    2  501    0 -0.23645216476E+02 -0.15901419613E+02 -0.83115015756E+02  0.87863856346E+02  0.00000000000E+00 0. -1.
          2    1    1    2  502    0  0.23645216476E+02  0.15901419613E+02  0.38849432288E+03  0.38953791897E+03  0.00000000000E+00 0.  1.
</event>
<event>
 4    1  0.6136512E+003  0.7038120E+02  0.7546771E-02  0.1228132E+00
          2   -1    0    0  501    0  0.00000000000E+00  0.00000000000E+00  0.33120779871E+03  0.33120779871E+03  0.00000000000E+00 0. -1.
          2   -1    0    0  502    0 -0.00000000000E+00 -0.00000000000E+00 -0.17781381900E+03  0.17781381900E+03  0.00000000000E+00 0.  1.
          2    1    1    2  501    0 -0.61873121264E+02  0.33544460410E+02 -0.16687531394E+03  0.18111014428E+03  0.00000000000E+00 0.  1.
          2    1    1    2  502    0  0.61873121264E+02 -0.33544460410E+02  0.32026929364E+03  0.32791147343E+03  0.00000000000E+00 0. -1.
</event>
<event>
 4    1  0.6136512E+003  0.2546740E+02  0.7546771E-02  0.1463642E+00
          2   -1    0    0  501    0  0.00000000000E+00  0.00000000000E+00  0.17681914618E+01  0.17681914618E+01  0.00000000000E+00 0. -1.
          2   -1    0    0  502    0 -0.00000000000E+00 -0.00000000000E+00 -0.16445279002E+04  0.16445279002E+04  0.00000000000E+00 0.  1.
          2    1    1    2  501    0 -0.24164530063E+02 -0.80413969104E+01 -0.15469426151E+04  0.15471522365E+04  0.00000000000E+00 0.  1.
          2    1    1    2  502    0  0.24164530063E+02  0.80413969104E+01 -0.95817093590E+02  0.99143855087E+02  0.00000000000E+00 0. -1.
</event>
<event>
 4    1  0.6136512E+003  0.2510688E+02  0.7546771E-02  0.1467611E+00
          2   -1    0    0  502    0  0.00000000000E+00  0.00000000000E+00  0.53774337616E+03  0.53774337616E+03  0.00000000000E+00 0. -1.
          2   -1    0    0  501    0 -0.00000000000E+00 -0.00000000000E+00 -0.22004571426E+01  0.22004571426E+01  0.00000000000E+00 0.  1.
          2    1    1    2  501    0  0.24849095423E+02 -0.35885806875E+01  0.45231889930E+03  0.45301516765E+03  0.00000000000E+00 0. -1.
          2    1    1    2  502    0 -0.24849095423E+02  0.35885806875E+01  0.83224019721E+02  0.86928665659E+02  0.00000000000E+00 0.  1.
</event>
<event>
 4    1  0.6136512E+003  0.2723114E+02  0.7546771E-02  0.1445300E+00
          2   -1    0    0  502    0  0.00000000000E+00  0.00000000000E+00  0.19533073289E+03  0.19533073289E+03  0.00000000000E+00 0. -1.
          2   -1    0    0  501    0 -0.00000000000E+00 -0.00000000000E+00 -0.39740835173E+01  0.39740835173E+01  0.00000000000E+00 0.  1.
          2    1    1    2  501    0  0.17911562495E+02 -0.20511235366E+02  0.11675538972E+03  0.11988893142E+03  0.00000000000E+00 0. -1.
          2    1    1    2  502    0 -0.17911562495E+02  0.20511235366E+02  0.74601259648E+02  0.79415884987E+02  0.00000000000E+00 0.  1.
</event>
<event>
 4    1  0.6136512E+003  0.2717333E+02  0.7546771E-02  0.1445875E+00
          2   -1    0    0  501    0  0.00000000000E+00  0.00000000000E+00  0.26650568103E+03  0.26650568103E+03  0.00000000000E+00 0.  1.
          2   -1    0    0  502    0 -0.00000000000E+00 -0.00000000000E+00 -0.55156028015E+01  0.55156028015E+01  0.00000000000E+00 0.  1.
          2    1    1    2  501    0 -0.26609243471E+02 -0.55079966812E+01  0.34545022094E+02  0.43951660003E+02  0.00000000000E+00 0.  1.
          2    1    1    2  502    0  0.26609243471E+02  0.55079966812E+01  0.22644505613E+03  0.22806962383E+03  0.00000000000E+00 0.  1.
</event>
<event>
 4    1  0.6136512E+003  0.6350821E+02  0.7546771E-02  0.1248357E+00
          2   -1    0    0  501    0  0.00000000000E+00  0.00000000000E+00  0.49669151872E+02  0.49669151872E+02  0.00000000000E+00 0. -1.
          2   -1    0    0  502    0 -0.00000000000E+00 -0.00000000000E+00 -0.23488407544E+03  0.23488407544E+03  0.00000000000E+00 0. -1.
          2    1    1    2  501    0  0.49632338620E+02  0.39622267830E+02 -0.20769191864E+03  0.21718477436E+03  0.00000000000E+00 0. -1.
          2    1    1    2  502    0 -0.49632338620E+02 -0.39622267830E+02  0.22476995079E+02  0.67368452948E+02  0.00000000000E+00 0. -1.
</event>
<event>
 4    1  0.6136512E+003  0.2023466E+02  0.7546771E-02  0.1530478E+00
          2   -1    0    0  502    0  0.00000000000E+00  0.00000000000E+00  0.74763407219E+03  0.74763407219E+03  0.00000000000E+00 0.  1.
          2   -1    0    0  501    0 -0.00000000000E+00 -0.00000000000E+00 -0.13060530371E+01  0.13060530371E+01  0.00000000000E+00 0. -1.
          2    1    1    2  501    0  0.15665629031E+02  0.12807408578E+02  0.65851986373E+03  0.65883067064E+03  0.00000000000E+00 0.  1.
          2    1    1    2  502    0 -0.15665629031E+02 -0.12807408578E+02  0.87808155424E+02  0.90109454589E+02  0.00000000000E+00 0. -1.
</event>
<event>
 4    1  0.6136512E+003  0.4120071E+02  0.7546771E-02  0.1341590E+00
          2   -1    0    0  502    0  0.00000000000E+00  0.00000000000E+00  0.10319081157E+03  0.10319081157E+03  0.00000000000E+00 0.  1.
          2   -1    0    0  501    0 -0.00000000000E+00 -0.00000000000E+00 -0.22611324022E+04  0.22611324022E+04  0.00000000000E+00 0.  1.
          2    1    1    2  501    0  0.38066775992E+02 -0.15761323139E+02  0.98882755484E+02  0.10712281771E+03  0.00000000000E+00 0.  1.
          2    1    1    2  502    0 -0.38066775992E+02  0.15761323139E+02 -0.22568243461E+04  0.22572003961E+04  0.00000000000E+00 0.  1.
</event>
<event>
 4    1  0.6136512E+003  0.9248406E+02  0.7546771E-02  0.1177510E+00
          2   -1    0    0  501    0  0.00000000000E+00  0.00000000000E+00  0.11700239220E+03  0.11700239220E+03  0.00000000000E+00 0.  1.
          2   -1    0    0  502    0 -0.00000000000E+00 -0.00000000000E+00 -0.91807703871E+03  0.91807703871E+03  0.00000000000E+00 0.  1.
          2    1    1    2  501    0 -0.61600790671E+02  0.68982926486E+02 -0.89704462131E+03  0.90179950886E+03  0.00000000000E+00 0.  1.
          2    1    1    2  502    0  0.61600790671E+02 -0.68982926486E+02  0.95969974797E+02  0.13327992205E+03  0.00000000000E+00 0.  1.
</event>
<event>
 4    1  0.6136512E+003  0.3184366E+02  0.7546771E-02  0.1404224E+00
          2   -1    0    0  502    0  0.00000000000E+00  0.00000000000E+00  0.29397186128E+02  0.29397186128E+02  0.00000000000E+00 0.  1.
          2   -1    0    0  501    0 -0.00000000000E+00 -0.00000000000E+00 -0.82397762908E+03  0.82397762908E+03  0.00000000000E+00 0. -1.
          2    1    1    2  501    0  0.29372559371E+02 -0.12299252829E+02  0.20370613098E+02  0.37801861623E+02  0.00000000000E+00 0.  1.
          2    1    1    2  502    0 -0.29372559371E+02  0.12299252829E+02 -0.81495105604E+03  0.81557295358E+03  0.00000000000E+00 0. -1.
</event>
<event>
 4    1  0.6136512E+003  0.2384474E+02  0.7546771E-02  0.1482155E+00
          2   -1    0    0  501    0  0.00000000000E+00  0.00000000000E+00  0.96894667531E+03  0.96894667531E+03  0.00000000000E+00 0.  1.
          2   -1    0    0  502    0 -0.00000000000E+00 -0.00000000000E+00 -0.14587576190E+02  0.14587576190E+02  0.00000000000E+00 0.  1.
          2    1    1    2  501    0 -0.23744678153E+02  0.21821636523E+01 -0.45952533223E+01  0.24283490933E+02  0.00000000000E+00 0.  1.
          2    1    1    2  502    0  0.23744678153E+02 -0.21821636523E+01  0.95895435244E+03  0.95925076057E+03  0.00000000000E+00 0.  1.
</event>
<event>
 4    1  0.6136512E+003  0.2424717E+02  0.7546771E-02  0.1477404E+00
          2   -1    0    0  501    0  0.00000000000E+00  0.00000000000E+00  0.18087111051E+02  0.18087111051E+02  0.00000000000E+00 0.  1.
          2   -1    0    0  502    0 -0.00000000000E+00 -0.00000000000E+00 -0.99285135576E+02  0.99285135576E+02  0.00000000000E+00 0. -1.
          2    1    1    2  501    0  0.32067159131E+01 -0.24034186040E+02 -0.88729061915E+02  0.91982452423E+02  0.00000000000E+00 0. -1.
          2    1    1    2  502    0 -0.32067159131E+01  0.24034186040E+02  0.75310373892E+01  0.25389794204E+02  0.00000000000E+00 0.  1.
</event>
<event>
 4    1  0.6136512E+003  0.7057521E+02  0.7546771E-02  0.1227599E+00
          2   -1    0    0  501    0  0.00000000000E+00  0.00000000000E+00  0.14981524718E+02  0.14981524718E+02  0.00000000000E+00 0. -1.
          2   -1    0    0  502    0 -0.00000000000E+00 -0.00000000000E+00 -0.33326633148E+03  0.33326633148E+03  0.00000000000E+00 0. -1.
          2    1    1    2  501    0  0.61765358522E+02 -0.34145290217E+02 -0.16767078191E+03  0.18191852974E+03  0.00000000000E+00 0. -1.
          2    1    1    2  502    0 -0.61765358522E+02  0.34145290217E+02 -0.15061402485E+03  0.16632932646E+03  0.00000000000E+00 0. -1.
</event>
<event>
 4    1  0.6136512E+003  0.2680178E+02  0.7546771E-02  0.1449609E+00
          2   -1    0    0  501    0  0.00000000000E+00  0.00000000000E+00  0.21316713676E+01  0.21316713676E+01  0.00000000000E+00 0. -1.
          2   -1    0    0  502    0 -0.00000000000E+00 -0.00000000000E+00 -0.93494229615E+03  0.93494229615E+03  0.00000000000E+00 0. -1.
          2    1    1    2  501    0 -0.45102537984E+01 -0.26419561220E+02 -0.84110861814E+03  0.84153552695E+03  0.00000000000E+00 0. -1.
          2    1    1    2  502    0  0.45102537984E+01  0.26419561220E+02 -0.91702006639E+02  0.95538440567E+02  0.00000000000E+00 0. -1.
</event>
<event>
 4    1  0.6136512E+003  0.3234166E+02  0.7546771E-02  0.1400282E+00
          2   -1    0    0  501    0  0.00000000000E+00  0.00000000000E+00  0.13220197494E+02  0.13220197494E+02  0.00000000000E+00 0.  1.
          2   -1    0    0  502    0 -0.00000000000E+00 -0.00000000000E+00 -0.12241516306E+04  0.12241516306E+04  0.00000000000E+00 0. -1.
          2    1    1    2  501    0 -0.29736894490E+02 -0.12716134197E+02 -0.12038240572E+04  0.12042584206E+04  0.00000000000E+00 0. -1.
          2    1    1    2  502    0  0.29736894490E+02  0.12716134197E+02 -0.71073759294E+01  0.33113407487E+02  0.00000000000E+00 0.  1.
</event>
<event>
 4    1  0.6136512E+003  0.5049187E+02  0.7546771E-02  0.1296054E+00
          2   -1    0    0  502    0  0.00000000000E+00  0.00000000000E+00  0.30481571029E+03  0.30481571029E+03  0.00000000000E+00 0.  1.
          2   -1    0    0  501    0 -0.00000000000E+00 -0.00000000000E+00 -0.17528229414E+03  0.17528229414E+03  0.00000000000E+00 0.  1.
          2    1    1    2  501    0 -0.44981179032E+02 -0.22937358810E+02  0.29901857551E+03  0.30325160741E+03  0.00000000000E+00 0.  1.
          2    1    1    2  502    0  0.44981179032E+02  0.22937358810E+02 -0.16948515936E+03  0.17684639702E+03  0.00000000000E+00 0.  1.
</event>
<event>
 4    1  0.6136512E+003  0.2482975E+02  0.7546771E-02  0.1470717E+00
          2   -1    0    0  502    0  0.00000000000E+00  0.00000000000E+00  0.73557266161E+02  0.73557266161E+02  0.00000000000E+00 0.  1.
          2   -1    0    0  501    0 -0.00000000000E+00 -0.00000000000E+00 -0.31824931068E+02  0.31824931068E+02  0.00000000000E+00 0.  1.
          2    1    1    2  501    0 -0.24511838883E+02  0.39605815379E+01  0.66089710141E+02  0.70600044179E+02  0.00000000000E+00 0.  1.
          2    1    1    2  502    0  0.24511838883E+02 -0.39605815379E+01 -0.24357375048E+02  0.34782153050E+02  0.00000000000E+00 0.  1.
</event>
<event>
 4    1  0.6136512E+003  0.5381227E+02  0.7546771E-02  0.1282439E+00
          2   -1    0    0  501    0  0.00000000000E+00  0.00000000000E+00  0.29218518005E+01  0.29218518005E+01  0.00000000000E+00 0. -1.
          2   -1    0    0  502    0 -0.00000000000E+00 -0.00000000000E+00 -0.31307551591E+04  0.31307551591E+04  0.00000000000E+00 0. -1.
          2    1    1    2  501    0 -0.53470061856E+02  0.60591295102E+01 -0.28592292514E+04  0.28597355949E+04  0.00000000000E+00 0. -1.
          2    1    1    2  502    0  0.53470061856E+02 -0.60591295102E+01 -0.26860405590E+03  0.27394141602E+03  0.00000000000E+00 0. -1.
</event>
<event>
 4    1  0.6136512E+003  0.2528734E+02  0.7546771E-02  0.1465614E+00
          2   -1    0    0  501    0  0.00000000000E+00  0.00000000000E+00  0.83476609063E+02  0.83476609063E+02  0.00000000000E+00 0.  1.
          2   -1    0    0  502    0 -0.00000000000E+00 -0.00000000000E+00 -0.12389823408E+04  0.12389823408E+04  0.00000000000E+00 0. -1.
          2    1    1    2  501    0 -0.52777501874E+01 -0.24730446543E+02 -0.12369350880E+04  0.12371935425E+04  0.00000000000E+00 0. -1.
          2    1    1    2  502    0  0.52777501874E+01  0.24730446543E+02  0.81429356266E+02  0.85265407377E+02  0.00000000000E+00 0.  1.
</event>
<event>
 4    1  0.6136512E+003  0.5557353E+02  0.7546771E-02  0.1275662E+00
          2   -1    0    0  502    0  0.00000000000E+00  0.00000000000E+00  0.66282663863E+01  0.66282663863E+01  0.00000000000E+00 0. -1.
          2   -1    0    0  501    0 -0.00000000000E+00 -0.00000000000E+00 -0.67669121271E+03  0.67669121271E+03  0.00000000000E+00 0.  1.
          2    1    1    2  501    0 -0.21944020241E+02 -0.51057586129E+02 -0.14436385441E+03  0.15469111023E+03  0.00000000000E+00 0. -1.
          2    1    1    2  502    0  0.21944020241E+02  0.51057586129E+02 -0.52569909192E+03  0.52862836887E+03  0.00000000000E+00 0.  1.
</event>
<event>
 4    1  0.6136512E+003  0.3582629E+02  0.7546771E-02  0.1374845E+00
          2   -1    0    0  501    0  0.00000000000E+00  0.00000000000E+00  0.52292850201E+03  0.52292850201E+03  0.00000000000E+00 0. -1.
          2   -1    0    0  502    0 -0.00000000000E+00 -0.00000000000E+00 -0.27679746895E+01  0.27679746895E+01  0.00000000000E+00 0. -1.
          2    1    1    2  501    0 -0.31913345250E+02  0.16280714495E+02  0.34853712609E+03  0.35037358852E+03  0.00000000000E+00 0. -1.
          2    1    1    2  502    0  0.31913345250E+02 -0.16280714495E+02  0.17162340122E+03  0.17532288817E+03  0.00000000000E+00 0. -1.
</event>
<event>
 4    1  0.6136512E+003  0.4143873E+02  0.7546771E-02  0.1340255E+00
          2   -1    0    0  502    0  0.00000000000E+00  0.00000000000E+00  0.19954449703E+01  0.19954449703E+01  0.00000000000E+00 0.  1.
          2   -1    0    0  501    0 -0.00000000000E+00 -0.00000000000E+00 -0.10640754990E+04  0.10640754990E+04  0.00000000000E+00 0. -1.
          2    1    1    2  501    0  0.39858413242E+02 -0.11334707488E+02 -0.76416319471E+03  0.76528593143E+03  0.00000000000E+00 0. -1.
          2    1    1    2  502    0 -0.39858413242E+02  0.11334707488E+02 -0.29791685931E+03  0.30078501253E+03  0.00000000000E+00 0.  1.
</event>
<event>
 4    1  0.6136512E+003  0.2134192E+02  0.7546771E-02  0.1514439E+00
          2   -1    0    0  501    0  0.00000000000E+00  0.00000000000E+00  0.11146775091E+04  0.11146775091E+04  0.00000000000E+00 0. -1.
          2   -1    0    0  502    0 -0.00000000000E+00 -0.00000000000E+00 -0.12175166778E+02  0.12175166778E+02  0.00000000000E+00 0.  1.
          2    1    1    2  501    0  0.16864084654E+02  0.13079767017E+02 -0.26397273701E+01  0.21504553402E+02  0.00000000000E+00 0.  1.
          2    1    1    2  502    0 -0.16864084654E+02 -0.13079767017E+02  0.11051420697E+04  0.11053481225E+04  0.00000000000E+00 0. -1.
</event>
<event>
 4    1  0.6136512E+003  0.2444423E+02  0.7546771E-02  0.1475118E+00
          2   -1    0    0  502    0  0.00000000000E+00  0.00000000000E+00  0.16930101083E+04  0.16930101083E+04  0.00000000000E+00 0. -1.
          2   -1    0    0  501    0 -0.00000000000E+00 -0.00000000000E+00 -0.60938117724E+01  0.60938117724E+01  0.00000000000E+00 0. -1.
          2    1    1    2  501    0 -0.21668164101E+01 -0.24348003060E+02  0.16680415519E+04  0.16682206506E+04  0.00000000000E+00 0. -1.
          2    1    1    2  502    0  0.21668164101E+01  0.24348003060E+02  0.18874744632E+02  0.30883269440E+02  0.00000000000E+00 0. -1.
</event>
<event>
 4    1  0.6136512E+003  0.4262250E+02  0.7546771E-02  0.1333767E+00
          2   -1    0    0  502    0  0.00000000000E+00  0.00000000000E+00  0.18139979969E+03  0.18139979969E+03  0.00000000000E+00 0.  1.
          2   -1    0    0  501    0 -0.00000000000E+00 -0.00000000000E+00 -0.17782711383E+03  0.17782711383E+03  0.00000000000E+00 0. -1.
          2    1    1    2  501    0  0.13280877178E+02  0.40500565107E+02  0.17626882533E+03  0.18134876966E+03  0.00000000000E+00 0.  1.
          2    1    1    2  502    0 -0.13280877178E+02 -0.40500565107E+02 -0.17269613948E+03  0.17787814386E+03  0.00000000000E+00 0. -1.
</event>
<event>
 4    1  0.6136512E+003  0.2351917E+02  0.7546771E-02  0.1486080E+00
          2   -1    0    0  501    0  0.00000000000E+00  0.00000000000E+00  0.13174205032E+03  0.13174205032E+03  0.00000000000E+00 0.  1.
          2   -1    0    0  502    0 -0.00000000000E+00 -0.00000000000E+00 -0.16032811337E+04  0.16032811337E+04  0.00000000000E+00 0.  1.
          2    1    1    2  501    0 -0.19972086611E+02  0.12420430773E+02 -0.16021444496E+04  0.16023170687E+04  0.00000000000E+00 0.  1.
          2    1    1    2  502    0  0.19972086611E+02 -0.12420430773E+02  0.13060536624E+03  0.13270611528E+03  0.00000000000E+00 0.  1.
</event>
<event>
 4    1  0.6136512E+003  0.3763672E+02  0.7546771E-02  0.1362920E+00
          2   -1    0    0  501    0  0.00000000000E+00  0.00000000000E+00  0.23770833530E+04  0.23770833530E+04  0.00000000000E+00 0. -1.
          2   -1    0    0  502    0 -0.00000000000E+00 -0.00000000000E+00 -0.77218474219E+02  0.77218474219E+02  0.00000000000E+00 0.  1.
          2    1    1    2  501    0  0.28568678605E+02 -0.24502105012E+02 -0.72474239577E+02  0.81664177885E+02  0.00000000000E+00 0.  1.
          2    1    1    2  502    0 -0.28568678605E+02  0.24502105012E+02  0.23723391184E+04  0.23726376493E+04  0.00000000000E+00 0. -1.
</event>
<event>
 4    1  0.6136512E+003  0.3488443E+02  0.7546771E-02  0.1381378E+00
          2   -1    0    0  501    0  0.00000000000E+00  0.00000000000E+00  0.14987329743E+04  0.14987329743E+04  0.00000000000E+00 0.  1.
          2   -1    0    0  502    0 -0.00000000000E+00 -0.00000000000E+00 -0.32923599864E+01  0.32923599864E+01  0.00000000000E+00 0. -1.
          2    1    1    2  501    0  0.29311382235E+02  0.18914712401E+02  0.95861181950E+02  0.10201122330E+03  0.00000000000E+00 0. -1.
          2    1    1    2  502    0 -0.29311382235E+02 -0.18914712401E+02  0.13995794323E+04  0.14000141110E+04  0.00000000000E+00 0.  1.
</event>
<event>
 4    1  0.6136512E+003  0.3510307E+02  0.7546771E-02  0.1379840E+00
          2   -1    0    0  501    0  0.00000000000E+00  0.00000000000E+00  0.25419959653E+04  0.25419959653E+04  0.00000000000E+00 0. -1.
          2   -1    0    0  502    0 -0.00000000000E+00 -0.00000000000E+00 -0.37708006549E+01  0.37708006549E+01  0.00000000000E+00 0. -1.
          2    1    1    2  501    0  0.34164399841E+02 -0.80634633371E+01  0.80858989780E+02  0.88149883073E+02  0.00000000000E+00 0. -1.
          2    1    1    2  502    0 -0.34164399841E+02  0.80634633371E+01  0.24573661748E+04  0.24576168828E+04  0.00000000000E+00 0. -1.
</event>
<event>
 4    1  0.6136512E+003  0.2228191E+02  0.7546771E-02  0.1501718E+00
          2   -1    0    0  501    0  0.00000000000E+00  0.00000000000E+00  0.12702624698E+02  0.12702624698E+02  0.00000000000E+00 0. -1.
          2   -1    0    0  502    0 -0.00000000000E+00 -0.00000000000E+00 -0.61658540296E+02  0.61658540296E+02  0.00000000000E+00 0. -1.
          2    1    1    2  501    0  0.18918817037E+02 -0.11771234919E+02 -0.46974628672E+02  0.51991339168E+02  0.00000000000E+00 0. -1.
          2    1    1    2  502    0 -0.18918817037E+02  0.11771234919E+02 -0.19812869265E+01  0.22369825826E+02  0.00000000000E+00 0. -1.
</event>
<event>
 4    1  0.6136512E+003  0.2657885E+02  0.7546771E-02  0.1451885E+00
          2   -1    0    0  502    0  0.00000000000E+00  0.00000000000E+00  0.45145881692E+02  0.45145881692E+02  0.00000000000E+00 0. -1.
          2   -1    0    0  501    0 -0.00000000000E+00 -0.00000000000E+00 -0.18870228184E+03  0.18870228184E+03  0.00000000000E+00 0. -1.
          2    1    1    2  501    0 -0.67348016768E+01  0.25711427509E+02  0.40193115472E+02  0.48186321602E+02  0.00000000000E+00 0. -1.
          2    1    1    2  502    0  0.67348016768E+01 -0.25711427509E+02 -0.18374951562E+03  0.18566184193E+03  0.00000000000E+00 0. -1.
</event>
<event>
 4    1  0.6136512E+003  0.2842380E+02  0.7546771E-02  0.1433807E+00
          2   -1    0    0  502    0  0.00000000000E+00  0.00000000000E+00  0.40903044392E+03  0.40903044392E+03  0.00000000000E+00 0. -1.
          2   -1    0    0  501    0 -0.00000000000E+00 -0.00000000000E+00 -0.15070549680E+03  0.15070549680E+03  0.00000000000E+00 0. -1.
          2    1    1    2  501    0 -0.28089699267E+02 -0.43452182777E+01  0.40719038112E+03  0.40818123255E+03  0.00000000000E+00 0. -1.
          2    1    1    2  502    0  0.28089699267E+02  0.43452182777E+01 -0.14886543401E+03  0.15155470817E+03  0.00000000000E+00 0. -1.
</event>
<event>
 4    1  0.6136512E+003  0.2551351E+02  0.7546771E-02  0.1463140E+00
          2   -1    0    0  502    0  0.00000000000E+00  0.00000000000E+00  0.31238878587E+02  0.31238878587E+02  0.00000000000E+00 0. -1.
          2   -1    0    0  501    0 -0.00000000000E+00 -0.00000000000E+00 -0.44673463653E+02  0.44673463653E+02  0.00000000000E+00 0.  1.
          2    1    1    2  501    0  0.25486625256E+02 -0.11710519215E+01  0.21007872842E+02  0.33049510600E+02  0.00000000000E+00 0. -1.
          2    1    1    2  502    0 -0.25486625256E+02  0.11710519215E+01 -0.34442457907E+02  0.42862831640E+02  0.00000000000E+00 0.  1.
</event>
<event>
 4    1  0.6136512E+003  0.2015290E+02  0.7546771E-02  0.1531711E+00
          2   -1    0    0  502    0  0.00000000000E+00  0.00000000000E+00  0.26334437595E+00  0.26334437595E+00  0.00000000000E+00 0.  1.
          2   -1    0    0  501    0 -0.00000000000E+00 -0.00000000000E+00 -0.18900642299E+04  0.18900642299E+04  0.00000000000E+00 0. -1.
          2    1    1    2  501    0 -0.16283586098E+02 -0.11873675537E+02 -0.53943784119E+03  0.53981415678E+03  0.00000000000E+00 0.  1.
          2    1    1    2  502    0  0.16283586098E+02  0.11873675537E+02 -0.13503630443E+04  0.13505134175E+04  0.00000000000E+00 0. -1.
</event>
<event>
 4    1  0.6136512E+003  0.2284117E+02  0.7546771E-02  0.1494502E+00
          2   -1    0    0  502    0  0.00000000000E+00  0.00000000000E+00  0.19393197426E+02  0.19393197426E+02  0.00000000000E+00 0. -1.
          2   -1    0    0  501    0 -0.00000000000E+00 -0.00000000000E+00 -0.26952050240E+02  0.26952050240E+02  0.00000000000E+00 0. -1.
          2    1    1    2  501    0  0.19589721030E+02 -0.11745717313E+02 -0.27825196775E+01  0.23010029573E+02  0.00000000000E+00 0. -1.
          2    1    1    2  502    0 -0.19589721030E+02  0.11745717313E+02 -0.47763331360E+01  0.23335218093E+02  0.00000000000E+00 0. -1.
</event>
<event>
 4    1  0.6136512E+003  0.7336328E+02  0.7546771E-02  0.1220154E+00
          2   -1    0    0  501    0  0.00000000000E+00  0.00000000000E+00  0.24907291886E+01  0.24907291886E+01  0.00000000000E+00 0. -1.
          2   -1    0    0  502    0 -0.00000000000E+00 -0.00000000000E+00 -0.24111986203E+04  0.24111986203E+04  0.00000000000E+00 0. -1.
          2    1    1    2  501    0 -0.39387730371E+02  0.61893278199E+02 -0.15932020314E+04  0.15948902420E+04  0.00000000000E+00 0. -1.
          2    1    1    2  502    0  0.39387730371E+02 -0.61893278199E+02 -0.81550585970E+03  0.81879910747E+03  0.00000000000E+00 0. -1.
</event>
<event>
 4    1  0.6136512E+003  0.3465451E+02  0.7546771E-02  0.1383008E+00
          2   -1    0    0  502    0  0.00000000000E+00  0.00000000000E+00  0.63379076416E+03  0.63379076416E+03  0.00000000000E+00 0.  1.
          2   -1    0    0  501    0 -0.00000000000E+00 -0.00000000000E+00 -0.27458912772E+02  0.27458912772E+02  0.00000000000E+00 0.  1.
          2    1    1    2  501    0 -0.34626020145E+02 -0.14048667477E+01  0.62217922825E+03  0.62314358457E+03  0.00000000000E+00 0.  1.
          2    1    1    2  502    0  0.34626020145E+02  0.14048667477E+01 -0.15847376864E+02  0.38106092362E+02  0.00000000000E+00 0.  1.
</event>
<event>
 4    1  0.6136512E+003  0.3724229E+02  0.7546771E-02  0.1365450E+00
          2   -1    0    0  502    0  0.00000000000E+00  0.00000000000E+00  0.10995234412E+02  0.10995234412E+02  0.00000000000E+00 0.  1.
          2   -1    0    0  501    0 -0.00000000000E+00 -0.00000000000E+00 -0.10789222519E+04  0.10789222519E+04  0.00000000000E+00 0. -1.
          2    1    1    2  501    0  0.13511632885E+02  0.34704809572E+02 -0.21852207545E+02  0.43179937532E+02  0.00000000000E+00 0.  1.
          2    1    1    2  502    0 -0.13511632885E+02 -0.34704809572E+02 -0.10460748099E+04  0.10467375488E+04  0.00000000000E+00 0. -1.
</event>
<event>
 4    1  0.6136512E+003  0.2073166E+02  0.7546771E-02  0.1523131E+00
          2   -1    0    0  502    0  0.00000000000E+00  0.00000000000E+00  0.85963152969E+02  0.85963152969E+02  0.00000000000E+00 0. -1.
          2   -1    0    0  501    0 -0.00000000000E+00 -0.00000000000E+00 -0.57230125022E+01  0.57230125022E+01  0.00000000000E+00 0.  1.
          2    1    1    2  501    0 -0.25733978477E+01  0.20571327071E+02  0.56416140809E+02  0.60104765349E+02  0.00000000000E+00 0. -1.
          2    1    1    2  502    0  0.25733978477E+01 -0.20571327071E+02  0.23823999658E+02  0.31581400122E+02  0.00000000000E+00 0.  1.
</event>
<event>
 4    1  0.6136512E+003  0.2918587E+02  0.7546771E-02  0.1426806E+00
          2   -1    0    0  501    0  0.00000000000E+00  0.00000000000E+00  0.10144860472E+03  0.10144860472E+03  0.00000000000E+00 0. -1.
          2   -1    0    0  502    0 -0.00000000000E+00 -0.00000000000E+00 -0.45465862329E+03  0.45465862329E+03  0.00000000000E+00 0.  1.
          2    1    1    2  501    0 -0.23815595295E+02  0.16871051038E+02 -0.45207914764E+03  0.45302027623E+03  0.00000000000E+00 0.  1.
          2    1    1    2  502    0  0.23815595295E+02 -0.16871051038E+02  0.98869129076E+02  0.10308695178E+03  0.00000000000E+00 0. -1.
</event>
<event>
 4    1  0.6136512E+003  0.2497271E+02  0.7546771E-02  0.1469109E+00
          2   -1    0    0  501    0  0.00000000000E+00  0.00000000000E+00  0.77961187130E+03  0.77961187130E+03  0.00000000000E+00 0.  1.
          2   -1    0    0  502    0 -0.00000000000E+00 -0.00000000000E+00 -0.11576071837E+01  0.11576071837E+01  0.00000000000E+00 0.  1.
          2    1    1    2  501    0  0.85167365797E+01  0.23475554214E+02  0.17222866904E+03  0.17402974139E+03  0.00000000000E+00 0.  1.
          2    1    1    2  502    0 -0.85167365797E+01 -0.23475554214E+02  0.60622559508E+03  0.60673973710E+03  0.00000000000E+00 0.  1.
</event>
<event>
 4    1  0.6136512E+003  0.2272742E+02  0.7546771E-02  0.1495950E+00
          2   -1    0    0  501    0  0.00000000000E+00  0.00000000000E+00  0.12361074428E+04  0.12361074428E+04  0.00000000000E+00 0. -1.
          2   -1    0    0  502    0 -0.00000000000E+00 -0.00000000000E+00 -0.41818557301E+00  0.41818557301E+00  0.00000000000E+00 0. -1.
          2    1    1    2  501    0  0.39341206524E+01 -0.22384334953E+02  0.63475134239E+03  0.63515809247E+03  0.00000000000E+00 0. -1.
          2    1    1    2  502    0 -0.39341206524E+01  0.22384334953E+02  0.60093791481E+03  0.60136753588E+03  0.00000000000E+00 0. -1.
</event>
<event>
 4    1  0.6136512E+003  0.1236265E+03  0.7546771E-02  0.1128197E+00
          2   -1    0    0  502    0  0.00000000000E+00  0.00000000000E+00  0.26453404774E+03  0.26453404774E+03  0.00000000000E+00 0.  1.
          2   -1    0    0  501    0 -0.00000000000E+00 -0.00000000000E+00 -0.16156843504E+03  0.16156843504E+03  0.00000000000E+00 0.  1.
          2    1    1    2  501    0 -0.11626404005E+03  0.42025989311E+02  0.22224444281E+03  0.25431496839E+03  0.00000000000E+00 0.  1.
          2    1    1    2  502    0  0.11626404005E+03 -0.42025989311E+02 -0.11927883011E+03  0.17178751439E+03  0.00000000000E+00 0.  1.
</event>
<event>
 4    1  0.6136512E+003  0.2555438E+02  0.7546771E-02  0.1462696E+00
          2   -1    0    0  502    0  0.00000000000E+00  0.00000000000E+00  0.28765976802E+01  0.28765976802E+01  0.00000000000E+00 0.  1.
          2   -1    0    0  501    0 -0.00000000000E+00 -0.00000000000E+00 -0.24899835967E+03  0.24899835967E+03  0.00000000000E+00 0.  1.
          2    1    1    2  501    0  0.16882760396E+02 -0.19183295226E+02 -0.85639576733E+02  0.89370932172E+02  0.00000000000E+00 0.  1.
          2    1    1    2  502    0 -0.16882760396E+02  0.19183295226E+02 -0.16048218525E+03  0.16250402518E+03  0.00000000000E+00 0.  1.
</event>
<event>
 4    1  0.6136512E+003  0.2281051E+02  0.7546771E-02  0.1494891E+00
          2   -1    0    0  502    0  0.00000000000E+00  0.00000000000E+00  0.42026779739E+03  0.42026779739E+03  0.00000000000E+00 0.  1.
          2   -1    0    0  501    0 -0.00000000000E+00 -0.00000000000E+00 -0.22188379067E+02  0.22188379067E+02  0.00000000000E+00 0. -1.
          2    1    1    2  501    0  0.18868894170E+02  0.12817345169E+02  0.41400717203E+03  0.41463509016E+03  0.00000000000E+00 0.  1.
          2    1    1    2  502    0 -0.18868894170E+02 -0.12817345169E+02 -0.15927753706E+02  0.27821086292E+02  0.00000000000E+00 0. -1.
</event>
<event>
 4    1  0.6136512E+003  0.2410365E+02  0.7546771E-02  0.1479086E+00
          2   -1    0    0  502    0  0.00000000000E+00  0.00000000000E+00  0.59389686016E+03  0.59389686016E+03  0.00000000000E+00 0. -1.
          2   -1    0    0  501    0 -0.00000000000E+00 -0.00000000000E+00 -0.12143211258E+01  0.12143211258E+01  0.00000000000E+00 0. -1.
          2    1    1    2  501    0 -0.13329193246E+02  0.20082788099E+02  0.42753504279E+03  0.42821396356E+03  0.00000000000E+00 0. -1.
          2    1    1    2  502    0  0.13329193246E+02 -0.20082788099E+02  0.16514749625E+03  0.16689721773E+03  0.00000000000E+00 0. -1.
</event>
<event>
 4    1  0.6136512E+003  0.2068426E+02  0.7546771E-02  0.1523821E+00
          2   -1    0    0  501    0  0.00000000000E+00  0.00000000000E+00  0.95361680302E+00  0.95361680302E+00  0.00000000000E+00 0.  1.
          2   -1    0    0  502    0 -0.00000000000E+00 -0.00000000000E+00 -0.11862380118E+04  0.11862380118E+04  0.00000000000E+00 0.  1.
          2    1    1    2  501    0  0.10891045140E+02  0.17584757398E+02 -0.10607138468E+04  0.10609155024E+04  0.00000000000E+00 0.  1.
          2    1    1    2  502    0 -0.10891045140E+02 -0.17584757398E+02 -0.12457054827E+03  0.12627612622E+03  0.00000000000E+00 0.  1.
</event>
<event>
 4    1  0.6136512E+003  0.2510805E+02  0.7546771E-02  0.1467598E+00
          2   -1    0    0  501    0  0.00000000000E+00  0.00000000000E+00  0.14118846350E+03  0.14118846350E+03  0.00000000000E+00 0. -1.
          2   -1    0    0  502    0 -0.00000000000E+00 -0.00000000000E+00 -0.30986437200E+02  0.30986437200E+02  0.00000000000E+00 0. -1.
          2    1    1    2  501    0 -0.97658785707E+01 -0.23130966464E+02 -0.24542812992E+02  0.35110734305E+02  0.00000000000E+00 0. -1.
          2    1    1    2  502    0  0.97658785707E+01  0.23130966464E+02  0.13474483930E+03  0.13706416640E+03  0.00000000000E+00 0. -1.
</event>
<event>
 4    1  0.6136512E+003  0.2175702E+02  0.7546771E-02  0.1508725E+00
          2   -1    0    0  501    0  0.00000000000E+00  0.00000000000E+00  0.34282821479E+02  0.34282821479E+02  0.00000000000E+00 0.  1.
          2   -1    0    0  502    0 -0.00000000000E+00 -0.00000000000E+00 -0.68390840631E+02  0.68390840631E+02  0.00000000000E+00 0.  1.
          2    1    1    2  501    0 -0.21716975277E+02  0.13193938331E+01 -0.62916669761E+02  0.66572330207E+02  0.00000000000E+00 0.  1.
          2    1    1    2  502    0  0.21716975277E+02 -0.13193938331E+01  0.28808650609E+02  0.36101331903E+02  0.00000000000E+00 0.  1.
</event>
<event>
 4    1  0.6136512E+003  0.3500907E+02  0.7546771E-02  0.1380499E+00
          2   -1    0    0  501    0  0.00000000000E+00  0.00000000000E+00  0.12025576860E+03  0.12025576860E+03  0.00000000000E+00 0. -1.
          2   -1    0    0  502    0 -0.00000000000E+00 -0.00000000000E+00 -0.27452676506E+02  0.27452676506E+02  0.00000000000E+00 0. -1.
          2    1    1    2  501    0 -0.34734817248E+02 -0.43735154270E+01 -0.12160077367E+02  0.37060796646E+02  0.00000000000E+00 0. -1.
          2    1    1    2  502    0  0.34734817248E+02  0.43735154270E+01  0.10496316946E+03  0.11064764846E+03  0.00000000000E+00 0. -1.
</event>
<event>
 4    1  0.6136512E+003  0.3302607E+02  0.7546771E-02  0.1394998E+00
          2   -1    0    0  502    0  0.00000000000E+00  0.00000000000E+00  0.95389174108E+02  0.95389174108E+02  0.00000000000E+00 0.  1.
          2   -1    0    0  501    0 -0.00000000000E+00 -0.00000000000E+00 -0.21365500212E+04  0.21365500212E+04  0.00000000000E+00 0.  1.
          2    1    1    2  501    0  0.78013240862E+01 -0.32091440687E+02  0.92398932958E+02  0.98123819914E+02  0.00000000000E+00 0.  1.
          2    1    1    2  502    0 -0.78013240862E+01  0.32091440687E+02 -0.21335597801E+04  0.21338153754E+04  0.00000000000E+00 0.  1.
</event>
<event>
 4    1  0.6136512E+003  0.6322239E+02  0.7546771E-02  0.1249260E+00
          2   -1    0    0  502    0  0.00000000000E+00  0.00000000000E+00  0.96996100862E+01  0.96996100862E+01  0.00000000000E+00 0. -1.
          2   -1    0    0  501    0 -0.00000000000E+00 -0.00000000000E+00 -0.16096005435E+04  0.16096005435E+04  0.00000000000E+00 0.  1.
          2    1    1    2  501    0 -0.48730680433E+02 -0.40278915809E+02 -0.10159141695E+03  0.11965737032E+03  0.00000000000E+00 0. -1.
          2    1    1    2  502    0  0.48730680433E+02  0.40278915809E+02 -0.14983095165E+04  0.14996427833E+04  0.00000000000E+00 0.  1.
</event>
<event>
 4    1  0.6136512E+003  0.2044301E+02  0.7546771E-02  0.1527368E+00
          2   -1    0    0  502    0  0.00000000000E+00  0.00000000000E+00  0.16905831376E+03  0.16905831376E+03  0.00000000000E+00 0. -1.
          2   -1    0    0  501    0 -0.00000000000E+00 -0.00000000000E+00 -0.79177893010E+01  0.79177893010E+01  0.00000000000E+00 0.  1.
          2    1    1    2  501    0  0.11786424803E+02 -0.16703203900E+02  0.15395605254E+03  0.15530738212E+03  0.00000000000E+00 0. -1.
          2    1    1    2  502    0 -0.11786424803E+02  0.16703203900E+02  0.71844719230E+01  0.21668720936E+02  0.00000000000E+00 0.  1.
</event>
<event>
 4    1  0.6136512E+003  0.3426481E+02  0.7546771E-02  0.1385807E+00
          2   -1    0    0  501    0  0.00000000000E+00  0.00000000000E+00  0.16252209637E+01  0.16252209637E+01  0.00000000000E+00 0.  1.
          2   -1    0    0  502    0 -0.00000000000E+00 -0.00000000000E+00 -0.10593838387E+04  0.10593838387E+04  0.00000000000E+00 0.  1.
          2    1    1    2  501    0  0.22262012549E+02 -0.26047652709E+02 -0.82807815043E+03  0.82878676427E+03  0.00000000000E+00 0.  1.
          2    1    1    2  502    0 -0.22262012549E+02  0.26047652709E+02 -0.22968046728E+03  0.23222229536E+03  0.00000000000E+00 0.  1.
</event>
<event>
 4    1  0.6136512E+003  0.2198023E+02  0.7546771E-02  0.1505716E+00
          2   -1    0    0  502    0  0.00000000000E+00  0.00000000000E+00  0.27504965532E+03  0.27504965532E+03  0.00000000000E+00 0.  1.
          2   -1    0    0  501    0 -0.00000000000E+00 -0.00000000000E+00 -0.47175459117E+02  0.47175459117E+02  0.00000000000E+00 0. -1.
          2    1    1    2  501    0  0.21972951494E+02 -0.56567015447E+00  0.27202178736E+03  0.27290837909E+03  0.00000000000E+00 0.  1.
          2    1    1    2  502    0 -0.21972951494E+02  0.56567015447E+00 -0.44147591157E+02  0.49316735345E+02  0.00000000000E+00 0. -1.
</event>
<event>
 4    1  0.6136512E+003  0.2552270E+02  0.7546771E-02  0.1463040E+00
          2   -1    0    0  501    0  0.00000000000E+00  0.00000000000E+00  0.19354025318E+04  0.19354025318E+04  0.00000000000E+00 0. -1.
          2   -1    0    0  502    0 -0.00000000000E+00 -0.00000000000E+00 -0.35485226930E+00  0.35485226930E+00  0.00000000000E+00 0. -1.
          2    1    1    2  501    0  0.24484010735E+02  0.72070320354E+01  0.74786287785E+03  0.74829826417E+03  0.00000000000E+00 0. -1.
          2    1    1    2  502    0 -0.24484010735E+02 -0.72070320354E+01  0.11871848017E+04  0.11874591199E+04  0.00000000000E+00 0. -1.
</event>
<event>
 4    1  0.6136512E+003  0.2204134E+02  0.7546771E-02  0.1504900E+00
          2   -1    0    0  502    0  0.00000000000E+00  0.00000000000E+00  0.17449682504E+01  0.17449682504E+01  0.00000000000E+00 0.  1.
          2   -1    0    0  501    0 -0.00000000000E+00 -0.00000000000E+00 -0.14595535852E+04  0.14595535852E+04  0.00000000000E+00 0.  1.
          2    1    1    2  501    0  0.20782485255E+02 -0.73422881627E+01 -0.71625192041E+02  0.74939902747E+02  0.00000000000E+00 0.  1.
          2    1    1    2  502    0 -0.20782485255E+02  0.73422881627E+01 -0.13861834249E+04  0.13863586507E+04  0.00000000000E+00 0.  1.
</event>
<event>
 4    1  0.6136512E+003  0.2306327E+02  0.7546771E-02  0.1491705E+00
          2   -1    0    0  501    0  0.00000000000E+00  0.00000000000E+00  0.19436651958E+03  0.19436651958E+03  0.00000000000E+00 0.  1.
          2   -1    0    0  502    0 -0.00000000000E+00 -0.00000000000E+00 -0.59018567547E+01  0.59018567547E+01  0.00000000000E+00 0. -1.
          2    1    1    2  501    0  0.23026106047E+02 -0.13088405865E+01  0.20901169589E+02  0.31125126723E+02  0.00000000000E+00 0. -1.
          2    1    1    2  502    0 -0.23026106047E+02  0.13088405865E+01  0.16756349323E+03  0.16914324961E+03  0.00000000000E+00 0.  1.
</event>
<event>
 4    1  0.6136512E+003  0.2638150E+02  0.7546771E-02  0.1453922E+00
          2   -1    0    0  501    0  0.00000000000E+00  0.00000000000E+00  0.32060203172E+03  0.32060203172E+03  0.00000000000E+00 0.  1.
          2   -1    0    0  502    0 -0.00000000000E+00 -0.00000000000E+00 -0.25968577049E+02  0.25968577049E+02  0.00000000000E+00 0.  1.
          2    1    1    2  501    0  0.17101590975E+01  0.26326016648E+02 -0.18567562450E+02  0.32260473835E+02  0.00000000000E+00 0.  1.
          2    1    1    2  502    0 -0.17101590975E+01 -0.26326016648E+02  0.31320101712E+03  0.31431013493E+03  0.00000000000E+00 0.  1.
</event>
<event>
 4    1  0.6136512E+003  0.2556942E+02  0.7546771E-02  0.1462533E+00
          2   -1    0    0  502    0  0.00000000000E+00  0.00000000000E+00  0.59100697798E+03  0.59100697798E+03  0.00000000000E+00 0. -1.
          2   -1    0    0  501    0 -0.00000000000E+00 -0.00000000000E+00 -0.10531340591E+02  0.10531340591E+02  0.00000000000E+00 0. -1.
          2    1    1    2  501    0 -0.96349859661E+01  0.23684638326E+02  0.57477202860E+03  0.57534049041E+03  0.00000000000E+00 0. -1.
          2    1    1    2  502    0  0.96349859661E+01 -0.23684638326E+02  0.57036087937E+01  0.26197828163E+02  0.00000000000E+00 0. -1.
</event>
<event>
 4    1  0.6136512E+003  0.2124544E+02  0.7546771E-02  0.1515789E+00
          2   -1    0    0  502    0  0.00000000000E+00  0.00000000000E+00  0.57683630286E+03  0.57683630286E+03  0.00000000000E+00 0. -1.
          2   -1    0    0  501    0 -0.00000000000E+00 -0.00000000000E+00 -0.54231496867E+01  0.54231496867E+01  0.00000000000E+00 0. -1.
          2    1    1    2  501    0 -0.41547409181E+01  0.20835235849E+02  0.55501540693E+03  0.55542188547E+03  0.00000000000E+00 0. -1.
          2    1    1    2  502    0  0.41547409181E+01 -0.20835235849E+02  0.16397746245E+02  0.26837567082E+02  0.00000000000E+00 0. -1.
</event>
<event>
 4    1  0.6136512E+003  0.2760887E+02  0.7546771E-02  0.1441586E+00
          2   -1    0    0  502    0  0.00000000000E+00  0.00000000000E+00  0.32735697455E+02  0.32735697455E+02  0.00000000000E+00 0. -1.
          2   -1    0    0  501    0 -0.00000000000E+00 -0.00000000000E+00 -0.10731201017E+03  0.10731201017E+03  0.00000000000E+00 0.  1.
          2    1    1    2  501    0  0.67287325979E+01 -0.26776367856E+02  0.24674692618E+02  0.37028234818E+02  0.00000000000E+00 0. -1.
          2    1    1    2  502    0 -0.67287325979E+01  0.26776367856E+02 -0.99251005330E+02  0.10301947281E+03  0.00000000000E+00 0.  1.
</event>
<event>
 4    1  0.6136512E+003  0.2282686E+02  0.7546771E-02  0.1494684E+00
          2   -1    0    0  502    0  0.00000000000E+00  0.00000000000E+00  0.48124723373E+03  0.48124723373E+03  0.00000000000E+00 0.  1.
          2   -1    0    0  501    0 -0.00000000000E+00 -0.00000000000E+00 -0.40084020304E+01  0.40084020304E+01  0.00000000000E+00 0. -1.
          2    1    1    2  501    0  0.22826715123E+02 -0.80874716993E-01  0.44590402590E+03  0.44648792344E+03  0.00000000000E+00 0.  1.
          2    1    1    2  502    0 -0.22826715123E+02  0.80874716993E-01  0.31334805797E+02  0.38767712317E+02  0.00000000000E+00 0. -1.
</event>
<event>
 4    1  0.6136512E+003  0.2665349E+02  0.7546771E-02  0.1451120E+00
          2   -1    0    0  501    0  0.00000000000E+00  0.00000000000E+00  0.90456434833E+02  0.90456434833E+02  0.00000000000E+00 0. -1.
          2   -1    0    0  502    0 -0.00000000000E+00 -0.00000000000E+00 -0.24289821613E+02  0.24289821613E+02  0.00000000000E+00 0. -1.
          2    1    1    2  501    0  0.57882112530E+01  0.26017396604E+02 -0.14111847807E+02  0.30158789168E+02  0.00000000000E+00 0. -1.
          2    1    1    2  502    0 -0.57882112530E+01 -0.26017396604E+02  0.80278461027E+02  0.84587467278E+02  0.00000000000E+00 0. -1.
</event>
<event>
 4    1  0.6136512E+003  0.3404676E+02  0.7546771E-02  0.1387391E+00
          2   -1    0    0  501    0  0.00000000000E+00  0.00000000000E+00  0.90224579080E+03  0.90224579080E+03  0.00000000000E+00 0. -1.
          2   -1    0    0  502    0 -0.00000000000E+00 -0.00000000000E+00 -0.13197643880E+01  0.13197643880E+01  0.00000000000E+00 0.  1.
          2    1    1    2  501    0 -0.31649295850E+02 -0.12550068167E+02  0.52402516701E+03  0.52513003895E+03  0.00000000000E+00 0. -1.
          2    1    1    2  502    0  0.31649295850E+02  0.12550068167E+02  0.37690085940E+03  0.37843551624E+03  0.00000000000E+00 0.  1.
</event>
<event>
 4    1  0.6136512E+003  0.2016873E+02  0.7546771E-02  0.1531472E+00
          2   -1    0    0  502    0  0.00000000000E+00  0.00000000000E+00  0.25176110326E+03  0.25176110326E+03  0.00000000000E+00 0.  1.
          2   -1    0    0  501    0 -0.00000000000E+00 -0.00000000000E+00 -0.29474122996E+01  0.29474122996E+01  0.00000000000E+00 0.  1.
          2    1    1    2  501    0 -0.19193927567E+02  0.61944106976E+01  0.21001075283E+03  0.21097699847E+03  0.00000000000E+00 0.  1.
          2    1    1    2  502    0  0.19193927567E+02 -0.61944106976E+01  0.38802938128E+02  0.43731517087E+02  0.00000000000E+00 0.  1.
</event>
<event>
 4    1  0.6136512E+003  0.2139190E+02  0.7546771E-02  0.1513742E+00
          2   -1    0    0  502    0  0.00000000000E+00  0.00000000000E+00  0.33268838283E+02  0.33268838283E+02  0.00000000000E+00 0.  1.
          2   -1    0    0  501    0 -0.00000000000E+00 -0.00000000000E+00 -0.10822750677E+03  0.10822750677E+03  0.00000000000E+00 0. -1.
          2    1    1    2  501    0  0.15468665429E+02 -0.14776120988E+02  0.28620304366E+02  0.35731431312E+02  0.00000000000E+00 0.  1.
          2    1    1    2  502    0 -0.15468665429E+02  0.14776120988E+02 -0.10357897286E+03  0.10576491375E+03  0.00000000000E+00 0. -1.
</event>
<event>
 4    1  0.6136512E+003  0.2635523E+02  0.7546771E-02  0.1454195E+00
          2   -1    0    0  502    0  0.00000000000E+00  0.00000000000E+00  0.11423753928E+04  0.11423753928E+04  0.00000000000E+00 0.  1.
          2   -1    0    0  501    0 -0.00000000000E+00 -0.00000000000E+00 -0.12991632127E+01  0.12991632127E+01  0.00000000000E+00 0.  1.
          2    1    1    2  501    0  0.24452681736E+02  0.98318137063E+01  0.98762023453E+03  0.98797182443E+03  0.00000000000E+00 0.  1.
          2    1    1    2  502    0 -0.24452681736E+02 -0.98318137063E+01  0.15345599506E+03  0.15570273159E+03  0.00000000000E+00 0.  1.
</event>
<event>
 4    1  0.6136512E+003  0.3577835E+02  0.7546771E-02  0.1375172E+00
          2   -1    0    0  502    0  0.00000000000E+00  0.00000000000E+00  0.85372662099E+00  0.85372662099E+00  0.00000000000E+00 0. -1.
          2   -1    0    0  501    0 -0.00000000000E+00 -0.00000000000E+00 -0.25304140161E+04  0.25304140161E+04  0.00000000000E+00 0. -1.
          2    1    1    2  501    0  0.18827242591E+02  0.30424094828E+02 -0.45691030382E+03  0.45830897477E+03  0.00000000000E+00 0. -1.
          2    1    1    2  502    0 -0.18827242591E+02 -0.30424094828E+02 -0.20726499856E+04  0.20729587679E+04  0.00000000000E+00 0. -1.
</event>
<event>
 4    1  0.6136512E+003  0.2084793E+02  0.7546771E-02  0.1521447E+00
          2   -1    0    0  502    0  0.00000000000E+00  0.00000000000E+00  0.40461319999E+02  0.40461319999E+02  0.00000000000E+00 0. -1.
          2   -1    0    0  501    0 -0.00000000000E+00 -0.00000000000E+00 -0.86304376034E+03  0.86304376034E+03  0.00000000000E+00 0.  1.
          2    1    1    2  501    0 -0.18674131825E+01 -0.20764125179E+02  0.37641110987E+02  0.43028936343E+02  0.00000000000E+00 0. -1.
          2    1    1    2  502    0  0.18674131825E+01  0.20764125179E+02 -0.86022355133E+03  0.86047614400E+03  0.00000000000E+00 0.  1.
</event>
<event>
 4    1  0.6136512E+003  0.2142800E+02  0.7546771E-02  0.1513241E+00
          2   -1    0    0  502    0  0.00000000000E+00  0.00000000000E+00  0.14043156629E+03  0.14043156629E+03  0.00000000000E+00 0.  1.
          2   -1    0    0  501    0 -0.00000000000E+00 -0.00000000000E+00 -0.69420345557E+02  0.69420345557E+02  0.00000000000E+00 0.  1.
          2    1    1    2  501    0  0.21261289721E+02  0.26677104246E+01  0.13793081149E+03  0.13958534264E+03  0.00000000000E+00 0.  1.
          2    1    1    2  502    0 -0.21261289721E+02 -0.26677104246E+01 -0.66919590766E+02  0.70266569205E+02  0.00000000000E+00 0.  1.
</event>
<event>
 4    1  0.6136512E+003  0.2268489E+02  0.7546771E-02  0.1496493E+00
          2   -1    0    0  501    0  0.00000000000E+00  0.00000000000E+00  0.23222166580E+03  0.23222166580E+03  0.00000000000E+00 0.  1.
          2   -1    0    0  502    0 -0.00000000000E+00 -0.00000000000E+00 -0.53027421133E+01  0.53027421133E+01  0.00000000000E+00 0.  1.
          2    1    1    2  501    0 -0.19684887365E+02  0.11274284107E+02  0.22849103644E+02  0.32197605657E+02  0.00000000000E+00 0.  1.
          2    1    1    2  502    0  0.19684887365E+02 -0.11274284107E+02  0.20406982004E+03  0.20532680225E+03  0.00000000000E+00 0.  1.
</event>
<event>
 4    1  0.6136512E+003  0.2567845E+02  0.7546771E-02  0.1461355E+00
          2   -1    0    0  501    0  0.00000000000E+00  0.00000000000E+00  0.89244914625E+02  0.89244914625E+02  0.00000000000E+00 0. -1.
          2   -1    0    0  502    0 -0.00000000000E+00 -0.00000000000E+00 -0.93803600188E+01  0.93803600188E+01  0.00000000000E+00 0. -1.
          2    1    1    2  501    0 -0.13189705822E+02 -0.22032119696E+02  0.17208419985E+02  0.30911362900E+02  0.00000000000E+00 0. -1.
          2    1    1    2  502    0  0.13189705822E+02  0.22032119696E+02  0.62656134622E+02  0.67713911744E+02  0.00000000000E+00 0. -1.
</event>
<event>
 4    1  0.6136512E+003  0.3392323E+02  0.7546771E-02  0.1388295E+00
          2   -1    0    0  502    0  0.00000000000E+00  0.00000000000E+00  0.17658813144E+04  0.17658813144E+04  0.00000000000E+00 0.  1.
          2   -1    0    0  501    0 -0.00000000000E+00 -0.00000000000E+00 -0.95354448688E+01  0.95354448688E+01  0.00000000000E+00 0.  1.
          2    1    1    2  501    0 -0.28997368955E+02  0.17605059218E+02  0.17350103512E+04  0.17353419560E+04  0.00000000000E+00 0.  1.
          2    1    1    2  502    0  0.28997368955E+02 -0.17605059218E+02  0.21335518399E+02  0.40074803327E+02  0.00000000000E+00 0.  1.
</event>
<event>
 4    1  0.6136512E+003  0.3785413E+02  0.7546771E-02  0.1361541E+00
          2   -1    0    0  501    0  0.00000000000E+00  0.00000000000E+00  0.77356693679E+03  0.77356693679E+03  0.00000000000E+00 0.  1.
          2   -1    0    0  502    0 -0.00000000000E+00 -0.00000000000E+00 -0.19778518188E+01  0.19778518188E+01  0.00000000000E+00 0.  1.
          2    1    1    2  501    0  0.21669225668E+02  0.31038358217E+02  0.48346519132E+03  0.48494486928E+03  0.00000000000E+00 0.  1.
          2    1    1    2  502    0 -0.21669225668E+02 -0.31038358217E+02  0.28812389365E+03  0.29059991933E+03  0.00000000000E+00 0.  1.
</event>
<event>
 4    1  0.6136512E+003  0.2936682E+02  0.7546771E-02  0.1425180E+00
          2   -1    0    0  501    0  0.00000000000E+00  0.00000000000E+00  0.30019277290E+03  0.30019277290E+03  0.00000000000E+00 0.  1.
          2   -1    0    0  502    0 -0.00000000000E+00 -0.00000000000E+00 -0.24796005844E+03  0.24796005844E+03  0.00000000000E+00 0.  1.
          2    1    1    2  501    0 -0.23563139873E+02  0.17526787352E+02 -0.24636771465E+03  0.24811179065E+03  0.00000000000E+00 0.  1.
          2    1    1    2  502    0  0.23563139873E+02 -0.17526787352E+02  0.29860042911E+03  0.30004104070E+03  0.00000000000E+00 0.  1.
</event>
<event>
 4    1  0.6136512E+003  0.2070156E+02  0.7546771E-02  0.1523569E+00
          2   -1    0    0  501    0  0.00000000000E+00  0.00000000000E+00  0.34114069349E+03  0.34114069349E+03  0.00000000000E+00 0. -1.
          2   -1    0    0  502    0 -0.00000000000E+00 -0.00000000000E+00 -0.28595302667E+02  0.28595302667E+02  0.00000000000E+00 0. -1.
          2    1    1    2  501    0  0.54853884585E+01  0.19961589522E+02 -0.24488914525E+02  0.32066516453E+02  0.00000000000E+00 0. -1.
          2    1    1    2  502    0 -0.54853884585E+01 -0.19961589522E+02  0.33703430535E+03  0.33766947971E+03  0.00000000000E+00 0. -1.
</event>
<event>
 4    1  0.6136512E+003  0.2136813E+02  0.7546771E-02  0.1514073E+00
          2   -1    0    0  501    0  0.00000000000E+00  0.00000000000E+00  0.10865769285E+01  0.10865769285E+01  0.00000000000E+00 0. -1.
          2   -1    0    0  502    0 -0.00000000000E+00 -0.00000000000E+00 -0.63650272447E+03  0.63650272447E+03  0.00000000000E+00 0. -1.
          2    1    1    2  501    0  0.17873930947E+02 -0.11709807910E+02 -0.13187379546E+03  0.13359376833E+03  0.00000000000E+00 0. -1.
          2    1    1    2  502    0 -0.17873930947E+02  0.11709807910E+02 -0.50354235209E+03  0.50399553307E+03  0.00000000000E+00 0. -1.
</event>
<event>
 4    1  0.6136512E+003  0.2098407E+02  0.7546771E-02  0.1519492E+00
          2   -1    0    0  501    0  0.00000000000E+00  0.00000000000E+00  0.20651458030E+02  0.20651458030E+02  0.00000000000E+00 0. -1.
          2   -1    0    0  502    0 -0.00000000000E+00 -0.00000000000E+00 -0.17073463627E+03  0.17073463627E+03  0.00000000000E+00 0.  1.
          2    1    1    2  501    0  0.38743098218E+01 -0.20623313525E+02 -0.16456016503E+03  0.16589267390E+03  0.00000000000E+00 0.  1.
          2    1    1    2  502    0 -0.38743098218E+01  0.20623313525E+02  0.14476986791E+02  0.25493420404E+02  0.00000000000E+00 0. -1.
</event>
<event>
 4    1  0.6136512E+003  0.3390079E+02  0.7546771E-02  0.1388460E+00
          2   -1    0    0  501    0  0.00000000000E+00  0.00000000000E+00  0.61160498748E+03  0.61160498748E+03  0.00000000000E+00 0.  1.
          2   -1    0    0  502    0 -0.00000000000E+00 -0.00000000000E+00 -0.31807128110E+02  0.31807128110E+02  0.00000000000E+00 0. -1.
          2    1    1    2  501    0  0.15858663764E+02 -0.29962751583E+02 -0.22159630024E+02  0.40500776556E+02  0.00000000000E+00 0. -1.
          2    1    1    2  502    0 -0.15858663764E+02  0.29962751583E+02  0.60195748940E+03  0.60291133904E+03  0.00000000000E+00 0.  1.
</event>
<event>
 4    1  0.6136512E+003  0.2313341E+02  0.7546771E-02  0.1490830E+00
          2   -1    0    0  502    0  0.00000000000E+00  0.00000000000E+00  0.65728810209E+03  0.65728810209E+03  0.00000000000E+00 0. -1.
          2   -1    0    0  501    0 -0.00000000000E+00 -0.00000000000E+00 -0.31014816848E+02  0.31014816848E+02  0.00000000000E+00 0. -1.
          2    1    1    2  501    0 -0.22018805837E+02 -0.70941489887E+01  0.65274081139E+03  0.65315061174E+03  0.00000000000E+00 0. -1.
          2    1    1    2  502    0  0.22018805837E+02  0.70941489887E+01 -0.26467526154E+02  0.35152307194E+02  0.00000000000E+00 0. -1.
</event>
<event>
 4    1  0.6136512E+003  0.2651577E+02  0.7546771E-02  0.1452534E+00
          2   -1    0    0  502    0  0.00000000000E+00  0.00000000000E+00  0.38643904986E+00  0.38643904986E+00  0.00000000000E+00 0.  1.
          2   -1    0    0  501    0 -0.00000000000E+00 -0.00000000000E+00 -0.18726899631E+04  0.18726899631E+04  0.00000000000E+00 0.  1.
          2    1    1    2  501    0 -0.82538871829E+01 -0.25198396575E+02 -0.77816174553E+03  0.77861337521E+03  0.00000000000E+00 0.  1.
          2    1    1    2  502    0  0.82538871829E+01  0.25198396575E+02 -0.10941417785E+04  0.10944630269E+04  0.00000000000E+00 0.  1.
</event>
<event>
 4    1  0.6136512E+003  0.2828318E+02  0.7546771E-02  0.1435127E+00
          2   -1    0    0  501    0  0.00000000000E+00  0.00000000000E+00  0.19739981129E+01  0.19739981129E+01  0.00000000000E+00 0.  1.
          2   -1    0    0  502    0 -0.00000000000E+00 -0.00000000000E+00 -0.41290402936E+03  0.41290402936E+03  0.00000000000E+00 0.  1.
          2    1    1    2  501    0  0.12281727695E+02 -0.25477392343E+02 -0.23373079992E+03  0.23543581968E+03  0.00000000000E+00 0.  1.
          2    1    1    2  502    0 -0.12281727695E+02  0.25477392343E+02 -0.17719923133E+03  0.17944220780E+03  0.00000000000E+00 0.  1.
</event>
<event>
 4    1  0.6136512E+003  0.3086144E+02  0.7546771E-02  0.1412255E+00
          2   -1    0    0  502    0  0.00000000000E+00  0.00000000000E+00  0.27135868919E+02  0.27135868919E+02  0.00000000000E+00 0. -1.
          2   -1    0    0  501    0 -0.00000000000E+00 -0.00000000000E+00 -0.11194325644E+04  0.11194325644E+04  0.00000000000E+00 0. -1.
          2    1    1    2  501    0  0.14459379899E+02  0.27264531901E+02  0.18076966555E+02  0.35765976664E+02  0.00000000000E+00 0. -1.
          2    1    1    2  502    0 -0.14459379899E+02 -0.27264531901E+02 -0.11103736620E+04  0.11108024566E+04  0.00000000000E+00 0. -1.
</event>
<event>
 4    1  0.6136512E+003  0.2014391E+02  0.7546771E-02  0.1531847E+00
          2   -1    0    0  501    0  0.00000000000E+00  0.00000000000E+00  0.10233256915E+03  0.10233256915E+03  0.00000000000E+00 0.  1.
          2   -1    0    0  502    0 -0.00000000000E+00 -0.00000000000E+00 -0.93296288149E+03  0.93296288149E+03  0.00000000000E+00 0. -1.
          2    1    1    2  501    0  0.17618982796E+01  0.20066709024E+02 -0.93186165716E+03  0.93207935562E+03  0.00000000000E+00 0. -1.
          2    1    1    2  502    0 -0.17618982796E+01 -0.20066709024E+02  0.10123134482E+03  0.10321609502E+03  0.00000000000E+00 0.  1.
</event>
<event>
 4    1  0.6136512E+003  0.4269170E+02  0.7546771E-02  0.1333396E+00
          2   -1    0    0  502    0  0.00000000000E+00  0.00000000000E+00  0.28753845774E+03  0.28753845774E+03  0.00000000000E+00 0. -1.
          2   -1    0    0  501    0 -0.00000000000E+00 -0.00000000000E+00 -0.68194479923E+01  0.68194479923E+01  0.00000000000E+00 0. -1.
          2    1    1    2  501    0 -0.26778987704E+02 -0.33248570169E+02  0.10127629865E+03  0.10990664343E+03  0.00000000000E+00 0. -1.
          2    1    1    2  502    0  0.26778987704E+02  0.33248570169E+02  0.17944271109E+03  0.18445126230E+03  0.00000000000E+00 0. -1.
</event>
<event>
 4    1  0.6136512E+003  0.2425116E+02  0.7546771E-02  0.1477358E+00
          2   -1    0    0  502    0  0.00000000000E+00  0.00000000000E+00  0.38358133531E+03  0.38358133531E+03  0.00000000000E+00 0. -1.
          2   -1    0    0  501    0 -0.00000000000E+00 -0.00000000000E+00 -0.19625817875E+02  0.19625817875E+02  0.00000000000E+00 0. -1.
          2    1    1    2  501    0  0.14432669582E+02 -0.19488890919E+02  0.37554625793E+03  0.37632846114E+03  0.00000000000E+00 0. -1.
          2    1    1    2  502    0 -0.14432669582E+02  0.19488890919E+02 -0.11590740498E+02  0.26878692041E+02  0.00000000000E+00 0. -1.
</event>
<event>
 4    1  0.6136512E+003  0.2812069E+02  0.7546771E-02  0.1436664E+00
          2   -1    0    0  502    0  0.00000000000E+00  0.00000000000E+00  0.10556183161E+02  0.10556183161E+02  0.00000000000E+00 0. -1.
          2   -1    0    0  501    0 -0.00000000000E+00 -0.00000000000E+00 -0.48255883001E+03  0.48255883001E+03  0.00000000000E+00 0. -1.
          2    1    1    2  501    0 -0.26129045459E+02  0.10394517366E+02 -0.93878510989E+01  0.29646327869E+02  0.00000000000E+00 0. -1.
          2    1    1    2  502    0  0.26129045459E+02 -0.10394517366E+02 -0.46261479575E+03  0.46346868530E+03  0.00000000000E+00 0. -1.
</event>
<event>
 4    1  0.6136512E+003  0.2097415E+02  0.7546771E-02  0.1519634E+00
          2   -1    0    0  501    0  0.00000000000E+00  0.00000000000E+00  0.17865196000E+02  0.17865196000E+02  0.00000000000E+00 0.  1.
          2   -1    0    0  502    0 -0.00000000000E+00 -0.00000000000E+00 -0.96342474159E+02  0.96342474159E+02  0.00000000000E+00 0. -1.
          2    1    1    2  501    0 -0.20338716305E+02  0.51236416856E+01 -0.88507381359E+02  0.90958625979E+02  0.00000000000E+00 0. -1.
          2    1    1    2  502    0  0.20338716305E+02 -0.51236416856E+01  0.10030103200E+02  0.23249044180E+02  0.00000000000E+00 0.  1.
</event>
<event>
 4    1  0.6136512E+003  0.2117342E+02  0.7546771E-02  0.1516803E+00
          2   -1    0    0  502    0  0.00000000000E+00  0.00000000000E+00  0.27809492796E+03  0.27809492796E+03  0.00000000000E+00 0.  1.
          2   -1    0    0  501    0 -0.00000000000E+00 -0.00000000000E+00 -0.36430090120E+02  0.36430090120E+02  0.00000000000E+00 0. -1.
          2    1    1    2  501    0  0.61367297983E+01  0.20264609117E+02  0.27457600033E+03  0.27539116506E+03  0.00000000000E+00 0.  1.
          2    1    1    2  502    0 -0.61367297983E+01 -0.20264609117E+02 -0.32911162494E+02  0.39133853018E+02  0.00000000000E+00 0. -1.
</event>
<event>
 4    1  0.6136512E+003  0.2154724E+02  0.7546771E-02  0.1511593E+00
          2   -1    0    0  501    0  0.00000000000E+00  0.00000000000E+00  0.16355026878E+02  0.16355026878E+02  0.00000000000E+00 0. -1.
          2   -1    0    0  502    0 -0.00000000000E+00 -0.00000000000E+00 -0.94584756656E+02  0.94584756656E+02  0.00000000000E+00 0. -1.
          2    1    1    2  501    0  0.21522107877E+02  0.10403541382E+01 -0.85519964398E+02  0.88192674156E+02  0.00000000000E+00 0. -1.
          2    1    1    2  502    0 -0.21522107877E+02 -0.10403541382E+01  0.72902346208E+01  0.22747109378E+02  0.00000000000E+00 0. -1.
</event>
<event>
 4    1  0.6136512E+003  0.2089718E+02  0.7546771E-02  0.1520738E+00
          2   -1    0    0  502    0  0.00000000000E+00  0.00000000000E+00  0.61572453219E+03  0.61572453219E+03  0.00000000000E+00 0.  1.
          2   -1    0    0  501    0 -0.00000000000E+00 -0.00000000000E+00 -0.14072695802E+02  0.14072695802E+02  0.00000000000E+00 0. -1.
          2    1    1    2  501    0 -0.11624178522E+01 -0.20864828813E+02  0.60768685038E+03  0.60804605124E+03  0.00000000000E+00 0.  1.
          2    1    1    2  502    0  0.11624178522E+01  0.20864828813E+02 -0.60350139880E+01  0.21751176761E+02  0.00000000000E+00 0. -1.
</event>
<event>
 4    1  0.6136512E+003  0.2073242E+02  0.7546771E-02  0.1523120E+00
          2   -1    0    0  502    0  0.00000000000E+00  0.00000000000E+00  0.10712450055E+04  0.10712450055E+04  0.00000000000E+00 0.  1.
          2   -1    0    0  501    0 -0.00000000000E+00 -0.00000000000E+00 -0.13705404940E+01  0.13705404940E+01  0.00000000000E+00 0.  1.
          2    1    1    2  501    0 -0.19645574400E+02 -0.66245473257E+01  0.98595737202E+03  0.98617532552E+03  0.00000000000E+00 0.  1.
          2    1    1    2  502    0  0.19645574400E+02  0.66245473257E+01  0.83917093013E+02  0.86440220502E+02  0.00000000000E+00 0.  1.
</event>
<event>
 4    1  0.6136512E+003  0.2078638E+02  0.7546771E-02  0.1522337E+00
          2   -1    0    0  501    0  0.00000000000E+00  0.00000000000E+00  0.43674534364E+01  0.43674534364E+01  0.00000000000E+00 0.  1.
          2   -1    0    0  502    0 -0.00000000000E+00 -0.00000000000E+00 -0.10152549432E+03  0.10152549432E+03  0.00000000000E+00 0. -1.
          2    1    1    2  501    0  0.71704953621E+01  0.19510448295E+02 -0.57044121974E+02  0.60713305363E+02  0.00000000000E+00 0. -1.
          2    1    1    2  502    0 -0.71704953621E+01 -0.19510448295E+02 -0.40113918905E+02  0.45179642388E+02  0.00000000000E+00 0.  1.
</event>
<event>
 4    1  0.6136512E+003  0.2195095E+02  0.7546771E-02  0.1506109E+00
          2   -1    0    0  501    0  0.00000000000E+00  0.00000000000E+00  0.32311137942E+01  0.32311137942E+01  0.00000000000E+00 0. -1.
          2   -1    0    0  502    0 -0.00000000000E+00 -0.00000000000E+00 -0.48633276211E+03  0.48633276211E+03  0.00000000000E+00 0.  1.
          2    1    1    2  501    0  0.20164812113E+02 -0.86732092513E+01 -0.44537726334E+03  0.44591787462E+03  0.00000000000E+00 0.  1.
          2    1    1    2  502    0 -0.20164812113E+02  0.86732092513E+01 -0.37724384981E+02  0.43646001289E+02  0.00000000000E+00 0. -1.
</event>
<event>
 4    1  0.6136512E+003  0.2825707E+02  0.7546771E-02  0.1435373E+00
          2   -1    0    0  501    0  0.00000000000E+00  0.00000000000E+00  0.16632036418E+03  0.16632036418E+03  0.00000000000E+00 0. -1.
          2   -1    0    0  502    0 -0.00000000000E+00 -0.00000000000E+00 -0.17534762322E+03  0.17534762322E+03  0.00000000000E+00 0.  1.
          2    1    1    2  501    0  0.16322999115E+02 -0.23065593631E+02 -0.17299280840E+03  0.17528540632E+03  0.00000000000E+00 0.  1.
          2    1    1    2  502    0 -0.16322999115E+02  0.23065593631E+02  0.16396554936E+03  0.16638258108E+03  0.00000000000E+00 0. -1.
</event>
<event>
 4    1  0.6136513E+003  0.2802369E+02  0.7546771E-02  0.1437587E+00
          2   -1    0    0  501    0  0.00000000000E+00  0.00000000000E+00  0.78436522896E+03  0.78436522896E+03  0.00000000000E+00 0. -1.
          2   -1    0    0  502    0 -0.00000000000E+00 -0.00000000000E+00 -0.32119662944E+03  0.32119662944E+03  0.00000000000E+00 0.  1.
          2    1    1    2  501    0  0.26838892556E+02  0.80623121162E+01 -0.32033439944E+03  0.32155785559E+03  0.00000000000E+00 0.  1.
          2    1    1    2  502    0 -0.26838892556E+02 -0.80623121162E+01  0.78350299896E+03  0.78400400280E+03  0.00000000000E+00 0. -1.
</event>
<event>
 4    1  0.6136512E+003  0.3658595E+02  0.7546771E-02  0.1369744E+00
          2   -1    0    0  502    0  0.00000000000E+00  0.00000000000E+00  0.28279458206E+01  0.28279458206E+01  0.00000000000E+00 0. -1.
          2   -1    0    0  501    0 -0.00000000000E+00 -0.00000000000E+00 -0.62685121888E+03  0.62685121888E+03  0.00000000000E+00 0. -1.
          2    1    1    2  501    0  0.36549855543E+02 -0.16248416881E+01 -0.15619957614E+03  0.16042705395E+03  0.00000000000E+00 0. -1.
          2    1    1    2  502    0 -0.36549855543E+02  0.16248416881E+01 -0.46782369692E+03  0.46925211076E+03  0.00000000000E+00 0. -1.
</event>
<event>
 4    1  0.6136512E+003  0.2092629E+02  0.7546771E-02  0.1520320E+00
          2   -1    0    0  501    0  0.00000000000E+00  0.00000000000E+00  0.96991102593E+03  0.96991102593E+03  0.00000000000E+00 0. -1.
          2   -1    0    0  502    0 -0.00000000000E+00 -0.00000000000E+00 -0.16007363494E+02  0.16007363494E+02  0.00000000000E+00 0. -1.
          2    1    1    2  501    0 -0.44555154569E+01 -0.20446468537E+02 -0.90055730952E+01  0.22781791861E+02  0.00000000000E+00 0. -1.
          2    1    1    2  502    0  0.44555154569E+01  0.20446468537E+02  0.96290923554E+03  0.96313659757E+03  0.00000000000E+00 0. -1.
</event>
<event>
 4    1  0.6136512E+003  0.2356552E+02  0.7546771E-02  0.1485516E+00
          2   -1    0    0  501    0  0.00000000000E+00  0.00000000000E+00  0.43930553623E+03  0.43930553623E+03  0.00000000000E+00 0.  1.
          2   -1    0    0  502    0 -0.00000000000E+00 -0.00000000000E+00 -0.10911366598E+02  0.10911366598E+02  0.00000000000E+00 0.  1.
          2    1    1    2  501    0  0.23439780464E+02 -0.24311239465E+01  0.25296823478E+01  0.23700906409E+02  0.00000000000E+00 0.  1.
          2    1    1    2  502    0 -0.23439780464E+02  0.24311239465E+01  0.42586448728E+03  0.42651599642E+03  0.00000000000E+00 0.  1.
</event>
<event>
 4    1  0.6136512E+003  0.2055219E+02  0.7546771E-02  0.1525755E+00
          2   -1    0    0  502    0  0.00000000000E+00  0.00000000000E+00  0.11509616809E+04  0.11509616809E+04  0.00000000000E+00 0.  1.
          2   -1    0    0  501    0 -0.00000000000E+00 -0.00000000000E+00 -0.56672293639E+00  0.56672293639E+00  0.00000000000E+00 0. -1.
          2    1    1    2  501    0 -0.20473104455E+02 -0.18012545558E+01  0.23338881108E+03  0.23429197524E+03  0.00000000000E+00 0. -1.
          2    1    1    2  502    0  0.20473104455E+02  0.18012545558E+01  0.91700614692E+03  0.91723642863E+03  0.00000000000E+00 0.  1.
</event>
<event>
 4    1  0.6136512E+003  0.2426962E+02  0.7546771E-02  0.1477143E+00
          2   -1    0    0  502    0  0.00000000000E+00  0.00000000000E+00  0.67898936469E+02  0.67898936469E+02  0.00000000000E+00 0.  1.
          2   -1    0    0  501    0 -0.00000000000E+00 -0.00000000000E+00 -0.11939584747E+04  0.11939584747E+04  0.00000000000E+00 0. -1.
          2    1    1    2  501    0 -0.22406344705E+02 -0.93257820403E+01  0.65602708020E+02  0.69948050675E+02  0.00000000000E+00 0.  1.
          2    1    1    2  502    0  0.22406344705E+02  0.93257820403E+01 -0.11916622463E+04  0.11919093605E+04  0.00000000000E+00 0. -1.
</event>
<event>
 4    1  0.6136512E+003  0.3082928E+02  0.7546771E-02  0.1412524E+00
          2   -1    0    0  502    0  0.00000000000E+00  0.00000000000E+00  0.44101265679E+03  0.44101265679E+03  0.00000000000E+00 0.  1.
          2   -1    0    0  501    0 -0.00000000000E+00 -0.00000000000E+00 -0.12297361771E+02  0.12297361771E+02  0.00000000000E+00 0.  1.
          2    1    1    2  501    0  0.12541169539E+02  0.28163160888E+02  0.42019579838E+03  0.42132523487E+03  0.00000000000E+00 0.  1.
          2    1    1    2  502    0 -0.12541169539E+02 -0.28163160888E+02  0.85194966396E+01  0.31984783688E+02  0.00000000000E+00 0.  1.
</event>
<event>
 4    1  0.6136512E+003  0.2223497E+02  0.7546771E-02  0.1502335E+00
          2   -1    0    0  502    0  0.00000000000E+00  0.00000000000E+00  0.27772375356E+03  0.27772375356E+03  0.00000000000E+00 0. -1.
          2   -1    0    0  501    0 -0.00000000000E+00 -0.00000000000E+00 -0.18030837501E+01  0.18030837501E+01  0.00000000000E+00 0.  1.
          2    1    1    2  501    0 -0.37529754360E+01 -0.21915954763E+02  0.15371786424E+03  0.15531766057E+03  0.00000000000E+00 0.  1.
          2    1    1    2  502    0  0.37529754360E+01  0.21915954763E+02  0.12220280557E+03  0.12420917674E+03  0.00000000000E+00 0. -1.
</event>
<event>
 4    1  0.6136512E+003  0.2545314E+02  0.7546771E-02  0.1463797E+00
          2   -1    0    0  502    0  0.00000000000E+00  0.00000000000E+00  0.18288043932E+02  0.18288043932E+02  0.00000000000E+00 0.  1.
          2   -1    0    0  501    0 -0.00000000000E+00 -0.00000000000E+00 -0.39162469234E+02  0.39162469234E+02  0.00000000000E+00 0. -1.
          2    1    1    2  501    0  0.33269791519E+01 -0.25234765328E+02 -0.15637812571E+01  0.25501129059E+02  0.00000000000E+00 0.  1.
          2    1    1    2  502    0 -0.33269791519E+01  0.25234765328E+02 -0.19310644045E+02  0.31949384108E+02  0.00000000000E+00 0. -1.
</event>
<event>
 4    1  0.6136512E+003  0.2578659E+02  0.7546771E-02  0.1460193E+00
          2   -1    0    0  501    0  0.00000000000E+00  0.00000000000E+00  0.37548137312E+03  0.37548137312E+03  0.00000000000E+00 0.  1.
          2   -1    0    0  502    0 -0.00000000000E+00 -0.00000000000E+00 -0.41938481018E+03  0.41938481018E+03  0.00000000000E+00 0. -1.
          2    1    1    2  501    0  0.19725015484E+02  0.16609396926E+02 -0.41854480877E+03  0.41933841376E+03  0.00000000000E+00 0. -1.
          2    1    1    2  502    0 -0.19725015484E+02 -0.16609396926E+02  0.37464137172E+03  0.37552776955E+03  0.00000000000E+00 0.  1.
</event>
<event>
 4    1  0.9960134E+003  0.2562919E+02  0.7546771E-02  0.1461886E+00
          2   -1    0    0  502    0  0.00000000000E+00  0.00000000000E+00  0.72191483315E+03  0.72191483315E+03  0.00000000000E+00 0. -1.
          2   -1    0    0  501    0 -0.00000000000E+00 -0.00000000000E+00 -0.56412009385E+03  0.56412009385E+03  0.00000000000E+00 0. -1.
          2    1    1    2  501    0 -0.19116600865E+02  0.17070760249E+02  0.72139605681E+03  0.72185118000E+03  0.00000000000E+00 0. -1.
          2    1    1    2  502    0  0.19116600865E+02 -0.17070760249E+02 -0.56360131751E+03  0.56418374700E+03  0.00000000000E+00 0. -1.
</event>
<event>
 4    1  0.6136512E+003  0.5563110E+02  0.7546771E-02  0.1275445E+00
          2   -1    0    0  502    0  0.00000000000E+00  0.00000000000E+00  0.22751076634E+03  0.22751076634E+03  0.00000000000E+00 0.  1.
          2   -1    0    0  501    0 -0.00000000000E+00 -0.00000000000E+00 -0.26700742946E+02  0.26700742946E+02  0.00000000000E+00 0.  1.
          2    1    1    2  501    0  0.21291105991E+02  0.51395607300E+02  0.18942805780E+03  0.19742798364E+03  0.00000000000E+00 0.  1.
          2    1    1    2  502    0 -0.21291105991E+02 -0.51395607300E+02  0.11381965600E+02  0.56783525648E+02  0.00000000000E+00 0.  1.
</event>
<event>
 4    1  0.6136512E+003  0.2467525E+02  0.7546771E-02  0.1472469E+00
          2   -1    0    0  502    0  0.00000000000E+00  0.00000000000E+00  0.11922289979E+04  0.11922289979E+04  0.00000000000E+00 0. -1.
          2   -1    0    0  501    0 -0.00000000000E+00 -0.00000000000E+00 -0.86544443208E+01  0.86544443208E+01  0.00000000000E+00 0. -1.
          2    1    1    2  501    0 -0.17365235002E+02  0.17530448884E+02  0.11742436565E+04  0.11745028876E+04  0.00000000000E+00 0. -1.
          2    1    1    2  502    0  0.17365235002E+02 -0.17530448884E+02  0.93308970826E+01  0.26380554678E+02  0.00000000000E+00 0. -1.
</event>
<event>
 4    1  0.6136512E+003  0.8850115E+02  0.7546771E-02  0.1185379E+00
          2   -1    0    0  501    0  0.00000000000E+00  0.00000000000E+00  0.16716609982E+03  0.16716609982E+03  0.00000000000E+00 0. -1.
          2   -1    0    0  502    0 -0.00000000000E+00 -0.00000000000E+00 -0.24578788277E+03  0.24578788277E+03  0.00000000000E+00 0.  1.
          2    1    1    2  501    0 -0.72174743251E+02  0.51217778480E+02 -0.22506800597E+03  0.24184305180E+03  0.00000000000E+00 0.  1.
          2    1    1    2  502    0  0.72174743251E+02 -0.51217778480E+02  0.14644622302E+03  0.17111093078E+03  0.00000000000E+00 0. -1.
</event>
<event>
 4    1  0.6136512E+003  0.2877672E+02  0.7546771E-02  0.1430533E+00
          2   -1    0    0  502    0  0.00000000000E+00  0.00000000000E+00  0.24871379347E+01  0.24871379347E+01  0.00000000000E+00 0. -1.
          2   -1    0    0  501    0 -0.00000000000E+00 -0.00000000000E+00 -0.79044131939E+03  0.79044131939E+03  0.00000000000E+00 0. -1.
          2    1    1    2  501    0  0.16356215156E+02 -0.23676435303E+02 -0.92357653508E+02  0.96736939813E+02  0.00000000000E+00 0. -1.
          2    1    1    2  502    0 -0.16356215156E+02  0.23676435303E+02 -0.69559652795E+03  0.69619151751E+03  0.00000000000E+00 0. -1.
</event>
<event>
 4    1  0.6136512E+003  0.4763217E+02  0.7546771E-02  0.1308778E+00
          2   -1    0    0  501    0  0.00000000000E+00  0.00000000000E+00  0.38336955123E+01  0.38336955123E+01  0.00000000000E+00 0.  1.
          2   -1    0    0  502    0 -0.00000000000E+00 -0.00000000000E+00 -0.23581450519E+04  0.23581450519E+04  0.00000000000E+00 0.  1.
          2    1    1    2  501    0 -0.20051707754E+02  0.43205937426E+02 -0.21992644750E+04  0.21997802288E+04  0.00000000000E+00 0.  1.
          2    1    1    2  502    0  0.20051707754E+02 -0.43205937426E+02 -0.15504688139E+03  0.16219851862E+03  0.00000000000E+00 0.  1.
</event>
<event>
 4    1  0.6136512E+003  0.2171585E+02  0.7546771E-02  0.1509285E+00
          2   -1    0    0  502    0  0.00000000000E+00  0.00000000000E+00  0.28927002377E+03  0.28927002377E+03  0.00000000000E+00 0.  1.
          2   -1    0    0  501    0 -0.00000000000E+00 -0.00000000000E+00 -0.44568426652E+01  0.44568426652E+01  0.00000000000E+00 0.  1.
          2    1    1    2  501    0  0.12566137629E+01  0.21679459418E+02  0.25936536583E+03  0.26027287802E+03  0.00000000000E+00 0.  1.
          2    1    1    2  502    0 -0.12566137629E+01 -0.21679459418E+02  0.25447815272E+02  0.33453988416E+02  0.00000000000E+00 0.  1.
</event>
<event>
 4    1  0.6136512E+003  0.2694920E+02  0.7546771E-02  0.1448119E+00
          2   -1    0    0  502    0  0.00000000000E+00  0.00000000000E+00  0.24178683916E+03  0.24178683916E+03  0.00000000000E+00 0.  1.
          2   -1    0    0  501    0 -0.00000000000E+00 -0.00000000000E+00 -0.19190844190E+03  0.19190844190E+03  0.00000000000E+00 0. -1.
          2    1    1    2  501    0 -0.26502717594E+02  0.48852433898E+01  0.24008311486E+03  0.24159089735E+03  0.00000000000E+00 0.  1.
          2    1    1    2  502    0  0.26502717594E+02 -0.48852433898E+01 -0.19020471760E+03  0.19210438371E+03  0.00000000000E+00 0. -1.
</event>
<event>
 4    1  0.6136512E+003  0.2866371E+02  0.7546771E-02  0.1431575E+00
          2   -1    0    0  502    0  0.00000000000E+00  0.00000000000E+00  0.46971171921E+03  0.46971171921E+03  0.00000000000E+00 0.  1.
          2   -1    0    0  501    0 -0.00000000000E+00 -0.00000000000E+00 -0.69649784025E+02  0.69649784025E+02  0.00000000000E+00 0.  1.
          2    1    1    2  501    0 -0.27524716889E+02 -0.79998729744E+01  0.46630382430E+03  0.46718397293E+03  0.00000000000E+00 0.  1.
          2    1    1    2  502    0  0.27524716889E+02  0.79998729744E+01 -0.66241889114E+02  0.72177530304E+02  0.00000000000E+00 0.  1.
</event>
<event>
 4    1  0.6136512E+003  0.2053443E+02  0.7546771E-02  0.1526017E+00
          2   -1    0    0  502    0  0.00000000000E+00  0.00000000000E+00  0.60194966486E+00  0.60194966486E+00  0.00000000000E+00 0.  1.
          2   -1    0    0  501    0 -0.00000000000E+00 -0.00000000000E+00 -0.10538376538E+04  0.10538376538E+04  0.00000000000E+00 0.  1.
          2    1    1    2  501    0 -0.47334839481E+01  0.19981419179E+02 -0.22133484332E+03  0.22228534781E+03  0.00000000000E+00 0.  1.
          2    1    1    2  502    0  0.47334839481E+01 -0.19981419179E+02 -0.83190086084E+03  0.83215425568E+03  0.00000000000E+00 0.  1.
</event>
<event>
 4    1  0.6136512E+003  0.2067404E+02  0.7546771E-02  0.1523970E+00
          2   -1    0    0  501    0  0.00000000000E+00  0.00000000000E+00  0.98396407306E+03  0.98396407306E+03  0.00000000000E+00 0. -1.
          2   -1    0    0  502    0 -0.00000000000E+00 -0.00000000000E+00 -0.30850715373E+02  0.30850715373E+02  0.00000000000E+00 0. -1.
          2    1    1    2  501    0  0.10766343172E+01 -0.20645986400E+02 -0.27265874770E+02  0.34217595223E+02  0.00000000000E+00 0. -1.
          2    1    1    2  502    0 -0.10766343172E+01  0.20645986400E+02  0.98037923246E+03  0.98059719321E+03  0.00000000000E+00 0. -1.
</event>
<event>
 4    1  0.6136512E+003  0.3248288E+02  0.7546771E-02  0.1399179E+00
          2   -1    0    0  501    0  0.00000000000E+00  0.00000000000E+00  0.48733640634E+02  0.48733640634E+02  0.00000000000E+00 0. -1.
          2   -1    0    0  502    0 -0.00000000000E+00 -0.00000000000E+00 -0.37384928486E+03  0.37384928486E+03  0.00000000000E+00 0.  1.
          2    1    1    2  501    0  0.32071331857E+02 -0.51543115903E+01 -0.36763967148E+03  0.36907189720E+03  0.00000000000E+00 0.  1.
          2    1    1    2  502    0 -0.32071331857E+02  0.51543115903E+01  0.42524027257E+02  0.53511028295E+02  0.00000000000E+00 0. -1.
</event>
<event>
 4    1  0.6136512E+003  0.3677043E+02  0.7546771E-02  0.1368526E+00
          2   -1    0    0  502    0  0.00000000000E+00  0.00000000000E+00  0.60774327017E+01  0.60774327017E+01  0.00000000000E+00 0.  1.
          2   -1    0    0  501    0 -0.00000000000E+00 -0.00000000000E+00 -0.11081802291E+04  0.11081802291E+04  0.00000000000E+00 0.  1.
          2    1    1    2  501    0 -0.71296195328E+01  0.36072608389E+02 -0.52975491003E+02  0.64486178346E+02  0.00000000000E+00 0.  1.
          2    1    1    2  502    0  0.71296195328E+01 -0.36072608389E+02 -0.10491273054E+04  0.10497714835E+04  0.00000000000E+00 0.  1.
</event>
<event>
 4    1  0.6136512E+003  0.3209272E+02  0.7546771E-02  0.1402242E+00
          2   -1    0    0  501    0  0.00000000000E+00  0.00000000000E+00  0.32760432682E+00  0.32760432682E+00  0.00000000000E+00 0. -1.
          2   -1    0    0  502    0 -0.00000000000E+00 -0.00000000000E+00 -0.31658311337E+04  0.31658311337E+04  0.00000000000E+00 0.  1.
          2    1    1    2  501    0 -0.17808931673E+02 -0.26698023995E+02 -0.14508735151E+04  0.14512284105E+04  0.00000000000E+00 0. -1.
          2    1    1    2  502    0  0.17808931673E+02  0.26698023995E+02 -0.17146300143E+04  0.17149303275E+04  0.00000000000E+00 0.  1.
</event>
<event>
 4    1  0.6136512E+003  0.5930331E+02  0.7546771E-02  0.1262218E+00
          2   -1    0    0  502    0  0.00000000000E+00  0.00000000000E+00  0.12739881744E+04  0.12739881744E+04  0.00000000000E+00 0.  1.
          2   -1    0    0  501    0 -0.00000000000E+00 -0.00000000000E+00 -0.81721306283E+03  0.81721306283E+03  0.00000000000E+00 0.  1.
          2    1    1    2  501    0  0.50443139356E+02  0.31182887353E+02  0.12722206710E+04  0.12736021037E+04  0.00000000000E+00 0.  1.
          2    1    1    2  502    0 -0.50443139356E+02 -0.31182887353E+02 -0.81544555944E+03  0.81759913355E+03  0.00000000000E+00 0.  1.
</event>
<event>
 4    1  0.6136512E+003  0.3943590E+02  0.7546771E-02  0.1351823E+00
          2   -1    0    0  501    0  0.00000000000E+00  0.00000000000E+00  0.22298396398E+01  0.22298396398E+01  0.00000000000E+00 0. -1.
          2   -1    0    0  502    0 -0.00000000000E+00 -0.00000000000E+00 -0.16596460313E+04  0.16596460313E+04  0.00000000000E+00 0.  1.
          2    1    1    2  501    0  0.37835640565E+02  0.11119988356E+02 -0.14614022584E+04  0.14619342498E+04  0.00000000000E+00 0.  1.
          2    1    1    2  502    0 -0.37835640565E+02 -0.11119988356E+02 -0.19601393328E+03  0.19994162118E+03  0.00000000000E+00 0. -1.
</event>
<event>
 4    1  0.6136512E+003  0.2715804E+02  0.7546771E-02  0.1446027E+00
          2   -1    0    0  502    0  0.00000000000E+00  0.00000000000E+00  0.66199489874E+01  0.66199489874E+01  0.00000000000E+00 0. -1.
          2   -1    0    0  501    0 -0.00000000000E+00 -0.00000000000E+00 -0.93772720920E+03  0.93772720920E+03  0.00000000000E+00 0.  1.
          2    1    1    2  501    0  0.27140128226E+02 -0.98616824785E+00 -0.22317036597E+02  0.35151233413E+02  0.00000000000E+00 0. -1.
          2    1    1    2  502    0 -0.27140128226E+02  0.98616824785E+00 -0.90879022361E+03  0.90919592477E+03  0.00000000000E+00 0.  1.
</event>
<event>
 4    1  0.6136512E+003  0.2879959E+02  0.7546771E-02  0.1430323E+00
          2   -1    0    0  502    0  0.00000000000E+00  0.00000000000E+00  0.21423329825E+04  0.21423329825E+04  0.00000000000E+00 0.  1.
          2   -1    0    0  501    0 -0.00000000000E+00 -0.00000000000E+00 -0.34634877984E+01  0.34634877984E+01  0.00000000000E+00 0. -1.
          2    1    1    2  501    0 -0.28796848124E+02 -0.39708776028E+00  0.20805911072E+04  0.20807904199E+04  0.00000000000E+00 0.  1.
          2    1    1    2  502    0  0.28796848124E+02  0.39708776028E+00  0.58278387536E+02  0.65006050444E+02  0.00000000000E+00 0. -1.
</event>
<event>
 4    1  0.6136512E+003  0.2432904E+02  0.7546771E-02  0.1476451E+00
          2   -1    0    0  502    0  0.00000000000E+00  0.00000000000E+00  0.43201407183E+01  0.43201407183E+01  0.00000000000E+00 0. -1.
          2   -1    0    0  501    0 -0.00000000000E+00 -0.00000000000E+00 -0.12494593854E+04  0.12494593854E+04  0.00000000000E+00 0.  1.
          2    1    1    2  501    0 -0.23791292660E+02 -0.50868876524E+01 -0.31048500890E+02  0.39445043287E+02  0.00000000000E+00 0. -1.
          2    1    1    2  502    0  0.23791292660E+02  0.50868876524E+01 -0.12140907438E+04  0.12143344829E+04  0.00000000000E+00 0.  1.
</event>
<event>
 4    1  0.6136512E+003  0.2188721E+02  0.7546771E-02  0.1506965E+00
          2   -1    0    0  502    0  0.00000000000E+00  0.00000000000E+00  0.38260112904E+02  0.38260112904E+02  0.00000000000E+00 0. -1.
          2   -1    0    0  501    0 -0.00000000000E+00 -0.00000000000E+00 -0.67287113011E+03  0.67287113011E+03  0.00000000000E+00 0. -1.
          2    1    1    2  501    0 -0.19544126151E+02  0.98527620283E+01  0.34936374207E+02  0.41226205614E+02  0.00000000000E+00 0. -1.
          2    1    1    2  502    0  0.19544126151E+02 -0.98527620283E+01 -0.66954739141E+03  0.66990503740E+03  0.00000000000E+00 0. -1.
</event>
<event>
 4    1  0.6136512E+003  0.2229032E+02  0.7546771E-02  0.1501607E+00
          2   -1    0    0  501    0  0.00000000000E+00  0.00000000000E+00  0.12415116497E+03  0.12415116497E+03  0.00000000000E+00 0.  1.
          2   -1    0    0  502    0 -0.00000000000E+00 -0.00000000000E+00 -0.10318201904E+03  0.10318201904E+03  0.00000000000E+00 0. -1.
          2    1    1    2  501    0  0.21904669502E+02 -0.41284126989E+01 -0.10095586930E+03  0.10338735843E+03  0.00000000000E+00 0. -1.
          2    1    1    2  502    0 -0.21904669502E+02  0.41284126989E+01  0.12192501524E+03  0.12394582558E+03  0.00000000000E+00 0.  1.
</event>
<event>
 4    1  0.6136512E+003  0.2215312E+02  0.7546771E-02  0.1503415E+00
          2   -1    0    0  501    0  0.00000000000E+00  0.00000000000E+00  0.42467853099E+00  0.42467853099E+00  0.00000000000E+00 0. -1.
          2   -1    0    0  502    0 -0.00000000000E+00 -0.00000000000E+00 -0.17258172827E+04  0.17258172827E+04  0.00000000000E+00 0. -1.
          2    1    1    2  501    0  0.78659253388E+01  0.20709604771E+02 -0.13588230712E+04  0.13590036421E+04  0.00000000000E+00 0. -1.
          2    1    1    2  502    0 -0.78659253388E+01 -0.20709604771E+02 -0.36656953297E+03  0.36723831910E+03  0.00000000000E+00 0. -1.
</event>
<event>
 4    1  0.6136512E+003  0.2455203E+02  0.7546771E-02  0.1473878E+00
          2   -1    0    0  501    0  0.00000000000E+00  0.00000000000E+00  0.14109662335E+02  0.14109662335E+02  0.00000000000E+00 0.  1.
          2   -1    0    0  502    0 -0.00000000000E+00 -0.00000000000E+00 -0.92563329613E+03  0.92563329613E+03  0.00000000000E+00 0.  1.
          2    1    1    2  501    0 -0.18819514341E+02  0.15767943641E+02 -0.91466173180E+03  0.91499119438E+03  0.00000000000E+00 0.  1.
          2    1    1    2  502    0  0.18819514341E+02 -0.15767943641E+02  0.31380980003E+01  0.24751764094E+02  0.00000000000E+00 0.  1.
</event>
<event>
 4    1  0.6136512E+003  0.2233244E+02  0.7546771E-02  0.1501055E+00
          2   -1    0    0  502    0  0.00000000000E+00  0.00000000000E+00  0.34042162928E+01  0.34042162928E+01  0.00000000000E+00 0.  1.
          2   -1    0    0  501    0 -0.00000000000E+00 -0.00000000000E+00 -0.27171550967E+03  0.27171550967E+03  0.00000000000E+00 0.  1.
          2    1    1    2  501    0 -0.66008563157E+01  0.21334637564E+02 -0.40775790224E+02  0.46490893006E+02  0.00000000000E+00 0.  1.
          2    1    1    2  502    0  0.66008563157E+01 -0.21334637564E+02 -0.22753550315E+03  0.22862883296E+03  0.00000000000E+00 0.  1.
</event>
<event>
 4    1  0.6136512E+003  0.3280554E+02  0.7546771E-02  0.1396684E+00
          2   -1    0    0  502    0  0.00000000000E+00  0.00000000000E+00  0.71669799346E+03  0.71669799346E+03  0.00000000000E+00 0. -1.
          2   -1    0    0  501    0 -0.00000000000E+00 -0.00000000000E+00 -0.86769122643E+01  0.86769122643E+01  0.00000000000E+00 0. -1.
          2    1    1    2  501    0 -0.32195022949E+02  0.62995257355E+01  0.68382517094E+03  0.68461161831E+03  0.00000000000E+00 0. -1.
          2    1    1    2  502    0  0.32195022949E+02 -0.62995257355E+01  0.24195910262E+02  0.40763287411E+02  0.00000000000E+00 0. -1.
</event>
<event>
 4    1  0.6136512E+003  0.2457829E+02  0.7546771E-02  0.1473577E+00
          2   -1    0    0  501    0  0.00000000000E+00  0.00000000000E+00  0.28400926171E+01  0.28400926171E+01  0.00000000000E+00 0.  1.
          2   -1    0    0  502    0 -0.00000000000E+00 -0.00000000000E+00 -0.76847189726E+03  0.76847189726E+03  0.00000000000E+00 0.  1.
          2    1    1    2  501    0 -0.68321926553E+01  0.23609602566E+02 -0.71078563464E+03  0.71121045451E+03  0.00000000000E+00 0.  1.
          2    1    1    2  502    0  0.68321926553E+01 -0.23609602566E+02 -0.54846170002E+02  0.60101535369E+02  0.00000000000E+00 0.  1.
</event>
<event>
 4    1  0.6136512E+003  0.6600798E+02  0.7546771E-02  0.1240681E+00
          2   -1    0    0  501    0  0.00000000000E+00  0.00000000000E+00  0.13615222742E+04  0.13615222742E+04  0.00000000000E+00 0. -1.
          2   -1    0    0  502    0 -0.00000000000E+00 -0.00000000000E+00 -0.69556515459E+01  0.69556515459E+01  0.00000000000E+00 0.  1.
          2    1    1    2  501    0 -0.62204156743E+02 -0.22083852633E+02  0.17450817518E+03  0.18657480233E+03  0.00000000000E+00 0.  1.
          2    1    1    2  502    0  0.62204156743E+02  0.22083852633E+02  0.11800584474E+04  0.11819031234E+04  0.00000000000E+00 0. -1.
</event>
<event>
 4    1  0.6136512E+003  0.2314260E+02  0.7546771E-02  0.1490715E+00
          2   -1    0    0  502    0  0.00000000000E+00  0.00000000000E+00  0.35014849807E+03  0.35014849807E+03  0.00000000000E+00 0.  1.
          2   -1    0    0  501    0 -0.00000000000E+00 -0.00000000000E+00 -0.27854006002E+02  0.27854006002E+02  0.00000000000E+00 0.  1.
          2    1    1    2  501    0 -0.21711788622E+02  0.80111413618E+01  0.34488580401E+03  0.34566139205E+03  0.00000000000E+00 0.  1.
          2    1    1    2  502    0  0.21711788622E+02 -0.80111413618E+01 -0.22591311942E+02  0.32341112015E+02  0.00000000000E+00 0.  1.
</event>
<event>
 4    1  0.7167721E+003  0.3229427E+02  0.7546771E-02  0.1400653E+00
          2   -1    0    0  502    0  0.00000000000E+00  0.00000000000E+00  0.31879797760E+03  0.31879797760E+03  0.00000000000E+00 0.  1.
          2   -1    0    0  501    0 -0.00000000000E+00 -0.00000000000E+00 -0.16511823820E+04  0.16511823820E+04  0.00000000000E+00 0.  1.
          2    1    1    2  501    0 -0.29595662632E+02 -0.12923497765E+02  0.31782173538E+03  0.31945825317E+03  0.00000000000E+00 0.  1.
          2    1    1    2  502    0  0.29595662632E+02  0.12923497765E+02 -0.16502061398E+04  0.16505221065E+04  0.00000000000E+00 0.  1.
</event>
<event>
 4    1  0.6136512E+003  0.3654195E+02  0.7546771E-02  0.1370035E+00
          2   -1    0    0  501    0  0.00000000000E+00  0.00000000000E+00  0.16227300474E+02  0.16227300474E+02  0.00000000000E+00 0.  1.
          2   -1    0    0  502    0 -0.00000000000E+00 -0.00000000000E+00 -0.25481528524E+03  0.25481528524E+03  0.00000000000E+00 0. -1.
          2    1    1    2  501    0 -0.31000130804E+02  0.19346991817E+02 -0.23080648653E+03  0.23368129670E+03  0.00000000000E+00 0. -1.
          2    1    1    2  502    0  0.31000130804E+02 -0.19346991817E+02 -0.77814982383E+01  0.37361289018E+02  0.00000000000E+00 0.  1.
</event>
<event>
 4    1  0.6136512E+003  0.2418935E+02  0.7546771E-02  0.1478080E+00
          2   -1    0    0  501    0  0.00000000000E+00  0.00000000000E+00  0.44884094313E+01  0.44884094313E+01  0.00000000000E+00 0.  1.
          2   -1    0    0  502    0 -0.00000000000E+00 -0.00000000000E+00 -0.10614622156E+04  0.10614622156E+04  0.00000000000E+00 0. -1.
          2    1    1    2  501    0 -0.11494229583E+02  0.21283974007E+02 -0.10276617367E+04  0.10279463847E+04  0.00000000000E+00 0. -1.
          2    1    1    2  502    0  0.11494229583E+02 -0.21283974007E+02 -0.29312069535E+02  0.38004240338E+02  0.00000000000E+00 0.  1.
</event>
<event>
 4    1  0.6136512E+003  0.3356685E+02  0.7546771E-02  0.1390928E+00
          2   -1    0    0  502    0  0.00000000000E+00  0.00000000000E+00  0.41372819832E+02  0.41372819832E+02  0.00000000000E+00 0. -1.
          2   -1    0    0  501    0 -0.00000000000E+00 -0.00000000000E+00 -0.31044078623E+02  0.31044078623E+02  0.00000000000E+00 0. -1.
          2    1    1    2  501    0  0.28765679895E+02  0.17299399456E+02  0.17849839791E+02  0.38017763505E+02  0.00000000000E+00 0. -1.
          2    1    1    2  502    0 -0.28765679895E+02 -0.17299399456E+02 -0.75210985820E+01  0.34399134949E+02  0.00000000000E+00 0. -1.
</event>
<event>
 4    1  0.6136512E+003  0.2090449E+02  0.7546771E-02  0.1520633E+00
          2   -1    0    0  502    0  0.00000000000E+00  0.00000000000E+00  0.31878143768E+02  0.31878143768E+02  0.00000000000E+00 0. -1.
          2   -1    0    0  501    0 -0.00000000000E+00 -0.00000000000E+00 -0.11056649652E+03  0.11056649652E+03  0.00000000000E+00 0. -1.
          2    1    1    2  501    0 -0.19211622606E+02  0.82408349166E+01  0.27316903706E+02  0.34397834690E+02  0.00000000000E+00 0. -1.
          2    1    1    2  502    0  0.19211622606E+02 -0.82408349166E+01 -0.10600525646E+03  0.10804680560E+03  0.00000000000E+00 0. -1.
</event>
<event>
 4    1  0.6136512E+003  0.2663993E+02  0.7546771E-02  0.1451259E+00
          2   -1    0    0  501    0  0.00000000000E+00  0.00000000000E+00  0.25419813461E+03  0.25419813461E+03  0.00000000000E+00 0. -1.
          2   -1    0    0  502    0 -0.00000000000E+00 -0.00000000000E+00 -0.27711566616E+02  0.27711566616E+02  0.00000000000E+00 0. -1.
          2    1    1    2  501    0 -0.18323454253E+02 -0.19337452915E+02 -0.20422710286E+02  0.33567441911E+02  0.00000000000E+00 0. -1.
          2    1    1    2  502    0  0.18323454253E+02  0.19337452915E+02  0.24690927828E+03  0.24834225932E+03  0.00000000000E+00 0. -1.
</event>
<event>
 4    1  0.6136512E+003  0.4118902E+02  0.7546771E-02  0.1341656E+00
          2   -1    0    0  501    0  0.00000000000E+00  0.00000000000E+00  0.46112275222E+01  0.46112275222E+01  0.00000000000E+00 0. -1.
          2   -1    0    0  502    0 -0.00000000000E+00 -0.00000000000E+00 -0.41518247258E+03  0.41518247258E+03  0.00000000000E+00 0.  1.
          2    1    1    2  501    0 -0.31534323363E+01 -0.41068133704E+02 -0.27610818291E+03  0.27916350838E+03  0.00000000000E+00 0.  1.
          2    1    1    2  502    0  0.31534323363E+01  0.41068133704E+02 -0.13446306214E+03  0.14063019172E+03  0.00000000000E+00 0. -1.
</event>
<event>
 4    1  0.6136512E+003  0.2996390E+02  0.7546771E-02  0.1419910E+00
          2   -1    0    0  501    0  0.00000000000E+00  0.00000000000E+00  0.30922685644E+03  0.30922685644E+03  0.00000000000E+00 0.  1.
          2   -1    0    0  502    0 -0.00000000000E+00 -0.00000000000E+00 -0.53862423597E+02  0.53862423597E+02  0.00000000000E+00 0.  1.
          2    1    1    2  501    0 -0.29814842059E+02 -0.29850823283E+01 -0.48901508082E+02  0.57351486609E+02  0.00000000000E+00 0.  1.
          2    1    1    2  502    0  0.29814842059E+02  0.29850823283E+01  0.30426594093E+03  0.30573779343E+03  0.00000000000E+00 0.  1.
</event>
<event>
 4    1  0.6136512E+003  0.4812797E+02  0.7546771E-02  0.1306499E+00
          2   -1    0    0  502    0  0.00000000000E+00  0.00000000000E+00  0.26367012603E+04  0.26367012603E+04  0.00000000000E+00 0. -1.
          2   -1    0    0  501    0 -0.00000000000E+00 -0.00000000000E+00 -0.22019238701E+01  0.22019238701E+01  0.00000000000E+00 0. -1.
          2    1    1    2  501    0 -0.19993868007E+02 -0.43778385053E+02  0.23401758664E+04  0.23406707131E+04  0.00000000000E+00 0. -1.
          2    1    1    2  502    0  0.19993868007E+02  0.43778385053E+02  0.29432347007E+03  0.29823247105E+03  0.00000000000E+00 0. -1.
</event>
<event>
 4    1  0.6136512E+003  0.2206000E+02  0.7546771E-02  0.1504651E+00
          2   -1    0    0  501    0  0.00000000000E+00  0.00000000000E+00  0.14809110897E+03  0.14809110897E+03  0.00000000000E+00 0. -1.
          2   -1    0    0  502    0 -0.00000000000E+00 -0.00000000000E+00 -0.13258356277E+02  0.13258356277E+02  0.00000000000E+00 0. -1.
          2    1    1    2  501    0 -0.84243427238E-01 -0.22059843721E+02 -0.25499660473E+01  0.22206893722E+02  0.00000000000E+00 0. -1.
          2    1    1    2  502    0  0.84243427238E-01  0.22059843721E+02  0.13738271874E+03  0.13914257152E+03  0.00000000000E+00 0. -1.
</event>
<event>
 4    1  0.6136512E+003  0.2490814E+02  0.7546771E-02  0.1469834E+00
          2   -1    0    0  501    0  0.00000000000E+00  0.00000000000E+00  0.81234548143E+03  0.81234548143E+03  0.00000000000E+00 0. -1.
          2   -1    0    0  502    0 -0.00000000000E+00 -0.00000000000E+00 -0.38677629354E+01  0.38677629354E+01  0.00000000000E+00 0.  1.
          2    1    1    2  501    0 -0.22501085163E+02 -0.10682535175E+02  0.38638478334E+02  0.45971158341E+02  0.00000000000E+00 0.  1.
          2    1    1    2  502    0  0.22501085163E+02  0.10682535175E+02  0.76983924016E+03  0.77024208603E+03  0.00000000000E+00 0. -1.
</event>
<event>
 4    1  0.6136512E+003  0.2296367E+02  0.7546771E-02  0.1492955E+00
          2   -1    0    0  501    0  0.00000000000E+00  0.00000000000E+00  0.18564533759E+04  0.18564533759E+04  0.00000000000E+00 0.  1.
          2   -1    0    0  502    0 -0.00000000000E+00 -0.00000000000E+00 -0.41339573606E+00  0.41339573606E+00  0.00000000000E+00 0.  1.
          2    1    1    2  501    0 -0.21046403776E+02 -0.91858125185E+01  0.40869457518E+03  0.40933920659E+03  0.00000000000E+00 0.  1.
          2    1    1    2  502    0  0.21046403776E+02  0.91858125185E+01  0.14473454050E+04  0.14475275651E+04  0.00000000000E+00 0.  1.
</event>
<event>
 4    1  0.6136512E+003  0.3668605E+02  0.7546771E-02  0.1369082E+00
          2   -1    0    0  502    0  0.00000000000E+00  0.00000000000E+00  0.11131171217E+02  0.11131171217E+02  0.00000000000E+00 0.  1.
          2   -1    0    0  501    0 -0.00000000000E+00 -0.00000000000E+00 -0.57755768747E+03  0.57755768747E+03  0.00000000000E+00 0.  1.
          2    1    1    2  501    0  0.12573484834E+02 -0.34464095927E+02 -0.21486023419E+02  0.42514887172E+02  0.00000000000E+00 0.  1.
          2    1    1    2  502    0 -0.12573484834E+02  0.34464095927E+02 -0.54494049283E+03  0.54617397151E+03  0.00000000000E+00 0.  1.
</event>
<event>
 4    1  0.6136512E+003  0.3352948E+02  0.7546771E-02  0.1391207E+00
          2   -1    0    0  502    0  0.00000000000E+00  0.00000000000E+00  0.15003219792E+04  0.15003219792E+04  0.00000000000E+00 0.  1.
          2   -1    0    0  501    0 -0.00000000000E+00 -0.00000000000E+00 -0.11913998741E+03  0.11913998741E+03  0.00000000000E+00 0. -1.
          2    1    1    2  501    0 -0.26346046514E+02  0.20739134728E+02  0.14977715880E+04  0.14981468405E+04  0.00000000000E+00 0.  1.
          2    1    1    2  502    0  0.26346046514E+02 -0.20739134728E+02 -0.11658959622E+03  0.12131512611E+03  0.00000000000E+00 0. -1.
</event>
<event>
 4    1  0.6136512E+003  0.8166367E+02  0.7546771E-02  0.1200037E+00
          2   -1    0    0  502    0  0.00000000000E+00  0.00000000000E+00  0.12890692827E+03  0.12890692827E+03  0.00000000000E+00 0. -1.
          2   -1    0    0  501    0 -0.00000000000E+00 -0.00000000000E+00 -0.85145124444E+02  0.85145124444E+02  0.00000000000E+00 0.  1.
          2    1    1    2  501    0  0.70238480317E+02  0.41659456254E+02  0.88923502278E+02  0.12073252946E+03  0.00000000000E+00 0. -1.
          2    1    1    2  502    0 -0.70238480317E+02 -0.41659456254E+02 -0.45161698455E+02  0.93319523252E+02  0.00000000000E+00 0.  1.
</event>
<event>
 4    1  0.6136512E+003  0.2211171E+02  0.7546771E-02  0.1503964E+00
          2   -1    0    0  501    0  0.00000000000E+00  0.00000000000E+00  0.88818469585E+01  0.88818469585E+01  0.00000000000E+00 0. -1.
          2   -1    0    0  502    0 -0.00000000000E+00 -0.00000000000E+00 -0.14915391805E+03  0.14915391805E+03  0.00000000000E+00 0.  1.
          2    1    1    2  501    0  0.16140149286E+02 -0.15113676875E+02 -0.13290089935E+03  0.13472778740E+03  0.00000000000E+00 0.  1.
          2    1    1    2  502    0 -0.16140149286E+02  0.15113676875E+02 -0.73711717408E+01  0.23307977615E+02  0.00000000000E+00 0. -1.
</event>
<event>
 4    1  0.6136512E+003  0.2509956E+02  0.7546771E-02  0.1467693E+00
          2   -1    0    0  501    0  0.00000000000E+00  0.00000000000E+00  0.16170260625E+04  0.16170260625E+04  0.00000000000E+00 0. -1.
          2   -1    0    0  502    0 -0.00000000000E+00 -0.00000000000E+00 -0.56390906410E+02  0.56390906410E+02  0.00000000000E+00 0.  1.
          2    1    1    2  501    0  0.24559512876E+02  0.51786528999E+01 -0.53495546801E+02  0.59091130012E+02  0.00000000000E+00 0.  1.
          2    1    1    2  502    0 -0.24559512876E+02 -0.51786528999E+01  0.16141307029E+04  0.16143258389E+04  0.00000000000E+00 0. -1.
</event>
<event>
 4    1  0.6136512E+003  0.2261752E+02  0.7546771E-02  0.1497358E+00
          2   -1    0    0  501    0  0.00000000000E+00  0.00000000000E+00  0.50074145212E+03  0.50074145212E+03  0.00000000000E+00 0.  1.
          2   -1    0    0  502    0 -0.00000000000E+00 -0.00000000000E+00 -0.12078103493E+02  0.12078103493E+02  0.00000000000E+00 0. -1.
          2    1    1    2  501    0 -0.22338218803E+02 -0.35435008101E+01 -0.99473977238E+00  0.22639388784E+02  0.00000000000E+00 0. -1.
          2    1    1    2  502    0  0.22338218803E+02  0.35435008101E+01  0.48965808840E+03  0.49018016683E+03  0.00000000000E+00 0.  1.
</event>
<event>
 4    1  0.6136512E+003  0.2412508E+02  0.7546771E-02  0.1478834E+00
          2   -1    0    0  501    0  0.00000000000E+00  0.00000000000E+00  0.13671284514E+03  0.13671284514E+03  0.00000000000E+00 0.  1.
          2   -1    0    0  502    0 -0.00000000000E+00 -0.00000000000E+00 -0.39403154597E+03  0.39403154597E+03  0.00000000000E+00 0. -1.
          2    1    1    2  501    0 -0.11812278754E+02  0.21035440951E+02 -0.39259406984E+03  0.39333462011E+03  0.00000000000E+00 0. -1.
          2    1    1    2  502    0  0.11812278754E+02 -0.21035440951E+02  0.13527536901E+03  0.13740977100E+03  0.00000000000E+00 0.  1.
</event>
<event>
 4    1  0.6136512E+003  0.3583748E+02  0.7546771E-02  0.1374769E+00
          2   -1    0    0  501    0  0.00000000000E+00  0.00000000000E+00  0.53644844824E+01  0.53644844824E+01  0.00000000000E+00 0. -1.
          2   -1    0    0  502    0 -0.00000000000E+00 -0.00000000000E+00 -0.23979978475E+03  0.23979978475E+03  0.00000000000E+00 0.  1.
          2    1    1    2  501    0 -0.35835728892E+02 -0.35412313364E+00 -0.12214364816E+03  0.12729255930E+03  0.00000000000E+00 0.  1.
          2    1    1    2  502    0  0.35835728892E+02  0.35412313364E+00 -0.11229165212E+03  0.11787170994E+03  0.00000000000E+00 0. -1.
</event>
<event>
 4    1  0.6136512E+003  0.2076983E+02  0.7546771E-02  0.1522577E+00
          2   -1    0    0  502    0  0.00000000000E+00  0.00000000000E+00  0.10291266728E+02  0.10291266728E+02  0.00000000000E+00 0. -1.
          2   -1    0    0  501    0 -0.00000000000E+00 -0.00000000000E+00 -0.18896098767E+03  0.18896098767E+03  0.00000000000E+00 0.  1.
          2    1    1    2  501    0 -0.20568072274E+02 -0.28879418911E+01 -0.14508562416E+01  0.20820441621E+02  0.00000000000E+00 0. -1.
          2    1    1    2  502    0  0.20568072274E+02  0.28879418911E+01 -0.17721886470E+03  0.17843181278E+03  0.00000000000E+00 0.  1.
</event>
<event>
 4    1  0.6136512E+003  0.2143154E+02  0.7546771E-02  0.1513192E+00
          2   -1    0    0  502    0  0.00000000000E+00  0.00000000000E+00  0.14501034003E+04  0.14501034003E+04  0.00000000000E+00 0. -1.
          2   -1    0    0  501    0 -0.00000000000E+00 -0.00000000000E+00 -0.41103154713E+00  0.41103154713E+00  0.00000000000E+00 0.  1.
          2    1    1    2  501    0  0.11370396379E+02  0.18166587221E+02  0.10722086069E+04  0.10724227746E+04  0.00000000000E+00 0. -1.
          2    1    1    2  502    0 -0.11370396379E+02 -0.18166587221E+02  0.37748376186E+03  0.37809165724E+03  0.00000000000E+00 0.  1.
</event>
<event>
 4    1  0.6136512E+003  0.2965601E+02  0.7546771E-02  0.1422610E+00
          2   -1    0    0  501    0  0.00000000000E+00  0.00000000000E+00  0.23204978084E+03  0.23204978084E+03  0.00000000000E+00 0.  1.
          2   -1    0    0  502    0 -0.00000000000E+00 -0.00000000000E+00 -0.28283151599E+03  0.28283151599E+03  0.00000000000E+00 0.  1.
          2    1    1    2  501    0 -0.29109106219E+02  0.56691190855E+01 -0.28110079956E+03  0.28266081881E+03  0.00000000000E+00 0.  1.
          2    1    1    2  502    0  0.29109106219E+02 -0.56691190855E+01  0.23031906441E+03  0.23222047801E+03  0.00000000000E+00 0.  1.
</event>
<event>
 4    1  0.6136512E+003  0.2000856E+02  0.7546771E-02  0.1533905E+00
          2   -1    0    0  502    0  0.00000000000E+00  0.00000000000E+00  0.27047404209E+03  0.27047404209E+03  0.00000000000E+00 0. -1.
          2   -1    0    0  501    0 -0.00000000000E+00 -0.00000000000E+00 -0.80292358263E+01  0.80292358263E+01  0.00000000000E+00 0. -1.
          2    1    1    2  501    0 -0.19869081782E+02 -0.23583983386E+01  0.25698558384E+03  0.25776332702E+03  0.00000000000E+00 0. -1.
          2    1    1    2  502    0  0.19869081782E+02  0.23583983386E+01  0.54592224170E+01  0.20739950892E+02  0.00000000000E+00 0. -1.
</event>
<event>
 4    1  0.6136512E+003  0.2373719E+02  0.7546771E-02  0.1483443E+00
          2   -1    0    0  502    0  0.00000000000E+00  0.00000000000E+00  0.56330271755E+01  0.56330271755E+01  0.00000000000E+00 0.  1.
          2   -1    0    0  501    0 -0.00000000000E+00 -0.00000000000E+00 -0.10286670329E+03  0.10286670329E+03  0.00000000000E+00 0.  1.
          2    1    1    2  501    0 -0.90602248861E+01  0.21940068861E+02 -0.39603104945E+02  0.46172071838E+02  0.00000000000E+00 0.  1.
          2    1    1    2  502    0  0.90602248861E+01 -0.21940068861E+02 -0.57630571172E+02  0.62327658629E+02  0.00000000000E+00 0.  1.
</event>
<event>
 4    1  0.6136512E+003  0.2143511E+02  0.7546771E-02  0.1513142E+00
          2   -1    0    0  501    0  0.00000000000E+00  0.00000000000E+00  0.21233301206E+02  0.21233301206E+02  0.00000000000E+00 0.  1.
          2   -1    0    0  502    0 -0.00000000000E+00 -0.00000000000E+00 -0.40406998398E+02  0.40406998398E+02  0.00000000000E+00 0.  1.
          2    1    1    2  501    0  0.21434809259E+02  0.11321706347E+00 -0.30591590870E+02  0.37353839134E+02  0.00000000000E+00 0.  1.
          2    1    1    2  502    0 -0.21434809259E+02 -0.11321706347E+00  0.11417893679E+02  0.24286460470E+02  0.00000000000E+00 0.  1.
</event>
<event>
 4    1  0.6136512E+003  0.2327278E+02  0.7546771E-02  0.1489101E+00
          2   -1    0    0  502    0  0.00000000000E+00  0.00000000000E+00  0.35519208565E+03  0.35519208565E+03  0.00000000000E+00 0. -1.
          2   -1    0    0  501    0 -0.00000000000E+00 -0.00000000000E+00 -0.10237539721E+03  0.10237539721E+03  0.00000000000E+00 0.  1.
          2    1    1    2  501    0  0.88203400328E+01 -0.21536574686E+02  0.35348183706E+03  0.35424713348E+03  0.00000000000E+00 0. -1.
          2    1    1    2  502    0 -0.88203400328E+01  0.21536574686E+02 -0.10066514863E+03  0.10332034938E+03  0.00000000000E+00 0.  1.
</event>
<event>
 4    1  0.6136512E+003  0.2376223E+02  0.7546771E-02  0.1483142E+00
          2   -1    0    0  501    0  0.00000000000E+00  0.00000000000E+00  0.93129352828E+01  0.93129352828E+01  0.00000000000E+00 0. -1.
          2   -1    0    0  502    0 -0.00000000000E+00 -0.00000000000E+00 -0.22185257185E+03  0.22185257185E+03  0.00000000000E+00 0.  1.
          2    1    1    2  501    0 -0.10884403585E+02 -0.21122821002E+02 -0.20480098986E+03  0.20617489967E+03  0.00000000000E+00 0.  1.
          2    1    1    2  502    0  0.10884403585E+02  0.21122821002E+02 -0.77386467144E+01  0.24990607465E+02  0.00000000000E+00 0. -1.
</event>
<event>
 4    1  0.6136512E+003  0.2352640E+02  0.7546771E-02  0.1485992E+00
          2   -1    0    0  501    0  0.00000000000E+00  0.00000000000E+00  0.13743595748E+02  0.13743595748E+02  0.00000000000E+00 0.  1.
          2   -1    0    0  502    0 -0.00000000000E+00 -0.00000000000E+00 -0.40737302785E+03  0.40737302785E+03  0.00000000000E+00 0. -1.
          2    1    1    2  501    0  0.15228119029E+01  0.23477061164E+02 -0.39669440076E+03  0.39739141781E+03  0.00000000000E+00 0. -1.
          2    1    1    2  502    0 -0.15228119029E+01 -0.23477061164E+02  0.30649686531E+01  0.23725205791E+02  0.00000000000E+00 0.  1.
</event>
<event>
 4    1  0.6136512E+003  0.2107002E+02  0.7546771E-02  0.1518267E+00
          2   -1    0    0  502    0  0.00000000000E+00  0.00000000000E+00  0.21625828062E+03  0.21625828062E+03  0.00000000000E+00 0.  1.
          2   -1    0    0  501    0 -0.00000000000E+00 -0.00000000000E+00 -0.19371010788E+02  0.19371010788E+02  0.00000000000E+00 0.  1.
          2    1    1    2  501    0 -0.17408276896E+02  0.11870031065E+02  0.20984077155E+03  0.21089593440E+03  0.00000000000E+00 0.  1.
          2    1    1    2  502    0  0.17408276896E+02 -0.11870031065E+02 -0.12953501720E+02  0.24733357006E+02  0.00000000000E+00 0.  1.
</event>
<event>
 4    1  0.6136512E+003  0.2855163E+02  0.7546771E-02  0.1432615E+00
          2   -1    0    0  502    0  0.00000000000E+00  0.00000000000E+00  0.36498484753E+01  0.36498484753E+01  0.00000000000E+00 0.  1.
          2   -1    0    0  501    0 -0.00000000000E+00 -0.00000000000E+00 -0.15458660010E+04  0.15458660010E+04  0.00000000000E+00 0. -1.
          2    1    1    2  501    0  0.78473399067E+01  0.27452051097E+02 -0.54502021672E+02  0.61527767873E+02  0.00000000000E+00 0.  1.
          2    1    1    2  502    0 -0.78473399067E+01 -0.27452051097E+02 -0.14877141309E+04  0.14879880816E+04  0.00000000000E+00 0. -1.
</event>
<event>
 4    1  0.6136512E+003  0.2313573E+02  0.7546771E-02  0.1490801E+00
          2   -1    0    0  501    0  0.00000000000E+00  0.00000000000E+00  0.18743243483E+04  0.18743243483E+04  0.00000000000E+00 0.  1.
          2   -1    0    0  502    0 -0.00000000000E+00 -0.00000000000E+00 -0.37671663214E+00  0.37671663214E+00  0.00000000000E+00 0. -1.
          2    1    1    2  501    0  0.19707593149E+02 -0.12119106508E+02  0.47592092151E+03  0.47648293306E+03  0.00000000000E+00 0. -1.
          2    1    1    2  502    0 -0.19707593149E+02  0.12119106508E+02  0.13980267102E+04  0.13982181319E+04  0.00000000000E+00 0.  1.
</event>
<event>
 4    1  0.6136512E+003  0.2774802E+02  0.7546771E-02  0.1440235E+00
          2   -1    0    0  502    0  0.00000000000E+00  0.00000000000E+00  0.42772842865E+03  0.42772842865E+03  0.00000000000E+00 0.  1.
          2   -1    0    0  501    0 -0.00000000000E+00 -0.00000000000E+00 -0.21215241163E+01  0.21215241163E+01  0.00000000000E+00 0.  1.
          2    1    1    2  501    0  0.27471330630E+02 -0.39087716157E+01  0.29646086104E+03  0.29775660300E+03  0.00000000000E+00 0.  1.
          2    1    1    2  502    0 -0.27471330630E+02  0.39087716157E+01  0.12914604350E+03  0.13209334977E+03  0.00000000000E+00 0.  1.
</event>
<event>
 4    1  0.6136512E+003  0.3938641E+02  0.7546771E-02  0.1352119E+00
          2   -1    0    0  501    0  0.00000000000E+00  0.00000000000E+00  0.75227800471E+03  0.75227800471E+03  0.00000000000E+00 0. -1.
          2   -1    0    0  502    0 -0.00000000000E+00 -0.00000000000E+00 -0.36040849463E+01  0.36040849463E+01  0.00000000000E+00 0.  1.
          2    1    1    2  501    0 -0.27940857835E+02 -0.27759649141E+02  0.12712845935E+03  0.13308995016E+03  0.00000000000E+00 0.  1.
          2    1    1    2  502    0  0.27940857835E+02  0.27759649141E+02  0.62154546042E+03  0.62279213950E+03  0.00000000000E+00 0. -1.
</event>
<event>
 4    1  0.6136512E+003  0.3386095E+02  0.7546771E-02  0.1388753E+00
          2   -1    0    0  501    0  0.00000000000E+00  0.00000000000E+00  0.36575103452E+02  0.36575103452E+02  0.00000000000E+00 0.  1.
          2   -1    0    0  502    0 -0.00000000000E+00 -0.00000000000E+00 -0.12072322746E+03  0.12072322746E+03  0.00000000000E+00 0.  1.
          2    1    1    2  501    0  0.23246411448E+02  0.24620490655E+02 -0.10974571075E+03  0.11485070846E+03  0.00000000000E+00 0.  1.
          2    1    1    2  502    0 -0.23246411448E+02 -0.24620490655E+02  0.25597586739E+02  0.42447622456E+02  0.00000000000E+00 0.  1.
</event>
<event>
 4    1  0.6136512E+003  0.2174624E+02  0.7546771E-02  0.1508872E+00
          2   -1    0    0  501    0  0.00000000000E+00  0.00000000000E+00  0.14381087502E+01  0.14381087502E+01  0.00000000000E+00 0.  1.
          2   -1    0    0  502    0 -0.00000000000E+00 -0.00000000000E+00 -0.95902340726E+03  0.95902340726E+03  0.00000000000E+00 0. -1.
          2    1    1    2  501    0  0.94281891902E+01 -0.19596126403E+02 -0.86808058936E+03  0.86835292857E+03  0.00000000000E+00 0. -1.
          2    1    1    2  502    0 -0.94281891902E+01  0.19596126403E+02 -0.89504709148E+02  0.92108587445E+02  0.00000000000E+00 0.  1.
</event>
<event>
 4    1  0.6136512E+003  0.2390479E+02  0.7546771E-02  0.1481439E+00
          2   -1    0    0  502    0  0.00000000000E+00  0.00000000000E+00  0.13230398387E+03  0.13230398387E+03  0.00000000000E+00 0.  1.
          2   -1    0    0  501    0 -0.00000000000E+00 -0.00000000000E+00 -0.32258463997E+03  0.32258463997E+03  0.00000000000E+00 0.  1.
          2    1    1    2  501    0 -0.23684236329E+02 -0.32397154760E+01  0.13077620932E+03  0.13294305446E+03  0.00000000000E+00 0.  1.
          2    1    1    2  502    0  0.23684236329E+02  0.32397154760E+01 -0.32105686542E+03  0.32194556937E+03  0.00000000000E+00 0.  1.
</event>
<event>
 4    1  0.6136512E+003  0.2443608E+02  0.7546771E-02  0.1475212E+00
          2   -1    0    0  501    0  0.00000000000E+00  0.00000000000E+00  0.16412465296E+03  0.16412465296E+03  0.00000000000E+00 0. -1.
          2   -1    0    0  502    0 -0.00000000000E+00 -0.00000000000E+00 -0.11063286605E+04  0.11063286605E+04  0.00000000000E+00 0. -1.
          2    1    1    2  501    0  0.97732245069E+01  0.22396568426E+02 -0.11052833112E+04  0.11055533999E+04  0.00000000000E+00 0. -1.
          2    1    1    2  502    0 -0.97732245069E+01 -0.22396568426E+02  0.16307930364E+03  0.16489991350E+03  0.00000000000E+00 0. -1.
</event>
<event>
 4    1  0.6136512E+003  0.2641711E+02  0.7546771E-02  0.1453553E+00
          2   -1    0    0  501    0  0.00000000000E+00  0.00000000000E+00  0.55315314679E+00  0.55315314679E+00  0.00000000000E+00 0.  1.
          2   -1    0    0  502    0 -0.00000000000E+00 -0.00000000000E+00 -0.19481074266E+04  0.19481074266E+04  0.00000000000E+00 0. -1.
          2    1    1    2  501    0 -0.17595165397E+02 -0.19704669416E+02 -0.15521648224E+04  0.15523896095E+04  0.00000000000E+00 0. -1.
          2    1    1    2  502    0  0.17595165397E+02  0.19704669416E+02 -0.39538945099E+03  0.39627097017E+03  0.00000000000E+00 0.  1.
</event>
<event>
 4    1  0.6136512E+003  0.2708032E+02  0.7546771E-02  0.1446803E+00
          2   -1    0    0  501    0  0.00000000000E+00  0.00000000000E+00  0.16586807147E+02  0.16586807147E+02  0.00000000000E+00 0.  1.
          2   -1    0    0  502    0 -0.00000000000E+00 -0.00000000000E+00 -0.42568267563E+03  0.42568267563E+03  0.00000000000E+00 0. -1.
          2    1    1    2  501    0  0.23971842606E+02 -0.12597394776E+02 -0.41388411953E+03  0.41476910203E+03  0.00000000000E+00 0. -1.
          2    1    1    2  502    0 -0.23971842606E+02  0.12597394776E+02  0.47882510553E+01  0.27500380747E+02  0.00000000000E+00 0.  1.
</event>
<event>
 4    1  0.6136512E+003  0.6832193E+02  0.7546771E-02  0.1233909E+00
          2   -1    0    0  502    0  0.00000000000E+00  0.00000000000E+00  0.60848101295E+03  0.60848101295E+03  0.00000000000E+00 0.  1.
          2   -1    0    0  501    0 -0.00000000000E+00 -0.00000000000E+00 -0.13157042294E+03  0.13157042294E+03  0.00000000000E+00 0. -1.
          2    1    1    2  501    0  0.61811795546E+02  0.29106499744E+02  0.59753160877E+03  0.60142489961E+03  0.00000000000E+00 0.  1.
          2    1    1    2  502    0 -0.61811795546E+02 -0.29106499744E+02 -0.12062101875E+03  0.13862653628E+03  0.00000000000E+00 0. -1.
</event>
<event>
 4    1  0.6136512E+003  0.2898175E+02  0.7546771E-02  0.1428656E+00
          2   -1    0    0  502    0  0.00000000000E+00  0.00000000000E+00  0.15215270088E+02  0.15215270088E+02  0.00000000000E+00 0.  1.
          2   -1    0    0  501    0 -0.00000000000E+00 -0.00000000000E+00 -0.37435694844E+03  0.37435694844E+03  0.00000000000E+00 0.  1.
          2    1    1    2  501    0 -0.24921915429E+02  0.14793233864E+02  0.28086591633E+00  0.28983107536E+02  0.00000000000E+00 0.  1.
          2    1    1    2  502    0  0.24921915429E+02 -0.14793233864E+02 -0.35942254427E+03  0.36058911099E+03  0.00000000000E+00 0.  1.
</event>
<event>
 4    1  0.6136512E+003  0.3163683E+02  0.7546771E-02  0.1405886E+00
          2   -1    0    0  501    0  0.00000000000E+00  0.00000000000E+00  0.22991768171E+02  0.22991768171E+02  0.00000000000E+00 0.  1.
          2   -1    0    0  502    0 -0.00000000000E+00 -0.00000000000E+00 -0.66888882082E+03  0.66888882082E+03  0.00000000000E+00 0. -1.
          2    1    1    2  501    0 -0.21499247179E+02 -0.23209291603E+02 -0.65744223863E+03  0.65820299755E+03  0.00000000000E+00 0. -1.
          2    1    1    2  502    0  0.21499247179E+02  0.23209291603E+02  0.11545185983E+02  0.33677591442E+02  0.00000000000E+00 0.  1.
</event>
<event>
 4    1  0.6136512E+003  0.3219023E+02  0.7546771E-02  0.1401471E+00
          2   -1    0    0  502    0  0.00000000000E+00  0.00000000000E+00  0.33562674997E+02  0.33562674997E+02  0.00000000000E+00 0.  1.
          2   -1    0    0  501    0 -0.00000000000E+00 -0.00000000000E+00 -0.10025904428E+04  0.10025904428E+04  0.00000000000E+00 0. -1.
          2    1    1    2  501    0 -0.32152148084E+02 -0.15653832141E+01  0.25523439452E+02  0.41081102863E+02  0.00000000000E+00 0.  1.
          2    1    1    2  502    0  0.32152148084E+02  0.15653832141E+01 -0.99455120721E+03  0.99507201489E+03  0.00000000000E+00 0. -1.
</event>
<event>
 4    1  0.6136512E+003  0.2128444E+02  0.7546771E-02  0.1515242E+00
          2   -1    0    0  501    0  0.00000000000E+00  0.00000000000E+00  0.14685213136E+02  0.14685213136E+02  0.00000000000E+00 0.  1.
          2   -1    0    0  502    0 -0.00000000000E+00 -0.00000000000E+00 -0.13523704654E+04  0.13523704654E+04  0.00000000000E+00 0.  1.
          2    1    1    2  501    0 -0.23232123056E+01  0.21157273548E+02 -0.13445294368E+04  0.13446978969E+04  0.00000000000E+00 0.  1.
          2    1    1    2  502    0  0.23232123056E+01 -0.21157273548E+02  0.68441844972E+01  0.22357781662E+02  0.00000000000E+00 0.  1.
</event>
<event>
 4    1  0.6136512E+003  0.2037892E+02  0.7546771E-02  0.1528320E+00
          2   -1    0    0  501    0  0.00000000000E+00  0.00000000000E+00  0.63630335521E+03  0.63630335521E+03  0.00000000000E+00 0.  1.
          2   -1    0    0  502    0 -0.00000000000E+00 -0.00000000000E+00 -0.14895224013E+02  0.14895224013E+02  0.00000000000E+00 0. -1.
          2    1    1    2  501    0  0.12600239337E+02 -0.16016687251E+02 -0.76817903548E+01  0.21778663983E+02  0.00000000000E+00 0. -1.
          2    1    1    2  502    0 -0.12600239337E+02  0.16016687251E+02  0.62908992155E+03  0.62941991524E+03  0.00000000000E+00 0.  1.
</event>
<event>
 4    1  0.6136512E+003  0.4588662E+02  0.7546771E-02  0.1317065E+00
          2   -1    0    0  501    0  0.00000000000E+00  0.00000000000E+00  0.14151006482E+04  0.14151006482E+04  0.00000000000E+00 0.  1.
          2   -1    0    0  502    0 -0.00000000000E+00 -0.00000000000E+00 -0.13251405682E+03  0.13251405682E+03  0.00000000000E+00 0. -1.
          2    1    1    2  501    0  0.37060451635E+02 -0.27057431164E+02 -0.12815743409E+03  0.13612461045E+03  0.00000000000E+00 0. -1.
          2    1    1    2  502    0 -0.37060451635E+02  0.27057431164E+02  0.14107440255E+04  0.14114900946E+04  0.00000000000E+00 0.  1.
</event>
<event>
 4    1  0.6136512E+003  0.2463444E+02  0.7546771E-02  0.1472935E+00
          2   -1    0    0  501    0  0.00000000000E+00  0.00000000000E+00  0.77347800170E+03  0.77347800170E+03  0.00000000000E+00 0.  1.
          2   -1    0    0  502    0 -0.00000000000E+00 -0.00000000000E+00 -0.79390059994E+01  0.79390059994E+01  0.00000000000E+00 0.  1.
          2    1    1    2  501    0 -0.10846203782E+02  0.22118217368E+02  0.11869197704E+02  0.27344716677E+02  0.00000000000E+00 0.  1.
          2    1    1    2  502    0  0.10846203782E+02 -0.22118217368E+02  0.75366979799E+03  0.75407229102E+03  0.00000000000E+00 0.  1.
</event>
<event>
 4    1  0.6136512E+003  0.2243160E+02  0.7546771E-02  0.1499762E+00
          2   -1    0    0  501    0  0.00000000000E+00  0.00000000000E+00  0.66787986818E+03  0.66787986818E+03  0.00000000000E+00 0. -1.
          2   -1    0    0  502    0 -0.00000000000E+00 -0.00000000000E+00 -0.36855551635E+01  0.36855551635E+01  0.00000000000E+00 0.  1.
          2    1    1    2  501    0 -0.11489585785E+02 -0.19265672891E+02  0.32594425154E+02  0.39567325972E+02  0.00000000000E+00 0.  1.
          2    1    1    2  502    0  0.11489585785E+02  0.19265672891E+02  0.63159988786E+03  0.63199809737E+03  0.00000000000E+00 0. -1.
</event>
<event>
 4    1  0.6136512E+003  0.4704194E+02  0.7546771E-02  0.1311533E+00
          2   -1    0    0  501    0  0.00000000000E+00  0.00000000000E+00  0.69949125809E+03  0.69949125809E+03  0.00000000000E+00 0.  1.
          2   -1    0    0  502    0 -0.00000000000E+00 -0.00000000000E+00 -0.55353097767E+03  0.55353097767E+03  0.00000000000E+00 0.  1.
          2    1    1    2  501    0 -0.26826632486E+02 -0.38642929180E+02 -0.55173803294E+03  0.55373983167E+03  0.00000000000E+00 0.  1.
          2    1    1    2  502    0  0.26826632486E+02  0.38642929180E+02  0.69769831337E+03  0.69928240408E+03  0.00000000000E+00 0.  1.
</event>
<event>
 4    1  0.6136512E+003  0.2094839E+02  0.7546771E-02  0.1520003E+00
          2   -1    0    0  502    0  0.00000000000E+00  0.00000000000E+00  0.84355551675E+01  0.84355551675E+01  0.00000000000E+00 0. -1.
          2   -1    0    0  501    0 -0.00000000000E+00 -0.00000000000E+00 -0.35681253483E+03  0.35681253483E+03  0.00000000000E+00 0. -1.
          2    1    1    2  501    0 -0.10076387344E+02  0.18365765974E+02 -0.54016418290E+01  0.21633600629E+02  0.00000000000E+00 0. -1.
          2    1    1    2  502    0  0.10076387344E+02 -0.18365765974E+02 -0.34297533783E+03  0.34361448936E+03  0.00000000000E+00 0. -1.
</event>
<event>
 4    1  0.6136512E+003  0.2110202E+02  0.7546771E-02  0.1517813E+00
          2   -1    0    0  502    0  0.00000000000E+00  0.00000000000E+00  0.37598301820E+01  0.37598301820E+01  0.00000000000E+00 0.  1.
          2   -1    0    0  501    0 -0.00000000000E+00 -0.00000000000E+00 -0.58727329637E+03  0.58727329637E+03  0.00000000000E+00 0. -1.
          2    1    1    2  501    0  0.18876772704E+02 -0.94320028964E+01 -0.27714575797E+02  0.34833790175E+02  0.00000000000E+00 0.  1.
          2    1    1    2  502    0 -0.18876772704E+02  0.94320028964E+01 -0.55579889039E+03  0.55619933638E+03  0.00000000000E+00 0. -1.
</event>
<event>
 4    1  0.6136512E+003  0.2917230E+02  0.7546771E-02  0.1426928E+00
          2   -1    0    0  502    0  0.00000000000E+00  0.00000000000E+00  0.10963893472E+02  0.10963893472E+02  0.00000000000E+00 0. -1.
          2   -1    0    0  501    0 -0.00000000000E+00 -0.00000000000E+00 -0.80708358758E+03  0.80708358758E+03  0.00000000000E+00 0. -1.
          2    1    1    2  501    0  0.74101899117E+01 -0.28215461780E+02 -0.92019616955E+01  0.30589202295E+02  0.00000000000E+00 0. -1.
          2    1    1    2  502    0 -0.74101899117E+01  0.28215461780E+02 -0.78691773242E+03  0.78745827876E+03  0.00000000000E+00 0. -1.
</event>
<event>
 4    1  0.6136512E+003  0.2304437E+02  0.7546771E-02  0.1491942E+00
          2   -1    0    0  501    0  0.00000000000E+00  0.00000000000E+00  0.79172104285E+01  0.79172104285E+01  0.00000000000E+00 0.  1.
          2   -1    0    0  502    0 -0.00000000000E+00 -0.00000000000E+00 -0.66434429928E+03  0.66434429928E+03  0.00000000000E+00 0. -1.
          2    1    1    2  501    0 -0.17064387887E+01  0.22981100384E+02 -0.64692444917E+03  0.64733475563E+03  0.00000000000E+00 0. -1.
          2    1    1    2  502    0  0.17064387887E+01 -0.22981100384E+02 -0.95026396838E+01  0.24926754084E+02  0.00000000000E+00 0.  1.
</event>
<event>
 4    1  0.6136512E+003  0.2715039E+02  0.7546771E-02  0.1446103E+00
          2   -1    0    0  502    0  0.00000000000E+00  0.00000000000E+00  0.18891416596E+01  0.18891416596E+01  0.00000000000E+00 0.  1.
          2   -1    0    0  501    0 -0.00000000000E+00 -0.00000000000E+00 -0.41898040887E+03  0.41898040887E+03  0.00000000000E+00 0.  1.
          2    1    1    2  501    0  0.89156806266E+01  0.25644776947E+02 -0.15339307599E+03  0.15577734016E+03  0.00000000000E+00 0.  1.
          2    1    1    2  502    0 -0.89156806266E+01 -0.25644776947E+02 -0.26369819122E+03  0.26509221037E+03  0.00000000000E+00 0.  1.
</event>
<event>
 4    1  0.6136512E+003  0.6207809E+02  0.7546771E-02  0.1252931E+00
          2   -1    0    0  501    0  0.00000000000E+00  0.00000000000E+00  0.10321385392E+03  0.10321385392E+03  0.00000000000E+00 0.  1.
          2   -1    0    0  502    0 -0.00000000000E+00 -0.00000000000E+00 -0.30223344610E+03  0.30223344610E+03  0.00000000000E+00 0.  1.
          2    1    1    2  501    0 -0.28181011800E+02  0.55312921885E+02 -0.28929890043E+03  0.29588433980E+03  0.00000000000E+00 0.  1.
          2    1    1    2  502    0  0.28181011800E+02 -0.55312921885E+02  0.90279308248E+02  0.10956296022E+03  0.00000000000E+00 0.  1.
</event>
<event>
 4    1  0.6136512E+003  0.2536452E+02  0.7546771E-02  0.1464767E+00
          2   -1    0    0  502    0  0.00000000000E+00  0.00000000000E+00  0.31976984198E+01  0.31976984198E+01  0.00000000000E+00 0.  1.
          2   -1    0    0  501    0 -0.00000000000E+00 -0.00000000000E+00 -0.25431002203E+03  0.25431002203E+03  0.00000000000E+00 0.  1.
          2    1    1    2  501    0  0.13620330878E+02  0.21397321687E+02 -0.66713820306E+02  0.71372912288E+02  0.00000000000E+00 0.  1.
          2    1    1    2  502    0 -0.13620330878E+02 -0.21397321687E+02 -0.18439850331E+03  0.18613480816E+03  0.00000000000E+00 0.  1.
</event>
<event>
 4    1  0.6136512E+003  0.2071590E+02  0.7546771E-02  0.1523360E+00
          2   -1    0    0  502    0  0.00000000000E+00  0.00000000000E+00  0.12999042529E+01  0.12999042529E+01  0.00000000000E+00 0. -1.
          2   -1    0    0  501    0 -0.00000000000E+00 -0.00000000000E+00 -0.33166722430E+03  0.33166722430E+03  0.00000000000E+00 0. -1.
          2    1    1    2  501    0  0.51968621748E+01 -0.20053458890E+02 -0.17648599846E+03  0.17769765401E+03  0.00000000000E+00 0. -1.
          2    1    1    2  502    0 -0.51968621748E+01  0.20053458890E+02 -0.15388132159E+03  0.15526947454E+03  0.00000000000E+00 0. -1.
</event>
<event>
 4    1  0.6136512E+003  0.2268661E+02  0.7546771E-02  0.1496471E+00
          2   -1    0    0  502    0  0.00000000000E+00  0.00000000000E+00  0.97727901222E+00  0.97727901222E+00  0.00000000000E+00 0. -1.
          2   -1    0    0  501    0 -0.00000000000E+00 -0.00000000000E+00 -0.10110329656E+04  0.10110329656E+04  0.00000000000E+00 0.  1.
          2    1    1    2  501    0 -0.14383765844E+00  0.22686149139E+02 -0.15478636624E+03  0.15644008829E+03  0.00000000000E+00 0. -1.
          2    1    1    2  502    0  0.14383765844E+00 -0.22686149139E+02 -0.85526932036E+03  0.85557015633E+03  0.00000000000E+00 0.  1.
</event>
<event>
 4    1  0.6136512E+003  0.2333486E+02  0.7546771E-02  0.1488336E+00
          2   -1    0    0  502    0  0.00000000000E+00  0.00000000000E+00  0.93101401061E+02  0.93101401061E+02  0.00000000000E+00 0.  1.
          2   -1    0    0  501    0 -0.00000000000E+00 -0.00000000000E+00 -0.77967740795E+02  0.77967740795E+02  0.00000000000E+00 0.  1.
          2    1    1    2  501    0  0.17904189221E+02  0.14965143542E+02  0.89830748545E+02  0.92812062239E+02  0.00000000000E+00 0.  1.
          2    1    1    2  502    0 -0.17904189221E+02 -0.14965143542E+02 -0.74697088279E+02  0.78257079618E+02  0.00000000000E+00 0.  1.
</event>
<event>
 4    1  0.6434715E+003  0.2896343E+02  0.7546771E-02  0.1428823E+00
          2   -1    0    0  501    0  0.00000000000E+00  0.00000000000E+00  0.49297924322E+03  0.49297924322E+03  0.00000000000E+00 0. -1.
          2   -1    0    0  502    0 -0.00000000000E+00 -0.00000000000E+00 -0.50132193911E+03  0.50132193911E+03  0.00000000000E+00 0. -1.
          2    1    1    2  501    0 -0.28746974181E+02 -0.35343483333E+01 -0.50047747434E+03  0.50131485362E+03  0.00000000000E+00 0. -1.
          2    1    1    2  502    0  0.28746974181E+02  0.35343483333E+01  0.49213477844E+03  0.49298632871E+03  0.00000000000E+00 0. -1.
</event>
<event>
 4    1  0.6136512E+003  0.2204604E+02  0.7546771E-02  0.1504838E+00
          2   -1    0    0  502    0  0.00000000000E+00  0.00000000000E+00  0.40003263750E+03  0.40003263750E+03  0.00000000000E+00 0. -1.
          2   -1    0    0  501    0 -0.00000000000E+00 -0.00000000000E+00 -0.25331310877E+02  0.25331310877E+02  0.00000000000E+00 0. -1.
          2    1    1    2  501    0  0.61241099695E+01 -0.21178362471E+02  0.39486951476E+03  0.39548446423E+03  0.00000000000E+00 0. -1.
          2    1    1    2  502    0 -0.61241099695E+01  0.21178362471E+02 -0.20168188140E+02  0.29879484144E+02  0.00000000000E+00 0. -1.
</event>
<event>
 4    1  0.6136512E+003  0.4752406E+02  0.7546771E-02  0.1309279E+00
          2   -1    0    0  502    0  0.00000000000E+00  0.00000000000E+00  0.23454847904E+04  0.23454847904E+04  0.00000000000E+00 0.  1.
          2   -1    0    0  501    0 -0.00000000000E+00 -0.00000000000E+00 -0.54336367496E+01  0.54336367496E+01  0.00000000000E+00 0.  1.
          2    1    1    2  501    0  0.46528018611E+02  0.96788485273E+01  0.22362542985E+04  0.22367592236E+04  0.00000000000E+00 0.  1.
          2    1    1    2  502    0 -0.46528018611E+02 -0.96788485273E+01  0.10379685514E+03  0.11415920358E+03  0.00000000000E+00 0.  1.
</event>
<event>
 4    1  0.6136512E+003  0.2234737E+02  0.7546771E-02  0.1500860E+00
          2   -1    0    0  502    0  0.00000000000E+00  0.00000000000E+00  0.54765850583E+00  0.54765850583E+00  0.00000000000E+00 0.  1.
          2   -1    0    0  501    0 -0.00000000000E+00 -0.00000000000E+00 -0.13838559380E+04  0.13838559380E+04  0.00000000000E+00 0.  1.
          2    1    1    2  501    0 -0.22329013773E+02 -0.90568448840E+00 -0.28741167437E+03  0.28827916277E+03  0.00000000000E+00 0.  1.
          2    1    1    2  502    0  0.22329013773E+02  0.90568448840E+00 -0.10958966052E+04  0.10961244338E+04  0.00000000000E+00 0.  1.
</event>
<event>
 4    1  0.6136512E+003  0.3094998E+02  0.7546771E-02  0.1411517E+00
          2   -1    0    0  502    0  0.00000000000E+00  0.00000000000E+00  0.15355509447E+04  0.15355509447E+04  0.00000000000E+00 0. -1.
          2   -1    0    0  501    0 -0.00000000000E+00 -0.00000000000E+00 -0.62390366171E+00  0.62390366171E+00  0.00000000000E+00 0. -1.
          2    1    1    2  501    0 -0.16445240202E+02 -0.26219370530E+02  0.77656572940E+03  0.77718223950E+03  0.00000000000E+00 0. -1.
          2    1    1    2  502    0  0.16445240202E+02  0.26219370530E+02  0.75836131160E+03  0.75899260882E+03  0.00000000000E+00 0. -1.
</event>
<event>
 4    1  0.6136512E+003  0.3212689E+02  0.7546771E-02  0.1401971E+00
          2   -1    0    0  501    0  0.00000000000E+00  0.00000000000E+00  0.22342491985E+04  0.22342491985E+04  0.00000000000E+00 0.  1.
          2   -1    0    0  502    0 -0.00000000000E+00 -0.00000000000E+00 -0.11061782322E+02  0.11061782322E+02  0.00000000000E+00 0. -1.
          2    1    1    2  501    0 -0.31799610920E+02 -0.45740466252E+01  0.12630350145E+02  0.34520470767E+02  0.00000000000E+00 0. -1.
          2    1    1    2  502    0  0.31799610920E+02  0.45740466252E+01  0.22105570660E+04  0.22107905100E+04  0.00000000000E+00 0.  1.
</event>
<event>
 4    1  0.6136512E+003  0.3498526E+02  0.7546771E-02  0.1380667E+00
          2   -1    0    0  501    0  0.00000000000E+00  0.00000000000E+00  0.16375932834E+02  0.16375932834E+02  0.00000000000E+00 0. -1.
          2   -1    0    0  502    0 -0.00000000000E+00 -0.00000000000E+00 -0.10795992085E+04  0.10795992085E+04  0.00000000000E+00 0.  1.
          2    1    1    2  501    0  0.14066603686E+02  0.32032786286E+02 -0.10602901046E+04  0.10608671333E+04  0.00000000000E+00 0.  1.
          2    1    1    2  502    0 -0.14066603686E+02 -0.32032786286E+02 -0.29331711482E+01  0.35108008053E+02  0.00000000000E+00 0. -1.
</event>
<event>
 4    1  0.6136512E+003  0.2119410E+02  0.7546771E-02  0.1516512E+00
          2   -1    0    0  501    0  0.00000000000E+00  0.00000000000E+00  0.10531370125E+03  0.10531370125E+03  0.00000000000E+00 0. -1.
          2   -1    0    0  502    0 -0.00000000000E+00 -0.00000000000E+00 -0.94613330197E+01  0.94613330197E+01  0.00000000000E+00 0.  1.
          2    1    1    2  501    0  0.13793916084E+02  0.16090916469E+02  0.53977753809E+01  0.21870658262E+02  0.00000000000E+00 0.  1.
          2    1    1    2  502    0 -0.13793916084E+02 -0.16090916469E+02  0.90454592846E+02  0.92904376004E+02  0.00000000000E+00 0. -1.
</event>
<event>
 4    1  0.6136512E+003  0.4369307E+02  0.7546771E-02  0.1328105E+00
          2   -1    0    0  502    0  0.00000000000E+00  0.00000000000E+00  0.33804457243E+02  0.33804457243E+02  0.00000000000E+00 0. -1.
          2   -1    0    0  501    0 -0.00000000000E+00 -0.00000000000E+00 -0.69065498454E+02  0.69065498454E+02  0.00000000000E+00 0. -1.
          2    1    1    2  501    0  0.37408160718E+02  0.22576846573E+02  0.43309180692E+01  0.43907190080E+02  0.00000000000E+00 0. -1.
          2    1    1    2  502    0 -0.37408160718E+02 -0.22576846573E+02 -0.39591959280E+02  0.58962765616E+02  0.00000000000E+00 0. -1.
</event>
<event>
 4    1  0.6136512E+003  0.2885251E+02  0.7546771E-02  0.1429837E+00
          2   -1    0    0  502    0  0.00000000000E+00  0.00000000000E+00  0.13338990360E+01  0.13338990360E+01  0.00000000000E+00 0.  1.
          2   -1    0    0  501    0 -0.00000000000E+00 -0.00000000000E+00 -0.18225619572E+04  0.18225619572E+04  0.00000000000E+00 0.  1.
          2    1    1    2  501    0  0.14226163141E+02 -0.25101471611E+02 -0.17110484878E+03  0.17352042206E+03  0.00000000000E+00 0.  1.
          2    1    1    2  502    0 -0.14226163141E+02  0.25101471611E+02 -0.16501232094E+04  0.16503754341E+04  0.00000000000E+00 0.  1.
</event>
<event>
 4    1  0.6136512E+003  0.2749603E+02  0.7546771E-02  0.1442688E+00
          2   -1    0    0  501    0  0.00000000000E+00  0.00000000000E+00  0.75143525308E+03  0.75143525308E+03  0.00000000000E+00 0. -1.
          2   -1    0    0  502    0 -0.00000000000E+00 -0.00000000000E+00 -0.20945543101E+02  0.20945543101E+02  0.00000000000E+00 0. -1.
          2    1    1    2  501    0 -0.26600528753E+02 -0.69601553509E+01 -0.11556090867E+02  0.29825746069E+02  0.00000000000E+00 0. -1.
          2    1    1    2  502    0  0.26600528753E+02  0.69601553509E+01  0.74204580085E+03  0.74255505011E+03  0.00000000000E+00 0. -1.
</event>
<event>
 4    1  0.6136512E+003  0.2677081E+02  0.7546771E-02  0.1449924E+00
          2   -1    0    0  501    0  0.00000000000E+00  0.00000000000E+00  0.11856115508E+04  0.11856115508E+04  0.00000000000E+00 0. -1.
          2   -1    0    0  502    0 -0.00000000000E+00 -0.00000000000E+00 -0.97927428629E+02  0.97927428629E+02  0.00000000000E+00 0.  1.
          2    1    1    2  501    0  0.14827197272E+02  0.22289695821E+02 -0.95943632204E+02  0.99608518106E+02  0.00000000000E+00 0.  1.
          2    1    1    2  502    0 -0.14827197272E+02 -0.22289695821E+02  0.11836277544E+04  0.11839304613E+04  0.00000000000E+00 0. -1.
</event>
<event>
 4    1  0.6136512E+003  0.4750417E+02  0.7546771E-02  0.1309372E+00
          2   -1    0    0  502    0  0.00000000000E+00  0.00000000000E+00  0.25099690171E+03  0.25099690171E+03  0.00000000000E+00 0. -1.
          2   -1    0    0  501    0 -0.00000000000E+00 -0.00000000000E+00 -0.19428269669E+02  0.19428269669E+02  0.00000000000E+00 0.  1.
          2    1    1    2  501    0  0.14405921219E+02 -0.45267154541E+02  0.21489011951E+03  0.22007818908E+03  0.00000000000E+00 0. -1.
          2    1    1    2  502    0 -0.14405921219E+02  0.45267154541E+02  0.16678512532E+02  0.50346982299E+02  0.00000000000E+00 0.  1.
</event>
<event>
 4    1  0.6136512E+003  0.2012401E+02  0.7546771E-02  0.1532148E+00
          2   -1    0    0  502    0  0.00000000000E+00  0.00000000000E+00  0.53895712966E+01  0.53895712966E+01  0.00000000000E+00 0. -1.
          2   -1    0    0  501    0 -0.00000000000E+00 -0.00000000000E+00 -0.72688971193E+03  0.72688971193E+03  0.00000000000E+00 0.  1.
          2    1    1    2  501    0 -0.16106081735E+02  0.12065237617E+02 -0.14050979855E+02  0.24543957760E+02  0.00000000000E+00 0. -1.
          2    1    1    2  502    0  0.16106081735E+02 -0.12065237617E+02 -0.70744916078E+03  0.70773532547E+03  0.00000000000E+00 0.  1.
</event>
<event>
 4    1  0.6136512E+003  0.2360509E+02  0.7546771E-02  0.1485037E+00
          2   -1    0    0  501    0  0.00000000000E+00  0.00000000000E+00  0.56988127137E+01  0.56988127137E+01  0.00000000000E+00 0.  1.
          2   -1    0    0  502    0 -0.00000000000E+00 -0.00000000000E+00 -0.58649133573E+03  0.58649133573E+03  0.00000000000E+00 0.  1.
          2    1    1    2  501    0  0.17277633235E+02  0.16083643344E+02 -0.56068559376E+03  0.56118226562E+03  0.00000000000E+00 0.  1.
          2    1    1    2  502    0 -0.17277633235E+02 -0.16083643344E+02 -0.20106929263E+02  0.31007882833E+02  0.00000000000E+00 0.  1.
</event>
<event>
 4    1  0.6136512E+003  0.3689885E+02  0.7546771E-02  0.1367684E+00
          2   -1    0    0  502    0  0.00000000000E+00  0.00000000000E+00  0.10457878701E+03  0.10457878701E+03  0.00000000000E+00 0. -1.
          2   -1    0    0  501    0 -0.00000000000E+00 -0.00000000000E+00 -0.26184069939E+02  0.26184069939E+02  0.00000000000E+00 0. -1.
          2    1    1    2  501    0 -0.13025838583E+02  0.34523224054E+02  0.85557544335E+02  0.93175205191E+02  0.00000000000E+00 0. -1.
          2    1    1    2  502    0  0.13025838583E+02 -0.34523224054E+02 -0.71628272681E+01  0.37587651754E+02  0.00000000000E+00 0. -1.
</event>
<event>
 4    1  0.6136512E+003  0.3475326E+02  0.7546771E-02  0.1382306E+00
          2   -1    0    0  502    0  0.00000000000E+00  0.00000000000E+00  0.18787607972E+04  0.18787607972E+04  0.00000000000E+00 0.  1.
          2   -1    0    0  501    0 -0.00000000000E+00 -0.00000000000E+00 -0.82236973959E+00  0.82236973959E+00  0.00000000000E+00 0.  1.
          2    1    1    2  501    0  0.80855061866E+01 -0.33799610353E+02  0.13780417427E+04  0.13784798996E+04  0.00000000000E+00 0.  1.
          2    1    1    2  502    0 -0.80855061866E+01  0.33799610353E+02  0.49989668479E+03  0.50110326733E+03  0.00000000000E+00 0.  1.
</event>
<event>
 4    1  0.6136512E+003  0.2097592E+02  0.7546771E-02  0.1519609E+00
          2   -1    0    0  501    0  0.00000000000E+00  0.00000000000E+00  0.78417592035E+00  0.78417592035E+00  0.00000000000E+00 0.  1.
          2   -1    0    0  502    0 -0.00000000000E+00 -0.00000000000E+00 -0.15414713973E+04  0.15414713973E+04  0.00000000000E+00 0. -1.
          2    1    1    2  501    0  0.16717862812E+02 -0.12668953969E+02 -0.13853183257E+04  0.13854771211E+04  0.00000000000E+00 0. -1.
          2    1    1    2  502    0 -0.16717862812E+02  0.12668953969E+02 -0.15536889568E+03  0.15677845221E+03  0.00000000000E+00 0.  1.
</event>
<event>
 4    1  0.6136512E+003  0.2950949E+02  0.7546771E-02  0.1423908E+00
          2   -1    0    0  502    0  0.00000000000E+00  0.00000000000E+00  0.86762977503E+01  0.86762977503E+01  0.00000000000E+00 0.  1.
          2   -1    0    0  501    0 -0.00000000000E+00 -0.00000000000E+00 -0.20832491444E+03  0.20832491444E+03  0.00000000000E+00 0.  1.
          2    1    1    2  501    0 -0.24437732491E+02  0.16541070726E+02 -0.21717341739E+02  0.36639496752E+02  0.00000000000E+00 0.  1.
          2    1    1    2  502    0  0.24437732491E+02 -0.16541070726E+02 -0.17793127495E+03  0.18036171544E+03  0.00000000000E+00 0.  1.
</event>
<event>
 4    1  0.6136512E+003  0.2184401E+02  0.7546771E-02  0.1507547E+00
          2   -1    0    0  501    0  0.00000000000E+00  0.00000000000E+00  0.12125582987E+03  0.12125582987E+03  0.00000000000E+00 0.  1.
          2   -1    0    0  502    0 -0.00000000000E+00 -0.00000000000E+00 -0.40161720155E+02  0.40161720155E+02  0.00000000000E+00 0. -1.
          2    1    1    2  501    0 -0.65903043030E+01  0.20826156037E+02 -0.36105769594E+02  0.42199377769E+02  0.00000000000E+00 0. -1.
          2    1    1    2  502    0  0.65903043030E+01 -0.20826156037E+02  0.11719987931E+03  0.11921817226E+03  0.00000000000E+00 0.  1.
</event>
<event>
 4    1  0.6136512E+003  0.6466217E+02  0.7546771E-02  0.1244765E+00
          2   -1    0    0  502    0  0.00000000000E+00  0.00000000000E+00  0.11459088588E+04  0.11459088588E+04  0.00000000000E+00 0. -1.
          2   -1    0    0  501    0 -0.00000000000E+00 -0.00000000000E+00 -0.10408627020E+03  0.10408627020E+03  0.00000000000E+00 0.  1.
          2    1    1    2  501    0 -0.17283075397E+02 -0.62309637740E+02  0.11348563101E+04  0.11366969870E+04  0.00000000000E+00 0. -1.
          2    1    1    2  502    0  0.17283075397E+02  0.62309637740E+02 -0.93033721498E+02  0.11329814202E+03  0.00000000000E+00 0.  1.
</event>
<event>
 4    1  0.6136512E+003  0.3491948E+02  0.7546771E-02  0.1381130E+00
          2   -1    0    0  502    0  0.00000000000E+00  0.00000000000E+00  0.78794242746E+02  0.78794242746E+02  0.00000000000E+00 0.  1.
          2   -1    0    0  501    0 -0.00000000000E+00 -0.00000000000E+00 -0.18685119017E+03  0.18685119017E+03  0.00000000000E+00 0. -1.
          2    1    1    2  501    0  0.30415453983E+02  0.17154309329E+02  0.73175065574E+02  0.81079962946E+02  0.00000000000E+00 0.  1.
          2    1    1    2  502    0 -0.30415453983E+02 -0.17154309329E+02 -0.18123201300E+03  0.18456546997E+03  0.00000000000E+00 0. -1.
</event>
<event>
 4    1  0.6136512E+003  0.2489628E+02  0.7546771E-02  0.1469967E+00
          2   -1    0    0  501    0  0.00000000000E+00  0.00000000000E+00  0.72361294044E+00  0.72361294044E+00  0.00000000000E+00 0.  1.
          2   -1    0    0  502    0 -0.00000000000E+00 -0.00000000000E+00 -0.86541647487E+03  0.86541647487E+03  0.00000000000E+00 0.  1.
          2    1    1    2  501    0  0.82107453769E+01 -0.23503375652E+02 -0.47613241241E+03  0.47678286374E+03  0.00000000000E+00 0.  1.
          2    1    1    2  502    0 -0.82107453769E+01  0.23503375652E+02 -0.38856044952E+03  0.38935722408E+03  0.00000000000E+00 0.  1.
</event>
<event>
 4    1  0.6136512E+003  0.3586196E+02  0.7546771E-02  0.1374603E+00
          2   -1    0    0  501    0  0.00000000000E+00  0.00000000000E+00  0.52586603149E+03  0.52586603149E+03  0.00000000000E+00 0.  1.
          2   -1    0    0  502    0 -0.00000000000E+00 -0.00000000000E+00 -0.33865496329E+01  0.33865496329E+01  0.00000000000E+00 0. -1.
          2    1    1    2  501    0 -0.32645971521E+02  0.14843202076E+02  0.12175466607E+03  0.12692627315E+03  0.00000000000E+00 0. -1.
          2    1    1    2  502    0  0.32645971521E+02 -0.14843202076E+02  0.40072481579E+03  0.40232630798E+03  0.00000000000E+00 0.  1.
</event>
<event>
 4    1  0.6136512E+003  0.5126512E+02  0.7546771E-02  0.1292779E+00
          2   -1    0    0  501    0  0.00000000000E+00  0.00000000000E+00  0.95905844249E+02  0.95905844249E+02  0.00000000000E+00 0. -1.
          2   -1    0    0  502    0 -0.00000000000E+00 -0.00000000000E+00 -0.27990351423E+02  0.27990351423E+02  0.00000000000E+00 0. -1.
          2    1    1    2  501    0  0.20531169180E+02 -0.46974287411E+02  0.24984397472E+02  0.57029226741E+02  0.00000000000E+00 0. -1.
          2    1    1    2  502    0 -0.20531169180E+02  0.46974287411E+02  0.42931095354E+02  0.66866968930E+02  0.00000000000E+00 0. -1.
</event>
<event>
 4    1  0.6136512E+003  0.2644374E+02  0.7546771E-02  0.1453277E+00
          2   -1    0    0  501    0  0.00000000000E+00  0.00000000000E+00  0.99670692876E+03  0.99670692876E+03  0.00000000000E+00 0. -1.
          2   -1    0    0  502    0 -0.00000000000E+00 -0.00000000000E+00 -0.49799666707E+01  0.49799666707E+01  0.00000000000E+00 0.  1.
          2    1    1    2  501    0 -0.25183114850E+02  0.80673502102E+01  0.31638288797E+02  0.41234120956E+02  0.00000000000E+00 0.  1.
          2    1    1    2  502    0  0.25183114850E+02 -0.80673502102E+01  0.96008867330E+03  0.96045277448E+03  0.00000000000E+00 0. -1.
</event>
<event>
 4    1  0.6136512E+003  0.2891683E+02  0.7546771E-02  0.1429248E+00
          2   -1    0    0  501    0  0.00000000000E+00  0.00000000000E+00  0.79713500661E+03  0.79713500661E+03  0.00000000000E+00 0. -1.
          2   -1    0    0  502    0 -0.00000000000E+00 -0.00000000000E+00 -0.20730805884E+03  0.20730805884E+03  0.00000000000E+00 0.  1.
          2    1    1    2  501    0  0.28534945267E+02  0.46840188469E+01 -0.20603581867E+03  0.20805514103E+03  0.00000000000E+00 0.  1.
          2    1    1    2  502    0 -0.28534945267E+02 -0.46840188469E+01  0.79586276645E+03  0.79638792441E+03  0.00000000000E+00 0. -1.
</event>
<event>
 4    1  0.6136512E+003  0.2117051E+02  0.7546771E-02  0.1516844E+00
          2   -1    0    0  501    0  0.00000000000E+00  0.00000000000E+00  0.17683012170E+03  0.17683012170E+03  0.00000000000E+00 0. -1.
          2   -1    0    0  502    0 -0.00000000000E+00 -0.00000000000E+00 -0.63073854317E+03  0.63073854317E+03  0.00000000000E+00 0. -1.
          2    1    1    2  501    0  0.90187057196E+00  0.21151292636E+02 -0.62992643570E+03  0.63028208363E+03  0.00000000000E+00 0. -1.
          2    1    1    2  502    0 -0.90187057196E+00 -0.21151292636E+02  0.17601801423E+03  0.17728658123E+03  0.00000000000E+00 0. -1.
</event>
<event>
 4    1  0.6136512E+003  0.2476266E+02  0.7546771E-02  0.1471476E+00
          2   -1    0    0  502    0  0.00000000000E+00  0.00000000000E+00  0.13165819575E+03  0.13165819575E+03  0.00000000000E+00 0. -1.
          2   -1    0    0  501    0 -0.00000000000E+00 -0.00000000000E+00 -0.19378918612E+03  0.19378918612E+03  0.00000000000E+00 0. -1.
          2    1    1    2  501    0 -0.22135612116E+02  0.11099723421E+02  0.12969089354E+03  0.13203377239E+03  0.00000000000E+00 0. -1.
          2    1    1    2  502    0  0.22135612116E+02 -0.11099723421E+02 -0.19182188391E+03  0.19341360947E+03  0.00000000000E+00 0. -1.
</event>
<event>
 4    1  0.6136512E+003  0.2405858E+02  0.7546771E-02  0.1479617E+00
          2   -1    0    0  501    0  0.00000000000E+00  0.00000000000E+00  0.95517096327E+03  0.95517096327E+03  0.00000000000E+00 0.  1.
          2   -1    0    0  502    0 -0.00000000000E+00 -0.00000000000E+00 -0.13523320111E+01  0.13523320111E+01  0.00000000000E+00 0.  1.
          2    1    1    2  501    0 -0.17050773550E+02 -0.16973109261E+02  0.12160907914E+03  0.12396605764E+03  0.00000000000E+00 0.  1.
          2    1    1    2  502    0  0.17050773550E+02  0.16973109261E+02  0.83220955212E+03  0.83255723764E+03  0.00000000000E+00 0.  1.
</event>
<event>
 4    1  0.6136512E+003  0.3564127E+02  0.7546771E-02  0.1376110E+00
          2   -1    0    0  501    0  0.00000000000E+00  0.00000000000E+00  0.13398831544E+03  0.13398831544E+03  0.00000000000E+00 0.  1.
          2   -1    0    0  502    0 -0.00000000000E+00 -0.00000000000E+00 -0.11086932298E+03  0.11086932298E+03  0.00000000000E+00 0.  1.
          2    1    1    2  501    0  0.20761282092E+02  0.28970147249E+02 -0.10551778252E+03  0.11137460525E+03  0.00000000000E+00 0.  1.
          2    1    1    2  502    0 -0.20761282092E+02 -0.28970147249E+02  0.12863677498E+03  0.13348303317E+03  0.00000000000E+00 0.  1.
</event>
<event>
 4    1  0.6136512E+003  0.2378504E+02  0.7546771E-02  0.1482869E+00
          2   -1    0    0  501    0  0.00000000000E+00  0.00000000000E+00  0.10348970002E+03  0.10348970002E+03  0.00000000000E+00 0.  1.
          2   -1    0    0  502    0 -0.00000000000E+00 -0.00000000000E+00 -0.81679942631E+02  0.81679942631E+02  0.00000000000E+00 0. -1.
          2    1    1    2  501    0  0.16489794394E+02  0.17141027061E+02 -0.78528126443E+02  0.82051171659E+02  0.00000000000E+00 0. -1.
          2    1    1    2  502    0 -0.16489794394E+02 -0.17141027061E+02  0.10033788384E+03  0.10311847100E+03  0.00000000000E+00 0.  1.
</event>
<event>
 4    1  0.6136512E+003  0.2044091E+02  0.7546771E-02  0.1527399E+00
          2   -1    0    0  501    0  0.00000000000E+00  0.00000000000E+00  0.25278842911E+01  0.25278842911E+01  0.00000000000E+00 0.  1.
          2   -1    0    0  502    0 -0.00000000000E+00 -0.00000000000E+00 -0.81705563332E+03  0.81705563332E+03  0.00000000000E+00 0.  1.
          2    1    1    2  501    0 -0.14452252477E+02  0.14455563692E+02 -0.77326594240E+03  0.77353606807E+03  0.00000000000E+00 0.  1.
          2    1    1    2  502    0  0.14452252477E+02 -0.14455563692E+02 -0.41261806627E+02  0.46047449543E+02  0.00000000000E+00 0.  1.
</event>
<event>
 4    1  0.6136512E+003  0.2351770E+02  0.7546771E-02  0.1486098E+00
          2   -1    0    0  502    0  0.00000000000E+00  0.00000000000E+00  0.33713906361E+01  0.33713906361E+01  0.00000000000E+00 0. -1.
          2   -1    0    0  501    0 -0.00000000000E+00 -0.00000000000E+00 -0.15526156353E+04  0.15526156353E+04  0.00000000000E+00 0.  1.
          2    1    1    2  501    0  0.23068944277E+02 -0.45723310150E+01 -0.38877769954E+02  0.45437466891E+02  0.00000000000E+00 0. -1.
          2    1    1    2  502    0 -0.23068944277E+02  0.45723310150E+01 -0.15103664748E+04  0.15105495591E+04  0.00000000000E+00 0.  1.
</event>
<event>
 4    1  0.6136512E+003  0.2290032E+02  0.7546771E-02  0.1493754E+00
          2   -1    0    0  502    0  0.00000000000E+00  0.00000000000E+00  0.93410256084E+03  0.93410256084E+03  0.00000000000E+00 0. -1.
          2   -1    0    0  501    0 -0.00000000000E+00 -0.00000000000E+00 -0.11349117898E+01  0.11349117898E+01  0.00000000000E+00 0. -1.
          2    1    1    2  501    0 -0.22268356760E+02 -0.53427462278E+01  0.79889386421E+03  0.79922201604E+03  0.00000000000E+00 0. -1.
          2    1    1    2  502    0  0.22268356760E+02  0.53427462278E+01  0.13407378484E+03  0.13601545659E+03  0.00000000000E+00 0. -1.
</event>
<event>
 4    1  0.6136512E+003  0.4968614E+02  0.7546771E-02  0.1299539E+00
          2   -1    0    0  502    0  0.00000000000E+00  0.00000000000E+00  0.10144879291E+04  0.10144879291E+04  0.00000000000E+00 0.  1.
          2   -1    0    0  501    0 -0.00000000000E+00 -0.00000000000E+00 -0.58229001355E+02  0.58229001355E+02  0.00000000000E+00 0.  1.
          2    1    1    2  501    0  0.11691087599E+02  0.48291102111E+02  0.10031608070E+04  0.10043905201E+04  0.00000000000E+00 0.  1.
          2    1    1    2  502    0 -0.11691087599E+02 -0.48291102111E+02 -0.46901879292E+02  0.68326410365E+02  0.00000000000E+00 0.  1.
</event>
<event>
 4    1  0.6136512E+003  0.2215723E+02  0.7546771E-02  0.1503361E+00
          2   -1    0    0  502    0  0.00000000000E+00  0.00000000000E+00  0.15811419428E+03  0.15811419428E+03  0.00000000000E+00 0.  1.
          2   -1    0    0  501    0 -0.00000000000E+00 -0.00000000000E+00 -0.17863002354E+02  0.17863002354E+02  0.00000000000E+00 0. -1.
          2    1    1    2  501    0 -0.21852350626E+02 -0.36629857324E+01  0.15010223224E+03  0.15172878044E+03  0.00000000000E+00 0.  1.
          2    1    1    2  502    0  0.21852350626E+02  0.36629857324E+01 -0.98510403139E+01  0.24248416188E+02  0.00000000000E+00 0. -1.
</event>
<event>
 4    1  0.6136512E+003  0.2152194E+02  0.7546771E-02  0.1511942E+00
          2   -1    0    0  502    0  0.00000000000E+00  0.00000000000E+00  0.24174869058E+01  0.24174869058E+01  0.00000000000E+00 0. -1.
          2   -1    0    0  501    0 -0.00000000000E+00 -0.00000000000E+00 -0.13077545845E+04  0.13077545845E+04  0.00000000000E+00 0. -1.
          2    1    1    2  501    0 -0.84097266341E+01 -0.19810860443E+02 -0.47471039236E+02  0.52121907675E+02  0.00000000000E+00 0. -1.
          2    1    1    2  502    0  0.84097266341E+01  0.19810860443E+02 -0.12578660584E+04  0.12580501638E+04  0.00000000000E+00 0. -1.
</event>
<event>
 4    1  0.6136512E+003  0.2050729E+02  0.7546771E-02  0.1526417E+00
          2   -1    0    0  502    0  0.00000000000E+00  0.00000000000E+00  0.39012904952E+01  0.39012904952E+01  0.00000000000E+00 0. -1.
          2   -1    0    0  501    0 -0.00000000000E+00 -0.00000000000E+00 -0.11992250566E+03  0.11992250566E+03  0.00000000000E+00 0. -1.
          2    1    1    2  501    0  0.61682324270E+00 -0.20498015557E+02 -0.77696988850E+02  0.80357769936E+02  0.00000000000E+00 0. -1.
          2    1    1    2  502    0 -0.61682324270E+00  0.20498015557E+02 -0.38324226318E+02  0.43466026223E+02  0.00000000000E+00 0. -1.
</event>
<event>
 4    1  0.6136512E+003  0.4356119E+02  0.7546771E-02  0.1328793E+00
          2   -1    0    0  502    0  0.00000000000E+00  0.00000000000E+00  0.12338863680E+04  0.12338863680E+04  0.00000000000E+00 0.  1.
          2   -1    0    0  501    0 -0.00000000000E+00 -0.00000000000E+00 -0.79719124965E+02  0.79719124965E+02  0.00000000000E+00 0. -1.
          2    1    1    2  501    0 -0.40279345100E+02  0.16587701740E+02  0.12275202214E+04  0.12282929094E+04  0.00000000000E+00 0.  1.
          2    1    1    2  502    0  0.40279345100E+02 -0.16587701740E+02 -0.73352978296E+02  0.85312583571E+02  0.00000000000E+00 0. -1.
</event>
<event>
 4    1  0.6136512E+003  0.3111464E+02  0.7546771E-02  0.1410151E+00
          2   -1    0    0  501    0  0.00000000000E+00  0.00000000000E+00  0.15141890377E+03  0.15141890377E+03  0.00000000000E+00 0. -1.
          2   -1    0    0  502    0 -0.00000000000E+00 -0.00000000000E+00 -0.92004541202E+02  0.92004541202E+02  0.00000000000E+00 0. -1.
          2    1    1    2  501    0 -0.59883384466E+01  0.30532945395E+02 -0.87699351007E+02  0.93055344386E+02  0.00000000000E+00 0. -1.
          2    1    1    2  502    0  0.59883384466E+01 -0.30532945395E+02  0.14711371357E+03  0.15036810058E+03  0.00000000000E+00 0. -1.
</event>
<event>
 4    1  0.6136512E+003  0.3971464E+02  0.7546771E-02  0.1350166E+00
          2   -1    0    0  501    0  0.00000000000E+00  0.00000000000E+00  0.71943547914E+02  0.71943547914E+02  0.00000000000E+00 0. -1.
          2   -1    0    0  502    0 -0.00000000000E+00 -0.00000000000E+00 -0.68556884590E+02  0.68556884590E+02  0.00000000000E+00 0.  1.
          2    1    1    2  501    0  0.37063615822E+02  0.14266787886E+02 -0.56245628338E+02  0.68853638694E+02  0.00000000000E+00 0.  1.
          2    1    1    2  502    0 -0.37063615822E+02 -0.14266787886E+02  0.59632291662E+02  0.71646793810E+02  0.00000000000E+00 0. -1.
</event>
<event>
 4    1  0.6136512E+003  0.4171033E+02  0.7546771E-02  0.1338745E+00
          2   -1    0    0  502    0  0.00000000000E+00  0.00000000000E+00  0.12782325511E+02  0.12782325511E+02  0.00000000000E+00 0. -1.
          2   -1    0    0  501    0 -0.00000000000E+00 -0.00000000000E+00 -0.14709737423E+03  0.14709737423E+03  0.00000000000E+00 0.  1.
          2    1    1    2  501    0  0.41288085763E+02 -0.59199125118E+01 -0.45305757140E+02  0.61582164789E+02  0.00000000000E+00 0. -1.
          2    1    1    2  502    0 -0.41288085763E+02  0.59199125118E+01 -0.89009291583E+02  0.98297534955E+02  0.00000000000E+00 0.  1.
</event>
<event>
 4    1  0.6136512E+003  0.2286793E+02  0.7546771E-02  0.1494163E+00
          2   -1    0    0  502    0  0.00000000000E+00  0.00000000000E+00  0.72610887254E+01  0.72610887254E+01  0.00000000000E+00 0.  1.
          2   -1    0    0  501    0 -0.00000000000E+00 -0.00000000000E+00 -0.73931099463E+03  0.73931099463E+03  0.00000000000E+00 0. -1.
          2    1    1    2  501    0 -0.23602986231E+01 -0.22745796078E+02 -0.11386469468E+02  0.25545918182E+02  0.00000000000E+00 0.  1.
          2    1    1    2  502    0  0.23602986231E+01  0.22745796078E+02 -0.72066343643E+03  0.72102616517E+03  0.00000000000E+00 0. -1.
</event>
<event>
 4    1  0.6136512E+003  0.3051212E+02  0.7546771E-02  0.1415197E+00
          2   -1    0    0  501    0  0.00000000000E+00  0.00000000000E+00  0.65211489874E+03  0.65211489874E+03  0.00000000000E+00 0. -1.
          2   -1    0    0  502    0 -0.00000000000E+00 -0.00000000000E+00 -0.68582057363E+01  0.68582057363E+01  0.00000000000E+00 0. -1.
          2    1    1    2  501    0  0.27366933350E+02  0.13492240873E+02  0.29434592773E+02  0.42395575907E+02  0.00000000000E+00 0. -1.
          2    1    1    2  502    0 -0.27366933350E+02 -0.13492240873E+02  0.61582210023E+03  0.61657752857E+03  0.00000000000E+00 0. -1.
</event>
<event>
 4    1  0.6136512E+003  0.2812833E+02  0.7546771E-02  0.1436592E+00
          2   -1    0    0  502    0  0.00000000000E+00  0.00000000000E+00  0.11235250541E+01  0.11235250541E+01  0.00000000000E+00 0.  1.
          2   -1    0    0  501    0 -0.00000000000E+00 -0.00000000000E+00 -0.85293836905E+03  0.85293836905E+03  0.00000000000E+00 0. -1.
          2    1    1    2  501    0 -0.27567218661E+02 -0.55902714668E+01 -0.24759122130E+03  0.24918389905E+03  0.00000000000E+00 0.  1.
          2    1    1    2  502    0  0.27567218661E+02  0.55902714668E+01 -0.60422362269E+03  0.60487799505E+03  0.00000000000E+00 0. -1.
</event>
<event>
 4    1  0.6136512E+003  0.2575744E+02  0.7546771E-02  0.1460506E+00
          2   -1    0    0  501    0  0.00000000000E+00  0.00000000000E+00  0.30554823397E+01  0.30554823397E+01  0.00000000000E+00 0.  1.
          2   -1    0    0  502    0 -0.00000000000E+00 -0.00000000000E+00 -0.68618509736E+03  0.68618509736E+03  0.00000000000E+00 0.  1.
          2    1    1    2  501    0  0.98735255143E+01  0.23789892656E+02 -0.62648998446E+03  0.62701925499E+03  0.00000000000E+00 0.  1.
          2    1    1    2  502    0 -0.98735255143E+01 -0.23789892656E+02 -0.56639630554E+02  0.62221324704E+02  0.00000000000E+00 0.  1.
</event>
<event>
 4    1  0.6136512E+003  0.2073108E+02  0.7546771E-02  0.1523139E+00
          2   -1    0    0  502    0  0.00000000000E+00  0.00000000000E+00  0.67930963276E+01  0.67930963276E+01  0.00000000000E+00 0. -1.
          2   -1    0    0  501    0 -0.00000000000E+00 -0.00000000000E+00 -0.20085740777E+03  0.20085740777E+03  0.00000000000E+00 0. -1.
          2    1    1    2  501    0 -0.15595704101E+02 -0.13658388857E+02 -0.11100449054E+02  0.23515899765E+02  0.00000000000E+00 0. -1.
          2    1    1    2  502    0  0.15595704101E+02  0.13658388857E+02 -0.18296386239E+03  0.18413460434E+03  0.00000000000E+00 0. -1.
</event>
<event>
 4    1  0.6136512E+003  0.3527920E+02  0.7546771E-02  0.1378611E+00
          2   -1    0    0  502    0  0.00000000000E+00  0.00000000000E+00  0.23568970536E+04  0.23568970536E+04  0.00000000000E+00 0.  1.
          2   -1    0    0  501    0 -0.00000000000E+00 -0.00000000000E+00 -0.17222813278E+02  0.17222813278E+02  0.00000000000E+00 0.  1.
          2    1    1    2  501    0 -0.28195156432E+02 -0.21205072097E+02  0.23385568835E+04  0.23388229773E+04  0.00000000000E+00 0.  1.
          2    1    1    2  502    0  0.28195156432E+02  0.21205072097E+02  0.11173568722E+01  0.35296889597E+02  0.00000000000E+00 0.  1.
</event>
<event>
 4    1  0.6136512E+003  0.4561905E+02  0.7546771E-02  0.1318373E+00
          2   -1    0    0  501    0  0.00000000000E+00  0.00000000000E+00  0.31733817702E+04  0.31733817702E+04  0.00000000000E+00 0.  1.
          2   -1    0    0  502    0 -0.00000000000E+00 -0.00000000000E+00 -0.10589092920E+02  0.10589092920E+02  0.00000000000E+00 0.  1.
          2    1    1    2  501    0  0.11797192655E+02 -0.44067265213E+02  0.39495754149E+02  0.60340800572E+02  0.00000000000E+00 0.  1.
          2    1    1    2  502    0 -0.11797192655E+02  0.44067265213E+02  0.31232969231E+04  0.31236300625E+04  0.00000000000E+00 0.  1.
</event>
<event>
 4    1  0.6136512E+003  0.2526011E+02  0.7546771E-02  0.1465914E+00
          2   -1    0    0  501    0  0.00000000000E+00  0.00000000000E+00  0.41944716627E+02  0.41944716627E+02  0.00000000000E+00 0. -1.
          2   -1    0    0  502    0 -0.00000000000E+00 -0.00000000000E+00 -0.14680181472E+04  0.14680181472E+04  0.00000000000E+00 0.  1.
          2    1    1    2  501    0 -0.17760129161E+02  0.17962485591E+02 -0.14640962384E+04  0.14643141290E+04  0.00000000000E+00 0.  1.
          2    1    1    2  502    0  0.17760129161E+02 -0.17962485591E+02  0.38022807829E+02  0.45648734831E+02  0.00000000000E+00 0. -1.
</event>
<event>
 4    1  0.6136512E+003  0.3690441E+02  0.7546771E-02  0.1367647E+00
          2   -1    0    0  501    0  0.00000000000E+00  0.00000000000E+00  0.13675351889E+04  0.13675351889E+04  0.00000000000E+00 0.  1.
          2   -1    0    0  502    0 -0.00000000000E+00 -0.00000000000E+00 -0.38900293539E+01  0.38900293539E+01  0.00000000000E+00 0.  1.
          2    1    1    2  501    0  0.34089900760E+02  0.14135557923E+02  0.90364077458E+02  0.97609435130E+02  0.00000000000E+00 0.  1.
          2    1    1    2  502    0 -0.34089900760E+02 -0.14135557923E+02  0.12732810821E+04  0.12738157831E+04  0.00000000000E+00 0.  1.
</event>
<event>
 4    1  0.6136512E+003  0.3078030E+02  0.7546771E-02  0.1412934E+00
          2   -1    0    0  501    0  0.00000000000E+00  0.00000000000E+00  0.65099816643E+02  0.65099816643E+02  0.00000000000E+00 0.  1.
          2   -1    0    0  502    0 -0.00000000000E+00 -0.00000000000E+00 -0.78828025482E+03  0.78828025482E+03  0.00000000000E+00 0. -1.
          2    1    1    2  501    0 -0.28770348621E+02 -0.10940472751E+02 -0.78432306992E+03  0.78492681500E+03  0.00000000000E+00 0. -1.
          2    1    1    2  502    0  0.28770348621E+02  0.10940472751E+02  0.61142631741E+02  0.68453256460E+02  0.00000000000E+00 0.  1.
</event>
<event>
 4    1  0.6136512E+003  0.3606230E+02  0.7546771E-02  0.1373245E+00
          2   -1    0    0  501    0  0.00000000000E+00  0.00000000000E+00  0.12439304133E+04  0.12439304133E+04  0.00000000000E+00 0. -1.
          2   -1    0    0  502    0 -0.00000000000E+00 -0.00000000000E+00 -0.25129198295E+01  0.25129198295E+01  0.00000000000E+00 0.  1.
          2    1    1    2  501    0 -0.12722306421E+02  0.33743622378E+02  0.14445852543E+03  0.14889175498E+03  0.00000000000E+00 0.  1.
          2    1    1    2  502    0  0.12722306421E+02 -0.33743622378E+02  0.10969589680E+04  0.10975515781E+04  0.00000000000E+00 0. -1.
</event>
<event>
 4    1  0.6136512E+003  0.3101693E+02  0.7546771E-02  0.1410960E+00
          2   -1    0    0  501    0  0.00000000000E+00  0.00000000000E+00  0.23624894053E+03  0.23624894053E+03  0.00000000000E+00 0. -1.
          2   -1    0    0  502    0 -0.00000000000E+00 -0.00000000000E+00 -0.40985429450E+01  0.40985429450E+01  0.00000000000E+00 0.  1.
          2    1    1    2  501    0 -0.30163410470E+02 -0.72262317819E+01  0.10643828705E+03  0.11086549828E+03  0.00000000000E+00 0. -1.
          2    1    1    2  502    0  0.30163410470E+02  0.72262317819E+01  0.12571211053E+03  0.12948198520E+03  0.00000000000E+00 0.  1.
</event>
<event>
 4    1  0.6136512E+003  0.2780370E+02  0.7546771E-02  0.1439698E+00
          2   -1    0    0  501    0  0.00000000000E+00  0.00000000000E+00  0.53832673182E+03  0.53832673182E+03  0.00000000000E+00 0.  1.
          2   -1    0    0  502    0 -0.00000000000E+00 -0.00000000000E+00 -0.42343713822E+02  0.42343713822E+02  0.00000000000E+00 0. -1.
          2    1    1    2  501    0  0.18023627991E+02 -0.21170601846E+02 -0.37378136569E+02  0.46585090338E+02  0.00000000000E+00 0. -1.
          2    1    1    2  502    0 -0.18023627991E+02  0.21170601846E+02  0.53336115457E+03  0.53408535530E+03  0.00000000000E+00 0.  1.
</event>
<event>
 4    1  0.6136512E+003  0.3184607E+02  0.7546771E-02  0.1404205E+00
          2   -1    0    0  502    0  0.00000000000E+00  0.00000000000E+00  0.19454696402E+04  0.19454696402E+04  0.00000000000E+00 0.  1.
          2   -1    0    0  501    0 -0.00000000000E+00 -0.00000000000E+00 -0.93618522982E+01  0.93618522982E+01  0.00000000000E+00 0. -1.
          2    1    1    2  501    0  0.29270444781E+02 -0.12546455649E+02  0.19178669787E+04  0.19181313616E+04  0.00000000000E+00 0.  1.
          2    1    1    2  502    0 -0.29270444781E+02  0.12546455649E+02  0.18240809248E+02  0.36700130913E+02  0.00000000000E+00 0. -1.
</event>
<event>
 4    1  0.6136512E+003  0.3531521E+02  0.7546771E-02  0.1378361E+00
          2   -1    0    0  501    0  0.00000000000E+00  0.00000000000E+00  0.17313440076E+01  0.17313440076E+01  0.00000000000E+00 0. -1.
          2   -1    0    0  502    0 -0.00000000000E+00 -0.00000000000E+00 -0.13649794700E+04  0.13649794700E+04  0.00000000000E+00 0. -1.
          2    1    1    2  501    0 -0.24864767139E+02 -0.25078031648E+02 -0.11512374520E+04  0.11517789871E+04  0.00000000000E+00 0. -1.
          2    1    1    2  502    0  0.24864767139E+02  0.25078031648E+02 -0.21201067395E+03  0.21493182683E+03  0.00000000000E+00 0. -1.
</event>
<event>
 4    1  0.6136512E+003  0.2958116E+02  0.7546771E-02  0.1423271E+00
          2   -1    0    0  502    0  0.00000000000E+00  0.00000000000E+00  0.11549529928E+03  0.11549529928E+03  0.00000000000E+00 0.  1.
          2   -1    0    0  501    0 -0.00000000000E+00 -0.00000000000E+00 -0.86183169981E+02  0.86183169981E+02  0.00000000000E+00 0.  1.
          2    1    1    2  501    0  0.11323495695E+02  0.27328074386E+02  0.11096090726E+03  0.11483626668E+03  0.00000000000E+00 0.  1.
          2    1    1    2  502    0 -0.11323495695E+02 -0.27328074386E+02 -0.81648777969E+02  0.86842202576E+02  0.00000000000E+00 0.  1.
</event>
<event>
 4    1  0.6136512E+003  0.2190091E+02  0.7546771E-02  0.1506781E+00
          2   -1    0    0  502    0  0.00000000000E+00  0.00000000000E+00  0.20833834422E+02  0.20833834422E+02  0.00000000000E+00 0.  1.
          2   -1    0    0  501    0 -0.00000000000E+00 -0.00000000000E+00 -0.46276959389E+02  0.46276959389E+02  0.00000000000E+00 0.  1.
          2    1    1    2  501    0  0.68414547049E+01 -0.20804912843E+02  0.11065004941E+02  0.24537404819E+02  0.00000000000E+00 0.  1.
          2    1    1    2  502    0 -0.68414547049E+01  0.20804912843E+02 -0.36508129908E+02  0.42573388992E+02  0.00000000000E+00 0.  1.
</event>
<event>
 4    1  0.6136512E+003  0.2163674E+02  0.7546771E-02  0.1510365E+00
          2   -1    0    0  502    0  0.00000000000E+00  0.00000000000E+00  0.13617943045E+04  0.13617943045E+04  0.00000000000E+00 0.  1.
          2   -1    0    0  501    0 -0.00000000000E+00 -0.00000000000E+00 -0.51839044213E+02  0.51839044213E+02  0.00000000000E+00 0. -1.
          2    1    1    2  501    0  0.21594096994E+02 -0.13578080610E+01  0.13594467597E+04  0.13596189324E+04  0.00000000000E+00 0.  1.
          2    1    1    2  502    0 -0.21594096994E+02  0.13578080610E+01 -0.49491499395E+02  0.54014416410E+02  0.00000000000E+00 0. -1.
</event>
<event>
 4    1  0.6136512E+003  0.2307284E+02  0.7546771E-02  0.1491586E+00
          2   -1    0    0  501    0  0.00000000000E+00  0.00000000000E+00  0.14136769072E+04  0.14136769072E+04  0.00000000000E+00 0.  1.
          2   -1    0    0  502    0 -0.00000000000E+00 -0.00000000000E+00 -0.39533039816E+00  0.39533039816E+00  0.00000000000E+00 0.  1.
          2    1    1    2  501    0  0.22848062713E+02  0.32127853449E+01  0.55264107776E+03  0.55312251517E+03  0.00000000000E+00 0.  1.
          2    1    1    2  502    0 -0.22848062713E+02 -0.32127853449E+01  0.86064049903E+03  0.86094972242E+03  0.00000000000E+00 0.  1.
</event>
<event>
 4    1  0.6136512E+003  0.2016980E+02  0.7546771E-02  0.1531456E+00
          2   -1    0    0  502    0  0.00000000000E+00  0.00000000000E+00  0.73515271061E+00  0.73515271061E+00  0.00000000000E+00 0.  1.
          2   -1    0    0  501    0 -0.00000000000E+00 -0.00000000000E+00 -0.75332018202E+03  0.75332018202E+03  0.00000000000E+00 0. -1.
          2    1    1    2  501    0 -0.20126663875E+02 -0.13184272113E+01 -0.18205619319E+03  0.18317008033E+03  0.00000000000E+00 0.  1.
          2    1    1    2  502    0  0.20126663875E+02  0.13184272113E+01 -0.57052883612E+03  0.57088525440E+03  0.00000000000E+00 0. -1.
</event>
<event>
 4    1  0.6136512E+003  0.2667390E+02  0.7546771E-02  0.1450912E+00
          2   -1    0    0  502    0  0.00000000000E+00  0.00000000000E+00  0.24848611032E+01  0.24848611032E+01  0.00000000000E+00 0.  1.
          2   -1    0    0  501    0 -0.00000000000E+00 -0.00000000000E+00 -0.11801394501E+04  0.11801394501E+04  0.00000000000E+00 0. -1.
          2    1    1    2  501    0  0.14254285194E+01 -0.26635785497E+02 -0.74224707741E+02  0.78872074619E+02  0.00000000000E+00 0.  1.
          2    1    1    2  502    0 -0.14254285194E+01  0.26635785497E+02 -0.11034298812E+04  0.11037522366E+04  0.00000000000E+00 0. -1.
</event>
<event>
 4    1  0.6136512E+003  0.4710368E+02  0.7546771E-02  0.1311243E+00
          2   -1    0    0  501    0  0.00000000000E+00  0.00000000000E+00  0.87597893524E+02  0.87597893524E+02  0.00000000000E+00 0. -1.
          2   -1    0    0  502    0 -0.00000000000E+00 -0.00000000000E+00 -0.31016341849E+03  0.31016341849E+03  0.00000000000E+00 0. -1.
          2    1    1    2  501    0 -0.42937991328E+02  0.19367116077E+02 -0.30186989838E+03  0.30552281720E+03  0.00000000000E+00 0. -1.
          2    1    1    2  502    0  0.42937991328E+02 -0.19367116077E+02  0.79304373408E+02  0.92238494816E+02  0.00000000000E+00 0. -1.
</event>
<event>
 4    1  0.6136512E+003  0.2136330E+02  0.7546771E-02  0.1514141E+00
          2   -1    0    0  501    0  0.00000000000E+00  0.00000000000E+00  0.90957325328E+01  0.90957325328E+01  0.00000000000E+00 0.  1.
          2   -1    0    0  502    0 -0.00000000000E+00 -0.00000000000E+00 -0.36036748875E+03  0.36036748875E+03  0.00000000000E+00 0. -1.
          2    1    1    2  501    0  0.19077444877E+02 -0.96146708605E+01 -0.34702493853E+03  0.34768189306E+03  0.00000000000E+00 0. -1.
          2    1    1    2  502    0 -0.19077444877E+02  0.96146708605E+01 -0.42468176884E+01  0.21781328226E+02  0.00000000000E+00 0.  1.
</event>
<event>
 4    1  0.6136512E+003  0.2077056E+02  0.7546771E-02  0.1522566E+00
          2   -1    0    0  502    0  0.00000000000E+00  0.00000000000E+00  0.14340481774E+03  0.14340481774E+03  0.00000000000E+00 0.  1.
          2   -1    0    0  501    0 -0.00000000000E+00 -0.00000000000E+00 -0.31372647822E+01  0.31372647822E+01  0.00000000000E+00 0.  1.
          2    1    1    2  501    0  0.94945604121E+01  0.18473486039E+02  0.84984769819E+02  0.87486155848E+02  0.00000000000E+00 0.  1.
          2    1    1    2  502    0 -0.94945604121E+01 -0.18473486039E+02  0.55282783144E+02  0.59055926679E+02  0.00000000000E+00 0.  1.
</event>
<event>
 4    1  0.6136512E+003  0.4267595E+02  0.7546771E-02  0.1333480E+00
          2   -1    0    0  501    0  0.00000000000E+00  0.00000000000E+00  0.11431147605E+04  0.11431147605E+04  0.00000000000E+00 0. -1.
          2   -1    0    0  502    0 -0.00000000000E+00 -0.00000000000E+00 -0.33640427571E+02  0.33640427571E+02  0.00000000000E+00 0. -1.
          2    1    1    2  501    0  0.24808419303E+02  0.34724324350E+02 -0.19538548209E+02  0.46936033450E+02  0.00000000000E+00 0. -1.
          2    1    1    2  502    0 -0.24808419303E+02 -0.34724324350E+02  0.11290128811E+04  0.11298191546E+04  0.00000000000E+00 0. -1.
</event>
<event>
 4    1  0.6136512E+003  0.2100081E+02  0.7546771E-02  0.1519253E+00
          2   -1    0    0  502    0  0.00000000000E+00  0.00000000000E+00  0.14856057298E+03  0.14856057298E+03  0.00000000000E+00 0.  1.
          2   -1    0    0  501    0 -0.00000000000E+00 -0.00000000000E+00 -0.13619285770E+04  0.13619285770E+04  0.00000000000E+00 0.  1.
          2    1    1    2  501    0 -0.42340048773E+01 -0.20569571597E+02  0.14773698742E+03  0.14922215494E+03  0.00000000000E+00 0.  1.
          2    1    1    2  502    0  0.42340048773E+01  0.20569571597E+02 -0.13611049914E+04  0.13612669950E+04  0.00000000000E+00 0.  1.
</event>
<event>
 4    1  0.6136512E+003  0.2027573E+02  0.7546771E-02  0.1529862E+00
          2   -1    0    0  501    0  0.00000000000E+00  0.00000000000E+00  0.25953379573E+02  0.25953379573E+02  0.00000000000E+00 0.  1.
          2   -1    0    0  502    0 -0.00000000000E+00 -0.00000000000E+00 -0.16496161226E+02  0.16496161226E+02  0.00000000000E+00 0.  1.
          2    1    1    2  501    0 -0.19471883230E+02  0.56525087385E+01  0.49596803627E+00  0.20281791732E+02  0.00000000000E+00 0.  1.
          2    1    1    2  502    0  0.19471883230E+02 -0.56525087385E+01  0.89612503108E+01  0.22167749067E+02  0.00000000000E+00 0.  1.
</event>
<event>
 4    1  0.6136512E+003  0.5849420E+02  0.7546771E-02  0.1265036E+00
          2   -1    0    0  502    0  0.00000000000E+00  0.00000000000E+00  0.23955237520E+04  0.23955237520E+04  0.00000000000E+00 0. -1.
          2   -1    0    0  501    0 -0.00000000000E+00 -0.00000000000E+00 -0.16460165419E+03  0.16460165419E+03  0.00000000000E+00 0. -1.
          2    1    1    2  501    0 -0.52395694132E+02 -0.26005046741E+02  0.23899578267E+04  0.23906735420E+04  0.00000000000E+00 0. -1.
          2    1    1    2  502    0  0.52395694132E+02  0.26005046741E+02 -0.15903572886E+03  0.16945186417E+03  0.00000000000E+00 0. -1.
</event>
<event>
 4    1  0.6136512E+003  0.2301316E+02  0.7546771E-02  0.1492333E+00
          2   -1    0    0  501    0  0.00000000000E+00  0.00000000000E+00  0.21188544440E+03  0.21188544440E+03  0.00000000000E+00 0.  1.
          2   -1    0    0  502    0 -0.00000000000E+00 -0.00000000000E+00 -0.11245234297E+04  0.11245234297E+04  0.00000000000E+00 0.  1.
          2    1    1    2  501    0 -0.17346511594E+02  0.15122969745E+02 -0.11237804039E+04  0.11240160149E+04  0.00000000000E+00 0.  1.
          2    1    1    2  502    0  0.17346511594E+02 -0.15122969745E+02  0.21114241861E+03  0.21239285914E+03  0.00000000000E+00 0.  1.
</event>
<event>
 4    1  0.6136512E+003  0.2157332E+02  0.7546771E-02  0.1511234E+00
          2   -1    0    0  502    0  0.00000000000E+00  0.00000000000E+00  0.91289377584E+01  0.91289377584E+01  0.00000000000E+00 0. -1.
          2   -1    0    0  501    0 -0.00000000000E+00 -0.00000000000E+00 -0.47549258524E+03  0.47549258524E+03  0.00000000000E+00 0.  1.
          2    1    1    2  501    0  0.15841502929E+02  0.14644286555E+02 -0.42293886153E+01  0.21983995811E+02  0.00000000000E+00 0. -1.
          2    1    1    2  502    0 -0.15841502929E+02 -0.14644286555E+02 -0.46213425887E+03  0.46263752719E+03  0.00000000000E+00 0.  1.
</event>
<event>
 4    1  0.6136512E+003  0.3250524E+02  0.7546771E-02  0.1399005E+00
          2   -1    0    0  502    0  0.00000000000E+00  0.00000000000E+00  0.62764400086E+01  0.62764400086E+01  0.00000000000E+00 0.  1.
          2   -1    0    0  501    0 -0.00000000000E+00 -0.00000000000E+00 -0.77119386001E+03  0.77119386001E+03  0.00000000000E+00 0.  1.
          2    1    1    2  501    0  0.15468674201E+01 -0.32468412119E+02 -0.38760546725E+02  0.50586268560E+02  0.00000000000E+00 0.  1.
          2    1    1    2  502    0 -0.15468674201E+01  0.32468412119E+02 -0.72615687327E+03  0.72688403146E+03  0.00000000000E+00 0.  1.
</event>
<event>
 4    1  0.6136512E+003  0.2727912E+02  0.7546771E-02  0.1444824E+00
          2   -1    0    0  501    0  0.00000000000E+00  0.00000000000E+00  0.24624896851E+03  0.24624896851E+03  0.00000000000E+00 0. -1.
          2   -1    0    0  502    0 -0.00000000000E+00 -0.00000000000E+00 -0.83986638735E+01  0.83986638735E+01  0.00000000000E+00 0. -1.
          2    1    1    2  501    0  0.26882401055E+02  0.46354160661E+01  0.17051176441E+02  0.32169755774E+02  0.00000000000E+00 0. -1.
          2    1    1    2  502    0 -0.26882401055E+02 -0.46354160661E+01  0.22079912820E+03  0.22247787661E+03  0.00000000000E+00 0. -1.
</event>
<event>
 4    1  0.6136512E+003  0.2588012E+02  0.7546771E-02  0.1459194E+00
          2   -1    0    0  502    0  0.00000000000E+00  0.00000000000E+00  0.15934558571E+03  0.15934558571E+03  0.00000000000E+00 0. -1.
          2   -1    0    0  501    0 -0.00000000000E+00 -0.00000000000E+00 -0.72901010375E+03  0.72901010375E+03  0.00000000000E+00 0. -1.
          2    1    1    2  501    0 -0.25313892834E+02  0.53839894536E+01  0.15806321617E+03  0.16016791445E+03  0.00000000000E+00 0. -1.
          2    1    1    2  502    0  0.25313892834E+02 -0.53839894536E+01 -0.72772773422E+03  0.72818777500E+03  0.00000000000E+00 0. -1.
</event>
<event>
 4    1  0.6136512E+003  0.4260668E+02  0.7546771E-02  0.1333852E+00
          2   -1    0    0  502    0  0.00000000000E+00  0.00000000000E+00  0.45086082304E+02  0.45086082304E+02  0.00000000000E+00 0. -1.
          2   -1    0    0  501    0 -0.00000000000E+00 -0.00000000000E+00 -0.11924371638E+04  0.11924371638E+04  0.00000000000E+00 0.  1.
          2    1    1    2  501    0 -0.30983221262E+02  0.29246699187E+02  0.34549877450E+02  0.54854566308E+02  0.00000000000E+00 0. -1.
          2    1    1    2  502    0  0.30983221262E+02 -0.29246699187E+02 -0.11819009590E+04  0.11826686798E+04  0.00000000000E+00 0.  1.
</event>
<event>
 4    1  0.6136512E+003  0.2922297E+02  0.7546771E-02  0.1426471E+00
          2   -1    0    0  502    0  0.00000000000E+00  0.00000000000E+00  0.20823278247E+03  0.20823278247E+03  0.00000000000E+00 0. -1.
          2   -1    0    0  501    0 -0.00000000000E+00 -0.00000000000E+00 -0.49223743803E+02  0.49223743803E+02  0.00000000000E+00 0.  1.
          2    1    1    2  501    0  0.21113536621E+02  0.20203969403E+02  0.20275365884E+03  0.20484879297E+03  0.00000000000E+00 0. -1.
          2    1    1    2  502    0 -0.21113536621E+02 -0.20203969403E+02 -0.43744620178E+02  0.52607733299E+02  0.00000000000E+00 0.  1.
</event>
<event>
 4    1  0.6136512E+003  0.5345900E+02  0.7546771E-02  0.1283834E+00
          2   -1    0    0  501    0  0.00000000000E+00  0.00000000000E+00  0.24204088715E+04  0.24204088715E+04  0.00000000000E+00 0.  1.
          2   -1    0    0  502    0 -0.00000000000E+00 -0.00000000000E+00 -0.11539623405E+02  0.11539623405E+02  0.00000000000E+00 0.  1.
          2    1    1    2  501    0 -0.42427057785E+02  0.32523986169E+02  0.52348073147E+02  0.74821024257E+02  0.00000000000E+00 0.  1.
          2    1    1    2  502    0  0.42427057785E+02 -0.32523986169E+02  0.23565211750E+04  0.23571274707E+04  0.00000000000E+00 0.  1.
</event>
<event>
 4    1  0.6136512E+003  0.2096907E+02  0.7546771E-02  0.1519707E+00
          2   -1    0    0  501    0  0.00000000000E+00  0.00000000000E+00  0.42234027645E+01  0.42234027645E+01  0.00000000000E+00 0.  1.
          2   -1    0    0  502    0 -0.00000000000E+00 -0.00000000000E+00 -0.10057662327E+04  0.10057662327E+04  0.00000000000E+00 0.  1.
          2    1    1    2  501    0  0.81744566239E+01  0.19310100801E+02 -0.97891540795E+03  0.97913996837E+03  0.00000000000E+00 0.  1.
          2    1    1    2  502    0 -0.81744566239E+01 -0.19310100801E+02 -0.22627421973E+02  0.30849667083E+02  0.00000000000E+00 0.  1.
</event>
<event>
 4    1  0.6136512E+003  0.2708003E+02  0.7546771E-02  0.1446806E+00
          2   -1    0    0  501    0  0.00000000000E+00  0.00000000000E+00  0.33014746664E+03  0.33014746664E+03  0.00000000000E+00 0. -1.
          2   -1    0    0  502    0 -0.00000000000E+00 -0.00000000000E+00 -0.23761086221E+01  0.23761086221E+01  0.00000000000E+00 0. -1.
          2    1    1    2  501    0  0.14246071324E+02  0.23029921872E+02  0.12143556589E+03  0.12441834476E+03  0.00000000000E+00 0. -1.
          2    1    1    2  502    0 -0.14246071324E+02 -0.23029921872E+02  0.20633579213E+03  0.20810523050E+03  0.00000000000E+00 0. -1.
</event>
<event>
 4    1  0.6136512E+003  0.2105961E+02  0.7546771E-02  0.1518415E+00
          2   -1    0    0  501    0  0.00000000000E+00  0.00000000000E+00  0.27809064658E+01  0.27809064658E+01  0.00000000000E+00 0. -1.
          2   -1    0    0  502    0 -0.00000000000E+00 -0.00000000000E+00 -0.20575526687E+03  0.20575526687E+03  0.00000000000E+00 0. -1.
          2    1    1    2  501    0 -0.16130087874E+02 -0.13539841294E+02 -0.15093381788E+03  0.15239594620E+03  0.00000000000E+00 0. -1.
          2    1    1    2  502    0  0.16130087874E+02  0.13539841294E+02 -0.52040542523E+02  0.56140227138E+02  0.00000000000E+00 0. -1.
</event>
<event>
 4    1  0.6136512E+003  0.2086895E+02  0.7546771E-02  0.1521144E+00
          2   -1    0    0  501    0  0.00000000000E+00  0.00000000000E+00  0.13041236510E+04  0.13041236510E+04  0.00000000000E+00 0. -1.
          2   -1    0    0  502    0 -0.00000000000E+00 -0.00000000000E+00 -0.59379582425E+00  0.59379582425E+00  0.00000000000E+00 0. -1.
          2    1    1    2  501    0  0.10651770757E+02  0.17945836872E+02  0.22022099555E+03  0.22120759517E+03  0.00000000000E+00 0. -1.
          2    1    1    2  502    0 -0.10651770757E+02 -0.17945836872E+02  0.10833088596E+04  0.10835098517E+04  0.00000000000E+00 0. -1.
</event>
<event>
 4    1  0.6136512E+003  0.2532554E+02  0.7546771E-02  0.1465194E+00
          2   -1    0    0  501    0  0.00000000000E+00  0.00000000000E+00  0.71932787654E+02  0.71932787654E+02  0.00000000000E+00 0.  1.
          2   -1    0    0  502    0 -0.00000000000E+00 -0.00000000000E+00 -0.95782788317E+01  0.95782788317E+01  0.00000000000E+00 0. -1.
          2    1    1    2  501    0  0.25123383378E+02  0.31935527640E+01  0.20463923997E+02  0.32560026981E+02  0.00000000000E+00 0. -1.
          2    1    1    2  502    0 -0.25123383378E+02 -0.31935527640E+01  0.41890584825E+02  0.48951039505E+02  0.00000000000E+00 0.  1.
</event>
<event>
 4    1  0.6136512E+003  0.3412456E+02  0.7546771E-02  0.1386824E+00
          2   -1    0    0  502    0  0.00000000000E+00  0.00000000000E+00  0.18800873127E+02  0.18800873127E+02  0.00000000000E+00 0.  1.
          2   -1    0    0  501    0 -0.00000000000E+00 -0.00000000000E+00 -0.71086060333E+02  0.71086060333E+02  0.00000000000E+00 0.  1.
          2    1    1    2  501    0 -0.31665473961E+02  0.12719406611E+02 -0.42265471329E+02  0.54321778435E+02  0.00000000000E+00 0.  1.
          2    1    1    2  502    0  0.31665473961E+02 -0.12719406611E+02 -0.10019715877E+02  0.35565155025E+02  0.00000000000E+00 0.  1.
</event>
<event>
 4    1  0.6136512E+003  0.2492676E+02  0.7546771E-02  0.1469624E+00
          2   -1    0    0  501    0  0.00000000000E+00  0.00000000000E+00  0.34763559185E+03  0.34763559185E+03  0.00000000000E+00 0. -1.
          2   -1    0    0  502    0 -0.00000000000E+00 -0.00000000000E+00 -0.28865228123E+03  0.28865228123E+03  0.00000000000E+00 0. -1.
          2    1    1    2  501    0  0.14429695541E+02  0.20325529642E+02 -0.28766577489E+03  0.28874372948E+03  0.00000000000E+00 0. -1.
          2    1    1    2  502    0 -0.14429695541E+02 -0.20325529642E+02  0.34664908551E+03  0.34754414360E+03  0.00000000000E+00 0. -1.
</event>
<event>
 4    1  0.6136512E+003  0.2101468E+02  0.7546771E-02  0.1519055E+00
          2   -1    0    0  501    0  0.00000000000E+00  0.00000000000E+00  0.17597247578E+01  0.17597247578E+01  0.00000000000E+00 0. -1.
          2   -1    0    0  502    0 -0.00000000000E+00 -0.00000000000E+00 -0.55576724136E+03  0.55576724136E+03  0.00000000000E+00 0.  1.
          2    1    1    2  501    0  0.10806742011E+02  0.18023074269E+02 -0.48344835775E+03  0.48390487856E+03  0.00000000000E+00 0.  1.
          2    1    1    2  502    0 -0.10806742011E+02 -0.18023074269E+02 -0.70559158849E+02  0.73622087559E+02  0.00000000000E+00 0. -1.
</event>
<event>
 4    1  0.6136512E+003  0.3135227E+02  0.7546771E-02  0.1408198E+00
          2   -1    0    0  502    0  0.00000000000E+00  0.00000000000E+00  0.15451729269E+04  0.15451729269E+04  0.00000000000E+00 0. -1.
          2   -1    0    0  501    0 -0.00000000000E+00 -0.00000000000E+00 -0.17651410765E+01  0.17651410765E+01  0.00000000000E+00 0. -1.
          2    1    1    2  501    0  0.30970359018E+02  0.48786857338E+01  0.13902870737E+04  0.13906405402E+04  0.00000000000E+00 0. -1.
          2    1    1    2  502    0 -0.30970359018E+02 -0.48786857338E+01  0.15312071213E+03  0.15629752779E+03  0.00000000000E+00 0. -1.
</event>
<event>
 4    1  0.6136512E+003  0.3129473E+02  0.7546771E-02  0.1408669E+00
          2   -1    0    0  502    0  0.00000000000E+00  0.00000000000E+00  0.72457866537E+02  0.72457866537E+02  0.00000000000E+00 0. -1.
          2   -1    0    0  501    0 -0.00000000000E+00 -0.00000000000E+00 -0.28193196632E+02  0.28193196632E+02  0.00000000000E+00 0. -1.
          2    1    1    2  501    0 -0.82336227291E+01  0.30192176973E+02  0.58442963879E+02  0.66294344560E+02  0.00000000000E+00 0. -1.
          2    1    1    2  502    0  0.82336227291E+01 -0.30192176973E+02 -0.14178293974E+02  0.34356718610E+02  0.00000000000E+00 0. -1.
</event>
<event>
 4    1  0.6136512E+003  0.2137108E+02  0.7546771E-02  0.1514032E+00
          2   -1    0    0  502    0  0.00000000000E+00  0.00000000000E+00  0.25690770381E+01  0.25690770381E+01  0.00000000000E+00 0. -1.
          2   -1    0    0  501    0 -0.00000000000E+00 -0.00000000000E+00 -0.71440121025E+03  0.71440121025E+03  0.00000000000E+00 0.  1.
          2    1    1    2  501    0 -0.18309199110E+00 -0.21370293849E+02 -0.45220414754E+02  0.50016086336E+02  0.00000000000E+00 0. -1.
          2    1    1    2  502    0  0.18309199110E+00  0.21370293849E+02 -0.66661171846E+03  0.66695420096E+03  0.00000000000E+00 0.  1.
</event>
<event>
 4    1  0.6136512E+003  0.3161955E+02  0.7546771E-02  0.1406026E+00
          2   -1    0    0  502    0  0.00000000000E+00  0.00000000000E+00  0.22501669456E+04  0.22501669456E+04  0.00000000000E+00 0.  1.
          2   -1    0    0  501    0 -0.00000000000E+00 -0.00000000000E+00 -0.77655563496E+00  0.77655563496E+00  0.00000000000E+00 0.  1.
          2    1    1    2  501    0  0.31323203008E+02 -0.43189115500E+01  0.18608529219E+04  0.18611215417E+04  0.00000000000E+00 0.  1.
          2    1    1    2  502    0 -0.31323203008E+02  0.43189115500E+01  0.38853746806E+03  0.38982195952E+03  0.00000000000E+00 0.  1.
</event>
<event>
 4    1  0.6136512E+003  0.2102216E+02  0.7546771E-02  0.1518949E+00
          2   -1    0    0  502    0  0.00000000000E+00  0.00000000000E+00  0.17818963043E+03  0.17818963043E+03  0.00000000000E+00 0.  1.
          2   -1    0    0  501    0 -0.00000000000E+00 -0.00000000000E+00 -0.11987277064E+02  0.11987277064E+02  0.00000000000E+00 0. -1.
          2    1    1    2  501    0  0.65719010135E+01 -0.19968503282E+02  0.16778353275E+03  0.16909537210E+03  0.00000000000E+00 0.  1.
          2    1    1    2  502    0 -0.65719010135E+01  0.19968503282E+02 -0.15811793782E+01  0.21081535392E+02  0.00000000000E+00 0. -1.
</event>
<event>
 4    1  0.6136512E+003  0.3105297E+02  0.7546771E-02  0.1410661E+00
          2   -1    0    0  501    0  0.00000000000E+00  0.00000000000E+00  0.21905544245E+03  0.21905544245E+03  0.00000000000E+00 0.  1.
          2   -1    0    0  502    0 -0.00000000000E+00 -0.00000000000E+00 -0.10347011061E+02  0.10347011061E+02  0.00000000000E+00 0. -1.
          2    1    1    2  501    0  0.17360719303E+01 -0.31004407164E+02  0.17410923611E+02  0.35600947605E+02  0.00000000000E+00 0. -1.
          2    1    1    2  502    0 -0.17360719303E+01  0.31004407164E+02  0.19129750777E+03  0.19380150590E+03  0.00000000000E+00 0.  1.
</event>
<event>
 4    1  0.6136512E+003  0.2709473E+02  0.7546771E-02  0.1446659E+00
          2   -1    0    0  501    0  0.00000000000E+00  0.00000000000E+00  0.24073370933E+02  0.24073370933E+02  0.00000000000E+00 0. -1.
          2   -1    0    0  502    0 -0.00000000000E+00 -0.00000000000E+00 -0.84554650318E+03  0.84554650318E+03  0.00000000000E+00 0.  1.
          2    1    1    2  501    0 -0.25561468945E+02  0.89853002798E+01 -0.83763362452E+03  0.83807172320E+03  0.00000000000E+00 0.  1.
          2    1    1    2  502    0  0.25561468945E+02 -0.89853002798E+01  0.16160492264E+02  0.31548150912E+02  0.00000000000E+00 0. -1.
</event>
<event>
 4    1  0.6136512E+003  0.2411098E+02  0.7546771E-02  0.1479000E+00
          2   -1    0    0  502    0  0.00000000000E+00  0.00000000000E+00  0.83144157776E+02  0.83144157776E+02  0.00000000000E+00 0. -1.
          2   -1    0    0  501    0 -0.00000000000E+00 -0.00000000000E+00 -0.26957263196E+02  0.26957263196E+02  0.00000000000E+00 0.  1.
          2    1    1    2  501    0 -0.21052823280E+02 -0.11752356935E+02  0.75469967880E+02  0.79227869549E+02  0.00000000000E+00 0. -1.
          2    1    1    2  502    0  0.21052823280E+02  0.11752356935E+02 -0.19283073299E+02  0.30873551423E+02  0.00000000000E+00 0.  1.
</event>
<event>
 4    1  0.6136512E+003  0.2131584E+02  0.7546771E-02  0.1514803E+00
          2   -1    0    0  501    0  0.00000000000E+00  0.00000000000E+00  0.19664750641E+03  0.19664750641E+03  0.00000000000E+00 0. -1.
          2   -1    0    0  502    0 -0.00000000000E+00 -0.00000000000E+00 -0.50583636062E+01  0.50583636062E+01  0.00000000000E+00 0. -1.
          2    1    1    2  501    0 -0.10536595728E+02 -0.18529572264E+02  0.21462411642E+02  0.30248967112E+02  0.00000000000E+00 0. -1.
          2    1    1    2  502    0  0.10536595728E+02  0.18529572264E+02  0.17012673116E+03  0.17145690290E+03  0.00000000000E+00 0. -1.
</event>
<event>
 4    1  0.6136512E+003  0.3778214E+02  0.7546771E-02  0.1361996E+00
          2   -1    0    0  502    0  0.00000000000E+00  0.00000000000E+00  0.56213907589E+03  0.56213907589E+03  0.00000000000E+00 0. -1.
          2   -1    0    0  501    0 -0.00000000000E+00 -0.00000000000E+00 -0.17383469549E+02  0.17383469549E+02  0.00000000000E+00 0. -1.
          2    1    1    2  501    0 -0.17781732848E+02  0.33336163385E+02  0.54013969044E+03  0.54145948602E+03  0.00000000000E+00 0. -1.
          2    1    1    2  502    0  0.17781732848E+02 -0.33336163385E+02  0.46159158937E+01  0.38063059412E+02  0.00000000000E+00 0. -1.
</event>
<event>
 4    1  0.6136512E+003  0.4909312E+02  0.7546771E-02  0.1302153E+00
          2   -1    0    0  501    0  0.00000000000E+00  0.00000000000E+00  0.64090170175E+01  0.64090170175E+01  0.00000000000E+00 0.  1.
          2   -1    0    0  502    0 -0.00000000000E+00 -0.00000000000E+00 -0.38252005751E+03  0.38252005751E+03  0.00000000000E+00 0.  1.
          2    1    1    2  501    0 -0.18954033585E+01  0.49056518135E+02 -0.21333937927E+03  0.21891510974E+03  0.00000000000E+00 0.  1.
          2    1    1    2  502    0  0.18954033585E+01 -0.49056518135E+02 -0.16277166122E+03  0.17001396479E+03  0.00000000000E+00 0.  1.
</event>
<event>
 4    1  0.6136512E+003  0.2200144E+02  0.7546771E-02  0.1505433E+00
          2   -1    0    0  501    0  0.00000000000E+00  0.00000000000E+00  0.26472145949E+01  0.26472145949E+01  0.00000000000E+00 0. -1.
          2   -1    0    0  502    0 -0.00000000000E+00 -0.00000000000E+00 -0.44985161540E+03  0.44985161540E+03  0.00000000000E+00 0.  1.
          2    1    1    2  501    0 -0.18072526909E+02  0.12547794821E+02 -0.39790467897E+03  0.39851248027E+03  0.00000000000E+00 0.  1.
          2    1    1    2  502    0  0.18072526909E+02 -0.12547794821E+02 -0.49299721839E+02  0.53986349730E+02  0.00000000000E+00 0. -1.
</event>
<event>
 4    1  0.6136512E+003  0.2227897E+02  0.7546771E-02  0.1501756E+00
          2   -1    0    0  502    0  0.00000000000E+00  0.00000000000E+00  0.85308175845E+01  0.85308175845E+01  0.00000000000E+00 0. -1.
          2   -1    0    0  501    0 -0.00000000000E+00 -0.00000000000E+00 -0.52906996872E+03  0.52906996872E+03  0.00000000000E+00 0.  1.
          2    1    1    2  501    0  0.17254169456E+01 -0.22212055718E+02 -0.66799583295E+01  0.23258854790E+02  0.00000000000E+00 0. -1.
          2    1    1    2  502    0 -0.17254169456E+01  0.22212055718E+02 -0.51385919281E+03  0.51434193152E+03  0.00000000000E+00 0.  1.
</event>
<event>
 4    1  0.6136512E+003  0.2172914E+02  0.7546771E-02  0.1509104E+00
          2   -1    0    0  502    0  0.00000000000E+00  0.00000000000E+00  0.24474888540E+03  0.24474888540E+03  0.00000000000E+00 0.  1.
          2   -1    0    0  501    0 -0.00000000000E+00 -0.00000000000E+00 -0.28420849974E+01  0.28420849974E+01  0.00000000000E+00 0. -1.
          2    1    1    2  501    0 -0.18124106289E+02 -0.11986334866E+02  0.19111637771E+03  0.19234766773E+03  0.00000000000E+00 0.  1.
          2    1    1    2  502    0  0.18124106289E+02  0.11986334866E+02  0.50790422691E+02  0.55243302666E+02  0.00000000000E+00 0. -1.
</event>
<event>
 4    1  0.6136512E+003  0.3638960E+02  0.7546771E-02  0.1371048E+00
          2   -1    0    0  501    0  0.00000000000E+00  0.00000000000E+00  0.23295023236E+01  0.23295023236E+01  0.00000000000E+00 0.  1.
          2   -1    0    0  502    0 -0.00000000000E+00 -0.00000000000E+00 -0.20249249942E+04  0.20249249942E+04  0.00000000000E+00 0.  1.
          2    1    1    2  501    0  0.25636105532E+02 -0.25826212157E+02 -0.18709552918E+04  0.18713091426E+04  0.00000000000E+00 0.  1.
          2    1    1    2  502    0 -0.25636105532E+02  0.25826212157E+02 -0.15164020006E+03  0.15594535394E+03  0.00000000000E+00 0.  1.
</event>
<event>
 4    1  0.6136512E+003  0.2321763E+02  0.7546771E-02  0.1489783E+00
          2   -1    0    0  502    0  0.00000000000E+00  0.00000000000E+00  0.27518613666E+01  0.27518613666E+01  0.00000000000E+00 0. -1.
          2   -1    0    0  501    0 -0.00000000000E+00 -0.00000000000E+00 -0.20368715961E+03  0.20368715961E+03  0.00000000000E+00 0. -1.
          2    1    1    2  501    0  0.17176278858E+02 -0.15621586877E+02 -0.12066454012E+03  0.12287794666E+03  0.00000000000E+00 0. -1.
          2    1    1    2  502    0 -0.17176278858E+02  0.15621586877E+02 -0.80270758124E+02  0.83561074321E+02  0.00000000000E+00 0. -1.
</event>
<event>
 4    1  0.6136512E+003  0.2424657E+02  0.7546771E-02  0.1477411E+00
          2   -1    0    0  502    0  0.00000000000E+00  0.00000000000E+00  0.16889044749E+01  0.16889044749E+01  0.00000000000E+00 0. -1.
          2   -1    0    0  501    0 -0.00000000000E+00 -0.00000000000E+00 -0.39661732807E+03  0.39661732807E+03  0.00000000000E+00 0.  1.
          2    1    1    2  501    0 -0.24049518105E+02 -0.30849184483E+01 -0.12780469575E+03  0.13008434302E+03  0.00000000000E+00 0. -1.
          2    1    1    2  502    0  0.24049518105E+02  0.30849184483E+01 -0.26712372784E+03  0.26822188952E+03  0.00000000000E+00 0.  1.
</event>
<event>
 4    1  0.6136512E+003  0.2651912E+02  0.7546771E-02  0.1452499E+00
          2   -1    0    0  501    0  0.00000000000E+00  0.00000000000E+00  0.73709750754E+03  0.73709750754E+03  0.00000000000E+00 0.  1.
          2   -1    0    0  502    0 -0.00000000000E+00 -0.00000000000E+00 -0.37945369258E+02  0.37945369258E+02  0.00000000000E+00 0. -1.
          2    1    1    2  501    0  0.74778562576E+01  0.25442982749E+02 -0.33042432418E+02  0.42368219758E+02  0.00000000000E+00 0. -1.
          2    1    1    2  502    0 -0.74778562576E+01 -0.25442982749E+02  0.73219457070E+03  0.73267465704E+03  0.00000000000E+00 0.  1.
</event>
<event>
 4    1  0.6136512E+003  0.2800561E+02  0.7546771E-02  0.1437760E+00
          2   -1    0    0  501    0  0.00000000000E+00  0.00000000000E+00  0.60862527510E+01  0.60862527510E+01  0.00000000000E+00 0. -1.
          2   -1    0    0  502    0 -0.00000000000E+00 -0.00000000000E+00 -0.24953823197E+03  0.24953823197E+03  0.00000000000E+00 0. -1.
          2    1    1    2  501    0  0.40849749699E+01 -0.27706084184E+02 -0.21060652689E+03  0.21246040405E+03  0.00000000000E+00 0. -1.
          2    1    1    2  502    0 -0.40849749699E+01  0.27706084184E+02 -0.32845452331E+02  0.43164080671E+02  0.00000000000E+00 0. -1.
</event>
<event>
 4    1  0.6136512E+003  0.2004598E+02  0.7546771E-02  0.1533334E+00
          2   -1    0    0  501    0  0.00000000000E+00  0.00000000000E+00  0.50432425847E+03  0.50432425847E+03  0.00000000000E+00 0.  1.
          2   -1    0    0  502    0 -0.00000000000E+00 -0.00000000000E+00 -0.42939645845E+01  0.42939645845E+01  0.00000000000E+00 0.  1.
          2    1    1    2  501    0 -0.83975963776E+00  0.20028379021E+02  0.20510612839E+02  0.28679721084E+02  0.00000000000E+00 0.  1.
          2    1    1    2  502    0  0.83975963776E+00 -0.20028379021E+02  0.47951968105E+03  0.47993850197E+03  0.00000000000E+00 0.  1.
</event>
<event>
 4    1  0.6136512E+003  0.3350237E+02  0.7546771E-02  0.1391409E+00
          2   -1    0    0  501    0  0.00000000000E+00  0.00000000000E+00  0.51614197921E+01  0.51614197921E+01  0.00000000000E+00 0.  1.
          2   -1    0    0  502    0 -0.00000000000E+00 -0.00000000000E+00 -0.71015543128E+03  0.71015543128E+03  0.00000000000E+00 0.  1.
          2    1    1    2  501    0 -0.27998516104E+02  0.18398154049E+02 -0.65040383250E+03  0.65126611635E+03  0.00000000000E+00 0.  1.
          2    1    1    2  502    0  0.27998516104E+02 -0.18398154049E+02 -0.54590178993E+02  0.64050734726E+02  0.00000000000E+00 0.  1.
</event>
<event>
 4    1  0.6136512E+003  0.2366347E+02  0.7546771E-02  0.1484331E+00
          2   -1    0    0  501    0  0.00000000000E+00  0.00000000000E+00  0.13155073332E+03  0.13155073332E+03  0.00000000000E+00 0. -1.
          2   -1    0    0  502    0 -0.00000000000E+00 -0.00000000000E+00 -0.62235692831E+03  0.62235692831E+03  0.00000000000E+00 0.  1.
          2    1    1    2  501    0  0.12255886771E+02  0.20242359772E+02 -0.62106562940E+03  0.62151627164E+03  0.00000000000E+00 0.  1.
          2    1    1    2  502    0 -0.12255886771E+02 -0.20242359772E+02  0.13025943441E+03  0.13239138999E+03  0.00000000000E+00 0. -1.
</event>
<event>
 4    1  0.6136512E+003  0.2412330E+02  0.7546771E-02  0.1478855E+00
          2   -1    0    0  501    0  0.00000000000E+00  0.00000000000E+00  0.75211592814E+02  0.75211592814E+02  0.00000000000E+00 0.  1.
          2   -1    0    0  502    0 -0.00000000000E+00 -0.00000000000E+00 -0.36523456763E+03  0.36523456763E+03  0.00000000000E+00 0.  1.
          2    1    1    2  501    0  0.23996779559E+02  0.24673952919E+01 -0.36288943142E+03  0.36369035306E+03  0.00000000000E+00 0.  1.
          2    1    1    2  502    0 -0.23996779559E+02 -0.24673952919E+01  0.72866456608E+02  0.76755807385E+02  0.00000000000E+00 0.  1.
</event>
<event>
 4    1  0.6136512E+003  0.2004023E+02  0.7546771E-02  0.1533422E+00
          2   -1    0    0  502    0  0.00000000000E+00  0.00000000000E+00  0.73670362826E+03  0.73670362826E+03  0.00000000000E+00 0. -1.
          2   -1    0    0  501    0 -0.00000000000E+00 -0.00000000000E+00 -0.33827131700E+01  0.33827131700E+01  0.00000000000E+00 0. -1.
          2    1    1    2  501    0 -0.11021731649E+02 -0.16737154015E+02  0.70557710105E+03  0.70586164113E+03  0.00000000000E+00 0. -1.
          2    1    1    2  502    0  0.11021731649E+02  0.16737154015E+02  0.27743814036E+02  0.34224700296E+02  0.00000000000E+00 0. -1.
</event>
<event>
 4    1  0.6136512E+003  0.1053099E+03  0.7546771E-02  0.1154912E+00
          2   -1    0    0  501    0  0.00000000000E+00  0.00000000000E+00  0.20790212952E+03  0.20790212952E+03  0.00000000000E+00 0.  1.
          2   -1    0    0  502    0 -0.00000000000E+00 -0.00000000000E+00 -0.35274957195E+03  0.35274957195E+03  0.00000000000E+00 0.  1.
          2    1    1    2  501    0 -0.80678100616E+02  0.67684709427E+02 -0.33068564535E+03  0.34704923548E+03  0.00000000000E+00 0.  1.
          2    1    1    2  502    0  0.80678100616E+02 -0.67684709427E+02  0.18583820292E+03  0.21360246599E+03  0.00000000000E+00 0.  1.
</event>
<event>
 4    1  0.6136512E+003  0.3444604E+02  0.7546771E-02  0.1384500E+00
          2   -1    0    0  501    0  0.00000000000E+00  0.00000000000E+00  0.15236394801E+03  0.15236394801E+03  0.00000000000E+00 0.  1.
          2   -1    0    0  502    0 -0.00000000000E+00 -0.00000000000E+00 -0.14803273881E+04  0.14803273881E+04  0.00000000000E+00 0.  1.
          2    1    1    2  501    0 -0.33101143167E+02  0.95312162548E+01 -0.14781773060E+04  0.14785786005E+04  0.00000000000E+00 0.  1.
          2    1    1    2  502    0  0.33101143167E+02 -0.95312162548E+01  0.15021386593E+03  0.15411273562E+03  0.00000000000E+00 0.  1.
</event>
<event>
 4    1  0.6136512E+003  0.4826432E+02  0.7546771E-02  0.1305878E+00
          2   -1    0    0  502    0  0.00000000000E+00  0.00000000000E+00  0.30369270168E+04  0.30369270168E+04  0.00000000000E+00 0.  1.
          2   -1    0    0  501    0 -0.00000000000E+00 -0.00000000000E+00 -0.29449777180E+03  0.29449777180E+03  0.00000000000E+00 0. -1.
          2    1    1    2  501    0  0.45861473471E+02  0.15038938191E+02  0.30347563705E+04  0.30351401405E+04  0.00000000000E+00 0.  1.
          2    1    1    2  502    0 -0.45861473471E+02 -0.15038938191E+02 -0.29232712547E+03  0.29628464810E+03  0.00000000000E+00 0. -1.
</event>
<event>
 4    1  0.6136512E+003  0.2312262E+02  0.7546771E-02  0.1490964E+00
          2   -1    0    0  502    0  0.00000000000E+00  0.00000000000E+00  0.10646559497E+04  0.10646559497E+04  0.00000000000E+00 0.  1.
          2   -1    0    0  501    0 -0.00000000000E+00 -0.00000000000E+00 -0.27818473045E+03  0.27818473045E+03  0.00000000000E+00 0. -1.
          2    1    1    2  501    0  0.67918922877E+01 -0.22102618216E+02  0.10640496433E+04  0.10643008498E+04  0.00000000000E+00 0.  1.
          2    1    1    2  502    0 -0.67918922877E+01  0.22102618216E+02 -0.27757842409E+03  0.27853983028E+03  0.00000000000E+00 0. -1.
</event>
<event>
 4    1  0.6136512E+003  0.2867786E+02  0.7546771E-02  0.1431445E+00
          2   -1    0    0  501    0  0.00000000000E+00  0.00000000000E+00  0.40225241573E+01  0.40225241573E+01  0.00000000000E+00 0.  1.
          2   -1    0    0  502    0 -0.00000000000E+00 -0.00000000000E+00 -0.12513713733E+04  0.12513713733E+04  0.00000000000E+00 0. -1.
          2    1    1    2  501    0  0.91990234656E+01  0.27162432273E+02 -0.11978083170E+04  0.11981515697E+04  0.00000000000E+00 0. -1.
          2    1    1    2  502    0 -0.91990234656E+01 -0.27162432273E+02 -0.49540532172E+02  0.57242327761E+02  0.00000000000E+00 0.  1.
</event>
<event>
 4    1  0.6136512E+003  0.3314715E+02  0.7546771E-02  0.1394079E+00
          2   -1    0    0  501    0  0.00000000000E+00  0.00000000000E+00  0.52149202687E+01  0.52149202687E+01  0.00000000000E+00 0. -1.
          2   -1    0    0  502    0 -0.00000000000E+00 -0.00000000000E+00 -0.94636139551E+03  0.94636139551E+03  0.00000000000E+00 0.  1.
          2    1    1    2  501    0  0.13835782005E+02 -0.30121495796E+02 -0.89006839568E+03  0.89068540033E+03  0.00000000000E+00 0.  1.
          2    1    1    2  502    0 -0.13835782005E+02  0.30121495796E+02 -0.51078079569E+02  0.60890915456E+02  0.00000000000E+00 0. -1.
</event>
<event>
 4    1  0.6136512E+003  0.2657297E+02  0.7546771E-02  0.1451945E+00
          2   -1    0    0  502    0  0.00000000000E+00  0.00000000000E+00  0.92275919408E+00  0.92275919408E+00  0.00000000000E+00 0. -1.
          2   -1    0    0  501    0 -0.00000000000E+00 -0.00000000000E+00 -0.16272219344E+04  0.16272219344E+04  0.00000000000E+00 0. -1.
          2    1    1    2  501    0  0.11988889149E+02 -0.23714749362E+02 -0.22064561284E+03  0.22223998125E+03  0.00000000000E+00 0. -1.
          2    1    1    2  502    0 -0.11988889149E+02  0.23714749362E+02 -0.14056535624E+04  0.14059047124E+04  0.00000000000E+00 0. -1.
</event>
<event>
 4    1  0.6136512E+003  0.2675121E+02  0.7546771E-02  0.1450123E+00
          2   -1    0    0  501    0  0.00000000000E+00  0.00000000000E+00  0.11753716329E+04  0.11753716329E+04  0.00000000000E+00 0. -1.
          2   -1    0    0  502    0 -0.00000000000E+00 -0.00000000000E+00 -0.64659102222E+00  0.64659102222E+00  0.00000000000E+00 0. -1.
          2    1    1    2  501    0  0.23130303372E+02  0.13439359996E+02  0.44530483694E+03  0.44610763850E+03  0.00000000000E+00 0. -1.
          2    1    1    2  502    0 -0.23130303372E+02 -0.13439359996E+02  0.72942020492E+03  0.72991058540E+03  0.00000000000E+00 0. -1.
</event>
<event>
 4    1  0.6136512E+003  0.2025216E+02  0.7546771E-02  0.1530215E+00
          2   -1    0    0  501    0  0.00000000000E+00  0.00000000000E+00  0.57571823703E+03  0.57571823703E+03  0.00000000000E+00 0.  1.
          2   -1    0    0  502    0 -0.00000000000E+00 -0.00000000000E+00 -0.29125363738E+01  0.29125363738E+01  0.00000000000E+00 0. -1.
          2    1    1    2  501    0 -0.19281156586E+02  0.61957128800E+01  0.34948444315E+02  0.40392370783E+02  0.00000000000E+00 0. -1.
          2    1    1    2  502    0  0.19281156586E+02 -0.61957128800E+01  0.53785725634E+03  0.53823840262E+03  0.00000000000E+00 0.  1.
</event>
<event>
 4    1  0.6136512E+003  0.4729448E+02  0.7546771E-02  0.1310349E+00
          2   -1    0    0  502    0  0.00000000000E+00  0.00000000000E+00  0.13704462275E+02  0.13704462275E+02  0.00000000000E+00 0.  1.
          2   -1    0    0  501    0 -0.00000000000E+00 -0.00000000000E+00 -0.26281801035E+03  0.26281801035E+03  0.00000000000E+00 0. -1.
          2    1    1    2  501    0 -0.45174516703E+02 -0.14001118417E+02 -0.39441012931E+02  0.61582154698E+02  0.00000000000E+00 0.  1.
          2    1    1    2  502    0  0.45174516703E+02  0.14001118417E+02 -0.20967253514E+03  0.21494031792E+03  0.00000000000E+00 0. -1.
</event>
<event>
 4    1  0.6136512E+003  0.3931114E+02  0.7546771E-02  0.1352570E+00
          2   -1    0    0  502    0  0.00000000000E+00  0.00000000000E+00  0.29139137219E+01  0.29139137219E+01  0.00000000000E+00 0. -1.
          2   -1    0    0  501    0 -0.00000000000E+00 -0.00000000000E+00 -0.95507307785E+03  0.95507307785E+03  0.00000000000E+00 0.  1.
          2    1    1    2  501    0 -0.37734052463E+02 -0.11023007798E+02 -0.15665430174E+03  0.16151141034E+03  0.00000000000E+00 0. -1.
          2    1    1    2  502    0  0.37734052463E+02  0.11023007798E+02 -0.79550486238E+03  0.79647558123E+03  0.00000000000E+00 0.  1.
</event>
<event>
 4    1  0.6136512E+003  0.2526072E+02  0.7546771E-02  0.1465908E+00
          2   -1    0    0  501    0  0.00000000000E+00  0.00000000000E+00  0.77314158929E+03  0.77314158929E+03  0.00000000000E+00 0.  1.
          2   -1    0    0  502    0 -0.00000000000E+00 -0.00000000000E+00 -0.12100082761E+01  0.12100082761E+01  0.00000000000E+00 0. -1.
          2    1    1    2  501    0 -0.69665017568E+00 -0.25251115900E+02  0.16766385515E+03  0.16955610428E+03  0.00000000000E+00 0. -1.
          2    1    1    2  502    0  0.69665017568E+00  0.25251115900E+02  0.60426772587E+03  0.60479549329E+03  0.00000000000E+00 0.  1.
</event>
<event>
 4    1  0.6136512E+003  0.2522690E+02  0.7546771E-02  0.1466281E+00
          2   -1    0    0  501    0  0.00000000000E+00  0.00000000000E+00  0.11136119404E+04  0.11136119404E+04  0.00000000000E+00 0. -1.
          2   -1    0    0  502    0 -0.00000000000E+00 -0.00000000000E+00 -0.76005207746E+02  0.76005207746E+02  0.00000000000E+00 0. -1.
          2    1    1    2  501    0 -0.99912271472E+01 -0.23164017568E+02 -0.73764855433E+02  0.77959285700E+02  0.00000000000E+00 0. -1.
          2    1    1    2  502    0  0.99912271472E+01  0.23164017568E+02  0.11113715881E+04  0.11116578624E+04  0.00000000000E+00 0. -1.
</event>
<event>
 4    1  0.6136512E+003  0.2063760E+02  0.7546771E-02  0.1524502E+00
          2   -1    0    0  502    0  0.00000000000E+00  0.00000000000E+00  0.27642138883E+01  0.27642138883E+01  0.00000000000E+00 0. -1.
          2   -1    0    0  501    0 -0.00000000000E+00 -0.00000000000E+00 -0.27190831307E+03  0.27190831307E+03  0.00000000000E+00 0. -1.
          2    1    1    2  501    0 -0.20265630115E+02 -0.39006033442E+01 -0.44165779561E+02  0.48749631328E+02  0.00000000000E+00 0. -1.
          2    1    1    2  502    0  0.20265630115E+02  0.39006033442E+01 -0.22497831962E+03  0.22592289563E+03  0.00000000000E+00 0. -1.
</event>
<event>
 4    1  0.6136512E+003  0.2238017E+02  0.7546771E-02  0.1500432E+00
          2   -1    0    0  502    0  0.00000000000E+00  0.00000000000E+00  0.10478029371E+03  0.10478029371E+03  0.00000000000E+00 0.  1.
          2   -1    0    0  501    0 -0.00000000000E+00 -0.00000000000E+00 -0.29287814957E+03  0.29287814957E+03  0.00000000000E+00 0.  1.
          2    1    1    2  501    0  0.16803063681E+02 -0.14782735559E+02  0.10315102166E+03  0.10555096157E+03  0.00000000000E+00 0.  1.
          2    1    1    2  502    0 -0.16803063681E+02  0.14782735559E+02 -0.29124887751E+03  0.29210748171E+03  0.00000000000E+00 0.  1.
</event>
<event>
 4    1  0.6136512E+003  0.2104596E+02  0.7546771E-02  0.1518610E+00
          2   -1    0    0  502    0  0.00000000000E+00  0.00000000000E+00  0.14471764732E+04  0.14471764732E+04  0.00000000000E+00 0. -1.
          2   -1    0    0  501    0 -0.00000000000E+00 -0.00000000000E+00 -0.89998539943E+00  0.89998539943E+00  0.00000000000E+00 0. -1.
          2    1    1    2  501    0  0.15530067678E+02 -0.14203847457E+02  0.13113142805E+04  0.13114831583E+04  0.00000000000E+00 0. -1.
          2    1    1    2  502    0 -0.15530067678E+02  0.14203847457E+02  0.13496220725E+03  0.13659330024E+03  0.00000000000E+00 0. -1.
</event>
<event>
 4    1  0.6136512E+003  0.2249982E+02  0.7546771E-02  0.1498876E+00
          2   -1    0    0  501    0  0.00000000000E+00  0.00000000000E+00  0.90085867358E+03  0.90085867358E+03  0.00000000000E+00 0. -1.
          2   -1    0    0  502    0 -0.00000000000E+00 -0.00000000000E+00 -0.64303032718E+01  0.64303032718E+01  0.00000000000E+00 0.  1.
          2    1    1    2  501    0  0.16158882870E+02  0.15656704064E+02  0.13845169705E+02  0.26418376217E+02  0.00000000000E+00 0.  1.
          2    1    1    2  502    0 -0.16158882870E+02 -0.15656704064E+02  0.88058320060E+03  0.88087060063E+03  0.00000000000E+00 0. -1.
</event>
<event>
 4    1  0.6136512E+003  0.2145859E+02  0.7546771E-02  0.1512817E+00
          2   -1    0    0  502    0  0.00000000000E+00  0.00000000000E+00  0.48954623128E+00  0.48954623128E+00  0.00000000000E+00 0.  1.
          2   -1    0    0  501    0 -0.00000000000E+00 -0.00000000000E+00 -0.10971433400E+04  0.10971433400E+04  0.00000000000E+00 0.  1.
          2    1    1    2  501    0 -0.10655137501E+02  0.18626304146E+02 -0.75562792705E+03  0.75593256002E+03  0.00000000000E+00 0.  1.
          2    1    1    2  502    0  0.10655137501E+02 -0.18626304146E+02 -0.34102586673E+03  0.34170032622E+03  0.00000000000E+00 0.  1.
</event>
<event>
 4    1  0.6136512E+003  0.2391757E+02  0.7546771E-02  0.1481287E+00
          2   -1    0    0  502    0  0.00000000000E+00  0.00000000000E+00  0.70104243437E+03  0.70104243437E+03  0.00000000000E+00 0.  1.
          2   -1    0    0  501    0 -0.00000000000E+00 -0.00000000000E+00 -0.71506101182E+02  0.71506101182E+02  0.00000000000E+00 0.  1.
          2    1    1    2  501    0  0.23887531494E+02 -0.11983138220E+01  0.69883210604E+03  0.69924127635E+03  0.00000000000E+00 0.  1.
          2    1    1    2  502    0 -0.23887531494E+02  0.11983138220E+01 -0.69295772852E+02  0.73307259204E+02  0.00000000000E+00 0.  1.
</event>
<event>
 4    1  0.6136512E+003  0.3072263E+02  0.7546771E-02  0.1413419E+00
          2   -1    0    0  501    0  0.00000000000E+00  0.00000000000E+00  0.18000005925E+03  0.18000005925E+03  0.00000000000E+00 0. -1.
          2   -1    0    0  502    0 -0.00000000000E+00 -0.00000000000E+00 -0.39563702139E+02  0.39563702139E+02  0.00000000000E+00 0. -1.
          2    1    1    2  501    0  0.70058477084E+01 -0.29913172582E+02 -0.32029953753E+02  0.44382403422E+02  0.00000000000E+00 0. -1.
          2    1    1    2  502    0 -0.70058477084E+01  0.29913172582E+02  0.17246631086E+03  0.17518135797E+03  0.00000000000E+00 0. -1.
</event>
<event>
 4    1  0.6136512E+003  0.2118328E+02  0.7546771E-02  0.1516664E+00
          2   -1    0    0  501    0  0.00000000000E+00  0.00000000000E+00  0.27224019835E+03  0.27224019835E+03  0.00000000000E+00 0.  1.
          2   -1    0    0  502    0 -0.00000000000E+00 -0.00000000000E+00 -0.40006103571E+02  0.40006103571E+02  0.00000000000E+00 0. -1.
          2    1    1    2  501    0  0.60949088856E+01  0.20287519795E+02 -0.36756058946E+02  0.42423333709E+02  0.00000000000E+00 0. -1.
          2    1    1    2  502    0 -0.60949088856E+01 -0.20287519795E+02  0.26899015373E+03  0.26982296821E+03  0.00000000000E+00 0.  1.
</event>
<event>
 4    1  0.6136512E+003  0.2128220E+02  0.7546771E-02  0.1515274E+00
          2   -1    0    0  501    0  0.00000000000E+00  0.00000000000E+00  0.44893431577E+02  0.44893431577E+02  0.00000000000E+00 0.  1.
          2   -1    0    0  502    0 -0.00000000000E+00 -0.00000000000E+00 -0.69394278886E+02  0.69394278886E+02  0.00000000000E+00 0.  1.
          2    1    1    2  501    0 -0.19544176047E+02  0.84236033952E+01 -0.65077212214E+02  0.68468791877E+02  0.00000000000E+00 0.  1.
          2    1    1    2  502    0  0.19544176047E+02 -0.84236033952E+01  0.40576364905E+02  0.45818918587E+02  0.00000000000E+00 0.  1.
</event>
<event>
 4    1  0.6136512E+003  0.2896016E+02  0.7546771E-02  0.1428853E+00
          2   -1    0    0  501    0  0.00000000000E+00  0.00000000000E+00  0.62918016256E+03  0.62918016256E+03  0.00000000000E+00 0. -1.
          2   -1    0    0  502    0 -0.00000000000E+00 -0.00000000000E+00 -0.20129979681E+02  0.20129979681E+02  0.00000000000E+00 0. -1.
          2    1    1    2  501    0 -0.20852038047E+01  0.28884989015E+02 -0.91966939140E+01  0.30385355754E+02  0.00000000000E+00 0. -1.
          2    1    1    2  502    0  0.20852038047E+01 -0.28884989015E+02  0.61824687679E+03  0.61892478649E+03  0.00000000000E+00 0. -1.
</event>
<event>
 4    1  0.6136512E+003  0.2886237E+02  0.7546771E-02  0.1429747E+00
          2   -1    0    0  501    0  0.00000000000E+00  0.00000000000E+00  0.37063981298E+03  0.37063981298E+03  0.00000000000E+00 0. -1.
          2   -1    0    0  502    0 -0.00000000000E+00 -0.00000000000E+00 -0.74468387837E+01  0.74468387837E+01  0.00000000000E+00 0.  1.
          2    1    1    2  501    0  0.26065427394E+02 -0.12394750393E+02  0.23636605671E+02  0.37305836945E+02  0.00000000000E+00 0.  1.
          2    1    1    2  502    0 -0.26065427394E+02  0.12394750393E+02  0.33955636853E+03  0.34078081482E+03  0.00000000000E+00 0. -1.
</event>
<event>
 4    1  0.6136512E+003  0.2463981E+02  0.7546771E-02  0.1472873E+00
          2   -1    0    0  501    0  0.00000000000E+00  0.00000000000E+00  0.48063613641E+02  0.48063613641E+02  0.00000000000E+00 0.  1.
          2   -1    0    0  502    0 -0.00000000000E+00 -0.00000000000E+00 -0.36390497059E+03  0.36390497059E+03  0.00000000000E+00 0.  1.
          2    1    1    2  501    0  0.22762757500E+02  0.94327605198E+01 -0.36029841142E+03  0.36113995261E+03  0.00000000000E+00 0.  1.
          2    1    1    2  502    0 -0.22762757500E+02 -0.94327605198E+01  0.44457054472E+02  0.50828631620E+02  0.00000000000E+00 0.  1.
</event>
<event>
 4    1  0.6136512E+003  0.3974020E+02  0.7546771E-02  0.1350015E+00
          2   -1    0    0  501    0  0.00000000000E+00  0.00000000000E+00  0.23222297591E+02  0.23222297591E+02  0.00000000000E+00 0. -1.
          2   -1    0    0  502    0 -0.00000000000E+00 -0.00000000000E+00 -0.30441294269E+03  0.30441294269E+03  0.00000000000E+00 0.  1.
          2    1    1    2  501    0  0.12515801702E+02  0.37717876897E+02 -0.28495904208E+03  0.28771676905E+03  0.00000000000E+00 0.  1.
          2    1    1    2  502    0 -0.12515801702E+02 -0.37717876897E+02  0.37683969768E+01  0.39918471234E+02  0.00000000000E+00 0. -1.
</event>
<event>
 4    1  0.6136512E+003  0.2655121E+02  0.7546771E-02  0.1452169E+00
          2   -1    0    0  502    0  0.00000000000E+00  0.00000000000E+00  0.99620230541E+03  0.99620230541E+03  0.00000000000E+00 0.  1.
          2   -1    0    0  501    0 -0.00000000000E+00 -0.00000000000E+00 -0.20316739748E+02  0.20316739748E+02  0.00000000000E+00 0.  1.
          2    1    1    2  501    0 -0.26497025930E+02  0.16954557150E+01  0.98727223588E+03  0.98762919899E+03  0.00000000000E+00 0.  1.
          2    1    1    2  502    0  0.26497025930E+02 -0.16954557150E+01 -0.11386670217E+02  0.28889846172E+02  0.00000000000E+00 0.  1.
</event>
<event>
 4    1  0.8438928E+003  0.2667583E+02  0.7546771E-02  0.1450892E+00
          2   -1    0    0  501    0  0.00000000000E+00  0.00000000000E+00  0.56812112933E+03  0.56812112933E+03  0.00000000000E+00 0.  1.
          2   -1    0    0  502    0 -0.00000000000E+00 -0.00000000000E+00 -0.53552364582E+03  0.53552364582E+03  0.00000000000E+00 0.  1.
          2    1    1    2  501    0  0.18113405011E+02 -0.19583266258E+02 -0.53487793259E+03  0.53554271774E+03  0.00000000000E+00 0.  1.
          2    1    1    2  502    0 -0.18113405011E+02  0.19583266258E+02  0.56747541610E+03  0.56810205741E+03  0.00000000000E+00 0.  1.
</event>
<event>
 4    1  0.6136512E+003  0.2622786E+02  0.7546771E-02  0.1455522E+00
          2   -1    0    0  501    0  0.00000000000E+00  0.00000000000E+00  0.15934067504E+04  0.15934067504E+04  0.00000000000E+00 0. -1.
          2   -1    0    0  502    0 -0.00000000000E+00 -0.00000000000E+00 -0.41372786007E+01  0.41372786007E+01  0.00000000000E+00 0. -1.
          2    1    1    2  501    0 -0.16988784993E+02  0.19982031943E+02  0.38685749001E+02  0.46738502242E+02  0.00000000000E+00 0. -1.
          2    1    1    2  502    0  0.16988784993E+02 -0.19982031943E+02  0.15505837228E+04  0.15508055267E+04  0.00000000000E+00 0. -1.
</event>
<event>
 4    1  0.6136512E+003  0.2020763E+02  0.7546771E-02  0.1530885E+00
          2   -1    0    0  501    0  0.00000000000E+00  0.00000000000E+00  0.11742737137E+04  0.11742737137E+04  0.00000000000E+00 0. -1.
          2   -1    0    0  502    0 -0.00000000000E+00 -0.00000000000E+00 -0.41086994592E+00  0.41086994592E+00  0.00000000000E+00 0.  1.
          2    1    1    2  501    0 -0.19158436058E+02 -0.64266982232E+01  0.35671373369E+03  0.35728565032E+03  0.00000000000E+00 0.  1.
          2    1    1    2  502    0  0.19158436058E+02  0.64266982232E+01  0.81714911004E+03  0.81739893330E+03  0.00000000000E+00 0. -1.
</event>
<event>
 4    1  0.6136512E+003  0.2543576E+02  0.7546771E-02  0.1463987E+00
          2   -1    0    0  501    0  0.00000000000E+00  0.00000000000E+00  0.70223358860E+01  0.70223358860E+01  0.00000000000E+00 0. -1.
          2   -1    0    0  502    0 -0.00000000000E+00 -0.00000000000E+00 -0.12095117688E+04  0.12095117688E+04  0.00000000000E+00 0.  1.
          2    1    1    2  501    0 -0.97283210971E+00  0.25417151348E+02 -0.11858863680E+04  0.11861591191E+04  0.00000000000E+00 0.  1.
          2    1    1    2  502    0  0.97283210971E+00 -0.25417151348E+02 -0.16603064890E+02  0.30374985575E+02  0.00000000000E+00 0. -1.
</event>
<event>
 4    1  0.6136512E+003  0.3913496E+02  0.7546771E-02  0.1353631E+00
          2   -1    0    0  501    0  0.00000000000E+00  0.00000000000E+00  0.10222122674E+02  0.10222122674E+02  0.00000000000E+00 0.  1.
          2   -1    0    0  502    0 -0.00000000000E+00 -0.00000000000E+00 -0.68181897005E+03  0.68181897005E+03  0.00000000000E+00 0. -1.
          2    1    1    2  501    0 -0.34509823659E+02  0.18455808770E+02 -0.64144539189E+03  0.64263810623E+03  0.00000000000E+00 0. -1.
          2    1    1    2  502    0  0.34509823659E+02 -0.18455808770E+02 -0.30151455489E+02  0.49402986493E+02  0.00000000000E+00 0.  1.
</event>
<event>
 4    1  0.6136512E+003  0.8331358E+02  0.7546771E-02  0.1196357E+00
          2   -1    0    0  502    0  0.00000000000E+00  0.00000000000E+00  0.40099359362E+03  0.40099359362E+03  0.00000000000E+00 0. -1.
          2   -1    0    0  501    0 -0.00000000000E+00 -0.00000000000E+00 -0.19215433273E+02  0.19215433273E+02  0.00000000000E+00 0.  1.
          2    1    1    2  501    0  0.32245485532E+02  0.76820446021E+02  0.25705288555E+03  0.27021720566E+03  0.00000000000E+00 0. -1.
          2    1    1    2  502    0 -0.32245485532E+02 -0.76820446021E+02  0.12472527479E+03  0.14999182123E+03  0.00000000000E+00 0.  1.
</event>
<event>
 4    1  0.6136512E+003  0.2232763E+02  0.7546771E-02  0.1501118E+00
          2   -1    0    0  501    0  0.00000000000E+00  0.00000000000E+00  0.34100518643E+03  0.34100518643E+03  0.00000000000E+00 0. -1.
          2   -1    0    0  502    0 -0.00000000000E+00 -0.00000000000E+00 -0.33306367181E+02  0.33306367181E+02  0.00000000000E+00 0. -1.
          2    1    1    2  501    0 -0.13784940111E+02  0.17564121326E+02 -0.29152848355E+02  0.36720723019E+02  0.00000000000E+00 0. -1.
          2    1    1    2  502    0  0.13784940111E+02 -0.17564121326E+02  0.33685166761E+03  0.33759083059E+03  0.00000000000E+00 0. -1.
</event>
<event>
 4    1  0.6136512E+003  0.7623534E+02  0.7546771E-02  0.1212868E+00
          2   -1    0    0  502    0  0.00000000000E+00  0.00000000000E+00  0.23384678487E+03  0.23384678487E+03  0.00000000000E+00 0. -1.
          2   -1    0    0  501    0 -0.00000000000E+00 -0.00000000000E+00 -0.43006767706E+02  0.43006767706E+02  0.00000000000E+00 0.  1.
          2    1    1    2  501    0  0.75467922252E+02 -0.10789820876E+02  0.18535597029E+03  0.20042121456E+03  0.00000000000E+00 0. -1.
          2    1    1    2  502    0 -0.75467922252E+02  0.10789820876E+02  0.54840468687E+01  0.76432338010E+02  0.00000000000E+00 0.  1.
</event>
<event>
 4    1  0.6136512E+003  0.2236461E+02  0.7546771E-02  0.1500635E+00
          2   -1    0    0  502    0  0.00000000000E+00  0.00000000000E+00  0.14737808643E+03  0.14737808643E+03  0.00000000000E+00 0.  1.
          2   -1    0    0  501    0 -0.00000000000E+00 -0.00000000000E+00 -0.34085563377E+01  0.34085563377E+01  0.00000000000E+00 0.  1.
          2    1    1    2  501    0  0.17891742209E+02  0.13418699952E+02  0.76940606059E+02  0.80125107229E+02  0.00000000000E+00 0.  1.
          2    1    1    2  502    0 -0.17891742209E+02 -0.13418699952E+02  0.67028924031E+02  0.70661535537E+02  0.00000000000E+00 0.  1.
</event>
<event>
 4    1  0.6136512E+003  0.2005823E+02  0.7546771E-02  0.1533147E+00
          2   -1    0    0  501    0  0.00000000000E+00  0.00000000000E+00  0.13175032799E+03  0.13175032799E+03  0.00000000000E+00 0. -1.
          2   -1    0    0  502    0 -0.00000000000E+00 -0.00000000000E+00 -0.81144480026E+02  0.81144480026E+02  0.00000000000E+00 0. -1.
          2    1    1    2  501    0 -0.15917829337E+02  0.12204732607E+02 -0.79122277137E+02  0.81625164797E+02  0.00000000000E+00 0. -1.
          2    1    1    2  502    0  0.15917829337E+02 -0.12204732607E+02  0.12972812510E+03  0.13126964322E+03  0.00000000000E+00 0. -1.
</event>
<event>
 4    1  0.6136512E+003  0.2171276E+02  0.7546771E-02  0.1509327E+00
          2   -1    0    0  501    0  0.00000000000E+00  0.00000000000E+00  0.64654997447E+00  0.64654997447E+00  0.00000000000E+00 0.  1.
          2   -1    0    0  502    0 -0.00000000000E+00 -0.00000000000E+00 -0.73040360081E+03  0.73040360081E+03  0.00000000000E+00 0. -1.
          2    1    1    2  501    0 -0.21600104308E+02  0.22089183421E+01 -0.37990995089E+03  0.38052991290E+03  0.00000000000E+00 0.  1.
          2    1    1    2  502    0  0.21600104308E+02 -0.22089183421E+01 -0.34984709995E+03  0.35052023789E+03  0.00000000000E+00 0. -1.
</event>
<event>
 4    1  0.6136512E+003  0.2104659E+02  0.7546771E-02  0.1518601E+00
          2   -1    0    0  501    0  0.00000000000E+00  0.00000000000E+00  0.78547919812E+03  0.78547919812E+03  0.00000000000E+00 0. -1.
          2   -1    0    0  502    0 -0.00000000000E+00 -0.00000000000E+00 -0.17248604469E+03  0.17248604469E+03  0.00000000000E+00 0. -1.
          2    1    1    2  501    0  0.68955376984E+00 -0.21035289968E+02 -0.17170239862E+03  0.17298749261E+03  0.00000000000E+00 0. -1.
          2    1    1    2  502    0 -0.68955376984E+00  0.21035289968E+02  0.78469555205E+03  0.78497775020E+03  0.00000000000E+00 0. -1.
</event>
<event>
 4    1  0.6136512E+003  0.3069633E+02  0.7546771E-02  0.1413640E+00
          2   -1    0    0  501    0  0.00000000000E+00  0.00000000000E+00  0.94761961666E+02  0.94761961666E+02  0.00000000000E+00 0.  1.
          2   -1    0    0  502    0 -0.00000000000E+00 -0.00000000000E+00 -0.61493281829E+03  0.61493281829E+03  0.00000000000E+00 0. -1.
          2    1    1    2  501    0 -0.51983934319E+01 -0.30252958988E+02 -0.61205217644E+03  0.61282145157E+03  0.00000000000E+00 0. -1.
          2    1    1    2  502    0  0.51983934319E+01  0.30252958988E+02  0.91881319814E+02  0.96873328386E+02  0.00000000000E+00 0.  1.
</event>
<event>
 4    1  0.6136512E+003  0.3647355E+02  0.7546771E-02  0.1370489E+00
          2   -1    0    0  502    0  0.00000000000E+00  0.00000000000E+00  0.14276516090E+01  0.14276516090E+01  0.00000000000E+00 0. -1.
          2   -1    0    0  501    0 -0.00000000000E+00 -0.00000000000E+00 -0.28611291325E+04  0.28611291325E+04  0.00000000000E+00 0.  1.
          2    1    1    2  501    0 -0.13117656498E+02 -0.34033032435E+02 -0.25453153988E+03  0.25713153249E+03  0.00000000000E+00 0. -1.
          2    1    1    2  502    0  0.13117656498E+02  0.34033032435E+02 -0.26051699410E+04  0.26054252516E+04  0.00000000000E+00 0.  1.
</event>
<event>
 4    1  0.6136512E+003  0.6828278E+02  0.7546771E-02  0.1234021E+00
          2   -1    0    0  501    0  0.00000000000E+00  0.00000000000E+00  0.19536142353E+02  0.19536142353E+02  0.00000000000E+00 0. -1.
          2   -1    0    0  502    0 -0.00000000000E+00 -0.00000000000E+00 -0.10809966675E+04  0.10809966675E+04  0.00000000000E+00 0. -1.
          2    1    1    2  501    0  0.54557967780E+02  0.41060526015E+02 -0.10164694122E+04  0.10187603274E+04  0.00000000000E+00 0. -1.
          2    1    1    2  502    0 -0.54557967780E+02 -0.41060526015E+02 -0.44991112873E+02  0.81772482428E+02  0.00000000000E+00 0. -1.
</event>
<event>
 4    1  0.6136512E+003  0.3778807E+02  0.7546771E-02  0.1361959E+00
          2   -1    0    0  502    0  0.00000000000E+00  0.00000000000E+00  0.38578510633E+03  0.38578510633E+03  0.00000000000E+00 0. -1.
          2   -1    0    0  501    0 -0.00000000000E+00 -0.00000000000E+00 -0.39752798563E+01  0.39752798563E+01  0.00000000000E+00 0. -1.
          2    1    1    2  501    0 -0.28410769187E+02 -0.24915190406E+02  0.24205863034E+03  0.24499044684E+03  0.00000000000E+00 0. -1.
          2    1    1    2  502    0  0.28410769187E+02  0.24915190406E+02  0.13975119614E+03  0.14476993936E+03  0.00000000000E+00 0. -1.
</event>
<event>
 4    1  0.6136512E+003  0.3577322E+02  0.7546771E-02  0.1375207E+00
          2   -1    0    0  502    0  0.00000000000E+00  0.00000000000E+00  0.21030265619E+04  0.21030265619E+04  0.00000000000E+00 0.  1.
          2   -1    0    0  501    0 -0.00000000000E+00 -0.00000000000E+00 -0.19790228051E+03  0.19790228051E+03  0.00000000000E+00 0. -1.
          2    1    1    2  501    0  0.13454009882E+02  0.33146833286E+02  0.21012564618E+04  0.21015609535E+04  0.00000000000E+00 0.  1.
          2    1    1    2  502    0 -0.13454009882E+02 -0.33146833286E+02 -0.19613218041E+03  0.19936788892E+03  0.00000000000E+00 0. -1.
</event>
<event>
 4    1  0.6136512E+003  0.2809530E+02  0.7546771E-02  0.1436905E+00
          2   -1    0    0  501    0  0.00000000000E+00  0.00000000000E+00  0.70715892239E+01  0.70715892239E+01  0.00000000000E+00 0.  1.
          2   -1    0    0  502    0 -0.00000000000E+00 -0.00000000000E+00 -0.28026607003E+03  0.28026607003E+03  0.00000000000E+00 0.  1.
          2    1    1    2  501    0  0.26764591489E+02  0.85441598017E+01 -0.24804276442E+03  0.24962884249E+03  0.00000000000E+00 0.  1.
          2    1    1    2  502    0 -0.26764591489E+02 -0.85441598017E+01 -0.25151716391E+02  0.37708816763E+02  0.00000000000E+00 0.  1.
</event>
<event>
 4    1  0.6136512E+003  0.2133094E+02  0.7546771E-02  0.1514592E+00
          2   -1    0    0  501    0  0.00000000000E+00  0.00000000000E+00  0.44785891808E+01  0.44785891808E+01  0.00000000000E+00 0.  1.
          2   -1    0    0  502    0 -0.00000000000E+00 -0.00000000000E+00 -0.10195478628E+03  0.10195478628E+03  0.00000000000E+00 0.  1.
          2    1    1    2  501    0  0.13619614572E+02 -0.16416916070E+02 -0.45583438683E+02  0.50327516495E+02  0.00000000000E+00 0.  1.
          2    1    1    2  502    0 -0.13619614572E+02  0.16416916070E+02 -0.51892758419E+02  0.56105858969E+02  0.00000000000E+00 0.  1.
</event>
<event>
 4    1  0.6136512E+003  0.3034449E+02  0.7546771E-02  0.1416626E+00
          2   -1    0    0  501    0  0.00000000000E+00  0.00000000000E+00  0.78413740190E+02  0.78413740190E+02  0.00000000000E+00 0. -1.
          2   -1    0    0  502    0 -0.00000000000E+00 -0.00000000000E+00 -0.41189148865E+03  0.41189148865E+03  0.00000000000E+00 0. -1.
          2    1    1    2  501    0 -0.20604945536E+02  0.22276088168E+02 -0.40837167141E+03  0.40949750903E+03  0.00000000000E+00 0. -1.
          2    1    1    2  502    0  0.20604945536E+02 -0.22276088168E+02  0.74893922958E+02  0.80807719809E+02  0.00000000000E+00 0. -1.
</event>
<event>
 4    1  0.6136512E+003  0.2102776E+02  0.7546771E-02  0.1518869E+00
          2   -1    0    0  501    0  0.00000000000E+00  0.00000000000E+00  0.29374539850E+03  0.29374539850E+03  0.00000000000E+00 0.  1.
          2   -1    0    0  502    0 -0.00000000000E+00 -0.00000000000E+00 -0.33924093591E+01  0.33924093591E+01  0.00000000000E+00 0.  1.
          2    1    1    2  501    0  0.18736804253E+02  0.95445777177E+01  0.34367370923E+02  0.40289986120E+02  0.00000000000E+00 0.  1.
          2    1    1    2  502    0 -0.18736804253E+02 -0.95445777177E+01  0.25598561822E+03  0.25684782174E+03  0.00000000000E+00 0.  1.
</event>
<event>
 4    1  0.6136512E+003  0.4622105E+02  0.7546771E-02  0.1315444E+00
          2   -1    0    0  502    0  0.00000000000E+00  0.00000000000E+00  0.44856930921E+03  0.44856930921E+03  0.00000000000E+00 0. -1.
          2   -1    0    0  501    0 -0.00000000000E+00 -0.00000000000E+00 -0.53805999868E+01  0.53805999868E+01  0.00000000000E+00 0. -1.
          2    1    1    2  501    0  0.73053398759E+01 -0.45640081187E+02  0.29851346446E+03  0.30207064317E+03  0.00000000000E+00 0. -1.
          2    1    1    2  502    0 -0.73053398759E+01  0.45640081187E+02  0.14467524476E+03  0.15187926603E+03  0.00000000000E+00 0. -1.
</event>
<event>
 4    1  0.6136512E+003  0.2090021E+02  0.7546771E-02  0.1520694E+00
          2   -1    0    0  502    0  0.00000000000E+00  0.00000000000E+00  0.36232486713E+02  0.36232486713E+02  0.00000000000E+00 0. -1.
          2   -1    0    0  501    0 -0.00000000000E+00 -0.00000000000E+00 -0.16422087259E+02  0.16422087259E+02  0.00000000000E+00 0.  1.
          2    1    1    2  501    0 -0.20702922886E+02  0.28648983153E+01  0.23480155143E+02  0.31434636055E+02  0.00000000000E+00 0. -1.
          2    1    1    2  502    0  0.20702922886E+02 -0.28648983153E+01 -0.36697556889E+01  0.21219937917E+02  0.00000000000E+00 0.  1.
</event>
<event>
 4    1  0.6136512E+003  0.4641746E+02  0.7546771E-02  0.1314500E+00
          2   -1    0    0  501    0  0.00000000000E+00  0.00000000000E+00  0.36134956756E+02  0.36134956756E+02  0.00000000000E+00 0.  1.
          2   -1    0    0  502    0 -0.00000000000E+00 -0.00000000000E+00 -0.18207493633E+04  0.18207493633E+04  0.00000000000E+00 0. -1.
          2    1    1    2  501    0  0.64679138875E+01 -0.45964626772E+02 -0.18054204987E+04  0.18060170979E+04  0.00000000000E+00 0. -1.
          2    1    1    2  502    0 -0.64679138875E+01  0.45964626772E+02  0.20806092110E+02  0.50867222189E+02  0.00000000000E+00 0.  1.
</event>
<event>
 4    1  0.6136512E+003  0.2784010E+02  0.7546771E-02  0.1439347E+00
          2   -1    0    0  502    0  0.00000000000E+00  0.00000000000E+00  0.69501478411E+01  0.69501478411E+01  0.00000000000E+00 0.  1.
          2   -1    0    0  501    0 -0.00000000000E+00 -0.00000000000E+00 -0.14817271470E+03  0.14817271470E+03  0.00000000000E+00 0. -1.
          2    1    1    2  501    0  0.12716341417E+02 -0.24766220233E+02 -0.32034780696E+02  0.42441703287E+02  0.00000000000E+00 0.  1.
          2    1    1    2  502    0 -0.12716341417E+02  0.24766220233E+02 -0.10918778617E+03  0.11268115926E+03  0.00000000000E+00 0. -1.
</event>
<event>
 4    1  0.6136512E+003  0.3399286E+02  0.7546771E-02  0.1387785E+00
          2   -1    0    0  501    0  0.00000000000E+00  0.00000000000E+00  0.74766943176E+01  0.74766943176E+01  0.00000000000E+00 0. -1.
          2   -1    0    0  502    0 -0.00000000000E+00 -0.00000000000E+00 -0.87350821062E+03  0.87350821062E+03  0.00000000000E+00 0.  1.
          2    1    1    2  501    0  0.24288230425E+02 -0.23782268877E+02 -0.83264489897E+03  0.83333849199E+03  0.00000000000E+00 0.  1.
          2    1    1    2  502    0 -0.24288230425E+02  0.23782268877E+02 -0.33386617338E+02  0.47646412954E+02  0.00000000000E+00 0. -1.
</event>
<event>
 4    1  0.6136512E+003  0.2478894E+02  0.7546771E-02  0.1471178E+00
          2   -1    0    0  501    0  0.00000000000E+00  0.00000000000E+00  0.13702130829E+03  0.13702130829E+03  0.00000000000E+00 0.  1.
          2   -1    0    0  502    0 -0.00000000000E+00 -0.00000000000E+00 -0.12053868971E+02  0.12053868971E+02  0.00000000000E+00 0. -1.
          2    1    1    2  501    0  0.23956067174E+02 -0.63716776027E+01  0.34176752816E+01  0.25023427708E+02  0.00000000000E+00 0. -1.
          2    1    1    2  502    0 -0.23956067174E+02  0.63716776027E+01  0.12154976404E+03  0.12405174956E+03  0.00000000000E+00 0.  1.
</event>
<event>
 4    1  0.6136512E+003  0.2060554E+02  0.7546771E-02  0.1524972E+00
          2   -1    0    0  502    0  0.00000000000E+00  0.00000000000E+00  0.44680973191E+00  0.44680973191E+00  0.00000000000E+00 0. -1.
          2   -1    0    0  501    0 -0.00000000000E+00 -0.00000000000E+00 -0.11819221356E+04  0.11819221356E+04  0.00000000000E+00 0. -1.
          2    1    1    2  501    0  0.16649195271E+02 -0.12140540226E+02 -0.85246543654E+03  0.85271443574E+03  0.00000000000E+00 0. -1.
          2    1    1    2  502    0 -0.16649195271E+02  0.12140540226E+02 -0.32900988937E+03  0.32965450964E+03  0.00000000000E+00 0. -1.
</event>
<event>
 4    1  0.6136512E+003  0.2052471E+02  0.7546771E-02  0.1526160E+00
          2   -1    0    0  502    0  0.00000000000E+00  0.00000000000E+00  0.10258497466E+04  0.10258497466E+04  0.00000000000E+00 0. -1.
          2   -1    0    0  501    0 -0.00000000000E+00 -0.00000000000E+00 -0.18217529696E+01  0.18217529696E+01  0.00000000000E+00 0.  1.
          2    1    1    2  501    0  0.15948968821E+02 -0.12918748936E+02  0.96424377305E+03  0.96446219083E+03  0.00000000000E+00 0. -1.
          2    1    1    2  502    0 -0.15948968821E+02  0.12918748936E+02  0.59784220575E+02  0.63209308731E+02  0.00000000000E+00 0.  1.
</event>
<event>
 4    1  0.6136512E+003  0.4276561E+02  0.7546771E-02  0.1332999E+00
          2   -1    0    0  502    0  0.00000000000E+00  0.00000000000E+00  0.39411446872E+02  0.39411446872E+02  0.00000000000E+00 0. -1.
          2   -1    0    0  501    0 -0.00000000000E+00 -0.00000000000E+00 -0.25599546530E+03  0.25599546530E+03  0.00000000000E+00 0.  1.
          2    1    1    2  501    0  0.20526606845E+02 -0.37517410300E+02  0.25355242713E+02  0.49717059418E+02  0.00000000000E+00 0. -1.
          2    1    1    2  502    0 -0.20526606845E+02  0.37517410300E+02 -0.24193926114E+03  0.24568985275E+03  0.00000000000E+00 0.  1.
</event>
<event>
 4    1  0.6136512E+003  0.2909759E+02  0.7546771E-02  0.1427604E+00
          2   -1    0    0  502    0  0.00000000000E+00  0.00000000000E+00  0.93075847976E+03  0.93075847976E+03  0.00000000000E+00 0.  1.
          2   -1    0    0  501    0 -0.00000000000E+00 -0.00000000000E+00 -0.91524598349E+00  0.91524598349E+00  0.00000000000E+00 0. -1.
          2    1    1    2  501    0  0.80086481505E+01 -0.27973759481E+02  0.42851455081E+03  0.42950132703E+03  0.00000000000E+00 0. -1.
          2    1    1    2  502    0 -0.80086481505E+01  0.27973759481E+02  0.50132868296E+03  0.50217239871E+03  0.00000000000E+00 0.  1.
</event>
<event>
 4    1  0.6136512E+003  0.2071382E+02  0.7546771E-02  0.1523390E+00
          2   -1    0    0  502    0  0.00000000000E+00  0.00000000000E+00  0.15478513659E+02  0.15478513659E+02  0.00000000000E+00 0. -1.
          2   -1    0    0  501    0 -0.00000000000E+00 -0.00000000000E+00 -0.13410784114E+03  0.13410784114E+03  0.00000000000E+00 0.  1.
          2    1    1    2  501    0  0.60191140476E+01 -0.19820010350E+02  0.73017333558E+01  0.21963102108E+02  0.00000000000E+00 0. -1.
          2    1    1    2  502    0 -0.60191140476E+01  0.19820010350E+02 -0.12593106083E+03  0.12762325269E+03  0.00000000000E+00 0.  1.
</event>
<event>
 4    1  0.6136512E+003  0.2016548E+02  0.7546771E-02  0.1531521E+00
          2   -1    0    0  501    0  0.00000000000E+00  0.00000000000E+00  0.12624459607E+03  0.12624459607E+03  0.00000000000E+00 0. -1.
          2   -1    0    0  502    0 -0.00000000000E+00 -0.00000000000E+00 -0.19485160998E+03  0.19485160998E+03  0.00000000000E+00 0.  1.
          2    1    1    2  501    0  0.89698048366E+00 -0.20145521890E+02 -0.19351906577E+03  0.19456689195E+03  0.00000000000E+00 0.  1.
          2    1    1    2  502    0 -0.89698048366E+00  0.20145521890E+02  0.12491205187E+03  0.12652931410E+03  0.00000000000E+00 0. -1.
</event>
<event>
 4    1  0.6136512E+003  0.2200884E+02  0.7546771E-02  0.1505334E+00
          2   -1    0    0  502    0  0.00000000000E+00  0.00000000000E+00  0.56635905495E+03  0.56635905495E+03  0.00000000000E+00 0. -1.
          2   -1    0    0  501    0 -0.00000000000E+00 -0.00000000000E+00 -0.13561653359E+01  0.13561653359E+01  0.00000000000E+00 0. -1.
          2    1    1    2  501    0 -0.21260867072E+02  0.56889700398E+01  0.45501313400E+03  0.45554510310E+03  0.00000000000E+00 0. -1.
          2    1    1    2  502    0  0.21260867072E+02 -0.56889700398E+01  0.10998975562E+03  0.11217011719E+03  0.00000000000E+00 0. -1.
</event>
<event>
 4    1  0.6136512E+003  0.2004762E+02  0.7546771E-02  0.1533309E+00
          2   -1    0    0  502    0  0.00000000000E+00  0.00000000000E+00  0.34881543558E+02  0.34881543558E+02  0.00000000000E+00 0.  1.
          2   -1    0    0  501    0 -0.00000000000E+00 -0.00000000000E+00 -0.26128248075E+03  0.26128248075E+03  0.00000000000E+00 0. -1.
          2    1    1    2  501    0  0.18732923680E+02 -0.71403647152E+01  0.31579664079E+02  0.37405646917E+02  0.00000000000E+00 0.  1.
          2    1    1    2  502    0 -0.18732923680E+02  0.71403647152E+01 -0.25798060127E+03  0.25875837739E+03  0.00000000000E+00 0. -1.
</event>
<event>
 4    1  0.6136512E+003  0.2340445E+02  0.7546771E-02  0.1487481E+00
          2   -1    0    0  501    0  0.00000000000E+00  0.00000000000E+00  0.61016725496E+03  0.61016725496E+03  0.00000000000E+00 0.  1.
          2   -1    0    0  502    0 -0.00000000000E+00 -0.00000000000E+00 -0.26876118612E+01  0.26876118612E+01  0.00000000000E+00 0.  1.
          2    1    1    2  501    0 -0.23280093148E+02 -0.24094959058E+01  0.53673063132E+02  0.58553958991E+02  0.00000000000E+00 0.  1.
          2    1    1    2  502    0  0.23280093148E+02  0.24094959058E+01  0.55380657996E+03  0.55430090783E+03  0.00000000000E+00 0.  1.
</event>
<event>
 4    1  0.6136512E+003  0.2256554E+02  0.7546771E-02  0.1498027E+00
          2   -1    0    0  501    0  0.00000000000E+00  0.00000000000E+00  0.14749296165E+03  0.14749296165E+03  0.00000000000E+00 0. -1.
          2   -1    0    0  502    0 -0.00000000000E+00 -0.00000000000E+00 -0.22006568874E+02  0.22006568874E+02  0.00000000000E+00 0.  1.
          2    1    1    2  501    0  0.19271604371E+02  0.11739205700E+02 -0.15075359903E+02  0.27137983744E+02  0.00000000000E+00 0.  1.
          2    1    1    2  502    0 -0.19271604371E+02 -0.11739205700E+02  0.14056175268E+03  0.14236154678E+03  0.00000000000E+00 0. -1.
</event>
<event>
 4    1  0.6136512E+003  0.1642523E+03  0.7546771E-02  0.1083844E+00
          2   -1    0    0  501    0  0.00000000000E+00  0.00000000000E+00  0.32346438313E+02  0.32346438313E+02  0.00000000000E+00 0.  1.
          2   -1    0    0  502    0 -0.00000000000E+00 -0.00000000000E+00 -0.90067524485E+03  0.90067524485E+03  0.00000000000E+00 0. -1.
          2    1    1    2  501    0  0.16383512182E+03 -0.11699104755E+02 -0.56103760465E+03  0.58458704230E+03  0.00000000000E+00 0. -1.
          2    1    1    2  502    0 -0.16383512182E+03  0.11699104755E+02 -0.30729120188E+03  0.34843464086E+03  0.00000000000E+00 0.  1.
</event>
<event>
 4    1  0.6136512E+003  0.3870506E+02  0.7546771E-02  0.1356246E+00
          2   -1    0    0  502    0  0.00000000000E+00  0.00000000000E+00  0.87735370744E+02  0.87735370744E+02  0.00000000000E+00 0.  1.
          2   -1    0    0  501    0 -0.00000000000E+00 -0.00000000000E+00 -0.78995659404E+02  0.78995659404E+02  0.00000000000E+00 0.  1.
          2    1    1    2  501    0 -0.29634535538E+02 -0.24897307747E+02  0.78177713855E+02  0.87234377244E+02  0.00000000000E+00 0.  1.
          2    1    1    2  502    0  0.29634535538E+02  0.24897307747E+02 -0.69438002515E+02  0.79496652903E+02  0.00000000000E+00 0.  1.
</event>
<event>
 4    1  0.6136512E+003  0.2547540E+02  0.7546771E-02  0.1463555E+00
          2   -1    0    0  502    0  0.00000000000E+00  0.00000000000E+00  0.57282788040E+03  0.57282788040E+03  0.00000000000E+00 0.  1.
          2   -1    0    0  501    0 -0.00000000000E+00 -0.00000000000E+00 -0.11643894013E+01  0.11643894013E+01  0.00000000000E+00 0.  1.
          2    1    1    2  501    0 -0.22330388148E+02  0.12261709459E+02  0.33297706098E+03  0.33395017427E+03  0.00000000000E+00 0.  1.
          2    1    1    2  502    0  0.22330388148E+02 -0.12261709459E+02  0.23868643002E+03  0.24004209554E+03  0.00000000000E+00 0.  1.
</event>
<event>
 4    1  0.6136512E+003  0.3167401E+02  0.7546771E-02  0.1405586E+00
          2   -1    0    0  501    0  0.00000000000E+00  0.00000000000E+00  0.16290067950E+04  0.16290067950E+04  0.00000000000E+00 0. -1.
          2   -1    0    0  502    0 -0.00000000000E+00 -0.00000000000E+00 -0.41863961214E+02  0.41863961214E+02  0.00000000000E+00 0.  1.
          2    1    1    2  501    0 -0.31428634347E+02  0.39349798800E+01 -0.35696137441E+02  0.47722713164E+02  0.00000000000E+00 0.  1.
          2    1    1    2  502    0  0.31428634347E+02 -0.39349798800E+01  0.16228389713E+04  0.16231480431E+04  0.00000000000E+00 0. -1.
</event>
<event>
 4    1  0.6136512E+003  0.2116913E+02  0.7546771E-02  0.1516864E+00
          2   -1    0    0  502    0  0.00000000000E+00  0.00000000000E+00  0.21120625586E+01  0.21120625586E+01  0.00000000000E+00 0.  1.
          2   -1    0    0  501    0 -0.00000000000E+00 -0.00000000000E+00 -0.35475765380E+03  0.35475765380E+03  0.00000000000E+00 0.  1.
          2    1    1    2  501    0  0.20872060853E+02  0.35340239200E+01 -0.63201783202E+02  0.66652814263E+02  0.00000000000E+00 0.  1.
          2    1    1    2  502    0 -0.20872060853E+02 -0.35340239200E+01 -0.28944380804E+03  0.29021690209E+03  0.00000000000E+00 0.  1.
</event>
<event>
 4    1  0.6136512E+003  0.3666307E+02  0.7546771E-02  0.1369234E+00
          2   -1    0    0  501    0  0.00000000000E+00  0.00000000000E+00  0.11644009074E+03  0.11644009074E+03  0.00000000000E+00 0.  1.
          2   -1    0    0  502    0 -0.00000000000E+00 -0.00000000000E+00 -0.19215169781E+03  0.19215169781E+03  0.00000000000E+00 0.  1.
          2    1    1    2  501    0 -0.36579884322E+02  0.24683926653E+01 -0.18744506616E+03  0.19099694691E+03  0.00000000000E+00 0.  1.
          2    1    1    2  502    0  0.36579884322E+02 -0.24683926653E+01  0.11173345910E+03  0.11759484164E+03  0.00000000000E+00 0.  1.
</event>
<event>
 4    1  0.6136512E+003  0.2121843E+02  0.7546771E-02  0.1516169E+00
          2   -1    0    0  502    0  0.00000000000E+00  0.00000000000E+00  0.13366620443E+04  0.13366620443E+04  0.00000000000E+00 0.  1.
          2   -1    0    0  501    0 -0.00000000000E+00 -0.00000000000E+00 -0.35108708891E+01  0.35108708891E+01  0.00000000000E+00 0. -1.
          2    1    1    2  501    0  0.61214629806E+01 -0.20316235178E+02  0.13037084188E+04  0.13038810770E+04  0.00000000000E+00 0.  1.
          2    1    1    2  502    0 -0.61214629806E+01  0.20316235178E+02  0.29442754693E+02  0.36291838266E+02  0.00000000000E+00 0. -1.
</event>
<event>
 4    1  0.6136512E+003  0.3198752E+02  0.7546771E-02  0.1403076E+00
          2   -1    0    0  502    0  0.00000000000E+00  0.00000000000E+00  0.59179384369E+00  0.59179384369E+00  0.00000000000E+00 0. -1.
          2   -1    0    0  501    0 -0.00000000000E+00 -0.00000000000E+00 -0.23402255809E+04  0.23402255809E+04  0.00000000000E+00 0. -1.
          2    1    1    2  501    0  0.27239623182E+02 -0.16769154399E+02 -0.57165959414E+03  0.57255383431E+03  0.00000000000E+00 0. -1.
          2    1    1    2  502    0 -0.27239623182E+02  0.16769154399E+02 -0.17679741929E+04  0.17682635404E+04  0.00000000000E+00 0. -1.
</event>
<event>
 4    1  0.6136512E+003  0.2654623E+02  0.7546771E-02  0.1452220E+00
          2   -1    0    0  501    0  0.00000000000E+00  0.00000000000E+00  0.28077767218E+01  0.28077767218E+01  0.00000000000E+00 0.  1.
          2   -1    0    0  502    0 -0.00000000000E+00 -0.00000000000E+00 -0.29956320478E+03  0.29956320478E+03  0.00000000000E+00 0.  1.
          2    1    1    2  501    0 -0.16248895971E+02  0.20992275426E+02 -0.20926108609E+03  0.21093815302E+03  0.00000000000E+00 0.  1.
          2    1    1    2  502    0  0.16248895971E+02 -0.20992275426E+02 -0.87494341975E+02  0.91432828488E+02  0.00000000000E+00 0.  1.
</event>
<event>
 4    1  0.6136512E+003  0.3077338E+02  0.7546771E-02  0.1412992E+00
          2   -1    0    0  502    0  0.00000000000E+00  0.00000000000E+00  0.11000360753E+02  0.11000360753E+02  0.00000000000E+00 0. -1.
          2   -1    0    0  501    0 -0.00000000000E+00 -0.00000000000E+00 -0.17406862281E+03  0.17406862281E+03  0.00000000000E+00 0. -1.
          2    1    1    2  501    0  0.13403938531E+00  0.30773086206E+02 -0.15747670340E+02  0.34568626272E+02  0.00000000000E+00 0. -1.
          2    1    1    2  502    0 -0.13403938531E+00 -0.30773086206E+02 -0.14732059171E+03  0.15050035729E+03  0.00000000000E+00 0. -1.
</event>
<event>
 4    1  0.6136512E+003  0.2096660E+02  0.7546771E-02  0.1519742E+00
          2   -1    0    0  502    0  0.00000000000E+00  0.00000000000E+00  0.17157235547E+02  0.17157235547E+02  0.00000000000E+00 0.  1.
          2   -1    0    0  501    0 -0.00000000000E+00 -0.00000000000E+00 -0.60331534895E+02  0.60331534895E+02  0.00000000000E+00 0.  1.
          2    1    1    2  501    0 -0.12774256012E+02 -0.16625787932E+02  0.78003429449E+01  0.22370601044E+02  0.00000000000E+00 0.  1.
          2    1    1    2  502    0  0.12774256012E+02  0.16625787932E+02 -0.50974642293E+02  0.55118169399E+02  0.00000000000E+00 0.  1.
</event>
<event>
 4    1  0.6136512E+003  0.5828037E+02  0.7546771E-02  0.1265790E+00
          2   -1    0    0  502    0  0.00000000000E+00  0.00000000000E+00  0.23131008284E+03  0.23131008284E+03  0.00000000000E+00 0.  1.
          2   -1    0    0  501    0 -0.00000000000E+00 -0.00000000000E+00 -0.52385825034E+03  0.52385825034E+03  0.00000000000E+00 0. -1.
          2    1    1    2  501    0 -0.45408374146E+02 -0.36533281962E+02  0.22598046725E+03  0.23337474738E+03  0.00000000000E+00 0.  1.
          2    1    1    2  502    0  0.45408374146E+02  0.36533281962E+02 -0.51852863475E+03  0.52179358581E+03  0.00000000000E+00 0. -1.
</event>
<event>
 4    1  0.6136512E+003  0.2355574E+02  0.7546771E-02  0.1485635E+00
          2   -1    0    0  501    0  0.00000000000E+00  0.00000000000E+00  0.15863039173E+01  0.15863039173E+01  0.00000000000E+00 0.  1.
          2   -1    0    0  502    0 -0.00000000000E+00 -0.00000000000E+00 -0.35274091035E+03  0.35274091035E+03  0.00000000000E+00 0. -1.
          2    1    1    2  501    0  0.18859107118E+02 -0.14114073123E+02 -0.15937275467E+03  0.16110415238E+03  0.00000000000E+00 0.  1.
          2    1    1    2  502    0 -0.18859107118E+02  0.14114073123E+02 -0.19178185176E+03  0.19322306189E+03  0.00000000000E+00 0. -1.
</event>
<event>
 4    1  0.6136512E+003  0.2960474E+02  0.7546771E-02  0.1423063E+00
          2   -1    0    0  501    0  0.00000000000E+00  0.00000000000E+00  0.17571574149E+04  0.17571574149E+04  0.00000000000E+00 0.  1.
          2   -1    0    0  502    0 -0.00000000000E+00 -0.00000000000E+00 -0.82068833823E+01  0.82068833823E+01  0.00000000000E+00 0. -1.
          2    1    1    2  501    0 -0.10409268462E+02 -0.27714398969E+02  0.19036583165E+02  0.35197049290E+02  0.00000000000E+00 0. -1.
          2    1    1    2  502    0  0.10409268462E+02  0.27714398969E+02  0.17299139484E+04  0.17301672490E+04  0.00000000000E+00 0.  1.
</event>
<event>
 4    1  0.6136512E+003  0.2036281E+02  0.7546771E-02  0.1528560E+00
          2   -1    0    0  501    0  0.00000000000E+00  0.00000000000E+00  0.10794528994E+02  0.10794528994E+02  0.00000000000E+00 0.  1.
          2   -1    0    0  502    0 -0.00000000000E+00 -0.00000000000E+00 -0.13692881418E+03  0.13692881418E+03  0.00000000000E+00 0. -1.
          2    1    1    2  501    0 -0.17913128223E+02 -0.96831812886E+01 -0.41644293292E+00  0.20367071152E+02  0.00000000000E+00 0.  1.
          2    1    1    2  502    0  0.17913128223E+02  0.96831812886E+01 -0.12571784226E+03  0.12735627202E+03  0.00000000000E+00 0. -1.
</event>
<event>
 4    1  0.6136512E+003  0.8135579E+02  0.7546771E-02  0.1200735E+00
          2   -1    0    0  502    0  0.00000000000E+00  0.00000000000E+00  0.11048725513E+04  0.11048725513E+04  0.00000000000E+00 0.  1.
          2   -1    0    0  501    0 -0.00000000000E+00 -0.00000000000E+00 -0.13299669690E+03  0.13299669690E+03  0.00000000000E+00 0. -1.
          2    1    1    2  501    0  0.39705542620E+02  0.71008694951E+02  0.10907727213E+04  0.10938024933E+04  0.00000000000E+00 0.  1.
          2    1    1    2  502    0 -0.39705542620E+02 -0.71008694951E+02 -0.11889686695E+03  0.14406675482E+03  0.00000000000E+00 0. -1.
</event>
<event>
 4    1  0.6136512E+003  0.2010207E+02  0.7546771E-02  0.1532481E+00
          2   -1    0    0  501    0  0.00000000000E+00  0.00000000000E+00  0.19594005940E+02  0.19594005940E+02  0.00000000000E+00 0.  1.
          2   -1    0    0  502    0 -0.00000000000E+00 -0.00000000000E+00 -0.20800121898E+02  0.20800121898E+02  0.00000000000E+00 0. -1.
          2    1    1    2  501    0 -0.54461719568E+01  0.19350261237E+02 -0.24651547566E+01  0.20252663699E+02  0.00000000000E+00 0. -1.
          2    1    1    2  502    0  0.54461719568E+01 -0.19350261237E+02  0.12590387984E+01  0.20141464138E+02  0.00000000000E+00 0.  1.
</event>
<event>
 4    1  0.6136512E+003  0.2294818E+02  0.7546771E-02  0.1493150E+00
          2   -1    0    0  502    0  0.00000000000E+00  0.00000000000E+00  0.13920391797E+02  0.13920391797E+02  0.00000000000E+00 0. -1.
          2   -1    0    0  501    0 -0.00000000000E+00 -0.00000000000E+00 -0.41020039676E+03  0.41020039676E+03  0.00000000000E+00 0. -1.
          2    1    1    2  501    0  0.48938831729E+01  0.22420273271E+02  0.39052581865E+01  0.23278096734E+02  0.00000000000E+00 0. -1.
          2    1    1    2  502    0 -0.48938831729E+01 -0.22420273271E+02 -0.40018526315E+03  0.40084269182E+03  0.00000000000E+00 0. -1.
</event>
<event>
 4    1  0.6136512E+003  0.2265224E+02  0.7546771E-02  0.1496912E+00
          2   -1    0    0  502    0  0.00000000000E+00  0.00000000000E+00  0.74231835956E+03  0.74231835956E+03  0.00000000000E+00 0.  1.
          2   -1    0    0  501    0 -0.00000000000E+00 -0.00000000000E+00 -0.96475529497E+01  0.96475529497E+01  0.00000000000E+00 0.  1.
          2    1    1    2  501    0 -0.22525190302E+02 -0.23957427896E+01  0.72859849074E+03  0.72895053639E+03  0.00000000000E+00 0.  1.
          2    1    1    2  502    0  0.22525190302E+02  0.23957427896E+01  0.40723158670E+01  0.23015376125E+02  0.00000000000E+00 0.  1.
</event>
<event>
 4    1  0.6136512E+003  0.2290633E+02  0.7546771E-02  0.1493678E+00
          2   -1    0    0  501    0  0.00000000000E+00  0.00000000000E+00  0.34100291283E+02  0.34100291283E+02  0.00000000000E+00 0. -1.
          2   -1    0    0  502    0 -0.00000000000E+00 -0.00000000000E+00 -0.27350538858E+03  0.27350538858E+03  0.00000000000E+00 0. -1.
          2    1    1    2  501    0  0.95102782347E-01  0.22906133328E+02 -0.26911641812E+03  0.27008951570E+03  0.00000000000E+00 0. -1.
          2    1    1    2  502    0 -0.95102782347E-01 -0.22906133328E+02  0.29711320822E+02  0.37516164164E+02  0.00000000000E+00 0. -1.
</event>
<event>
 4    1  0.6136512E+003  0.2307119E+02  0.7546771E-02  0.1491606E+00
          2   -1    0    0  501    0  0.00000000000E+00  0.00000000000E+00  0.13007366717E+02  0.13007366717E+02  0.00000000000E+00 0. -1.
          2   -1    0    0  502    0 -0.00000000000E+00 -0.00000000000E+00 -0.18175876653E+03  0.18175876653E+03  0.00000000000E+00 0.  1.
          2    1    1    2  501    0 -0.23067238987E+02 -0.42697519082E+00 -0.17009817288E+03  0.17165566766E+03  0.00000000000E+00 0.  1.
          2    1    1    2  502    0  0.23067238987E+02  0.42697519082E+00  0.13467730609E+01  0.23110465594E+02  0.00000000000E+00 0. -1.
</event>
<event>
 4    1  0.6136512E+003  0.2692804E+02  0.7546771E-02  0.1448332E+00
          2   -1    0    0  502    0  0.00000000000E+00  0.00000000000E+00  0.85952431694E+02  0.85952431694E+02  0.00000000000E+00 0. -1.
          2   -1    0    0  501    0 -0.00000000000E+00 -0.00000000000E+00 -0.11997549113E+02  0.11997549113E+02  0.00000000000E+00 0. -1.
          2    1    1    2  501    0 -0.24871189896E+02 -0.10321971289E+02  0.63660167857E+02  0.69121170054E+02  0.00000000000E+00 0. -1.
          2    1    1    2  502    0  0.24871189896E+02  0.10321971289E+02  0.10294714725E+02  0.28828810753E+02  0.00000000000E+00 0. -1.
</event>
<event>
 4    1  0.6136512E+003  0.2318545E+02  0.7546771E-02  0.1490183E+00
          2   -1    0    0  502    0  0.00000000000E+00  0.00000000000E+00  0.37916584559E+03  0.37916584559E+03  0.00000000000E+00 0. -1.
          2   -1    0    0  501    0 -0.00000000000E+00 -0.00000000000E+00 -0.79295294836E+02  0.79295294836E+02  0.00000000000E+00 0.  1.
          2    1    1    2  501    0  0.22815331357E+02  0.41262087643E+01  0.37710734387E+03  0.37781941949E+03  0.00000000000E+00 0. -1.
          2    1    1    2  502    0 -0.22815331357E+02 -0.41262087643E+01 -0.77236793118E+02  0.80641720932E+02  0.00000000000E+00 0.  1.
</event>
<event>
 4    1  0.6136512E+003  0.2895079E+02  0.7546771E-02  0.1428938E+00
          2   -1    0    0  501    0  0.00000000000E+00  0.00000000000E+00  0.10360672530E+01  0.10360672530E+01  0.00000000000E+00 0.  1.
          2   -1    0    0  502    0 -0.00000000000E+00 -0.00000000000E+00 -0.95295442179E+03  0.95295442179E+03  0.00000000000E+00 0. -1.
          2    1    1    2  501    0  0.28940591013E+02  0.76832641793E+00 -0.66136977828E+03  0.66200312066E+03  0.00000000000E+00 0. -1.
          2    1    1    2  502    0 -0.28940591013E+02 -0.76832641793E+00 -0.29054857625E+03  0.29198736838E+03  0.00000000000E+00 0.  1.
</event>
<event>
 4    1  0.6136512E+003  0.5203358E+02  0.7546771E-02  0.1289588E+00
          2   -1    0    0  502    0  0.00000000000E+00  0.00000000000E+00  0.46016211103E+02  0.46016211103E+02  0.00000000000E+00 0.  1.
          2   -1    0    0  501    0 -0.00000000000E+00 -0.00000000000E+00 -0.89507894405E+03  0.89507894405E+03  0.00000000000E+00 0. -1.
          2    1    1    2  501    0  0.42620584671E+02  0.29849271240E+02  0.30287670088E+02  0.60206612515E+02  0.00000000000E+00 0.  1.
          2    1    1    2  502    0 -0.42620584671E+02 -0.29849271240E+02 -0.87935040303E+03  0.88088854263E+03  0.00000000000E+00 0. -1.
</event>
<event>
 4    1  0.6136512E+003  0.4382066E+02  0.7546771E-02  0.1327443E+00
          2   -1    0    0  501    0  0.00000000000E+00  0.00000000000E+00  0.48542333092E+03  0.48542333092E+03  0.00000000000E+00 0.  1.
          2   -1    0    0  502    0 -0.00000000000E+00 -0.00000000000E+00 -0.52356415337E+03  0.52356415337E+03  0.00000000000E+00 0. -1.
          2    1    1    2  501    0 -0.38442340783E+02  0.21034180033E+02 -0.52165467058E+03  0.52349197284E+03  0.00000000000E+00 0. -1.
          2    1    1    2  502    0  0.38442340783E+02 -0.21034180033E+02  0.48351384813E+03  0.48549551144E+03  0.00000000000E+00 0.  1.
</event>
<event>
 4    1  0.6136512E+003  0.2931955E+02  0.7546771E-02  0.1425603E+00
          2   -1    0    0  501    0  0.00000000000E+00  0.00000000000E+00  0.11658743187E+04  0.11658743187E+04  0.00000000000E+00 0. -1.
          2   -1    0    0  502    0 -0.00000000000E+00 -0.00000000000E+00 -0.16379890606E+02  0.16379890606E+02  0.00000000000E+00 0.  1.
          2    1    1    2  501    0  0.24887038693E+00  0.29318491933E+02 -0.29220711049E+01  0.29464799426E+02  0.00000000000E+00 0.  1.
          2    1    1    2  502    0 -0.24887038693E+00 -0.29318491933E+02  0.11524164992E+04  0.11527894098E+04  0.00000000000E+00 0. -1.
</event>
<event>
 4    1  0.6136512E+003  0.2215974E+02  0.7546771E-02  0.1503328E+00
          2   -1    0    0  502    0  0.00000000000E+00  0.00000000000E+00  0.37361873885E+03  0.37361873885E+03  0.00000000000E+00 0.  1.
          2   -1    0    0  501    0 -0.00000000000E+00 -0.00000000000E+00 -0.18991235419E+02  0.18991235419E+02  0.00000000000E+00 0.  1.
          2    1    1    2  501    0  0.12731798763E+02  0.18137128217E+02  0.36670416049E+03  0.36737310114E+03  0.00000000000E+00 0.  1.
          2    1    1    2  502    0 -0.12731798763E+02 -0.18137128217E+02 -0.12076657059E+02  0.25236873131E+02  0.00000000000E+00 0.  1.
</event>
<event>
 4    1  0.6136512E+003  0.2334839E+02  0.7546771E-02  0.1488169E+00
          2   -1    0    0  502    0  0.00000000000E+00  0.00000000000E+00  0.57038999290E+00  0.57038999290E+00  0.00000000000E+00 0.  1.
          2   -1    0    0  501    0 -0.00000000000E+00 -0.00000000000E+00 -0.14799251774E+04  0.14799251774E+04  0.00000000000E+00 0.  1.
          2    1    1    2  501    0  0.16729602158E+02  0.16287039942E+02 -0.29912494026E+03  0.30003479322E+03  0.00000000000E+00 0.  1.
          2    1    1    2  502    0 -0.16729602158E+02 -0.16287039942E+02 -0.11802298471E+04  0.11804607742E+04  0.00000000000E+00 0.  1.
</event>
<event>
 4    1  0.6136512E+003  0.2157885E+02  0.7546771E-02  0.1511159E+00
          2   -1    0    0  501    0  0.00000000000E+00  0.00000000000E+00  0.65583715103E+03  0.65583715103E+03  0.00000000000E+00 0.  1.
          2   -1    0    0  502    0 -0.00000000000E+00 -0.00000000000E+00 -0.68857756518E+01  0.68857756518E+01  0.00000000000E+00 0. -1.
          2    1    1    2  501    0 -0.11498508473E+02  0.18260089673E+02  0.10662490970E+02  0.24069384821E+02  0.00000000000E+00 0. -1.
          2    1    1    2  502    0  0.11498508473E+02 -0.18260089673E+02  0.63828888440E+03  0.63865354186E+03  0.00000000000E+00 0.  1.
</event>
<event>
 4    1  0.6136512E+003  0.3242038E+02  0.7546771E-02  0.1399666E+00
          2   -1    0    0  502    0  0.00000000000E+00  0.00000000000E+00  0.43270950431E+03  0.43270950431E+03  0.00000000000E+00 0. -1.
          2   -1    0    0  501    0 -0.00000000000E+00 -0.00000000000E+00 -0.17751319813E+02  0.17751319813E+02  0.00000000000E+00 0. -1.
          2    1    1    2  501    0  0.17606476495E+02  0.27223022979E+02  0.41673272141E+03  0.41799191629E+03  0.00000000000E+00 0. -1.
          2    1    1    2  502    0 -0.17606476495E+02 -0.27223022979E+02 -0.17745369073E+01  0.32468907834E+02  0.00000000000E+00 0. -1.
</event>
<event>
 4    1  0.6136512E+003  0.4103493E+02  0.7546771E-02  0.1342526E+00
          2   -1    0    0  502    0  0.00000000000E+00  0.00000000000E+00  0.19004269589E+04  0.19004269589E+04  0.00000000000E+00 0. -1.
          2   -1    0    0  501    0 -0.00000000000E+00 -0.00000000000E+00 -0.93503272571E+01  0.93503272571E+01  0.00000000000E+00 0. -1.
          2    1    1    2  501    0 -0.27311475174E+02 -0.30625949615E+02  0.18540580574E+04  0.18545121045E+04  0.00000000000E+00 0. -1.
          2    1    1    2  502    0  0.27311475174E+02  0.30625949615E+02  0.37018574230E+02  0.55265181661E+02  0.00000000000E+00 0. -1.
</event>
<event>
 4    1  0.6136512E+003  0.2310543E+02  0.7546771E-02  0.1491178E+00
          2   -1    0    0  501    0  0.00000000000E+00  0.00000000000E+00  0.14502528003E+04  0.14502528003E+04  0.00000000000E+00 0. -1.
          2   -1    0    0  502    0 -0.00000000000E+00 -0.00000000000E+00 -0.13042314575E+01  0.13042314575E+01  0.00000000000E+00 0. -1.
          2    1    1    2  501    0  0.35068021379E+01  0.22837758838E+02  0.10959262351E+03  0.11200180364E+03  0.00000000000E+00 0. -1.
          2    1    1    2  502    0 -0.35068021379E+01 -0.22837758838E+02  0.13393559453E+04  0.13395552281E+04  0.00000000000E+00 0. -1.
</event>
<event>
 4    1  0.6136512E+003  0.2847180E+02  0.7546771E-02  0.1433359E+00
          2   -1    0    0  502    0  0.00000000000E+00  0.00000000000E+00  0.66073777796E+00  0.66073777796E+00  0.00000000000E+00 0. -1.
          2   -1    0    0  501    0 -0.00000000000E+00 -0.00000000000E+00 -0.16185128501E+04  0.16185128501E+04  0.00000000000E+00 0.  1.
          2    1    1    2  501    0  0.14324366085E+02  0.24606015280E+02 -0.41068410682E+03  0.41166986658E+03  0.00000000000E+00 0. -1.
          2    1    1    2  502    0 -0.14324366085E+02 -0.24606015280E+02 -0.12071680055E+04  0.12075037213E+04  0.00000000000E+00 0.  1.
</event>
<event>
 4    1  0.6136512E+003  0.2414640E+02  0.7546771E-02  0.1478583E+00
          2   -1    0    0  501    0  0.00000000000E+00  0.00000000000E+00  0.90649164158E+03  0.90649164158E+03  0.00000000000E+00 0. -1.
          2   -1    0    0  502    0 -0.00000000000E+00 -0.00000000000E+00 -0.73735842956E+01  0.73735842956E+01  0.00000000000E+00 0. -1.
          2    1    1    2  501    0  0.21590111907E+02 -0.10812762172E+02  0.13010026250E+02  0.27428261720E+02  0.00000000000E+00 0. -1.
          2    1    1    2  502    0 -0.21590111907E+02  0.10812762172E+02  0.88610803104E+03  0.88643696416E+03  0.00000000000E+00 0. -1.
</event>
<event>
 4    1  0.6136512E+003  0.2413658E+02  0.7546771E-02  0.1478699E+00
          2   -1    0    0  501    0  0.00000000000E+00  0.00000000000E+00  0.26747756407E+02  0.26747756407E+02  0.00000000000E+00 0.  1.
          2   -1    0    0  502    0 -0.00000000000E+00 -0.00000000000E+00 -0.17065322685E+04  0.17065322685E+04  0.00000000000E+00 0. -1.
          2    1    1    2  501    0  0.23680313614E+02  0.46709104285E+01 -0.17009840845E+04  0.17011553222E+04  0.00000000000E+00 0. -1.
          2    1    1    2  502    0 -0.23680313614E+02 -0.46709104285E+01  0.21199572353E+02  0.32124702723E+02  0.00000000000E+00 0.  1.
</event>
<event>
 4    1  0.6136512E+003  0.3365122E+02  0.7546771E-02  0.1390302E+00
          2   -1    0    0  501    0  0.00000000000E+00  0.00000000000E+00  0.98829510557E+02  0.98829510557E+02  0.00000000000E+00 0.  1.
          2   -1    0    0  502    0 -0.00000000000E+00 -0.00000000000E+00 -0.44686216433E+03  0.44686216433E+03  0.00000000000E+00 0.  1.
          2    1    1    2  501    0  0.31961961683E+02 -0.10527937667E+02 -0.44334137681E+03  0.44461666732E+03  0.00000000000E+00 0.  1.
          2    1    1    2  502    0 -0.31961961683E+02  0.10527937667E+02  0.95308723041E+02  0.10107500756E+03  0.00000000000E+00 0.  1.
</event>
<event>
 4    1  0.6136512E+003  0.2158406E+02  0.7546771E-02  0.1511087E+00
          2   -1    0    0  502    0  0.00000000000E+00  0.00000000000E+00  0.87864845097E+03  0.87864845097E+03  0.00000000000E+00 0. -1.
          2   -1    0    0  501    0 -0.00000000000E+00 -0.00000000000E+00 -0.13600209748E+01  0.13600209748E+01  0.00000000000E+00 0.  1.
          2    1    1    2  501    0 -0.91085606643E+01 -0.19567976345E+02  0.78233875648E+03  0.78263644271E+03  0.00000000000E+00 0. -1.
          2    1    1    2  502    0  0.91085606643E+01  0.19567976345E+02  0.94949673515E+02  0.97372029229E+02  0.00000000000E+00 0.  1.
</event>
<event>
 4    1  0.6136512E+003  0.2287394E+02  0.7546771E-02  0.1494087E+00
          2   -1    0    0  502    0  0.00000000000E+00  0.00000000000E+00  0.29389208185E+03  0.29389208185E+03  0.00000000000E+00 0. -1.
          2   -1    0    0  501    0 -0.00000000000E+00 -0.00000000000E+00 -0.26956780037E+02  0.26956780037E+02  0.00000000000E+00 0. -1.
          2    1    1    2  501    0  0.20798822170E+02  0.95197659349E+01  0.28850415955E+03  0.28940951439E+03  0.00000000000E+00 0. -1.
          2    1    1    2  502    0 -0.20798822170E+02 -0.95197659349E+01 -0.21568857730E+02  0.31439347495E+02  0.00000000000E+00 0. -1.
</event>
<event>
 4    1  0.6136512E+003  0.3164280E+02  0.7546771E-02  0.1405838E+00
          2   -1    0    0  501    0  0.00000000000E+00  0.00000000000E+00  0.25055766176E+01  0.25055766176E+01  0.00000000000E+00 0.  1.
          2   -1    0    0  502    0 -0.00000000000E+00 -0.00000000000E+00 -0.52253264911E+03  0.52253264911E+03  0.00000000000E+00 0.  1.
          2    1    1    2  501    0 -0.66464866197E+01  0.30936889369E+02 -0.38733765959E+03  0.38862800908E+03  0.00000000000E+00 0.  1.
          2    1    1    2  502    0  0.66464866197E+01 -0.30936889369E+02 -0.13268941290E+03  0.13641021664E+03  0.00000000000E+00 0.  1.
</event>
<event>
 4    1  0.6136512E+003  0.3150317E+02  0.7546771E-02  0.1406969E+00
          2   -1    0    0  501    0  0.00000000000E+00  0.00000000000E+00  0.85340670732E+02  0.85340670732E+02  0.00000000000E+00 0. -1.
          2   -1    0    0  502    0 -0.00000000000E+00 -0.00000000000E+00 -0.21198407004E+03  0.21198407004E+03  0.00000000000E+00 0.  1.
          2    1    1    2  501    0 -0.71559092546E+01  0.30679680397E+02 -0.20784880826E+03  0.21022268413E+03  0.00000000000E+00 0.  1.
          2    1    1    2  502    0  0.71559092546E+01 -0.30679680397E+02  0.81205408959E+02  0.87102056639E+02  0.00000000000E+00 0. -1.
</event>
<event>
 4    1  0.6136512E+003  0.3380712E+02  0.7546771E-02  0.1389149E+00
          2   -1    0    0  502    0  0.00000000000E+00  0.00000000000E+00  0.87453252485E+03  0.87453252485E+03  0.00000000000E+00 0. -1.
          2   -1    0    0  501    0 -0.00000000000E+00 -0.00000000000E+00 -0.48196813038E+01  0.48196813038E+01  0.00000000000E+00 0.  1.
          2    1    1    2  501    0 -0.15398393017E+02  0.30096692200E+02  0.81021783235E+03  0.81092284297E+03  0.00000000000E+00 0. -1.
          2    1    1    2  502    0  0.15398393017E+02 -0.30096692200E+02  0.59495011199E+02  0.68429363189E+02  0.00000000000E+00 0.  1.
</event>
<event>
 4    1  0.6136512E+003  0.2253312E+02  0.7546771E-02  0.1498446E+00
          2   -1    0    0  501    0  0.00000000000E+00  0.00000000000E+00  0.41044563182E+00  0.41044563182E+00  0.00000000000E+00 0.  1.
          2   -1    0    0  502    0 -0.00000000000E+00 -0.00000000000E+00 -0.16248885873E+04  0.16248885873E+04  0.00000000000E+00 0.  1.
          2    1    1    2  501    0  0.16253248081E+02  0.15606835856E+02 -0.12092637470E+04  0.12094736671E+04  0.00000000000E+00 0.  1.
          2    1    1    2  502    0 -0.16253248081E+02 -0.15606835856E+02 -0.41521439463E+03  0.41582536588E+03  0.00000000000E+00 0.  1.
</event>
<event>
 4    1  0.6136512E+003  0.2050490E+02  0.7546771E-02  0.1526452E+00
          2   -1    0    0  502    0  0.00000000000E+00  0.00000000000E+00  0.34747650027E+03  0.34747650027E+03  0.00000000000E+00 0.  1.
          2   -1    0    0  501    0 -0.00000000000E+00 -0.00000000000E+00 -0.44304565831E+02  0.44304565831E+02  0.00000000000E+00 0. -1.
          2    1    1    2  501    0  0.10595901886E+02  0.17554992452E+02  0.34478297577E+03  0.34539217026E+03  0.00000000000E+00 0.  1.
          2    1    1    2  502    0 -0.10595901886E+02 -0.17554992452E+02 -0.41611041330E+02  0.46388895841E+02  0.00000000000E+00 0. -1.
</event>
<event>
 4    1  0.6136512E+003  0.2430549E+02  0.7546771E-02  0.1476725E+00
          2   -1    0    0  502    0  0.00000000000E+00  0.00000000000E+00  0.55534538227E+03  0.55534538227E+03  0.00000000000E+00 0. -1.
          2   -1    0    0  501    0 -0.00000000000E+00 -0.00000000000E+00 -0.77404205999E+02  0.77404205999E+02  0.00000000000E+00 0.  1.
          2    1    1    2  501    0 -0.20585022830E+02  0.12923377991E+02  0.55316389439E+03  0.55369761686E+03  0.00000000000E+00 0. -1.
          2    1    1    2  502    0  0.20585022830E+02 -0.12923377991E+02 -0.75222718114E+02  0.79051971411E+02  0.00000000000E+00 0.  1.
</event>
<event>
 4    1  0.6136512E+003  0.3086352E+02  0.7546771E-02  0.1412238E+00
          2   -1    0    0  501    0  0.00000000000E+00  0.00000000000E+00  0.34519146194E+01  0.34519146194E+01  0.00000000000E+00 0.  1.
          2   -1    0    0  502    0 -0.00000000000E+00 -0.00000000000E+00 -0.42944754512E+03  0.42944754512E+03  0.00000000000E+00 0. -1.
          2    1    1    2  501    0  0.19613616251E+02  0.23829869297E+02 -0.34240321118E+03  0.34379138389E+03  0.00000000000E+00 0. -1.
          2    1    1    2  502    0 -0.19613616251E+02 -0.23829869297E+02 -0.83592419329E+02  0.89108075854E+02  0.00000000000E+00 0.  1.
</event>
<event>
 4    1  0.6136512E+003  0.2112556E+02  0.7546771E-02  0.1517480E+00
          2   -1    0    0  501    0  0.00000000000E+00  0.00000000000E+00  0.62794249180E+03  0.62794249180E+03  0.00000000000E+00 0.  1.
          2   -1    0    0  502    0 -0.00000000000E+00 -0.00000000000E+00 -0.22947948174E+03  0.22947948174E+03  0.00000000000E+00 0. -1.
          2    1    1    2  501    0 -0.92546562261E+01 -0.18990541077E+02 -0.22881509030E+03  0.22978823918E+03  0.00000000000E+00 0. -1.
          2    1    1    2  502    0  0.92546562261E+01  0.18990541077E+02  0.62727810037E+03  0.62763373437E+03  0.00000000000E+00 0.  1.
</event>
<event>
 4    1  0.6136512E+003  0.2841392E+02  0.7546771E-02  0.1433900E+00
          2   -1    0    0  501    0  0.00000000000E+00  0.00000000000E+00  0.37767328413E+03  0.37767328413E+03  0.00000000000E+00 0. -1.
          2   -1    0    0  502    0 -0.00000000000E+00 -0.00000000000E+00 -0.99655154360E+01  0.99655154360E+01  0.00000000000E+00 0. -1.
          2    1    1    2  501    0  0.27391197031E+02 -0.75546869808E+01  0.12075806528E+02  0.30873549739E+02  0.00000000000E+00 0. -1.
          2    1    1    2  502    0 -0.27391197031E+02  0.75546869808E+01  0.35563196216E+03  0.35676524982E+03  0.00000000000E+00 0. -1.
</event>
<event>
 4    1  0.6136512E+003  0.3252343E+02  0.7546771E-02  0.1398863E+00
          2   -1    0    0  502    0  0.00000000000E+00  0.00000000000E+00  0.77291764332E+03  0.77291764332E+03  0.00000000000E+00 0. -1.
          2   -1    0    0  501    0 -0.00000000000E+00 -0.00000000000E+00 -0.67315248978E+01  0.67315248978E+01  0.00000000000E+00 0. -1.
          2    1    1    2  501    0  0.31746548693E+02  0.70661337952E+01  0.73104200649E+03  0.73176511864E+03  0.00000000000E+00 0. -1.
          2    1    1    2  502    0 -0.31746548693E+02 -0.70661337952E+01  0.35144111929E+02  0.47884049578E+02  0.00000000000E+00 0. -1.
</event>
<event>
 4    1  0.6136512E+003  0.2425246E+02  0.7546771E-02  0.1477343E+00
          2   -1    0    0  502    0  0.00000000000E+00  0.00000000000E+00  0.22723709256E+03  0.22723709256E+03  0.00000000000E+00 0.  1.
          2   -1    0    0  501    0 -0.00000000000E+00 -0.00000000000E+00 -0.73361965179E+01  0.73361965179E+01  0.00000000000E+00 0.  1.
          2    1    1    2  501    0 -0.22034890359E+02  0.10131414123E+02  0.20430412719E+03  0.20573856793E+03  0.00000000000E+00 0.  1.
          2    1    1    2  502    0  0.22034890359E+02 -0.10131414123E+02  0.15596768850E+02  0.28834721150E+02  0.00000000000E+00 0.  1.
</event>
<event>
 4    1  0.6136512E+003  0.2823770E+02  0.7546771E-02  0.1435556E+00
          2   -1    0    0  502    0  0.00000000000E+00  0.00000000000E+00  0.12407004514E+03  0.12407004514E+03  0.00000000000E+00 0. -1.
          2   -1    0    0  501    0 -0.00000000000E+00 -0.00000000000E+00 -0.79638586410E+01  0.79638586410E+01  0.00000000000E+00 0.  1.
          2    1    1    2  501    0  0.22972009016E+02  0.16421152656E+02  0.87056275306E+02  0.91521377410E+02  0.00000000000E+00 0. -1.
          2    1    1    2  502    0 -0.22972009016E+02 -0.16421152656E+02  0.29049911197E+02  0.40512526376E+02  0.00000000000E+00 0.  1.
</event>
<event>
 4    1  0.6136512E+003  0.2391401E+02  0.7546771E-02  0.1481329E+00
          2   -1    0    0  502    0  0.00000000000E+00  0.00000000000E+00  0.58017565301E+03  0.58017565301E+03  0.00000000000E+00 0.  1.
          2   -1    0    0  501    0 -0.00000000000E+00 -0.00000000000E+00 -0.32140159194E+03  0.32140159194E+03  0.00000000000E+00 0. -1.
          2    1    1    2  501    0  0.23578115792E+02  0.39940419374E+01  0.57948386404E+03  0.57997709316E+03  0.00000000000E+00 0.  1.
          2    1    1    2  502    0 -0.23578115792E+02 -0.39940419374E+01 -0.32070980296E+03  0.32160015179E+03  0.00000000000E+00 0. -1.
</event>
<event>
 4    1  0.6136512E+003  0.2428083E+02  0.7546771E-02  0.1477012E+00
          2   -1    0    0  502    0  0.00000000000E+00  0.00000000000E+00  0.51071948950E+01  0.51071948950E+01  0.00000000000E+00 0. -1.
          2   -1    0    0  501    0 -0.00000000000E+00 -0.00000000000E+00 -0.41682146709E+03  0.41682146709E+03  0.00000000000E+00 0.  1.
          2    1    1    2  501    0 -0.12308717041E+02 -0.20929744352E+02 -0.26468675403E+02  0.35918651025E+02  0.00000000000E+00 0. -1.
          2    1    1    2  502    0  0.12308717041E+02  0.20929744352E+02 -0.38524559679E+03  0.38601001096E+03  0.00000000000E+00 0.  1.
</event>
<event>
 4    1  0.6136512E+003  0.4117678E+02  0.7546771E-02  0.1341725E+00
          2   -1    0    0  501    0  0.00000000000E+00  0.00000000000E+00  0.19593999490E+04  0.19593999490E+04  0.00000000000E+00 0. -1.
          2   -1    0    0  502    0 -0.00000000000E+00 -0.00000000000E+00 -0.19077186554E+02  0.19077186554E+02  0.00000000000E+00 0.  1.
          2    1    1    2  501    0 -0.40683047873E+02  0.63573968901E+01  0.36188009913E+01  0.41335488385E+02  0.00000000000E+00 0.  1.
          2    1    1    2  502    0  0.40683047873E+02 -0.63573968901E+01  0.19367039615E+04  0.19371416472E+04  0.00000000000E+00 0. -1.
</event>
<event>
 4    1  0.6136512E+003  0.3695784E+02  0.7546771E-02  0.1367298E+00
          2   -1    0    0  502    0  0.00000000000E+00  0.00000000000E+00  0.17275087678E+04  0.17275087678E+04  0.00000000000E+00 0. -1.
          2   -1    0    0  501    0 -0.00000000000E+00 -0.00000000000E+00 -0.50704328110E+01  0.50704328110E+01  0.00000000000E+00 0. -1.
          2    1    1    2  501    0  0.20893248615E+02  0.30485308978E+02  0.16571047802E+04  0.16575168580E+04  0.00000000000E+00 0. -1.
          2    1    1    2  502    0 -0.20893248615E+02 -0.30485308978E+02  0.65333554797E+02  0.75062342647E+02  0.00000000000E+00 0. -1.
</event>
<event>
 4    1  0.6136512E+003  0.2029976E+02  0.7546771E-02  0.1529502E+00
          2   -1    0    0  501    0  0.00000000000E+00  0.00000000000E+00  0.32307104947E+02  0.32307104947E+02  0.00000000000E+00 0.  1.
          2   -1    0    0  502    0 -0.00000000000E+00 -0.00000000000E+00 -0.12974649189E+02  0.12974649189E+02  0.00000000000E+00 0.  1.
          2    1    1    2  501    0  0.87495007546E+01 -0.18317381814E+02  0.67210274620E+01  0.21383462070E+02  0.00000000000E+00 0.  1.
          2    1    1    2  502    0 -0.87495007546E+01  0.18317381814E+02  0.12611428296E+02  0.23898292065E+02  0.00000000000E+00 0.  1.
</event>
<event>
 4    1  0.6136512E+003  0.2446557E+02  0.7546771E-02  0.1474872E+00
          2   -1    0    0  502    0  0.00000000000E+00  0.00000000000E+00  0.12802383588E+03  0.12802383588E+03  0.00000000000E+00 0. -1.
          2   -1    0    0  501    0 -0.00000000000E+00 -0.00000000000E+00 -0.12482484151E+04  0.12482484151E+04  0.00000000000E+00 0. -1.
          2    1    1    2  501    0 -0.17482791519E+02  0.17114791033E+02  0.12673389326E+03  0.12907379197E+03  0.00000000000E+00 0. -1.
          2    1    1    2  502    0  0.17482791519E+02 -0.17114791033E+02 -0.12469584724E+04  0.12471984590E+04  0.00000000000E+00 0. -1.
</event>
<event>
 4    1  0.6136512E+003  0.2017210E+02  0.7546771E-02  0.1531421E+00
          2   -1    0    0  502    0  0.00000000000E+00  0.00000000000E+00  0.45184763543E+01  0.45184763543E+01  0.00000000000E+00 0. -1.
          2   -1    0    0  501    0 -0.00000000000E+00 -0.00000000000E+00 -0.10132238462E+04  0.10132238462E+04  0.00000000000E+00 0. -1.
          2    1    1    2  501    0 -0.20167806081E+02  0.41618405826E+00 -0.18621941286E+02  0.27453420708E+02  0.00000000000E+00 0. -1.
          2    1    1    2  502    0  0.20167806081E+02 -0.41618405826E+00 -0.99008342853E+03  0.99028890181E+03  0.00000000000E+00 0. -1.
</event>
<event>
 4    1  0.6136512E+003  0.2199392E+02  0.7546771E-02  0.1505533E+00
          2   -1    0    0  501    0  0.00000000000E+00  0.00000000000E+00  0.11296170845E+02  0.11296170845E+02  0.00000000000E+00 0.  1.
          2   -1    0    0  502    0 -0.00000000000E+00 -0.00000000000E+00 -0.56174437574E+03  0.56174437574E+03  0.00000000000E+00 0. -1.
          2    1    1    2  501    0 -0.61246429522E+01 -0.21123948089E+02 -0.55060695862E+03  0.55104605553E+03  0.00000000000E+00 0. -1.
          2    1    1    2  502    0  0.61246429522E+01  0.21123948089E+02  0.15875372166E+00  0.21994491058E+02  0.00000000000E+00 0.  1.
</event>
<event>
 4    1  0.6136512E+003  0.2289988E+02  0.7546771E-02  0.1493759E+00
          2   -1    0    0  502    0  0.00000000000E+00  0.00000000000E+00  0.39996475340E+03  0.39996475340E+03  0.00000000000E+00 0. -1.
          2   -1    0    0  501    0 -0.00000000000E+00 -0.00000000000E+00 -0.59971792779E+03  0.59971792779E+03  0.00000000000E+00 0.  1.
          2    1    1    2  501    0  0.21308101490E+02 -0.83886421320E+01  0.39941806809E+03  0.40007399019E+03  0.00000000000E+00 0. -1.
          2    1    1    2  502    0 -0.21308101490E+02  0.83886421320E+01 -0.59917124248E+03  0.59960869100E+03  0.00000000000E+00 0.  1.
</event>
<event>
 4    1  0.6136512E+003  0.2153838E+02  0.7546771E-02  0.1511715E+00
          2   -1    0    0  502    0  0.00000000000E+00  0.00000000000E+00  0.35675415958E+03  0.35675415958E+03  0.00000000000E+00 0.  1.
          2   -1    0    0  501    0 -0.00000000000E+00 -0.00000000000E+00 -0.17586055797E+01  0.17586055797E+01  0.00000000000E+00 0.  1.
          2    1    1    2  501    0 -0.26777465399E+01  0.21371277655E+02  0.26900362491E+03  0.26986450683E+03  0.00000000000E+00 0.  1.
          2    1    1    2  502    0  0.26777465399E+01 -0.21371277655E+02  0.85991929090E+02  0.88648258323E+02  0.00000000000E+00 0.  1.
</event>
<event>
 4    1  0.6136512E+003  0.2071998E+02  0.7546771E-02  0.1523301E+00
          2   -1    0    0  502    0  0.00000000000E+00  0.00000000000E+00  0.91710543504E+03  0.91710543504E+03  0.00000000000E+00 0. -1.
          2   -1    0    0  501    0 -0.00000000000E+00 -0.00000000000E+00 -0.13150061884E+01  0.13150061884E+01  0.00000000000E+00 0. -1.
          2    1    1    2  501    0  0.15264008666E+02 -0.14011702136E+02  0.89376529900E+02  0.91746835664E+02  0.00000000000E+00 0. -1.
          2    1    1    2  502    0 -0.15264008666E+02  0.14011702136E+02  0.82641389895E+03  0.82667360557E+03  0.00000000000E+00 0. -1.
</event>
<event>
 4    1  0.6136512E+003  0.2128636E+02  0.7546771E-02  0.1515215E+00
          2   -1    0    0  502    0  0.00000000000E+00  0.00000000000E+00  0.19683463675E+02  0.19683463675E+02  0.00000000000E+00 0. -1.
          2   -1    0    0  501    0 -0.00000000000E+00 -0.00000000000E+00 -0.29533864332E+02  0.29533864332E+02  0.00000000000E+00 0. -1.
          2    1    1    2  501    0 -0.14384159276E+02 -0.15690926197E+02  0.66320427894E+01  0.22295586886E+02  0.00000000000E+00 0. -1.
          2    1    1    2  502    0  0.14384159276E+02  0.15690926197E+02 -0.16482443447E+02  0.26921741121E+02  0.00000000000E+00 0. -1.
</event>
<event>
 4    1  0.6136512E+003  0.2032534E+02  0.7546771E-02  0.1529119E+00
          2   -1    0    0  501    0  0.00000000000E+00  0.00000000000E+00  0.95390019540E+03  0.95390019540E+03  0.00000000000E+00 0.  1.
          2   -1    0    0  502    0 -0.00000000000E+00 -0.00000000000E+00 -0.32393415553E+01  0.32393415553E+01  0.00000000000E+00 0. -1.
          2    1    1    2  501    0 -0.83250570776E+01 -0.18542192024E+02  0.29899252572E+02  0.36153627270E+02  0.00000000000E+00 0. -1.
          2    1    1    2  502    0  0.83250570776E+01  0.18542192024E+02  0.92076160127E+03  0.92098590968E+03  0.00000000000E+00 0.  1.
</event>
<event>
 4    1  0.6136512E+003  0.2634497E+02  0.7546771E-02  0.1454301E+00
          2   -1    0    0  502    0  0.00000000000E+00  0.00000000000E+00  0.21444076914E+03  0.21444076914E+03  0.00000000000E+00 0. -1.
          2   -1    0    0  501    0 -0.00000000000E+00 -0.00000000000E+00 -0.33136025692E+01  0.33136025692E+01  0.00000000000E+00 0. -1.
          2    1    1    2  501    0 -0.23581867185E+02  0.11745330372E+02  0.12216183209E+03  0.12497027833E+03  0.00000000000E+00 0. -1.
          2    1    1    2  502    0  0.23581867185E+02 -0.11745330372E+02  0.88965334476E+02  0.92784093378E+02  0.00000000000E+00 0. -1.
</event>
<event>
 4    1  0.6136512E+003  0.2037040E+02  0.7546771E-02  0.1528447E+00
          2   -1    0    0  501    0  0.00000000000E+00  0.00000000000E+00  0.33180251604E+03  0.33180251604E+03  0.00000000000E+00 0. -1.
          2   -1    0    0  502    0 -0.00000000000E+00 -0.00000000000E+00 -0.58559924832E+01  0.58559924832E+01  0.00000000000E+00 0. -1.
          2    1    1    2  501    0  0.11163952306E+02 -0.17038755102E+02  0.13252971688E+02  0.24302145277E+02  0.00000000000E+00 0. -1.
          2    1    1    2  502    0 -0.11163952306E+02  0.17038755102E+02  0.31269355186E+03  0.31335636324E+03  0.00000000000E+00 0. -1.
</event>
<event>
 4    1  0.6136512E+003  0.2941383E+02  0.7546771E-02  0.1424760E+00
          2   -1    0    0  502    0  0.00000000000E+00  0.00000000000E+00  0.16346881726E+01  0.16346881726E+01  0.00000000000E+00 0. -1.
          2   -1    0    0  501    0 -0.00000000000E+00 -0.00000000000E+00 -0.71059685215E+03  0.71059685215E+03  0.00000000000E+00 0.  1.
          2    1    1    2  501    0 -0.63143910307E+01  0.28728067775E+02 -0.17458412730E+03  0.17704460149E+03  0.00000000000E+00 0. -1.
          2    1    1    2  502    0  0.63143910307E+01 -0.28728067775E+02 -0.53437803668E+03  0.53518693884E+03  0.00000000000E+00 0.  1.
</event>
<event>
 4    1  0.6136512E+003  0.3186980E+02  0.7546771E-02  0.1404015E+00
          2   -1    0    0  501    0  0.00000000000E+00  0.00000000000E+00  0.85208101220E+03  0.85208101220E+03  0.00000000000E+00 0.  1.
          2   -1    0    0  502    0 -0.00000000000E+00 -0.00000000000E+00 -0.38143565374E+01  0.38143565374E+01  0.00000000000E+00 0. -1.
          2    1    1    2  501    0 -0.14022376241E+02 -0.28619176639E+02  0.69299068983E+02  0.76276112046E+02  0.00000000000E+00 0. -1.
          2    1    1    2  502    0  0.14022376241E+02  0.28619176639E+02  0.77896758668E+03  0.77961925670E+03  0.00000000000E+00 0.  1.
</event>
<event>
 4    1  0.7582110E+003  0.3695908E+02  0.7546771E-02  0.1367290E+00
          2   -1    0    0  501    0  0.00000000000E+00  0.00000000000E+00  0.33699467534E+03  0.33699467534E+03  0.00000000000E+00 0.  1.
          2   -1    0    0  502    0 -0.00000000000E+00 -0.00000000000E+00 -0.89610999634E+03  0.89610999634E+03  0.00000000000E+00 0. -1.
          2    1    1    2  501    0 -0.18188215160E+02  0.32173941922E+02 -0.89471398199E+03  0.89547701438E+03  0.00000000000E+00 0. -1.
          2    1    1    2  502    0  0.18188215160E+02 -0.32173941922E+02  0.33559866099E+03  0.33762765729E+03  0.00000000000E+00 0.  1.
</event>
<event>
 4    1  0.6136512E+003  0.2242340E+02  0.7546771E-02  0.1499868E+00
          2   -1    0    0  502    0  0.00000000000E+00  0.00000000000E+00  0.62448869974E+03  0.62448869974E+03  0.00000000000E+00 0.  1.
          2   -1    0    0  501    0 -0.00000000000E+00 -0.00000000000E+00 -0.17819555366E+03  0.17819555366E+03  0.00000000000E+00 0. -1.
          2    1    1    2  501    0  0.18967956137E+02  0.11959330536E+02  0.62358096760E+03  0.62398399988E+03  0.00000000000E+00 0.  1.
          2    1    1    2  502    0 -0.18967956137E+02 -0.11959330536E+02 -0.17728782153E+03  0.17870025352E+03  0.00000000000E+00 0. -1.
</event>
<event>
 4    1  0.6136512E+003  0.2150247E+02  0.7546771E-02  0.1512210E+00
          2   -1    0    0  501    0  0.00000000000E+00  0.00000000000E+00  0.79423430684E+03  0.79423430684E+03  0.00000000000E+00 0.  1.
          2   -1    0    0  502    0 -0.00000000000E+00 -0.00000000000E+00 -0.14398364427E+03  0.14398364427E+03  0.00000000000E+00 0. -1.
          2    1    1    2  501    0  0.21452505378E+02  0.14650209706E+01 -0.14303435551E+03  0.14464156778E+03  0.00000000000E+00 0. -1.
          2    1    1    2  502    0 -0.21452505378E+02 -0.14650209706E+01  0.79328501807E+03  0.79357638333E+03  0.00000000000E+00 0.  1.
</event>
<event>
 4    1  0.6136512E+003  0.2365912E+02  0.7546771E-02  0.1484383E+00
          2   -1    0    0  502    0  0.00000000000E+00  0.00000000000E+00  0.75440841585E+02  0.75440841585E+02  0.00000000000E+00 0. -1.
          2   -1    0    0  501    0 -0.00000000000E+00 -0.00000000000E+00 -0.26824641077E+02  0.26824641077E+02  0.00000000000E+00 0. -1.
          2    1    1    2  501    0 -0.88055351372E+01 -0.21959433741E+02  0.67797901780E+02  0.71807448534E+02  0.00000000000E+00 0. -1.
          2    1    1    2  502    0  0.88055351372E+01  0.21959433741E+02 -0.19181701272E+02  0.30458034128E+02  0.00000000000E+00 0. -1.
</event>
<event>
 4    1  0.6136512E+003  0.2007173E+02  0.7546771E-02  0.1532942E+00
          2   -1    0    0  501    0  0.00000000000E+00  0.00000000000E+00  0.35813151792E+03  0.35813151792E+03  0.00000000000E+00 0.  1.
          2   -1    0    0  502    0 -0.00000000000E+00 -0.00000000000E+00 -0.15188290725E+01  0.15188290725E+01  0.00000000000E+00 0.  1.
          2    1    1    2  501    0  0.19313643165E+02  0.54641936626E+01  0.86729334466E+02  0.89021636031E+02  0.00000000000E+00 0.  1.
          2    1    1    2  502    0 -0.19313643165E+02 -0.54641936626E+01  0.26988335439E+03  0.27062871097E+03  0.00000000000E+00 0.  1.
</event>
<event>
 4    1  0.6136512E+003  0.2056798E+02  0.7546771E-02  0.1525523E+00
          2   -1    0    0  501    0  0.00000000000E+00  0.00000000000E+00  0.16812284688E+01  0.16812284688E+01  0.00000000000E+00 0.  1.
          2   -1    0    0  502    0 -0.00000000000E+00 -0.00000000000E+00 -0.13762439112E+04  0.13762439112E+04  0.00000000000E+00 0.  1.
          2    1    1    2  501    0  0.12218565775E+02  0.16545345687E+02 -0.13100837791E+04  0.13102452251E+04  0.00000000000E+00 0.  1.
          2    1    1    2  502    0 -0.12218565775E+02 -0.16545345687E+02 -0.64478903645E+02  0.67679914515E+02  0.00000000000E+00 0.  1.
</event>
<event>
 4    1  0.6136512E+003  0.2048311E+02  0.7546771E-02  0.1526774E+00
          2   -1    0    0  502    0  0.00000000000E+00  0.00000000000E+00  0.20209889905E+01  0.20209889905E+01  0.00000000000E+00 0. -1.
          2   -1    0    0  501    0 -0.00000000000E+00 -0.00000000000E+00 -0.27690705320E+03  0.27690705320E+03  0.00000000000E+00 0. -1.
          2    1    1    2  501    0 -0.90582282255E+01 -0.18371344632E+02 -0.67670716808E+02  0.70702784355E+02  0.00000000000E+00 0. -1.
          2    1    1    2  502    0  0.90582282255E+01  0.18371344632E+02 -0.20721534740E+03  0.20822525783E+03  0.00000000000E+00 0. -1.
</event>
<event>
 4    1  0.6136512E+003  0.7906944E+02  0.7546771E-02  0.1206025E+00
          2   -1    0    0  501    0  0.00000000000E+00  0.00000000000E+00  0.79421763874E+01  0.79421763874E+01  0.00000000000E+00 0. -1.
          2   -1    0    0  502    0 -0.00000000000E+00 -0.00000000000E+00 -0.83994539894E+03  0.83994539894E+03  0.00000000000E+00 0. -1.
          2    1    1    2  501    0  0.21582653356E+02 -0.76066849780E+02 -0.52225169948E+03  0.52820338334E+03  0.00000000000E+00 0. -1.
          2    1    1    2  502    0 -0.21582653356E+02  0.76066849780E+02 -0.30975152307E+03  0.31968419199E+03  0.00000000000E+00 0. -1.
</event>
<event>
 4    1  0.6136512E+003  0.2032280E+02  0.7546771E-02  0.1529157E+00
          2   -1    0    0  501    0  0.00000000000E+00  0.00000000000E+00  0.38353794107E+00  0.38353794107E+00  0.00000000000E+00 0. -1.
          2   -1    0    0  502    0 -0.00000000000E+00 -0.00000000000E+00 -0.11581406154E+04  0.11581406154E+04  0.00000000000E+00 0. -1.
          2    1    1    2  501    0  0.32874514208E+01  0.20055145778E+02 -0.73233710408E+03  0.73261903484E+03  0.00000000000E+00 0. -1.
          2    1    1    2  502    0 -0.32874514208E+01 -0.20055145778E+02 -0.42541997337E+03  0.42590511849E+03  0.00000000000E+00 0. -1.
</event>
<event>
 4    1  0.6136512E+003  0.2574156E+02  0.7546771E-02  0.1460676E+00
          2   -1    0    0  501    0  0.00000000000E+00  0.00000000000E+00  0.27385910204E+02  0.27385910204E+02  0.00000000000E+00 0. -1.
          2   -1    0    0  502    0 -0.00000000000E+00 -0.00000000000E+00 -0.13460157788E+04  0.13460157788E+04  0.00000000000E+00 0. -1.
          2    1    1    2  501    0 -0.69533893699E+01 -0.24784634328E+02 -0.13398157335E+04  0.13400629938E+04  0.00000000000E+00 0. -1.
          2    1    1    2  502    0  0.69533893699E+01  0.24784634328E+02  0.21185864914E+02  0.33338695156E+02  0.00000000000E+00 0. -1.
</event>
<event>
 4    1  0.6136512E+003  0.3877007E+02  0.7546771E-02  0.1355848E+00
          2   -1    0    0  501    0  0.00000000000E+00  0.00000000000E+00  0.43449137721E+03  0.43449137721E+03  0.00000000000E+00 0.  1.
          2   -1    0    0  502    0 -0.00000000000E+00 -0.00000000000E+00 -0.48947558164E+01  0.48947558164E+01  0.00000000000E+00 0.  1.
          2    1    1    2  501    0 -0.30545480659E+02  0.23876594829E+02  0.95833875484E+02  0.10337915583E+03  0.00000000000E+00 0.  1.
          2    1    1    2  502    0  0.30545480659E+02 -0.23876594829E+02  0.33376274591E+03  0.33600697720E+03  0.00000000000E+00 0.  1.
</event>
<event>
 4    1  0.6136512E+003  0.2048875E+02  0.7546771E-02  0.1526691E+00
          2   -1    0    0  502    0  0.00000000000E+00  0.00000000000E+00  0.38734236263E+02  0.38734236263E+02  0.00000000000E+00 0.  1.
          2   -1    0    0  501    0 -0.00000000000E+00 -0.00000000000E+00 -0.11143850407E+02  0.11143850407E+02  0.00000000000E+00 0.  1.
          2    1    1    2  501    0  0.16130277229E+02 -0.12633409455E+02  0.17929004834E+02  0.27225688096E+02  0.00000000000E+00 0.  1.
          2    1    1    2  502    0 -0.16130277229E+02  0.12633409455E+02  0.96613810215E+01  0.22652398575E+02  0.00000000000E+00 0.  1.
</event>
<event>
 4    1  0.6136512E+003  0.2421433E+02  0.7546771E-02  0.1477788E+00
          2   -1    0    0  502    0  0.00000000000E+00  0.00000000000E+00  0.40967855748E+01  0.40967855748E+01  0.00000000000E+00 0. -1.
          2   -1    0    0  501    0 -0.00000000000E+00 -0.00000000000E+00 -0.14693075594E+03  0.14693075594E+03  0.00000000000E+00 0. -1.
          2    1    1    2  501    0  0.13404145542E+02  0.20165881140E+02 -0.83577404329E+02  0.87014460834E+02  0.00000000000E+00 0. -1.
          2    1    1    2  502    0 -0.13404145542E+02 -0.20165881140E+02 -0.59256566036E+02  0.64013080681E+02  0.00000000000E+00 0. -1.
</event>
<event>
 4    1  0.6136512E+003  0.2823793E+02  0.7546771E-02  0.1435554E+00
          2   -1    0    0  502    0  0.00000000000E+00  0.00000000000E+00  0.20884917901E+03  0.20884917901E+03  0.00000000000E+00 0.  1.
          2   -1    0    0  501    0 -0.00000000000E+00 -0.00000000000E+00 -0.99177499177E+03  0.99177499177E+03  0.00000000000E+00 0.  1.
          2    1    1    2  501    0  0.35489967056E+01  0.28014024520E+02  0.20769257261E+03  0.20960340089E+03  0.00000000000E+00 0.  1.
          2    1    1    2  502    0 -0.35489967056E+01 -0.28014024520E+02 -0.99061838536E+03  0.99102076990E+03  0.00000000000E+00 0.  1.
</event>
<event>
 4    1  0.6136512E+003  0.2505126E+02  0.7546771E-02  0.1468231E+00
          2   -1    0    0  502    0  0.00000000000E+00  0.00000000000E+00  0.75911940245E+03  0.75911940245E+03  0.00000000000E+00 0.  1.
          2   -1    0    0  501    0 -0.00000000000E+00 -0.00000000000E+00 -0.32402861516E+02  0.32402861516E+02  0.00000000000E+00 0.  1.
          2    1    1    2  501    0 -0.46029990815E+01 -0.24624739705E+02  0.75403821014E+03  0.75445423172E+03  0.00000000000E+00 0.  1.
          2    1    1    2  502    0  0.46029990815E+01  0.24624739705E+02 -0.27321669210E+02  0.37068032245E+02  0.00000000000E+00 0.  1.
</event>
<event>
 4    1  0.6136512E+003  0.2201601E+02  0.7546771E-02  0.1505238E+00
          2   -1    0    0  501    0  0.00000000000E+00  0.00000000000E+00  0.33565300335E+02  0.33565300335E+02  0.00000000000E+00 0.  1.
          2   -1    0    0  502    0 -0.00000000000E+00 -0.00000000000E+00 -0.42511859029E+03  0.42511859029E+03  0.00000000000E+00 0.  1.
          2    1    1    2  501    0  0.17968676287E+02  0.12721298605E+02 -0.42118973418E+03  0.42176474123E+03  0.00000000000E+00 0.  1.
          2    1    1    2  502    0 -0.17968676287E+02 -0.12721298605E+02  0.29636444225E+02  0.36919149394E+02  0.00000000000E+00 0.  1.
</event>
<event>
 4    1  0.6136512E+003  0.2611665E+02  0.7546771E-02  0.1456689E+00
          2   -1    0    0  502    0  0.00000000000E+00  0.00000000000E+00  0.60959468831E+02  0.60959468831E+02  0.00000000000E+00 0.  1.
          2   -1    0    0  501    0 -0.00000000000E+00 -0.00000000000E+00 -0.63366042153E+03  0.63366042153E+03  0.00000000000E+00 0.  1.
          2    1    1    2  501    0  0.76231561737E+01  0.24979332882E+02  0.57879441915E+02  0.63498892728E+02  0.00000000000E+00 0.  1.
          2    1    1    2  502    0 -0.76231561737E+01 -0.24979332882E+02 -0.63058039461E+03  0.63112099763E+03  0.00000000000E+00 0.  1.
</event>
<event>
 4    1  0.6136512E+003  0.2652009E+02  0.7546771E-02  0.1452489E+00
          2   -1    0    0  501    0  0.00000000000E+00  0.00000000000E+00  0.57660690457E+03  0.57660690457E+03  0.00000000000E+00 0. -1.
          2   -1    0    0  502    0 -0.00000000000E+00 -0.00000000000E+00 -0.24261914359E+01  0.24261914359E+01  0.00000000000E+00 0. -1.
          2    1    1    2  501    0  0.25416633899E+02 -0.75703223048E+01  0.82933316586E+02  0.87070374172E+02  0.00000000000E+00 0. -1.
          2    1    1    2  502    0 -0.25416633899E+02  0.75703223048E+01  0.49124739654E+03  0.49196272183E+03  0.00000000000E+00 0. -1.
</event>
<event>
 4    1  0.6136512E+003  0.4708016E+02  0.7546771E-02  0.1311354E+00
          2   -1    0    0  501    0  0.00000000000E+00  0.00000000000E+00  0.79265591189E+01  0.79265591189E+01  0.00000000000E+00 0.  1.
          2   -1    0    0  502    0 -0.00000000000E+00 -0.00000000000E+00 -0.30403601540E+03  0.30403601540E+03  0.00000000000E+00 0.  1.
          2    1    1    2  501    0  0.37628950649E+02  0.28294942457E+02 -0.10386556252E+03  0.11403769891E+03  0.00000000000E+00 0.  1.
          2    1    1    2  502    0 -0.37628950649E+02 -0.28294942457E+02 -0.19224389376E+03  0.19792487560E+03  0.00000000000E+00 0.  1.
</event>
<event>
 4    1  0.6136512E+003  0.2576781E+02  0.7546771E-02  0.1460394E+00
          2   -1    0    0  501    0  0.00000000000E+00  0.00000000000E+00  0.24797603949E+02  0.24797603949E+02  0.00000000000E+00 0.  1.
          2   -1    0    0  502    0 -0.00000000000E+00 -0.00000000000E+00 -0.16922176710E+03  0.16922176710E+03  0.00000000000E+00 0.  1.
          2    1    1    2  501    0  0.80744748557E+01  0.24470036196E+02 -0.16121654961E+03  0.16326284233E+03  0.00000000000E+00 0.  1.
          2    1    1    2  502    0 -0.80744748557E+01 -0.24470036196E+02  0.16792386465E+02  0.30756528719E+02  0.00000000000E+00 0.  1.
</event>
<event>
 4    1  0.6136512E+003  0.2760088E+02  0.7546771E-02  0.1441664E+00
          2   -1    0    0  501    0  0.00000000000E+00  0.00000000000E+00  0.27688112792E+02  0.27688112792E+02  0.00000000000E+00 0.  1.
          2   -1    0    0  502    0 -0.00000000000E+00 -0.00000000000E+00 -0.17257140819E+04  0.17257140819E+04  0.00000000000E+00 0.  1.
          2    1    1    2  501    0  0.12371315616E+02 -0.24673046184E+02 -0.17186971583E+04  0.17189187679E+04  0.00000000000E+00 0.  1.
          2    1    1    2  502    0 -0.12371315616E+02  0.24673046184E+02  0.20671189221E+02  0.34483426771E+02  0.00000000000E+00 0.  1.
</event>
<event>
 4    1  0.6136512E+003  0.2031559E+02  0.7546771E-02  0.1529265E+00
          2   -1    0    0  501    0  0.00000000000E+00  0.00000000000E+00  0.66579507190E+00  0.66579507190E+00  0.00000000000E+00 0. -1.
          2   -1    0    0  502    0 -0.00000000000E+00 -0.00000000000E+00 -0.62794322247E+03  0.62794322247E+03  0.00000000000E+00 0. -1.
          2    1    1    2  501    0  0.60773490044E+01  0.19385277057E+02 -0.34922120073E+03  0.34981162099E+03  0.00000000000E+00 0. -1.
          2    1    1    2  502    0 -0.60773490044E+01 -0.19385277057E+02 -0.27805622667E+03  0.27879739656E+03  0.00000000000E+00 0. -1.
</event>
<event>
 4    1  0.6136512E+003  0.6554978E+02  0.7546771E-02  0.1242059E+00
          2   -1    0    0  502    0  0.00000000000E+00  0.00000000000E+00  0.60025648159E+02  0.60025648159E+02  0.00000000000E+00 0. -1.
          2   -1    0    0  501    0 -0.00000000000E+00 -0.00000000000E+00 -0.12205400448E+04  0.12205400448E+04  0.00000000000E+00 0. -1.
          2    1    1    2  501    0 -0.65090962321E+02  0.77421411953E+01  0.40966305145E+02  0.77298203623E+02  0.00000000000E+00 0. -1.
          2    1    1    2  502    0  0.65090962321E+02 -0.77421411953E+01 -0.12014807017E+04  0.12032674893E+04  0.00000000000E+00 0. -1.
</event>
<event>
 4    1  0.6136512E+003  0.2742374E+02  0.7546771E-02  0.1443397E+00
          2   -1    0    0  501    0  0.00000000000E+00  0.00000000000E+00  0.23895511066E+02  0.23895511066E+02  0.00000000000E+00 0. -1.
          2   -1    0    0  502    0 -0.00000000000E+00 -0.00000000000E+00 -0.40807060198E+02  0.40807060198E+02  0.00000000000E+00 0. -1.
          2    1    1    2  501    0 -0.20886617408E+02  0.17771059580E+02 -0.23928300100E+02  0.36395396563E+02  0.00000000000E+00 0. -1.
          2    1    1    2  502    0  0.20886617408E+02 -0.17771059580E+02  0.70167509683E+01  0.28307174700E+02  0.00000000000E+00 0. -1.
</event>
<event>
 4    1  0.6136512E+003  0.2454670E+02  0.7546771E-02  0.1473939E+00
          2   -1    0    0  502    0  0.00000000000E+00  0.00000000000E+00  0.32713997980E+01  0.32713997980E+01  0.00000000000E+00 0.  1.
          2   -1    0    0  501    0 -0.00000000000E+00 -0.00000000000E+00 -0.46696490661E+03  0.46696490661E+03  0.00000000000E+00 0.  1.
          2    1    1    2  501    0  0.44792311241E+01 -0.24134557488E+02 -0.48881392966E+02  0.54698546187E+02  0.00000000000E+00 0.  1.
          2    1    1    2  502    0 -0.44792311241E+01  0.24134557488E+02 -0.41481211385E+03  0.41553776023E+03  0.00000000000E+00 0.  1.
</event>
<event>
 4    1  0.6136512E+003  0.3999169E+02  0.7546771E-02  0.1348535E+00
          2   -1    0    0  501    0  0.00000000000E+00  0.00000000000E+00  0.16102316437E+01  0.16102316437E+01  0.00000000000E+00 0.  1.
          2   -1    0    0  502    0 -0.00000000000E+00 -0.00000000000E+00 -0.12238224098E+04  0.12238224098E+04  0.00000000000E+00 0.  1.
          2    1    1    2  501    0  0.38219416381E+02  0.11773331917E+02 -0.87706832149E+03  0.87797959867E+03  0.00000000000E+00 0.  1.
          2    1    1    2  502    0 -0.38219416381E+02 -0.11773331917E+02 -0.34514385668E+03  0.34745304278E+03  0.00000000000E+00 0.  1.
</event>
<event>
 4    1  0.6136512E+003  0.9749800E+02  0.7546771E-02  0.1168216E+00
          2   -1    0    0  502    0  0.00000000000E+00  0.00000000000E+00  0.28298217616E+04  0.28298217616E+04  0.00000000000E+00 0.  1.
          2   -1    0    0  501    0 -0.00000000000E+00 -0.00000000000E+00 -0.47945184370E+01  0.47945184370E+01  0.00000000000E+00 0.  1.
          2    1    1    2  501    0 -0.36168497835E+02  0.90541145169E+02  0.21879927075E+04  0.21901639088E+04  0.00000000000E+00 0.  1.
          2    1    1    2  502    0  0.36168497835E+02 -0.90541145169E+02  0.63703453563E+03  0.64445237124E+03  0.00000000000E+00 0.  1.
</event>
<event>
 4    1  0.6136512E+003  0.5479956E+02  0.7546771E-02  0.1278605E+00
          2   -1    0    0  502    0  0.00000000000E+00  0.00000000000E+00  0.25023462087E+01  0.25023462087E+01  0.00000000000E+00 0.  1.
          2   -1    0    0  501    0 -0.00000000000E+00 -0.00000000000E+00 -0.19644648868E+04  0.19644648868E+04  0.00000000000E+00 0. -1.
          2    1    1    2  501    0  0.19555428198E+02 -0.51191571283E+02 -0.36749654657E+03  0.37155982491E+03  0.00000000000E+00 0.  1.
          2    1    1    2  502    0 -0.19555428198E+02  0.51191571283E+02 -0.15944659940E+04  0.15954074081E+04  0.00000000000E+00 0. -1.
</event>
<event>
 4    1  0.6136512E+003  0.2177166E+02  0.7546771E-02  0.1508527E+00
          2   -1    0    0  502    0  0.00000000000E+00  0.00000000000E+00  0.22668893191E+02  0.22668893191E+02  0.00000000000E+00 0.  1.
          2   -1    0    0  501    0 -0.00000000000E+00 -0.00000000000E+00 -0.42518362963E+02  0.42518362963E+02  0.00000000000E+00 0.  1.
          2    1    1    2  501    0  0.89380966818E+01  0.19852342776E+02  0.13310979158E+02  0.25518370876E+02  0.00000000000E+00 0.  1.
          2    1    1    2  502    0 -0.89380966818E+01 -0.19852342776E+02 -0.33160448930E+02  0.39668885278E+02  0.00000000000E+00 0.  1.
</event>
<event>
 4    1  0.6136512E+003  0.2259585E+02  0.7546771E-02  0.1497636E+00
          2   -1    0    0  502    0  0.00000000000E+00  0.00000000000E+00  0.49009168129E+03  0.49009168129E+03  0.00000000000E+00 0. -1.
          2   -1    0    0  501    0 -0.00000000000E+00 -0.00000000000E+00 -0.19709546193E+01  0.19709546193E+01  0.00000000000E+00 0.  1.
          2    1    1    2  501    0  0.22545028352E+02 -0.15145769634E+01  0.41298717580E+03  0.41360485929E+03  0.00000000000E+00 0. -1.
          2    1    1    2  502    0 -0.22545028352E+02  0.15145769634E+01  0.75133550870E+02  0.78457776627E+02  0.00000000000E+00 0.  1.
</event>
<event>
 4    1  0.6136512E+003  0.5020911E+02  0.7546771E-02  0.1297268E+00
          2   -1    0    0  501    0  0.00000000000E+00  0.00000000000E+00  0.10105366940E+03  0.10105366940E+03  0.00000000000E+00 0. -1.
          2   -1    0    0  502    0 -0.00000000000E+00 -0.00000000000E+00 -0.43449884282E+02  0.43449884282E+02  0.00000000000E+00 0. -1.
          2    1    1    2  501    0 -0.28405498146E+02  0.41401480616E+02 -0.18347655327E+02  0.53456443747E+02  0.00000000000E+00 0. -1.
          2    1    1    2  502    0  0.28405498146E+02 -0.41401480616E+02  0.75951440445E+02  0.91047109936E+02  0.00000000000E+00 0. -1.
</event>
<event>
 4    1  0.6136512E+003  0.2930623E+02  0.7546771E-02  0.1425723E+00
          2   -1    0    0  501    0  0.00000000000E+00  0.00000000000E+00  0.45666206349E+02  0.45666206349E+02  0.00000000000E+00 0. -1.
          2   -1    0    0  502    0 -0.00000000000E+00 -0.00000000000E+00 -0.95195457207E+02  0.95195457207E+02  0.00000000000E+00 0.  1.
          2    1    1    2  501    0 -0.18333355657E+02  0.22863576278E+02 -0.87855697655E+02  0.92614678428E+02  0.00000000000E+00 0.  1.
          2    1    1    2  502    0  0.18333355657E+02 -0.22863576278E+02  0.38326446796E+02  0.48246985128E+02  0.00000000000E+00 0. -1.
</event>
<event>
 4    1  0.6136512E+003  0.2916990E+02  0.7546771E-02  0.1426950E+00
          2   -1    0    0  501    0  0.00000000000E+00  0.00000000000E+00  0.10785678241E+03  0.10785678241E+03  0.00000000000E+00 0. -1.
          2   -1    0    0  502    0 -0.00000000000E+00 -0.00000000000E+00 -0.33333791929E+03  0.33333791929E+03  0.00000000000E+00 0. -1.
          2    1    1    2  501    0  0.24728569419E+02 -0.15471936865E+02 -0.33071188350E+03  0.33199583260E+03  0.00000000000E+00 0. -1.
          2    1    1    2  502    0 -0.24728569419E+02  0.15471936865E+02  0.10523074663E+03  0.10919886910E+03  0.00000000000E+00 0. -1.
</event>
<event>
 4    1  0.6136512E+003  0.2589895E+02  0.7546771E-02  0.1458993E+00
          2   -1    0    0  502    0  0.00000000000E+00  0.00000000000E+00  0.41474855897E+03  0.41474855897E+03  0.00000000000E+00 0. -1.
          2   -1    0    0  501    0 -0.00000000000E+00 -0.00000000000E+00 -0.67559127978E+01  0.67559127978E+01  0.00000000000E+00 0.  1.
          2    1    1    2  501    0 -0.21068650337E+02 -0.15062132131E+02  0.38780027790E+03  0.38866413700E+03  0.00000000000E+00 0. -1.
          2    1    1    2  502    0  0.21068650337E+02  0.15062132131E+02  0.20192368280E+02  0.32840334775E+02  0.00000000000E+00 0.  1.
</event>
<event>
 4    1  0.6136512E+003  0.2041243E+02  0.7546771E-02  0.1527822E+00
          2   -1    0    0  501    0  0.00000000000E+00  0.00000000000E+00  0.70803044860E+03  0.70803044860E+03  0.00000000000E+00 0. -1.
          2   -1    0    0  502    0 -0.00000000000E+00 -0.00000000000E+00 -0.43229850737E+03  0.43229850737E+03  0.00000000000E+00 0.  1.
          2    1    1    2  501    0  0.19597422246E+02  0.57103650024E+01 -0.43191029290E+03  0.43239237776E+03  0.00000000000E+00 0.  1.
          2    1    1    2  502    0 -0.19597422246E+02 -0.57103650024E+01  0.70764223414E+03  0.70793657821E+03  0.00000000000E+00 0. -1.
</event>
<event>
 4    1  0.6136512E+003  0.2067980E+02  0.7546771E-02  0.1523886E+00
          2   -1    0    0  502    0  0.00000000000E+00  0.00000000000E+00  0.94557651642E+02  0.94557651642E+02  0.00000000000E+00 0. -1.
          2   -1    0    0  501    0 -0.00000000000E+00 -0.00000000000E+00 -0.62296711311E+02  0.62296711311E+02  0.00000000000E+00 0. -1.
          2    1    1    2  501    0  0.18826180493E+02  0.85574061929E+01  0.91657146388E+02  0.93961091717E+02  0.00000000000E+00 0. -1.
          2    1    1    2  502    0 -0.18826180493E+02 -0.85574061929E+01 -0.59396206057E+02  0.62893271235E+02  0.00000000000E+00 0. -1.
</event>
<event>
 4    1  0.6136512E+003  0.2041175E+02  0.7546771E-02  0.1527832E+00
          2   -1    0    0  502    0  0.00000000000E+00  0.00000000000E+00  0.60818601878E+02  0.60818601878E+02  0.00000000000E+00 0.  1.
          2   -1    0    0  501    0 -0.00000000000E+00 -0.00000000000E+00 -0.68196136512E+02  0.68196136512E+02  0.00000000000E+00 0. -1.
          2    1    1    2  501    0 -0.16257296692E+02  0.12342594684E+02  0.57492884125E+02  0.61008778584E+02  0.00000000000E+00 0.  1.
          2    1    1    2  502    0  0.16257296692E+02 -0.12342594684E+02 -0.64870418758E+02  0.68005959806E+02  0.00000000000E+00 0. -1.
</event>
<event>
 4    1  0.6136512E+003  0.2027631E+02  0.7546771E-02  0.1529853E+00
          2   -1    0    0  502    0  0.00000000000E+00  0.00000000000E+00  0.14173294259E+04  0.14173294259E+04  0.00000000000E+00 0.  1.
          2   -1    0    0  501    0 -0.00000000000E+00 -0.00000000000E+00 -0.14333606159E+02  0.14333606159E+02  0.00000000000E+00 0.  1.
          2    1    1    2  501    0 -0.16785237958E+02  0.11374728398E+02  0.14100491742E+04  0.14101949519E+04  0.00000000000E+00 0.  1.
          2    1    1    2  502    0  0.16785237958E+02 -0.11374728398E+02 -0.70533544198E+01  0.21468080213E+02  0.00000000000E+00 0.  1.
</event>
<event>
 4    1  0.6136512E+003  0.3126330E+02  0.7546771E-02  0.1408927E+00
          2   -1    0    0  502    0  0.00000000000E+00  0.00000000000E+00  0.27273103993E+01  0.27273103993E+01  0.00000000000E+00 0. -1.
          2   -1    0    0  501    0 -0.00000000000E+00 -0.00000000000E+00 -0.68595030177E+03  0.68595030177E+03  0.00000000000E+00 0. -1.
          2    1    1    2  501    0  0.10834853555E+02  0.29325749664E+02 -0.10365545720E+03  0.10826748105E+03  0.00000000000E+00 0. -1.
          2    1    1    2  502    0 -0.10834853555E+02 -0.29325749664E+02 -0.57956753417E+03  0.58041013112E+03  0.00000000000E+00 0. -1.
</event>
<event>
 4    1  0.6136512E+003  0.3072053E+02  0.7546771E-02  0.1413436E+00
          2   -1    0    0  501    0  0.00000000000E+00  0.00000000000E+00  0.10270065995E+04  0.10270065995E+04  0.00000000000E+00 0.  1.
          2   -1    0    0  502    0 -0.00000000000E+00 -0.00000000000E+00 -0.11845453944E+02  0.11845453944E+02  0.00000000000E+00 0. -1.
          2    1    1    2  501    0  0.88259366229E+01  0.29425391581E+02  0.87089590614E+01  0.31931125800E+02  0.00000000000E+00 0. -1.
          2    1    1    2  502    0 -0.88259366229E+01 -0.29425391581E+02  0.10064521865E+04  0.10069209277E+04  0.00000000000E+00 0.  1.
</event>
<event>
 4    1  0.6136512E+003  0.3570651E+02  0.7546771E-02  0.1375663E+00
          2   -1    0    0  502    0  0.00000000000E+00  0.00000000000E+00  0.72278740411E+01  0.72278740411E+01  0.00000000000E+00 0. -1.
          2   -1    0    0  501    0 -0.00000000000E+00 -0.00000000000E+00 -0.74856260721E+03  0.74856260721E+03  0.00000000000E+00 0. -1.
          2    1    1    2  501    0 -0.26080145294E+02 -0.24388127646E+02 -0.40283135188E+02  0.53830156318E+02  0.00000000000E+00 0. -1.
          2    1    1    2  502    0  0.26080145294E+02  0.24388127646E+02 -0.70105159798E+03  0.70196032493E+03  0.00000000000E+00 0. -1.
</event>
<event>
 4    1  0.6136512E+003  0.2294230E+02  0.7546771E-02  0.1493224E+00
          2   -1    0    0  502    0  0.00000000000E+00  0.00000000000E+00  0.17060046523E+02  0.17060046523E+02  0.00000000000E+00 0. -1.
          2   -1    0    0  501    0 -0.00000000000E+00 -0.00000000000E+00 -0.15902418757E+03  0.15902418757E+03  0.00000000000E+00 0. -1.
          2    1    1    2  501    0  0.16402840494E+02 -0.16040440595E+02  0.80593170282E+01  0.24316691833E+02  0.00000000000E+00 0. -1.
          2    1    1    2  502    0 -0.16402840494E+02  0.16040440595E+02 -0.15002345807E+03  0.15176754226E+03  0.00000000000E+00 0. -1.
</event>
<event>
 4    1  0.6136512E+003  0.3118877E+02  0.7546771E-02  0.1409540E+00
          2   -1    0    0  501    0  0.00000000000E+00  0.00000000000E+00  0.13488990120E+04  0.13488990120E+04  0.00000000000E+00 0.  1.
          2   -1    0    0  502    0 -0.00000000000E+00 -0.00000000000E+00 -0.12087866326E+02  0.12087866326E+02  0.00000000000E+00 0.  1.
          2    1    1    2  501    0 -0.30488814774E+02 -0.65704850615E+01  0.85226278631E+01  0.32332248390E+02  0.00000000000E+00 0.  1.
          2    1    1    2  502    0  0.30488814774E+02  0.65704850615E+01  0.13282885178E+04  0.13286546300E+04  0.00000000000E+00 0.  1.
</event>
<event>
 4    1  0.6136512E+003  0.2315198E+02  0.7546771E-02  0.1490599E+00
          2   -1    0    0  501    0  0.00000000000E+00  0.00000000000E+00  0.17674361392E+03  0.17674361392E+03  0.00000000000E+00 0. -1.
          2   -1    0    0  502    0 -0.00000000000E+00 -0.00000000000E+00 -0.16992630539E+04  0.16992630539E+04  0.00000000000E+00 0. -1.
          2    1    1    2  501    0  0.20132995491E+02  0.11431388021E+02 -0.16984256400E+04  0.16985834300E+04  0.00000000000E+00 0. -1.
          2    1    1    2  502    0 -0.20132995491E+02 -0.11431388021E+02  0.17590619998E+03  0.17742323785E+03  0.00000000000E+00 0. -1.
</event>
<event>
 4    1  0.6136512E+003  0.5438920E+02  0.7546771E-02  0.1280187E+00
          2   -1    0    0  502    0  0.00000000000E+00  0.00000000000E+00  0.48882475742E+01  0.48882475742E+01  0.00000000000E+00 0. -1.
          2   -1    0    0  501    0 -0.00000000000E+00 -0.00000000000E+00 -0.67603415513E+03  0.67603415513E+03  0.00000000000E+00 0.  1.
          2    1    1    2  501    0  0.33733461455E+02  0.42664252894E+02 -0.22533805425E+03  0.23180902396E+03  0.00000000000E+00 0. -1.
          2    1    1    2  502    0 -0.33733461455E+02 -0.42664252894E+02 -0.44580785331E+03  0.44911337875E+03  0.00000000000E+00 0.  1.
</event>
<event>
 4    1  0.6136512E+003  0.2830876E+02  0.7546771E-02  0.1434887E+00
          2   -1    0    0  502    0  0.00000000000E+00  0.00000000000E+00  0.50020897207E+02  0.50020897207E+02  0.00000000000E+00 0. -1.
          2   -1    0    0  501    0 -0.00000000000E+00 -0.00000000000E+00 -0.42745458542E+03  0.42745458542E+03  0.00000000000E+00 0. -1.
          2    1    1    2  501    0  0.12580506094E+02  0.25359742334E+02  0.45504221008E+02  0.53591228708E+02  0.00000000000E+00 0. -1.
          2    1    1    2  502    0 -0.12580506094E+02 -0.25359742334E+02 -0.42293790922E+03  0.42388425392E+03  0.00000000000E+00 0. -1.
</event>
<event>
 4    1  0.6136512E+003  0.9602606E+02  0.7546771E-02  0.1170878E+00
          2   -1    0    0  502    0  0.00000000000E+00  0.00000000000E+00  0.54457047447E+03  0.54457047447E+03  0.00000000000E+00 0.  1.
          2   -1    0    0  501    0 -0.00000000000E+00 -0.00000000000E+00 -0.17110685704E+02  0.17110685704E+02  0.00000000000E+00 0.  1.
          2    1    1    2  501    0 -0.32042767574E+02 -0.90522175774E+02  0.23508020073E+03  0.25393641730E+03  0.00000000000E+00 0.  1.
          2    1    1    2  502    0  0.32042767574E+02  0.90522175774E+02  0.29237958804E+03  0.30774474287E+03  0.00000000000E+00 0.  1.
</event>
<event>
 4    1  0.6136512E+003  0.2493044E+02  0.7546771E-02  0.1469583E+00
          2   -1    0    0  502    0  0.00000000000E+00  0.00000000000E+00  0.67131977772E+03  0.67131977772E+03  0.00000000000E+00 0. -1.
          2   -1    0    0  501    0 -0.00000000000E+00 -0.00000000000E+00 -0.52498705717E+01  0.52498705717E+01  0.00000000000E+00 0. -1.
          2    1    1    2  501    0  0.44890498512E+01  0.24522952241E+02  0.64004542564E+03  0.64053077493E+03  0.00000000000E+00 0. -1.
          2    1    1    2  502    0 -0.44890498512E+01 -0.24522952241E+02  0.26024481512E+02  0.36038873361E+02  0.00000000000E+00 0. -1.
</event>
<event>
 4    1  0.6136512E+003  0.2390744E+02  0.7546771E-02  0.1481407E+00
          2   -1    0    0  502    0  0.00000000000E+00  0.00000000000E+00  0.11463347259E+04  0.11463347259E+04  0.00000000000E+00 0. -1.
          2   -1    0    0  501    0 -0.00000000000E+00 -0.00000000000E+00 -0.49488215045E+01  0.49488215045E+01  0.00000000000E+00 0. -1.
          2    1    1    2  501    0  0.23730662911E+02 -0.29019296852E+01  0.11165665525E+04  0.11168224710E+04  0.00000000000E+00 0. -1.
          2    1    1    2  502    0 -0.23730662911E+02  0.29019296852E+01  0.24819351859E+02  0.34461076373E+02  0.00000000000E+00 0. -1.
</event>
<event>
 4    1  0.6136512E+003  0.2133758E+02  0.7546771E-02  0.1514499E+00
          2   -1    0    0  501    0  0.00000000000E+00  0.00000000000E+00  0.43475183052E+03  0.43475183052E+03  0.00000000000E+00 0. -1.
          2   -1    0    0  502    0 -0.00000000000E+00 -0.00000000000E+00 -0.22202854681E+03  0.22202854681E+03  0.00000000000E+00 0.  1.
          2    1    1    2  501    0 -0.47364523727E+01  0.20805251857E+02 -0.22125316886E+03  0.22227968242E+03  0.00000000000E+00 0.  1.
          2    1    1    2  502    0  0.47364523727E+01 -0.20805251857E+02  0.43397645257E+03  0.43450069491E+03  0.00000000000E+00 0. -1.
</event>
<event>
 4    1  0.6136512E+003  0.2372310E+02  0.7546771E-02  0.1483612E+00
          2   -1    0    0  501    0  0.00000000000E+00  0.00000000000E+00  0.16972692149E+01  0.16972692149E+01  0.00000000000E+00 0.  1.
          2   -1    0    0  502    0 -0.00000000000E+00 -0.00000000000E+00 -0.12819528302E+04  0.12819528302E+04  0.00000000000E+00 0. -1.
          2    1    1    2  501    0  0.23220585633E+02 -0.48569202329E+01 -0.11927483010E+04  0.11929841973E+04  0.00000000000E+00 0. -1.
          2    1    1    2  502    0 -0.23220585633E+02  0.48569202329E+01 -0.87507259993E+02  0.90665902205E+02  0.00000000000E+00 0.  1.
</event>
<event>
 4    1  0.6136512E+003  0.6466840E+02  0.7546771E-02  0.1244746E+00
          2   -1    0    0  502    0  0.00000000000E+00  0.00000000000E+00  0.83335947371E+03  0.83335947371E+03  0.00000000000E+00 0.  1.
          2   -1    0    0  501    0 -0.00000000000E+00 -0.00000000000E+00 -0.47477186668E+02  0.47477186668E+02  0.00000000000E+00 0.  1.
          2    1    1    2  501    0  0.54589868926E+02 -0.34669123349E+02  0.80943392705E+03  0.81201310590E+03  0.00000000000E+00 0.  1.
          2    1    1    2  502    0 -0.54589868926E+02  0.34669123349E+02 -0.23551640007E+02  0.68823554472E+02  0.00000000000E+00 0.  1.
</event>
<event>
 4    1  0.6136512E+003  0.3407581E+02  0.7546771E-02  0.1387180E+00
          2   -1    0    0  501    0  0.00000000000E+00  0.00000000000E+00  0.77808474378E+03  0.77808474378E+03  0.00000000000E+00 0.  1.
          2   -1    0    0  502    0 -0.00000000000E+00 -0.00000000000E+00 -0.17080636386E+01  0.17080636386E+01  0.00000000000E+00 0. -1.
          2    1    1    2  501    0  0.32243154664E+02 -0.11024495679E+02  0.52675362198E+03  0.52785465689E+03  0.00000000000E+00 0.  1.
          2    1    1    2  502    0 -0.32243154664E+02  0.11024495679E+02  0.24962305816E+03  0.25193815053E+03  0.00000000000E+00 0. -1.
</event>
<event>
 4    1  0.6136512E+003  0.2138220E+02  0.7546771E-02  0.1513877E+00
          2   -1    0    0  501    0  0.00000000000E+00  0.00000000000E+00  0.29060998462E+02  0.29060998462E+02  0.00000000000E+00 0.  1.
          2   -1    0    0  502    0 -0.00000000000E+00 -0.00000000000E+00 -0.70810253160E+03  0.70810253160E+03  0.00000000000E+00 0.  1.
          2    1    1    2  501    0  0.18388815175E+02  0.10910996352E+02 -0.70398502372E+03  0.70430967052E+03  0.00000000000E+00 0.  1.
          2    1    1    2  502    0 -0.18388815175E+02 -0.10910996352E+02  0.24943490578E+02  0.32853859547E+02  0.00000000000E+00 0.  1.
</event>
<event>
 4    1  0.6136512E+003  0.2408397E+02  0.7546771E-02  0.1479318E+00
          2   -1    0    0  502    0  0.00000000000E+00  0.00000000000E+00  0.21596983919E+01  0.21596983919E+01  0.00000000000E+00 0. -1.
          2   -1    0    0  501    0 -0.00000000000E+00 -0.00000000000E+00 -0.48751250631E+03  0.48751250631E+03  0.00000000000E+00 0.  1.
          2    1    1    2  501    0  0.24079104438E+02  0.48389230913E+00 -0.78600690599E+02  0.82207700278E+02  0.00000000000E+00 0. -1.
          2    1    1    2  502    0 -0.24079104438E+02 -0.48389230913E+00 -0.40675211732E+03  0.40746450442E+03  0.00000000000E+00 0.  1.
</event>
<event>
 4    1  0.6136512E+003  0.2994316E+02  0.7546771E-02  0.1420091E+00
          2   -1    0    0  501    0  0.00000000000E+00  0.00000000000E+00  0.70786917341E+01  0.70786917341E+01  0.00000000000E+00 0. -1.
          2   -1    0    0  502    0 -0.00000000000E+00 -0.00000000000E+00 -0.37592688817E+03  0.37592688817E+03  0.00000000000E+00 0.  1.
          2    1    1    2  501    0  0.21850459683E+02  0.20473156408E+02 -0.34036319492E+03  0.34167776804E+03  0.00000000000E+00 0.  1.
          2    1    1    2  502    0 -0.21850459683E+02 -0.20473156408E+02 -0.28485001522E+02  0.41327811863E+02  0.00000000000E+00 0. -1.
</event>
<event>
 4    1  0.6136512E+003  0.2255591E+02  0.7546771E-02  0.1498151E+00
          2   -1    0    0  502    0  0.00000000000E+00  0.00000000000E+00  0.19228780717E+01  0.19228780717E+01  0.00000000000E+00 0. -1.
          2   -1    0    0  501    0 -0.00000000000E+00 -0.00000000000E+00 -0.10100089289E+04  0.10100089289E+04  0.00000000000E+00 0.  1.
          2    1    1    2  501    0 -0.11779923067E+02 -0.19235448125E+02 -0.69373043122E+02  0.72947845506E+02  0.00000000000E+00 0. -1.
          2    1    1    2  502    0  0.11779923067E+02  0.19235448125E+02 -0.93871300766E+03  0.93898396142E+03  0.00000000000E+00 0.  1.
</event>
<event>
 4    1  0.6136512E+003  0.2232380E+02  0.7546771E-02  0.1501168E+00
          2   -1    0    0  502    0  0.00000000000E+00  0.00000000000E+00  0.52036261119E+03  0.52036261119E+03  0.00000000000E+00 0. -1.
          2   -1    0    0  501    0 -0.00000000000E+00 -0.00000000000E+00 -0.61037648759E+01  0.61037648759E+01  0.00000000000E+00 0. -1.
          2    1    1    2  501    0  0.21846364965E+02 -0.45922100108E+01  0.49883090375E+03  0.49933017392E+03  0.00000000000E+00 0. -1.
          2    1    1    2  502    0 -0.21846364965E+02  0.45922100108E+01  0.15427942566E+02  0.27136202144E+02  0.00000000000E+00 0. -1.
</event>
<event>
 4    1  0.1718847E+004  0.3071579E+02  0.7546771E-02  0.1413476E+00
          2   -1    0    0  501    0  0.00000000000E+00  0.00000000000E+00  0.84384122855E+03  0.84384122855E+03  0.00000000000E+00 0. -1.
          2   -1    0    0  502    0 -0.00000000000E+00 -0.00000000000E+00 -0.10401042286E+04  0.10401042286E+04  0.00000000000E+00 0.  1.
          2    1    1    2  501    0  0.56732686984E+01 -0.30187309350E+02 -0.10395978086E+04  0.10400514715E+04  0.00000000000E+00 0.  1.
          2    1    1    2  502    0 -0.56732686984E+01  0.30187309350E+02  0.84333480860E+03  0.84389398565E+03  0.00000000000E+00 0. -1.
</event>
<event>
 4    1  0.6136512E+003  0.2981402E+02  0.7546771E-02  0.1421220E+00
          2   -1    0    0  501    0  0.00000000000E+00  0.00000000000E+00  0.15046652375E+04  0.15046652375E+04  0.00000000000E+00 0. -1.
          2   -1    0    0  502    0 -0.00000000000E+00 -0.00000000000E+00 -0.33651073330E+01  0.33651073330E+01  0.00000000000E+00 0. -1.
          2    1    1    2  501    0  0.29813996976E+02  0.32876875462E-01  0.66010318284E+02  0.72430916166E+02  0.00000000000E+00 0. -1.
          2    1    1    2  502    0 -0.29813996976E+02 -0.32876875462E-01  0.14352898119E+04  0.14355994287E+04  0.00000000000E+00 0. -1.
</event>
<event>
 4    1  0.6136512E+003  0.3053779E+02  0.7546771E-02  0.1414980E+00
          2   -1    0    0  501    0  0.00000000000E+00  0.00000000000E+00  0.36902552833E+01  0.36902552833E+01  0.00000000000E+00 0.  1.
          2   -1    0    0  502    0 -0.00000000000E+00 -0.00000000000E+00 -0.14588940612E+04  0.14588940612E+04  0.00000000000E+00 0. -1.
          2    1    1    2  501    0 -0.17028726571E+02 -0.25349148252E+02 -0.13925476307E+04  0.13928824288E+04  0.00000000000E+00 0. -1.
          2    1    1    2  502    0  0.17028726571E+02  0.25349148252E+02 -0.62656175188E+02  0.69701887599E+02  0.00000000000E+00 0.  1.
</event>
<event>
 4    1  0.6136512E+003  0.2025078E+02  0.7546771E-02  0.1530236E+00
          2   -1    0    0  502    0  0.00000000000E+00  0.00000000000E+00  0.11641469830E+01  0.11641469830E+01  0.00000000000E+00 0. -1.
          2   -1    0    0  501    0 -0.00000000000E+00 -0.00000000000E+00 -0.78820565135E+03  0.78820565135E+03  0.00000000000E+00 0. -1.
          2    1    1    2  501    0 -0.18338433762E+02 -0.85904574859E+01 -0.99997906997E+02  0.10202781737E+03  0.00000000000E+00 0. -1.
          2    1    1    2  502    0  0.18338433762E+02  0.85904574859E+01 -0.68704359737E+03  0.68734198097E+03  0.00000000000E+00 0. -1.
</event>
<event>
 4    1  0.6136512E+003  0.5496791E+02  0.7546771E-02  0.1277960E+00
          2   -1    0    0  502    0  0.00000000000E+00  0.00000000000E+00  0.14404700888E+04  0.14404700888E+04  0.00000000000E+00 0. -1.
          2   -1    0    0  501    0 -0.00000000000E+00 -0.00000000000E+00 -0.77790297229E+03  0.77790297229E+03  0.00000000000E+00 0.  1.
          2    1    1    2  501    0 -0.54960849959E+02 -0.88126426514E+00  0.14389736585E+04  0.14400231462E+04  0.00000000000E+00 0. -1.
          2    1    1    2  502    0  0.54960849959E+02  0.88126426514E+00 -0.77640654197E+03  0.77834991493E+03  0.00000000000E+00 0.  1.
</event>
<event>
 4    1  0.6136512E+003  0.3087041E+02  0.7546771E-02  0.1412180E+00
          2   -1    0    0  501    0  0.00000000000E+00  0.00000000000E+00  0.13474799071E+03  0.13474799071E+03  0.00000000000E+00 0. -1.
          2   -1    0    0  502    0 -0.00000000000E+00 -0.00000000000E+00 -0.14142864441E+04  0.14142864441E+04  0.00000000000E+00 0. -1.
          2    1    1    2  501    0 -0.29285356216E+02  0.97647287250E+01 -0.14123474787E+04  0.14126848136E+04  0.00000000000E+00 0. -1.
          2    1    1    2  502    0  0.29285356216E+02 -0.97647287250E+01  0.13280902527E+03  0.13634962123E+03  0.00000000000E+00 0. -1.
</event>
<event>
 4    1  0.6136512E+003  0.3401386E+02  0.7546771E-02  0.1387632E+00
          2   -1    0    0  501    0  0.00000000000E+00  0.00000000000E+00  0.10203004805E+04  0.10203004805E+04  0.00000000000E+00 0. -1.
          2   -1    0    0  502    0 -0.00000000000E+00 -0.00000000000E+00 -0.63162572356E+01  0.63162572356E+01  0.00000000000E+00 0.  1.
          2    1    1    2  501    0  0.32311086134E+02 -0.10627168010E+02  0.42036902993E+02  0.54074432039E+02  0.00000000000E+00 0.  1.
          2    1    1    2  502    0 -0.32311086134E+02  0.10627168010E+02  0.97194732026E+03  0.97254230569E+03  0.00000000000E+00 0. -1.
</event>
<event>
 4    1  0.6136512E+003  0.3860566E+02  0.7546771E-02  0.1356856E+00
          2   -1    0    0  501    0  0.00000000000E+00  0.00000000000E+00  0.63698992876E+01  0.63698992876E+01  0.00000000000E+00 0. -1.
          2   -1    0    0  502    0 -0.00000000000E+00 -0.00000000000E+00 -0.41796655704E+03  0.41796655704E+03  0.00000000000E+00 0.  1.
          2    1    1    2  501    0  0.33398795320E+02  0.19362783991E+02 -0.34656783176E+03  0.34871142646E+03  0.00000000000E+00 0.  1.
          2    1    1    2  502    0 -0.33398795320E+02 -0.19362783991E+02 -0.65028825997E+02  0.75625029873E+02  0.00000000000E+00 0. -1.
</event>
<event>
 4    1  0.6136512E+003  0.2290174E+02  0.7546771E-02  0.1493736E+00
          2   -1    0    0  501    0  0.00000000000E+00  0.00000000000E+00  0.26809704541E+03  0.26809704541E+03  0.00000000000E+00 0. -1.
          2   -1    0    0  502    0 -0.00000000000E+00 -0.00000000000E+00 -0.30351940683E+01  0.30351940683E+01  0.00000000000E+00 0.  1.
          2    1    1    2  501    0 -0.21103350724E+02  0.88959655537E+01  0.51707211586E+02  0.56551970301E+02  0.00000000000E+00 0.  1.
          2    1    1    2  502    0  0.21103350724E+02 -0.88959655537E+01  0.21335463976E+03  0.21458026918E+03  0.00000000000E+00 0. -1.
</event>
<event>
 4    1  0.6136512E+003  0.2940286E+02  0.7546771E-02  0.1424858E+00
          2   -1    0    0  502    0  0.00000000000E+00  0.00000000000E+00  0.38378428219E+01  0.38378428219E+01  0.00000000000E+00 0. -1.
          2   -1    0    0  501    0 -0.00000000000E+00 -0.00000000000E+00 -0.23541887945E+03  0.23541887945E+03  0.00000000000E+00 0. -1.
          2    1    1    2  501    0  0.20321269258E+02  0.21250272603E+02 -0.90944915823E+02  0.95579839841E+02  0.00000000000E+00 0. -1.
          2    1    1    2  502    0 -0.20321269258E+02 -0.21250272603E+02 -0.14063612081E+03  0.14367688243E+03  0.00000000000E+00 0. -1.
</event>
<event>
 4    1  0.6136512E+003  0.4991376E+02  0.7546771E-02  0.1298547E+00
          2   -1    0    0  501    0  0.00000000000E+00  0.00000000000E+00  0.11760849035E+04  0.11760849035E+04  0.00000000000E+00 0.  1.
          2   -1    0    0  502    0 -0.00000000000E+00 -0.00000000000E+00 -0.23521343722E+03  0.23521343722E+03  0.00000000000E+00 0.  1.
          2    1    1    2  501    0  0.37630861918E+02 -0.32791796312E+02 -0.23202865455E+03  0.23733663899E+03  0.00000000000E+00 0.  1.
          2    1    1    2  502    0 -0.37630861918E+02  0.32791796312E+02  0.11729001208E+04  0.11739617017E+04  0.00000000000E+00 0.  1.
</event>
<event>
 4    1  0.8803766E+003  0.2042122E+02  0.7546771E-02  0.1527691E+00
          2   -1    0    0  502    0  0.00000000000E+00  0.00000000000E+00  0.81797406453E+03  0.81797406453E+03  0.00000000000E+00 0.  1.
          2   -1    0    0  501    0 -0.00000000000E+00 -0.00000000000E+00 -0.11214265790E+04  0.11214265790E+04  0.00000000000E+00 0.  1.
          2    1    1    2  501    0  0.19557808051E+02  0.58752245633E+01  0.81775361468E+03  0.81800855769E+03  0.00000000000E+00 0.  1.
          2    1    1    2  502    0 -0.19557808051E+02 -0.58752245633E+01 -0.11212061292E+04  0.11213920858E+04  0.00000000000E+00 0.  1.
</event>
<event>
 4    1  0.6136512E+003  0.7482228E+02  0.7546771E-02  0.1216406E+00
          2   -1    0    0  501    0  0.00000000000E+00  0.00000000000E+00  0.30928630011E+04  0.30928630011E+04  0.00000000000E+00 0. -1.
          2   -1    0    0  502    0 -0.00000000000E+00 -0.00000000000E+00 -0.21368563014E+01  0.21368563014E+01  0.00000000000E+00 0. -1.
          2    1    1    2  501    0 -0.69039523130E+02  0.28842996216E+02  0.94021919177E+03  0.94319165749E+03  0.00000000000E+00 0. -1.
          2    1    1    2  502    0  0.69039523130E+02 -0.28842996216E+02  0.21505069530E+04  0.21518081999E+04  0.00000000000E+00 0. -1.
</event>
<event>
 4    1  0.6136512E+003  0.2468232E+02  0.7546771E-02  0.1472389E+00
          2   -1    0    0  502    0  0.00000000000E+00  0.00000000000E+00  0.58895281472E+00  0.58895281472E+00  0.00000000000E+00 0. -1.
          2   -1    0    0  501    0 -0.00000000000E+00 -0.00000000000E+00 -0.15708902348E+04  0.15708902348E+04  0.00000000000E+00 0.  1.
          2    1    1    2  501    0 -0.24564234406E+02 -0.24115320891E+01 -0.32596989591E+03  0.32690302864E+03  0.00000000000E+00 0. -1.
          2    1    1    2  502    0  0.24564234406E+02  0.24115320891E+01 -0.12443313861E+04  0.12445761590E+04  0.00000000000E+00 0.  1.
</event>
<event>
 4    1  0.6136512E+003  0.2234813E+02  0.7546771E-02  0.1500850E+00
          2   -1    0    0  501    0  0.00000000000E+00  0.00000000000E+00  0.19319057883E+01  0.19319057883E+01  0.00000000000E+00 0. -1.
          2   -1    0    0  502    0 -0.00000000000E+00 -0.00000000000E+00 -0.69202574878E+03  0.69202574878E+03  0.00000000000E+00 0.  1.
          2    1    1    2  501    0  0.97219866830E+01  0.20122666861E+02 -0.61967101730E+03  0.62007387336E+03  0.00000000000E+00 0.  1.
          2    1    1    2  502    0 -0.97219866830E+01 -0.20122666861E+02 -0.70422825688E+02  0.73883781201E+02  0.00000000000E+00 0. -1.
</event>
<event>
 4    1  0.6136512E+003  0.4018389E+02  0.7546771E-02  0.1347412E+00
          2   -1    0    0  501    0  0.00000000000E+00  0.00000000000E+00  0.17406337430E+02  0.17406337430E+02  0.00000000000E+00 0.  1.
          2   -1    0    0  502    0 -0.00000000000E+00 -0.00000000000E+00 -0.43178722201E+03  0.43178722201E+03  0.00000000000E+00 0. -1.
          2    1    1    2  501    0  0.38037910122E+02  0.12956182357E+02 -0.40620324159E+03  0.40818600998E+03  0.00000000000E+00 0. -1.
          2    1    1    2  502    0 -0.38037910122E+02 -0.12956182357E+02 -0.81776429917E+01  0.41007549459E+02  0.00000000000E+00 0.  1.
</event>
<event>
 4    1  0.6136512E+003  0.3230094E+02  0.7546771E-02  0.1400601E+00
          2   -1    0    0  501    0  0.00000000000E+00  0.00000000000E+00  0.16814779089E+03  0.16814779089E+03  0.00000000000E+00 0.  1.
          2   -1    0    0  502    0 -0.00000000000E+00 -0.00000000000E+00 -0.76454286554E+01  0.76454286554E+01  0.00000000000E+00 0. -1.
          2    1    1    2  501    0  0.17262800056E+02  0.27301039396E+02  0.42098726723E+02  0.53062734660E+02  0.00000000000E+00 0. -1.
          2    1    1    2  502    0 -0.17262800056E+02 -0.27301039396E+02  0.11840363551E+03  0.12273048488E+03  0.00000000000E+00 0.  1.
</event>
<event>
 4    1  0.6136512E+003  0.2498056E+02  0.7546771E-02  0.1469021E+00
          2   -1    0    0  501    0  0.00000000000E+00  0.00000000000E+00  0.28925989881E+03  0.28925989881E+03  0.00000000000E+00 0.  1.
          2   -1    0    0  502    0 -0.00000000000E+00 -0.00000000000E+00 -0.69564677290E+01  0.69564677290E+01  0.00000000000E+00 0.  1.
          2    1    1    2  501    0  0.17062864853E+02  0.18245186828E+02  0.18134353873E+02  0.30868802857E+02  0.00000000000E+00 0.  1.
          2    1    1    2  502    0 -0.17062864853E+02 -0.18245186828E+02  0.26416907721E+03  0.26534756369E+03  0.00000000000E+00 0.  1.
</event>
<event>
 4    1  0.1317136E+004  0.2253243E+02  0.7546771E-02  0.1498454E+00
          2   -1    0    0  502    0  0.00000000000E+00  0.00000000000E+00  0.15200299006E+04  0.15200299006E+04  0.00000000000E+00 0. -1.
          2   -1    0    0  501    0 -0.00000000000E+00 -0.00000000000E+00 -0.64443021823E+03  0.64443021823E+03  0.00000000000E+00 0.  1.
          2    1    1    2  501    0  0.23165590619E+01  0.22413033293E+02  0.15197493998E+04  0.15199164282E+04  0.00000000000E+00 0. -1.
          2    1    1    2  502    0 -0.23165590619E+01 -0.22413033293E+02 -0.64414971749E+03  0.64454369057E+03  0.00000000000E+00 0.  1.
</event>
<event>
 4    1  0.6136512E+003  0.2064997E+02  0.7546771E-02  0.1524322E+00
          2   -1    0    0  501    0  0.00000000000E+00  0.00000000000E+00  0.82843225396E+03  0.82843225396E+03  0.00000000000E+00 0.  1.
          2   -1    0    0  502    0 -0.00000000000E+00 -0.00000000000E+00 -0.36558269123E+01  0.36558269123E+01  0.00000000000E+00 0.  1.
          2    1    1    2  501    0 -0.15736101150E+02  0.13371475791E+02  0.26743868137E+02  0.33788396339E+02  0.00000000000E+00 0.  1.
          2    1    1    2  502    0  0.15736101150E+02 -0.13371475791E+02  0.79803255891E+03  0.79829968454E+03  0.00000000000E+00 0.  1.
</event>
<event>
 4    1  0.6136512E+003  0.3926257E+02  0.7546771E-02  0.1352862E+00
          2   -1    0    0  502    0  0.00000000000E+00  0.00000000000E+00  0.11880054963E+04  0.11880054963E+04  0.00000000000E+00 0. -1.
          2   -1    0    0  501    0 -0.00000000000E+00 -0.00000000000E+00 -0.16499213702E+01  0.16499213702E+01  0.00000000000E+00 0.  1.
          2    1    1    2  501    0  0.34644788330E+02 -0.18473978741E+02  0.86805106915E+03  0.86893855243E+03  0.00000000000E+00 0. -1.
          2    1    1    2  502    0 -0.34644788330E+02  0.18473978741E+02  0.31830450577E+03  0.32071686523E+03  0.00000000000E+00 0.  1.
</event>
<event>
 4    1  0.6136512E+003  0.2360258E+02  0.7546771E-02  0.1485067E+00
          2   -1    0    0  501    0  0.00000000000E+00  0.00000000000E+00  0.42732681796E+03  0.42732681796E+03  0.00000000000E+00 0.  1.
          2   -1    0    0  502    0 -0.00000000000E+00 -0.00000000000E+00 -0.24563892245E+02  0.24563892245E+02  0.00000000000E+00 0.  1.
          2    1    1    2  501    0  0.16638709684E+02  0.16740219898E+02 -0.18486527964E+02  0.29980549334E+02  0.00000000000E+00 0.  1.
          2    1    1    2  502    0 -0.16638709684E+02 -0.16740219898E+02  0.42124945368E+03  0.42191016087E+03  0.00000000000E+00 0.  1.
</event>
<event>
 4    1  0.6136512E+003  0.2773079E+02  0.7546771E-02  0.1440402E+00
          2   -1    0    0  502    0  0.00000000000E+00  0.00000000000E+00  0.94820535405E+01  0.94820535405E+01  0.00000000000E+00 0. -1.
          2   -1    0    0  501    0 -0.00000000000E+00 -0.00000000000E+00 -0.10681349672E+03  0.10681349672E+03  0.00000000000E+00 0.  1.
          2    1    1    2  501    0  0.90586428030E+01  0.26209499754E+02 -0.77195507808E+02  0.82025260210E+02  0.00000000000E+00 0.  1.
          2    1    1    2  502    0 -0.90586428030E+01 -0.26209499754E+02 -0.20135935368E+02  0.34270290047E+02  0.00000000000E+00 0. -1.
</event>
<event>
 4    1  0.6136512E+003  0.2083088E+02  0.7546771E-02  0.1521693E+00
          2   -1    0    0  501    0  0.00000000000E+00  0.00000000000E+00  0.86203446757E+00  0.86203446757E+00  0.00000000000E+00 0. -1.
          2   -1    0    0  502    0 -0.00000000000E+00 -0.00000000000E+00 -0.97369762233E+03  0.97369762233E+03  0.00000000000E+00 0. -1.
          2    1    1    2  501    0 -0.19755329535E+02  0.66070204081E+01 -0.82507846225E+03  0.82534138066E+03  0.00000000000E+00 0. -1.
          2    1    1    2  502    0  0.19755329535E+02 -0.66070204081E+01 -0.14775712562E+03  0.14921827614E+03  0.00000000000E+00 0. -1.
</event>
<event>
 4    1  0.6136512E+003  0.4089155E+02  0.7546771E-02  0.1343339E+00
          2   -1    0    0  501    0  0.00000000000E+00  0.00000000000E+00  0.18350195885E+02  0.18350195885E+02  0.00000000000E+00 0.  1.
          2   -1    0    0  502    0 -0.00000000000E+00 -0.00000000000E+00 -0.15859298277E+04  0.15859298277E+04  0.00000000000E+00 0.  1.
          2    1    1    2  501    0 -0.38656402191E+02 -0.13334223490E+02 -0.15625446939E+04  0.15630796650E+04  0.00000000000E+00 0.  1.
          2    1    1    2  502    0  0.38656402191E+02  0.13334223490E+02 -0.50349379870E+01  0.41200358579E+02  0.00000000000E+00 0.  1.
</event>
<event>
 4    1  0.6136512E+003  0.4157347E+02  0.7546771E-02  0.1339504E+00
          2   -1    0    0  502    0  0.00000000000E+00  0.00000000000E+00  0.13549134107E+03  0.13549134107E+03  0.00000000000E+00 0.  1.
          2   -1    0    0  501    0 -0.00000000000E+00 -0.00000000000E+00 -0.42161820427E+02  0.42161820427E+02  0.00000000000E+00 0.  1.
          2    1    1    2  501    0  0.40824226728E+02  0.78572259503E+01  0.12084675457E+03  0.12779785435E+03  0.00000000000E+00 0.  1.
          2    1    1    2  502    0 -0.40824226728E+02 -0.78572259503E+01 -0.27517233924E+02  0.49855307144E+02  0.00000000000E+00 0.  1.
</event>
<event>
 4    1  0.6136512E+003  0.2450455E+02  0.7546771E-02  0.1474423E+00
          2   -1    0    0  501    0  0.00000000000E+00  0.00000000000E+00  0.63791027727E+03  0.63791027727E+03  0.00000000000E+00 0. -1.
          2   -1    0    0  502    0 -0.00000000000E+00 -0.00000000000E+00 -0.13532825513E+01  0.13532825513E+01  0.00000000000E+00 0.  1.
          2    1    1    2  501    0  0.17154476132E+02 -0.17498481417E+02  0.14192318480E+03  0.14402313456E+03  0.00000000000E+00 0.  1.
          2    1    1    2  502    0 -0.17154476132E+02  0.17498481417E+02  0.49463380991E+03  0.49524042526E+03  0.00000000000E+00 0. -1.
</event>
<event>
 4    1  0.6136512E+003  0.2535010E+02  0.7546771E-02  0.1464925E+00
          2   -1    0    0  502    0  0.00000000000E+00  0.00000000000E+00  0.90131928089E+02  0.90131928089E+02  0.00000000000E+00 0.  1.
          2   -1    0    0  501    0 -0.00000000000E+00 -0.00000000000E+00 -0.85326810206E+01  0.85326810206E+01  0.00000000000E+00 0.  1.
          2    1    1    2  501    0 -0.13466241286E+02 -0.21477611715E+02  0.20796825077E+02  0.32789257275E+02  0.00000000000E+00 0.  1.
          2    1    1    2  502    0  0.13466241286E+02  0.21477611715E+02  0.60802421991E+02  0.65875351835E+02  0.00000000000E+00 0.  1.
</event>
<event>
 4    1  0.6136512E+003  0.5415123E+02  0.7546771E-02  0.1281112E+00
          2   -1    0    0  502    0  0.00000000000E+00  0.00000000000E+00  0.21106699736E+03  0.21106699736E+03  0.00000000000E+00 0. -1.
          2   -1    0    0  501    0 -0.00000000000E+00 -0.00000000000E+00 -0.50486447895E+03  0.50486447895E+03  0.00000000000E+00 0. -1.
          2    1    1    2  501    0 -0.45910954970E+02  0.28714807348E+02  0.20610733540E+03  0.21310229856E+03  0.00000000000E+00 0. -1.
          2    1    1    2  502    0  0.45910954970E+02 -0.28714807348E+02 -0.49990481699E+03  0.50282917775E+03  0.00000000000E+00 0. -1.
</event>
<event>
 4    1  0.6136512E+003  0.2627952E+02  0.7546771E-02  0.1454983E+00
          2   -1    0    0  501    0  0.00000000000E+00  0.00000000000E+00  0.15872344354E+03  0.15872344354E+03  0.00000000000E+00 0.  1.
          2   -1    0    0  502    0 -0.00000000000E+00 -0.00000000000E+00 -0.25690309609E+02  0.25690309609E+02  0.00000000000E+00 0.  1.
          2    1    1    2  501    0  0.24308488303E+02  0.99855231893E+01 -0.17520006982E+02  0.31584235333E+02  0.00000000000E+00 0.  1.
          2    1    1    2  502    0 -0.24308488303E+02 -0.99855231893E+01  0.15055314091E+03  0.15282951782E+03  0.00000000000E+00 0.  1.
</event>
<event>
 4    1  0.6136512E+003  0.3819933E+02  0.7546771E-02  0.1359373E+00
          2   -1    0    0  501    0  0.00000000000E+00  0.00000000000E+00  0.32532774474E+02  0.32532774474E+02  0.00000000000E+00 0. -1.
          2   -1    0    0  502    0 -0.00000000000E+00 -0.00000000000E+00 -0.16341883005E+04  0.16341883005E+04  0.00000000000E+00 0. -1.
          2    1    1    2  501    0 -0.37282418666E+02  0.83192555493E+01 -0.16226722826E+04  0.16231218455E+04  0.00000000000E+00 0. -1.
          2    1    1    2  502    0  0.37282418666E+02 -0.83192555493E+01  0.21016756541E+02  0.43599229465E+02  0.00000000000E+00 0. -1.
</event>
<event>
 4    1  0.6136512E+003  0.2096937E+02  0.7546771E-02  0.1519703E+00
          2   -1    0    0  501    0  0.00000000000E+00  0.00000000000E+00  0.34069615772E+02  0.34069615772E+02  0.00000000000E+00 0.  1.
          2   -1    0    0  502    0 -0.00000000000E+00 -0.00000000000E+00 -0.30075623810E+02  0.30075623810E+02  0.00000000000E+00 0. -1.
          2    1    1    2  501    0 -0.47581926684E+01  0.20422393292E+02 -0.22235771655E+02  0.30563770813E+02  0.00000000000E+00 0. -1.
          2    1    1    2  502    0  0.47581926684E+01 -0.20422393292E+02  0.26229763617E+02  0.33581468768E+02  0.00000000000E+00 0.  1.
</event>
<event>
 4    1  0.6136512E+003  0.2491040E+02  0.7546771E-02  0.1469808E+00
          2   -1    0    0  501    0  0.00000000000E+00  0.00000000000E+00  0.24064770284E+01  0.24064770284E+01  0.00000000000E+00 0. -1.
          2   -1    0    0  502    0 -0.00000000000E+00 -0.00000000000E+00 -0.41493106457E+03  0.41493106457E+03  0.00000000000E+00 0.  1.
          2    1    1    2  501    0  0.91039807996E+01  0.23187190029E+02 -0.33464927176E+03  0.33557512324E+03  0.00000000000E+00 0.  1.
          2    1    1    2  502    0 -0.91039807996E+01 -0.23187190029E+02 -0.77875315790E+02  0.81762418367E+02  0.00000000000E+00 0. -1.
</event>
<event>
 4    1  0.6136512E+003  0.3295002E+02  0.7546771E-02  0.1395578E+00
          2   -1    0    0  501    0  0.00000000000E+00  0.00000000000E+00  0.13451479478E+03  0.13451479478E+03  0.00000000000E+00 0. -1.
          2   -1    0    0  502    0 -0.00000000000E+00 -0.00000000000E+00 -0.24591754585E+02  0.24591754585E+02  0.00000000000E+00 0. -1.
          2    1    1    2  501    0 -0.20264090803E+02 -0.25982121658E+02 -0.10242565997E+02  0.34505277569E+02  0.00000000000E+00 0. -1.
          2    1    1    2  502    0  0.20264090803E+02  0.25982121658E+02  0.12016560619E+03  0.12460127180E+03  0.00000000000E+00 0. -1.
</event>
<event>
 4    1  0.6136512E+003  0.4700633E+02  0.7546771E-02  0.1311701E+00
          2   -1    0    0  502    0  0.00000000000E+00  0.00000000000E+00  0.76458185422E+01  0.76458185422E+01  0.00000000000E+00 0. -1.
          2   -1    0    0  501    0 -0.00000000000E+00 -0.00000000000E+00 -0.35558257876E+03  0.35558257876E+03  0.00000000000E+00 0.  1.
          2    1    1    2  501    0 -0.38711515170E+02  0.26664833780E+02 -0.95376111543E+02  0.10633060434E+03  0.00000000000E+00 0. -1.
          2    1    1    2  502    0  0.38711515170E+02 -0.26664833780E+02 -0.25256064868E+03  0.25689779296E+03  0.00000000000E+00 0.  1.
</event>
<event>
 4    1  0.6136512E+003  0.2023003E+02  0.7546771E-02  0.1530548E+00
          2   -1    0    0  502    0  0.00000000000E+00  0.00000000000E+00  0.60122087090E+03  0.60122087090E+03  0.00000000000E+00 0.  1.
          2   -1    0    0  501    0 -0.00000000000E+00 -0.00000000000E+00 -0.33761781873E+01  0.33761781873E+01  0.00000000000E+00 0. -1.
          2    1    1    2  501    0 -0.17635893726E+02 -0.99110711079E+01  0.56903246418E+03  0.56939195583E+03  0.00000000000E+00 0.  1.
          2    1    1    2  502    0  0.17635893726E+02  0.99110711079E+01  0.28812228540E+02  0.35205093261E+02  0.00000000000E+00 0. -1.
</event>
<event>
 4    1  0.6136512E+003  0.2442038E+02  0.7546771E-02  0.1475393E+00
          2   -1    0    0  502    0  0.00000000000E+00  0.00000000000E+00  0.84744795470E+03  0.84744795470E+03  0.00000000000E+00 0. -1.
          2   -1    0    0  501    0 -0.00000000000E+00 -0.00000000000E+00 -0.32663843395E+01  0.32663843395E+01  0.00000000000E+00 0.  1.
          2    1    1    2  501    0 -0.38664965179E+01  0.24112348994E+02  0.79885276310E+03  0.79922593319E+03  0.00000000000E+00 0. -1.
          2    1    1    2  502    0  0.38664965179E+01 -0.24112348994E+02  0.45328807260E+02  0.51488405850E+02  0.00000000000E+00 0.  1.
</event>
<event>
 4    1  0.6136512E+003  0.4263284E+02  0.7546771E-02  0.1333712E+00
          2   -1    0    0  502    0  0.00000000000E+00  0.00000000000E+00  0.54997751898E+01  0.54997751898E+01  0.00000000000E+00 0. -1.
          2   -1    0    0  501    0 -0.00000000000E+00 -0.00000000000E+00 -0.17141946619E+04  0.17141946619E+04  0.00000000000E+00 0. -1.
          2    1    1    2  501    0 -0.41363270444E+02  0.10326624869E+02 -0.81818650344E+02  0.92259692538E+02  0.00000000000E+00 0. -1.
          2    1    1    2  502    0  0.41363270444E+02 -0.10326624869E+02 -0.16268762364E+04  0.16274347446E+04  0.00000000000E+00 0. -1.
</event>
<event>
 4    1  0.6136512E+003  0.2804862E+02  0.7546771E-02  0.1437350E+00
          2   -1    0    0  502    0  0.00000000000E+00  0.00000000000E+00  0.10706081358E+03  0.10706081358E+03  0.00000000000E+00 0. -1.
          2   -1    0    0  501    0 -0.00000000000E+00 -0.00000000000E+00 -0.32392427002E+02  0.32392427002E+02  0.00000000000E+00 0.  1.
          2    1    1    2  501    0 -0.13436034897E+02 -0.24621089347E+02  0.98643866556E+02  0.10255407102E+03  0.00000000000E+00 0. -1.
          2    1    1    2  502    0  0.13436034897E+02  0.24621089347E+02 -0.23975479974E+02  0.36899169562E+02  0.00000000000E+00 0.  1.
</event>
<event>
 4    1  0.6136512E+003  0.2896716E+02  0.7546771E-02  0.1428789E+00
          2   -1    0    0  502    0  0.00000000000E+00  0.00000000000E+00  0.24063384235E+01  0.24063384235E+01  0.00000000000E+00 0. -1.
          2   -1    0    0  501    0 -0.00000000000E+00 -0.00000000000E+00 -0.37544355623E+03  0.37544355623E+03  0.00000000000E+00 0. -1.
          2    1    1    2  501    0 -0.28870866407E+02  0.23599576777E+01 -0.13609825234E+03  0.13914679521E+03  0.00000000000E+00 0. -1.
          2    1    1    2  502    0  0.28870866407E+02 -0.23599576777E+01 -0.23693896546E+03  0.23870309944E+03  0.00000000000E+00 0. -1.
</event>
<event>
 4    1  0.6136512E+003  0.2190027E+02  0.7546771E-02  0.1506789E+00
          2   -1    0    0  502    0  0.00000000000E+00  0.00000000000E+00  0.36535994579E+02  0.36535994579E+02  0.00000000000E+00 0. -1.
          2   -1    0    0  501    0 -0.00000000000E+00 -0.00000000000E+00 -0.87878685404E+03  0.87878685404E+03  0.00000000000E+00 0. -1.
          2    1    1    2  501    0  0.17947953427E+02  0.12549611474E+02  0.33104844103E+02  0.39693229693E+02  0.00000000000E+00 0. -1.
          2    1    1    2  502    0 -0.17947953427E+02 -0.12549611474E+02 -0.87535570356E+03  0.87562961893E+03  0.00000000000E+00 0. -1.
</event>
<event>
 4    1  0.6136512E+003  0.2411677E+02  0.7546771E-02  0.1478932E+00
          2   -1    0    0  502    0  0.00000000000E+00  0.00000000000E+00  0.13028074970E+03  0.13028074970E+03  0.00000000000E+00 0.  1.
          2   -1    0    0  501    0 -0.00000000000E+00 -0.00000000000E+00 -0.77283442053E+02  0.77283442053E+02  0.00000000000E+00 0. -1.
          2    1    1    2  501    0 -0.13265279461E+02 -0.20140781380E+02  0.12723862959E+03  0.12950400601E+03  0.00000000000E+00 0.  1.
          2    1    1    2  502    0  0.13265279461E+02  0.20140781380E+02 -0.74241321943E+02  0.78060185739E+02  0.00000000000E+00 0. -1.
</event>
<event>
 4    1  0.6136512E+003  0.4786113E+02  0.7546771E-02  0.1307722E+00
          2   -1    0    0  501    0  0.00000000000E+00  0.00000000000E+00  0.14597525061E+04  0.14597525061E+04  0.00000000000E+00 0.  1.
          2   -1    0    0  502    0 -0.00000000000E+00 -0.00000000000E+00 -0.22145607373E+03  0.22145607373E+03  0.00000000000E+00 0.  1.
          2    1    1    2  501    0 -0.14003815903E+02  0.45766586770E+02 -0.21847253283E+03  0.22365360477E+03  0.00000000000E+00 0.  1.
          2    1    1    2  502    0  0.14003815903E+02 -0.45766586770E+02  0.14567689652E+04  0.14575549751E+04  0.00000000000E+00 0.  1.
</event>
<event>
 4    1  0.6136512E+003  0.9322114E+02  0.7546771E-02  0.1176103E+00
          2   -1    0    0  501    0  0.00000000000E+00  0.00000000000E+00  0.16434263499E+02  0.16434263499E+02  0.00000000000E+00 0.  1.
          2   -1    0    0  502    0 -0.00000000000E+00 -0.00000000000E+00 -0.39151325310E+04  0.39151325310E+04  0.00000000000E+00 0.  1.
          2    1    1    2  501    0  0.72414360263E+02  0.58705546000E+02 -0.37775682099E+04  0.37787182696E+04  0.00000000000E+00 0.  1.
          2    1    1    2  502    0 -0.72414360263E+02 -0.58705546000E+02 -0.12113005760E+03  0.15284852487E+03  0.00000000000E+00 0.  1.
</event>
<event>
 4    1  0.6136512E+003  0.2325743E+02  0.7546771E-02  0.1489291E+00
          2   -1    0    0  501    0  0.00000000000E+00  0.00000000000E+00  0.15545930711E+02  0.15545930711E+02  0.00000000000E+00 0. -1.
          2   -1    0    0  502    0 -0.00000000000E+00 -0.00000000000E+00 -0.24037325386E+03  0.24037325386E+03  0.00000000000E+00 0. -1.
          2    1    1    2  501    0  0.10125138249E+01 -0.23235375258E+02 -0.23075030141E+03  0.23191940292E+03  0.00000000000E+00 0. -1.
          2    1    1    2  502    0 -0.10125138249E+01  0.23235375258E+02  0.59229782679E+01  0.23999781649E+02  0.00000000000E+00 0. -1.
</event>
<event>
 4    1  0.6136512E+003  0.3933664E+02  0.7546771E-02  0.1352417E+00
          2   -1    0    0  502    0  0.00000000000E+00  0.00000000000E+00  0.25006570171E+01  0.25006570171E+01  0.00000000000E+00 0.  1.
          2   -1    0    0  501    0 -0.00000000000E+00 -0.00000000000E+00 -0.15835433389E+04  0.15835433389E+04  0.00000000000E+00 0.  1.
          2    1    1    2  501    0  0.87777271949E+01  0.38344792380E+02 -0.17153751772E+03  0.17599003263E+03  0.00000000000E+00 0.  1.
          2    1    1    2  502    0 -0.87777271949E+01 -0.38344792380E+02 -0.14095051642E+04  0.14100539633E+04  0.00000000000E+00 0.  1.
</event>
<event>
 4    1  0.6136512E+003  0.2568302E+02  0.7546771E-02  0.1461306E+00
          2   -1    0    0  501    0  0.00000000000E+00  0.00000000000E+00  0.48790288262E+01  0.48790288262E+01  0.00000000000E+00 0.  1.
          2   -1    0    0  502    0 -0.00000000000E+00 -0.00000000000E+00 -0.43539118804E+03  0.43539118804E+03  0.00000000000E+00 0.  1.
          2    1    1    2  501    0  0.40481514726E+01  0.25361981648E+02 -0.39804609741E+03  0.39887380624E+03  0.00000000000E+00 0.  1.
          2    1    1    2  502    0 -0.40481514726E+01 -0.25361981648E+02 -0.32466061804E+02  0.41396410623E+02  0.00000000000E+00 0.  1.
</event>
<event>
 4    1  0.6136512E+003  0.2057296E+02  0.7546771E-02  0.1525450E+00
          2   -1    0    0  501    0  0.00000000000E+00  0.00000000000E+00  0.30137036443E+01  0.30137036443E+01  0.00000000000E+00 0. -1.
          2   -1    0    0  502    0 -0.00000000000E+00 -0.00000000000E+00 -0.10886379278E+04  0.10886379278E+04  0.00000000000E+00 0. -1.
          2    1    1    2  501    0 -0.16864665163E+02  0.11782595783E+02 -0.10522153421E+04  0.10524164445E+04  0.00000000000E+00 0. -1.
          2    1    1    2  502    0  0.16864665163E+02 -0.11782595783E+02 -0.33408882036E+02  0.39235186929E+02  0.00000000000E+00 0. -1.
</event>
<event>
 4    1  0.6136512E+003  0.2444210E+02  0.7546771E-02  0.1475142E+00
          2   -1    0    0  501    0  0.00000000000E+00  0.00000000000E+00  0.33652692882E+01  0.33652692882E+01  0.00000000000E+00 0. -1.
          2   -1    0    0  502    0 -0.00000000000E+00 -0.00000000000E+00 -0.51047352305E+03  0.51047352305E+03  0.00000000000E+00 0.  1.
          2    1    1    2  501    0  0.70934025008E+01  0.23390171395E+02 -0.46104519232E+03  0.46169263135E+03  0.00000000000E+00 0.  1.
          2    1    1    2  502    0 -0.70934025008E+01 -0.23390171395E+02 -0.46063061442E+02  0.52146160993E+02  0.00000000000E+00 0. -1.
</event>
<event>
 4    1  0.6136512E+003  0.2207175E+02  0.7546771E-02  0.1504495E+00
          2   -1    0    0  501    0  0.00000000000E+00  0.00000000000E+00  0.36647788164E+03  0.36647788164E+03  0.00000000000E+00 0. -1.
          2   -1    0    0  502    0 -0.00000000000E+00 -0.00000000000E+00 -0.37757577461E+03  0.37757577461E+03  0.00000000000E+00 0.  1.
          2    1    1    2  501    0 -0.57384244471E+01 -0.21312733122E+02 -0.37692031094E+03  0.37756599808E+03  0.00000000000E+00 0.  1.
          2    1    1    2  502    0  0.57384244471E+01  0.21312733122E+02  0.36582241796E+03  0.36648765817E+03  0.00000000000E+00 0. -1.
</event>
<event>
 4    1  0.6136512E+003  0.2903885E+02  0.7546771E-02  0.1428137E+00
          2   -1    0    0  501    0  0.00000000000E+00  0.00000000000E+00  0.49486855171E+01  0.49486855171E+01  0.00000000000E+00 0.  1.
          2   -1    0    0  502    0 -0.00000000000E+00 -0.00000000000E+00 -0.17040484552E+03  0.17040484552E+03  0.00000000000E+00 0. -1.
          2    1    1    2  501    0 -0.16342340893E+02  0.24003804718E+02 -0.82248368497E+02  0.87224130074E+02  0.00000000000E+00 0.  1.
          2    1    1    2  502    0  0.16342340893E+02 -0.24003804718E+02 -0.83207791504E+02  0.88129400961E+02  0.00000000000E+00 0. -1.
</event>
<event>
 4    1  0.6136512E+003  0.3154625E+02  0.7546771E-02  0.1406619E+00
          2   -1    0    0  501    0  0.00000000000E+00  0.00000000000E+00  0.10928983314E+04  0.10928983314E+04  0.00000000000E+00 0. -1.
          2   -1    0    0  502    0 -0.00000000000E+00 -0.00000000000E+00 -0.18232073512E+02  0.18232073512E+02  0.00000000000E+00 0.  1.
          2    1    1    2  501    0 -0.25362625083E+02 -0.18759078722E+02 -0.41809297568E+01  0.31822098599E+02  0.00000000000E+00 0.  1.
          2    1    1    2  502    0  0.25362625083E+02  0.18759078722E+02  0.10788471877E+04  0.10793083063E+04  0.00000000000E+00 0. -1.
</event>
<event>
 4    1  0.6136512E+003  0.2370481E+02  0.7546771E-02  0.1483832E+00
          2   -1    0    0  502    0  0.00000000000E+00  0.00000000000E+00  0.72008698500E+02  0.72008698500E+02  0.00000000000E+00 0. -1.
          2   -1    0    0  501    0 -0.00000000000E+00 -0.00000000000E+00 -0.51603688633E+03  0.51603688633E+03  0.00000000000E+00 0.  1.
          2    1    1    2  501    0  0.14798630375E+02  0.18518061929E+02  0.69777133548E+02  0.73693734095E+02  0.00000000000E+00 0. -1.
          2    1    1    2  502    0 -0.14798630375E+02 -0.18518061929E+02 -0.51380532137E+03  0.51435185073E+03  0.00000000000E+00 0.  1.
</event>
<event>
 4    1  0.6136512E+003  0.2054712E+02  0.7546771E-02  0.1525830E+00
          2   -1    0    0  502    0  0.00000000000E+00  0.00000000000E+00  0.63812862745E+01  0.63812862745E+01  0.00000000000E+00 0.  1.
          2   -1    0    0  501    0 -0.00000000000E+00 -0.00000000000E+00 -0.16046457088E+03  0.16046457088E+03  0.00000000000E+00 0.  1.
          2    1    1    2  501    0 -0.16589068959E+02 -0.12123819329E+02 -0.13088360454E+02  0.24361637535E+02  0.00000000000E+00 0.  1.
          2    1    1    2  502    0  0.16589068959E+02  0.12123819329E+02 -0.14099492415E+03  0.14248421962E+03  0.00000000000E+00 0.  1.
</event>
<event>
 4    1  0.6136512E+003  0.2025174E+02  0.7546771E-02  0.1530222E+00
          2   -1    0    0  501    0  0.00000000000E+00  0.00000000000E+00  0.43554027923E+03  0.43554027923E+03  0.00000000000E+00 0. -1.
          2   -1    0    0  502    0 -0.00000000000E+00 -0.00000000000E+00 -0.28302714188E+01  0.28302714188E+01  0.00000000000E+00 0.  1.
          2    1    1    2  501    0 -0.11206127836E+02  0.16868779844E+02  0.37307585394E+02  0.42449840546E+02  0.00000000000E+00 0.  1.
          2    1    1    2  502    0  0.11206127836E+02 -0.16868779844E+02  0.39540242241E+03  0.39592071010E+03  0.00000000000E+00 0. -1.
</event>
<event>
 4    1  0.6136512E+003  0.2226270E+02  0.7546771E-02  0.1501970E+00
          2   -1    0    0  501    0  0.00000000000E+00  0.00000000000E+00  0.36323884122E+02  0.36323884122E+02  0.00000000000E+00 0.  1.
          2   -1    0    0  502    0 -0.00000000000E+00 -0.00000000000E+00 -0.84011262350E+02  0.84011262350E+02  0.00000000000E+00 0. -1.
          2    1    1    2  501    0  0.66888565935E+01 -0.21234099093E+02 -0.78908857277E+02  0.81989240292E+02  0.00000000000E+00 0. -1.
          2    1    1    2  502    0 -0.66888565935E+01  0.21234099093E+02  0.31221479048E+02  0.38345906180E+02  0.00000000000E+00 0.  1.
</event>
<event>
 4    1  0.6136512E+003  0.6787023E+02  0.7546771E-02  0.1235207E+00
          2   -1    0    0  502    0  0.00000000000E+00  0.00000000000E+00  0.64522880943E+02  0.64522880943E+02  0.00000000000E+00 0. -1.
          2   -1    0    0  501    0 -0.00000000000E+00 -0.00000000000E+00 -0.22700867813E+03  0.22700867813E+03  0.00000000000E+00 0.  1.
          2    1    1    2  501    0  0.67868890767E+02  0.42704233888E+00  0.39444930555E+02  0.78500135322E+02  0.00000000000E+00 0. -1.
          2    1    1    2  502    0 -0.67868890767E+02 -0.42704233888E+00 -0.20193072774E+03  0.21303142375E+03  0.00000000000E+00 0.  1.
</event>
<event>
 4    1  0.6136512E+003  0.3896380E+02  0.7546771E-02  0.1354667E+00
          2   -1    0    0  502    0  0.00000000000E+00  0.00000000000E+00  0.45450626491E+03  0.45450626491E+03  0.00000000000E+00 0. -1.
          2   -1    0    0  501    0 -0.00000000000E+00 -0.00000000000E+00 -0.85222196921E+01  0.85222196921E+01  0.00000000000E+00 0. -1.
          2    1    1    2  501    0  0.38464326520E+02 -0.62187815585E+01  0.40352127189E+03  0.40539806922E+03  0.00000000000E+00 0. -1.
          2    1    1    2  502    0 -0.38464326520E+02  0.62187815585E+01  0.42462773334E+02  0.57630415389E+02  0.00000000000E+00 0. -1.
</event>
<event>
 4    1  0.6136512E+003  0.2142256E+02  0.7546771E-02  0.1513317E+00
          2   -1    0    0  502    0  0.00000000000E+00  0.00000000000E+00  0.12073793189E+03  0.12073793189E+03  0.00000000000E+00 0.  1.
          2   -1    0    0  501    0 -0.00000000000E+00 -0.00000000000E+00 -0.21423488475E+02  0.21423488475E+02  0.00000000000E+00 0.  1.
          2    1    1    2  501    0 -0.33435668771E+01  0.21160020498E+02  0.11412462476E+03  0.11611785343E+03  0.00000000000E+00 0.  1.
          2    1    1    2  502    0  0.33435668771E+01 -0.21160020498E+02 -0.14810181354E+02  0.26043566934E+02  0.00000000000E+00 0.  1.
</event>
<event>
 4    1  0.6136512E+003  0.3533583E+02  0.7546771E-02  0.1378217E+00
          2   -1    0    0  502    0  0.00000000000E+00  0.00000000000E+00  0.22961093732E+04  0.22961093732E+04  0.00000000000E+00 0.  1.
          2   -1    0    0  501    0 -0.00000000000E+00 -0.00000000000E+00 -0.12781480699E+01  0.12781480699E+01  0.00000000000E+00 0.  1.
          2    1    1    2  501    0 -0.16455704257E+02 -0.31270283971E+02  0.20181087000E+04  0.20184180305E+04  0.00000000000E+00 0.  1.
          2    1    1    2  502    0  0.16455704257E+02  0.31270283971E+02  0.27672252521E+03  0.27896949084E+03  0.00000000000E+00 0.  1.
</event>
<event>
 4    1  0.6136512E+003  0.2423971E+02  0.7546771E-02  0.1477491E+00
          2   -1    0    0  502    0  0.00000000000E+00  0.00000000000E+00  0.41613076830E+02  0.41613076830E+02  0.00000000000E+00 0. -1.
          2   -1    0    0  501    0 -0.00000000000E+00 -0.00000000000E+00 -0.14131478158E+02  0.14131478158E+02  0.00000000000E+00 0. -1.
          2    1    1    2  501    0  0.19308920059E+02  0.14653634977E+02  0.14546083123E+02  0.28269275656E+02  0.00000000000E+00 0. -1.
          2    1    1    2  502    0 -0.19308920059E+02 -0.14653634977E+02  0.12935515549E+02  0.27475279333E+02  0.00000000000E+00 0. -1.
</event>
<event>
 4    1  0.6136512E+003  0.2733523E+02  0.7546771E-02  0.1444269E+00
          2   -1    0    0  501    0  0.00000000000E+00  0.00000000000E+00  0.10360928717E+01  0.10360928717E+01  0.00000000000E+00 0. -1.
          2   -1    0    0  502    0 -0.00000000000E+00 -0.00000000000E+00 -0.22182080130E+04  0.22182080130E+04  0.00000000000E+00 0.  1.
          2    1    1    2  501    0  0.23948529238E+02 -0.13178870710E+02 -0.20201520814E+04  0.20203370131E+04  0.00000000000E+00 0.  1.
          2    1    1    2  502    0 -0.23948529238E+02  0.13178870710E+02 -0.19701983875E+03  0.19890709275E+03  0.00000000000E+00 0. -1.
</event>
<event>
 4    1  0.6136512E+003  0.4688921E+02  0.7546771E-02  0.1312254E+00
          2   -1    0    0  501    0  0.00000000000E+00  0.00000000000E+00  0.16791715294E+04  0.16791715294E+04  0.00000000000E+00 0. -1.
          2   -1    0    0  502    0 -0.00000000000E+00 -0.00000000000E+00 -0.26537982998E+02  0.26537982998E+02  0.00000000000E+00 0.  1.
          2    1    1    2  501    0  0.45962294529E+02 -0.92771577130E+01 -0.52327293036E+01  0.47180288570E+02  0.00000000000E+00 0.  1.
          2    1    1    2  502    0 -0.45962294529E+02  0.92771577130E+01  0.16578662757E+04  0.16585292239E+04  0.00000000000E+00 0. -1.
</event>
<event>
 4    1  0.6136512E+003  0.6026152E+02  0.7546771E-02  0.1258947E+00
          2   -1    0    0  502    0  0.00000000000E+00  0.00000000000E+00  0.15712080757E+04  0.15712080757E+04  0.00000000000E+00 0. -1.
          2   -1    0    0  501    0 -0.00000000000E+00 -0.00000000000E+00 -0.28001751544E+02  0.28001751544E+02  0.00000000000E+00 0.  1.
          2    1    1    2  501    0  0.53014854562E+02 -0.28650926932E+02  0.15374980479E+04  0.15386785557E+04  0.00000000000E+00 0. -1.
          2    1    1    2  502    0 -0.53014854562E+02  0.28650926932E+02  0.57082762479E+01  0.60531271554E+02  0.00000000000E+00 0.  1.
</event>
<event>
 4    1  0.6136512E+003  0.2229585E+02  0.7546771E-02  0.1501535E+00
          2   -1    0    0  501    0  0.00000000000E+00  0.00000000000E+00  0.14929930047E+01  0.14929930047E+01  0.00000000000E+00 0. -1.
          2   -1    0    0  502    0 -0.00000000000E+00 -0.00000000000E+00 -0.15887848063E+04  0.15887848063E+04  0.00000000000E+00 0. -1.
          2    1    1    2  501    0 -0.56719750309E+01 -0.21562318026E+02 -0.15005739862E+04  0.15007396153E+04  0.00000000000E+00 0. -1.
          2    1    1    2  502    0  0.56719750309E+01  0.21562318026E+02 -0.86717827095E+02  0.89538184008E+02  0.00000000000E+00 0. -1.
</event>
<event>
 4    1  0.6136512E+003  0.2245043E+02  0.7546771E-02  0.1499517E+00
          2   -1    0    0  502    0  0.00000000000E+00  0.00000000000E+00  0.42346939882E+01  0.42346939882E+01  0.00000000000E+00 0.  1.
          2   -1    0    0  501    0 -0.00000000000E+00 -0.00000000000E+00 -0.89731070278E+03  0.89731070278E+03  0.00000000000E+00 0. -1.
          2    1    1    2  501    0  0.16216687206E+02  0.15525490352E+02 -0.26724368412E+02  0.34902917666E+02  0.00000000000E+00 0.  1.
          2    1    1    2  502    0 -0.16216687206E+02 -0.15525490352E+02 -0.86635164038E+03  0.86664247910E+03  0.00000000000E+00 0. -1.
</event>
<event>
 4    1  0.6136512E+003  0.4727137E+02  0.7546771E-02  0.1310457E+00
          2   -1    0    0  501    0  0.00000000000E+00  0.00000000000E+00  0.54866725389E+03  0.54866725389E+03  0.00000000000E+00 0.  1.
          2   -1    0    0  502    0 -0.00000000000E+00 -0.00000000000E+00 -0.85670537466E+02  0.85670537466E+02  0.00000000000E+00 0.  1.
          2    1    1    2  501    0  0.18388382673E+01 -0.47235587833E+02 -0.78039695675E+02  0.91240211448E+02  0.00000000000E+00 0.  1.
          2    1    1    2  502    0 -0.18388382673E+01  0.47235587833E+02  0.54103641210E+03  0.54309757990E+03  0.00000000000E+00 0.  1.
</event>
<event>
 4    1  0.6136512E+003  0.3400712E+02  0.7546771E-02  0.1387681E+00
          2   -1    0    0  502    0  0.00000000000E+00  0.00000000000E+00  0.43779172399E+02  0.43779172399E+02  0.00000000000E+00 0. -1.
          2   -1    0    0  501    0 -0.00000000000E+00 -0.00000000000E+00 -0.44122332085E+02  0.44122332085E+02  0.00000000000E+00 0.  1.
          2    1    1    2  501    0 -0.24540066388E+02  0.23542925030E+02  0.27670237979E+02  0.43842060252E+02  0.00000000000E+00 0. -1.
          2    1    1    2  502    0  0.24540066388E+02 -0.23542925030E+02 -0.28013397665E+02  0.44059444232E+02  0.00000000000E+00 0.  1.
</event>
<event>
 4    1  0.6136512E+003  0.2448931E+02  0.7546771E-02  0.1474598E+00
          2   -1    0    0  501    0  0.00000000000E+00  0.00000000000E+00  0.12522337076E+01  0.12522337076E+01  0.00000000000E+00 0. -1.
          2   -1    0    0  502    0 -0.00000000000E+00 -0.00000000000E+00 -0.48842640703E+03  0.48842640703E+03  0.00000000000E+00 0. -1.
          2    1    1    2  501    0 -0.22688488030E+02  0.92173131762E+01 -0.27773543210E+03  0.27881301367E+03  0.00000000000E+00 0. -1.
          2    1    1    2  502    0  0.22688488030E+02 -0.92173131762E+01 -0.20943874123E+03  0.21086562707E+03  0.00000000000E+00 0. -1.
</event>
<event>
 4    1  0.6136512E+003  0.2235185E+02  0.7546771E-02  0.1500801E+00
          2   -1    0    0  502    0  0.00000000000E+00  0.00000000000E+00  0.64140815334E+02  0.64140815334E+02  0.00000000000E+00 0.  1.
          2   -1    0    0  501    0 -0.00000000000E+00 -0.00000000000E+00 -0.13857684182E+03  0.13857684182E+03  0.00000000000E+00 0. -1.
          2    1    1    2  501    0  0.21679284277E+02 -0.54418464545E+01  0.61251008315E+02  0.65201925426E+02  0.00000000000E+00 0.  1.
          2    1    1    2  502    0 -0.21679284277E+02  0.54418464545E+01 -0.13568703480E+03  0.13751573173E+03  0.00000000000E+00 0. -1.
</event>
<event>
 4    1  0.6136512E+003  0.2787480E+02  0.7546771E-02  0.1439013E+00
          2   -1    0    0  501    0  0.00000000000E+00  0.00000000000E+00  0.90286483817E+03  0.90286483817E+03  0.00000000000E+00 0.  1.
          2   -1    0    0  502    0 -0.00000000000E+00 -0.00000000000E+00 -0.10489243482E+01  0.10489243482E+01  0.00000000000E+00 0.  1.
          2    1    1    2  501    0  0.27852813343E+02  0.11069075808E+01  0.25940324490E+03  0.26089662305E+03  0.00000000000E+00 0.  1.
          2    1    1    2  502    0 -0.27852813343E+02 -0.11069075808E+01  0.64241266892E+03  0.64301713946E+03  0.00000000000E+00 0.  1.
</event>
<event>
 4    1  0.6136512E+003  0.2837516E+02  0.7546771E-02  0.1434263E+00
          2   -1    0    0  501    0  0.00000000000E+00  0.00000000000E+00  0.20757021305E+02  0.20757021305E+02  0.00000000000E+00 0.  1.
          2   -1    0    0  502    0 -0.00000000000E+00 -0.00000000000E+00 -0.12631978461E+04  0.12631978461E+04  0.00000000000E+00 0.  1.
          2    1    1    2  501    0 -0.28204094016E+02  0.31110577639E+01 -0.12532643302E+04  0.12535855100E+04  0.00000000000E+00 0.  1.
          2    1    1    2  502    0  0.28204094016E+02 -0.31110577639E+01  0.10823505387E+02  0.30369357395E+02  0.00000000000E+00 0.  1.
</event>
<event>
 4    1  0.6136512E+003  0.2720408E+02  0.7546771E-02  0.1445569E+00
          2   -1    0    0  502    0  0.00000000000E+00  0.00000000000E+00  0.63308074555E+03  0.63308074555E+03  0.00000000000E+00 0. -1.
          2   -1    0    0  501    0 -0.00000000000E+00 -0.00000000000E+00 -0.38136341015E+01  0.38136341015E+01  0.00000000000E+00 0.  1.
          2    1    1    2  501    0  0.25022563642E+02 -0.10673951717E+02  0.57982037403E+03  0.58045820528E+03  0.00000000000E+00 0. -1.
          2    1    1    2  502    0 -0.25022563642E+02  0.10673951717E+02  0.49446737426E+02  0.56436174379E+02  0.00000000000E+00 0.  1.
</event>
<event>
 4    1  0.6136512E+003  0.6878623E+02  0.7546771E-02  0.1232586E+00
          2   -1    0    0  501    0  0.00000000000E+00  0.00000000000E+00  0.21781661626E+03  0.21781661626E+03  0.00000000000E+00 0.  1.
          2   -1    0    0  502    0 -0.00000000000E+00 -0.00000000000E+00 -0.24218355660E+03  0.24218355660E+03  0.00000000000E+00 0.  1.
          2    1    1    2  501    0 -0.59266987727E+02 -0.34913743931E+02 -0.23162635655E+03  0.24162432493E+03  0.00000000000E+00 0.  1.
          2    1    1    2  502    0  0.59266987727E+02  0.34913743931E+02  0.20725941622E+03  0.21837584793E+03  0.00000000000E+00 0.  1.
</event>
<event>
 4    1  0.6136512E+003  0.2639903E+02  0.7546771E-02  0.1453740E+00
          2   -1    0    0  501    0  0.00000000000E+00  0.00000000000E+00  0.56147957406E+02  0.56147957406E+02  0.00000000000E+00 0. -1.
          2   -1    0    0  502    0 -0.00000000000E+00 -0.00000000000E+00 -0.24797652082E+02  0.24797652082E+02  0.00000000000E+00 0.  1.
          2    1    1    2  501    0 -0.26109147777E+02 -0.39014228041E+01 -0.12928228973E+02  0.29394690029E+02  0.00000000000E+00 0.  1.
          2    1    1    2  502    0  0.26109147777E+02  0.39014228041E+01  0.44278534297E+02  0.51550919458E+02  0.00000000000E+00 0. -1.
</event>
<event>
 4    1  0.6136512E+003  0.2667856E+02  0.7546771E-02  0.1450864E+00
          2   -1    0    0  502    0  0.00000000000E+00  0.00000000000E+00  0.30975878849E+02  0.30975878849E+02  0.00000000000E+00 0.  1.
          2   -1    0    0  501    0 -0.00000000000E+00 -0.00000000000E+00 -0.34214195347E+02  0.34214195347E+02  0.00000000000E+00 0.  1.
          2    1    1    2  501    0 -0.24200438348E+02 -0.11228729420E+02  0.17060515498E+02  0.31667124430E+02  0.00000000000E+00 0.  1.
          2    1    1    2  502    0  0.24200438348E+02  0.11228729420E+02 -0.20298831996E+02  0.33522949766E+02  0.00000000000E+00 0.  1.
</event>
<event>
 4    1  0.6136512E+003  0.2271800E+02  0.7546771E-02  0.1496070E+00
          2   -1    0    0  502    0  0.00000000000E+00  0.00000000000E+00  0.15869346427E+03  0.15869346427E+03  0.00000000000E+00 0.  1.
          2   -1    0    0  501    0 -0.00000000000E+00 -0.00000000000E+00 -0.24372407280E+03  0.24372407280E+03  0.00000000000E+00 0.  1.
          2    1    1    2  501    0 -0.18220526384E+02 -0.13569076305E+02  0.15734650136E+03  0.15897807680E+03  0.00000000000E+00 0.  1.
          2    1    1    2  502    0  0.18220526384E+02  0.13569076305E+02 -0.24237710990E+03  0.24343946027E+03  0.00000000000E+00 0.  1.
</event>
<event>
 4    1  0.6136512E+003  0.2096660E+02  0.7546771E-02  0.1519742E+00
          2   -1    0    0  501    0  0.00000000000E+00  0.00000000000E+00  0.19702916017E+03  0.19702916017E+03  0.00000000000E+00 0. -1.
          2   -1    0    0  502    0 -0.00000000000E+00 -0.00000000000E+00 -0.23674020490E+02  0.23674020490E+02  0.00000000000E+00 0. -1.
          2    1    1    2  501    0 -0.19936137687E+02 -0.64922154686E+01 -0.18345379575E+02  0.27859493881E+02  0.00000000000E+00 0. -1.
          2    1    1    2  502    0  0.19936137687E+02  0.64922154686E+01  0.19170051926E+03  0.19284368678E+03  0.00000000000E+00 0. -1.
</event>
<event>
 4    1  0.6136512E+003  0.4140042E+02  0.7546771E-02  0.1340469E+00
          2   -1    0    0  501    0  0.00000000000E+00  0.00000000000E+00  0.31462993388E+03  0.31462993388E+03  0.00000000000E+00 0.  1.
          2   -1    0    0  502    0 -0.00000000000E+00 -0.00000000000E+00 -0.54893456101E+01  0.54893456101E+01  0.00000000000E+00 0.  1.
          2    1    1    2  501    0  0.34450532921E+02 -0.22959863186E+02  0.14062094783E+03  0.14658869501E+03  0.00000000000E+00 0.  1.
          2    1    1    2  502    0 -0.34450532921E+02  0.22959863186E+02  0.16851964044E+03  0.17353058448E+03  0.00000000000E+00 0.  1.
</event>
<event>
 4    1  0.6136512E+003  0.6156830E+02  0.7546771E-02  0.1254595E+00
          2   -1    0    0  501    0  0.00000000000E+00  0.00000000000E+00  0.52155451834E+03  0.52155451834E+03  0.00000000000E+00 0.  1.
          2   -1    0    0  502    0 -0.00000000000E+00 -0.00000000000E+00 -0.61293723999E+03  0.61293723999E+03  0.00000000000E+00 0.  1.
          2    1    1    2  501    0  0.44358682570E+02 -0.42696174941E+02 -0.60956410900E+03  0.61266553604E+03  0.00000000000E+00 0.  1.
          2    1    1    2  502    0 -0.44358682570E+02  0.42696174941E+02  0.51818138735E+03  0.52182622229E+03  0.00000000000E+00 0.  1.
</event>
<event>
 4    1  0.6136512E+003  0.2156064E+02  0.7546771E-02  0.1511409E+00
          2   -1    0    0  501    0  0.00000000000E+00  0.00000000000E+00  0.11796566645E+04  0.11796566645E+04  0.00000000000E+00 0.  1.
          2   -1    0    0  502    0 -0.00000000000E+00 -0.00000000000E+00 -0.22690654524E+01  0.22690654524E+01  0.00000000000E+00 0.  1.
          2    1    1    2  501    0 -0.18736014807E+02 -0.10668781808E+02  0.51492082114E+02  0.55823791313E+02  0.00000000000E+00 0.  1.
          2    1    1    2  502    0  0.18736014807E+02  0.10668781808E+02  0.11258955169E+04  0.11261019386E+04  0.00000000000E+00 0.  1.
</event>
<event>
 4    1  0.6136512E+003  0.2221940E+02  0.7546771E-02  0.1502540E+00
          2   -1    0    0  501    0  0.00000000000E+00  0.00000000000E+00  0.59659312991E+02  0.59659312991E+02  0.00000000000E+00 0.  1.
          2   -1    0    0  502    0 -0.00000000000E+00 -0.00000000000E+00 -0.59602428426E+02  0.59602428426E+02  0.00000000000E+00 0.  1.
          2    1    1    2  501    0  0.77878454141E+01  0.20809881795E+02 -0.55308154221E+02  0.59604476676E+02  0.00000000000E+00 0.  1.
          2    1    1    2  502    0 -0.77878454141E+01 -0.20809881795E+02  0.55365038786E+02  0.59657264741E+02  0.00000000000E+00 0.  1.
</event>
<event>
 4    1  0.6136512E+003  0.2675333E+02  0.7546771E-02  0.1450102E+00
          2   -1    0    0  502    0  0.00000000000E+00  0.00000000000E+00  0.34749626566E+01  0.34749626566E+01  0.00000000000E+00 0. -1.
          2   -1    0    0  501    0 -0.00000000000E+00 -0.00000000000E+00 -0.19715097190E+04  0.19715097190E+04  0.00000000000E+00 0. -1.
          2    1    1    2  501    0 -0.73278684853E+01 -0.25730199990E+02 -0.49531114232E+02  0.56294512389E+02  0.00000000000E+00 0. -1.
          2    1    1    2  502    0  0.73278684853E+01  0.25730199990E+02 -0.19185036421E+04  0.19186901692E+04  0.00000000000E+00 0. -1.
</event>
<event>
 4    1  0.6136512E+003  0.2625655E+02  0.7546771E-02  0.1455223E+00
          2   -1    0    0  501    0  0.00000000000E+00  0.00000000000E+00  0.35778208616E+03  0.35778208616E+03  0.00000000000E+00 0. -1.
          2   -1    0    0  502    0 -0.00000000000E+00 -0.00000000000E+00 -0.28529421607E+01  0.28529421607E+01  0.00000000000E+00 0. -1.
          2    1    1    2  501    0 -0.15492787683E+02 -0.21198589757E+02  0.74731758290E+02  0.79210115358E+02  0.00000000000E+00 0. -1.
          2    1    1    2  502    0  0.15492787683E+02  0.21198589757E+02  0.28019738571E+03  0.28142491297E+03  0.00000000000E+00 0. -1.
</event>
<event>
 4    1  0.6136512E+003  0.2084314E+02  0.7546771E-02  0.1521516E+00
          2   -1    0    0  502    0  0.00000000000E+00  0.00000000000E+00  0.46145875411E+03  0.46145875411E+03  0.00000000000E+00 0.  1.
          2   -1    0    0  501    0 -0.00000000000E+00 -0.00000000000E+00 -0.11719416210E+01  0.11719416210E+01  0.00000000000E+00 0.  1.
          2    1    1    2  501    0  0.11422761444E+02 -0.17434357559E+02  0.33272921396E+03  0.33338141239E+03  0.00000000000E+00 0.  1.
          2    1    1    2  502    0 -0.11422761444E+02  0.17434357559E+02  0.12755759853E+03  0.12924928334E+03  0.00000000000E+00 0.  1.
</event>
<event>
 4    1  0.6136512E+003  0.2399561E+02  0.7546771E-02  0.1480361E+00
          2   -1    0    0  501    0  0.00000000000E+00  0.00000000000E+00  0.57879710723E+03  0.57879710723E+03  0.00000000000E+00 0.  1.
          2   -1    0    0  502    0 -0.00000000000E+00 -0.00000000000E+00 -0.45867209046E+01  0.45867209046E+01  0.00000000000E+00 0.  1.
          2    1    1    2  501    0 -0.22003643465E+02  0.95722963528E+01  0.28976415340E+02  0.37622092302E+02  0.00000000000E+00 0.  1.
          2    1    1    2  502    0  0.22003643465E+02 -0.95722963528E+01  0.54523397099E+03  0.54576173584E+03  0.00000000000E+00 0.  1.
</event>
<event>
 4    1  0.6136512E+003  0.2362990E+02  0.7546771E-02  0.1484736E+00
          2   -1    0    0  501    0  0.00000000000E+00  0.00000000000E+00  0.66406372922E+01  0.66406372922E+01  0.00000000000E+00 0.  1.
          2   -1    0    0  502    0 -0.00000000000E+00 -0.00000000000E+00 -0.44380509182E+03  0.44380509182E+03  0.00000000000E+00 0. -1.
          2    1    1    2  501    0 -0.13618982732E+02  0.19310496755E+02 -0.42135014054E+03  0.42201221891E+03  0.00000000000E+00 0. -1.
          2    1    1    2  502    0  0.13618982732E+02 -0.19310496755E+02 -0.15814313989E+02  0.28433510204E+02  0.00000000000E+00 0.  1.
</event>
<event>
 4    1  0.6136512E+003  0.3798188E+02  0.7546771E-02  0.1360736E+00
          2   -1    0    0  502    0  0.00000000000E+00  0.00000000000E+00  0.19299464302E+04  0.19299464302E+04  0.00000000000E+00 0.  1.
          2   -1    0    0  501    0 -0.00000000000E+00 -0.00000000000E+00 -0.20956224444E+02  0.20956224444E+02  0.00000000000E+00 0. -1.
          2    1    1    2  501    0  0.37299723793E+02 -0.71661617567E+01  0.19123916319E+04  0.19127687725E+04  0.00000000000E+00 0.  1.
          2    1    1    2  502    0 -0.37299723793E+02  0.71661617567E+01 -0.34014261280E+01  0.38133882166E+02  0.00000000000E+00 0. -1.
</event>
<event>
 4    1  0.6136512E+003  0.2702618E+02  0.7546771E-02  0.1447345E+00
          2   -1    0    0  502    0  0.00000000000E+00  0.00000000000E+00  0.53731279269E+03  0.53731279269E+03  0.00000000000E+00 0. -1.
          2   -1    0    0  501    0 -0.00000000000E+00 -0.00000000000E+00 -0.14247808545E+03  0.14247808545E+03  0.00000000000E+00 0.  1.
          2    1    1    2  501    0  0.21219003182E+01  0.26942748731E+02  0.53568743517E+03  0.53636875595E+03  0.00000000000E+00 0. -1.
          2    1    1    2  502    0 -0.21219003182E+01 -0.26942748731E+02 -0.14085272792E+03  0.14342212219E+03  0.00000000000E+00 0.  1.
</event>
<event>
 4    1  0.6136512E+003  0.3591114E+02  0.7546771E-02  0.1374268E+00
          2   -1    0    0  501    0  0.00000000000E+00  0.00000000000E+00  0.23701946906E+02  0.23701946906E+02  0.00000000000E+00 0. -1.
          2   -1    0    0  502    0 -0.00000000000E+00 -0.00000000000E+00 -0.14177561710E+03  0.14177561710E+03  0.00000000000E+00 0.  1.
          2    1    1    2  501    0 -0.26216984248E+02  0.24541392240E+02 -0.12398695544E+03  0.12908282347E+03  0.00000000000E+00 0.  1.
          2    1    1    2  502    0  0.26216984248E+02 -0.24541392240E+02  0.59132852474E+01  0.36394740534E+02  0.00000000000E+00 0. -1.
</event>
<event>
 4    1  0.6136512E+003  0.2225309E+02  0.7546771E-02  0.1502096E+00
          2   -1    0    0  501    0  0.00000000000E+00  0.00000000000E+00  0.15231073777E+03  0.15231073777E+03  0.00000000000E+00 0.  1.
          2   -1    0    0  502    0 -0.00000000000E+00 -0.00000000000E+00 -0.33548849086E+01  0.33548849086E+01  0.00000000000E+00 0.  1.
          2    1    1    2  501    0  0.26822598391E+01 -0.22090846976E+02  0.88157745509E+02  0.90922979115E+02  0.00000000000E+00 0.  1.
          2    1    1    2  502    0 -0.26822598391E+01  0.22090846976E+02  0.60798107357E+02  0.64742643568E+02  0.00000000000E+00 0.  1.
</event>
<event>
 4    1  0.6136512E+003  0.2380927E+02  0.7546771E-02  0.1482579E+00
          2   -1    0    0  502    0  0.00000000000E+00  0.00000000000E+00  0.24389727974E+02  0.24389727974E+02  0.00000000000E+00 0.  1.
          2   -1    0    0  501    0 -0.00000000000E+00 -0.00000000000E+00 -0.89228832366E+02  0.89228832366E+02  0.00000000000E+00 0. -1.
          2    1    1    2  501    0 -0.59033263026E+00 -0.23801946162E+02  0.16433678339E+02  0.28930034868E+02  0.00000000000E+00 0.  1.
          2    1    1    2  502    0  0.59033263026E+00  0.23801946162E+02 -0.81272782732E+02  0.84688525472E+02  0.00000000000E+00 0. -1.
</event>
<event>
 4    1  0.6136512E+003  0.2121195E+02  0.7546771E-02  0.1516260E+00
          2   -1    0    0  502    0  0.00000000000E+00  0.00000000000E+00  0.11525507477E+04  0.11525507477E+04  0.00000000000E+00 0. -1.
          2   -1    0    0  501    0 -0.00000000000E+00 -0.00000000000E+00 -0.34752228386E+02  0.34752228386E+02  0.00000000000E+00 0. -1.
          2    1    1    2  501    0 -0.13398005468E+02  0.16445064450E+02  0.11492069133E+04  0.11494026607E+04  0.00000000000E+00 0. -1.
          2    1    1    2  502    0  0.13398005468E+02 -0.16445064450E+02 -0.31408394010E+02  0.37900315429E+02  0.00000000000E+00 0. -1.
</event>
<event>
 4    1  0.6136512E+003  0.2181598E+02  0.7546771E-02  0.1507926E+00
          2   -1    0    0  501    0  0.00000000000E+00  0.00000000000E+00  0.41518657634E+03  0.41518657634E+03  0.00000000000E+00 0.  1.
          2   -1    0    0  502    0 -0.00000000000E+00 -0.00000000000E+00 -0.24329640409E+01  0.24329640409E+01  0.00000000000E+00 0.  1.
          2    1    1    2  501    0 -0.36301084398E+01 -0.21511836960E+02  0.54527742001E+02  0.58729987778E+02  0.00000000000E+00 0.  1.
          2    1    1    2  502    0  0.36301084398E+01  0.21511836960E+02  0.35822587030E+03  0.35888955260E+03  0.00000000000E+00 0.  1.
</event>
<event>
 4    1  0.6136512E+003  0.2509545E+02  0.7546771E-02  0.1467738E+00
          2   -1    0    0  502    0  0.00000000000E+00  0.00000000000E+00  0.12775586424E+04  0.12775586424E+04  0.00000000000E+00 0.  1.
          2   -1    0    0  501    0 -0.00000000000E+00 -0.00000000000E+00 -0.79575326326E+01  0.79575326326E+01  0.00000000000E+00 0. -1.
          2    1    1    2  501    0 -0.23935131694E+02 -0.75426080027E+01  0.12573314325E+04  0.12575818513E+04  0.00000000000E+00 0.  1.
          2    1    1    2  502    0  0.23935131694E+02  0.75426080027E+01  0.12269677276E+02  0.27934323782E+02  0.00000000000E+00 0. -1.
</event>
<event>
 4    1  0.6136512E+003  0.2908586E+02  0.7546771E-02  0.1427710E+00
          2   -1    0    0  501    0  0.00000000000E+00  0.00000000000E+00  0.48460427822E+03  0.48460427822E+03  0.00000000000E+00 0.  1.
          2   -1    0    0  502    0 -0.00000000000E+00 -0.00000000000E+00 -0.16002621486E+02  0.16002621486E+02  0.00000000000E+00 0. -1.
          2    1    1    2  501    0  0.12035243645E+02  0.26479048984E+02 -0.19556497373E+01  0.29151529816E+02  0.00000000000E+00 0. -1.
          2    1    1    2  502    0 -0.12035243645E+02 -0.26479048984E+02  0.47055730648E+03  0.47145536989E+03  0.00000000000E+00 0.  1.
</event>
<event>
 4    1  0.6136512E+003  0.2773282E+02  0.7546771E-02  0.1440383E+00
          2   -1    0    0  502    0  0.00000000000E+00  0.00000000000E+00  0.49130089426E+02  0.49130089426E+02  0.00000000000E+00 0. -1.
          2   -1    0    0  501    0 -0.00000000000E+00 -0.00000000000E+00 -0.11441814824E+04  0.11441814824E+04  0.00000000000E+00 0.  1.
          2    1    1    2  501    0 -0.20505553239E+02 -0.18671676799E+02  0.45034347496E+02  0.52888577997E+02  0.00000000000E+00 0. -1.
          2    1    1    2  502    0  0.20505553239E+02  0.18671676799E+02 -0.11400857404E+04  0.11404229938E+04  0.00000000000E+00 0.  1.
</event>
<event>
 4    1  0.6136512E+003  0.2855246E+02  0.7546771E-02  0.1432607E+00
          2   -1    0    0  501    0  0.00000000000E+00  0.00000000000E+00  0.65904580805E+01  0.65904580805E+01  0.00000000000E+00 0. -1.
          2   -1    0    0  502    0 -0.00000000000E+00 -0.00000000000E+00 -0.12152382182E+04  0.12152382182E+04  0.00000000000E+00 0. -1.
          2    1    1    2  501    0  0.24902757046E+02 -0.13967661813E+02 -0.11833111091E+04  0.11836555343E+04  0.00000000000E+00 0. -1.
          2    1    1    2  502    0 -0.24902757046E+02  0.13967661813E+02 -0.25336650975E+02  0.38173141967E+02  0.00000000000E+00 0. -1.
</event>
<event>
 4    1  0.6136512E+003  0.2051344E+02  0.7546771E-02  0.1526326E+00
          2   -1    0    0  502    0  0.00000000000E+00  0.00000000000E+00  0.72308785434E+02  0.72308785434E+02  0.00000000000E+00 0.  1.
          2   -1    0    0  501    0 -0.00000000000E+00 -0.00000000000E+00 -0.88181771508E+03  0.88181771508E+03  0.00000000000E+00 0.  1.
          2    1    1    2  501    0  0.20513428625E+02 -0.23868118201E-01  0.70732004052E+02  0.73646573042E+02  0.00000000000E+00 0.  1.
          2    1    1    2  502    0 -0.20513428625E+02  0.23868118201E-01 -0.88024093370E+03  0.88047992747E+03  0.00000000000E+00 0.  1.
</event>
<event>
 4    1  0.6136512E+003  0.2876631E+02  0.7546771E-02  0.1430629E+00
          2   -1    0    0  502    0  0.00000000000E+00  0.00000000000E+00  0.15674108320E+04  0.15674108320E+04  0.00000000000E+00 0. -1.
          2   -1    0    0  501    0 -0.00000000000E+00 -0.00000000000E+00 -0.81099622603E+00  0.81099622603E+00  0.00000000000E+00 0. -1.
          2    1    1    2  501    0  0.11686041767E+02 -0.26285677306E+02  0.12465373974E+04  0.12468692728E+04  0.00000000000E+00 0. -1.
          2    1    1    2  502    0 -0.11686041767E+02  0.26285677306E+02  0.32006243839E+03  0.32135255542E+03  0.00000000000E+00 0. -1.
</event>
<event>
 4    1  0.9915802E+003  0.2068392E+02  0.7546771E-02  0.1523826E+00
          2   -1    0    0  501    0  0.00000000000E+00  0.00000000000E+00  0.11022509172E+04  0.11022509172E+04  0.00000000000E+00 0. -1.
          2   -1    0    0  502    0 -0.00000000000E+00 -0.00000000000E+00 -0.88886652054E+03  0.88886652054E+03  0.00000000000E+00 0. -1.
          2    1    1    2  501    0 -0.70155968089E+01 -0.19457793895E+02 -0.88864913394E+03  0.88888981746E+03  0.00000000000E+00 0. -1.
          2    1    1    2  502    0  0.70155968089E+01  0.19457793895E+02  0.11020335306E+04  0.11022276203E+04  0.00000000000E+00 0. -1.
</event>
<event>
 4    1  0.6136512E+003  0.4482378E+02  0.7546771E-02  0.1322323E+00
          2   -1    0    0  501    0  0.00000000000E+00  0.00000000000E+00  0.23583066907E+04  0.23583066907E+04  0.00000000000E+00 0. -1.
          2   -1    0    0  502    0 -0.00000000000E+00 -0.00000000000E+00 -0.14772438310E+02  0.14772438310E+02  0.00000000000E+00 0.  1.
          2    1    1    2  501    0 -0.23528043059E+01  0.44761986052E+02  0.19950643201E+02  0.49063216848E+02  0.00000000000E+00 0.  1.
          2    1    1    2  502    0  0.23528043059E+01 -0.44761986052E+02  0.23235836092E+04  0.23240159122E+04  0.00000000000E+00 0. -1.
</event>
<event>
 4    1  0.6136512E+003  0.3081121E+02  0.7546771E-02  0.1412675E+00
          2   -1    0    0  502    0  0.00000000000E+00  0.00000000000E+00  0.60865322958E+03  0.60865322958E+03  0.00000000000E+00 0. -1.
          2   -1    0    0  501    0 -0.00000000000E+00 -0.00000000000E+00 -0.26607119421E+02  0.26607119421E+02  0.00000000000E+00 0. -1.
          2    1    1    2  501    0 -0.29107109350E+02 -0.10104801008E+02  0.59920281539E+03  0.59999445396E+03  0.00000000000E+00 0. -1.
          2    1    1    2  502    0  0.29107109350E+02  0.10104801008E+02 -0.17156705233E+02  0.35265895034E+02  0.00000000000E+00 0. -1.
</event>
<event>
 4    1  0.6136512E+003  0.4155384E+02  0.7546771E-02  0.1339613E+00
          2   -1    0    0  502    0  0.00000000000E+00  0.00000000000E+00  0.24138920266E+01  0.24138920266E+01  0.00000000000E+00 0.  1.
          2   -1    0    0  501    0 -0.00000000000E+00 -0.00000000000E+00 -0.14082211580E+04  0.14082211580E+04  0.00000000000E+00 0.  1.
          2    1    1    2  501    0  0.35810048498E+02 -0.21079893016E+02 -0.20815707633E+03  0.21226419833E+03  0.00000000000E+00 0.  1.
          2    1    1    2  502    0 -0.35810048498E+02  0.21079893016E+02 -0.11976501897E+04  0.11983708517E+04  0.00000000000E+00 0.  1.
</event>
<event>
 4    1  0.6136512E+003  0.2876889E+02  0.7546771E-02  0.1430605E+00
          2   -1    0    0  501    0  0.00000000000E+00  0.00000000000E+00  0.77368740098E+03  0.77368740098E+03  0.00000000000E+00 0.  1.
          2   -1    0    0  502    0 -0.00000000000E+00 -0.00000000000E+00 -0.34698341042E+03  0.34698341042E+03  0.00000000000E+00 0.  1.
          2    1    1    2  501    0  0.22638230009E+02 -0.17752728845E+02 -0.34611898991E+03  0.34731254515E+03  0.00000000000E+00 0.  1.
          2    1    1    2  502    0 -0.22638230009E+02  0.17752728845E+02  0.77282298047E+03  0.77335826625E+03  0.00000000000E+00 0.  1.
</event>
<event>
 4    1  0.6136512E+003  0.2526468E+02  0.7546771E-02  0.1465864E+00
          2   -1    0    0  501    0  0.00000000000E+00  0.00000000000E+00  0.56087816016E+03  0.56087816016E+03  0.00000000000E+00 0.  1.
          2   -1    0    0  502    0 -0.00000000000E+00 -0.00000000000E+00 -0.18757607972E+02  0.18757607972E+02  0.00000000000E+00 0.  1.
          2    1    1    2  501    0 -0.22786033022E+01  0.25161719256E+02 -0.98282696104E+01  0.27109021237E+02  0.00000000000E+00 0.  1.
          2    1    1    2  502    0  0.22786033022E+01 -0.25161719256E+02  0.55194882180E+03  0.55252674689E+03  0.00000000000E+00 0.  1.
</event>
<event>
 4    1  0.6136512E+003  0.2377454E+02  0.7546771E-02  0.1482995E+00
          2   -1    0    0  501    0  0.00000000000E+00  0.00000000000E+00  0.14206338955E+04  0.14206338955E+04  0.00000000000E+00 0.  1.
          2   -1    0    0  502    0 -0.00000000000E+00 -0.00000000000E+00 -0.85414035249E+02  0.85414035249E+02  0.00000000000E+00 0.  1.
          2    1    1    2  501    0 -0.22213544246E+02 -0.84727191050E+01 -0.83658142070E+02  0.86970760900E+02  0.00000000000E+00 0.  1.
          2    1    1    2  502    0  0.22213544246E+02  0.84727191050E+01  0.14188780023E+04  0.14190771699E+04  0.00000000000E+00 0.  1.
</event>
<event>
 4    1  0.6136512E+003  0.3394795E+02  0.7546771E-02  0.1388114E+00
          2   -1    0    0  502    0  0.00000000000E+00  0.00000000000E+00  0.56509406235E+03  0.56509406235E+03  0.00000000000E+00 0. -1.
          2   -1    0    0  501    0 -0.00000000000E+00 -0.00000000000E+00 -0.75269977806E+02  0.75269977806E+02  0.00000000000E+00 0.  1.
          2    1    1    2  501    0 -0.18567621488E+02 -0.28420186895E+02  0.56072665454E+03  0.56175336644E+03  0.00000000000E+00 0. -1.
          2    1    1    2  502    0  0.18567621488E+02  0.28420186895E+02 -0.70902569995E+02  0.78610673721E+02  0.00000000000E+00 0.  1.
</event>
<event>
 4    1  0.6136512E+003  0.2170017E+02  0.7546771E-02  0.1509499E+00
          2   -1    0    0  501    0  0.00000000000E+00  0.00000000000E+00  0.11239240269E+02  0.11239240269E+02  0.00000000000E+00 0.  1.
          2   -1    0    0  502    0 -0.00000000000E+00 -0.00000000000E+00 -0.13415741807E+03  0.13415741807E+03  0.00000000000E+00 0.  1.
          2    1    1    2  501    0  0.10447789075E+02  0.19019496343E+02 -0.12174603831E+03  0.12366485103E+03  0.00000000000E+00 0.  1.
          2    1    1    2  502    0 -0.10447789075E+02 -0.19019496343E+02 -0.11721394920E+01  0.21731807304E+02  0.00000000000E+00 0.  1.
</event>
<event>
 4    1  0.6136512E+003  0.2252576E+02  0.7546771E-02  0.1498541E+00
          2   -1    0    0  502    0  0.00000000000E+00  0.00000000000E+00  0.47352803772E+03  0.47352803772E+03  0.00000000000E+00 0. -1.
          2   -1    0    0  501    0 -0.00000000000E+00 -0.00000000000E+00 -0.28726009923E+01  0.28726009923E+01  0.00000000000E+00 0.  1.
          2    1    1    2  501    0  0.15266428086E+02  0.16563398706E+02  0.42393889633E+03  0.42453692162E+03  0.00000000000E+00 0. -1.
          2    1    1    2  502    0 -0.15266428086E+02 -0.16563398706E+02  0.46716540403E+02  0.51863717090E+02  0.00000000000E+00 0.  1.
</event>
<event>
 4    1  0.6136512E+003  0.2173232E+02  0.7546771E-02  0.1509061E+00
          2   -1    0    0  502    0  0.00000000000E+00  0.00000000000E+00  0.69585098864E+03  0.69585098864E+03  0.00000000000E+00 0. -1.
          2   -1    0    0  501    0 -0.00000000000E+00 -0.00000000000E+00 -0.18953198173E+03  0.18953198173E+03  0.00000000000E+00 0.  1.
          2    1    1    2  501    0  0.16351381570E+02  0.14315238561E+02  0.69505762200E+03  0.69539729049E+03  0.00000000000E+00 0. -1.
          2    1    1    2  502    0 -0.16351381570E+02 -0.14315238561E+02 -0.18873861508E+03  0.18998567988E+03  0.00000000000E+00 0.  1.
</event>
<event>
 4    1  0.6136512E+003  0.2274158E+02  0.7546771E-02  0.1495769E+00
          2   -1    0    0  501    0  0.00000000000E+00  0.00000000000E+00  0.30626037814E+00  0.30626037814E+00  0.00000000000E+00 0.  1.
          2   -1    0    0  502    0 -0.00000000000E+00 -0.00000000000E+00 -0.16933555186E+04  0.16933555186E+04  0.00000000000E+00 0.  1.
          2    1    1    2  501    0  0.16534893315E+02 -0.15613352051E+02 -0.89096504871E+03  0.89125523700E+03  0.00000000000E+00 0.  1.
          2    1    1    2  502    0 -0.16534893315E+02  0.15613352051E+02 -0.80208420952E+03  0.80240654199E+03  0.00000000000E+00 0.  1.
</event>
<event>
 4    1  0.6136512E+003  0.3273263E+02  0.7546771E-02  0.1397245E+00
          2   -1    0    0  501    0  0.00000000000E+00  0.00000000000E+00  0.99132456745E+01  0.99132456745E+01  0.00000000000E+00 0. -1.
          2   -1    0    0  502    0 -0.00000000000E+00 -0.00000000000E+00 -0.27953381934E+03  0.27953381934E+03  0.00000000000E+00 0.  1.
          2    1    1    2  501    0 -0.21969750870E+02  0.24264274043E+02 -0.24815346446E+03  0.25030295019E+03  0.00000000000E+00 0.  1.
          2    1    1    2  502    0  0.21969750870E+02 -0.24264274043E+02 -0.21467109207E+02  0.39144114831E+02  0.00000000000E+00 0. -1.
</event>
<event>
 4    1  0.6136512E+003  0.2402344E+02  0.7546771E-02  0.1480032E+00
          2   -1    0    0  501    0  0.00000000000E+00  0.00000000000E+00  0.78268729804E+03  0.78268729804E+03  0.00000000000E+00 0. -1.
          2   -1    0    0  502    0 -0.00000000000E+00 -0.00000000000E+00 -0.23591030318E+02  0.23591030318E+02  0.00000000000E+00 0. -1.
          2    1    1    2  501    0 -0.83074638122E+01  0.22541334740E+02 -0.17240729356E+02  0.29569722278E+02  0.00000000000E+00 0. -1.
          2    1    1    2  502    0  0.83074638122E+01 -0.22541334740E+02  0.77633699707E+03  0.77670860608E+03  0.00000000000E+00 0. -1.
</event>
<event>
 4    1  0.6136512E+003  0.2315339E+02  0.7546771E-02  0.1490581E+00
          2   -1    0    0  501    0  0.00000000000E+00  0.00000000000E+00  0.71541016893E+03  0.71541016893E+03  0.00000000000E+00 0. -1.
          2   -1    0    0  502    0 -0.00000000000E+00 -0.00000000000E+00 -0.12781627863E+01  0.12781627863E+01  0.00000000000E+00 0. -1.
          2    1    1    2  501    0  0.19588302456E+02  0.12344147332E+02  0.12656877119E+03  0.12866908489E+03  0.00000000000E+00 0. -1.
          2    1    1    2  502    0 -0.19588302456E+02 -0.12344147332E+02  0.58756323495E+03  0.58801924682E+03  0.00000000000E+00 0. -1.
</event>
<event>
 4    1  0.6136512E+003  0.2451473E+02  0.7546771E-02  0.1474306E+00
          2   -1    0    0  502    0  0.00000000000E+00  0.00000000000E+00  0.74958997435E+02  0.74958997435E+02  0.00000000000E+00 0. -1.
          2   -1    0    0  501    0 -0.00000000000E+00 -0.00000000000E+00 -0.61762836275E+03  0.61762836275E+03  0.00000000000E+00 0. -1.
          2    1    1    2  501    0  0.19611687983E+02  0.14708968944E+02  0.72704061804E+02  0.76725827957E+02  0.00000000000E+00 0. -1.
          2    1    1    2  502    0 -0.19611687983E+02 -0.14708968944E+02 -0.61537342712E+03  0.61586153222E+03  0.00000000000E+00 0. -1.
</event>
<event>
 4    1  0.6136512E+003  0.2203006E+02  0.7546771E-02  0.1505051E+00
          2   -1    0    0  502    0  0.00000000000E+00  0.00000000000E+00  0.43041989924E+00  0.43041989924E+00  0.00000000000E+00 0.  1.
          2   -1    0    0  501    0 -0.00000000000E+00 -0.00000000000E+00 -0.11425140366E+04  0.11425140366E+04  0.00000000000E+00 0.  1.
          2    1    1    2  501    0  0.97647523514E+01  0.19747737316E+02 -0.50565823132E+03  0.50613789664E+03  0.00000000000E+00 0.  1.
          2    1    1    2  502    0 -0.97647523514E+01 -0.19747737316E+02 -0.63642538542E+03  0.63680655990E+03  0.00000000000E+00 0.  1.
</event>
<event>
 4    1  0.6136512E+003  0.1197124E+03  0.7546771E-02  0.1133453E+00
          2   -1    0    0  502    0  0.00000000000E+00  0.00000000000E+00  0.43921505332E+02  0.43921505332E+02  0.00000000000E+00 0. -1.
          2   -1    0    0  501    0 -0.00000000000E+00 -0.00000000000E+00 -0.12974087546E+04  0.12974087546E+04  0.00000000000E+00 0.  1.
          2    1    1    2  501    0  0.45570246934E+02 -0.11069967727E+03 -0.46508650378E+02  0.12842943788E+03  0.00000000000E+00 0. -1.
          2    1    1    2  502    0 -0.45570246934E+02  0.11069967727E+03 -0.12069785989E+04  0.12129008221E+04  0.00000000000E+00 0.  1.
</event>
<event>
 4    1  0.6136512E+003  0.2386638E+02  0.7546771E-02  0.1481896E+00
          2   -1    0    0  501    0  0.00000000000E+00  0.00000000000E+00  0.14789000263E+04  0.14789000263E+04  0.00000000000E+00 0.  1.
          2   -1    0    0  502    0 -0.00000000000E+00 -0.00000000000E+00 -0.15397708937E+02  0.15397708937E+02  0.00000000000E+00 0.  1.
          2    1    1    2  501    0 -0.11005964916E+02  0.21177177467E+02 -0.59940471169E+01  0.24607574241E+02  0.00000000000E+00 0.  1.
          2    1    1    2  502    0  0.11005964916E+02 -0.21177177467E+02  0.14694963645E+04  0.14696901610E+04  0.00000000000E+00 0.  1.
</event>
<event>
 4    1  0.6136512E+003  0.2146836E+02  0.7546771E-02  0.1512682E+00
          2   -1    0    0  501    0  0.00000000000E+00  0.00000000000E+00  0.15297248732E+03  0.15297248732E+03  0.00000000000E+00 0. -1.
          2   -1    0    0  502    0 -0.00000000000E+00 -0.00000000000E+00 -0.49765806207E+02  0.49765806207E+02  0.00000000000E+00 0. -1.
          2    1    1    2  501    0 -0.14121886803E+02 -0.16169805479E+02 -0.46649381368E+02  0.51352264586E+02  0.00000000000E+00 0. -1.
          2    1    1    2  502    0  0.14121886803E+02  0.16169805479E+02  0.14985606249E+03  0.15138602895E+03  0.00000000000E+00 0. -1.
</event>
<event>
 4    1  0.6136512E+003  0.2487541E+02  0.7546771E-02  0.1470202E+00
          2   -1    0    0  502    0  0.00000000000E+00  0.00000000000E+00  0.75345104354E+03  0.75345104354E+03  0.00000000000E+00 0. -1.
          2   -1    0    0  501    0 -0.00000000000E+00 -0.00000000000E+00 -0.96903638304E+02  0.96903638304E+02  0.00000000000E+00 0.  1.
          2    1    1    2  501    0  0.19683157355E+02 -0.15210501619E+02  0.75164549730E+03  0.75205700559E+03  0.00000000000E+00 0. -1.
          2    1    1    2  502    0 -0.19683157355E+02  0.15210501619E+02 -0.95098092064E+02  0.98297676255E+02  0.00000000000E+00 0.  1.
</event>
<event>
 4    1  0.6136512E+003  0.2238307E+02  0.7546771E-02  0.1500394E+00
          2   -1    0    0  502    0  0.00000000000E+00  0.00000000000E+00  0.33172009352E+03  0.33172009352E+03  0.00000000000E+00 0.  1.
          2   -1    0    0  501    0 -0.00000000000E+00 -0.00000000000E+00 -0.11161096513E+03  0.11161096513E+03  0.00000000000E+00 0. -1.
          2    1    1    2  501    0 -0.20385227711E+02 -0.92436107436E+01  0.33021520067E+03  0.33097293032E+03  0.00000000000E+00 0.  1.
          2    1    1    2  502    0  0.20385227711E+02  0.92436107436E+01 -0.11010607229E+03  0.11235812833E+03  0.00000000000E+00 0. -1.
</event>
<event>
 4    1  0.6136512E+003  0.2726659E+02  0.7546771E-02  0.1444948E+00
          2   -1    0    0  502    0  0.00000000000E+00  0.00000000000E+00  0.55297819211E+02  0.55297819211E+02  0.00000000000E+00 0.  1.
          2   -1    0    0  501    0 -0.00000000000E+00 -0.00000000000E+00 -0.13782420315E+03  0.13782420315E+03  0.00000000000E+00 0. -1.
          2    1    1    2  501    0 -0.12673864240E+02  0.24142087062E+02  0.50467215591E+02  0.57362069803E+02  0.00000000000E+00 0.  1.
          2    1    1    2  502    0  0.12673864240E+02 -0.24142087062E+02 -0.13299359953E+03  0.13575995256E+03  0.00000000000E+00 0. -1.
</event>
<event>
 4    1  0.6136512E+003  0.3300848E+02  0.7546771E-02  0.1395132E+00
          2   -1    0    0  501    0  0.00000000000E+00  0.00000000000E+00  0.21147398381E+01  0.21147398381E+01  0.00000000000E+00 0.  1.
          2   -1    0    0  502    0 -0.00000000000E+00 -0.00000000000E+00 -0.11232420223E+04  0.11232420223E+04  0.00000000000E+00 0.  1.
          2    1    1    2  501    0  0.12124682510E+02 -0.30701009044E+02 -0.97454673022E+03  0.97510557852E+03  0.00000000000E+00 0.  1.
          2    1    1    2  502    0 -0.12124682510E+02  0.30701009044E+02 -0.14658055221E+03  0.15025118358E+03  0.00000000000E+00 0.  1.
</event>
<event>
 4    1  0.6136512E+003  0.2596891E+02  0.7546771E-02  0.1458250E+00
          2   -1    0    0  502    0  0.00000000000E+00  0.00000000000E+00  0.22263043743E+02  0.22263043743E+02  0.00000000000E+00 0. -1.
          2   -1    0    0  501    0 -0.00000000000E+00 -0.00000000000E+00 -0.50999620493E+03  0.50999620493E+03  0.00000000000E+00 0.  1.
          2    1    1    2  501    0 -0.11533918420E+02  0.23266993772E+02  0.14238569904E+02  0.29616231128E+02  0.00000000000E+00 0. -1.
          2    1    1    2  502    0  0.11533918420E+02 -0.23266993772E+02 -0.50197173110E+03  0.50264301755E+03  0.00000000000E+00 0.  1.
</event>
<event>
 4    1  0.6136512E+003  0.2153141E+02  0.7546771E-02  0.1511811E+00
          2   -1    0    0  501    0  0.00000000000E+00  0.00000000000E+00  0.24892045528E+01  0.24892045528E+01  0.00000000000E+00 0. -1.
          2   -1    0    0  502    0 -0.00000000000E+00 -0.00000000000E+00 -0.31775219761E+03  0.31775219761E+03  0.00000000000E+00 0.  1.
          2    1    1    2  501    0  0.20452991766E+02  0.67288058805E+01 -0.26064119041E+03  0.26152902677E+03  0.00000000000E+00 0.  1.
          2    1    1    2  502    0 -0.20452991766E+02 -0.67288058805E+01 -0.54621802644E+02  0.58712375398E+02  0.00000000000E+00 0. -1.
</event>
<event>
 4    1  0.6136512E+003  0.3983478E+02  0.7546771E-02  0.1349457E+00
          2   -1    0    0  502    0  0.00000000000E+00  0.00000000000E+00  0.83735569673E+03  0.83735569673E+03  0.00000000000E+00 0. -1.
          2   -1    0    0  501    0 -0.00000000000E+00 -0.00000000000E+00 -0.78145064726E+02  0.78145064726E+02  0.00000000000E+00 0.  1.
          2    1    1    2  501    0  0.27709156563E+02  0.28618389475E+02  0.83177139101E+03  0.83272471830E+03  0.00000000000E+00 0. -1.
          2    1    1    2  502    0 -0.27709156563E+02 -0.28618389475E+02 -0.72560759001E+02  0.82776043155E+02  0.00000000000E+00 0.  1.
</event>
<event>
 4    1  0.6136512E+003  0.2418276E+02  0.7546771E-02  0.1478157E+00
          2   -1    0    0  501    0  0.00000000000E+00  0.00000000000E+00  0.51506466866E+02  0.51506466866E+02  0.00000000000E+00 0.  1.
          2   -1    0    0  502    0 -0.00000000000E+00 -0.00000000000E+00 -0.15228260154E+04  0.15228260154E+04  0.00000000000E+00 0. -1.
          2    1    1    2  501    0  0.20694643771E+02  0.12511502905E+02 -0.15198860108E+04  0.15200783835E+04  0.00000000000E+00 0. -1.
          2    1    1    2  502    0 -0.20694643771E+02 -0.12511502905E+02  0.48566462248E+02  0.54254098841E+02  0.00000000000E+00 0.  1.
</event>
<event>
 4    1  0.6136512E+003  0.1771052E+03  0.7546771E-02  0.1072675E+00
          2   -1    0    0  501    0  0.00000000000E+00  0.00000000000E+00  0.12468640357E+03  0.12468640357E+03  0.00000000000E+00 0. -1.
          2   -1    0    0  502    0 -0.00000000000E+00 -0.00000000000E+00 -0.75760195145E+03  0.75760195145E+03  0.00000000000E+00 0. -1.
          2    1    1    2  501    0 -0.18615420334E+02  0.17612418354E+03 -0.67699719176E+03  0.69977957926E+03  0.00000000000E+00 0. -1.
          2    1    1    2  502    0  0.18615420334E+02 -0.17612418354E+03  0.44081643883E+02  0.18250877576E+03  0.00000000000E+00 0. -1.
</event>
<event>
 4    1  0.6136512E+003  0.2218327E+02  0.7546771E-02  0.1503017E+00
          2   -1    0    0  501    0  0.00000000000E+00  0.00000000000E+00  0.22426460742E+02  0.22426460742E+02  0.00000000000E+00 0. -1.
          2   -1    0    0  502    0 -0.00000000000E+00 -0.00000000000E+00 -0.58608804743E+02  0.58608804743E+02  0.00000000000E+00 0. -1.
          2    1    1    2  501    0  0.13489032800E+02 -0.17610893110E+02 -0.50138726646E+02  0.54826904633E+02  0.00000000000E+00 0. -1.
          2    1    1    2  502    0 -0.13489032800E+02  0.17610893110E+02  0.13956382644E+02  0.26208360851E+02  0.00000000000E+00 0. -1.
</event>
<event>
 4    1  0.6136512E+003  0.4412831E+02  0.7546771E-02  0.1325856E+00
          2   -1    0    0  502    0  0.00000000000E+00  0.00000000000E+00  0.10842133303E+04  0.10842133303E+04  0.00000000000E+00 0. -1.
          2   -1    0    0  501    0 -0.00000000000E+00 -0.00000000000E+00 -0.58185746190E+01  0.58185746190E+01  0.00000000000E+00 0. -1.
          2    1    1    2  501    0  0.20634219385E+02 -0.39006880087E+02  0.99235568860E+03  0.99333635814E+03  0.00000000000E+00 0. -1.
          2    1    1    2  502    0 -0.20634219385E+02  0.39006880087E+02  0.86039067120E+02  0.96695546819E+02  0.00000000000E+00 0. -1.
</event>
<event>
 4    1  0.6136512E+003  0.2268679E+02  0.7546771E-02  0.1496469E+00
          2   -1    0    0  502    0  0.00000000000E+00  0.00000000000E+00  0.95119541773E+00  0.95119541773E+00  0.00000000000E+00 0. -1.
          2   -1    0    0  501    0 -0.00000000000E+00 -0.00000000000E+00 -0.81994597894E+03  0.81994597894E+03  0.00000000000E+00 0. -1.
          2    1    1    2  501    0  0.18458097910E+02 -0.13190496458E+02 -0.17013860556E+03  0.17164450378E+03  0.00000000000E+00 0. -1.
          2    1    1    2  502    0 -0.18458097910E+02  0.13190496458E+02 -0.64885617796E+03  0.64925267058E+03  0.00000000000E+00 0. -1.
</event>
<event>
 4    1  0.6136512E+003  0.3773288E+02  0.7546771E-02  0.1362309E+00
          2   -1    0    0  502    0  0.00000000000E+00  0.00000000000E+00  0.11150502360E+01  0.11150502360E+01  0.00000000000E+00 0.  1.
          2   -1    0    0  501    0 -0.00000000000E+00 -0.00000000000E+00 -0.21459848309E+04  0.21459848309E+04  0.00000000000E+00 0.  1.
          2    1    1    2  501    0 -0.33442307232E+02  0.17475195318E+02 -0.38923408895E+03  0.39105875053E+03  0.00000000000E+00 0.  1.
          2    1    1    2  502    0  0.33442307232E+02 -0.17475195318E+02 -0.17556356917E+04  0.17560411306E+04  0.00000000000E+00 0.  1.
</event>
<event>
 4    1  0.6136512E+003  0.5326026E+02  0.7546771E-02  0.1284624E+00
          2   -1    0    0  501    0  0.00000000000E+00  0.00000000000E+00  0.10918856425E+04  0.10918856425E+04  0.00000000000E+00 0.  1.
          2   -1    0    0  502    0 -0.00000000000E+00 -0.00000000000E+00 -0.87617410886E+02  0.87617410886E+02  0.00000000000E+00 0. -1.
          2    1    1    2  501    0  0.28306819345E+02  0.45115181804E+02 -0.78808264284E+02  0.95117812055E+02  0.00000000000E+00 0. -1.
          2    1    1    2  502    0 -0.28306819345E+02 -0.45115181804E+02  0.10830764959E+04  0.10843852413E+04  0.00000000000E+00 0.  1.
</event>
<event>
 4    1  0.6136512E+003  0.2000943E+02  0.7546771E-02  0.1533891E+00
          2   -1    0    0  502    0  0.00000000000E+00  0.00000000000E+00  0.33811010667E+03  0.33811010667E+03  0.00000000000E+00 0. -1.
          2   -1    0    0  501    0 -0.00000000000E+00 -0.00000000000E+00 -0.51841036338E+01  0.51841036338E+01  0.00000000000E+00 0.  1.
          2    1    1    2  501    0  0.19796759295E+02 -0.29095817445E+01  0.31723699582E+03  0.31786740767E+03  0.00000000000E+00 0. -1.
          2    1    1    2  502    0 -0.19796759295E+02  0.29095817445E+01  0.15689007215E+02  0.25426802628E+02  0.00000000000E+00 0.  1.
</event>
<event>
 4    1  0.6136512E+003  0.2136833E+02  0.7546771E-02  0.1514070E+00
          2   -1    0    0  502    0  0.00000000000E+00  0.00000000000E+00  0.66701029720E+01  0.66701029720E+01  0.00000000000E+00 0.  1.
          2   -1    0    0  501    0 -0.00000000000E+00 -0.00000000000E+00 -0.15032764228E+03  0.15032764228E+03  0.00000000000E+00 0.  1.
          2    1    1    2  501    0  0.20380759914E+01 -0.21270918107E+02 -0.13897655098E+02  0.25490204552E+02  0.00000000000E+00 0.  1.
          2    1    1    2  502    0 -0.20380759914E+01  0.21270918107E+02 -0.12975988421E+03  0.13150754070E+03  0.00000000000E+00 0.  1.
</event>
<event>
 4    1  0.6136512E+003  0.2047824E+02  0.7546771E-02  0.1526846E+00
          2   -1    0    0  502    0  0.00000000000E+00  0.00000000000E+00  0.22930415660E+03  0.22930415660E+03  0.00000000000E+00 0.  1.
          2   -1    0    0  501    0 -0.00000000000E+00 -0.00000000000E+00 -0.21214757642E+01  0.21214757642E+01  0.00000000000E+00 0.  1.
          2    1    1    2  501    0  0.50517057622E+01 -0.19845366292E+02  0.15656809661E+03  0.15790163764E+03  0.00000000000E+00 0.  1.
          2    1    1    2  502    0 -0.50517057622E+01  0.19845366292E+02  0.70614584235E+02  0.73523994730E+02  0.00000000000E+00 0.  1.
</event>
<event>
 4    1  0.6136512E+003  0.5275208E+02  0.7546771E-02  0.1286662E+00
          2   -1    0    0  502    0  0.00000000000E+00  0.00000000000E+00  0.44398317891E+02  0.44398317891E+02  0.00000000000E+00 0. -1.
          2   -1    0    0  501    0 -0.00000000000E+00 -0.00000000000E+00 -0.72466533996E+02  0.72466533996E+02  0.00000000000E+00 0.  1.
          2    1    1    2  501    0 -0.48482670333E+02  0.20789732526E+02  0.74418094724E+01  0.53274410643E+02  0.00000000000E+00 0. -1.
          2    1    1    2  502    0  0.48482670333E+02 -0.20789732526E+02 -0.35510025577E+02  0.63590441244E+02  0.00000000000E+00 0.  1.
</event>
<event>
 4    1  0.6136512E+003  0.2346447E+02  0.7546771E-02  0.1486747E+00
          2   -1    0    0  501    0  0.00000000000E+00  0.00000000000E+00  0.62759117656E+03  0.62759117656E+03  0.00000000000E+00 0. -1.
          2   -1    0    0  502    0 -0.00000000000E+00 -0.00000000000E+00 -0.13002416814E+03  0.13002416814E+03  0.00000000000E+00 0. -1.
          2    1    1    2  501    0 -0.22538171914E+02  0.65278148627E+01 -0.12874406801E+03  0.13086487920E+03  0.00000000000E+00 0. -1.
          2    1    1    2  502    0  0.22538171914E+02 -0.65278148627E+01  0.62631107643E+03  0.62675046551E+03  0.00000000000E+00 0. -1.
</event>
<event>
 4    1  0.6136512E+003  0.3101437E+02  0.7546771E-02  0.1410982E+00
          2   -1    0    0  501    0  0.00000000000E+00  0.00000000000E+00  0.15007638665E+03  0.15007638665E+03  0.00000000000E+00 0. -1.
          2   -1    0    0  502    0 -0.00000000000E+00 -0.00000000000E+00 -0.13786084394E+02  0.13786084394E+02  0.00000000000E+00 0. -1.
          2    1    1    2  501    0  0.17454074901E+01 -0.30965218489E+02  0.82128042287E+01  0.32083350147E+02  0.00000000000E+00 0. -1.
          2    1    1    2  502    0 -0.17454074901E+01  0.30965218489E+02  0.12807749803E+03  0.13177912090E+03  0.00000000000E+00 0. -1.
</event>
<event>
 4    1  0.6136512E+003  0.4147294E+02  0.7546771E-02  0.1340064E+00
          2   -1    0    0  501    0  0.00000000000E+00  0.00000000000E+00  0.33941295038E+03  0.33941295038E+03  0.00000000000E+00 0.  1.
          2   -1    0    0  502    0 -0.00000000000E+00 -0.00000000000E+00 -0.59514456172E+03  0.59514456172E+03  0.00000000000E+00 0.  1.
          2    1    1    2  501    0 -0.34437487168E+02 -0.23109831651E+02 -0.59315089624E+03  0.59459901660E+03  0.00000000000E+00 0.  1.
          2    1    1    2  502    0  0.34437487168E+02  0.23109831651E+02  0.33741928489E+03  0.33995849550E+03  0.00000000000E+00 0.  1.
</event>
<event>
 4    1  0.6136512E+003  0.2212438E+02  0.7546771E-02  0.1503796E+00
          2   -1    0    0  501    0  0.00000000000E+00  0.00000000000E+00  0.27970383244E+03  0.27970383244E+03  0.00000000000E+00 0. -1.
          2   -1    0    0  502    0 -0.00000000000E+00 -0.00000000000E+00 -0.27508416946E+02  0.27508416946E+02  0.00000000000E+00 0. -1.
          2    1    1    2  501    0  0.18631024325E+02  0.11932026888E+02 -0.22542094219E+02  0.31585350161E+02  0.00000000000E+00 0. -1.
          2    1    1    2  502    0 -0.18631024325E+02 -0.11932026888E+02  0.27473750971E+03  0.27562689923E+03  0.00000000000E+00 0. -1.
</event>
<event>
 4    1  0.6136512E+003  0.2646264E+02  0.7546771E-02  0.1453082E+00
          2   -1    0    0  501    0  0.00000000000E+00  0.00000000000E+00  0.71007819229E+02  0.71007819229E+02  0.00000000000E+00 0.  1.
          2   -1    0    0  502    0 -0.00000000000E+00 -0.00000000000E+00 -0.13506388542E+03  0.13506388542E+03  0.00000000000E+00 0.  1.
          2    1    1    2  501    0  0.12748385337E+02 -0.23189436831E+02 -0.13123093435E+03  0.13387243719E+03  0.00000000000E+00 0.  1.
          2    1    1    2  502    0 -0.12748385337E+02  0.23189436831E+02  0.67174868159E+02  0.72199267458E+02  0.00000000000E+00 0.  1.
</event>
<event>
 4    1  0.6136512E+003  0.3030329E+02  0.7546771E-02  0.1416979E+00
          2   -1    0    0  501    0  0.00000000000E+00  0.00000000000E+00  0.23624433288E+02  0.23624433288E+02  0.00000000000E+00 0.  1.
          2   -1    0    0  502    0 -0.00000000000E+00 -0.00000000000E+00 -0.34922615684E+03  0.34922615684E+03  0.00000000000E+00 0.  1.
          2    1    1    2  501    0 -0.13072073417E+02 -0.27338801929E+02 -0.33854523054E+03  0.33989875303E+03  0.00000000000E+00 0.  1.
          2    1    1    2  502    0  0.13072073417E+02  0.27338801929E+02  0.12943506990E+02  0.32951837089E+02  0.00000000000E+00 0.  1.
</event>
<event>
 4    1  0.6136512E+003  0.2861527E+02  0.7546771E-02  0.1432024E+00
          2   -1    0    0  501    0  0.00000000000E+00  0.00000000000E+00  0.10159552525E+03  0.10159552525E+03  0.00000000000E+00 0. -1.
          2   -1    0    0  502    0 -0.00000000000E+00 -0.00000000000E+00 -0.29768857413E+02  0.29768857413E+02  0.00000000000E+00 0. -1.
          2    1    1    2  501    0 -0.36741500975E+00 -0.28612906728E+02 -0.20176950677E+02  0.35013465465E+02  0.00000000000E+00 0. -1.
          2    1    1    2  502    0  0.36741500975E+00  0.28612906728E+02  0.92003618510E+02  0.96350917194E+02  0.00000000000E+00 0. -1.
</event>
<event>
 4    1  0.6136512E+003  0.2192960E+02  0.7546771E-02  0.1506395E+00
          2   -1    0    0  501    0  0.00000000000E+00  0.00000000000E+00  0.16750793215E+02  0.16750793215E+02  0.00000000000E+00 0. -1.
          2   -1    0    0  502    0 -0.00000000000E+00 -0.00000000000E+00 -0.58873365788E+03  0.58873365788E+03  0.00000000000E+00 0. -1.
          2    1    1    2  501    0 -0.10629988007E+02 -0.19181004233E+02 -0.58125980600E+03  0.58167333585E+03  0.00000000000E+00 0. -1.
          2    1    1    2  502    0  0.10629988007E+02  0.19181004233E+02  0.92769413392E+01  0.23811115241E+02  0.00000000000E+00 0. -1.
</event>
<event>
 4    1  0.6136512E+003  0.2182664E+02  0.7546771E-02  0.1507782E+00
          2   -1    0    0  501    0  0.00000000000E+00  0.00000000000E+00  0.25669208746E+02  0.25669208746E+02  0.00000000000E+00 0. -1.
          2   -1    0    0  502    0 -0.00000000000E+00 -0.00000000000E+00 -0.43013183885E+03  0.43013183885E+03  0.00000000000E+00 0. -1.
          2    1    1    2  501    0 -0.21255995609E+02 -0.49583032295E+01 -0.42516091243E+03  0.42572080473E+03  0.00000000000E+00 0. -1.
          2    1    1    2  502    0  0.21255995609E+02  0.49583032295E+01  0.20698282321E+02  0.30080242873E+02  0.00000000000E+00 0. -1.
</event>
<event>
 4    1  0.6136512E+003  0.2074682E+02  0.7546771E-02  0.1522911E+00
          2   -1    0    0  502    0  0.00000000000E+00  0.00000000000E+00  0.38450114336E+01  0.38450114336E+01  0.00000000000E+00 0. -1.
          2   -1    0    0  501    0 -0.00000000000E+00 -0.00000000000E+00 -0.99572496622E+03  0.99572496622E+03  0.00000000000E+00 0. -1.
          2    1    1    2  501    0 -0.18686711974E+02 -0.90131762859E+01 -0.25086764488E+02  0.32554205621E+02  0.00000000000E+00 0. -1.
          2    1    1    2  502    0  0.18686711974E+02  0.90131762859E+01 -0.96679319030E+03  0.96701577204E+03  0.00000000000E+00 0. -1.
</event>
<event>
 4    1  0.6136512E+003  0.2038037E+02  0.7546771E-02  0.1528298E+00
          2   -1    0    0  502    0  0.00000000000E+00  0.00000000000E+00  0.49401364797E+01  0.49401364797E+01  0.00000000000E+00 0.  1.
          2   -1    0    0  501    0 -0.00000000000E+00 -0.00000000000E+00 -0.14760612379E+03  0.14760612379E+03  0.00000000000E+00 0. -1.
          2    1    1    2  501    0  0.19001705590E+02 -0.73684910535E+01 -0.21294924670E+02  0.29475978227E+02  0.00000000000E+00 0.  1.
          2    1    1    2  502    0 -0.19001705590E+02  0.73684910535E+01 -0.12137106264E+03  0.12307028204E+03  0.00000000000E+00 0. -1.
</event>
<event>
 4    1  0.6136512E+003  0.2282037E+02  0.7546771E-02  0.1494766E+00
          2   -1    0    0  501    0  0.00000000000E+00  0.00000000000E+00  0.13321237841E+01  0.13321237841E+01  0.00000000000E+00 0.  1.
          2   -1    0    0  502    0 -0.00000000000E+00 -0.00000000000E+00 -0.89457021729E+03  0.89457021729E+03  0.00000000000E+00 0. -1.
          2    1    1    2  501    0 -0.22761905936E+02 -0.16324637716E+01 -0.78273023094E+03  0.78306282234E+03  0.00000000000E+00 0. -1.
          2    1    1    2  502    0  0.22761905936E+02  0.16324637716E+01 -0.11050786256E+03  0.11283951873E+03  0.00000000000E+00 0.  1.
</event>
<event>
 4    1  0.6136512E+003  0.2199011E+02  0.7546771E-02  0.1505584E+00
          2   -1    0    0  502    0  0.00000000000E+00  0.00000000000E+00  0.37211517398E+02  0.37211517398E+02  0.00000000000E+00 0.  1.
          2   -1    0    0  501    0 -0.00000000000E+00 -0.00000000000E+00 -0.28744511351E+03  0.28744511351E+03  0.00000000000E+00 0. -1.
          2    1    1    2  501    0 -0.19026322977E+01  0.21907645590E+02  0.33499751027E+02  0.40072412753E+02  0.00000000000E+00 0.  1.
          2    1    1    2  502    0  0.19026322977E+01 -0.21907645590E+02 -0.28373334714E+03  0.28458421816E+03  0.00000000000E+00 0. -1.
</event>
<event>
 4    1  0.6136512E+003  0.2936090E+02  0.7546771E-02  0.1425233E+00
          2   -1    0    0  501    0  0.00000000000E+00  0.00000000000E+00  0.12167560397E+04  0.12167560397E+04  0.00000000000E+00 0. -1.
          2   -1    0    0  502    0 -0.00000000000E+00 -0.00000000000E+00 -0.85137403634E+01  0.85137403634E+01  0.00000000000E+00 0.  1.
          2    1    1    2  501    0  0.22394262863E+02  0.18988398902E+02  0.17530845170E+02  0.34196386277E+02  0.00000000000E+00 0.  1.
          2    1    1    2  502    0 -0.22394262863E+02 -0.18988398902E+02  0.11907114541E+04  0.11910733938E+04  0.00000000000E+00 0. -1.
</event>
<event>
 4    1  0.6136512E+003  0.2316201E+02  0.7546771E-02  0.1490474E+00
          2   -1    0    0  501    0  0.00000000000E+00  0.00000000000E+00  0.87889435988E+03  0.87889435988E+03  0.00000000000E+00 0. -1.
          2   -1    0    0  502    0 -0.00000000000E+00 -0.00000000000E+00 -0.17362198400E+01  0.17362198400E+01  0.00000000000E+00 0.  1.
          2    1    1    2  501    0 -0.15470968159E+02  0.17237398269E+02  0.84014367487E+02  0.87148681569E+02  0.00000000000E+00 0.  1.
          2    1    1    2  502    0  0.15470968159E+02 -0.17237398269E+02  0.79314377255E+03  0.79348189815E+03  0.00000000000E+00 0. -1.
</event>
<event>
 4    1  0.6136512E+003  0.2711335E+02  0.7546771E-02  0.1446473E+00
          2   -1    0    0  501    0  0.00000000000E+00  0.00000000000E+00  0.41331349939E+03  0.41331349939E+03  0.00000000000E+00 0. -1.
          2   -1    0    0  502    0 -0.00000000000E+00 -0.00000000000E+00 -0.92918673021E+01  0.92918673021E+01  0.00000000000E+00 0. -1.
          2    1    1    2  501    0 -0.26973248763E+02 -0.27527644900E+01  0.12004988603E+02  0.29652210922E+02  0.00000000000E+00 0. -1.
          2    1    1    2  502    0  0.26973248763E+02  0.27527644900E+01  0.39201664348E+03  0.39295315577E+03  0.00000000000E+00 0. -1.
</event>
<event>
 4    1  0.6136512E+003  0.3709750E+02  0.7546771E-02  0.1366388E+00
          2   -1    0    0  502    0  0.00000000000E+00  0.00000000000E+00  0.35294205423E+02  0.35294205423E+02  0.00000000000E+00 0. -1.
          2   -1    0    0  501    0 -0.00000000000E+00 -0.00000000000E+00 -0.25803125466E+04  0.25803125466E+04  0.00000000000E+00 0. -1.
          2    1    1    2  501    0 -0.26175214889E+02  0.26288453115E+02  0.25375016209E+02  0.44945701566E+02  0.00000000000E+00 0. -1.
          2    1    1    2  502    0  0.26175214889E+02 -0.26288453115E+02 -0.25703933574E+04  0.25706610504E+04  0.00000000000E+00 0. -1.
</event>
<event>
 4    1  0.6136512E+003  0.2253394E+02  0.7546771E-02  0.1498435E+00
          2   -1    0    0  501    0  0.00000000000E+00  0.00000000000E+00  0.17827969245E+04  0.17827969245E+04  0.00000000000E+00 0. -1.
          2   -1    0    0  502    0 -0.00000000000E+00 -0.00000000000E+00 -0.31734095192E+00  0.31734095192E+00  0.00000000000E+00 0.  1.
          2    1    1    2  501    0  0.21350793670E+02  0.72056909452E+01  0.60583603718E+03  0.60625496478E+03  0.00000000000E+00 0.  1.
          2    1    1    2  502    0 -0.21350793670E+02 -0.72056909452E+01  0.11766435464E+04  0.11768593007E+04  0.00000000000E+00 0. -1.
</event>
<event>
 4    1  0.6136512E+003  0.2417020E+02  0.7546771E-02  0.1478304E+00
          2   -1    0    0  501    0  0.00000000000E+00  0.00000000000E+00  0.17714434418E+01  0.17714434418E+01  0.00000000000E+00 0. -1.
          2   -1    0    0  502    0 -0.00000000000E+00 -0.00000000000E+00 -0.18405142942E+04  0.18405142942E+04  0.00000000000E+00 0. -1.
          2    1    1    2  501    0 -0.22513250216E+02  0.87949953764E+01 -0.17539178226E+04  0.17540843557E+04  0.00000000000E+00 0. -1.
          2    1    1    2  502    0  0.22513250216E+02 -0.87949953764E+01 -0.84825028103E+02  0.88201381915E+02  0.00000000000E+00 0. -1.
</event>
<event>
 4    1  0.6136512E+003  0.5376223E+02  0.7546771E-02  0.1282636E+00
          2   -1    0    0  502    0  0.00000000000E+00  0.00000000000E+00  0.12564034641E+02  0.12564034641E+02  0.00000000000E+00 0.  1.
          2   -1    0    0  501    0 -0.00000000000E+00 -0.00000000000E+00 -0.75920440357E+03  0.75920440357E+03  0.00000000000E+00 0.  1.
          2    1    1    2  501    0 -0.23385908824E+02  0.48409468330E+02 -0.51162737888E+02  0.74215922171E+02  0.00000000000E+00 0.  1.
          2    1    1    2  502    0  0.23385908824E+02 -0.48409468330E+02 -0.69547763104E+03  0.69755251604E+03  0.00000000000E+00 0.  1.
</event>
<event>
 4    1  0.6136512E+003  0.2026464E+02  0.7546771E-02  0.1530028E+00
          2   -1    0    0  502    0  0.00000000000E+00  0.00000000000E+00  0.77904417344E+03  0.77904417344E+03  0.00000000000E+00 0. -1.
          2   -1    0    0  501    0 -0.00000000000E+00 -0.00000000000E+00 -0.72135966884E+03  0.72135966884E+03  0.00000000000E+00 0. -1.
          2    1    1    2  501    0 -0.90436979032E+01 -0.18134690753E+02  0.77877002156E+03  0.77903363340E+03  0.00000000000E+00 0. -1.
          2    1    1    2  502    0  0.90436979032E+01  0.18134690753E+02 -0.72108551696E+03  0.72137020888E+03  0.00000000000E+00 0. -1.
</event>
<event>
 4    1  0.6136512E+003  0.2998243E+02  0.7546771E-02  0.1419749E+00
          2   -1    0    0  502    0  0.00000000000E+00  0.00000000000E+00  0.15232678918E+03  0.15232678918E+03  0.00000000000E+00 0.  1.
          2   -1    0    0  501    0 -0.00000000000E+00 -0.00000000000E+00 -0.19919602463E+04  0.19919602463E+04  0.00000000000E+00 0.  1.
          2    1    1    2  501    0 -0.22253030500E+02 -0.20093499807E+02  0.15073743149E+03  0.15369033591E+03  0.00000000000E+00 0.  1.
          2    1    1    2  502    0  0.22253030500E+02  0.20093499807E+02 -0.19903708887E+04  0.19905966996E+04  0.00000000000E+00 0.  1.
</event>
<event>
 4    1  0.6136512E+003  0.3473099E+02  0.7546771E-02  0.1382464E+00
          2   -1    0    0  501    0  0.00000000000E+00  0.00000000000E+00  0.26047514151E+04  0.26047514151E+04  0.00000000000E+00 0. -1.
          2   -1    0    0  502    0 -0.00000000000E+00 -0.00000000000E+00 -0.18208959604E+01  0.18208959604E+01  0.00000000000E+00 0. -1.
          2    1    1    2  501    0  0.14177860940E+02  0.31705363378E+02  0.17604271143E+03  0.17943599989E+03  0.00000000000E+00 0. -1.
          2    1    1    2  502    0 -0.14177860940E+02 -0.31705363378E+02  0.24268878077E+04  0.24271363112E+04  0.00000000000E+00 0. -1.
</event>
<event>
 4    1  0.6136512E+003  0.6340277E+02  0.7546771E-02  0.1248690E+00
          2   -1    0    0  501    0  0.00000000000E+00  0.00000000000E+00  0.12882566424E+03  0.12882566424E+03  0.00000000000E+00 0. -1.
          2   -1    0    0  502    0 -0.00000000000E+00 -0.00000000000E+00 -0.55315045786E+03  0.55315045786E+03  0.00000000000E+00 0. -1.
          2    1    1    2  501    0  0.13481173038E+02 -0.61952963713E+02 -0.54339295561E+03  0.54707935069E+03  0.00000000000E+00 0. -1.
          2    1    1    2  502    0 -0.13481173038E+02  0.61952963713E+02  0.11906816199E+03  0.13489677142E+03  0.00000000000E+00 0. -1.
</event>
<event>
 4    1  0.6136512E+003  0.2156169E+02  0.7546771E-02  0.1511394E+00
          2   -1    0    0  501    0  0.00000000000E+00  0.00000000000E+00  0.26716757511E+01  0.26716757511E+01  0.00000000000E+00 0.  1.
          2   -1    0    0  502    0 -0.00000000000E+00 -0.00000000000E+00 -0.69513390409E+03  0.69513390409E+03  0.00000000000E+00 0. -1.
          2    1    1    2  501    0 -0.99675508938E+01  0.19119481816E+02 -0.64832323661E+03  0.64868168294E+03  0.00000000000E+00 0. -1.
          2    1    1    2  502    0  0.99675508938E+01 -0.19119481816E+02 -0.44138991730E+02  0.49123896900E+02  0.00000000000E+00 0.  1.
</event>
<event>
 4    1  0.6136512E+003  0.3001486E+02  0.7546771E-02  0.1419467E+00
          2   -1    0    0  502    0  0.00000000000E+00  0.00000000000E+00  0.28674524265E+03  0.28674524265E+03  0.00000000000E+00 0.  1.
          2   -1    0    0  501    0 -0.00000000000E+00 -0.00000000000E+00 -0.10672843672E+02  0.10672843672E+02  0.00000000000E+00 0. -1.
          2    1    1    2  501    0  0.23805747120E+02 -0.18280547552E+02  0.26295428204E+03  0.26466175859E+03  0.00000000000E+00 0.  1.
          2    1    1    2  502    0 -0.23805747120E+02  0.18280547552E+02  0.13118116938E+02  0.32756327736E+02  0.00000000000E+00 0. -1.
</event>
<event>
 4    1  0.6136512E+003  0.4127745E+02  0.7546771E-02  0.1341158E+00
          2   -1    0    0  502    0  0.00000000000E+00  0.00000000000E+00  0.11652751204E+04  0.11652751204E+04  0.00000000000E+00 0. -1.
          2   -1    0    0  501    0 -0.00000000000E+00 -0.00000000000E+00 -0.19027756309E+01  0.19027756309E+01  0.00000000000E+00 0.  1.
          2    1    1    2  501    0 -0.27879229292E+02  0.30439723956E+02  0.86251337834E+03  0.86350052463E+03  0.00000000000E+00 0. -1.
          2    1    1    2  502    0  0.27879229292E+02 -0.30439723956E+02  0.30085896646E+03  0.30367737143E+03  0.00000000000E+00 0.  1.
</event>
<event>
 4    1  0.6136512E+003  0.2742008E+02  0.7546771E-02  0.1443433E+00
          2   -1    0    0  501    0  0.00000000000E+00  0.00000000000E+00  0.13898797265E+04  0.13898797265E+04  0.00000000000E+00 0.  1.
          2   -1    0    0  502    0 -0.00000000000E+00 -0.00000000000E+00 -0.66784004797E+01  0.66784004797E+01  0.00000000000E+00 0. -1.
          2    1    1    2  501    0 -0.63739624302E+01  0.26668962033E+02  0.22199207821E+02  0.35279820874E+02  0.00000000000E+00 0. -1.
          2    1    1    2  502    0  0.63739624302E+01 -0.26668962033E+02  0.13610021182E+04  0.13612783061E+04  0.00000000000E+00 0.  1.
</event>
<event>
 4    1  0.6136512E+003  0.2321199E+02  0.7546771E-02  0.1489853E+00
          2   -1    0    0  502    0  0.00000000000E+00  0.00000000000E+00  0.57740428555E+02  0.57740428555E+02  0.00000000000E+00 0. -1.
          2   -1    0    0  501    0 -0.00000000000E+00 -0.00000000000E+00 -0.12035101448E+02  0.12035101448E+02  0.00000000000E+00 0.  1.
          2    1    1    2  501    0  0.22662485050E+02 -0.50207675872E+01  0.39388698899E+02  0.45719426251E+02  0.00000000000E+00 0. -1.
          2    1    1    2  502    0 -0.22662485050E+02  0.50207675872E+01  0.63166282087E+01  0.24056103752E+02  0.00000000000E+00 0.  1.
</event>
<event>
 4    1  0.6136512E+003  0.2819650E+02  0.7546771E-02  0.1435946E+00
          2   -1    0    0  501    0  0.00000000000E+00  0.00000000000E+00  0.25360445586E+03  0.25360445586E+03  0.00000000000E+00 0.  1.
          2   -1    0    0  502    0 -0.00000000000E+00 -0.00000000000E+00 -0.47561848496E+01  0.47561848496E+01  0.00000000000E+00 0. -1.
          2    1    1    2  501    0 -0.28140888720E+02  0.17699530274E+01  0.49004003870E+02  0.56537021031E+02  0.00000000000E+00 0. -1.
          2    1    1    2  502    0  0.28140888720E+02 -0.17699530274E+01  0.19984426714E+03  0.20182361968E+03  0.00000000000E+00 0.  1.
</event>
<event>
 4    1  0.6136512E+003  0.3357098E+02  0.7546771E-02  0.1390898E+00
          2   -1    0    0  502    0  0.00000000000E+00  0.00000000000E+00  0.50921684761E+01  0.50921684761E+01  0.00000000000E+00 0. -1.
          2   -1    0    0  501    0 -0.00000000000E+00 -0.00000000000E+00 -0.66133521399E+03  0.66133521399E+03  0.00000000000E+00 0.  1.
          2    1    1    2  501    0  0.10055905300E+02 -0.32029511581E+02 -0.56324505910E+02  0.65570273825E+02  0.00000000000E+00 0. -1.
          2    1    1    2  502    0 -0.10055905300E+02  0.32029511581E+02 -0.59991853960E+03  0.60085710864E+03  0.00000000000E+00 0.  1.
</event>
<event>
 4    1  0.6136512E+003  0.2037217E+02  0.7546771E-02  0.1528420E+00
          2   -1    0    0  501    0  0.00000000000E+00  0.00000000000E+00  0.28667102652E+01  0.28667102652E+01  0.00000000000E+00 0. -1.
          2   -1    0    0  502    0 -0.00000000000E+00 -0.00000000000E+00 -0.16083735085E+03  0.16083735085E+03  0.00000000000E+00 0. -1.
          2    1    1    2  501    0  0.17850422680E+02  0.98177171313E+01 -0.10485278411E+03  0.10681353610E+03  0.00000000000E+00 0. -1.
          2    1    1    2  502    0 -0.17850422680E+02 -0.98177171313E+01 -0.53117856476E+02  0.56890525012E+02  0.00000000000E+00 0. -1.
</event>
<event>
 4    1  0.6136512E+003  0.2874881E+02  0.7546771E-02  0.1430790E+00
          2   -1    0    0  502    0  0.00000000000E+00  0.00000000000E+00  0.22202396199E+02  0.22202396199E+02  0.00000000000E+00 0. -1.
          2   -1    0    0  501    0 -0.00000000000E+00 -0.00000000000E+00 -0.38464283451E+02  0.38464283451E+02  0.00000000000E+00 0.  1.
          2    1    1    2  501    0 -0.69144894825E+01 -0.27904910900E+02 -0.26872001550E+01  0.28874127897E+02  0.00000000000E+00 0. -1.
          2    1    1    2  502    0  0.69144894825E+01  0.27904910900E+02 -0.13574687097E+02  0.31792551752E+02  0.00000000000E+00 0.  1.
</event>
<event>
 4    1  0.6136512E+003  0.4672968E+02  0.7546771E-02  0.1313010E+00
          2   -1    0    0  502    0  0.00000000000E+00  0.00000000000E+00  0.23202687402E+03  0.23202687402E+03  0.00000000000E+00 0.  1.
          2   -1    0    0  501    0 -0.00000000000E+00 -0.00000000000E+00 -0.40973907247E+03  0.40973907247E+03  0.00000000000E+00 0. -1.
          2    1    1    2  501    0 -0.45170576038E+02 -0.11970064669E+02  0.22832030343E+03  0.23305326504E+03  0.00000000000E+00 0.  1.
          2    1    1    2  502    0  0.45170576038E+02  0.11970064669E+02 -0.40603250188E+03  0.40871268144E+03  0.00000000000E+00 0. -1.
</event>
<event>
 4    1  0.6136512E+003  0.2708285E+02  0.7546771E-02  0.1446778E+00
          2   -1    0    0  501    0  0.00000000000E+00  0.00000000000E+00  0.22211784345E+03  0.22211784345E+03  0.00000000000E+00 0. -1.
          2   -1    0    0  502    0 -0.00000000000E+00 -0.00000000000E+00 -0.49722227583E+01  0.49722227583E+01  0.00000000000E+00 0. -1.
          2    1    1    2  501    0 -0.20705681827E+02  0.17457252020E+02  0.42768843111E+02  0.50622671296E+02  0.00000000000E+00 0. -1.
          2    1    1    2  502    0  0.20705681827E+02 -0.17457252020E+02  0.17437677758E+03  0.17646739491E+03  0.00000000000E+00 0. -1.
</event>
<event>
 4    1  0.6136512E+003  0.2412520E+02  0.7546771E-02  0.1478832E+00
          2   -1    0    0  502    0  0.00000000000E+00  0.00000000000E+00  0.21971694172E+01  0.21971694172E+01  0.00000000000E+00 0. -1.
          2   -1    0    0  501    0 -0.00000000000E+00 -0.00000000000E+00 -0.98896051370E+03  0.98896051370E+03  0.00000000000E+00 0. -1.
          2    1    1    2  501    0  0.19776976727E+02  0.13816528318E+02 -0.69337222356E+02  0.73414410488E+02  0.00000000000E+00 0. -1.
          2    1    1    2  502    0 -0.19776976727E+02 -0.13816528318E+02 -0.91742612193E+03  0.91774327263E+03  0.00000000000E+00 0. -1.
</event>
<event>
 4    1  0.6136512E+003  0.2178666E+02  0.7546771E-02  0.1508323E+00
          2   -1    0    0  501    0  0.00000000000E+00  0.00000000000E+00  0.47406498779E+02  0.47406498779E+02  0.00000000000E+00 0.  1.
          2   -1    0    0  502    0 -0.00000000000E+00 -0.00000000000E+00 -0.52103897970E+02  0.52103897970E+02  0.00000000000E+00 0.  1.
          2    1    1    2  501    0  0.15884447119E+02 -0.14911166352E+02 -0.47068506936E+02  0.51866201784E+02  0.00000000000E+00 0.  1.
          2    1    1    2  502    0 -0.15884447119E+02  0.14911166352E+02  0.42371107745E+02  0.47644194965E+02  0.00000000000E+00 0.  1.
</event>
<event>
 4    1  0.6136512E+003  0.2793441E+02  0.7546771E-02  0.1438441E+00
          2   -1    0    0  501    0  0.00000000000E+00  0.00000000000E+00  0.63235479253E+01  0.63235479253E+01  0.00000000000E+00 0. -1.
          2   -1    0    0  502    0 -0.00000000000E+00 -0.00000000000E+00 -0.43466843776E+03  0.43466843776E+03  0.00000000000E+00 0.  1.
          2    1    1    2  501    0  0.22276585229E+02 -0.16854819164E+02 -0.40076254572E+03  0.40173492409E+03  0.00000000000E+00 0.  1.
          2    1    1    2  502    0 -0.22276585229E+02  0.16854819164E+02 -0.27582344114E+02  0.39257061598E+02  0.00000000000E+00 0. -1.
</event>
<event>
 4    1  0.6136512E+003  0.2086676E+02  0.7546771E-02  0.1521176E+00
          2   -1    0    0  501    0  0.00000000000E+00  0.00000000000E+00  0.35494343224E+02  0.35494343224E+02  0.00000000000E+00 0. -1.
          2   -1    0    0  502    0 -0.00000000000E+00 -0.00000000000E+00 -0.89246899872E+02  0.89246899872E+02  0.00000000000E+00 0. -1.
          2    1    1    2  501    0 -0.17532835514E+02  0.11314659063E+02 -0.84801961191E+02  0.87331520384E+02  0.00000000000E+00 0. -1.
          2    1    1    2  502    0  0.17532835514E+02 -0.11314659063E+02  0.31049404543E+02  0.37409722712E+02  0.00000000000E+00 0. -1.
</event>
<event>
 4    1  0.6136512E+003  0.2181670E+02  0.7546771E-02  0.1507917E+00
          2   -1    0    0  501    0  0.00000000000E+00  0.00000000000E+00  0.48835293294E+01  0.48835293294E+01  0.00000000000E+00 0. -1.
          2   -1    0    0  502    0 -0.00000000000E+00 -0.00000000000E+00 -0.16866588161E+03  0.16866588161E+03  0.00000000000E+00 0. -1.
          2    1    1    2  501    0  0.76443272962E+01 -0.20433616980E+02 -0.13827118966E+03  0.13998175000E+03  0.00000000000E+00 0. -1.
          2    1    1    2  502    0 -0.76443272962E+01  0.20433616980E+02 -0.25511162615E+02  0.33567660936E+02  0.00000000000E+00 0. -1.
</event>
<event>
 4    1  0.6136512E+003  0.2422421E+02  0.7546771E-02  0.1477672E+00
          2   -1    0    0  502    0  0.00000000000E+00  0.00000000000E+00  0.25548362006E+03  0.25548362006E+03  0.00000000000E+00 0. -1.
          2   -1    0    0  501    0 -0.00000000000E+00 -0.00000000000E+00 -0.44914519823E+03  0.44914519823E+03  0.00000000000E+00 0. -1.
          2    1    1    2  501    0  0.11950766261E+02 -0.21071101651E+02  0.25458162122E+03  0.25573152720E+03  0.00000000000E+00 0. -1.
          2    1    1    2  502    0 -0.11950766261E+02  0.21071101651E+02 -0.44824319939E+03  0.44889729108E+03  0.00000000000E+00 0. -1.
</event>
<event>
 4    1  0.6136512E+003  0.2436997E+02  0.7546771E-02  0.1475976E+00
          2   -1    0    0  501    0  0.00000000000E+00  0.00000000000E+00  0.79088171660E+01  0.79088171660E+01  0.00000000000E+00 0.  1.
          2   -1    0    0  502    0 -0.00000000000E+00 -0.00000000000E+00 -0.38413685746E+03  0.38413685746E+03  0.00000000000E+00 0.  1.
          2    1    1    2  501    0 -0.11945340991E+02 -0.21241567345E+02 -0.36393628436E+03  0.36475130490E+03  0.00000000000E+00 0.  1.
          2    1    1    2  502    0  0.11945340991E+02  0.21241567345E+02 -0.12291755935E+02  0.27294369724E+02  0.00000000000E+00 0.  1.
</event>
<event>
 4    1  0.6136512E+003  0.2091496E+02  0.7546771E-02  0.1520482E+00
          2   -1    0    0  502    0  0.00000000000E+00  0.00000000000E+00  0.32540626908E+02  0.32540626908E+02  0.00000000000E+00 0.  1.
          2   -1    0    0  501    0 -0.00000000000E+00 -0.00000000000E+00 -0.34391700320E+03  0.34391700320E+03  0.00000000000E+00 0. -1.
          2    1    1    2  501    0  0.13315839559E+02 -0.16128358564E+02  0.28825291411E+02  0.35613662520E+02  0.00000000000E+00 0.  1.
          2    1    1    2  502    0 -0.13315839559E+02  0.16128358564E+02 -0.34020166771E+03  0.34084396759E+03  0.00000000000E+00 0. -1.
</event>
<event>
 4    1  0.6136512E+003  0.2586949E+02  0.7546771E-02  0.1459307E+00
          2   -1    0    0  502    0  0.00000000000E+00  0.00000000000E+00  0.51990685933E+02  0.51990685933E+02  0.00000000000E+00 0.  1.
          2   -1    0    0  501    0 -0.00000000000E+00 -0.00000000000E+00 -0.50163290737E+03  0.50163290737E+03  0.00000000000E+00 0.  1.
          2    1    1    2  501    0 -0.14950574762E+01 -0.25826254883E+02  0.48416047721E+02  0.54893936961E+02  0.00000000000E+00 0.  1.
          2    1    1    2  502    0  0.14950574762E+01  0.25826254883E+02 -0.49805826916E+03  0.49872965634E+03  0.00000000000E+00 0.  1.
</event>
<event>
 4    1  0.6136512E+003  0.2801197E+02  0.7546771E-02  0.1437699E+00
          2   -1    0    0  501    0  0.00000000000E+00  0.00000000000E+00  0.29877913224E+03  0.29877913224E+03  0.00000000000E+00 0.  1.
          2   -1    0    0  502    0 -0.00000000000E+00 -0.00000000000E+00 -0.51733420890E+03  0.51733420890E+03  0.00000000000E+00 0.  1.
          2    1    1    2  501    0 -0.18993913860E+02  0.20588873522E+02 -0.51629713771E+03  0.51705648133E+03  0.00000000000E+00 0.  1.
          2    1    1    2  502    0  0.18993913860E+02 -0.20588873522E+02  0.29774206105E+03  0.29905685981E+03  0.00000000000E+00 0.  1.
</event>
<event>
 4    1  0.6136512E+003  0.2574636E+02  0.7546771E-02  0.1460624E+00
          2   -1    0    0  501    0  0.00000000000E+00  0.00000000000E+00  0.60220988007E+03  0.60220988007E+03  0.00000000000E+00 0.  1.
          2   -1    0    0  502    0 -0.00000000000E+00 -0.00000000000E+00 -0.72665079498E+01  0.72665079498E+01  0.00000000000E+00 0. -1.
          2    1    1    2  501    0 -0.25507435820E+02  0.34993931016E+01  0.16761813648E+02  0.30721872191E+02  0.00000000000E+00 0. -1.
          2    1    1    2  502    0  0.25507435820E+02 -0.34993931016E+01  0.57818155848E+03  0.57875451583E+03  0.00000000000E+00 0.  1.
</event>
<event>
 4    1  0.6136512E+003  0.2276635E+02  0.7546771E-02  0.1495453E+00
          2   -1    0    0  501    0  0.00000000000E+00  0.00000000000E+00  0.27209443598E+01  0.27209443598E+01  0.00000000000E+00 0. -1.
          2   -1    0    0  502    0 -0.00000000000E+00 -0.00000000000E+00 -0.10376097887E+04  0.10376097887E+04  0.00000000000E+00 0.  1.
          2    1    1    2  501    0  0.21667912334E+02  0.69863006340E+01 -0.98744389316E+03  0.98770630703E+03  0.00000000000E+00 0.  1.
          2    1    1    2  502    0 -0.21667912334E+02 -0.69863006340E+01 -0.47444951153E+02  0.52624425996E+02  0.00000000000E+00 0. -1.
</event>
<event>
 4    1  0.6136512E+003  0.3038356E+02  0.7546771E-02  0.1416292E+00
          2   -1    0    0  502    0  0.00000000000E+00  0.00000000000E+00  0.67381965476E+03  0.67381965476E+03  0.00000000000E+00 0. -1.
          2   -1    0    0  501    0 -0.00000000000E+00 -0.00000000000E+00 -0.41464606921E+01  0.41464606921E+01  0.00000000000E+00 0.  1.
          2    1    1    2  501    0  0.29455996672E+02  0.74501598571E+01  0.61222082697E+03  0.61297430745E+03  0.00000000000E+00 0. -1.
          2    1    1    2  502    0 -0.29455996672E+02 -0.74501598571E+01  0.57452367101E+02  0.64991808002E+02  0.00000000000E+00 0.  1.
</event>
<event>
 4    1  0.6136512E+003  0.2085682E+02  0.7546771E-02  0.1521319E+00
          2   -1    0    0  502    0  0.00000000000E+00  0.00000000000E+00  0.11560922539E+02  0.11560922539E+02  0.00000000000E+00 0.  1.
          2   -1    0    0  501    0 -0.00000000000E+00 -0.00000000000E+00 -0.19814192345E+03  0.19814192345E+03  0.00000000000E+00 0.  1.
          2    1    1    2  501    0  0.40371744812E+01 -0.20462359341E+02  0.10815454735E+01  0.20884843026E+02  0.00000000000E+00 0.  1.
          2    1    1    2  502    0 -0.40371744812E+01  0.20462359341E+02 -0.18766254639E+03  0.18881800296E+03  0.00000000000E+00 0.  1.
</event>
<event>
 4    1  0.6136512E+003  0.2170277E+02  0.7546771E-02  0.1509463E+00
          2   -1    0    0  502    0  0.00000000000E+00  0.00000000000E+00  0.87052063578E+00  0.87052063578E+00  0.00000000000E+00 0.  1.
          2   -1    0    0  501    0 -0.00000000000E+00 -0.00000000000E+00 -0.67119132247E+03  0.67119132247E+03  0.00000000000E+00 0. -1.
          2    1    1    2  501    0  0.18781822717E+02 -0.10874433850E+02 -0.18720359132E+03  0.18845740840E+03  0.00000000000E+00 0.  1.
          2    1    1    2  502    0 -0.18781822717E+02  0.10874433850E+02 -0.48311721051E+03  0.48360443471E+03  0.00000000000E+00 0. -1.
</event>
<event>
 4    1  0.6136512E+003  0.3080253E+02  0.7546771E-02  0.1412748E+00
          2   -1    0    0  502    0  0.00000000000E+00  0.00000000000E+00  0.71785009613E+01  0.71785009613E+01  0.00000000000E+00 0.  1.
          2   -1    0    0  501    0 -0.00000000000E+00 -0.00000000000E+00 -0.11623085514E+04  0.11623085514E+04  0.00000000000E+00 0. -1.
          2    1    1    2  501    0 -0.30274067186E+02 -0.56812800791E+01 -0.27071612934E+02  0.41008149363E+02  0.00000000000E+00 0.  1.
          2    1    1    2  502    0  0.30274067186E+02  0.56812800791E+01 -0.11280584375E+04  0.11284789030E+04  0.00000000000E+00 0. -1.
</event>
<event>
 4    1  0.6136512E+003  0.2257952E+02  0.7546771E-02  0.1497847E+00
          2   -1    0    0  501    0  0.00000000000E+00  0.00000000000E+00  0.41811218192E+03  0.41811218192E+03  0.00000000000E+00 0. -1.
          2   -1    0    0  502    0 -0.00000000000E+00 -0.00000000000E+00 -0.15608410589E+01  0.15608410589E+01  0.00000000000E+00 0. -1.
          2    1    1    2  501    0 -0.58874632637E+01 -0.21798449601E+02  0.11012870486E+03  0.11241959910E+03  0.00000000000E+00 0. -1.
          2    1    1    2  502    0  0.58874632637E+01  0.21798449601E+02  0.30642263600E+03  0.30725342388E+03  0.00000000000E+00 0. -1.
</event>
<event>
 4    1  0.6136512E+003  0.3251670E+02  0.7546771E-02  0.1398916E+00
          2   -1    0    0  501    0  0.00000000000E+00  0.00000000000E+00  0.99035976342E+03  0.99035976342E+03  0.00000000000E+00 0. -1.
          2   -1    0    0  502    0 -0.00000000000E+00 -0.00000000000E+00 -0.19774268500E+01  0.19774268500E+01  0.00000000000E+00 0. -1.
          2    1    1    2  501    0 -0.22293235460E+02 -0.23671660133E+02  0.15763950283E+03  0.16095822033E+03  0.00000000000E+00 0. -1.
          2    1    1    2  502    0  0.22293235460E+02  0.23671660133E+02  0.83074283374E+03  0.83137896994E+03  0.00000000000E+00 0. -1.
</event>
<event>
 4    1  0.6136512E+003  0.2412350E+02  0.7546771E-02  0.1478852E+00
          2   -1    0    0  502    0  0.00000000000E+00  0.00000000000E+00  0.93348517486E+01  0.93348517486E+01  0.00000000000E+00 0. -1.
          2   -1    0    0  501    0 -0.00000000000E+00 -0.00000000000E+00 -0.10697409690E+04  0.10697409690E+04  0.00000000000E+00 0.  1.
          2    1    1    2  501    0  0.12239420328E+02  0.20787978499E+02 -0.66223577979E+01  0.25015976552E+02  0.00000000000E+00 0. -1.
          2    1    1    2  502    0 -0.12239420328E+02 -0.20787978499E+02 -0.10537837594E+04  0.10540598442E+04  0.00000000000E+00 0.  1.
</event>
<event>
 4    1  0.6136512E+003  0.5582385E+02  0.7546771E-02  0.1274722E+00
          2   -1    0    0  502    0  0.00000000000E+00  0.00000000000E+00  0.14241813268E+04  0.14241813268E+04  0.00000000000E+00 0. -1.
          2   -1    0    0  501    0 -0.00000000000E+00 -0.00000000000E+00 -0.49160594621E+02  0.49160594621E+02  0.00000000000E+00 0.  1.
          2    1    1    2  501    0  0.21068305938E+02  0.51695541437E+02  0.14076001223E+04  0.14087066433E+04  0.00000000000E+00 0. -1.
          2    1    1    2  502    0 -0.21068305938E+02 -0.51695541437E+02 -0.32579390122E+02  0.64635278140E+02  0.00000000000E+00 0.  1.
</event>
<event>
 4    1  0.6136512E+003  0.2084700E+02  0.7546771E-02  0.1521461E+00
          2   -1    0    0  501    0  0.00000000000E+00  0.00000000000E+00  0.12084486968E+04  0.12084486968E+04  0.00000000000E+00 0. -1.
          2   -1    0    0  502    0 -0.00000000000E+00 -0.00000000000E+00 -0.35356213893E+02  0.35356213893E+02  0.00000000000E+00 0.  1.
          2    1    1    2  501    0 -0.14296378426E+02 -0.15172698811E+02 -0.32185231226E+02  0.38346920794E+02  0.00000000000E+00 0.  1.
          2    1    1    2  502    0  0.14296378426E+02  0.15172698811E+02  0.12052777142E+04  0.12054579899E+04  0.00000000000E+00 0. -1.
</event>
<event>
 4    1  0.6136512E+003  0.4283987E+02  0.7546771E-02  0.1332602E+00
          2   -1    0    0  502    0  0.00000000000E+00  0.00000000000E+00  0.20421652302E+02  0.20421652302E+02  0.00000000000E+00 0.  1.
          2   -1    0    0  501    0 -0.00000000000E+00 -0.00000000000E+00 -0.13730883404E+04  0.13730883404E+04  0.00000000000E+00 0. -1.
          2    1    1    2  501    0  0.36731322171E+02  0.22046870137E+02 -0.27653270487E+01  0.42929029164E+02  0.00000000000E+00 0.  1.
          2    1    1    2  502    0 -0.36731322171E+02 -0.22046870137E+02 -0.13499013611E+04  0.13505809635E+04  0.00000000000E+00 0. -1.
</event>
<event>
 4    1  0.6136512E+003  0.2036594E+02  0.7546771E-02  0.1528513E+00
          2   -1    0    0  501    0  0.00000000000E+00  0.00000000000E+00  0.12741493880E+01  0.12741493880E+01  0.00000000000E+00 0.  1.
          2   -1    0    0  502    0 -0.00000000000E+00 -0.00000000000E+00 -0.12881124248E+04  0.12881124248E+04  0.00000000000E+00 0.  1.
          2    1    1    2  501    0 -0.14122472977E+02  0.14674035527E+02 -0.12007275936E+04  0.12009002980E+04  0.00000000000E+00 0.  1.
          2    1    1    2  502    0  0.14122472977E+02 -0.14674035527E+02 -0.86110681735E+02  0.88486276171E+02  0.00000000000E+00 0.  1.
</event>
<event>
 4    1  0.6136512E+003  0.2133598E+02  0.7546771E-02  0.1514522E+00
          2   -1    0    0  502    0  0.00000000000E+00  0.00000000000E+00  0.20670611908E+03  0.20670611908E+03  0.00000000000E+00 0.  1.
          2   -1    0    0  501    0 -0.00000000000E+00 -0.00000000000E+00 -0.15033699043E+04  0.15033699043E+04  0.00000000000E+00 0.  1.
          2    1    1    2  501    0  0.20471577385E+02 -0.60115426326E+01  0.20607961970E+03  0.20718116174E+03  0.00000000000E+00 0.  1.
          2    1    1    2  502    0 -0.20471577385E+02  0.60115426326E+01 -0.15027434050E+04  0.15028948617E+04  0.00000000000E+00 0.  1.
</event>
<event>
 4    1  0.6136512E+003  0.3033827E+02  0.7546771E-02  0.1416679E+00
          2   -1    0    0  501    0  0.00000000000E+00  0.00000000000E+00  0.25726089088E+03  0.25726089088E+03  0.00000000000E+00 0.  1.
          2   -1    0    0  502    0 -0.00000000000E+00 -0.00000000000E+00 -0.48755151708E+03  0.48755151708E+03  0.00000000000E+00 0. -1.
          2    1    1    2  501    0  0.30197129038E+02  0.29229833609E+01 -0.48618261276E+03  0.48712826173E+03  0.00000000000E+00 0. -1.
          2    1    1    2  502    0 -0.30197129038E+02 -0.29229833609E+01  0.25589198656E+03  0.25768414623E+03  0.00000000000E+00 0.  1.
</event>
<event>
 4    1  0.6136512E+003  0.4824794E+02  0.7546771E-02  0.1305953E+00
          2   -1    0    0  502    0  0.00000000000E+00  0.00000000000E+00  0.39537969423E+02  0.39537969423E+02  0.00000000000E+00 0. -1.
          2   -1    0    0  501    0 -0.00000000000E+00 -0.00000000000E+00 -0.21440210455E+04  0.21440210455E+04  0.00000000000E+00 0. -1.
          2    1    1    2  501    0  0.46277875207E+02 -0.13646309305E+02  0.24443016889E+02  0.54086269662E+02  0.00000000000E+00 0. -1.
          2    1    1    2  502    0 -0.46277875207E+02  0.13646309305E+02 -0.21289260930E+04  0.21294727453E+04  0.00000000000E+00 0. -1.
</event>
<event>
 4    1  0.6136512E+003  0.2102291E+02  0.7546771E-02  0.1518938E+00
          2   -1    0    0  501    0  0.00000000000E+00  0.00000000000E+00  0.98805639392E+01  0.98805639392E+01  0.00000000000E+00 0. -1.
          2   -1    0    0  502    0 -0.00000000000E+00 -0.00000000000E+00 -0.33951185014E+03  0.33951185014E+03  0.00000000000E+00 0.  1.
          2    1    1    2  501    0  0.20638981195E+02  0.39993864087E+01 -0.32759750202E+03  0.32827136026E+03  0.00000000000E+00 0.  1.
          2    1    1    2  502    0 -0.20638981195E+02 -0.39993864087E+01 -0.20337841809E+01  0.21121053821E+02  0.00000000000E+00 0. -1.
</event>
<event>
 4    1  0.6136512E+003  0.3366113E+02  0.7546771E-02  0.1390228E+00
          2   -1    0    0  501    0  0.00000000000E+00  0.00000000000E+00  0.84716547983E+01  0.84716547983E+01  0.00000000000E+00 0. -1.
          2   -1    0    0  502    0 -0.00000000000E+00 -0.00000000000E+00 -0.14279047859E+04  0.14279047859E+04  0.00000000000E+00 0. -1.
          2    1    1    2  501    0  0.10185533605E+02 -0.32083119043E+02 -0.13934424255E+04  0.13938489390E+04  0.00000000000E+00 0. -1.
          2    1    1    2  502    0 -0.10185533605E+02  0.32083119043E+02 -0.25990705631E+02  0.42527501708E+02  0.00000000000E+00 0. -1.
</event>
<event>
 4    1  0.6136512E+003  0.2314976E+02  0.7546771E-02  0.1490626E+00
          2   -1    0    0  501    0  0.00000000000E+00  0.00000000000E+00  0.12495912553E+03  0.12495912553E+03  0.00000000000E+00 0.  1.
          2   -1    0    0  502    0 -0.00000000000E+00 -0.00000000000E+00 -0.90433779452E+03  0.90433779452E+03  0.00000000000E+00 0. -1.
          2    1    1    2  501    0  0.22148407933E+02  0.67349383372E+01 -0.90311602073E+03  0.90341267329E+03  0.00000000000E+00 0. -1.
          2    1    1    2  502    0 -0.22148407933E+02 -0.67349383372E+01  0.12373735174E+03  0.12588424676E+03  0.00000000000E+00 0.  1.
</event>
<event>
 4    1  0.6136512E+003  0.3795385E+02  0.7546771E-02  0.1360912E+00
          2   -1    0    0  501    0  0.00000000000E+00  0.00000000000E+00  0.17469365371E+04  0.17469365371E+04  0.00000000000E+00 0. -1.
          2   -1    0    0  502    0 -0.00000000000E+00 -0.00000000000E+00 -0.24413053691E+02  0.24413053691E+02  0.00000000000E+00 0.  1.
          2    1    1    2  501    0 -0.35397913233E+02  0.13692422366E+02 -0.93271518784E+01  0.39083122363E+02  0.00000000000E+00 0.  1.
          2    1    1    2  502    0  0.35397913233E+02 -0.13692422366E+02  0.17318506353E+04  0.17322664684E+04  0.00000000000E+00 0. -1.
</event>
<event>
 4    1  0.6136512E+003  0.2312701E+02  0.7546771E-02  0.1490909E+00
          2   -1    0    0  502    0  0.00000000000E+00  0.00000000000E+00  0.76737057698E+02  0.76737057698E+02  0.00000000000E+00 0. -1.
          2   -1    0    0  501    0 -0.00000000000E+00 -0.00000000000E+00 -0.33045717999E+03  0.33045717999E+03  0.00000000000E+00 0. -1.
          2    1    1    2  501    0  0.22743055191E+02  0.41966483083E+01  0.74578475963E+02  0.78082056156E+02  0.00000000000E+00 0. -1.
          2    1    1    2  502    0 -0.22743055191E+02 -0.41966483083E+01 -0.32829859825E+03  0.32911218153E+03  0.00000000000E+00 0. -1.
</event>
<event>
 4    1  0.6136512E+003  0.2851590E+02  0.7546771E-02  0.1432947E+00
          2   -1    0    0  502    0  0.00000000000E+00  0.00000000000E+00  0.10297091087E+04  0.10297091087E+04  0.00000000000E+00 0. -1.
          2   -1    0    0  501    0 -0.00000000000E+00 -0.00000000000E+00 -0.84115515733E+01  0.84115515733E+01  0.00000000000E+00 0.  1.
          2    1    1    2  501    0 -0.28460273994E+02 -0.17802290692E+01  0.10047434394E+04  0.10051480167E+04  0.00000000000E+00 0. -1.
          2    1    1    2  502    0  0.28460273994E+02  0.17802290692E+01  0.16554117706E+02  0.32972643576E+02  0.00000000000E+00 0.  1.
</event>
<event>
 4    1  0.6136512E+003  0.2107661E+02  0.7546771E-02  0.1518174E+00
          2   -1    0    0  501    0  0.00000000000E+00  0.00000000000E+00  0.16866383095E+03  0.16866383095E+03  0.00000000000E+00 0.  1.
          2   -1    0    0  502    0 -0.00000000000E+00 -0.00000000000E+00 -0.14788218046E+02  0.14788218046E+02  0.00000000000E+00 0. -1.
          2    1    1    2  501    0 -0.20997524792E+02 -0.18241136989E+01 -0.62198208141E+01  0.21975204416E+02  0.00000000000E+00 0. -1.
          2    1    1    2  502    0  0.20997524792E+02  0.18241136989E+01  0.16009543372E+03  0.16147684458E+03  0.00000000000E+00 0.  1.
</event>
<event>
 4    1  0.6136512E+003  0.3331285E+02  0.7546771E-02  0.1392829E+00
          2   -1    0    0  501    0  0.00000000000E+00  0.00000000000E+00  0.22485272847E+03  0.22485272847E+03  0.00000000000E+00 0. -1.
          2   -1    0    0  502    0 -0.00000000000E+00 -0.00000000000E+00 -0.97044306488E+01  0.97044306488E+01  0.00000000000E+00 0.  1.
          2    1    1    2  501    0  0.32663157479E+02 -0.65470666443E+01  0.25359889731E+02  0.41867289682E+02  0.00000000000E+00 0.  1.
          2    1    1    2  502    0 -0.32663157479E+02  0.65470666443E+01  0.18978840809E+03  0.19268986944E+03  0.00000000000E+00 0. -1.
</event>
<event>
 4    1  0.6136512E+003  0.2171737E+02  0.7546771E-02  0.1509264E+00
          2   -1    0    0  501    0  0.00000000000E+00  0.00000000000E+00  0.65007042475E+02  0.65007042475E+02  0.00000000000E+00 0. -1.
          2   -1    0    0  502    0 -0.00000000000E+00 -0.00000000000E+00 -0.30142374916E+03  0.30142374916E+03  0.00000000000E+00 0. -1.
          2    1    1    2  501    0 -0.93139897692E+01  0.19618705236E+02 -0.29920531938E+03  0.29999244515E+03  0.00000000000E+00 0. -1.
          2    1    1    2  502    0  0.93139897692E+01 -0.19618705236E+02  0.62788612692E+02  0.66438346490E+02  0.00000000000E+00 0. -1.
</event>
<event>
 4    1  0.6136512E+003  0.2364674E+02  0.7546771E-02  0.1484533E+00
          2   -1    0    0  502    0  0.00000000000E+00  0.00000000000E+00  0.14897305446E+04  0.14897305446E+04  0.00000000000E+00 0.  1.
          2   -1    0    0  501    0 -0.00000000000E+00 -0.00000000000E+00 -0.25559202630E+01  0.25559202630E+01  0.00000000000E+00 0. -1.
          2    1    1    2  501    0 -0.14318170114E+02  0.18819095852E+02  0.14327690006E+04  0.14329641229E+04  0.00000000000E+00 0.  1.
          2    1    1    2  502    0  0.14318170114E+02 -0.18819095852E+02  0.54405623662E+02  0.59322341914E+02  0.00000000000E+00 0. -1.
</event>
<event>
 4    1  0.6136512E+003  0.3211949E+02  0.7546771E-02  0.1402030E+00
          2   -1    0    0  502    0  0.00000000000E+00  0.00000000000E+00  0.31567597560E+01  0.31567597560E+01  0.00000000000E+00 0. -1.
          2   -1    0    0  501    0 -0.00000000000E+00 -0.00000000000E+00 -0.15760951092E+04  0.15760951092E+04  0.00000000000E+00 0. -1.
          2    1    1    2  501    0  0.68933801789E+01 -0.31371053768E+02 -0.83460122588E+02  0.89427365874E+02  0.00000000000E+00 0. -1.
          2    1    1    2  502    0 -0.68933801789E+01  0.31371053768E+02 -0.14894782268E+04  0.14898245031E+04  0.00000000000E+00 0. -1.
</event>
<event>
 4    1  0.6136512E+003  0.2785080E+02  0.7546771E-02  0.1439244E+00
          2   -1    0    0  502    0  0.00000000000E+00  0.00000000000E+00  0.21632098039E+03  0.21632098039E+03  0.00000000000E+00 0. -1.
          2   -1    0    0  501    0 -0.00000000000E+00 -0.00000000000E+00 -0.13829480860E+02  0.13829480860E+02  0.00000000000E+00 0. -1.
          2    1    1    2  501    0 -0.25110221233E+02 -0.12047572119E+02  0.20028527697E+03  0.20221241152E+03  0.00000000000E+00 0. -1.
          2    1    1    2  502    0  0.25110221233E+02  0.12047572119E+02  0.22062225598E+01  0.27938049723E+02  0.00000000000E+00 0. -1.
</event>
<event>
 4    1  0.6136512E+003  0.3265866E+02  0.7546771E-02  0.1397816E+00
          2   -1    0    0  501    0  0.00000000000E+00  0.00000000000E+00  0.14559485193E+03  0.14559485193E+03  0.00000000000E+00 0. -1.
          2   -1    0    0  502    0 -0.00000000000E+00 -0.00000000000E+00 -0.16073209524E+02  0.16073209524E+02  0.00000000000E+00 0.  1.
          2    1    1    2  501    0  0.29812674670E+02 -0.13333881045E+02  0.51281168585E+01  0.33058819356E+02  0.00000000000E+00 0.  1.
          2    1    1    2  502    0 -0.29812674670E+02  0.13333881045E+02  0.12439352555E+03  0.12860924210E+03  0.00000000000E+00 0. -1.
</event>
<event>
 4    1  0.6136512E+003  0.2228713E+02  0.7546771E-02  0.1501649E+00
          2   -1    0    0  501    0  0.00000000000E+00  0.00000000000E+00  0.26254770592E+03  0.26254770592E+03  0.00000000000E+00 0.  1.
          2   -1    0    0  502    0 -0.00000000000E+00 -0.00000000000E+00 -0.40390487438E+01  0.40390487438E+01  0.00000000000E+00 0.  1.
          2    1    1    2  501    0  0.15217564403E+02 -0.16283173717E+02  0.32069311109E+02  0.39053255020E+02  0.00000000000E+00 0.  1.
          2    1    1    2  502    0 -0.15217564403E+02  0.16283173717E+02  0.22643934607E+03  0.22753349964E+03  0.00000000000E+00 0.  1.
</event>
<event>
 4    1  0.6136512E+003  0.2450326E+02  0.7546771E-02  0.1474438E+00
          2   -1    0    0  501    0  0.00000000000E+00  0.00000000000E+00  0.41854930040E+03  0.41854930040E+03  0.00000000000E+00 0. -1.
          2   -1    0    0  502    0 -0.00000000000E+00 -0.00000000000E+00 -0.18869289435E+01  0.18869289435E+01  0.00000000000E+00 0. -1.
          2    1    1    2  501    0  0.19341616907E+02 -0.15043651104E+02  0.10539528891E+03  0.10820617592E+03  0.00000000000E+00 0. -1.
          2    1    1    2  502    0 -0.19341616907E+02  0.15043651104E+02  0.31126708254E+03  0.31223005342E+03  0.00000000000E+00 0. -1.
</event>
<event>
 4    1  0.6136512E+003  0.2413177E+02  0.7546771E-02  0.1478755E+00
          2   -1    0    0  501    0  0.00000000000E+00  0.00000000000E+00  0.42868765584E+01  0.42868765584E+01  0.00000000000E+00 0. -1.
          2   -1    0    0  502    0 -0.00000000000E+00 -0.00000000000E+00 -0.33283004884E+03  0.33283004884E+03  0.00000000000E+00 0.  1.
          2    1    1    2  501    0  0.23518894767E+02  0.54040588422E+01 -0.29394713981E+03  0.29493603250E+03  0.00000000000E+00 0.  1.
          2    1    1    2  502    0 -0.23518894767E+02 -0.54040588422E+01 -0.34596032467E+02  0.42180892896E+02  0.00000000000E+00 0. -1.
</event>
<event>
 4    1  0.6136512E+003  0.2952648E+02  0.7546771E-02  0.1423757E+00
          2   -1    0    0  501    0  0.00000000000E+00  0.00000000000E+00  0.22380293737E+02  0.22380293737E+02  0.00000000000E+00 0. -1.
          2   -1    0    0  502    0 -0.00000000000E+00 -0.00000000000E+00 -0.42904146264E+03  0.42904146264E+03  0.00000000000E+00 0.  1.
          2    1    1    2  501    0  0.28547494745E+02 -0.75401257664E+01 -0.41855105723E+03  0.41959123020E+03  0.00000000000E+00 0.  1.
          2    1    1    2  502    0 -0.28547494745E+02  0.75401257664E+01  0.11889888320E+02  0.31830526183E+02  0.00000000000E+00 0. -1.
</event>
<event>
 4    1  0.6136512E+003  0.6153970E+02  0.7546771E-02  0.1254689E+00
          2   -1    0    0  502    0  0.00000000000E+00  0.00000000000E+00  0.31026443326E+03  0.31026443326E+03  0.00000000000E+00 0.  1.
          2   -1    0    0  501    0 -0.00000000000E+00 -0.00000000000E+00 -0.27038400030E+02  0.27038400030E+02  0.00000000000E+00 0. -1.
          2    1    1    2  501    0 -0.43143239057E+02 -0.43883887014E+02  0.26652468206E+03  0.27353709212E+03  0.00000000000E+00 0.  1.
          2    1    1    2  502    0  0.43143239057E+02  0.43883887014E+02  0.16701351162E+02  0.63765741166E+02  0.00000000000E+00 0. -1.
</event>
<event>
 4    1  0.6136512E+003  0.3347469E+02  0.7546771E-02  0.1391616E+00
          2   -1    0    0  502    0  0.00000000000E+00  0.00000000000E+00  0.37412679904E+03  0.37412679904E+03  0.00000000000E+00 0.  1.
          2   -1    0    0  501    0 -0.00000000000E+00 -0.00000000000E+00 -0.82363111946E+01  0.82363111946E+01  0.00000000000E+00 0. -1.
          2    1    1    2  501    0 -0.33250258200E+02  0.38698045597E+01  0.33545392787E+03  0.33711999760E+03  0.00000000000E+00 0.  1.
          2    1    1    2  502    0  0.33250258200E+02 -0.38698045597E+01  0.30436559970E+02  0.45243112631E+02  0.00000000000E+00 0. -1.
</event>
<event>
 4    1  0.6136512E+003  0.2683525E+02  0.7546771E-02  0.1449270E+00
          2   -1    0    0  501    0  0.00000000000E+00  0.00000000000E+00  0.42687456344E+03  0.42687456344E+03  0.00000000000E+00 0. -1.
          2   -1    0    0  502    0 -0.00000000000E+00 -0.00000000000E+00 -0.33080450993E+02  0.33080450993E+02  0.00000000000E+00 0.  1.
          2    1    1    2  501    0 -0.24203411477E+02  0.11589892041E+02 -0.27139706650E+02  0.38166666106E+02  0.00000000000E+00 0.  1.
          2    1    1    2  502    0  0.24203411477E+02 -0.11589892041E+02  0.42093381909E+03  0.42178834832E+03  0.00000000000E+00 0. -1.
</event>
<event>
 4    1  0.6136512E+003  0.2084997E+02  0.7546771E-02  0.1521418E+00
          2   -1    0    0  502    0  0.00000000000E+00  0.00000000000E+00  0.53157377234E+03  0.53157377234E+03  0.00000000000E+00 0.  1.
          2   -1    0    0  501    0 -0.00000000000E+00 -0.00000000000E+00 -0.22589804475E+03  0.22589804475E+03  0.00000000000E+00 0. -1.
          2    1    1    2  501    0 -0.15655152132E+01 -0.20791111161E+02  0.53088759744E+03  0.53129686829E+03  0.00000000000E+00 0.  1.
          2    1    1    2  502    0  0.15655152132E+01  0.20791111161E+02 -0.22521186985E+03  0.22617494880E+03  0.00000000000E+00 0. -1.
</event>
<event>
 4    1  0.6136512E+003  0.2107856E+02  0.7546771E-02  0.1518146E+00
          2   -1    0    0  501    0  0.00000000000E+00  0.00000000000E+00  0.14483001964E+03  0.14483001964E+03  0.00000000000E+00 0. -1.
          2   -1    0    0  502    0 -0.00000000000E+00 -0.00000000000E+00 -0.23807121536E+02  0.23807121536E+02  0.00000000000E+00 0. -1.
          2    1    1    2  501    0  0.13942844576E+01 -0.21032398161E+02 -0.18187210148E+02  0.27840266064E+02  0.00000000000E+00 0. -1.
          2    1    1    2  502    0 -0.13942844576E+01  0.21032398161E+02  0.13921010825E+03  0.14079687511E+03  0.00000000000E+00 0. -1.
</event>
<event>
 4    1  0.6136512E+003  0.3544391E+02  0.7546771E-02  0.1377469E+00
          2   -1    0    0  501    0  0.00000000000E+00  0.00000000000E+00  0.10265363036E+03  0.10265363036E+03  0.00000000000E+00 0. -1.
          2   -1    0    0  502    0 -0.00000000000E+00 -0.00000000000E+00 -0.12182086126E+03  0.12182086126E+03  0.00000000000E+00 0. -1.
          2    1    1    2  501    0 -0.24003388111E+02 -0.26078886455E+02 -0.11603408137E+03  0.12132674478E+03  0.00000000000E+00 0. -1.
          2    1    1    2  502    0  0.24003388111E+02  0.26078886455E+02  0.96866850465E+02  0.10314774684E+03  0.00000000000E+00 0. -1.
</event>
<event>
 4    1  0.6136512E+003  0.2453155E+02  0.7546771E-02  0.1474113E+00
          2   -1    0    0  501    0  0.00000000000E+00  0.00000000000E+00  0.35709602546E+02  0.35709602546E+02  0.00000000000E+00 0.  1.
          2   -1    0    0  502    0 -0.00000000000E+00 -0.00000000000E+00 -0.32802395579E+02  0.32802395579E+02  0.00000000000E+00 0. -1.
          2    1    1    2  501    0 -0.23458021087E+02 -0.71776138150E+01 -0.22433443733E+02  0.33242386965E+02  0.00000000000E+00 0. -1.
          2    1    1    2  502    0  0.23458021087E+02  0.71776138150E+01  0.25340650700E+02  0.35269611159E+02  0.00000000000E+00 0.  1.
</event>
<event>
 4    1  0.6136512E+003  0.2913680E+02  0.7546771E-02  0.1427249E+00
          2   -1    0    0  501    0  0.00000000000E+00  0.00000000000E+00  0.45607052388E+02  0.45607052388E+02  0.00000000000E+00 0.  1.
          2   -1    0    0  502    0 -0.00000000000E+00 -0.00000000000E+00 -0.18615168647E+02  0.18615168647E+02  0.00000000000E+00 0. -1.
          2    1    1    2  501    0 -0.27302687115E+02  0.10174301936E+02  0.13686276905E+02  0.32191106211E+02  0.00000000000E+00 0. -1.
          2    1    1    2  502    0  0.27302687115E+02 -0.10174301936E+02  0.13305606836E+02  0.32031114824E+02  0.00000000000E+00 0.  1.
</event>
<event>
 4    1  0.6136512E+003  0.2759515E+02  0.7546771E-02  0.1441720E+00
          2   -1    0    0  502    0  0.00000000000E+00  0.00000000000E+00  0.23862824929E+02  0.23862824929E+02  0.00000000000E+00 0. -1.
          2   -1    0    0  501    0 -0.00000000000E+00 -0.00000000000E+00 -0.12219703203E+04  0.12219703203E+04  0.00000000000E+00 0.  1.
          2    1    1    2  501    0  0.13377794162E+02  0.24135592035E+02  0.15675418405E+02  0.31736586484E+02  0.00000000000E+00 0. -1.
          2    1    1    2  502    0 -0.13377794162E+02 -0.24135592035E+02 -0.12137829138E+04  0.12140965587E+04  0.00000000000E+00 0.  1.
</event>
<event>
 4    1  0.6136512E+003  0.2488724E+02  0.7546771E-02  0.1470069E+00
          2   -1    0    0  502    0  0.00000000000E+00  0.00000000000E+00  0.33525471981E+02  0.33525471981E+02  0.00000000000E+00 0. -1.
          2   -1    0    0  501    0 -0.00000000000E+00 -0.00000000000E+00 -0.61157644219E+02  0.61157644219E+02  0.00000000000E+00 0.  1.
          2    1    1    2  501    0  0.16134857063E+02 -0.18948383097E+02  0.25733695057E+02  0.35799411947E+02  0.00000000000E+00 0. -1.
          2    1    1    2  502    0 -0.16134857063E+02  0.18948383097E+02 -0.53365867295E+02  0.58883704253E+02  0.00000000000E+00 0.  1.
</event>
<event>
 4    1  0.6136512E+003  0.3604277E+02  0.7546771E-02  0.1373377E+00
          2   -1    0    0  502    0  0.00000000000E+00  0.00000000000E+00  0.68185535552E+03  0.68185535552E+03  0.00000000000E+00 0. -1.
          2   -1    0    0  501    0 -0.00000000000E+00 -0.00000000000E+00 -0.29725109948E+02  0.29725109948E+02  0.00000000000E+00 0.  1.
          2    1    1    2  501    0  0.14045843184E+02  0.33193309464E+02  0.67026445574E+03  0.67123283750E+03  0.00000000000E+00 0. -1.
          2    1    1    2  502    0 -0.14045843184E+02 -0.33193309464E+02 -0.18134210174E+02  0.40347627967E+02  0.00000000000E+00 0.  1.
</event>
<event>
 4    1  0.6136512E+003  0.2432722E+02  0.7546771E-02  0.1476472E+00
          2   -1    0    0  501    0  0.00000000000E+00  0.00000000000E+00  0.46180321824E+02  0.46180321824E+02  0.00000000000E+00 0. -1.
          2   -1    0    0  502    0 -0.00000000000E+00 -0.00000000000E+00 -0.54621011717E+02  0.54621011717E+02  0.00000000000E+00 0. -1.
          2    1    1    2  501    0 -0.16675886071E+02  0.17712376148E+02 -0.48313823445E+02  0.54092873661E+02  0.00000000000E+00 0. -1.
          2    1    1    2  502    0  0.16675886071E+02 -0.17712376148E+02  0.39873133552E+02  0.46708459879E+02  0.00000000000E+00 0. -1.
</event>
<event>
 4    1  0.6136512E+003  0.2854689E+02  0.7546771E-02  0.1432659E+00
          2   -1    0    0  501    0  0.00000000000E+00  0.00000000000E+00  0.40675734159E+01  0.40675734159E+01  0.00000000000E+00 0.  1.
          2   -1    0    0  502    0 -0.00000000000E+00 -0.00000000000E+00 -0.10028833637E+04  0.10028833637E+04  0.00000000000E+00 0. -1.
          2    1    1    2  501    0 -0.70874321981E+01 -0.27653090335E+02 -0.94979456657E+03  0.95022347045E+03  0.00000000000E+00 0. -1.
          2    1    1    2  502    0  0.70874321981E+01  0.27653090335E+02 -0.49021223706E+02  0.56727466662E+02  0.00000000000E+00 0.  1.
</event>
<event>
 4    1  0.6136512E+003  0.2063906E+02  0.7546771E-02  0.1524481E+00
          2   -1    0    0  501    0  0.00000000000E+00  0.00000000000E+00  0.46356871489E+02  0.46356871489E+02  0.00000000000E+00 0. -1.
          2   -1    0    0  502    0 -0.00000000000E+00 -0.00000000000E+00 -0.20766922620E+02  0.20766922620E+02  0.00000000000E+00 0.  1.
          2    1    1    2  501    0  0.54541614717E+01  0.19905351200E+02 -0.12264775002E+02  0.24008240036E+02  0.00000000000E+00 0.  1.
          2    1    1    2  502    0 -0.54541614717E+01 -0.19905351200E+02  0.37854723871E+02  0.43115554074E+02  0.00000000000E+00 0. -1.
</event>
<event>
 4    1  0.6136512E+003  0.3383889E+02  0.7546771E-02  0.1388915E+00
          2   -1    0    0  501    0  0.00000000000E+00  0.00000000000E+00  0.73268073783E+02  0.73268073783E+02  0.00000000000E+00 0. -1.
          2   -1    0    0  502    0 -0.00000000000E+00 -0.00000000000E+00 -0.24351639146E+02  0.24351639146E+02  0.00000000000E+00 0.  1.
          2    1    1    2  501    0  0.29396741210E+02 -0.16760135876E+02 -0.47550192384E+01  0.34171344082E+02  0.00000000000E+00 0.  1.
          2    1    1    2  502    0 -0.29396741210E+02  0.16760135876E+02  0.53671453875E+02  0.63448368848E+02  0.00000000000E+00 0. -1.
</event>
<event>
 4    1  0.6136512E+003  0.3151919E+02  0.7546771E-02  0.1406839E+00
          2   -1    0    0  502    0  0.00000000000E+00  0.00000000000E+00  0.47250905250E+03  0.47250905250E+03  0.00000000000E+00 0. -1.
          2   -1    0    0  501    0 -0.00000000000E+00 -0.00000000000E+00 -0.43759473693E+03  0.43759473693E+03  0.00000000000E+00 0.  1.
          2    1    1    2  501    0  0.26434475377E+02 -0.17166183381E+02  0.47141453827E+03  0.47246706364E+03  0.00000000000E+00 0. -1.
          2    1    1    2  502    0 -0.26434475377E+02  0.17166183381E+02 -0.43650022269E+03  0.43763672578E+03  0.00000000000E+00 0.  1.
</event>
<event>
 4    1  0.6136512E+003  0.2924214E+02  0.7546771E-02  0.1426298E+00
          2   -1    0    0  502    0  0.00000000000E+00  0.00000000000E+00  0.37027249593E+03  0.37027249593E+03  0.00000000000E+00 0.  1.
          2   -1    0    0  501    0 -0.00000000000E+00 -0.00000000000E+00 -0.13080056271E+02  0.13080056271E+02  0.00000000000E+00 0. -1.
          2    1    1    2  501    0 -0.16778382162E+02 -0.23949715085E+02  0.35253037683E+03  0.35374110525E+03  0.00000000000E+00 0.  1.
          2    1    1    2  502    0  0.16778382162E+02  0.23949715085E+02  0.46620628363E+01  0.29611446951E+02  0.00000000000E+00 0. -1.
</event>
<event>
 4    1  0.6136512E+003  0.2830536E+02  0.7546771E-02  0.1434918E+00
          2   -1    0    0  501    0  0.00000000000E+00  0.00000000000E+00  0.35626716031E+02  0.35626716031E+02  0.00000000000E+00 0.  1.
          2   -1    0    0  502    0 -0.00000000000E+00 -0.00000000000E+00 -0.28910543485E+03  0.28910543485E+03  0.00000000000E+00 0. -1.
          2    1    1    2  501    0  0.24427987934E+02  0.14299194200E+02 -0.28266264660E+03  0.28407633715E+03  0.00000000000E+00 0. -1.
          2    1    1    2  502    0 -0.24427987934E+02 -0.14299194200E+02  0.29183927778E+02  0.40655813727E+02  0.00000000000E+00 0.  1.
</event>
<event>
 4    1  0.6136512E+003  0.2059170E+02  0.7546771E-02  0.1525175E+00
          2   -1    0    0  501    0  0.00000000000E+00  0.00000000000E+00  0.68496666565E+01  0.68496666565E+01  0.00000000000E+00 0. -1.
          2   -1    0    0  502    0 -0.00000000000E+00 -0.00000000000E+00 -0.81677060709E+03  0.81677060709E+03  0.00000000000E+00 0.  1.
          2    1    1    2  501    0 -0.78118965628E+01 -0.19052364002E+02 -0.80085749219E+03  0.80112217614E+03  0.00000000000E+00 0.  1.
          2    1    1    2  502    0  0.78118965628E+01  0.19052364002E+02 -0.90634482429E+01  0.22498097609E+02  0.00000000000E+00 0. -1.
</event>
<event>
 4    1  0.6136512E+003  0.2028013E+02  0.7546771E-02  0.1529796E+00
          2   -1    0    0  502    0  0.00000000000E+00  0.00000000000E+00  0.36316686564E+02  0.36316686564E+02  0.00000000000E+00 0. -1.
          2   -1    0    0  501    0 -0.00000000000E+00 -0.00000000000E+00 -0.21194531235E+02  0.21194531235E+02  0.00000000000E+00 0. -1.
          2    1    1    2  501    0  0.14830065129E+02  0.13833040288E+02  0.27183857119E+02  0.33915275661E+02  0.00000000000E+00 0. -1.
          2    1    1    2  502    0 -0.14830065129E+02 -0.13833040288E+02 -0.12061701790E+02  0.23595942138E+02  0.00000000000E+00 0. -1.
</event>
<event>
 4    1  0.6136512E+003  0.2278930E+02  0.7546771E-02  0.1495161E+00
          2   -1    0    0  502    0  0.00000000000E+00  0.00000000000E+00  0.69002321752E+02  0.69002321752E+02  0.00000000000E+00 0. -1.
          2   -1    0    0  501    0 -0.00000000000E+00 -0.00000000000E+00 -0.19099263063E+03  0.19099263063E+03  0.00000000000E+00 0. -1.
          2    1    1    2  501    0 -0.13364753571E+02 -0.18459021917E+02  0.66415122848E+02  0.70216242217E+02  0.00000000000E+00 0. -1.
          2    1    1    2  502    0  0.13364753571E+02  0.18459021917E+02 -0.18840543172E+03  0.18977871016E+03  0.00000000000E+00 0. -1.
</event>
<event>
 4    1  0.6136512E+003  0.4283504E+02  0.7546771E-02  0.1332628E+00
          2   -1    0    0  501    0  0.00000000000E+00  0.00000000000E+00  0.37339157082E+03  0.37339157082E+03  0.00000000000E+00 0.  1.
          2   -1    0    0  502    0 -0.00000000000E+00 -0.00000000000E+00 -0.15226341831E+02  0.15226341831E+02  0.00000000000E+00 0. -1.
          2    1    1    2  501    0 -0.12978570745E+01 -0.42815370171E+02  0.19173208518E+02  0.46930291718E+02  0.00000000000E+00 0. -1.
          2    1    1    2  502    0  0.12978570745E+01  0.42815370171E+02  0.33899202047E+03  0.34168762093E+03  0.00000000000E+00 0.  1.
</event>
<event>
 4    1  0.6136512E+003  0.2584370E+02  0.7546771E-02  0.1459582E+00
          2   -1    0    0  502    0  0.00000000000E+00  0.00000000000E+00  0.81695505678E+00  0.81695505678E+00  0.00000000000E+00 0. -1.
          2   -1    0    0  501    0 -0.00000000000E+00 -0.00000000000E+00 -0.18463238378E+04  0.18463238378E+04  0.00000000000E+00 0. -1.
          2    1    1    2  501    0 -0.39431705694E+01 -0.25541112010E+02 -0.23334402315E+03  0.23477080341E+03  0.00000000000E+00 0. -1.
          2    1    1    2  502    0  0.39431705694E+01  0.25541112010E+02 -0.16121628596E+04  0.16123699894E+04  0.00000000000E+00 0. -1.
</event>
<event>
 4    1  0.6136512E+003  0.2131942E+02  0.7546771E-02  0.1514753E+00
          2   -1    0    0  501    0  0.00000000000E+00  0.00000000000E+00  0.23070318048E+02  0.23070318048E+02  0.00000000000E+00 0.  1.
          2   -1    0    0  502    0 -0.00000000000E+00 -0.00000000000E+00 -0.12573497403E+03  0.12573497403E+03  0.00000000000E+00 0. -1.
          2    1    1    2  501    0 -0.18318006828E+02  0.10907267061E+02 -0.11965770041E+03  0.12154210430E+03  0.00000000000E+00 0. -1.
          2    1    1    2  502    0  0.18318006828E+02 -0.10907267061E+02  0.16993044431E+02  0.27263187781E+02  0.00000000000E+00 0.  1.
</event>
<event>
 4    1  0.6136512E+003  0.3584036E+02  0.7546771E-02  0.1374750E+00
          2   -1    0    0  501    0  0.00000000000E+00  0.00000000000E+00  0.70673695614E+02  0.70673695614E+02  0.00000000000E+00 0.  1.
          2   -1    0    0  502    0 -0.00000000000E+00 -0.00000000000E+00 -0.35839731555E+02  0.35839731555E+02  0.00000000000E+00 0. -1.
          2    1    1    2  501    0  0.32476373691E+02 -0.15159710293E+02 -0.19971603158E+02  0.41029216383E+02  0.00000000000E+00 0. -1.
          2    1    1    2  502    0 -0.32476373691E+02  0.15159710293E+02  0.54805567217E+02  0.65484210786E+02  0.00000000000E+00 0.  1.
</event>
<event>
 4    1  0.6136512E+003  0.2523544E+02  0.7546771E-02  0.1466187E+00
          2   -1    0    0  502    0  0.00000000000E+00  0.00000000000E+00  0.99036348069E+03  0.99036348069E+03  0.00000000000E+00 0.  1.
          2   -1    0    0  501    0 -0.00000000000E+00 -0.00000000000E+00 -0.42613057611E+01  0.42613057611E+01  0.00000000000E+00 0. -1.
          2    1    1    2  501    0  0.13071004928E+02 -0.21586482020E+02  0.95130811293E+03  0.95164276549E+03  0.00000000000E+00 0.  1.
          2    1    1    2  502    0 -0.13071004928E+02  0.21586482020E+02  0.34794061996E+02  0.42982020962E+02  0.00000000000E+00 0. -1.
</event>
<event>
 4    1  0.6136512E+003  0.2956211E+02  0.7546771E-02  0.1423440E+00
          2   -1    0    0  502    0  0.00000000000E+00  0.00000000000E+00  0.36978312501E+03  0.36978312501E+03  0.00000000000E+00 0.  1.
          2   -1    0    0  501    0 -0.00000000000E+00 -0.00000000000E+00 -0.34176005726E+01  0.34176005726E+01  0.00000000000E+00 0. -1.
          2    1    1    2  501    0  0.11221008580E+02 -0.27349720519E+02  0.28682304802E+03  0.28834246847E+03  0.00000000000E+00 0.  1.
          2    1    1    2  502    0 -0.11221008580E+02  0.27349720519E+02  0.79542476408E+02  0.84858257107E+02  0.00000000000E+00 0. -1.
</event>
<event>
 4    1  0.6136512E+003  0.3502461E+02  0.7546771E-02  0.1380390E+00
          2   -1    0    0  502    0  0.00000000000E+00  0.00000000000E+00  0.19821866210E+01  0.19821866210E+01  0.00000000000E+00 0.  1.
          2   -1    0    0  501    0 -0.00000000000E+00 -0.00000000000E+00 -0.14736761755E+04  0.14736761755E+04  0.00000000000E+00 0.  1.
          2    1    1    2  501    0 -0.24571531875E+02  0.24959226988E+02 -0.17390992915E+03  0.17740176619E+03  0.00000000000E+00 0.  1.
          2    1    1    2  502    0  0.24571531875E+02 -0.24959226988E+02 -0.12977840598E+04  0.12982565960E+04  0.00000000000E+00 0.  1.
</event>
<event>
 4    1  0.6136512E+003  0.2386497E+02  0.7546771E-02  0.1481913E+00
          2   -1    0    0  502    0  0.00000000000E+00  0.00000000000E+00  0.89581467665E+03  0.89581467665E+03  0.00000000000E+00 0. -1.
          2   -1    0    0  501    0 -0.00000000000E+00 -0.00000000000E+00 -0.15165813419E+02  0.15165813419E+02  0.00000000000E+00 0. -1.
          2    1    1    2  501    0 -0.21642965470E+02  0.10055795759E+02  0.88616501730E+03  0.88648630834E+03  0.00000000000E+00 0. -1.
          2    1    1    2  502    0  0.21642965470E+02 -0.10055795759E+02 -0.55161540749E+01  0.24494181727E+02  0.00000000000E+00 0. -1.
</event>
<event>
 4    1  0.6136512E+003  0.2633432E+02  0.7546771E-02  0.1454412E+00
          2   -1    0    0  501    0  0.00000000000E+00  0.00000000000E+00  0.25131698687E+02  0.25131698687E+02  0.00000000000E+00 0.  1.
          2   -1    0    0  502    0 -0.00000000000E+00 -0.00000000000E+00 -0.15913192589E+03  0.15913192589E+03  0.00000000000E+00 0. -1.
          2    1    1    2  501    0 -0.50948615578E+01  0.25836775362E+02 -0.15076377056E+03  0.15304643442E+03  0.00000000000E+00 0. -1.
          2    1    1    2  502    0  0.50948615578E+01 -0.25836775362E+02  0.16763543356E+02  0.31217190156E+02  0.00000000000E+00 0.  1.
</event>
<event>
 4    1  0.6136512E+003  0.2624263E+02  0.7546771E-02  0.1455368E+00
          2   -1    0    0  501    0  0.00000000000E+00  0.00000000000E+00  0.28651200188E+03  0.28651200188E+03  0.00000000000E+00 0.  1.
          2   -1    0    0  502    0 -0.00000000000E+00 -0.00000000000E+00 -0.89102828146E+02  0.89102828146E+02  0.00000000000E+00 0.  1.
          2    1    1    2  501    0  0.21340545491E+02  0.15272741292E+02 -0.86552347387E+02  0.90443265900E+02  0.00000000000E+00 0.  1.
          2    1    1    2  502    0 -0.21340545491E+02 -0.15272741292E+02  0.28396152113E+03  0.28517156413E+03  0.00000000000E+00 0.  1.
</event>
<event>
 4    1  0.6136512E+003  0.2274987E+02  0.7546771E-02  0.1495663E+00
          2   -1    0    0  502    0  0.00000000000E+00  0.00000000000E+00  0.53387779105E+02  0.53387779105E+02  0.00000000000E+00 0.  1.
          2   -1    0    0  501    0 -0.00000000000E+00 -0.00000000000E+00 -0.45034229996E+03  0.45034229996E+03  0.00000000000E+00 0.  1.
          2    1    1    2  501    0  0.19949054795E+02 -0.10935804200E+02  0.50662145635E+02  0.55535660625E+02  0.00000000000E+00 0.  1.
          2    1    1    2  502    0 -0.19949054795E+02  0.10935804200E+02 -0.44761666649E+03  0.44819441844E+03  0.00000000000E+00 0.  1.
</event>
<event>
 4    1  0.6136512E+003  0.2090923E+02  0.7546771E-02  0.1520565E+00
          2   -1    0    0  502    0  0.00000000000E+00  0.00000000000E+00  0.55432752022E+03  0.55432752022E+03  0.00000000000E+00 0.  1.
          2   -1    0    0  501    0 -0.00000000000E+00 -0.00000000000E+00 -0.22906634073E+01  0.22906634073E+01  0.00000000000E+00 0.  1.
          2    1    1    2  501    0 -0.18636924561E+01 -0.20826005663E+02  0.50137852433E+03  0.50181432873E+03  0.00000000000E+00 0.  1.
          2    1    1    2  502    0  0.18636924561E+01  0.20826005663E+02  0.50658332483E+02  0.54803854896E+02  0.00000000000E+00 0.  1.
</event>
<event>
 4    1  0.6136512E+003  0.2260077E+02  0.7546771E-02  0.1497573E+00
          2   -1    0    0  502    0  0.00000000000E+00  0.00000000000E+00  0.16430938089E+04  0.16430938089E+04  0.00000000000E+00 0.  1.
          2   -1    0    0  501    0 -0.00000000000E+00 -0.00000000000E+00 -0.70636440295E+00  0.70636440295E+00  0.00000000000E+00 0.  1.
          2    1    1    2  501    0  0.19984766692E+02 -0.10554801203E+02  0.14361903545E+04  0.14363681733E+04  0.00000000000E+00 0.  1.
          2    1    1    2  502    0 -0.19984766692E+02  0.10554801203E+02  0.20619708994E+03  0.20743200001E+03  0.00000000000E+00 0.  1.
</event>
<event>
 4    1  0.6136512E+003  0.2482591E+02  0.7546771E-02  0.1470760E+00
          2   -1    0    0  501    0  0.00000000000E+00  0.00000000000E+00  0.15386643345E+04  0.15386643345E+04  0.00000000000E+00 0. -1.
          2   -1    0    0  502    0 -0.00000000000E+00 -0.00000000000E+00 -0.47614393453E+00  0.47614393453E+00  0.00000000000E+00 0. -1.
          2    1    1    2  501    0  0.92016496285E+01 -0.23057657790E+02  0.46247684404E+03  0.46314269638E+03  0.00000000000E+00 0. -1.
          2    1    1    2  502    0 -0.92016496285E+01  0.23057657790E+02  0.10757113465E+04  0.10759977820E+04  0.00000000000E+00 0. -1.
</event>
<event>
 4    1  0.6136512E+003  0.4614517E+02  0.7546771E-02  0.1315810E+00
          2   -1    0    0  502    0  0.00000000000E+00  0.00000000000E+00  0.71052681874E+02  0.71052681874E+02  0.00000000000E+00 0.  1.
          2   -1    0    0  501    0 -0.00000000000E+00 -0.00000000000E+00 -0.96783061749E+02  0.96783061749E+02  0.00000000000E+00 0. -1.
          2    1    1    2  501    0 -0.19348202246E+02  0.41893001280E+02  0.56859851520E+02  0.73228540893E+02  0.00000000000E+00 0.  1.
          2    1    1    2  502    0  0.19348202246E+02 -0.41893001280E+02 -0.82590231395E+02  0.94607202730E+02  0.00000000000E+00 0. -1.
</event>
<event>
 4    1  0.6136512E+003  0.2538744E+02  0.7546771E-02  0.1464515E+00
          2   -1    0    0  501    0  0.00000000000E+00  0.00000000000E+00  0.91355052800E+00  0.91355052800E+00  0.00000000000E+00 0.  1.
          2   -1    0    0  502    0 -0.00000000000E+00 -0.00000000000E+00 -0.70579325153E+03  0.70579325153E+03  0.00000000000E+00 0.  1.
          2    1    1    2  501    0 -0.17270711325E+02 -0.18607651871E+02 -0.35947545570E+03  0.36037081656E+03  0.00000000000E+00 0.  1.
          2    1    1    2  502    0  0.17270711325E+02  0.18607651871E+02 -0.34540424531E+03  0.34633598550E+03  0.00000000000E+00 0.  1.
</event>
<event>
 4    1  0.6136512E+003  0.2804011E+02  0.7546771E-02  0.1437431E+00
          2   -1    0    0  502    0  0.00000000000E+00  0.00000000000E+00  0.17047826316E+02  0.17047826316E+02  0.00000000000E+00 0. -1.
          2   -1    0    0  501    0 -0.00000000000E+00 -0.00000000000E+00 -0.46120741705E+02  0.46120741705E+02  0.00000000000E+00 0. -1.
          2    1    1    2  501    0  0.13398872710E+02  0.24631641573E+02 -0.14653719294E+02  0.31638252885E+02  0.00000000000E+00 0. -1.
          2    1    1    2  502    0 -0.13398872710E+02 -0.24631641573E+02 -0.14419196095E+02  0.31530315135E+02  0.00000000000E+00 0. -1.
</event>
<event>
 4    1  0.6136512E+003  0.4798469E+02  0.7546771E-02  0.1307155E+00
          2   -1    0    0  502    0  0.00000000000E+00  0.00000000000E+00  0.27845792939E+04  0.27845792939E+04  0.00000000000E+00 0.  1.
          2   -1    0    0  501    0 -0.00000000000E+00 -0.00000000000E+00 -0.78648876357E+01  0.78648876357E+01  0.00000000000E+00 0.  1.
          2    1    1    2  501    0  0.18860305523E+02 -0.44122774905E+02  0.27091446033E+04  0.27095695252E+04  0.00000000000E+00 0.  1.
          2    1    1    2  502    0 -0.18860305523E+02  0.44122774905E+02  0.67569803037E+02  0.82874656393E+02  0.00000000000E+00 0.  1.
</event>
<event>
 4    1  0.6136512E+003  0.2080857E+02  0.7546771E-02  0.1522016E+00
          2   -1    0    0  501    0  0.00000000000E+00  0.00000000000E+00  0.15025370830E+01  0.15025370830E+01  0.00000000000E+00 0.  1.
          2   -1    0    0  502    0 -0.00000000000E+00 -0.00000000000E+00 -0.47365776217E+03  0.47365776217E+03  0.00000000000E+00 0.  1.
          2    1    1    2  501    0 -0.20699792212E+02 -0.21248488949E+01 -0.38474901959E+03  0.38531130850E+03  0.00000000000E+00 0.  1.
          2    1    1    2  502    0  0.20699792212E+02  0.21248488949E+01 -0.87406205498E+02  0.89848990757E+02  0.00000000000E+00 0.  1.
</event>
<event>
 4    1  0.6136512E+003  0.2012805E+02  0.7546771E-02  0.1532087E+00
          2   -1    0    0  502    0  0.00000000000E+00  0.00000000000E+00  0.18487004884E+02  0.18487004884E+02  0.00000000000E+00 0.  1.
          2   -1    0    0  501    0 -0.00000000000E+00 -0.00000000000E+00 -0.11966719889E+03  0.11966719889E+03  0.00000000000E+00 0.  1.
          2    1    1    2  501    0  0.19756267486E+02 -0.38507743872E+01  0.11842343429E+02  0.23353365202E+02  0.00000000000E+00 0.  1.
          2    1    1    2  502    0 -0.19756267486E+02  0.38507743872E+01 -0.11302253743E+03  0.11480083857E+03  0.00000000000E+00 0.  1.
</event>
<event>
 4    1  0.6136512E+003  0.4648984E+02  0.7546771E-02  0.1314153E+00
          2   -1    0    0  501    0  0.00000000000E+00  0.00000000000E+00  0.80971401638E+02  0.80971401638E+02  0.00000000000E+00 0. -1.
          2   -1    0    0  502    0 -0.00000000000E+00 -0.00000000000E+00 -0.39805057690E+02  0.39805057690E+02  0.00000000000E+00 0. -1.
          2    1    1    2  501    0  0.32820478612E+02  0.32925994934E+02 -0.14077088354E+02  0.48574369530E+02  0.00000000000E+00 0. -1.
          2    1    1    2  502    0 -0.32820478612E+02 -0.32925994934E+02  0.55243432302E+02  0.72202089798E+02  0.00000000000E+00 0. -1.
</event>
<event>
 4    1  0.6136512E+003  0.2242548E+02  0.7546771E-02  0.1499841E+00
          2   -1    0    0  501    0  0.00000000000E+00  0.00000000000E+00  0.22127465066E+01  0.22127465066E+01  0.00000000000E+00 0.  1.
          2   -1    0    0  502    0 -0.00000000000E+00 -0.00000000000E+00 -0.73475475506E+03  0.73475475506E+03  0.00000000000E+00 0. -1.
          2    1    1    2  501    0 -0.15562946210E+02  0.16146107719E+02 -0.67250716746E+03  0.67288096449E+03  0.00000000000E+00 0. -1.
          2    1    1    2  502    0  0.15562946210E+02 -0.16146107719E+02 -0.60034841091E+02  0.64086537074E+02  0.00000000000E+00 0.  1.
</event>
<event>
 4    1  0.6136512E+003  0.3194160E+02  0.7546771E-02  0.1403442E+00
          2   -1    0    0  501    0  0.00000000000E+00  0.00000000000E+00  0.10392109750E+03  0.10392109750E+03  0.00000000000E+00 0. -1.
          2   -1    0    0  502    0 -0.00000000000E+00 -0.00000000000E+00 -0.17332818339E+03  0.17332818339E+03  0.00000000000E+00 0. -1.
          2    1    1    2  501    0  0.66780320996E+01  0.31235716231E+02 -0.16934495023E+03  0.17233101360E+03  0.00000000000E+00 0. -1.
          2    1    1    2  502    0 -0.66780320996E+01 -0.31235716231E+02  0.99937864340E+02  0.10491826729E+03  0.00000000000E+00 0. -1.
</event>
<event>
 4    1  0.6136512E+003  0.2215210E+02  0.7546771E-02  0.1503429E+00
          2   -1    0    0  501    0  0.00000000000E+00  0.00000000000E+00  0.58351033210E+01  0.58351033210E+01  0.00000000000E+00 0. -1.
          2   -1    0    0  502    0 -0.00000000000E+00 -0.00000000000E+00 -0.68683382172E+03  0.68683382172E+03  0.00000000000E+00 0.  1.
          2    1    1    2  501    0 -0.20586666783E+02  0.81795313099E+01 -0.66493882583E+03  0.66530771653E+03  0.00000000000E+00 0.  1.
          2    1    1    2  502    0  0.20586666783E+02 -0.81795313099E+01 -0.16059892568E+02  0.27361208507E+02  0.00000000000E+00 0. -1.
</event>
<event>
 4    1  0.6136512E+003  0.2498624E+02  0.7546771E-02  0.1468957E+00
          2   -1    0    0  501    0  0.00000000000E+00  0.00000000000E+00  0.99687713490E+03  0.99687713490E+03  0.00000000000E+00 0.  1.
          2   -1    0    0  502    0 -0.00000000000E+00 -0.00000000000E+00 -0.13495422983E+01  0.13495422983E+01  0.00000000000E+00 0. -1.
          2    1    1    2  501    0 -0.61191359827E+01 -0.24225370932E+02  0.13237317976E+03  0.13471069424E+03  0.00000000000E+00 0. -1.
          2    1    1    2  502    0  0.61191359827E+01  0.24225370932E+02  0.86315441284E+03  0.86351598296E+03  0.00000000000E+00 0.  1.
</event>
<event>
 4    1  0.6136512E+003  0.2024816E+02  0.7546771E-02  0.1530275E+00
          2   -1    0    0  502    0  0.00000000000E+00  0.00000000000E+00  0.60414352761E+02  0.60414352761E+02  0.00000000000E+00 0.  1.
          2   -1    0    0  501    0 -0.00000000000E+00 -0.00000000000E+00 -0.19702036095E+02  0.19702036095E+02  0.00000000000E+00 0.  1.
          2    1    1    2  501    0 -0.11491700827E+02 -0.16671199909E+02  0.52789814238E+02  0.56539831815E+02  0.00000000000E+00 0.  1.
          2    1    1    2  502    0  0.11491700827E+02  0.16671199909E+02 -0.12077497573E+02  0.23576557041E+02  0.00000000000E+00 0.  1.
</event>
<event>
 4    1  0.6136512E+003  0.2173364E+02  0.7546771E-02  0.1509043E+00
          2   -1    0    0  501    0  0.00000000000E+00  0.00000000000E+00  0.20866356541E+01  0.20866356541E+01  0.00000000000E+00 0. -1.
          2   -1    0    0  502    0 -0.00000000000E+00 -0.00000000000E+00 -0.36258254470E+03  0.36258254470E+03  0.00000000000E+00 0. -1.
          2    1    1    2  501    0 -0.21730446886E+02  0.37239372131E+00 -0.29200495004E+03  0.29281263949E+03  0.00000000000E+00 0. -1.
          2    1    1    2  502    0  0.21730446886E+02 -0.37239372131E+00 -0.68490958999E+02  0.71856540855E+02  0.00000000000E+00 0. -1.
</event>
<event>
 4    1  0.6136512E+003  0.2359366E+02  0.7546771E-02  0.1485175E+00
          2   -1    0    0  501    0  0.00000000000E+00  0.00000000000E+00  0.26597115573E+03  0.26597115573E+03  0.00000000000E+00 0. -1.
          2   -1    0    0  502    0 -0.00000000000E+00 -0.00000000000E+00 -0.15354456108E+02  0.15354456108E+02  0.00000000000E+00 0. -1.
          2    1    1    2  501    0 -0.20031231374E+02 -0.12466377779E+02 -0.54166649686E+01  0.24207458864E+02  0.00000000000E+00 0. -1.
          2    1    1    2  502    0  0.20031231374E+02  0.12466377779E+02  0.25603336459E+03  0.25711815297E+03  0.00000000000E+00 0. -1.
</event>
<event>
 4    1  0.6136512E+003  0.3057947E+02  0.7546771E-02  0.1414626E+00
          2   -1    0    0  501    0  0.00000000000E+00  0.00000000000E+00  0.21008604740E+04  0.21008604740E+04  0.00000000000E+00 0.  1.
          2   -1    0    0  502    0 -0.00000000000E+00 -0.00000000000E+00 -0.36459770765E+01  0.36459770765E+01  0.00000000000E+00 0. -1.
          2    1    1    2  501    0  0.30455757588E+02  0.27478742121E+01  0.62674159676E+02  0.69736319619E+02  0.00000000000E+00 0. -1.
          2    1    1    2  502    0 -0.30455757588E+02 -0.27478742121E+01  0.20345403372E+04  0.20347701315E+04  0.00000000000E+00 0.  1.
</event>
<event>
 4    1  0.6136512E+003  0.3328319E+02  0.7546771E-02  0.1393052E+00
          2   -1    0    0  501    0  0.00000000000E+00  0.00000000000E+00  0.79024255349E+01  0.79024255349E+01  0.00000000000E+00 0.  1.
          2   -1    0    0  502    0 -0.00000000000E+00 -0.00000000000E+00 -0.19697305722E+04  0.19697305722E+04  0.00000000000E+00 0.  1.
          2    1    1    2  501    0  0.14585547846E+02 -0.29917097147E+02 -0.19338953479E+04  0.19341817359E+04  0.00000000000E+00 0.  1.
          2    1    1    2  502    0 -0.14585547846E+02  0.29917097147E+02 -0.27932798783E+02  0.43451261841E+02  0.00000000000E+00 0.  1.
</event>
<event>
 4    1  0.6136512E+003  0.3171210E+02  0.7546771E-02  0.1405280E+00
          2   -1    0    0  501    0  0.00000000000E+00  0.00000000000E+00  0.47796621945E+01  0.47796621945E+01  0.00000000000E+00 0.  1.
          2   -1    0    0  502    0 -0.00000000000E+00 -0.00000000000E+00 -0.74608532487E+03  0.74608532487E+03  0.00000000000E+00 0.  1.
          2    1    1    2  501    0  0.27591560131E+02  0.15632108201E+02 -0.68877293884E+03  0.68950258758E+03  0.00000000000E+00 0.  1.
          2    1    1    2  502    0 -0.27591560131E+02 -0.15632108201E+02 -0.52532723834E+02  0.61362399486E+02  0.00000000000E+00 0.  1.
</event>
<event>
 4    1  0.6739998E+003  0.2052319E+02  0.7546771E-02  0.1526183E+00
          2   -1    0    0  502    0  0.00000000000E+00  0.00000000000E+00  0.59722015611E+03  0.59722015611E+03  0.00000000000E+00 0. -1.
          2   -1    0    0  501    0 -0.00000000000E+00 -0.00000000000E+00 -0.12690301261E+04  0.12690301261E+04  0.00000000000E+00 0.  1.
          2    1    1    2  501    0 -0.14259395835E+02  0.14760451205E+02  0.59696082563E+03  0.59731350950E+03  0.00000000000E+00 0. -1.
          2    1    1    2  502    0  0.14259395835E+02 -0.14760451205E+02 -0.12687707956E+04  0.12689367727E+04  0.00000000000E+00 0.  1.
</event>
<event>
 4    1  0.6136512E+003  0.5262295E+02  0.7546771E-02  0.1287184E+00
          2   -1    0    0  501    0  0.00000000000E+00  0.00000000000E+00  0.21617840670E+03  0.21617840670E+03  0.00000000000E+00 0.  1.
          2   -1    0    0  502    0 -0.00000000000E+00 -0.00000000000E+00 -0.19901250860E+02  0.19901250860E+02  0.00000000000E+00 0.  1.
          2    1    1    2  501    0  0.37375338374E+02  0.37044012855E+02  0.27675792610E+02  0.59456911318E+02  0.00000000000E+00 0.  1.
          2    1    1    2  502    0 -0.37375338374E+02 -0.37044012855E+02  0.16860136323E+03  0.17662274624E+03  0.00000000000E+00 0.  1.
</event>
<event>
 4    1  0.6136512E+003  0.2170190E+02  0.7546771E-02  0.1509475E+00
          2   -1    0    0  502    0  0.00000000000E+00  0.00000000000E+00  0.31072995221E+01  0.31072995221E+01  0.00000000000E+00 0.  1.
          2   -1    0    0  501    0 -0.00000000000E+00 -0.00000000000E+00 -0.33706171448E+03  0.33706171448E+03  0.00000000000E+00 0.  1.
          2    1    1    2  501    0  0.35896256188E+01 -0.21402966371E+02 -0.40802391548E+02  0.46214797820E+02  0.00000000000E+00 0.  1.
          2    1    1    2  502    0 -0.35896256188E+01  0.21402966371E+02 -0.29315202341E+03  0.29395421618E+03  0.00000000000E+00 0.  1.
</event>
<event>
 4    1  0.6136512E+003  0.2001937E+02  0.7546771E-02  0.1533740E+00
          2   -1    0    0  502    0  0.00000000000E+00  0.00000000000E+00  0.53538444861E+01  0.53538444861E+01  0.00000000000E+00 0.  1.
          2   -1    0    0  501    0 -0.00000000000E+00 -0.00000000000E+00 -0.13562442361E+03  0.13562442361E+03  0.00000000000E+00 0.  1.
          2    1    1    2  501    0  0.15811127875E+02  0.12279392546E+02 -0.17952136507E+02  0.26889671830E+02  0.00000000000E+00 0.  1.
          2    1    1    2  502    0 -0.15811127875E+02 -0.12279392546E+02 -0.11231844262E+03  0.11408859627E+03  0.00000000000E+00 0.  1.
</event>
<event>
 4    1  0.6136512E+003  0.2363595E+02  0.7546771E-02  0.1484663E+00
          2   -1    0    0  501    0  0.00000000000E+00  0.00000000000E+00  0.40972815116E+03  0.40972815116E+03  0.00000000000E+00 0. -1.
          2   -1    0    0  502    0 -0.00000000000E+00 -0.00000000000E+00 -0.46229462317E+01  0.46229462317E+01  0.00000000000E+00 0. -1.
          2    1    1    2  501    0  0.23280091930E+02 -0.40860294031E+01  0.28591574369E+02  0.37096313044E+02  0.00000000000E+00 0. -1.
          2    1    1    2  502    0 -0.23280091930E+02  0.40860294031E+01  0.37651363056E+03  0.37725478435E+03  0.00000000000E+00 0. -1.
</event>
<event>
 4    1  0.6136512E+003  0.8792746E+02  0.7546771E-02  0.1186551E+00
          2   -1    0    0  501    0  0.00000000000E+00  0.00000000000E+00  0.15139976228E+04  0.15139976228E+04  0.00000000000E+00 0. -1.
          2   -1    0    0  502    0 -0.00000000000E+00 -0.00000000000E+00 -0.16385335764E+02  0.16385335764E+02  0.00000000000E+00 0.  1.
          2    1    1    2  501    0  0.87914381871E+02  0.15165778128E+01  0.11395125822E+03  0.14393098276E+03  0.00000000000E+00 0.  1.
          2    1    1    2  502    0 -0.87914381871E+02 -0.15165778128E+01  0.13836610288E+04  0.13864519758E+04  0.00000000000E+00 0. -1.
</event>
<event>
 4    1  0.6136512E+003  0.2608939E+02  0.7546771E-02  0.1456976E+00
          2   -1    0    0  502    0  0.00000000000E+00  0.00000000000E+00  0.46363054725E+02  0.46363054725E+02  0.00000000000E+00 0.  1.
          2   -1    0    0  501    0 -0.00000000000E+00 -0.00000000000E+00 -0.26326182872E+02  0.26326182872E+02  0.00000000000E+00 0. -1.
          2    1    1    2  501    0  0.11966525113E+02 -0.23183151361E+02  0.34190806171E+02  0.43007760427E+02  0.00000000000E+00 0.  1.
          2    1    1    2  502    0 -0.11966525113E+02  0.23183151361E+02 -0.14153934318E+02  0.29681477170E+02  0.00000000000E+00 0. -1.
</event>
<event>
 4    1  0.6136512E+003  0.2458821E+02  0.7546771E-02  0.1473463E+00
          2   -1    0    0  501    0  0.00000000000E+00  0.00000000000E+00  0.71650646933E+01  0.71650646933E+01  0.00000000000E+00 0. -1.
          2   -1    0    0  502    0 -0.00000000000E+00 -0.00000000000E+00 -0.16885833497E+03  0.16885833497E+03  0.00000000000E+00 0. -1.
          2    1    1    2  501    0 -0.23077452041E+02  0.84859465774E+01 -0.14309883855E+03  0.14519592858E+03  0.00000000000E+00 0. -1.
          2    1    1    2  502    0  0.23077452041E+02 -0.84859465774E+01 -0.18594431723E+02  0.30827471079E+02  0.00000000000E+00 0. -1.
</event>
<event>
 4    1  0.6136512E+003  0.2511571E+02  0.7546771E-02  0.1467513E+00
          2   -1    0    0  502    0  0.00000000000E+00  0.00000000000E+00  0.10638063289E+02  0.10638063289E+02  0.00000000000E+00 0.  1.
          2   -1    0    0  501    0 -0.00000000000E+00 -0.00000000000E+00 -0.86233867324E+03  0.86233867324E+03  0.00000000000E+00 0. -1.
          2    1    1    2  501    0  0.67599776407E+01  0.24188872155E+02 -0.46361593132E+01  0.25540023630E+02  0.00000000000E+00 0.  1.
          2    1    1    2  502    0 -0.67599776407E+01 -0.24188872155E+02 -0.84706445063E+03  0.84743671289E+03  0.00000000000E+00 0. -1.
</event>
<event>
 4    1  0.6136512E+003  0.2278532E+02  0.7546771E-02  0.1495212E+00
          2   -1    0    0  502    0  0.00000000000E+00  0.00000000000E+00  0.72206454842E+03  0.72206454842E+03  0.00000000000E+00 0. -1.
          2   -1    0    0  501    0 -0.00000000000E+00 -0.00000000000E+00 -0.93813688660E+01  0.93813688660E+01  0.00000000000E+00 0. -1.
          2    1    1    2  501    0  0.22750673318E+02 -0.12560837840E+01  0.70777029320E+03  0.70813696331E+03  0.00000000000E+00 0. -1.
          2    1    1    2  502    0 -0.22750673318E+02  0.12560837840E+01  0.49128863597E+01  0.23308953972E+02  0.00000000000E+00 0. -1.
</event>
<event>
 4    1  0.6136512E+003  0.3009934E+02  0.7546771E-02  0.1418735E+00
          2   -1    0    0  502    0  0.00000000000E+00  0.00000000000E+00  0.96157636994E+03  0.96157636994E+03  0.00000000000E+00 0.  1.
          2   -1    0    0  501    0 -0.00000000000E+00 -0.00000000000E+00 -0.18352339878E+02  0.18352339878E+02  0.00000000000E+00 0.  1.
          2    1    1    2  501    0  0.17214980964E+02 -0.24690378095E+02  0.94883378109E+03  0.94931107361E+03  0.00000000000E+00 0.  1.
          2    1    1    2  502    0 -0.17214980964E+02  0.24690378095E+02 -0.56097510329E+01  0.30617636204E+02  0.00000000000E+00 0.  1.
</event>
<event>
 4    1  0.6136512E+003  0.4604860E+02  0.7546771E-02  0.1316278E+00
          2   -1    0    0  502    0  0.00000000000E+00  0.00000000000E+00  0.35769398710E+02  0.35769398710E+02  0.00000000000E+00 0.  1.
          2   -1    0    0  501    0 -0.00000000000E+00 -0.00000000000E+00 -0.67821524844E+02  0.67821524844E+02  0.00000000000E+00 0.  1.
          2    1    1    2  501    0  0.47662646575E+01  0.45801269870E+02  0.23532975571E+01  0.46108693431E+02  0.00000000000E+00 0.  1.
          2    1    1    2  502    0 -0.47662646575E+01 -0.45801269870E+02 -0.34405423691E+02  0.57482230123E+02  0.00000000000E+00 0.  1.
</event>
<event>
 4    1  0.6136512E+003  0.2360850E+02  0.7546771E-02  0.1484995E+00
          2   -1    0    0  502    0  0.00000000000E+00  0.00000000000E+00  0.19737725314E+01  0.19737725314E+01  0.00000000000E+00 0. -1.
          2   -1    0    0  501    0 -0.00000000000E+00 -0.00000000000E+00 -0.48472363916E+03  0.48472363916E+03  0.00000000000E+00 0. -1.
          2    1    1    2  501    0 -0.12510021496E+02 -0.20021503633E+02 -0.84149529633E+02  0.87398538792E+02  0.00000000000E+00 0. -1.
          2    1    1    2  502    0  0.12510021496E+02  0.20021503633E+02 -0.39860033700E+03  0.39929887290E+03  0.00000000000E+00 0. -1.
</event>
<event>
 4    1  0.6136512E+003  0.2001160E+02  0.7546771E-02  0.1533858E+00
          2   -1    0    0  502    0  0.00000000000E+00  0.00000000000E+00  0.28784365892E+04  0.28784365892E+04  0.00000000000E+00 0.  1.
          2   -1    0    0  501    0 -0.00000000000E+00 -0.00000000000E+00 -0.13912945552E+00  0.13912945552E+00  0.00000000000E+00 0.  1.
          2    1    1    2  501    0  0.93475120818E+01  0.17694294552E+02  0.14467851638E+04  0.14469235551E+04  0.00000000000E+00 0.  1.
          2    1    1    2  502    0 -0.93475120818E+01 -0.17694294552E+02  0.14315122959E+04  0.14316521636E+04  0.00000000000E+00 0.  1.
</event>
<event>
 4    1  0.6136512E+003  0.2610778E+02  0.7546771E-02  0.1456782E+00
          2   -1    0    0  501    0  0.00000000000E+00  0.00000000000E+00  0.12890484919E+03  0.12890484919E+03  0.00000000000E+00 0. -1.
          2   -1    0    0  502    0 -0.00000000000E+00 -0.00000000000E+00 -0.14292367964E+04  0.14292367964E+04  0.00000000000E+00 0.  1.
          2    1    1    2  501    0  0.24049000348E+02  0.10161774003E+02 -0.14277942972E+04  0.14280329727E+04  0.00000000000E+00 0.  1.
          2    1    1    2  502    0 -0.24049000348E+02 -0.10161774003E+02  0.12746235003E+03  0.13010867282E+03  0.00000000000E+00 0. -1.
</event>
<event>
 4    1  0.6136512E+003  0.2339210E+02  0.7546771E-02  0.1487632E+00
          2   -1    0    0  501    0  0.00000000000E+00  0.00000000000E+00  0.12251094840E+01  0.12251094840E+01  0.00000000000E+00 0. -1.
          2   -1    0    0  502    0 -0.00000000000E+00 -0.00000000000E+00 -0.18220195887E+04  0.18220195887E+04  0.00000000000E+00 0.  1.
          2    1    1    2  501    0  0.14315699739E+02 -0.18500028656E+02 -0.17024402652E+04  0.17026009652E+04  0.00000000000E+00 0.  1.
          2    1    1    2  502    0 -0.14315699739E+02  0.18500028656E+02 -0.11835421402E+03  0.12064373293E+03  0.00000000000E+00 0. -1.
</event>
<event>
 4    1  0.7613620E+003  0.4745979E+02  0.7546771E-02  0.1309578E+00
          2   -1    0    0  502    0  0.00000000000E+00  0.00000000000E+00  0.54853705305E+03  0.54853705305E+03  0.00000000000E+00 0. -1.
          2   -1    0    0  501    0 -0.00000000000E+00 -0.00000000000E+00 -0.12992239976E+04  0.12992239976E+04  0.00000000000E+00 0. -1.
          2    1    1    2  501    0 -0.44352583109E+01 -0.47252090908E+02  0.54707591589E+03  0.54913066693E+03  0.00000000000E+00 0. -1.
          2    1    1    2  502    0  0.44352583109E+01  0.47252090908E+02 -0.12977628604E+04  0.12986303837E+04  0.00000000000E+00 0. -1.
</event>
<event>
 4    1  0.6136512E+003  0.3794740E+02  0.7546771E-02  0.1360953E+00
          2   -1    0    0  502    0  0.00000000000E+00  0.00000000000E+00  0.22898182187E+02  0.22898182187E+02  0.00000000000E+00 0. -1.
          2   -1    0    0  501    0 -0.00000000000E+00 -0.00000000000E+00 -0.18276875790E+03  0.18276875790E+03  0.00000000000E+00 0. -1.
          2    1    1    2  501    0 -0.16848628597E+02 -0.34001899286E+02  0.33483088065E+01  0.38094837085E+02  0.00000000000E+00 0. -1.
          2    1    1    2  502    0  0.16848628597E+02  0.34001899286E+02 -0.16321888452E+03  0.16757210300E+03  0.00000000000E+00 0. -1.
</event>
<event>
 4    1  0.6136512E+003  0.2431555E+02  0.7546771E-02  0.1476608E+00
          2   -1    0    0  501    0  0.00000000000E+00  0.00000000000E+00  0.12625911683E+02  0.12625911683E+02  0.00000000000E+00 0.  1.
          2   -1    0    0  502    0 -0.00000000000E+00 -0.00000000000E+00 -0.17269026296E+03  0.17269026296E+03  0.00000000000E+00 0.  1.
          2    1    1    2  501    0 -0.13702323048E+02  0.20087123813E+02 -0.15913594393E+03  0.16098290236E+03  0.00000000000E+00 0.  1.
          2    1    1    2  502    0  0.13702323048E+02 -0.20087123813E+02 -0.92840734544E+00  0.24333272287E+02  0.00000000000E+00 0.  1.
</event>
<event>
 4    1  0.6136512E+003  0.2970175E+02  0.7546771E-02  0.1422206E+00
          2   -1    0    0  502    0  0.00000000000E+00  0.00000000000E+00  0.14484842784E+04  0.14484842784E+04  0.00000000000E+00 0. -1.
          2   -1    0    0  501    0 -0.00000000000E+00 -0.00000000000E+00 -0.17264577882E+01  0.17264577882E+01  0.00000000000E+00 0.  1.
          2    1    1    2  501    0 -0.16570157344E+02  0.24650028368E+02  0.13067295805E+04  0.13070670949E+04  0.00000000000E+00 0. -1.
          2    1    1    2  502    0  0.16570157344E+02 -0.24650028368E+02  0.14002824013E+03  0.14314364131E+03  0.00000000000E+00 0.  1.
</event>
<event>
 4    1  0.6136512E+003  0.2256471E+02  0.7546771E-02  0.1498038E+00
          2   -1    0    0  502    0  0.00000000000E+00  0.00000000000E+00  0.90431980552E+03  0.90431980552E+03  0.00000000000E+00 0. -1.
          2   -1    0    0  501    0 -0.00000000000E+00 -0.00000000000E+00 -0.58722519316E+00  0.58722519316E+00  0.00000000000E+00 0.  1.
          2    1    1    2  501    0  0.12426802337E+02 -0.18834559201E+02  0.36003977210E+03  0.36074617605E+03  0.00000000000E+00 0.  1.
          2    1    1    2  502    0 -0.12426802337E+02  0.18834559201E+02  0.54369280822E+03  0.54416085466E+03  0.00000000000E+00 0. -1.
</event>
<event>
 4    1  0.6136512E+003  0.2269545E+02  0.7546771E-02  0.1496358E+00
          2   -1    0    0  501    0  0.00000000000E+00  0.00000000000E+00  0.18113695515E+03  0.18113695515E+03  0.00000000000E+00 0. -1.
          2   -1    0    0  502    0 -0.00000000000E+00 -0.00000000000E+00 -0.34593412956E+01  0.34593412956E+01  0.00000000000E+00 0.  1.
          2    1    1    2  501    0  0.46969867966E+01 -0.22204098106E+02  0.49899309913E+02  0.54818106384E+02  0.00000000000E+00 0.  1.
          2    1    1    2  502    0 -0.46969867966E+01  0.22204098106E+02  0.12777830394E+03  0.12977819006E+03  0.00000000000E+00 0. -1.
</event>
<event>
 4    1  0.6136512E+003  0.2112882E+02  0.7546771E-02  0.1517433E+00
          2   -1    0    0  502    0  0.00000000000E+00  0.00000000000E+00  0.40901313641E+03  0.40901313641E+03  0.00000000000E+00 0.  1.
          2   -1    0    0  501    0 -0.00000000000E+00 -0.00000000000E+00 -0.65452392069E+01  0.65452392069E+01  0.00000000000E+00 0.  1.
          2    1    1    2  501    0 -0.93977645691E+01 -0.18923773849E+02  0.39089908252E+03  0.39146969220E+03  0.00000000000E+00 0.  1.
          2    1    1    2  502    0  0.93977645691E+01  0.18923773849E+02  0.11568814681E+02  0.24088683416E+02  0.00000000000E+00 0.  1.
</event>
<event>
 4    1  0.6136512E+003  0.3589937E+02  0.7546771E-02  0.1374348E+00
          2   -1    0    0  502    0  0.00000000000E+00  0.00000000000E+00  0.97282813614E+01  0.97282813614E+01  0.00000000000E+00 0.  1.
          2   -1    0    0  501    0 -0.00000000000E+00 -0.00000000000E+00 -0.15049238479E+03  0.15049238479E+03  0.00000000000E+00 0. -1.
          2    1    1    2  501    0  0.34153784165E+02 -0.11058193647E+02 -0.42663911568E+02  0.55758174018E+02  0.00000000000E+00 0.  1.
          2    1    1    2  502    0 -0.34153784165E+02  0.11058193647E+02 -0.98100191856E+02  0.10446249213E+03  0.00000000000E+00 0. -1.
</event>
<event>
 4    1  0.6136512E+003  0.2183385E+02  0.7546771E-02  0.1507685E+00
          2   -1    0    0  502    0  0.00000000000E+00  0.00000000000E+00  0.19967808111E+03  0.19967808111E+03  0.00000000000E+00 0. -1.
          2   -1    0    0  501    0 -0.00000000000E+00 -0.00000000000E+00 -0.30376823917E+02  0.30376823917E+02  0.00000000000E+00 0. -1.
          2    1    1    2  501    0 -0.21253074835E+01  0.21730160681E+02  0.19506537805E+03  0.19628351568E+03  0.00000000000E+00 0. -1.
          2    1    1    2  502    0  0.21253074835E+01 -0.21730160681E+02 -0.25764120854E+02  0.33771389348E+02  0.00000000000E+00 0. -1.
</event>
<event>
 4    1  0.6136512E+003  0.2975284E+02  0.7546771E-02  0.1421757E+00
          2   -1    0    0  501    0  0.00000000000E+00  0.00000000000E+00  0.10936826910E+02  0.10936826910E+02  0.00000000000E+00 0.  1.
          2   -1    0    0  502    0 -0.00000000000E+00 -0.00000000000E+00 -0.93188321998E+02  0.93188321998E+02  0.00000000000E+00 0.  1.
          2    1    1    2  501    0  0.51476667967E+01  0.29304145444E+02 -0.60000256605E+02  0.66972100208E+02  0.00000000000E+00 0.  1.
          2    1    1    2  502    0 -0.51476667967E+01 -0.29304145444E+02 -0.22251238483E+02  0.37153048699E+02  0.00000000000E+00 0.  1.
</event>
<event>
 4    1  0.6136512E+003  0.3070007E+02  0.7546771E-02  0.1413609E+00
          2   -1    0    0  501    0  0.00000000000E+00  0.00000000000E+00  0.27840010973E+03  0.27840010973E+03  0.00000000000E+00 0. -1.
          2   -1    0    0  502    0 -0.00000000000E+00 -0.00000000000E+00 -0.30186889829E+02  0.30186889829E+02  0.00000000000E+00 0.  1.
          2    1    1    2  501    0 -0.30684337681E+02  0.98261435265E+00 -0.21277840924E+02  0.37352919889E+02  0.00000000000E+00 0.  1.
          2    1    1    2  502    0  0.30684337681E+02 -0.98261435265E+00  0.26949106083E+03  0.27123407967E+03  0.00000000000E+00 0. -1.
</event>
<event>
 4    1  0.6136512E+003  0.2058363E+02  0.7546771E-02  0.1525293E+00
          2   -1    0    0  501    0  0.00000000000E+00  0.00000000000E+00  0.14132314022E+01  0.14132314022E+01  0.00000000000E+00 0. -1.
          2   -1    0    0  502    0 -0.00000000000E+00 -0.00000000000E+00 -0.39105821931E+03  0.39105821931E+03  0.00000000000E+00 0.  1.
          2    1    1    2  501    0  0.15276650591E+02 -0.13795276899E+02 -0.28961961313E+03  0.29035014384E+03  0.00000000000E+00 0.  1.
          2    1    1    2  502    0 -0.15276650591E+02  0.13795276899E+02 -0.10002537478E+03  0.10212130687E+03  0.00000000000E+00 0. -1.
</event>
<event>
 4    1  0.6136512E+003  0.3133372E+02  0.7546771E-02  0.1408350E+00
          2   -1    0    0  502    0  0.00000000000E+00  0.00000000000E+00  0.99037087870E+02  0.99037087870E+02  0.00000000000E+00 0. -1.
          2   -1    0    0  501    0 -0.00000000000E+00 -0.00000000000E+00 -0.30376871411E+02  0.30376871411E+02  0.00000000000E+00 0.  1.
          2    1    1    2  501    0  0.29955932397E+02 -0.91893511128E+01  0.87439145237E+02  0.92883831636E+02  0.00000000000E+00 0. -1.
          2    1    1    2  502    0 -0.29955932397E+02  0.91893511128E+01 -0.18778928778E+02  0.36530127644E+02  0.00000000000E+00 0.  1.
</event>
<event>
 4    1  0.6136512E+003  0.2575635E+02  0.7546771E-02  0.1460517E+00
          2   -1    0    0  502    0  0.00000000000E+00  0.00000000000E+00  0.12534656651E+01  0.12534656651E+01  0.00000000000E+00 0. -1.
          2   -1    0    0  501    0 -0.00000000000E+00 -0.00000000000E+00 -0.16569592759E+04  0.16569592759E+04  0.00000000000E+00 0.  1.
          2    1    1    2  501    0  0.23544096509E+02 -0.10443434574E+02 -0.14385626123E+03  0.14614381171E+03  0.00000000000E+00 0. -1.
          2    1    1    2  502    0 -0.23544096509E+02  0.10443434574E+02 -0.15118495490E+04  0.15120689299E+04  0.00000000000E+00 0.  1.
</event>
<event>
 4    1  0.6136512E+003  0.2045817E+02  0.7546771E-02  0.1527143E+00
          2   -1    0    0  502    0  0.00000000000E+00  0.00000000000E+00  0.56618333095E+03  0.56618333095E+03  0.00000000000E+00 0.  1.
          2   -1    0    0  501    0 -0.00000000000E+00 -0.00000000000E+00 -0.35715395982E+02  0.35715395982E+02  0.00000000000E+00 0.  1.
          2    1    1    2  501    0 -0.26604463697E+00 -0.20456439259E+02  0.56305257452E+03  0.56342411943E+03  0.00000000000E+00 0.  1.
          2    1    1    2  502    0  0.26604463697E+00  0.20456439259E+02 -0.32584639555E+02  0.38474607494E+02  0.00000000000E+00 0.  1.
</event>
<event>
 4    1  0.6136512E+003  0.2031219E+02  0.7546771E-02  0.1529316E+00
          2   -1    0    0  502    0  0.00000000000E+00  0.00000000000E+00  0.37245007638E+01  0.37245007638E+01  0.00000000000E+00 0. -1.
          2   -1    0    0  501    0 -0.00000000000E+00 -0.00000000000E+00 -0.72473188369E+03  0.72473188369E+03  0.00000000000E+00 0.  1.
          2    1    1    2  501    0 -0.19137019521E+02  0.68087871179E+01 -0.25265510095E+02  0.32418067471E+02  0.00000000000E+00 0. -1.
          2    1    1    2  502    0  0.19137019521E+02 -0.68087871179E+01 -0.69574187283E+03  0.69603831699E+03  0.00000000000E+00 0.  1.
</event>
<event>
 4    1  0.6136512E+003  0.5125005E+02  0.7546771E-02  0.1292842E+00
          2   -1    0    0  502    0  0.00000000000E+00  0.00000000000E+00  0.10073736601E+04  0.10073736601E+04  0.00000000000E+00 0.  1.
          2   -1    0    0  501    0 -0.00000000000E+00 -0.00000000000E+00 -0.31924538565E+03  0.31924538565E+03  0.00000000000E+00 0.  1.
          2    1    1    2  501    0 -0.10651100020E+02 -0.50131044139E+02  0.10046594150E+04  0.10059657587E+04  0.00000000000E+00 0.  1.
          2    1    1    2  502    0  0.10651100020E+02  0.50131044139E+02 -0.31653114058E+03  0.32065328702E+03  0.00000000000E+00 0.  1.
</event>
<event>
 4    1  0.6136512E+003  0.2695405E+02  0.7546771E-02  0.1448070E+00
          2   -1    0    0  501    0  0.00000000000E+00  0.00000000000E+00  0.40071081097E+03  0.40071081097E+03  0.00000000000E+00 0.  1.
          2   -1    0    0  502    0 -0.00000000000E+00 -0.00000000000E+00 -0.21054451151E+01  0.21054451151E+01  0.00000000000E+00 0.  1.
          2    1    1    2  501    0  0.18581859556E+02 -0.19525242306E+02  0.12424967313E+03  0.12713969429E+03  0.00000000000E+00 0.  1.
          2    1    1    2  502    0 -0.18581859556E+02  0.19525242306E+02  0.27435569273E+03  0.27567656180E+03  0.00000000000E+00 0.  1.
</event>
<event>
 4    1  0.6136512E+003  0.2425018E+02  0.7546771E-02  0.1477369E+00
          2   -1    0    0  502    0  0.00000000000E+00  0.00000000000E+00  0.11674970964E+03  0.11674970964E+03  0.00000000000E+00 0. -1.
          2   -1    0    0  501    0 -0.00000000000E+00 -0.00000000000E+00 -0.14045681807E+02  0.14045681807E+02  0.00000000000E+00 0. -1.
          2    1    1    2  501    0  0.53356766889E+01  0.23655901712E+02  0.10372665624E+03  0.10652366097E+03  0.00000000000E+00 0. -1.
          2    1    1    2  502    0 -0.53356766889E+01 -0.23655901712E+02 -0.10226284070E+01  0.24271730478E+02  0.00000000000E+00 0. -1.
</event>
<event>
 4    1  0.6136512E+003  0.2380671E+02  0.7546771E-02  0.1482609E+00
          2   -1    0    0  502    0  0.00000000000E+00  0.00000000000E+00  0.21831563313E+01  0.21831563313E+01  0.00000000000E+00 0. -1.
          2   -1    0    0  501    0 -0.00000000000E+00 -0.00000000000E+00 -0.32759033597E+03  0.32759033597E+03  0.00000000000E+00 0. -1.
          2    1    1    2  501    0  0.21912552870E+02  0.93058865422E+01 -0.87588692471E+02  0.90766395468E+02  0.00000000000E+00 0. -1.
          2    1    1    2  502    0 -0.21912552870E+02 -0.93058865422E+01 -0.23781848717E+03  0.23900709684E+03  0.00000000000E+00 0. -1.
</event>
<event>
 4    1  0.6136512E+003  0.4879306E+02  0.7546771E-02  0.1303492E+00
          2   -1    0    0  502    0  0.00000000000E+00  0.00000000000E+00  0.70679540986E+03  0.70679540986E+03  0.00000000000E+00 0. -1.
          2   -1    0    0  501    0 -0.00000000000E+00 -0.00000000000E+00 -0.53239136078E+03  0.53239136078E+03  0.00000000000E+00 0. -1.
          2    1    1    2  501    0 -0.34493194510E+02 -0.34510616324E+02  0.70483224482E+03  0.70651911259E+03  0.00000000000E+00 0. -1.
          2    1    1    2  502    0  0.34493194510E+02  0.34510616324E+02 -0.53042819574E+03  0.53266765806E+03  0.00000000000E+00 0. -1.
</event>
<event>
 4    1  0.6136512E+003  0.2699559E+02  0.7546771E-02  0.1447652E+00
          2   -1    0    0  502    0  0.00000000000E+00  0.00000000000E+00  0.50592200564E+03  0.50592200564E+03  0.00000000000E+00 0.  1.
          2   -1    0    0  501    0 -0.00000000000E+00 -0.00000000000E+00 -0.16168390536E+01  0.16168390536E+01  0.00000000000E+00 0.  1.
          2    1    1    2  501    0 -0.55806176238E+01 -0.26412469787E+02  0.33596838296E+03  0.33705120709E+03  0.00000000000E+00 0.  1.
          2    1    1    2  502    0  0.55806176238E+01  0.26412469787E+02  0.16833678362E+03  0.17048763760E+03  0.00000000000E+00 0.  1.
</event>
<event>
 4    1  0.6136512E+003  0.2100915E+02  0.7546771E-02  0.1519134E+00
          2   -1    0    0  502    0  0.00000000000E+00  0.00000000000E+00  0.65446599257E+03  0.65446599257E+03  0.00000000000E+00 0.  1.
          2   -1    0    0  501    0 -0.00000000000E+00 -0.00000000000E+00 -0.74270441970E+00  0.74270441970E+00  0.00000000000E+00 0.  1.
          2    1    1    2  501    0 -0.11642003926E+02  0.17488512834E+02  0.42619736972E+03  0.42671487236E+03  0.00000000000E+00 0.  1.
          2    1    1    2  502    0  0.11642003926E+02 -0.17488512834E+02  0.22752591842E+03  0.22849382462E+03  0.00000000000E+00 0.  1.
</event>
<event>
 4    1  0.6136512E+003  0.2069371E+02  0.7546771E-02  0.1523683E+00
          2   -1    0    0  501    0  0.00000000000E+00  0.00000000000E+00  0.10875571478E+04  0.10875571478E+04  0.00000000000E+00 0. -1.
          2   -1    0    0  502    0 -0.00000000000E+00 -0.00000000000E+00 -0.39251468222E+03  0.39251468222E+03  0.00000000000E+00 0.  1.
          2    1    1    2  501    0 -0.34465620929E+00 -0.20690837250E+02 -0.39214340323E+03  0.39268903503E+03  0.00000000000E+00 0.  1.
          2    1    1    2  502    0  0.34465620929E+00  0.20690837250E+02  0.10871858688E+04  0.10873827950E+04  0.00000000000E+00 0. -1.
</event>
<event>
 4    1  0.6136512E+003  0.3055160E+02  0.7546771E-02  0.1414862E+00
          2   -1    0    0  501    0  0.00000000000E+00  0.00000000000E+00  0.11121277723E+01  0.11121277723E+01  0.00000000000E+00 0.  1.
          2   -1    0    0  502    0 -0.00000000000E+00 -0.00000000000E+00 -0.10964883761E+04  0.10964883761E+04  0.00000000000E+00 0.  1.
          2    1    1    2  501    0  0.19714732358E+02 -0.23339438504E+02 -0.81348178453E+03  0.81405528917E+03  0.00000000000E+00 0.  1.
          2    1    1    2  502    0 -0.19714732358E+02  0.23339438504E+02 -0.28189446385E+03  0.28354521475E+03  0.00000000000E+00 0.  1.
</event>
<event>
 4    1  0.6136512E+003  0.2015882E+02  0.7546771E-02  0.1531622E+00
          2   -1    0    0  502    0  0.00000000000E+00  0.00000000000E+00  0.29539285647E+01  0.29539285647E+01  0.00000000000E+00 0.  1.
          2   -1    0    0  501    0 -0.00000000000E+00 -0.00000000000E+00 -0.13341771814E+04  0.13341771814E+04  0.00000000000E+00 0. -1.
          2    1    1    2  501    0 -0.11342738188E+02 -0.16664943251E+02 -0.32452790952E+02  0.38204210288E+02  0.00000000000E+00 0.  1.
          2    1    1    2  502    0  0.11342738188E+02  0.16664943251E+02 -0.12987704619E+04  0.12989268997E+04  0.00000000000E+00 0. -1.
</event>
<event>
 4    1  0.6136512E+003  0.8972617E+02  0.7546771E-02  0.1182910E+00
          2   -1    0    0  501    0  0.00000000000E+00  0.00000000000E+00  0.22298270945E+02  0.22298270945E+02  0.00000000000E+00 0. -1.
          2   -1    0    0  502    0 -0.00000000000E+00 -0.00000000000E+00 -0.27550247849E+04  0.27550247849E+04  0.00000000000E+00 0.  1.
          2    1    1    2  501    0  0.76592077318E+02  0.46737985844E+02 -0.26608376248E+04  0.26623500242E+04  0.00000000000E+00 0.  1.
          2    1    1    2  502    0 -0.76592077318E+02 -0.46737985844E+02 -0.71888889146E+02  0.11497303167E+03  0.00000000000E+00 0. -1.
</event>
<event>
 4    1  0.6136512E+003  0.2003806E+02  0.7546771E-02  0.1533455E+00
          2   -1    0    0  501    0  0.00000000000E+00  0.00000000000E+00  0.11544468816E+03  0.11544468816E+03  0.00000000000E+00 0.  1.
          2   -1    0    0  502    0 -0.00000000000E+00 -0.00000000000E+00 -0.36671036232E+02  0.36671036232E+02  0.00000000000E+00 0.  1.
          2    1    1    2  501    0 -0.26179377498E+01  0.19866312384E+02 -0.32974346851E+02  0.38585379564E+02  0.00000000000E+00 0.  1.
          2    1    1    2  502    0  0.26179377498E+01 -0.19866312384E+02  0.11174799878E+03  0.11353034483E+03  0.00000000000E+00 0.  1.
</event>
<event>
 4    1  0.6136512E+003  0.2016419E+02  0.7546771E-02  0.1531540E+00
          2   -1    0    0  502    0  0.00000000000E+00  0.00000000000E+00  0.15778434460E+03  0.15778434460E+03  0.00000000000E+00 0.  1.
          2   -1    0    0  501    0 -0.00000000000E+00 -0.00000000000E+00 -0.50664143057E+03  0.50664143057E+03  0.00000000000E+00 0. -1.
          2    1    1    2  501    0  0.14084525870E+02 -0.14429860122E+02  0.15693840977E+03  0.15822850310E+03  0.00000000000E+00 0.  1.
          2    1    1    2  502    0 -0.14084525870E+02  0.14429860122E+02 -0.50579549574E+03  0.50619727206E+03  0.00000000000E+00 0. -1.
</event>
<event>
 4    1  0.6136512E+003  0.2409113E+02  0.7546771E-02  0.1479233E+00
          2   -1    0    0  502    0  0.00000000000E+00  0.00000000000E+00  0.13010516128E+04  0.13010516128E+04  0.00000000000E+00 0. -1.
          2   -1    0    0  501    0 -0.00000000000E+00 -0.00000000000E+00 -0.27284174012E+01  0.27284174012E+01  0.00000000000E+00 0.  1.
          2    1    1    2  501    0  0.17607888322E+02  0.16442172795E+02  0.12453837939E+04  0.12456167857E+04  0.00000000000E+00 0. -1.
          2    1    1    2  502    0 -0.17607888322E+02 -0.16442172795E+02  0.52939401570E+02  0.58163244545E+02  0.00000000000E+00 0.  1.
</event>
<event>
 4    1  0.6136512E+003  0.2911079E+02  0.7546771E-02  0.1427484E+00
          2   -1    0    0  501    0  0.00000000000E+00  0.00000000000E+00  0.58625079239E+02  0.58625079239E+02  0.00000000000E+00 0. -1.
          2   -1    0    0  502    0 -0.00000000000E+00 -0.00000000000E+00 -0.98477590489E+02  0.98477590489E+02  0.00000000000E+00 0. -1.
          2    1    1    2  501    0  0.20416974386E+02 -0.20750547124E+02 -0.92483761207E+02  0.96957125246E+02  0.00000000000E+00 0. -1.
          2    1    1    2  502    0 -0.20416974386E+02  0.20750547124E+02  0.52631249957E+02  0.60145544482E+02  0.00000000000E+00 0. -1.
</event>
<event>
 4    1  0.6136512E+003  0.8279456E+02  0.7546771E-02  0.1197504E+00
          2   -1    0    0  502    0  0.00000000000E+00  0.00000000000E+00  0.39703589587E+03  0.39703589587E+03  0.00000000000E+00 0.  1.
          2   -1    0    0  501    0 -0.00000000000E+00 -0.00000000000E+00 -0.43180997443E+02  0.43180997443E+02  0.00000000000E+00 0.  1.
          2    1    1    2  501    0  0.65620991647E+02  0.50485882781E+02  0.34744611619E+03  0.35717466674E+03  0.00000000000E+00 0.  1.
          2    1    1    2  502    0 -0.65620991647E+02 -0.50485882781E+02  0.64087822393E+01  0.83042226576E+02  0.00000000000E+00 0.  1.
</event>
<event>
 4    1  0.6136512E+003  0.2496216E+02  0.7546771E-02  0.1469227E+00
          2   -1    0    0  502    0  0.00000000000E+00  0.00000000000E+00  0.53213151852E+02  0.53213151852E+02  0.00000000000E+00 0. -1.
          2   -1    0    0  501    0 -0.00000000000E+00 -0.00000000000E+00 -0.19619522471E+02  0.19619522471E+02  0.00000000000E+00 0.  1.
          2    1    1    2  501    0  0.11639563987E+02 -0.22082343491E+02  0.39919367204E+02  0.47081474295E+02  0.00000000000E+00 0. -1.
          2    1    1    2  502    0 -0.11639563987E+02  0.22082343491E+02 -0.63257378237E+01  0.25751200028E+02  0.00000000000E+00 0.  1.
</event>
<event>
 4    1  0.6136512E+003  0.3819951E+02  0.7546771E-02  0.1359372E+00
          2   -1    0    0  502    0  0.00000000000E+00  0.00000000000E+00  0.46476748717E+02  0.46476748717E+02  0.00000000000E+00 0. -1.
          2   -1    0    0  501    0 -0.00000000000E+00 -0.00000000000E+00 -0.18173879651E+03  0.18173879651E+03  0.00000000000E+00 0. -1.
          2    1    1    2  501    0 -0.13268523728E+02 -0.35821067727E+02  0.36153390183E+02  0.52595344250E+02  0.00000000000E+00 0. -1.
          2    1    1    2  502    0  0.13268523728E+02  0.35821067727E+02 -0.17141543797E+03  0.17562020097E+03  0.00000000000E+00 0. -1.
</event>
<event>
 4    1  0.6136512E+003  0.2155921E+02  0.7546771E-02  0.1511428E+00
          2   -1    0    0  502    0  0.00000000000E+00  0.00000000000E+00  0.12420180667E+01  0.12420180667E+01  0.00000000000E+00 0.  1.
          2   -1    0    0  501    0 -0.00000000000E+00 -0.00000000000E+00 -0.79267822031E+03  0.79267822031E+03  0.00000000000E+00 0. -1.
          2    1    1    2  501    0 -0.11666778508E+02 -0.18129698496E+02 -0.10730194582E+03  0.10944636708E+03  0.00000000000E+00 0.  1.
          2    1    1    2  502    0  0.11666778508E+02  0.18129698496E+02 -0.68413425642E+03  0.68447387130E+03  0.00000000000E+00 0. -1.
</event>
<event>
 4    1  0.6136512E+003  0.6686641E+02  0.7546771E-02  0.1238133E+00
          2   -1    0    0  501    0  0.00000000000E+00  0.00000000000E+00  0.52975099257E+02  0.52975099257E+02  0.00000000000E+00 0.  1.
          2   -1    0    0  502    0 -0.00000000000E+00 -0.00000000000E+00 -0.16332135981E+03  0.16332135981E+03  0.00000000000E+00 0.  1.
          2    1    1    2  501    0 -0.34165343044E+02  0.57479093050E+02 -0.13035173190E+03  0.14650150447E+03  0.00000000000E+00 0.  1.
          2    1    1    2  502    0  0.34165343044E+02 -0.57479093050E+02  0.20005471347E+02  0.69794954596E+02  0.00000000000E+00 0.  1.
</event>
<event>
 4    1  0.6136512E+003  0.2893363E+02  0.7546771E-02  0.1429095E+00
          2   -1    0    0  501    0  0.00000000000E+00  0.00000000000E+00  0.14440230847E+03  0.14440230847E+03  0.00000000000E+00 0.  1.
          2   -1    0    0  502    0 -0.00000000000E+00 -0.00000000000E+00 -0.81432039686E+01  0.81432039686E+01  0.00000000000E+00 0.  1.
          2    1    1    2  501    0  0.11304183275E+02  0.26634007169E+02  0.27192214624E+02  0.39706062932E+02  0.00000000000E+00 0.  1.
          2    1    1    2  502    0 -0.11304183275E+02 -0.26634007169E+02  0.10906688987E+03  0.11283944950E+03  0.00000000000E+00 0.  1.
</event>
<event>
 4    1  0.6136512E+003  0.3091254E+02  0.7546771E-02  0.1411829E+00
          2   -1    0    0  502    0  0.00000000000E+00  0.00000000000E+00  0.44546099081E+03  0.44546099081E+03  0.00000000000E+00 0.  1.
          2   -1    0    0  501    0 -0.00000000000E+00 -0.00000000000E+00 -0.37049234823E+01  0.37049234823E+01  0.00000000000E+00 0. -1.
          2    1    1    2  501    0  0.30806159913E+02 -0.25623106904E+01  0.36659717491E+03  0.36789818371E+03  0.00000000000E+00 0.  1.
          2    1    1    2  502    0 -0.30806159913E+02  0.25623106904E+01  0.75158892416E+02  0.81267730581E+02  0.00000000000E+00 0. -1.
</event>
<event>
 4    1  0.6136512E+003  0.2203908E+02  0.7546771E-02  0.1504930E+00
          2   -1    0    0  501    0  0.00000000000E+00  0.00000000000E+00  0.13906297787E+01  0.13906297787E+01  0.00000000000E+00 0.  1.
          2   -1    0    0  502    0 -0.00000000000E+00 -0.00000000000E+00 -0.75433391188E+03  0.75433391188E+03  0.00000000000E+00 0.  1.
          2    1    1    2  501    0  0.18347757466E+02  0.12209873187E+02 -0.65336168723E+03  0.65373329083E+03  0.00000000000E+00 0.  1.
          2    1    1    2  502    0 -0.18347757466E+02 -0.12209873187E+02 -0.99581594879E+02  0.10199125083E+03  0.00000000000E+00 0.  1.
</event>
<event>
 4    1  0.6136512E+003  0.3587063E+02  0.7546771E-02  0.1374544E+00
          2   -1    0    0  502    0  0.00000000000E+00  0.00000000000E+00  0.87081138969E+03  0.87081138969E+03  0.00000000000E+00 0.  1.
          2   -1    0    0  501    0 -0.00000000000E+00 -0.00000000000E+00 -0.38980207268E+02  0.38980207268E+02  0.00000000000E+00 0.  1.
          2    1    1    2  501    0 -0.19875747465E+02  0.29860617797E+02  0.86210642570E+03  0.86285235763E+03  0.00000000000E+00 0.  1.
          2    1    1    2  502    0  0.19875747465E+02 -0.29860617797E+02 -0.30275243282E+02  0.46939239324E+02  0.00000000000E+00 0.  1.
</event>
<event>
 4    1  0.6136512E+003  0.2478910E+02  0.7546771E-02  0.1471177E+00
          2   -1    0    0  502    0  0.00000000000E+00  0.00000000000E+00  0.63323504801E+03  0.63323504801E+03  0.00000000000E+00 0.  1.
          2   -1    0    0  501    0 -0.00000000000E+00 -0.00000000000E+00 -0.10074897692E+02  0.10074897692E+02  0.00000000000E+00 0.  1.
          2    1    1    2  501    0  0.24357839238E+02 -0.46038368975E+01  0.61735201474E+03  0.61784950412E+03  0.00000000000E+00 0.  1.
          2    1    1    2  502    0 -0.24357839238E+02  0.46038368975E+01  0.58081355831E+01  0.25460441580E+02  0.00000000000E+00 0.  1.
</event>
<event>
 4    1  0.6136512E+003  0.2462557E+02  0.7546771E-02  0.1473036E+00
          2   -1    0    0  502    0  0.00000000000E+00  0.00000000000E+00  0.41932943221E+03  0.41932943221E+03  0.00000000000E+00 0. -1.
          2   -1    0    0  501    0 -0.00000000000E+00 -0.00000000000E+00 -0.17255017074E+01  0.17255017074E+01  0.00000000000E+00 0. -1.
          2    1    1    2  501    0 -0.18577201270E+02 -0.16164963686E+02  0.29350853491E+03  0.29453977410E+03  0.00000000000E+00 0. -1.
          2    1    1    2  502    0  0.18577201270E+02  0.16164963686E+02  0.12409539559E+03  0.12651515982E+03  0.00000000000E+00 0. -1.
</event>
<event>
 4    1  0.6136512E+003  0.2014996E+02  0.7546771E-02  0.1531756E+00
          2   -1    0    0  502    0  0.00000000000E+00  0.00000000000E+00  0.56203681133E+03  0.56203681133E+03  0.00000000000E+00 0.  1.
          2   -1    0    0  501    0 -0.00000000000E+00 -0.00000000000E+00 -0.80135435561E+01  0.80135435561E+01  0.00000000000E+00 0.  1.
          2    1    1    2  501    0 -0.20040989359E+02  0.20927536037E+01  0.54888612290E+03  0.54925585730E+03  0.00000000000E+00 0.  1.
          2    1    1    2  502    0  0.20040989359E+02 -0.20927536037E+01  0.51371448730E+01  0.20794497580E+02  0.00000000000E+00 0.  1.
</event>
<event>
 4    1  0.6136512E+003  0.3262288E+02  0.7546771E-02  0.1398092E+00
          2   -1    0    0  502    0  0.00000000000E+00  0.00000000000E+00  0.16054530872E+03  0.16054530872E+03  0.00000000000E+00 0.  1.
          2   -1    0    0  501    0 -0.00000000000E+00 -0.00000000000E+00 -0.33257428621E+02  0.33257428621E+02  0.00000000000E+00 0.  1.
          2    1    1    2  501    0  0.16013307583E+02 -0.28422279423E+02  0.15035180496E+03  0.15385030791E+03  0.00000000000E+00 0.  1.
          2    1    1    2  502    0 -0.16013307583E+02  0.28422279423E+02 -0.23063924866E+02  0.39952429433E+02  0.00000000000E+00 0.  1.
</event>
<event>
 4    1  0.6136512E+003  0.2790014E+02  0.7546771E-02  0.1438770E+00
          2   -1    0    0  502    0  0.00000000000E+00  0.00000000000E+00  0.48627377548E+03  0.48627377548E+03  0.00000000000E+00 0.  1.
          2   -1    0    0  501    0 -0.00000000000E+00 -0.00000000000E+00 -0.34298501635E+01  0.34298501635E+01  0.00000000000E+00 0. -1.
          2    1    1    2  501    0 -0.26605071931E+02  0.84016706657E+01  0.42022742789E+03  0.42115259595E+03  0.00000000000E+00 0.  1.
          2    1    1    2  502    0  0.26605071931E+02 -0.84016706657E+01  0.62616497429E+02  0.68551029698E+02  0.00000000000E+00 0. -1.
</event>
<event>
 4    1  0.6136512E+003  0.3649988E+02  0.7546771E-02  0.1370314E+00
          2   -1    0    0  502    0  0.00000000000E+00  0.00000000000E+00  0.43651410223E+01  0.43651410223E+01  0.00000000000E+00 0. -1.
          2   -1    0    0  501    0 -0.00000000000E+00 -0.00000000000E+00 -0.48374167400E+03  0.48374167400E+03  0.00000000000E+00 0. -1.
          2    1    1    2  501    0  0.19554436859E+02 -0.30819885559E+02 -0.91420126341E+02  0.98437192396E+02  0.00000000000E+00 0. -1.
          2    1    1    2  502    0 -0.19554436859E+02  0.30819885559E+02 -0.38795640663E+03  0.38966962262E+03  0.00000000000E+00 0. -1.
</event>
<event>
 4    1  0.6136512E+003  0.4696366E+02  0.7546771E-02  0.1311902E+00
          2   -1    0    0  501    0  0.00000000000E+00  0.00000000000E+00  0.26912320101E+03  0.26912320101E+03  0.00000000000E+00 0. -1.
          2   -1    0    0  502    0 -0.00000000000E+00 -0.00000000000E+00 -0.33955052081E+03  0.33955052081E+03  0.00000000000E+00 0.  1.
          2    1    1    2  501    0 -0.42962993517E+02  0.18967521847E+02 -0.33585532420E+03  0.33912296367E+03  0.00000000000E+00 0.  1.
          2    1    1    2  502    0  0.42962993517E+02 -0.18967521847E+02  0.26542800440E+03  0.26955075814E+03  0.00000000000E+00 0. -1.
</event>
<event>
 4    1  0.6136512E+003  0.5735470E+02  0.7546771E-02  0.1269095E+00
          2   -1    0    0  502    0  0.00000000000E+00  0.00000000000E+00  0.32684754297E+03  0.32684754297E+03  0.00000000000E+00 0. -1.
          2   -1    0    0  501    0 -0.00000000000E+00 -0.00000000000E+00 -0.19177386965E+02  0.19177386965E+02  0.00000000000E+00 0. -1.
          2    1    1    2  501    0 -0.13815258101E+02  0.55665974668E+02  0.27309933458E+03  0.27905699891E+03  0.00000000000E+00 0. -1.
          2    1    1    2  502    0  0.13815258101E+02 -0.55665974668E+02  0.34570821427E+02  0.66967931028E+02  0.00000000000E+00 0. -1.
</event>
<event>
 4    1  0.6136512E+003  0.2357529E+02  0.7546771E-02  0.1485398E+00
          2   -1    0    0  502    0  0.00000000000E+00  0.00000000000E+00  0.19784038466E+02  0.19784038466E+02  0.00000000000E+00 0. -1.
          2   -1    0    0  501    0 -0.00000000000E+00 -0.00000000000E+00 -0.79157838236E+02  0.79157838236E+02  0.00000000000E+00 0.  1.
          2    1    1    2  501    0  0.97647754530E+01 -0.21457945561E+02  0.10047246882E+02  0.25626966993E+02  0.00000000000E+00 0. -1.
          2    1    1    2  502    0 -0.97647754530E+01  0.21457945561E+02 -0.69421046652E+02  0.73314909709E+02  0.00000000000E+00 0.  1.
</event>
<event>
 4    1  0.6136512E+003  0.2305015E+02  0.7546771E-02  0.1491869E+00
          2   -1    0    0  501    0  0.00000000000E+00  0.00000000000E+00  0.16503472827E+03  0.16503472827E+03  0.00000000000E+00 0.  1.
          2   -1    0    0  502    0 -0.00000000000E+00 -0.00000000000E+00 -0.37212380911E+02  0.37212380911E+02  0.00000000000E+00 0. -1.
          2    1    1    2  501    0 -0.10886776871E+02  0.20317176400E+02 -0.32739157977E+02  0.40039505898E+02  0.00000000000E+00 0. -1.
          2    1    1    2  502    0  0.10886776871E+02 -0.20317176400E+02  0.16056150534E+03  0.16220760329E+03  0.00000000000E+00 0.  1.
</event>
<event>
 4    1  0.6136512E+003  0.4057299E+02  0.7546771E-02  0.1345160E+00
          2   -1    0    0  501    0  0.00000000000E+00  0.00000000000E+00  0.16753851688E+04  0.16753851688E+04  0.00000000000E+00 0. -1.
          2   -1    0    0  502    0 -0.00000000000E+00 -0.00000000000E+00 -0.54739196924E+02  0.54739196924E+02  0.00000000000E+00 0. -1.
          2    1    1    2  501    0 -0.21702652332E+02  0.34280647293E+02 -0.46940168507E+02  0.62044720295E+02  0.00000000000E+00 0. -1.
          2    1    1    2  502    0  0.21702652332E+02 -0.34280647293E+02  0.16675861404E+04  0.16680796455E+04  0.00000000000E+00 0. -1.
</event>
<event>
 4    1  0.6136512E+003  0.2127569E+02  0.7546771E-02  0.1515365E+00
          2   -1    0    0  502    0  0.00000000000E+00  0.00000000000E+00  0.11374636330E+04  0.11374636330E+04  0.00000000000E+00 0. -1.
          2   -1    0    0  501    0 -0.00000000000E+00 -0.00000000000E+00 -0.11493958210E+03  0.11493958210E+03  0.00000000000E+00 0.  1.
          2    1    1    2  501    0 -0.16017148652E+02 -0.14003778641E+02  0.11363786558E+04  0.11365778038E+04  0.00000000000E+00 0. -1.
          2    1    1    2  502    0  0.16017148652E+02  0.14003778641E+02 -0.11385460482E+03  0.11582541131E+03  0.00000000000E+00 0.  1.
</event>
<event>
 4    1  0.6136512E+003  0.2619399E+02  0.7546771E-02  0.1455877E+00
          2   -1    0    0  501    0  0.00000000000E+00  0.00000000000E+00  0.11716968350E+03  0.11716968350E+03  0.00000000000E+00 0. -1.
          2   -1    0    0  502    0 -0.00000000000E+00 -0.00000000000E+00 -0.62426206450E+03  0.62426206450E+03  0.00000000000E+00 0.  1.
          2    1    1    2  501    0 -0.22571276243E+02 -0.13291440754E+02 -0.62251923767E+03  0.62307008127E+03  0.00000000000E+00 0.  1.
          2    1    1    2  502    0  0.22571276243E+02  0.13291440754E+02  0.11542685667E+03  0.11836166672E+03  0.00000000000E+00 0. -1.
</event>
<event>
 4    1  0.6136512E+003  0.2054757E+02  0.7546771E-02  0.1525823E+00
          2   -1    0    0  501    0  0.00000000000E+00  0.00000000000E+00  0.11593517355E+02  0.11593517355E+02  0.00000000000E+00 0.  1.
          2   -1    0    0  502    0 -0.00000000000E+00 -0.00000000000E+00 -0.59641678433E+02  0.59641678433E+02  0.00000000000E+00 0. -1.
          2    1    1    2  501    0 -0.16380666715E+02 -0.12404689221E+02 -0.17979738079E+01  0.20626082190E+02  0.00000000000E+00 0.  1.
          2    1    1    2  502    0  0.16380666715E+02  0.12404689221E+02 -0.46250187270E+02  0.50609113598E+02  0.00000000000E+00 0. -1.
</event>
<event>
 4    1  0.6136512E+003  0.2519197E+02  0.7546771E-02  0.1466667E+00
          2   -1    0    0  502    0  0.00000000000E+00  0.00000000000E+00  0.54583680214E+02  0.54583680214E+02  0.00000000000E+00 0. -1.
          2   -1    0    0  501    0 -0.00000000000E+00 -0.00000000000E+00 -0.60868160557E+02  0.60868160557E+02  0.00000000000E+00 0.  1.
          2    1    1    2  501    0  0.16414377401E+02  0.19110304061E+02  0.48778471889E+02  0.54899679659E+02  0.00000000000E+00 0. -1.
          2    1    1    2  502    0 -0.16414377401E+02 -0.19110304061E+02 -0.55062952232E+02  0.60552161112E+02  0.00000000000E+00 0.  1.
</event>
<event>
 4    1  0.6136512E+003  0.2132316E+02  0.7546771E-02  0.1514701E+00
          2   -1    0    0  501    0  0.00000000000E+00  0.00000000000E+00  0.27299152847E+01  0.27299152847E+01  0.00000000000E+00 0. -1.
          2   -1    0    0  502    0 -0.00000000000E+00 -0.00000000000E+00 -0.19341243170E+03  0.19341243170E+03  0.00000000000E+00 0. -1.
          2    1    1    2  501    0  0.19432836561E+02  0.87773477468E+01 -0.13188756310E+03  0.13360017317E+03  0.00000000000E+00 0. -1.
          2    1    1    2  502    0 -0.19432836561E+02 -0.87773477468E+01 -0.58794953319E+02  0.62542173819E+02  0.00000000000E+00 0. -1.
</event>
<event>
 4    1  0.6136512E+003  0.3107486E+02  0.7546771E-02  0.1410480E+00
          2   -1    0    0  501    0  0.00000000000E+00  0.00000000000E+00  0.15335579454E+01  0.15335579454E+01  0.00000000000E+00 0. -1.
          2   -1    0    0  502    0 -0.00000000000E+00 -0.00000000000E+00 -0.94965579650E+03  0.94965579650E+03  0.00000000000E+00 0.  1.
          2    1    1    2  501    0  0.73175765608E+01 -0.30200992949E+02 -0.75012789854E+03  0.75077127746E+03  0.00000000000E+00 0.  1.
          2    1    1    2  502    0 -0.73175765608E+01  0.30200992949E+02 -0.19799434002E+03  0.20041807698E+03  0.00000000000E+00 0. -1.
</event>
<event>
 4    1  0.6136512E+003  0.2142453E+02  0.7546771E-02  0.1513289E+00
          2   -1    0    0  502    0  0.00000000000E+00  0.00000000000E+00  0.26879907033E+03  0.26879907033E+03  0.00000000000E+00 0. -1.
          2   -1    0    0  501    0 -0.00000000000E+00 -0.00000000000E+00 -0.15071324374E+04  0.15071324374E+04  0.00000000000E+00 0.  1.
          2    1    1    2  501    0 -0.19861832959E+02  0.80323100997E+01  0.26829587958E+03  0.26914993853E+03  0.00000000000E+00 0. -1.
          2    1    1    2  502    0  0.19861832959E+02 -0.80323100997E+01 -0.15066292466E+04  0.15067815692E+04  0.00000000000E+00 0.  1.
</event>
<event>
 4    1  0.6136512E+003  0.2162402E+02  0.7546771E-02  0.1510539E+00
          2   -1    0    0  502    0  0.00000000000E+00  0.00000000000E+00  0.12586144762E+04  0.12586144762E+04  0.00000000000E+00 0. -1.
          2   -1    0    0  501    0 -0.00000000000E+00 -0.00000000000E+00 -0.29997663938E+02  0.29997663938E+02  0.00000000000E+00 0. -1.
          2    1    1    2  501    0 -0.21401322075E+02  0.30954029849E+01  0.12546122118E+04  0.12547985496E+04  0.00000000000E+00 0. -1.
          2    1    1    2  502    0  0.21401322075E+02 -0.30954029849E+01 -0.25995399546E+02  0.33813590519E+02  0.00000000000E+00 0. -1.
</event>
<event>
 4    1  0.6136512E+003  0.4984848E+02  0.7546771E-02  0.1298831E+00
          2   -1    0    0  501    0  0.00000000000E+00  0.00000000000E+00  0.58773666801E+01  0.58773666801E+01  0.00000000000E+00 0.  1.
          2   -1    0    0  502    0 -0.00000000000E+00 -0.00000000000E+00 -0.13238237904E+04  0.13238237904E+04  0.00000000000E+00 0.  1.
          2    1    1    2  501    0  0.49493470086E+02 -0.59386097840E+01 -0.12074779307E+04  0.12085064435E+04  0.00000000000E+00 0.  1.
          2    1    1    2  502    0 -0.49493470086E+02  0.59386097840E+01 -0.11046849297E+03  0.12119471361E+03  0.00000000000E+00 0.  1.
</event>
<event>
 4    1  0.6136512E+003  0.3130056E+02  0.7546771E-02  0.1408621E+00
          2   -1    0    0  501    0  0.00000000000E+00  0.00000000000E+00  0.12514369289E+04  0.12514369289E+04  0.00000000000E+00 0. -1.
          2   -1    0    0  502    0 -0.00000000000E+00 -0.00000000000E+00 -0.31932292108E+01  0.31932292108E+01  0.00000000000E+00 0. -1.
          2    1    1    2  501    0  0.31134598375E+02  0.32189955448E+01  0.79104096328E+02  0.85071635721E+02  0.00000000000E+00 0. -1.
          2    1    1    2  502    0 -0.31134598375E+02 -0.32189955448E+01  0.11691396034E+04  0.11695585224E+04  0.00000000000E+00 0. -1.
</event>
<event>
 4    1  0.6136512E+003  0.2420941E+02  0.7546771E-02  0.1477845E+00
          2   -1    0    0  502    0  0.00000000000E+00  0.00000000000E+00  0.19316834788E+01  0.19316834788E+01  0.00000000000E+00 0.  1.
          2   -1    0    0  501    0 -0.00000000000E+00 -0.00000000000E+00 -0.17368119120E+04  0.17368119120E+04  0.00000000000E+00 0.  1.
          2    1    1    2  501    0 -0.24083815275E+02  0.24627516803E+01 -0.77647823337E+02  0.81334370183E+02  0.00000000000E+00 0.  1.
          2    1    1    2  502    0  0.24083815275E+02 -0.24627516803E+01 -0.16572324052E+04  0.16574092253E+04  0.00000000000E+00 0.  1.
</event>
<event>
 4    1  0.6136512E+003  0.3141290E+02  0.7546771E-02  0.1407703E+00
          2   -1    0    0  502    0  0.00000000000E+00  0.00000000000E+00  0.24186548442E+02  0.24186548442E+02  0.00000000000E+00 0.  1.
          2   -1    0    0  501    0 -0.00000000000E+00 -0.00000000000E+00 -0.13488050491E+03  0.13488050491E+03  0.00000000000E+00 0.  1.
          2    1    1    2  501    0 -0.27068965401E+02  0.15938685990E+02  0.11077681878E+02  0.33308942264E+02  0.00000000000E+00 0.  1.
          2    1    1    2  502    0  0.27068965401E+02 -0.15938685990E+02 -0.12177163834E+03  0.12575811109E+03  0.00000000000E+00 0.  1.
</event>
<event>
 4    1  0.6136512E+003  0.2301529E+02  0.7546771E-02  0.1492306E+00
          2   -1    0    0  501    0  0.00000000000E+00  0.00000000000E+00  0.12160330234E+04  0.12160330234E+04  0.00000000000E+00 0. -1.
          2   -1    0    0  502    0 -0.00000000000E+00 -0.00000000000E+00 -0.26631788495E+03  0.26631788495E+03  0.00000000000E+00 0.  1.
          2    1    1    2  501    0 -0.14371606530E+02 -0.17976664219E+02 -0.26571148955E+03  0.26670639140E+03  0.00000000000E+00 0.  1.
          2    1    1    2  502    0  0.14371606530E+02  0.17976664219E+02  0.12154266280E+04  0.12156445169E+04  0.00000000000E+00 0. -1.
</event>
<event>
 4    1  0.6136512E+003  0.4407787E+02  0.7546771E-02  0.1326115E+00
          2   -1    0    0  502    0  0.00000000000E+00  0.00000000000E+00  0.12544783647E+04  0.12544783647E+04  0.00000000000E+00 0.  1.
          2   -1    0    0  501    0 -0.00000000000E+00 -0.00000000000E+00 -0.81533893567E+01  0.81533893567E+01  0.00000000000E+00 0.  1.
          2    1    1    2  501    0 -0.41089741164E+02 -0.15952809281E+02  0.11913642186E+04  0.11921793323E+04  0.00000000000E+00 0.  1.
          2    1    1    2  502    0  0.41089741164E+02  0.15952809281E+02  0.54960756754E+02  0.70452421788E+02  0.00000000000E+00 0.  1.
</event>
<event>
 4    1  0.6136512E+003  0.4268630E+02  0.7546771E-02  0.1333425E+00
          2   -1    0    0  502    0  0.00000000000E+00  0.00000000000E+00  0.91948461065E+01  0.91948461065E+01  0.00000000000E+00 0.  1.
          2   -1    0    0  501    0 -0.00000000000E+00 -0.00000000000E+00 -0.95293662191E+03  0.95293662191E+03  0.00000000000E+00 0.  1.
          2    1    1    2  501    0  0.38122701224E+02  0.19203639020E+02 -0.43737139249E+02  0.61115116378E+02  0.00000000000E+00 0.  1.
          2    1    1    2  502    0 -0.38122701224E+02 -0.19203639020E+02 -0.90000463655E+03  0.90101635164E+03  0.00000000000E+00 0.  1.
</event>
<event>
 4    1  0.6136512E+003  0.2181122E+02  0.7546771E-02  0.1507991E+00
          2   -1    0    0  502    0  0.00000000000E+00  0.00000000000E+00  0.50132598463E+00  0.50132598463E+00  0.00000000000E+00 0.  1.
          2   -1    0    0  501    0 -0.00000000000E+00 -0.00000000000E+00 -0.16371394915E+04  0.16371394915E+04  0.00000000000E+00 0. -1.
          2    1    1    2  501    0 -0.71156495997E+01  0.20617880492E+02 -0.28743189548E+03  0.28825825921E+03  0.00000000000E+00 0.  1.
          2    1    1    2  502    0  0.71156495997E+01 -0.20617880492E+02 -0.13492062700E+04  0.13493825583E+04  0.00000000000E+00 0. -1.
</event>
<event>
 4    1  0.6136512E+003  0.2555235E+02  0.7546771E-02  0.1462718E+00
          2   -1    0    0  501    0  0.00000000000E+00  0.00000000000E+00  0.13293374764E+04  0.13293374764E+04  0.00000000000E+00 0. -1.
          2   -1    0    0  502    0 -0.00000000000E+00 -0.00000000000E+00 -0.67792317484E+00  0.67792317484E+00  0.00000000000E+00 0. -1.
          2    1    1    2  501    0  0.25115637183E+02 -0.47039785091E+01  0.31528795569E+03  0.31632169962E+03  0.00000000000E+00 0. -1.
          2    1    1    2  502    0 -0.25115637183E+02  0.47039785091E+01  0.10133715975E+04  0.10136936999E+04  0.00000000000E+00 0. -1.
</event>
<event>
 4    1  0.6136512E+003  0.2842999E+02  0.7546771E-02  0.1433749E+00
          2   -1    0    0  501    0  0.00000000000E+00  0.00000000000E+00  0.12938062484E+04  0.12938062484E+04  0.00000000000E+00 0. -1.
          2   -1    0    0  502    0 -0.00000000000E+00 -0.00000000000E+00 -0.29680771198E+01  0.29680771198E+01  0.00000000000E+00 0.  1.
          2    1    1    2  501    0 -0.20864574325E+02  0.19311489088E+02  0.69294723322E+02  0.74900085133E+02  0.00000000000E+00 0.  1.
          2    1    1    2  502    0  0.20864574325E+02 -0.19311489088E+02  0.12215434480E+04  0.12218742404E+04  0.00000000000E+00 0. -1.
</event>
<event>
 4    1  0.6136512E+003  0.2533614E+02  0.7546771E-02  0.1465078E+00
          2   -1    0    0  501    0  0.00000000000E+00  0.00000000000E+00  0.10129458979E+04  0.10129458979E+04  0.00000000000E+00 0. -1.
          2   -1    0    0  502    0 -0.00000000000E+00 -0.00000000000E+00 -0.22689944114E+03  0.22689944114E+03  0.00000000000E+00 0. -1.
          2    1    1    2  501    0 -0.22915855663E+02  0.10806645415E+02 -0.22603313313E+03  0.22744866959E+03  0.00000000000E+00 0. -1.
          2    1    1    2  502    0  0.22915855663E+02 -0.10806645415E+02  0.10120795899E+04  0.10123966695E+04  0.00000000000E+00 0. -1.
</event>
<event>
 4    1  0.6136512E+003  0.2313919E+02  0.7546771E-02  0.1490758E+00
          2   -1    0    0  502    0  0.00000000000E+00  0.00000000000E+00  0.24453449350E+01  0.24453449350E+01  0.00000000000E+00 0.  1.
          2   -1    0    0  501    0 -0.00000000000E+00 -0.00000000000E+00 -0.10976387210E+04  0.10976387210E+04  0.00000000000E+00 0. -1.
          2    1    1    2  501    0 -0.23077513244E+02  0.16883912745E+01 -0.55463924310E+02  0.60097164513E+02  0.00000000000E+00 0.  1.
          2    1    1    2  502    0  0.23077513244E+02 -0.16883912745E+01 -0.10397294517E+04  0.10399869014E+04  0.00000000000E+00 0. -1.
</event>
<event>
 4    1  0.6136512E+003  0.2424476E+02  0.7546771E-02  0.1477432E+00
          2   -1    0    0  502    0  0.00000000000E+00  0.00000000000E+00  0.99854366741E+02  0.99854366741E+02  0.00000000000E+00 0. -1.
          2   -1    0    0  501    0 -0.00000000000E+00 -0.00000000000E+00 -0.14112576111E+04  0.14112576111E+04  0.00000000000E+00 0. -1.
          2    1    1    2  501    0 -0.21196286016E+02 -0.11769708804E+02  0.98276926857E+02  0.10122333199E+03  0.00000000000E+00 0. -1.
          2    1    1    2  502    0  0.21196286016E+02  0.11769708804E+02 -0.14096801713E+04  0.14098886459E+04  0.00000000000E+00 0. -1.
</event>
<event>
 4    1  0.6136512E+003  0.5632880E+02  0.7546771E-02  0.1272843E+00
          2   -1    0    0  501    0  0.00000000000E+00  0.00000000000E+00  0.20104969010E+04  0.20104969010E+04  0.00000000000E+00 0. -1.
          2   -1    0    0  502    0 -0.00000000000E+00 -0.00000000000E+00 -0.25270683505E+02  0.25270683505E+02  0.00000000000E+00 0. -1.
          2    1    1    2  501    0  0.47933658578E+02 -0.29585432658E+02  0.70256975360E+01  0.56765252365E+02  0.00000000000E+00 0. -1.
          2    1    1    2  502    0 -0.47933658578E+02  0.29585432658E+02  0.19782005199E+04  0.19790023321E+04  0.00000000000E+00 0. -1.
</event>
<event>
 4    1  0.6136512E+003  0.2529944E+02  0.7546771E-02  0.1465481E+00
          2   -1    0    0  502    0  0.00000000000E+00  0.00000000000E+00  0.20583910851E+02  0.20583910851E+02  0.00000000000E+00 0.  1.
          2   -1    0    0  501    0 -0.00000000000E+00 -0.00000000000E+00 -0.65872835225E+03  0.65872835225E+03  0.00000000000E+00 0. -1.
          2    1    1    2  501    0 -0.66283452864E+01  0.24415707032E+02  0.12470276023E+02  0.28205841509E+02  0.00000000000E+00 0.  1.
          2    1    1    2  502    0  0.66283452864E+01 -0.24415707032E+02 -0.65061471742E+03  0.65110642159E+03  0.00000000000E+00 0. -1.
</event>
<event>
 4    1  0.6136512E+003  0.2232025E+02  0.7546771E-02  0.1501215E+00
          2   -1    0    0  502    0  0.00000000000E+00  0.00000000000E+00  0.64635692677E+01  0.64635692677E+01  0.00000000000E+00 0. -1.
          2   -1    0    0  501    0 -0.00000000000E+00 -0.00000000000E+00 -0.10553046053E+03  0.10553046053E+03  0.00000000000E+00 0. -1.
          2    1    1    2  501    0  0.66342047128E+01  0.21311520932E+02 -0.20456937833E+02  0.30276722116E+02  0.00000000000E+00 0. -1.
          2    1    1    2  502    0 -0.66342047128E+01 -0.21311520932E+02 -0.78609953433E+02  0.81717307685E+02  0.00000000000E+00 0. -1.
</event>
<event>
 4    1  0.6136512E+003  0.2851470E+02  0.7546771E-02  0.1432959E+00
          2   -1    0    0  501    0  0.00000000000E+00  0.00000000000E+00  0.73028962047E+03  0.73028962047E+03  0.00000000000E+00 0. -1.
          2   -1    0    0  502    0 -0.00000000000E+00 -0.00000000000E+00 -0.23211127732E+01  0.23211127732E+01  0.00000000000E+00 0. -1.
          2    1    1    2  501    0  0.68994183465E+01  0.27667416331E+02  0.99754896548E+02  0.10375031222E+03  0.00000000000E+00 0. -1.
          2    1    1    2  502    0 -0.68994183465E+01 -0.27667416331E+02  0.62821361115E+03  0.62886042103E+03  0.00000000000E+00 0. -1.
</event>
<event>
 4    1  0.6136512E+003  0.3235607E+02  0.7546771E-02  0.1400169E+00
          2   -1    0    0  501    0  0.00000000000E+00  0.00000000000E+00  0.61746127403E+02  0.61746127403E+02  0.00000000000E+00 0.  1.
          2   -1    0    0  502    0 -0.00000000000E+00 -0.00000000000E+00 -0.24222119585E+02  0.24222119585E+02  0.00000000000E+00 0.  1.
          2    1    1    2  501    0  0.22397162802E+01 -0.32278461272E+02 -0.47818965926E+01  0.32707520941E+02  0.00000000000E+00 0.  1.
          2    1    1    2  502    0 -0.22397162802E+01  0.32278461272E+02  0.42305904410E+02  0.53260726047E+02  0.00000000000E+00 0.  1.
</event>
<event>
 4    1  0.6136512E+003  0.2812001E+02  0.7546771E-02  0.1436671E+00
          2   -1    0    0  501    0  0.00000000000E+00  0.00000000000E+00  0.18744844687E+01  0.18744844687E+01  0.00000000000E+00 0.  1.
          2   -1    0    0  502    0 -0.00000000000E+00 -0.00000000000E+00 -0.71223254253E+03  0.71223254253E+03  0.00000000000E+00 0. -1.
          2    1    1    2  501    0 -0.25039556265E+00  0.28118891889E+02 -0.58316820883E+03  0.58384577978E+03  0.00000000000E+00 0. -1.
          2    1    1    2  502    0  0.25039556265E+00 -0.28118891889E+02 -0.12718984923E+03  0.13026124722E+03  0.00000000000E+00 0.  1.
</event>
<event>
 4    1  0.6136512E+003  0.7056491E+02  0.7546771E-02  0.1227627E+00
          2   -1    0    0  501    0  0.00000000000E+00  0.00000000000E+00  0.74784423609E+02  0.74784423609E+02  0.00000000000E+00 0. -1.
          2   -1    0    0  502    0 -0.00000000000E+00 -0.00000000000E+00 -0.77333622643E+02  0.77333622643E+02  0.00000000000E+00 0.  1.
          2    1    1    2  501    0  0.49789915753E+02  0.50003708110E+02 -0.29632485471E+02  0.76534245476E+02  0.00000000000E+00 0.  1.
          2    1    1    2  502    0 -0.49789915753E+02 -0.50003708110E+02  0.27083286438E+02  0.75583800776E+02  0.00000000000E+00 0. -1.
</event>
<event>
 4    1  0.6136512E+003  0.2113478E+02  0.7546771E-02  0.1517349E+00
          2   -1    0    0  502    0  0.00000000000E+00  0.00000000000E+00  0.11982431293E+02  0.11982431293E+02  0.00000000000E+00 0.  1.
          2   -1    0    0  501    0 -0.00000000000E+00 -0.00000000000E+00 -0.62872532496E+03  0.62872532496E+03  0.00000000000E+00 0. -1.
          2    1    1    2  501    0 -0.19771770772E+02  0.74669851495E+01  0.23402586720E+01  0.21263950652E+02  0.00000000000E+00 0.  1.
          2    1    1    2  502    0  0.19771770772E+02 -0.74669851495E+01 -0.61908315234E+03  0.61944380560E+03  0.00000000000E+00 0. -1.
</event>
<event>
 4    1  0.6136512E+003  0.2555017E+02  0.7546771E-02  0.1462742E+00
          2   -1    0    0  502    0  0.00000000000E+00  0.00000000000E+00  0.41551117909E+01  0.41551117909E+01  0.00000000000E+00 0.  1.
          2   -1    0    0  501    0 -0.00000000000E+00 -0.00000000000E+00 -0.19241749961E+04  0.19241749961E+04  0.00000000000E+00 0. -1.
          2    1    1    2  501    0  0.18058380975E+02 -0.18075012305E+02 -0.36045371987E+02  0.44182349812E+02  0.00000000000E+00 0.  1.
          2    1    1    2  502    0 -0.18058380975E+02  0.18075012305E+02 -0.18839745123E+04  0.18841477581E+04  0.00000000000E+00 0. -1.
</event>
<event>
 4    1  0.6136512E+003  0.3259849E+02  0.7546771E-02  0.1398281E+00
          2   -1    0    0  501    0  0.00000000000E+00  0.00000000000E+00  0.12102648298E+04  0.12102648298E+04  0.00000000000E+00 0. -1.
          2   -1    0    0  502    0 -0.00000000000E+00 -0.00000000000E+00 -0.24054736655E+01  0.24054736655E+01  0.00000000000E+00 0. -1.
          2    1    1    2  501    0  0.31625801579E+02  0.79038097080E+01  0.12076680851E+03  0.12508910253E+03  0.00000000000E+00 0. -1.
          2    1    1    2  502    0 -0.31625801579E+02 -0.79038097080E+01  0.10870925477E+04  0.10875812010E+04  0.00000000000E+00 0. -1.
</event>
<event>
 4    1  0.6136512E+003  0.2621842E+02  0.7546771E-02  0.1455621E+00
          2   -1    0    0  502    0  0.00000000000E+00  0.00000000000E+00  0.70089956351E+02  0.70089956351E+02  0.00000000000E+00 0.  1.
          2   -1    0    0  501    0 -0.00000000000E+00 -0.00000000000E+00 -0.22554482346E+02  0.22554482346E+02  0.00000000000E+00 0. -1.
          2    1    1    2  501    0  0.20892442988E+02 -0.15840190426E+02  0.58591601876E+02  0.64190198762E+02  0.00000000000E+00 0.  1.
          2    1    1    2  502    0 -0.20892442988E+02  0.15840190426E+02 -0.11056127871E+02  0.28454239934E+02  0.00000000000E+00 0. -1.
</event>
<event>
 4    1  0.6136512E+003  0.2602514E+02  0.7546771E-02  0.1457654E+00
          2   -1    0    0  501    0  0.00000000000E+00  0.00000000000E+00  0.65016292628E+01  0.65016292628E+01  0.00000000000E+00 0. -1.
          2   -1    0    0  502    0 -0.00000000000E+00 -0.00000000000E+00 -0.12734215668E+04  0.12734215668E+04  0.00000000000E+00 0. -1.
          2    1    1    2  501    0 -0.23197625633E+02  0.11797371697E+02 -0.12466863764E+04  0.12469579900E+04  0.00000000000E+00 0. -1.
          2    1    1    2  502    0  0.23197625633E+02 -0.11797371697E+02 -0.20233561210E+02  0.32965206100E+02  0.00000000000E+00 0. -1.
</event>
<event>
 4    1  0.6136512E+003  0.3462219E+02  0.7546771E-02  0.1383239E+00
          2   -1    0    0  501    0  0.00000000000E+00  0.00000000000E+00  0.68004850927E+02  0.68004850927E+02  0.00000000000E+00 0. -1.
          2   -1    0    0  502    0 -0.00000000000E+00 -0.00000000000E+00 -0.24923415767E+03  0.24923415767E+03  0.00000000000E+00 0. -1.
          2    1    1    2  501    0 -0.31978882086E+02  0.13268286828E+02 -0.24352227831E+03  0.24597112914E+03  0.00000000000E+00 0. -1.
          2    1    1    2  502    0  0.31978882086E+02 -0.13268286828E+02  0.62292971572E+02  0.71267879456E+02  0.00000000000E+00 0. -1.
</event>
<event>
 4    1  0.6136512E+003  0.2308919E+02  0.7546771E-02  0.1491381E+00
          2   -1    0    0  502    0  0.00000000000E+00  0.00000000000E+00  0.94647837676E+03  0.94647837676E+03  0.00000000000E+00 0.  1.
          2   -1    0    0  501    0 -0.00000000000E+00 -0.00000000000E+00 -0.21411709058E+02  0.21411709058E+02  0.00000000000E+00 0. -1.
          2    1    1    2  501    0 -0.14138462899E+01  0.23045865889E+02  0.94007061560E+03  0.94035412118E+03  0.00000000000E+00 0.  1.
          2    1    1    2  502    0  0.14138462899E+01 -0.23045865889E+02 -0.15003947903E+02  0.27535964638E+02  0.00000000000E+00 0. -1.
</event>
<event>
 4    1  0.6136512E+003  0.3057978E+02  0.7546771E-02  0.1414624E+00
          2   -1    0    0  501    0  0.00000000000E+00  0.00000000000E+00  0.92650104174E+03  0.92650104174E+03  0.00000000000E+00 0.  1.
          2   -1    0    0  502    0 -0.00000000000E+00 -0.00000000000E+00 -0.14474571029E+03  0.14474571029E+03  0.00000000000E+00 0. -1.
          2    1    1    2  501    0  0.39226577619E+01 -0.30327144416E+02 -0.14287500366E+03  0.14611088119E+03  0.00000000000E+00 0. -1.
          2    1    1    2  502    0 -0.39226577619E+01  0.30327144416E+02  0.92463033510E+03  0.92513587084E+03  0.00000000000E+00 0.  1.
</event>
<event>
 4    1  0.6136512E+003  0.2077580E+02  0.7546771E-02  0.1522490E+00
          2   -1    0    0  501    0  0.00000000000E+00  0.00000000000E+00  0.36669959564E+02  0.36669959564E+02  0.00000000000E+00 0. -1.
          2   -1    0    0  502    0 -0.00000000000E+00 -0.00000000000E+00 -0.36082684141E+02  0.36082684141E+02  0.00000000000E+00 0.  1.
          2    1    1    2  501    0 -0.15971140620E+02  0.13287452034E+02 -0.29565614620E+02  0.36135291366E+02  0.00000000000E+00 0.  1.
          2    1    1    2  502    0  0.15971140620E+02 -0.13287452034E+02  0.30152890044E+02  0.36617352338E+02  0.00000000000E+00 0. -1.
</event>
<event>
 4    1  0.6136512E+003  0.2077672E+02  0.7546771E-02  0.1522477E+00
          2   -1    0    0  502    0  0.00000000000E+00  0.00000000000E+00  0.12820540407E+04  0.12820540407E+04  0.00000000000E+00 0.  1.
          2   -1    0    0  501    0 -0.00000000000E+00 -0.00000000000E+00 -0.49013085080E+01  0.49013085080E+01  0.00000000000E+00 0. -1.
          2    1    1    2  501    0  0.20771928837E+02  0.44629311176E+00  0.12595584359E+04  0.12597297828E+04  0.00000000000E+00 0.  1.
          2    1    1    2  502    0 -0.20771928837E+02 -0.44629311176E+00  0.17594296317E+02  0.27225566441E+02  0.00000000000E+00 0. -1.
</event>
<event>
 4    1  0.6136512E+003  0.2922857E+02  0.7546771E-02  0.1426421E+00
          2   -1    0    0  502    0  0.00000000000E+00  0.00000000000E+00  0.22912382519E+03  0.22912382519E+03  0.00000000000E+00 0.  1.
          2   -1    0    0  501    0 -0.00000000000E+00 -0.00000000000E+00 -0.16820395341E+03  0.16820395341E+03  0.00000000000E+00 0.  1.
          2    1    1    2  501    0 -0.18635933989E+02  0.22516907846E+02  0.22690958579E+03  0.22878432922E+03  0.00000000000E+00 0.  1.
          2    1    1    2  502    0  0.18635933989E+02 -0.22516907846E+02 -0.16598971400E+03  0.16854344938E+03  0.00000000000E+00 0.  1.
</event>
<event>
 4    1  0.6136512E+003  0.2171105E+02  0.7546771E-02  0.1509350E+00
          2   -1    0    0  501    0  0.00000000000E+00  0.00000000000E+00  0.11806929421E+03  0.11806929421E+03  0.00000000000E+00 0.  1.
          2   -1    0    0  502    0 -0.00000000000E+00 -0.00000000000E+00 -0.50376399842E+01  0.50376399842E+01  0.00000000000E+00 0. -1.
          2    1    1    2  501    0  0.24393168274E+01 -0.21573576883E+02  0.28476654168E+02  0.35809067549E+02  0.00000000000E+00 0. -1.
          2    1    1    2  502    0 -0.24393168274E+01  0.21573576883E+02  0.84555000057E+02  0.87297866644E+02  0.00000000000E+00 0.  1.
</event>
<event>
 4    1  0.6640808E+003  0.3844329E+02  0.7546771E-02  0.1357858E+00
          2   -1    0    0  502    0  0.00000000000E+00  0.00000000000E+00  0.16128651551E+04  0.16128651551E+04  0.00000000000E+00 0. -1.
          2   -1    0    0  501    0 -0.00000000000E+00 -0.00000000000E+00 -0.39409299385E+03  0.39409299385E+03  0.00000000000E+00 0. -1.
          2    1    1    2  501    0  0.76295027541E+01  0.37678600363E+02  0.16116978746E+04  0.16121562968E+04  0.00000000000E+00 0. -1.
          2    1    1    2  502    0 -0.76295027541E+01 -0.37678600363E+02 -0.39292571337E+03  0.39480185216E+03  0.00000000000E+00 0. -1.
</event>
<event>
 4    1  0.6136512E+003  0.3261563E+02  0.7546771E-02  0.1398148E+00
          2   -1    0    0  501    0  0.00000000000E+00  0.00000000000E+00  0.39047006230E+03  0.39047006230E+03  0.00000000000E+00 0.  1.
          2   -1    0    0  502    0 -0.00000000000E+00 -0.00000000000E+00 -0.44379865256E+02  0.44379865256E+02  0.00000000000E+00 0. -1.
          2    1    1    2  501    0 -0.32608633424E+02 -0.67557316981E+00 -0.37600622761E+02  0.49775357406E+02  0.00000000000E+00 0. -1.
          2    1    1    2  502    0  0.32608633424E+02  0.67557316981E+00  0.38369081980E+03  0.38507457015E+03  0.00000000000E+00 0.  1.
</event>
<event>
 4    1  0.2827698E+004  0.2385802E+02  0.7546771E-02  0.1481996E+00
          2   -1    0    0  502    0  0.00000000000E+00  0.00000000000E+00  0.12646933739E+04  0.12646933739E+04  0.00000000000E+00 0. -1.
          2   -1    0    0  501    0 -0.00000000000E+00 -0.00000000000E+00 -0.12197996110E+04  0.12197996110E+04  0.00000000000E+00 0.  1.
          2    1    1    2  501    0  0.22131817126E+02  0.89099936269E+01  0.12644641747E+04  0.12646892324E+04  0.00000000000E+00 0. -1.
          2    1    1    2  502    0 -0.22131817126E+02 -0.89099936269E+01 -0.12195704118E+04  0.12198037525E+04  0.00000000000E+00 0.  1.
</event>
<event>
 4    1  0.6136512E+003  0.3157622E+02  0.7546771E-02  0.1406376E+00
          2   -1    0    0  502    0  0.00000000000E+00  0.00000000000E+00  0.12858953100E+04  0.12858953100E+04  0.00000000000E+00 0.  1.
          2   -1    0    0  501    0 -0.00000000000E+00 -0.00000000000E+00 -0.30380001536E+01  0.30380001536E+01  0.00000000000E+00 0.  1.
          2    1    1    2  501    0  0.12672781176E+02 -0.28921589292E+02  0.11976048111E+04  0.11980210104E+04  0.00000000000E+00 0.  1.
          2    1    1    2  502    0 -0.12672781176E+02  0.28921589292E+02  0.85252498731E+02  0.90912299771E+02  0.00000000000E+00 0.  1.
</event>
<event>
 4    1  0.6136512E+003  0.2100868E+02  0.7546771E-02  0.1519141E+00
          2   -1    0    0  502    0  0.00000000000E+00  0.00000000000E+00  0.52897329648E+02  0.52897329648E+02  0.00000000000E+00 0. -1.
          2   -1    0    0  501    0 -0.00000000000E+00 -0.00000000000E+00 -0.38459579035E+02  0.38459579035E+02  0.00000000000E+00 0.  1.
          2    1    1    2  501    0 -0.12560809597E+02 -0.16840153256E+02  0.47639795225E+02  0.52066445898E+02  0.00000000000E+00 0. -1.
          2    1    1    2  502    0  0.12560809597E+02  0.16840153256E+02 -0.33202044612E+02  0.39290462785E+02  0.00000000000E+00 0.  1.
</event>
<event>
 4    1  0.6136512E+003  0.6143500E+02  0.7546771E-02  0.1255033E+00
          2   -1    0    0  501    0  0.00000000000E+00  0.00000000000E+00  0.78403794394E+02  0.78403794394E+02  0.00000000000E+00 0.  1.
          2   -1    0    0  502    0 -0.00000000000E+00 -0.00000000000E+00 -0.71633836070E+03  0.71633836070E+03  0.00000000000E+00 0. -1.
          2    1    1    2  501    0 -0.52304009145E+02 -0.32226536746E+02 -0.70275428817E+03  0.70543451049E+03  0.00000000000E+00 0. -1.
          2    1    1    2  502    0  0.52304009145E+02  0.32226536746E+02  0.64819721863E+02  0.89307644609E+02  0.00000000000E+00 0.  1.
</event>
<event>
 4    1  0.6136512E+003  0.4920049E+02  0.7546771E-02  0.1301677E+00
          2   -1    0    0  502    0  0.00000000000E+00  0.00000000000E+00  0.78359971857E+01  0.78359971857E+01  0.00000000000E+00 0.  1.
          2   -1    0    0  501    0 -0.00000000000E+00 -0.00000000000E+00 -0.65682002272E+03  0.65682002272E+03  0.00000000000E+00 0.  1.
          2    1    1    2  501    0  0.49110627764E+02  0.29722783953E+01 -0.82627793302E+02  0.96166732419E+02  0.00000000000E+00 0.  1.
          2    1    1    2  502    0 -0.49110627764E+02 -0.29722783953E+01 -0.56635623223E+03  0.56848928749E+03  0.00000000000E+00 0.  1.
</event>
<event>
 4    1  0.6136512E+003  0.2645716E+02  0.7546771E-02  0.1453139E+00
          2   -1    0    0  502    0  0.00000000000E+00  0.00000000000E+00  0.17021583110E+02  0.17021583110E+02  0.00000000000E+00 0. -1.
          2   -1    0    0  501    0 -0.00000000000E+00 -0.00000000000E+00 -0.29841734053E+03  0.29841734053E+03  0.00000000000E+00 0. -1.
          2    1    1    2  501    0 -0.12620545556E+02  0.23253029590E+02  0.57517338312E+01  0.27075154613E+02  0.00000000000E+00 0. -1.
          2    1    1    2  502    0  0.12620545556E+02 -0.23253029590E+02 -0.28714749125E+03  0.28836376902E+03  0.00000000000E+00 0. -1.
</event>
<event>
 4    1  0.6136512E+003  0.3086609E+02  0.7546771E-02  0.1412216E+00
          2   -1    0    0  502    0  0.00000000000E+00  0.00000000000E+00  0.10647550728E+04  0.10647550728E+04  0.00000000000E+00 0. -1.
          2   -1    0    0  501    0 -0.00000000000E+00 -0.00000000000E+00 -0.61001606191E+02  0.61001606191E+02  0.00000000000E+00 0.  1.
          2    1    1    2  501    0  0.12196536242E+02  0.28354189210E+02  0.10606116601E+04  0.10610607000E+04  0.00000000000E+00 0. -1.
          2    1    1    2  502    0 -0.12196536242E+02 -0.28354189210E+02 -0.56858193445E+02  0.64695979039E+02  0.00000000000E+00 0.  1.
</event>
<event>
 4    1  0.6136512E+003  0.5848305E+02  0.7546771E-02  0.1265076E+00
          2   -1    0    0  502    0  0.00000000000E+00  0.00000000000E+00  0.63918799098E+01  0.63918799098E+01  0.00000000000E+00 0. -1.
          2   -1    0    0  501    0 -0.00000000000E+00 -0.00000000000E+00 -0.61393386352E+03  0.61393386352E+03  0.00000000000E+00 0. -1.
          2    1    1    2  501    0 -0.44530306970E+02 -0.37911985882E+02 -0.41491792853E+03  0.41901927679E+03  0.00000000000E+00 0. -1.
          2    1    1    2  502    0  0.44530306970E+02  0.37911985882E+02 -0.19262405509E+03  0.20130646664E+03  0.00000000000E+00 0. -1.
</event>
<event>
 4    1  0.6136512E+003  0.2286971E+02  0.7546771E-02  0.1494141E+00
          2   -1    0    0  502    0  0.00000000000E+00  0.00000000000E+00  0.67127368521E+01  0.67127368521E+01  0.00000000000E+00 0. -1.
          2   -1    0    0  501    0 -0.00000000000E+00 -0.00000000000E+00 -0.84957672092E+02  0.84957672092E+02  0.00000000000E+00 0. -1.
          2    1    1    2  501    0  0.98495106952E+01  0.20640027962E+02 -0.52319104980E+02  0.57099145012E+02  0.00000000000E+00 0. -1.
          2    1    1    2  502    0 -0.98495106952E+01 -0.20640027962E+02 -0.25925830260E+02  0.34571263932E+02  0.00000000000E+00 0. -1.
</event>
<event>
 4    1  0.6136512E+003  0.2125293E+02  0.7546771E-02  0.1515684E+00
          2   -1    0    0  502    0  0.00000000000E+00  0.00000000000E+00  0.11933556188E+04  0.11933556188E+04  0.00000000000E+00 0.  1.
          2   -1    0    0  501    0 -0.00000000000E+00 -0.00000000000E+00 -0.74898028636E+01  0.74898028636E+01  0.00000000000E+00 0. -1.
          2    1    1    2  501    0 -0.15940652584E+02 -0.14056404546E+02  0.11779875893E+04  0.11781792934E+04  0.00000000000E+00 0.  1.
          2    1    1    2  502    0  0.15940652584E+02  0.14056404546E+02  0.78782266109E+01  0.22666128212E+02  0.00000000000E+00 0. -1.
</event>
<event>
 4    1  0.6136512E+003  0.2962814E+02  0.7546771E-02  0.1422856E+00
          2   -1    0    0  502    0  0.00000000000E+00  0.00000000000E+00  0.14285670634E+03  0.14285670634E+03  0.00000000000E+00 0. -1.
          2   -1    0    0  501    0 -0.00000000000E+00 -0.00000000000E+00 -0.10943354759E+03  0.10943354759E+03  0.00000000000E+00 0.  1.
          2    1    1    2  501    0 -0.28738928666E+02  0.72042106159E+01  0.13926395472E+03  0.14238074223E+03  0.00000000000E+00 0. -1.
          2    1    1    2  502    0  0.28738928666E+02 -0.72042106159E+01 -0.10584079598E+03  0.10990951171E+03  0.00000000000E+00 0.  1.
</event>
<event>
 4    1  0.6136512E+003  0.2031258E+02  0.7546771E-02  0.1529310E+00
          2   -1    0    0  502    0  0.00000000000E+00  0.00000000000E+00  0.50996069223E+00  0.50996069223E+00  0.00000000000E+00 0. -1.
          2   -1    0    0  501    0 -0.00000000000E+00 -0.00000000000E+00 -0.93855134359E+03  0.93855134359E+03  0.00000000000E+00 0. -1.
          2    1    1    2  501    0  0.20269325970E+02 -0.13249395055E+01 -0.29463331686E+03  0.29533268096E+03  0.00000000000E+00 0. -1.
          2    1    1    2  502    0 -0.20269325970E+02  0.13249395055E+01 -0.64340806604E+03  0.64372862332E+03  0.00000000000E+00 0. -1.
</event>
<event>
 4    1  0.6136512E+003  0.2830977E+02  0.7546771E-02  0.1434877E+00
          2   -1    0    0  501    0  0.00000000000E+00  0.00000000000E+00  0.21892179878E+03  0.21892179878E+03  0.00000000000E+00 0. -1.
          2   -1    0    0  502    0 -0.00000000000E+00 -0.00000000000E+00 -0.26137097261E+03  0.26137097261E+03  0.00000000000E+00 0. -1.
          2    1    1    2  501    0  0.16699455786E+02 -0.22859820199E+02 -0.25968324940E+03  0.26122180848E+03  0.00000000000E+00 0. -1.
          2    1    1    2  502    0 -0.16699455786E+02  0.22859820199E+02  0.21723407557E+03  0.21907096291E+03  0.00000000000E+00 0. -1.
</event>
<event>
 4    1  0.6136512E+003  0.2612918E+02  0.7546771E-02  0.1456557E+00
          2   -1    0    0  501    0  0.00000000000E+00  0.00000000000E+00  0.38327671944E+03  0.38327671944E+03  0.00000000000E+00 0.  1.
          2   -1    0    0  502    0 -0.00000000000E+00 -0.00000000000E+00 -0.33919302579E+01  0.33919302579E+01  0.00000000000E+00 0.  1.
          2    1    1    2  501    0 -0.40102590219E+01  0.25819607382E+02  0.56718473766E+02  0.62447734700E+02  0.00000000000E+00 0.  1.
          2    1    1    2  502    0  0.40102590219E+01 -0.25819607382E+02  0.32316631542E+03  0.32422091500E+03  0.00000000000E+00 0.  1.
</event>
<event>
 4    1  0.6136512E+003  0.3480015E+02  0.7546771E-02  0.1381974E+00
          2   -1    0    0  501    0  0.00000000000E+00  0.00000000000E+00  0.71497942405E+03  0.71497942405E+03  0.00000000000E+00 0.  1.
          2   -1    0    0  502    0 -0.00000000000E+00 -0.00000000000E+00 -0.14557801918E+03  0.14557801918E+03  0.00000000000E+00 0. -1.
          2    1    1    2  501    0  0.23409414283E+02 -0.25749755803E+02 -0.14306751104E+03  0.14723913649E+03  0.00000000000E+00 0. -1.
          2    1    1    2  502    0 -0.23409414283E+02  0.25749755803E+02  0.71246891590E+03  0.71331830674E+03  0.00000000000E+00 0.  1.
</event>
<event>
 4    1  0.6136512E+003  0.2751041E+02  0.7546771E-02  0.1442547E+00
          2   -1    0    0  501    0  0.00000000000E+00  0.00000000000E+00  0.14557834829E+02  0.14557834829E+02  0.00000000000E+00 0. -1.
          2   -1    0    0  502    0 -0.00000000000E+00 -0.00000000000E+00 -0.12683122210E+04  0.12683122210E+04  0.00000000000E+00 0.  1.
          2    1    1    2  501    0  0.26934552769E+02  0.55993312171E+01 -0.12550286697E+04  0.12553301495E+04  0.00000000000E+00 0.  1.
          2    1    1    2  502    0 -0.26934552769E+02 -0.55993312171E+01  0.12742834508E+01  0.27539906340E+02  0.00000000000E+00 0. -1.
</event>
<event>
 4    1  0.6136512E+003  0.3887952E+02  0.7546771E-02  0.1355180E+00
          2   -1    0    0  501    0  0.00000000000E+00  0.00000000000E+00  0.19838582723E+03  0.19838582723E+03  0.00000000000E+00 0.  1.
          2   -1    0    0  502    0 -0.00000000000E+00 -0.00000000000E+00 -0.91432610102E+01  0.91432610102E+01  0.00000000000E+00 0.  1.
          2    1    1    2  501    0 -0.17486892859E+02  0.34724996585E+02  0.52262316266E+02  0.65138057318E+02  0.00000000000E+00 0.  1.
          2    1    1    2  502    0  0.17486892859E+02 -0.34724996585E+02  0.13698024996E+03  0.14239103092E+03  0.00000000000E+00 0.  1.
</event>
<event>
 4    1  0.6136512E+003  0.2404018E+02  0.7546771E-02  0.1479834E+00
          2   -1    0    0  502    0  0.00000000000E+00  0.00000000000E+00  0.39483186333E+03  0.39483186333E+03  0.00000000000E+00 0. -1.
          2   -1    0    0  501    0 -0.00000000000E+00 -0.00000000000E+00 -0.26046442416E+02  0.26046442416E+02  0.00000000000E+00 0.  1.
          2    1    1    2  501    0  0.83419764994E+01  0.22546434247E+02  0.38883332177E+03  0.38957577233E+03  0.00000000000E+00 0. -1.
          2    1    1    2  502    0 -0.83419764994E+01 -0.22546434247E+02 -0.20047900858E+02  0.31302533412E+02  0.00000000000E+00 0.  1.
</event>
<event>
 4    1  0.6136512E+003  0.2036772E+02  0.7546771E-02  0.1528487E+00
          2   -1    0    0  502    0  0.00000000000E+00  0.00000000000E+00  0.39331633944E+03  0.39331633944E+03  0.00000000000E+00 0. -1.
          2   -1    0    0  501    0 -0.00000000000E+00 -0.00000000000E+00 -0.78244046899E+02  0.78244046899E+02  0.00000000000E+00 0.  1.
          2    1    1    2  501    0  0.12435143611E+02  0.16131064305E+02  0.39172178295E+03  0.39225093916E+03  0.00000000000E+00 0. -1.
          2    1    1    2  502    0 -0.12435143611E+02 -0.16131064305E+02 -0.76649490409E+02  0.79309447181E+02  0.00000000000E+00 0.  1.
</event>
<event>
 4    1  0.6136512E+003  0.5518875E+02  0.7546771E-02  0.1277118E+00
          2   -1    0    0  502    0  0.00000000000E+00  0.00000000000E+00  0.30752729757E+02  0.30752729757E+02  0.00000000000E+00 0.  1.
          2   -1    0    0  501    0 -0.00000000000E+00 -0.00000000000E+00 -0.28438497791E+04  0.28438497791E+04  0.00000000000E+00 0. -1.
          2    1    1    2  501    0  0.45347800322E+02 -0.31454326115E+02  0.55028021845E+01  0.55462405801E+02  0.00000000000E+00 0.  1.
          2    1    1    2  502    0 -0.45347800322E+02  0.31454326115E+02 -0.28185998515E+04  0.28191401030E+04  0.00000000000E+00 0. -1.
</event>
<event>
 4    1  0.6136512E+003  0.2918358E+02  0.7546771E-02  0.1426826E+00
          2   -1    0    0  501    0  0.00000000000E+00  0.00000000000E+00  0.19916028627E+02  0.19916028627E+02  0.00000000000E+00 0.  1.
          2   -1    0    0  502    0 -0.00000000000E+00 -0.00000000000E+00 -0.19570738179E+04  0.19570738179E+04  0.00000000000E+00 0.  1.
          2    1    1    2  501    0 -0.95537229971E+01 -0.27575486167E+02 -0.19462144740E+04  0.19464332663E+04  0.00000000000E+00 0.  1.
          2    1    1    2  502    0  0.95537229971E+01  0.27575486167E+02  0.90566847396E+01  0.30556580288E+02  0.00000000000E+00 0.  1.
</event>
<event>
 4    1  0.6136512E+003  0.2596775E+02  0.7546771E-02  0.1458262E+00
          2   -1    0    0  502    0  0.00000000000E+00  0.00000000000E+00  0.11957896135E+04  0.11957896135E+04  0.00000000000E+00 0. -1.
          2   -1    0    0  501    0 -0.00000000000E+00 -0.00000000000E+00 -0.13663123993E+01  0.13663123993E+01  0.00000000000E+00 0.  1.
          2    1    1    2  501    0 -0.17261438358E+02  0.19400181079E+02  0.10559239067E+04  0.10562431638E+04  0.00000000000E+00 0. -1.
          2    1    1    2  502    0  0.17261438358E+02 -0.19400181079E+02  0.13849939437E+03  0.14091276210E+03  0.00000000000E+00 0.  1.
</event>
<event>
 4    1  0.6136512E+003  0.2037505E+02  0.7546771E-02  0.1528378E+00
          2   -1    0    0  501    0  0.00000000000E+00  0.00000000000E+00  0.19350576489E+02  0.19350576489E+02  0.00000000000E+00 0. -1.
          2   -1    0    0  502    0 -0.00000000000E+00 -0.00000000000E+00 -0.14552935615E+03  0.14552935615E+03  0.00000000000E+00 0.  1.
          2    1    1    2  501    0 -0.10668482758E+02 -0.17358746058E+02 -0.13921060107E+03  0.14069375977E+03  0.00000000000E+00 0.  1.
          2    1    1    2  502    0  0.10668482758E+02  0.17358746058E+02  0.13031821404E+02  0.24186172871E+02  0.00000000000E+00 0. -1.
</event>
<event>
 4    1  0.6136512E+003  0.3539317E+02  0.7546771E-02  0.1377820E+00
          2   -1    0    0  502    0  0.00000000000E+00  0.00000000000E+00  0.54904153226E+02  0.54904153226E+02  0.00000000000E+00 0.  1.
          2   -1    0    0  501    0 -0.00000000000E+00 -0.00000000000E+00 -0.24926727760E+04  0.24926727760E+04  0.00000000000E+00 0. -1.
          2    1    1    2  501    0 -0.81857514320E+01  0.34433561414E+02  0.49061191332E+02  0.60495265708E+02  0.00000000000E+00 0.  1.
          2    1    1    2  502    0  0.81857514320E+01 -0.34433561414E+02 -0.24868298141E+04  0.24870816635E+04  0.00000000000E+00 0. -1.
</event>
<event>
 4    1  0.6136512E+003  0.3239068E+02  0.7546771E-02  0.1399898E+00
          2   -1    0    0  501    0  0.00000000000E+00  0.00000000000E+00  0.10680236854E+04  0.10680236854E+04  0.00000000000E+00 0.  1.
          2   -1    0    0  502    0 -0.00000000000E+00 -0.00000000000E+00 -0.17116673835E+01  0.17116673835E+01  0.00000000000E+00 0. -1.
          2    1    1    2  501    0  0.29370115830E+02  0.13658424911E+02  0.18401599148E+03  0.18684496621E+03  0.00000000000E+00 0. -1.
          2    1    1    2  502    0 -0.29370115830E+02 -0.13658424911E+02  0.88229602653E+03  0.88289038657E+03  0.00000000000E+00 0.  1.
</event>
<event>
 4    1  0.6136512E+003  0.2842057E+02  0.7546771E-02  0.1433837E+00
          2   -1    0    0  501    0  0.00000000000E+00  0.00000000000E+00  0.60105188360E+03  0.60105188360E+03  0.00000000000E+00 0.  1.
          2   -1    0    0  502    0 -0.00000000000E+00 -0.00000000000E+00 -0.15066293998E+01  0.15066293998E+01  0.00000000000E+00 0.  1.
          2    1    1    2  501    0 -0.22745212699E+02 -0.17040653214E+02  0.20074539037E+03  0.20274723258E+03  0.00000000000E+00 0.  1.
          2    1    1    2  502    0  0.22745212699E+02  0.17040653214E+02  0.39879986383E+03  0.39981128042E+03  0.00000000000E+00 0.  1.
</event>
<event>
 4    1  0.6136512E+003  0.6300375E+02  0.7546771E-02  0.1249955E+00
          2   -1    0    0  501    0  0.00000000000E+00  0.00000000000E+00  0.40935474607E+03  0.40935474607E+03  0.00000000000E+00 0. -1.
          2   -1    0    0  502    0 -0.00000000000E+00 -0.00000000000E+00 -0.19813758156E+02  0.19813758156E+02  0.00000000000E+00 0.  1.
          2    1    1    2  501    0 -0.60757725460E+02  0.16672470217E+02  0.41436931483E+02  0.75408830762E+02  0.00000000000E+00 0.  1.
          2    1    1    2  502    0  0.60757725460E+02 -0.16672470217E+02  0.34810405643E+03  0.35375967347E+03  0.00000000000E+00 0. -1.
</event>
<event>
 4    1  0.6136512E+003  0.2821621E+02  0.7546771E-02  0.1435759E+00
          2   -1    0    0  501    0  0.00000000000E+00  0.00000000000E+00  0.25732742634E+02  0.25732742634E+02  0.00000000000E+00 0. -1.
          2   -1    0    0  502    0 -0.00000000000E+00 -0.00000000000E+00 -0.15894640996E+04  0.15894640996E+04  0.00000000000E+00 0.  1.
          2    1    1    2  501    0 -0.14997686422E+02  0.23900285100E+02 -0.15815654130E+04  0.15818170912E+04  0.00000000000E+00 0.  1.
          2    1    1    2  502    0  0.14997686422E+02 -0.23900285100E+02  0.17834056060E+02  0.33379751069E+02  0.00000000000E+00 0. -1.
</event>
<event>
 4    1  0.6136512E+003  0.3469807E+02  0.7546771E-02  0.1382698E+00
          2   -1    0    0  501    0  0.00000000000E+00  0.00000000000E+00  0.17567460055E+03  0.17567460055E+03  0.00000000000E+00 0.  1.
          2   -1    0    0  502    0 -0.00000000000E+00 -0.00000000000E+00 -0.88958093490E+01  0.88958093490E+01  0.00000000000E+00 0. -1.
          2    1    1    2  501    0  0.17864361658E+02 -0.29745937208E+02  0.39169463517E+02  0.52327842207E+02  0.00000000000E+00 0. -1.
          2    1    1    2  502    0 -0.17864361658E+02  0.29745937208E+02  0.12760932768E+03  0.13224256769E+03  0.00000000000E+00 0.  1.
</event>
<event>
 4    1  0.6136512E+003  0.2301923E+02  0.7546771E-02  0.1492257E+00
          2   -1    0    0  502    0  0.00000000000E+00  0.00000000000E+00  0.11167131999E+04  0.11167131999E+04  0.00000000000E+00 0. -1.
          2   -1    0    0  501    0 -0.00000000000E+00 -0.00000000000E+00 -0.16283032827E+03  0.16283032827E+03  0.00000000000E+00 0.  1.
          2    1    1    2  501    0 -0.17965799265E+02  0.14391492077E+02  0.11157803398E+04  0.11160177650E+04  0.00000000000E+00 0. -1.
          2    1    1    2  502    0  0.17965799265E+02 -0.14391492077E+02 -0.16189746824E+03  0.16352576314E+03  0.00000000000E+00 0.  1.
</event>
<event>
 4    1  0.6136512E+003  0.2770538E+02  0.7546771E-02  0.1440648E+00
          2   -1    0    0  501    0  0.00000000000E+00  0.00000000000E+00  0.10230098317E+04  0.10230098317E+04  0.00000000000E+00 0.  1.
          2   -1    0    0  502    0 -0.00000000000E+00 -0.00000000000E+00 -0.78166582306E+02  0.78166582306E+02  0.00000000000E+00 0.  1.
          2    1    1    2  501    0  0.15778868758E+02  0.22773125136E+02 -0.75517654716E+02  0.80439443693E+02  0.00000000000E+00 0.  1.
          2    1    1    2  502    0 -0.15778868758E+02 -0.22773125136E+02  0.10203609041E+04  0.10207369703E+04  0.00000000000E+00 0.  1.
</event>
<event>
 4    1  0.6136512E+003  0.5400173E+02  0.7546771E-02  0.1281696E+00
          2   -1    0    0  502    0  0.00000000000E+00  0.00000000000E+00  0.44450302387E+02  0.44450302387E+02  0.00000000000E+00 0.  1.
          2   -1    0    0  501    0 -0.00000000000E+00 -0.00000000000E+00 -0.23153520972E+04  0.23153520972E+04  0.00000000000E+00 0. -1.
          2    1    1    2  501    0 -0.52886877577E+02 -0.10916249653E+02  0.27613919189E+02  0.60652410169E+02  0.00000000000E+00 0.  1.
          2    1    1    2  502    0  0.52886877577E+02  0.10916249653E+02 -0.22985157140E+04  0.22991499894E+04  0.00000000000E+00 0. -1.
</event>
<event>
 4    1  0.6943114E+003  0.2052548E+02  0.7546771E-02  0.1526149E+00
          2   -1    0    0  502    0  0.00000000000E+00  0.00000000000E+00  0.68106558858E+03  0.68106558858E+03  0.00000000000E+00 0.  1.
          2   -1    0    0  501    0 -0.00000000000E+00 -0.00000000000E+00 -0.10954358209E+04  0.10954358209E+04  0.00000000000E+00 0.  1.
          2    1    1    2  501    0 -0.28833732260E+01 -0.20321944314E+02  0.68081475967E+03  0.68112409460E+03  0.00000000000E+00 0.  1.
          2    1    1    2  502    0  0.28833732260E+01  0.20321944314E+02 -0.10951849920E+04  0.10953773148E+04  0.00000000000E+00 0.  1.
</event>
<event>
 4    1  0.6136512E+003  0.3269507E+02  0.7546771E-02  0.1397534E+00
          2   -1    0    0  501    0  0.00000000000E+00  0.00000000000E+00  0.26685210868E+02  0.26685210868E+02  0.00000000000E+00 0.  1.
          2   -1    0    0  502    0 -0.00000000000E+00 -0.00000000000E+00 -0.51658411831E+02  0.51658411831E+02  0.00000000000E+00 0. -1.
          2    1    1    2  501    0 -0.28719283489E+02 -0.15625948625E+02 -0.31048904432E+02  0.45088823238E+02  0.00000000000E+00 0. -1.
          2    1    1    2  502    0  0.28719283489E+02  0.15625948625E+02  0.60757034691E+01  0.33254799461E+02  0.00000000000E+00 0.  1.
</event>
<event>
 4    1  0.6136512E+003  0.2128272E+02  0.7546771E-02  0.1515266E+00
          2   -1    0    0  502    0  0.00000000000E+00  0.00000000000E+00  0.97274002486E+00  0.97274002486E+00  0.00000000000E+00 0.  1.
          2   -1    0    0  501    0 -0.00000000000E+00 -0.00000000000E+00 -0.10029282624E+04  0.10029282624E+04  0.00000000000E+00 0. -1.
          2    1    1    2  501    0 -0.20369076381E+02 -0.61688785198E+01 -0.13358850885E+03  0.13527321994E+03  0.00000000000E+00 0.  1.
          2    1    1    2  502    0  0.20369076381E+02  0.61688785198E+01 -0.86836701348E+03  0.86862778245E+03  0.00000000000E+00 0. -1.
</event>
<event>
 4    1  0.6136512E+003  0.3875642E+02  0.7546771E-02  0.1355931E+00
          2   -1    0    0  502    0  0.00000000000E+00  0.00000000000E+00  0.70479085656E+02  0.70479085656E+02  0.00000000000E+00 0.  1.
          2   -1    0    0  501    0 -0.00000000000E+00 -0.00000000000E+00 -0.42706915369E+02  0.42706915369E+02  0.00000000000E+00 0.  1.
          2    1    1    2  501    0 -0.13070270789E+02  0.36485996664E+02  0.53942079202E+02  0.66421441114E+02  0.00000000000E+00 0.  1.
          2    1    1    2  502    0  0.13070270789E+02 -0.36485996664E+02 -0.26169908914E+02  0.46764559911E+02  0.00000000000E+00 0.  1.
</event>
<event>
 4    1  0.6136512E+003  0.2076477E+02  0.7546771E-02  0.1522650E+00
          2   -1    0    0  501    0  0.00000000000E+00  0.00000000000E+00  0.12627924777E+01  0.12627924777E+01  0.00000000000E+00 0. -1.
          2   -1    0    0  502    0 -0.00000000000E+00 -0.00000000000E+00 -0.37244227763E+03  0.37244227763E+03  0.00000000000E+00 0.  1.
          2    1    1    2  501    0  0.11736504094E+02  0.17129807912E+02 -0.23949386997E+03  0.24039236593E+03  0.00000000000E+00 0.  1.
          2    1    1    2  502    0 -0.11736504094E+02 -0.17129807912E+02 -0.13168561519E+03  0.13331270418E+03  0.00000000000E+00 0. -1.
</event>
<event>
 4    1  0.6136512E+003  0.3292577E+02  0.7546771E-02  0.1395763E+00
          2   -1    0    0  501    0  0.00000000000E+00  0.00000000000E+00  0.11842067619E+04  0.11842067619E+04  0.00000000000E+00 0.  1.
          2   -1    0    0  502    0 -0.00000000000E+00 -0.00000000000E+00 -0.77750744553E+02  0.77750744553E+02  0.00000000000E+00 0. -1.
          2    1    1    2  501    0 -0.32289658384E+02  0.64408310690E+01 -0.74025038337E+02  0.81017360141E+02  0.00000000000E+00 0. -1.
          2    1    1    2  502    0  0.32289658384E+02 -0.64408310690E+01  0.11804810556E+04  0.11809401463E+04  0.00000000000E+00 0.  1.
</event>
<event>
 4    1  0.6136512E+003  0.2093994E+02  0.7546771E-02  0.1520124E+00
          2   -1    0    0  502    0  0.00000000000E+00  0.00000000000E+00  0.42645548604E+02  0.42645548604E+02  0.00000000000E+00 0. -1.
          2   -1    0    0  501    0 -0.00000000000E+00 -0.00000000000E+00 -0.12908762837E+02  0.12908762837E+02  0.00000000000E+00 0.  1.
          2    1    1    2  501    0 -0.36004153037E+01  0.20628093676E+02  0.27398548353E+02  0.34484223798E+02  0.00000000000E+00 0. -1.
          2    1    1    2  502    0  0.36004153037E+01 -0.20628093676E+02  0.23382374133E+01  0.21070087643E+02  0.00000000000E+00 0.  1.
</event>
<event>
 4    1  0.6136512E+003  0.2808114E+02  0.7546771E-02  0.1437040E+00
          2   -1    0    0  501    0  0.00000000000E+00  0.00000000000E+00  0.34601172639E+00  0.34601172639E+00  0.00000000000E+00 0. -1.
          2   -1    0    0  502    0 -0.00000000000E+00 -0.00000000000E+00 -0.23177796555E+04  0.23177796555E+04  0.00000000000E+00 0. -1.
          2    1    1    2  501    0 -0.23035382166E+02  0.16059930229E+02 -0.10087333909E+04  0.10091241767E+04  0.00000000000E+00 0. -1.
          2    1    1    2  502    0  0.23035382166E+02 -0.16059930229E+02 -0.13087002529E+04  0.13090014905E+04  0.00000000000E+00 0. -1.
</event>
<event>
 4    1  0.6136512E+003  0.6162687E+02  0.7546771E-02  0.1254403E+00
          2   -1    0    0  501    0  0.00000000000E+00  0.00000000000E+00  0.33608832306E+04  0.33608832306E+04  0.00000000000E+00 0.  1.
          2   -1    0    0  502    0 -0.00000000000E+00 -0.00000000000E+00 -0.65138992601E+01  0.65138992601E+01  0.00000000000E+00 0. -1.
          2    1    1    2  501    0 -0.53913034155E+02  0.29853902236E+02  0.14647997452E+03  0.15891586978E+03  0.00000000000E+00 0. -1.
          2    1    1    2  502    0  0.53913034155E+02 -0.29853902236E+02  0.32078893569E+04  0.32084812601E+04  0.00000000000E+00 0.  1.
</event>
<event>
 4    1  0.6136512E+003  0.2613663E+02  0.7546771E-02  0.1456479E+00
          2   -1    0    0  502    0  0.00000000000E+00  0.00000000000E+00  0.16150196015E+01  0.16150196015E+01  0.00000000000E+00 0. -1.
          2   -1    0    0  501    0 -0.00000000000E+00 -0.00000000000E+00 -0.10262428790E+04  0.10262428790E+04  0.00000000000E+00 0. -1.
          2    1    1    2  501    0 -0.13541964779E+02 -0.22354833806E+02 -0.11828258854E+03  0.12113585000E+03  0.00000000000E+00 0. -1.
          2    1    1    2  502    0  0.13541964779E+02  0.22354833806E+02 -0.90634527087E+03  0.90672204861E+03  0.00000000000E+00 0. -1.
</event>
<event>
 4    1  0.6136512E+003  0.2397262E+02  0.7546771E-02  0.1480633E+00
          2   -1    0    0  502    0  0.00000000000E+00  0.00000000000E+00  0.24971653240E+02  0.24971653240E+02  0.00000000000E+00 0. -1.
          2   -1    0    0  501    0 -0.00000000000E+00 -0.00000000000E+00 -0.97910885906E+03  0.97910885906E+03  0.00000000000E+00 0.  1.
          2    1    1    2  501    0  0.15734220680E+02  0.18086484076E+02  0.19036442854E+02  0.30611644242E+02  0.00000000000E+00 0. -1.
          2    1    1    2  502    0 -0.15734220680E+02 -0.18086484076E+02 -0.97317364868E+03  0.97346886806E+03  0.00000000000E+00 0.  1.
</event>
<event>
 4    1  0.6136512E+003  0.2308194E+02  0.7546771E-02  0.1491472E+00
          2   -1    0    0  501    0  0.00000000000E+00  0.00000000000E+00  0.27278110803E+03  0.27278110803E+03  0.00000000000E+00 0. -1.
          2   -1    0    0  502    0 -0.00000000000E+00 -0.00000000000E+00 -0.48859415692E+02  0.48859415692E+02  0.00000000000E+00 0. -1.
          2    1    1    2  501    0  0.59875829765E+01 -0.22291814073E+02 -0.45612285676E+02  0.51120022781E+02  0.00000000000E+00 0. -1.
          2    1    1    2  502    0 -0.59875829765E+01  0.22291814073E+02  0.26953397802E+03  0.27052050094E+03  0.00000000000E+00 0. -1.
</event>
<event>
 4    1  0.6136512E+003  0.3784383E+02  0.7546771E-02  0.1361606E+00
          2   -1    0    0  502    0  0.00000000000E+00  0.00000000000E+00  0.12630063020E+02  0.12630063020E+02  0.00000000000E+00 0.  1.
          2   -1    0    0  501    0 -0.00000000000E+00 -0.00000000000E+00 -0.31851144024E+03  0.31851144024E+03  0.00000000000E+00 0.  1.
          2    1    1    2  501    0  0.30115322956E+00 -0.37842630700E+02 -0.20071616215E+02  0.42837193758E+02  0.00000000000E+00 0.  1.
          2    1    1    2  502    0 -0.30115322956E+00  0.37842630700E+02 -0.28580976101E+03  0.28830430950E+03  0.00000000000E+00 0.  1.
</event>
<event>
 4    1  0.6136512E+003  0.2212468E+02  0.7546771E-02  0.1503792E+00
          2   -1    0    0  501    0  0.00000000000E+00  0.00000000000E+00  0.16440498030E+04  0.16440498030E+04  0.00000000000E+00 0.  1.
          2   -1    0    0  502    0 -0.00000000000E+00 -0.00000000000E+00 -0.11272873464E+01  0.11272873464E+01  0.00000000000E+00 0.  1.
          2    1    1    2  501    0 -0.21346139062E+02 -0.58175261807E+01  0.11581729208E+03  0.11791160422E+03  0.00000000000E+00 0.  1.
          2    1    1    2  502    0  0.21346139062E+02  0.58175261807E+01  0.15271052236E+04  0.15272654862E+04  0.00000000000E+00 0.  1.
</event>
<event>
 4    1  0.6136512E+003  0.2782440E+02  0.7546771E-02  0.1439498E+00
          2   -1    0    0  501    0  0.00000000000E+00  0.00000000000E+00  0.17299722425E+03  0.17299722425E+03  0.00000000000E+00 0. -1.
          2   -1    0    0  502    0 -0.00000000000E+00 -0.00000000000E+00 -0.87909381768E+03  0.87909381768E+03  0.00000000000E+00 0. -1.
          2    1    1    2  501    0  0.26769136751E+02 -0.75901692509E+01 -0.87775313986E+03  0.87819403999E+03  0.00000000000E+00 0. -1.
          2    1    1    2  502    0 -0.26769136751E+02  0.75901692509E+01  0.17165654643E+03  0.17389700194E+03  0.00000000000E+00 0. -1.
</event>
<event>
 4    1  0.6136512E+003  0.2280689E+02  0.7546771E-02  0.1494937E+00
          2   -1    0    0  501    0  0.00000000000E+00  0.00000000000E+00  0.36119853737E+01  0.36119853737E+01  0.00000000000E+00 0. -1.
          2   -1    0    0  502    0 -0.00000000000E+00 -0.00000000000E+00 -0.59332666314E+03  0.59332666314E+03  0.00000000000E+00 0.  1.
          2    1    1    2  501    0  0.20556588870E+02 -0.98782949347E+01 -0.55459211213E+03  0.55506086594E+03  0.00000000000E+00 0.  1.
          2    1    1    2  502    0 -0.20556588870E+02  0.98782949347E+01 -0.35122565641E+02  0.41877782582E+02  0.00000000000E+00 0. -1.
</event>
<event>
 4    1  0.6136512E+003  0.2967250E+02  0.7546771E-02  0.1422464E+00
          2   -1    0    0  502    0  0.00000000000E+00  0.00000000000E+00  0.23905289629E+02  0.23905289629E+02  0.00000000000E+00 0. -1.
          2   -1    0    0  501    0 -0.00000000000E+00 -0.00000000000E+00 -0.25397261581E+03  0.25397261581E+03  0.00000000000E+00 0.  1.
          2    1    1    2  501    0  0.28114437081E+02  0.94887076127E+01  0.13436432733E+02  0.32572916191E+02  0.00000000000E+00 0. -1.
          2    1    1    2  502    0 -0.28114437081E+02 -0.94887076127E+01 -0.24350375891E+03  0.24530498925E+03  0.00000000000E+00 0.  1.
</event>
<event>
 4    1  0.6136512E+003  0.2594999E+02  0.7546771E-02  0.1458451E+00
          2   -1    0    0  501    0  0.00000000000E+00  0.00000000000E+00  0.68364258550E+01  0.68364258550E+01  0.00000000000E+00 0. -1.
          2   -1    0    0  502    0 -0.00000000000E+00 -0.00000000000E+00 -0.10156203700E+04  0.10156203700E+04  0.00000000000E+00 0. -1.
          2    1    1    2  501    0  0.14699982718E+02 -0.21384866585E+02 -0.99019693979E+03  0.99053691580E+03  0.00000000000E+00 0. -1.
          2    1    1    2  502    0 -0.14699982718E+02  0.21384866585E+02 -0.18587004337E+02  0.31919880028E+02  0.00000000000E+00 0. -1.
</event>
<event>
 4    1  0.6136512E+003  0.9183689E+02  0.7546771E-02  0.1178758E+00
          2   -1    0    0  502    0  0.00000000000E+00  0.00000000000E+00  0.11927200309E+04  0.11927200309E+04  0.00000000000E+00 0.  1.
          2   -1    0    0  501    0 -0.00000000000E+00 -0.00000000000E+00 -0.11817991332E+03  0.11817991332E+03  0.00000000000E+00 0. -1.
          2    1    1    2  501    0  0.51242510677E+02 -0.76211676439E+02  0.11728083014E+04  0.11763984556E+04  0.00000000000E+00 0.  1.
          2    1    1    2  502    0 -0.51242510677E+02  0.76211676439E+02 -0.98268183737E+02  0.13450148869E+03  0.00000000000E+00 0. -1.
</event>
<event>
 4    1  0.6136512E+003  0.2695480E+02  0.7546771E-02  0.1448063E+00
          2   -1    0    0  502    0  0.00000000000E+00  0.00000000000E+00  0.16781042278E+02  0.16781042278E+02  0.00000000000E+00 0.  1.
          2   -1    0    0  501    0 -0.00000000000E+00 -0.00000000000E+00 -0.15462359673E+03  0.15462359673E+03  0.00000000000E+00 0. -1.
          2    1    1    2  501    0 -0.21082321868E+01  0.26872223401E+02  0.37989216919E+01  0.27221183654E+02  0.00000000000E+00 0.  1.
          2    1    1    2  502    0  0.21082321868E+01 -0.26872223401E+02 -0.14164147614E+03  0.14418345535E+03  0.00000000000E+00 0. -1.
</event>
<event>
 4    1  0.6136512E+003  0.2824466E+02  0.7546771E-02  0.1435490E+00
          2   -1    0    0  502    0  0.00000000000E+00  0.00000000000E+00  0.49251476869E+01  0.49251476869E+01  0.00000000000E+00 0. -1.
          2   -1    0    0  501    0 -0.00000000000E+00 -0.00000000000E+00 -0.77572162681E+03  0.77572162681E+03  0.00000000000E+00 0.  1.
          2    1    1    2  501    0  0.18356474113E+02  0.21466274032E+02 -0.38209648199E+02  0.47515663503E+02  0.00000000000E+00 0. -1.
          2    1    1    2  502    0 -0.18356474113E+02 -0.21466274032E+02 -0.73258683093E+03  0.73313111099E+03  0.00000000000E+00 0.  1.
</event>
<event>
 4    1  0.6136512E+003  0.2294214E+02  0.7546771E-02  0.1493226E+00
          2   -1    0    0  502    0  0.00000000000E+00  0.00000000000E+00  0.57679849823E+03  0.57679849823E+03  0.00000000000E+00 0.  1.
          2   -1    0    0  501    0 -0.00000000000E+00 -0.00000000000E+00 -0.22184182244E+02  0.22184182244E+02  0.00000000000E+00 0. -1.
          2    1    1    2  501    0 -0.10868975348E+02 -0.20204139366E+02  0.57057418816E+03  0.57103524065E+03  0.00000000000E+00 0.  1.
          2    1    1    2  502    0  0.10868975348E+02  0.20204139366E+02 -0.15959872176E+02  0.27947439820E+02  0.00000000000E+00 0. -1.
</event>
<event>
 4    1  0.6136512E+003  0.2004777E+02  0.7546771E-02  0.1533307E+00
          2   -1    0    0  502    0  0.00000000000E+00  0.00000000000E+00  0.13285129924E+04  0.13285129924E+04  0.00000000000E+00 0.  1.
          2   -1    0    0  501    0 -0.00000000000E+00 -0.00000000000E+00 -0.17573496734E+01  0.17573496734E+01  0.00000000000E+00 0.  1.
          2    1    1    2  501    0 -0.53542325888E+01  0.19319557475E+02  0.12685592884E+04  0.12687176918E+04  0.00000000000E+00 0.  1.
          2    1    1    2  502    0  0.53542325888E+01 -0.19319557475E+02  0.58196354256E+02  0.61552650279E+02  0.00000000000E+00 0.  1.
</event>
<event>
 4    1  0.6136512E+003  0.3091412E+02  0.7546771E-02  0.1411815E+00
          2   -1    0    0  501    0  0.00000000000E+00  0.00000000000E+00  0.27058514521E+02  0.27058514521E+02  0.00000000000E+00 0. -1.
          2   -1    0    0  502    0 -0.00000000000E+00 -0.00000000000E+00 -0.17223142990E+04  0.17223142990E+04  0.00000000000E+00 0.  1.
          2    1    1    2  501    0  0.16503038486E+02 -0.26140626749E+02 -0.17132993445E+04  0.17135782231E+04  0.00000000000E+00 0.  1.
          2    1    1    2  502    0 -0.16503038486E+02  0.26140626749E+02  0.18043560046E+02  0.35794590447E+02  0.00000000000E+00 0. -1.
</event>
<event>
 4    1  0.6136512E+003  0.3459209E+02  0.7546771E-02  0.1383454E+00
          2   -1    0    0  502    0  0.00000000000E+00  0.00000000000E+00  0.16151398141E+04  0.16151398141E+04  0.00000000000E+00 0.  1.
          2   -1    0    0  501    0 -0.00000000000E+00 -0.00000000000E+00 -0.91255208306E+01  0.91255208306E+01  0.00000000000E+00 0. -1.
          2    1    1    2  501    0 -0.10433021755E+02  0.32981277856E+02  0.15814748084E+04  0.15818530850E+04  0.00000000000E+00 0.  1.
          2    1    1    2  502    0  0.10433021755E+02 -0.32981277856E+02  0.24539484805E+02  0.42412249957E+02  0.00000000000E+00 0. -1.
</event>
<event>
 4    1  0.6136512E+003  0.2092066E+02  0.7546771E-02  0.1520401E+00
          2   -1    0    0  502    0  0.00000000000E+00  0.00000000000E+00  0.15819420926E+02  0.15819420926E+02  0.00000000000E+00 0.  1.
          2   -1    0    0  501    0 -0.00000000000E+00 -0.00000000000E+00 -0.92121589077E+02  0.92121589077E+02  0.00000000000E+00 0.  1.
          2    1    1    2  501    0 -0.11003910096E+02  0.17792916477E+02  0.69932363955E+01  0.22058541870E+02  0.00000000000E+00 0.  1.
          2    1    1    2  502    0  0.11003910096E+02 -0.17792916477E+02 -0.83295404547E+02  0.85882468134E+02  0.00000000000E+00 0.  1.
</event>
<event>
 4    1  0.6136512E+003  0.4031147E+02  0.7546771E-02  0.1346670E+00
          2   -1    0    0  502    0  0.00000000000E+00  0.00000000000E+00  0.42016707958E+02  0.42016707958E+02  0.00000000000E+00 0. -1.
          2   -1    0    0  501    0 -0.00000000000E+00 -0.00000000000E+00 -0.69169333385E+02  0.69169333385E+02  0.00000000000E+00 0. -1.
          2    1    1    2  501    0  0.60008081927E+01  0.39862323957E+02  0.23335887468E+02  0.46578731350E+02  0.00000000000E+00 0. -1.
          2    1    1    2  502    0 -0.60008081927E+01 -0.39862323957E+02 -0.50488512895E+02  0.64607309993E+02  0.00000000000E+00 0. -1.
</event>
<event>
 4    1  0.6136512E+003  0.1170743E+03  0.7546771E-02  0.1137123E+00
          2   -1    0    0  501    0  0.00000000000E+00  0.00000000000E+00  0.36572126509E+03  0.36572126509E+03  0.00000000000E+00 0.  1.
          2   -1    0    0  502    0 -0.00000000000E+00 -0.00000000000E+00 -0.14065947993E+04  0.14065947993E+04  0.00000000000E+00 0. -1.
          2    1    1    2  501    0 -0.36452221434E+02  0.11125479571E+03 -0.13947095750E+04  0.13996146587E+04  0.00000000000E+00 0. -1.
          2    1    1    2  502    0  0.36452221434E+02 -0.11125479571E+03  0.35383604085E+03  0.37270140571E+03  0.00000000000E+00 0.  1.
</event>
<event>
 4    1  0.6136512E+003  0.9758760E+02  0.7546771E-02  0.1168055E+00
          2   -1    0    0  501    0  0.00000000000E+00  0.00000000000E+00  0.46304690804E+03  0.46304690804E+03  0.00000000000E+00 0. -1.
          2   -1    0    0  502    0 -0.00000000000E+00 -0.00000000000E+00 -0.54657565697E+02  0.54657565697E+02  0.00000000000E+00 0.  1.
          2    1    1    2  501    0 -0.35718092143E+02 -0.90816068585E+02 -0.23591918575E+00  0.97587888990E+02  0.00000000000E+00 0.  1.
          2    1    1    2  502    0  0.35718092143E+02  0.90816068585E+02  0.40862526153E+03  0.42011658475E+03  0.00000000000E+00 0. -1.
</event>
<event>
 4    1  0.6136512E+003  0.4460740E+02  0.7546771E-02  0.1323414E+00
          2   -1    0    0  501    0  0.00000000000E+00  0.00000000000E+00  0.12257680760E+04  0.12257680760E+04  0.00000000000E+00 0.  1.
          2   -1    0    0  502    0 -0.00000000000E+00 -0.00000000000E+00 -0.44329091812E+02  0.44329091812E+02  0.00000000000E+00 0. -1.
          2    1    1    2  501    0  0.36958099001E+02  0.24978373766E+02 -0.32592950005E+02  0.55246001011E+02  0.00000000000E+00 0. -1.
          2    1    1    2  502    0 -0.36958099001E+02 -0.24978373766E+02  0.12140319342E+04  0.12148511668E+04  0.00000000000E+00 0.  1.
</event>
<event>
 4    1  0.6136512E+003  0.3559977E+02  0.7546771E-02  0.1376395E+00
          2   -1    0    0  501    0  0.00000000000E+00  0.00000000000E+00  0.39027601542E+03  0.39027601542E+03  0.00000000000E+00 0.  1.
          2   -1    0    0  502    0 -0.00000000000E+00 -0.00000000000E+00 -0.15705156863E+02  0.15705156863E+02  0.00000000000E+00 0.  1.
          2    1    1    2  501    0 -0.24314469972E+02 -0.26002893024E+02  0.64945985623E+01  0.36187341794E+02  0.00000000000E+00 0.  1.
          2    1    1    2  502    0  0.24314469972E+02  0.26002893024E+02  0.36807626000E+03  0.36979383049E+03  0.00000000000E+00 0.  1.
</event>
<event>
 4    1  0.6136512E+003  0.3037405E+02  0.7546771E-02  0.1416373E+00
          2   -1    0    0  502    0  0.00000000000E+00  0.00000000000E+00  0.53255934407E+03  0.53255934407E+03  0.00000000000E+00 0. -1.
          2   -1    0    0  501    0 -0.00000000000E+00 -0.00000000000E+00 -0.10211605409E+02  0.10211605409E+02  0.00000000000E+00 0.  1.
          2    1    1    2  501    0  0.30306333182E+02 -0.20271246643E+01  0.50847053385E+03  0.50937693986E+03  0.00000000000E+00 0. -1.
          2    1    1    2  502    0 -0.30306333182E+02  0.20271246643E+01  0.13877204814E+02  0.33394009624E+02  0.00000000000E+00 0.  1.
</event>
<event>
 4    1  0.6136512E+003  0.3567768E+02  0.7546771E-02  0.1375861E+00
          2   -1    0    0  502    0  0.00000000000E+00  0.00000000000E+00  0.87956899669E+03  0.87956899669E+03  0.00000000000E+00 0.  1.
          2   -1    0    0  501    0 -0.00000000000E+00 -0.00000000000E+00 -0.69758996435E+01  0.69758996435E+01  0.00000000000E+00 0.  1.
          2    1    1    2  501    0  0.33660128032E+02  0.11827619309E+02  0.83091993097E+03  0.83168553461E+03  0.00000000000E+00 0.  1.
          2    1    1    2  502    0 -0.33660128032E+02 -0.11827619309E+02  0.41673166072E+02  0.54859361718E+02  0.00000000000E+00 0.  1.
</event>
<event>
 4    1  0.6136512E+003  0.3105628E+02  0.7546771E-02  0.1410634E+00
          2   -1    0    0  501    0  0.00000000000E+00  0.00000000000E+00  0.92971733768E+03  0.92971733768E+03  0.00000000000E+00 0. -1.
          2   -1    0    0  502    0 -0.00000000000E+00 -0.00000000000E+00 -0.31189779004E+01  0.31189779004E+01  0.00000000000E+00 0. -1.
          2    1    1    2  501    0 -0.31041723626E+02 -0.95064079645E+00  0.82263858866E+02  0.87930852373E+02  0.00000000000E+00 0. -1.
          2    1    1    2  502    0  0.31041723626E+02  0.95064079645E+00  0.84433450091E+03  0.84490546321E+03  0.00000000000E+00 0. -1.
</event>
<event>
 4    1  0.6136512E+003  0.3026678E+02  0.7546771E-02  0.1417292E+00
          2   -1    0    0  501    0  0.00000000000E+00  0.00000000000E+00  0.11900062557E+02  0.11900062557E+02  0.00000000000E+00 0.  1.
          2   -1    0    0  502    0 -0.00000000000E+00 -0.00000000000E+00 -0.68973577392E+03  0.68973577392E+03  0.00000000000E+00 0. -1.
          2    1    1    2  501    0 -0.69997226609E+01  0.29446258736E+02 -0.66957945062E+03  0.67026317143E+03  0.00000000000E+00 0. -1.
          2    1    1    2  502    0  0.69997226609E+01 -0.29446258736E+02 -0.82562607358E+01  0.31372665048E+02  0.00000000000E+00 0.  1.
</event>
<event>
 4    1  0.6136512E+003  0.2223517E+02  0.7546771E-02  0.1502332E+00
          2   -1    0    0  502    0  0.00000000000E+00  0.00000000000E+00  0.79984097607E+03  0.79984097607E+03  0.00000000000E+00 0. -1.
          2   -1    0    0  501    0 -0.00000000000E+00 -0.00000000000E+00 -0.19528239820E+01  0.19528239820E+01  0.00000000000E+00 0.  1.
          2    1    1    2  501    0  0.16608014488E+02  0.14784333630E+02  0.73037468660E+03  0.73071306646E+03  0.00000000000E+00 0. -1.
          2    1    1    2  502    0 -0.16608014488E+02 -0.14784333630E+02  0.67513465491E+02  0.71080733598E+02  0.00000000000E+00 0.  1.
</event>
<event>
 4    1  0.6136512E+003  0.2108004E+02  0.7546771E-02  0.1518125E+00
          2   -1    0    0  501    0  0.00000000000E+00  0.00000000000E+00  0.16111924325E+03  0.16111924325E+03  0.00000000000E+00 0. -1.
          2   -1    0    0  502    0 -0.00000000000E+00 -0.00000000000E+00 -0.66377439747E+03  0.66377439747E+03  0.00000000000E+00 0.  1.
          2    1    1    2  501    0  0.10939389798E+02 -0.18019377847E+02 -0.66291663925E+03  0.66325171604E+03  0.00000000000E+00 0.  1.
          2    1    1    2  502    0 -0.10939389798E+02  0.18019377847E+02  0.16026148504E+03  0.16164192468E+03  0.00000000000E+00 0. -1.
</event>
<event>
 4    1  0.6136512E+003  0.2113019E+02  0.7546771E-02  0.1517414E+00
          2   -1    0    0  501    0  0.00000000000E+00  0.00000000000E+00  0.26497417347E+03  0.26497417347E+03  0.00000000000E+00 0.  1.
          2   -1    0    0  502    0 -0.00000000000E+00 -0.00000000000E+00 -0.14364297236E+04  0.14364297236E+04  0.00000000000E+00 0. -1.
          2    1    1    2  501    0 -0.15436029277E+02  0.14429622895E+02 -0.14359306165E+04  0.14360860769E+04  0.00000000000E+00 0. -1.
          2    1    1    2  502    0  0.15436029277E+02 -0.14429622895E+02  0.26447506630E+03  0.26531782019E+03  0.00000000000E+00 0.  1.
</event>
<event>
 4    1  0.6136512E+003  0.2596811E+02  0.7546771E-02  0.1458258E+00
          2   -1    0    0  502    0  0.00000000000E+00  0.00000000000E+00  0.17255921914E+03  0.17255921914E+03  0.00000000000E+00 0.  1.
          2   -1    0    0  501    0 -0.00000000000E+00 -0.00000000000E+00 -0.92223026931E+02  0.92223026931E+02  0.00000000000E+00 0. -1.
          2    1    1    2  501    0  0.25770245472E+02  0.31995931633E+01  0.16972386201E+03  0.17169895831E+03  0.00000000000E+00 0.  1.
          2    1    1    2  502    0 -0.25770245472E+02 -0.31995931633E+01 -0.89387669802E+02  0.93083287763E+02  0.00000000000E+00 0. -1.
</event>
<event>
 4    1  0.6136512E+003  0.2958781E+02  0.7546771E-02  0.1423213E+00
          2   -1    0    0  501    0  0.00000000000E+00  0.00000000000E+00  0.29199036861E+01  0.29199036861E+01  0.00000000000E+00 0. -1.
          2   -1    0    0  502    0 -0.00000000000E+00 -0.00000000000E+00 -0.14407844508E+04  0.14407844508E+04  0.00000000000E+00 0.  1.
          2    1    1    2  501    0 -0.27477364172E+01  0.29459945547E+02 -0.13613023206E+04  0.13616238271E+04  0.00000000000E+00 0.  1.
          2    1    1    2  502    0  0.27477364172E+01 -0.29459945547E+02 -0.76562226452E+02  0.82080527327E+02  0.00000000000E+00 0. -1.
</event>
<event>
 4    1  0.6136512E+003  0.3872888E+02  0.7546771E-02  0.1356100E+00
          2   -1    0    0  502    0  0.00000000000E+00  0.00000000000E+00  0.14637098725E+04  0.14637098725E+04  0.00000000000E+00 0.  1.
          2   -1    0    0  501    0 -0.00000000000E+00 -0.00000000000E+00 -0.13375832764E+03  0.13375832764E+03  0.00000000000E+00 0.  1.
          2    1    1    2  501    0 -0.26198449409E+02 -0.28523108453E+02  0.14606443778E+04  0.14611577344E+04  0.00000000000E+00 0.  1.
          2    1    1    2  502    0  0.26198449409E+02  0.28523108453E+02 -0.13069283297E+03  0.13631046569E+03  0.00000000000E+00 0.  1.
</event>
<event>
 4    1  0.6136512E+003  0.4847570E+02  0.7546771E-02  0.1304920E+00
          2   -1    0    0  502    0  0.00000000000E+00  0.00000000000E+00  0.16942251447E+03  0.16942251447E+03  0.00000000000E+00 0. -1.
          2   -1    0    0  501    0 -0.00000000000E+00 -0.00000000000E+00 -0.15431899726E+02  0.15431899726E+02  0.00000000000E+00 0. -1.
          2    1    1    2  501    0  0.43521748373E+02  0.21348329866E+02  0.10639981021E+03  0.11692225358E+03  0.00000000000E+00 0. -1.
          2    1    1    2  502    0 -0.43521748373E+02 -0.21348329866E+02  0.47590804531E+02  0.67932160612E+02  0.00000000000E+00 0. -1.
</event>
<event>
 4    1  0.6136512E+003  0.2008879E+02  0.7546771E-02  0.1532683E+00
          2   -1    0    0  502    0  0.00000000000E+00  0.00000000000E+00  0.45204739717E+02  0.45204739717E+02  0.00000000000E+00 0. -1.
          2   -1    0    0  501    0 -0.00000000000E+00 -0.00000000000E+00 -0.66096215778E+03  0.66096215778E+03  0.00000000000E+00 0.  1.
          2    1    1    2  501    0  0.13558457447E+02  0.14823219097E+02  0.42812148969E+02  0.47291010691E+02  0.00000000000E+00 0. -1.
          2    1    1    2  502    0 -0.13558457447E+02 -0.14823219097E+02 -0.65856956703E+03  0.65887588680E+03  0.00000000000E+00 0.  1.
</event>
<event>
 4    1  0.6136512E+003  0.3164797E+02  0.7546771E-02  0.1405796E+00
          2   -1    0    0  501    0  0.00000000000E+00  0.00000000000E+00  0.76895258305E+03  0.76895258305E+03  0.00000000000E+00 0. -1.
          2   -1    0    0  502    0 -0.00000000000E+00 -0.00000000000E+00 -0.19352797005E+02  0.19352797005E+02  0.00000000000E+00 0. -1.
          2    1    1    2  501    0  0.31154026039E+02 -0.55696027808E+01 -0.58575123011E+01  0.32185466657E+02  0.00000000000E+00 0. -1.
          2    1    1    2  502    0 -0.31154026039E+02  0.55696027808E+01  0.75545729834E+03  0.75611991339E+03  0.00000000000E+00 0. -1.
</event>
<event>
 4    1  0.6136512E+003  0.2001457E+02  0.7546771E-02  0.1533813E+00
          2   -1    0    0  501    0  0.00000000000E+00  0.00000000000E+00  0.51308073330E+01  0.51308073330E+01  0.00000000000E+00 0. -1.
          2   -1    0    0  502    0 -0.00000000000E+00 -0.00000000000E+00 -0.19453136058E+03  0.19453136058E+03  0.00000000000E+00 0.  1.
          2    1    1    2  501    0 -0.18221603211E+02 -0.82798558832E+01 -0.17194243106E+03  0.17310338655E+03  0.00000000000E+00 0.  1.
          2    1    1    2  502    0  0.18221603211E+02  0.82798558832E+01 -0.17458122186E+02  0.26558781359E+02  0.00000000000E+00 0. -1.
</event>
<event>
 4    1  0.6136512E+003  0.2101703E+02  0.7546771E-02  0.1519022E+00
          2   -1    0    0  501    0  0.00000000000E+00  0.00000000000E+00  0.25285220972E+03  0.25285220972E+03  0.00000000000E+00 0. -1.
          2   -1    0    0  502    0 -0.00000000000E+00 -0.00000000000E+00 -0.87904803073E+01  0.87904803073E+01  0.00000000000E+00 0. -1.
          2    1    1    2  501    0  0.13233783882E+02 -0.16327357211E+02  0.49278557389E+01  0.21587019052E+02  0.00000000000E+00 0. -1.
          2    1    1    2  502    0 -0.13233783882E+02  0.16327357211E+02  0.23913387368E+03  0.24005567098E+03  0.00000000000E+00 0. -1.
</event>
<event>
 4    1  0.6136512E+003  0.2319680E+02  0.7546771E-02  0.1490042E+00
          2   -1    0    0  501    0  0.00000000000E+00  0.00000000000E+00  0.10892698895E+03  0.10892698895E+03  0.00000000000E+00 0. -1.
          2   -1    0    0  502    0 -0.00000000000E+00 -0.00000000000E+00 -0.10725337604E+03  0.10725337604E+03  0.00000000000E+00 0.  1.
          2    1    1    2  501    0 -0.79692093085E+01  0.21784932924E+02 -0.10473479816E+03  0.10727287422E+03  0.00000000000E+00 0.  1.
          2    1    1    2  502    0  0.79692093085E+01 -0.21784932924E+02  0.10640841107E+03  0.10890749077E+03  0.00000000000E+00 0. -1.
</event>
<event>
 4    1  0.6136512E+003  0.3149180E+02  0.7546771E-02  0.1407061E+00
          2   -1    0    0  501    0  0.00000000000E+00  0.00000000000E+00  0.15978192434E+04  0.15978192434E+04  0.00000000000E+00 0.  1.
          2   -1    0    0  502    0 -0.00000000000E+00 -0.00000000000E+00 -0.20102210380E+03  0.20102210380E+03  0.00000000000E+00 0. -1.
          2    1    1    2  501    0  0.27537480911E+02  0.15278115974E+02 -0.19963249647E+03  0.20210113144E+03  0.00000000000E+00 0. -1.
          2    1    1    2  502    0 -0.27537480911E+02 -0.15278115974E+02  0.15964296361E+04  0.15967402158E+04  0.00000000000E+00 0.  1.
</event>
<event>
 4    1  0.6136512E+003  0.2409034E+02  0.7546771E-02  0.1479242E+00
          2   -1    0    0  502    0  0.00000000000E+00  0.00000000000E+00  0.26595165261E+03  0.26595165261E+03  0.00000000000E+00 0. -1.
          2   -1    0    0  501    0 -0.00000000000E+00 -0.00000000000E+00 -0.44180345946E+01  0.44180345946E+01  0.00000000000E+00 0.  1.
          2    1    1    2  501    0 -0.12395397713E+02 -0.20656686880E+02  0.22693662753E+03  0.22821169451E+03  0.00000000000E+00 0. -1.
          2    1    1    2  502    0  0.12395397713E+02  0.20656686880E+02  0.34596990490E+02  0.42157992697E+02  0.00000000000E+00 0.  1.
</event>
<event>
 4    1  0.6136512E+003  0.2445604E+02  0.7546771E-02  0.1474982E+00
          2   -1    0    0  501    0  0.00000000000E+00  0.00000000000E+00  0.53224364975E+02  0.53224364975E+02  0.00000000000E+00 0. -1.
          2   -1    0    0  502    0 -0.00000000000E+00 -0.00000000000E+00 -0.51612720690E+03  0.51612720690E+03  0.00000000000E+00 0. -1.
          2    1    1    2  501    0  0.10549605772E+02 -0.22063625528E+02 -0.51301112474E+03  0.51359372257E+03  0.00000000000E+00 0. -1.
          2    1    1    2  502    0 -0.10549605772E+02  0.22063625528E+02  0.50108282812E+02  0.55757849311E+02  0.00000000000E+00 0. -1.
</event>
<event>
 4    1  0.6136512E+003  0.2255800E+02  0.7546771E-02  0.1498124E+00
          2   -1    0    0  502    0  0.00000000000E+00  0.00000000000E+00  0.19669867475E+03  0.19669867475E+03  0.00000000000E+00 0. -1.
          2   -1    0    0  501    0 -0.00000000000E+00 -0.00000000000E+00 -0.17067509503E+02  0.17067509503E+02  0.00000000000E+00 0.  1.
          2    1    1    2  501    0  0.15827856140E+02  0.16073027380E+02  0.18826554784E+03  0.18961218248E+03  0.00000000000E+00 0. -1.
          2    1    1    2  502    0 -0.15827856140E+02 -0.16073027380E+02 -0.86343825939E+01  0.24154001778E+02  0.00000000000E+00 0.  1.
</event>
<event>
 4    1  0.6136512E+003  0.2184968E+02  0.7546771E-02  0.1507471E+00
          2   -1    0    0  501    0  0.00000000000E+00  0.00000000000E+00  0.76676281115E+01  0.76676281115E+01  0.00000000000E+00 0.  1.
          2   -1    0    0  502    0 -0.00000000000E+00 -0.00000000000E+00 -0.46608259211E+03  0.46608259211E+03  0.00000000000E+00 0. -1.
          2    1    1    2  501    0 -0.21742997671E+02 -0.21564968438E+01 -0.44969385740E+03  0.45022435942E+03  0.00000000000E+00 0. -1.
          2    1    1    2  502    0  0.21742997671E+02  0.21564968438E+01 -0.87211065960E+01  0.23525860805E+02  0.00000000000E+00 0.  1.
</event>
<event>
 4    1  0.6136512E+003  0.3985032E+02  0.7546771E-02  0.1349365E+00
          2   -1    0    0  501    0  0.00000000000E+00  0.00000000000E+00  0.20137433988E+03  0.20137433988E+03  0.00000000000E+00 0.  1.
          2   -1    0    0  502    0 -0.00000000000E+00 -0.00000000000E+00 -0.51416288157E+02  0.51416288157E+02  0.00000000000E+00 0. -1.
          2    1    1    2  501    0 -0.39845796599E+02  0.60046354682E+00 -0.41320015690E+02  0.57405502870E+02  0.00000000000E+00 0. -1.
          2    1    1    2  502    0  0.39845796599E+02 -0.60046354682E+00  0.19127806741E+03  0.19538512516E+03  0.00000000000E+00 0.  1.
</event>
<event>
 4    1  0.6136512E+003  0.3635481E+02  0.7546771E-02  0.1371281E+00
          2   -1    0    0  501    0  0.00000000000E+00  0.00000000000E+00  0.13819305784E+02  0.13819305784E+02  0.00000000000E+00 0. -1.
          2   -1    0    0  502    0 -0.00000000000E+00 -0.00000000000E+00 -0.11823914400E+04  0.11823914400E+04  0.00000000000E+00 0.  1.
          2    1    1    2  501    0  0.34629600900E+02 -0.11066297819E+02 -0.11576921121E+04  0.11582627934E+04  0.00000000000E+00 0.  1.
          2    1    1    2  502    0 -0.34629600900E+02  0.11066297819E+02 -0.10880022092E+02  0.37947952338E+02  0.00000000000E+00 0. -1.
</event>
<event>
 4    1  0.6136512E+003  0.2224168E+02  0.7546771E-02  0.1502246E+00
          2   -1    0    0  502    0  0.00000000000E+00  0.00000000000E+00  0.20689748180E+03  0.20689748180E+03  0.00000000000E+00 0. -1.
          2   -1    0    0  501    0 -0.00000000000E+00 -0.00000000000E+00 -0.50717525911E+01  0.50717525911E+01  0.00000000000E+00 0. -1.
          2    1    1    2  501    0  0.22122881339E+02 -0.22957549457E+01  0.17796629548E+03  0.17935075884E+03  0.00000000000E+00 0. -1.
          2    1    1    2  502    0 -0.22122881339E+02  0.22957549457E+01  0.23859433735E+02  0.32618475557E+02  0.00000000000E+00 0. -1.
</event>
<event>
 4    1  0.6136512E+003  0.2032300E+02  0.7546771E-02  0.1529154E+00
          2   -1    0    0  502    0  0.00000000000E+00  0.00000000000E+00  0.75063807335E+01  0.75063807335E+01  0.00000000000E+00 0. -1.
          2   -1    0    0  501    0 -0.00000000000E+00 -0.00000000000E+00 -0.17435426106E+03  0.17435426106E+03  0.00000000000E+00 0.  1.
          2    1    1    2  501    0 -0.16271790584E+02 -0.12175918185E+02 -0.81976891227E+01  0.21914065333E+02  0.00000000000E+00 0. -1.
          2    1    1    2  502    0  0.16271790584E+02  0.12175918185E+02 -0.15865019121E+03  0.15994657646E+03  0.00000000000E+00 0.  1.
</event>
<event>
 4    1  0.6136512E+003  0.2949901E+02  0.7546771E-02  0.1424001E+00
          2   -1    0    0  501    0  0.00000000000E+00  0.00000000000E+00  0.47749553646E+03  0.47749553646E+03  0.00000000000E+00 0.  1.
          2   -1    0    0  502    0 -0.00000000000E+00 -0.00000000000E+00 -0.11545877628E+03  0.11545877628E+03  0.00000000000E+00 0. -1.
          2    1    1    2  501    0 -0.29391052301E+02 -0.25213928330E+01 -0.11310966432E+03  0.11689306027E+03  0.00000000000E+00 0. -1.
          2    1    1    2  502    0  0.29391052301E+02  0.25213928330E+01  0.47514642450E+03  0.47606125246E+03  0.00000000000E+00 0.  1.
</event>
<event>
 4    1  0.6136512E+003  0.1465017E+03  0.7546771E-02  0.1101257E+00
          2   -1    0    0  501    0  0.00000000000E+00  0.00000000000E+00  0.12464348139E+04  0.12464348139E+04  0.00000000000E+00 0. -1.
          2   -1    0    0  502    0 -0.00000000000E+00 -0.00000000000E+00 -0.53650007218E+02  0.53650007218E+02  0.00000000000E+00 0.  1.
          2    1    1    2  501    0  0.37289291562E+02  0.14167660395E+03  0.60730793094E+02  0.15859060692E+03  0.00000000000E+00 0.  1.
          2    1    1    2  502    0 -0.37289291562E+02 -0.14167660395E+03  0.11320540135E+04  0.11414942142E+04  0.00000000000E+00 0. -1.
</event>
<event>
 4    1  0.6136512E+003  0.2806538E+02  0.7546771E-02  0.1437190E+00
          2   -1    0    0  502    0  0.00000000000E+00  0.00000000000E+00  0.15240314703E+04  0.15240314703E+04  0.00000000000E+00 0. -1.
          2   -1    0    0  501    0 -0.00000000000E+00 -0.00000000000E+00 -0.26065676519E+02  0.26065676519E+02  0.00000000000E+00 0.  1.
          2    1    1    2  501    0 -0.13413022459E+01  0.28033308849E+02  0.15163091680E+04  0.15165688770E+04  0.00000000000E+00 0. -1.
          2    1    1    2  502    0  0.13413022459E+01 -0.28033308849E+02 -0.18343374292E+02  0.33528269820E+02  0.00000000000E+00 0.  1.
</event>
<event>
 4    1  0.6136512E+003  0.2130284E+02  0.7546771E-02  0.1514985E+00
          2   -1    0    0  501    0  0.00000000000E+00  0.00000000000E+00  0.18170172714E+03  0.18170172714E+03  0.00000000000E+00 0.  1.
          2   -1    0    0  502    0 -0.00000000000E+00 -0.00000000000E+00 -0.35409997320E+01  0.35409997320E+01  0.00000000000E+00 0.  1.
          2    1    1    2  501    0 -0.20900648705E+02 -0.41199173118E+01  0.38801893249E+02  0.44265085052E+02  0.00000000000E+00 0.  1.
          2    1    1    2  502    0  0.20900648705E+02  0.41199173118E+01  0.13935883416E+03  0.14097764182E+03  0.00000000000E+00 0.  1.
</event>
<event>
 4    1  0.6136512E+003  0.2065332E+02  0.7546771E-02  0.1524272E+00
          2   -1    0    0  502    0  0.00000000000E+00  0.00000000000E+00  0.33728605105E+03  0.33728605105E+03  0.00000000000E+00 0.  1.
          2   -1    0    0  501    0 -0.00000000000E+00 -0.00000000000E+00 -0.38741317711E+02  0.38741317711E+02  0.00000000000E+00 0. -1.
          2    1    1    2  501    0 -0.20653067697E+02 -0.10286008180E+00  0.33419180315E+03  0.33482939100E+03  0.00000000000E+00 0.  1.
          2    1    1    2  502    0  0.20653067697E+02  0.10286008180E+00 -0.35647069810E+02  0.41197977761E+02  0.00000000000E+00 0. -1.
</event>
<event>
 4    1  0.6136512E+003  0.2403633E+02  0.7546771E-02  0.1479879E+00
          2   -1    0    0  501    0  0.00000000000E+00  0.00000000000E+00  0.93928419372E+03  0.93928419372E+03  0.00000000000E+00 0. -1.
          2   -1    0    0  502    0 -0.00000000000E+00 -0.00000000000E+00 -0.64451623625E+02  0.64451623625E+02  0.00000000000E+00 0.  1.
          2    1    1    2  501    0  0.21626842285E+02  0.10489262673E+02 -0.62051107662E+02  0.66543856973E+02  0.00000000000E+00 0.  1.
          2    1    1    2  502    0 -0.21626842285E+02 -0.10489262673E+02  0.93688367776E+03  0.93719196037E+03  0.00000000000E+00 0. -1.
</event>
<event>
 4    1  0.6136512E+003  0.3082506E+02  0.7546771E-02  0.1412559E+00
          2   -1    0    0  501    0  0.00000000000E+00  0.00000000000E+00  0.16862057785E+04  0.16862057785E+04  0.00000000000E+00 0.  1.
          2   -1    0    0  502    0 -0.00000000000E+00 -0.00000000000E+00 -0.68040240784E+00  0.68040240784E+00  0.00000000000E+00 0.  1.
          2    1    1    2  501    0 -0.15546840106E+02  0.26617293535E+02  0.49315882407E+03  0.49412125061E+03  0.00000000000E+00 0.  1.
          2    1    1    2  502    0  0.15546840106E+02 -0.26617293535E+02  0.11923665520E+04  0.11927649303E+04  0.00000000000E+00 0.  1.
</event>
<event>
 4    1  0.8522469E+003  0.4507004E+02  0.7546771E-02  0.1321090E+00
          2   -1    0    0  502    0  0.00000000000E+00  0.00000000000E+00  0.22526831710E+04  0.22526831710E+04  0.00000000000E+00 0. -1.
          2   -1    0    0  501    0 -0.00000000000E+00 -0.00000000000E+00 -0.11747386022E+04  0.11747386022E+04  0.00000000000E+00 0.  1.
          2    1    1    2  501    0 -0.23889565271E+02  0.38217762594E+02  0.22520253231E+04  0.22524762739E+04  0.00000000000E+00 0. -1.
          2    1    1    2  502    0  0.23889565271E+02 -0.38217762594E+02 -0.11740807543E+04  0.11749454993E+04  0.00000000000E+00 0.  1.
</event>
<event>
 4    1  0.6136512E+003  0.2430483E+02  0.7546771E-02  0.1476733E+00
          2   -1    0    0  501    0  0.00000000000E+00  0.00000000000E+00  0.36372005237E+03  0.36372005237E+03  0.00000000000E+00 0.  1.
          2   -1    0    0  502    0 -0.00000000000E+00 -0.00000000000E+00 -0.25130689841E+01  0.25130689841E+01  0.00000000000E+00 0. -1.
          2    1    1    2  501    0  0.98699901179E+01 -0.22210543354E+02  0.71694463217E+02  0.75702186210E+02  0.00000000000E+00 0. -1.
          2    1    1    2  502    0 -0.98699901179E+01  0.22210543354E+02  0.28951252017E+03  0.29053093514E+03  0.00000000000E+00 0.  1.
</event>
<event>
 4    1  0.6136512E+003  0.2028776E+02  0.7546771E-02  0.1529681E+00
          2   -1    0    0  501    0  0.00000000000E+00  0.00000000000E+00  0.30693234077E+02  0.30693234077E+02  0.00000000000E+00 0. -1.
          2   -1    0    0  502    0 -0.00000000000E+00 -0.00000000000E+00 -0.14732009644E+03  0.14732009644E+03  0.00000000000E+00 0.  1.
          2    1    1    2  501    0 -0.20278825780E+02 -0.60214912759E+00 -0.14317251682E+03  0.14460277636E+03  0.00000000000E+00 0.  1.
          2    1    1    2  502    0  0.20278825780E+02  0.60214912759E+00  0.26545654457E+02  0.33410554158E+02  0.00000000000E+00 0. -1.
</event>
<event>
 4    1  0.6136512E+003  0.1992715E+03  0.7546771E-02  0.1055654E+00
          2   -1    0    0  502    0  0.00000000000E+00  0.00000000000E+00  0.13660141596E+04  0.13660141596E+04  0.00000000000E+00 0. -1.
          2   -1    0    0  501    0 -0.00000000000E+00 -0.00000000000E+00 -0.57309796975E+02  0.57309796975E+02  0.00000000000E+00 0. -1.
          2    1    1    2  501    0  0.13363517011E+03 -0.14782003593E+03  0.11539208989E+04  0.11710006672E+04  0.00000000000E+00 0. -1.
          2    1    1    2  502    0 -0.13363517011E+03  0.14782003593E+03  0.15478346376E+03  0.25232328939E+03  0.00000000000E+00 0. -1.
</event>
<event>
 4    1  0.6136512E+003  0.2835553E+02  0.7546771E-02  0.1434447E+00
          2   -1    0    0  502    0  0.00000000000E+00  0.00000000000E+00  0.42564377170E+03  0.42564377170E+03  0.00000000000E+00 0.  1.
          2   -1    0    0  501    0 -0.00000000000E+00 -0.00000000000E+00 -0.27357550178E+01  0.27357550178E+01  0.00000000000E+00 0. -1.
          2    1    1    2  501    0 -0.27841552966E+02  0.53743831062E+01  0.33061717134E+03  0.33183090581E+03  0.00000000000E+00 0.  1.
          2    1    1    2  502    0  0.27841552966E+02 -0.53743831062E+01  0.92290845339E+02  0.96548620905E+02  0.00000000000E+00 0. -1.
</event>
<event>
 4    1  0.6136512E+003  0.5537209E+02  0.7546771E-02  0.1276423E+00
          2   -1    0    0  502    0  0.00000000000E+00  0.00000000000E+00  0.26102558383E+02  0.26102558383E+02  0.00000000000E+00 0. -1.
          2   -1    0    0  501    0 -0.00000000000E+00 -0.00000000000E+00 -0.24903634979E+03  0.24903634979E+03  0.00000000000E+00 0. -1.
          2    1    1    2  501    0  0.37950891676E+02 -0.40321187592E+02 -0.11472502368E+02  0.56548091554E+02  0.00000000000E+00 0. -1.
          2    1    1    2  502    0 -0.37950891676E+02  0.40321187592E+02 -0.21146128904E+03  0.21859081661E+03  0.00000000000E+00 0. -1.
</event>
<event>
 4    1  0.6136512E+003  0.2624351E+02  0.7546771E-02  0.1455359E+00
          2   -1    0    0  502    0  0.00000000000E+00  0.00000000000E+00  0.91278924731E+02  0.91278924731E+02  0.00000000000E+00 0.  1.
          2   -1    0    0  501    0 -0.00000000000E+00 -0.00000000000E+00 -0.13510778126E+04  0.13510778126E+04  0.00000000000E+00 0. -1.
          2    1    1    2  501    0  0.16753008855E+02  0.20200464509E+02  0.89262354111E+02  0.93040259745E+02  0.00000000000E+00 0.  1.
          2    1    1    2  502    0 -0.16753008855E+02 -0.20200464509E+02 -0.13490612420E+04  0.13493164776E+04  0.00000000000E+00 0. -1.
</event>
<event>
 4    1  0.6136512E+003  0.2262103E+02  0.7546771E-02  0.1497313E+00
          2   -1    0    0  502    0  0.00000000000E+00  0.00000000000E+00  0.70974230336E+02  0.70974230336E+02  0.00000000000E+00 0. -1.
          2   -1    0    0  501    0 -0.00000000000E+00 -0.00000000000E+00 -0.14311172581E+04  0.14311172581E+04  0.00000000000E+00 0. -1.
          2    1    1    2  501    0  0.22420409521E+02  0.30060392110E+01  0.69079997834E+02  0.72689456839E+02  0.00000000000E+00 0. -1.
          2    1    1    2  502    0 -0.22420409521E+02 -0.30060392110E+01 -0.14292230256E+04  0.14294020316E+04  0.00000000000E+00 0. -1.
</event>
<event>
 4    1  0.6136512E+003  0.2645570E+02  0.7546771E-02  0.1453154E+00
          2   -1    0    0  502    0  0.00000000000E+00  0.00000000000E+00  0.11915273975E+04  0.11915273975E+04  0.00000000000E+00 0.  1.
          2   -1    0    0  501    0 -0.00000000000E+00 -0.00000000000E+00 -0.42904637942E+01  0.42904637942E+01  0.00000000000E+00 0. -1.
          2    1    1    2  501    0  0.28571639994E+01  0.26300963877E+02  0.11490921302E+04  0.11493966364E+04  0.00000000000E+00 0.  1.
          2    1    1    2  502    0 -0.28571639994E+01 -0.26300963877E+02  0.38144803571E+02  0.46421224956E+02  0.00000000000E+00 0. -1.
</event>
<event>
 4    1  0.6136512E+003  0.2544781E+02  0.7546771E-02  0.1463856E+00
          2   -1    0    0  501    0  0.00000000000E+00  0.00000000000E+00  0.10138289103E+04  0.10138289103E+04  0.00000000000E+00 0. -1.
          2   -1    0    0  502    0 -0.00000000000E+00 -0.00000000000E+00 -0.64298047816E+00  0.64298047816E+00  0.00000000000E+00 0.  1.
          2    1    1    2  501    0 -0.25365188047E+02 -0.20490180404E+01  0.54769840221E+03  0.54828927677E+03  0.00000000000E+00 0. -1.
          2    1    1    2  502    0  0.25365188047E+02  0.20490180404E+01  0.46548752762E+03  0.46618261401E+03  0.00000000000E+00 0.  1.
</event>
<event>
 4    1  0.6136512E+003  0.2836795E+02  0.7546771E-02  0.1434330E+00
          2   -1    0    0  501    0  0.00000000000E+00  0.00000000000E+00  0.32514323705E+01  0.32514323705E+01  0.00000000000E+00 0. -1.
          2   -1    0    0  502    0 -0.00000000000E+00 -0.00000000000E+00 -0.24892036113E+03  0.24892036113E+03  0.00000000000E+00 0. -1.
          2    1    1    2  501    0 -0.22016100739E+02  0.17889437548E+02 -0.13234731137E+03  0.13535343178E+03  0.00000000000E+00 0. -1.
          2    1    1    2  502    0  0.22016100739E+02 -0.17889437548E+02 -0.11332161739E+03  0.11681836172E+03  0.00000000000E+00 0. -1.
</event>
<event>
 4    1  0.6136512E+003  0.4058193E+02  0.7546771E-02  0.1345109E+00
          2   -1    0    0  501    0  0.00000000000E+00  0.00000000000E+00  0.22299441937E+02  0.22299441937E+02  0.00000000000E+00 0.  1.
          2   -1    0    0  502    0 -0.00000000000E+00 -0.00000000000E+00 -0.79437049706E+03  0.79437049706E+03  0.00000000000E+00 0. -1.
          2    1    1    2  501    0  0.39636518605E+02 -0.87086064878E+01 -0.77492583106E+03  0.77598771709E+03  0.00000000000E+00 0. -1.
          2    1    1    2  502    0 -0.39636518605E+02  0.87086064878E+01  0.28547759298E+01  0.40682221912E+02  0.00000000000E+00 0.  1.
</event>
<event>
 4    1  0.6136512E+003  0.2080065E+02  0.7546771E-02  0.1522130E+00
          2   -1    0    0  501    0  0.00000000000E+00  0.00000000000E+00  0.16740030532E+04  0.16740030532E+04  0.00000000000E+00 0.  1.
          2   -1    0    0  502    0 -0.00000000000E+00 -0.00000000000E+00 -0.36217512200E+00  0.36217512200E+00  0.00000000000E+00 0.  1.
          2    1    1    2  501    0  0.99797746586E+01 -0.18250232658E+02  0.38882163971E+03  0.38937762443E+03  0.00000000000E+00 0.  1.
          2    1    1    2  502    0 -0.99797746586E+01  0.18250232658E+02  0.12848192383E+04  0.12849876039E+04  0.00000000000E+00 0.  1.
</event>
<event>
 4    1  0.6136512E+003  0.3497874E+02  0.7546771E-02  0.1380713E+00
          2   -1    0    0  502    0  0.00000000000E+00  0.00000000000E+00  0.11285241202E+03  0.11285241202E+03  0.00000000000E+00 0. -1.
          2   -1    0    0  501    0 -0.00000000000E+00 -0.00000000000E+00 -0.40983040833E+02  0.40983040833E+02  0.00000000000E+00 0.  1.
          2    1    1    2  501    0  0.33792050195E+02 -0.90337890811E+01  0.10189848052E+03  0.10773491697E+03  0.00000000000E+00 0. -1.
          2    1    1    2  502    0 -0.33792050195E+02  0.90337890811E+01 -0.30029109334E+02  0.46100535886E+02  0.00000000000E+00 0.  1.
</event>
<event>
 4    1  0.6136512E+003  0.2104451E+02  0.7546771E-02  0.1518630E+00
          2   -1    0    0  501    0  0.00000000000E+00  0.00000000000E+00  0.46183840522E+02  0.46183840522E+02  0.00000000000E+00 0. -1.
          2   -1    0    0  502    0 -0.00000000000E+00 -0.00000000000E+00 -0.19832474360E+03  0.19832474360E+03  0.00000000000E+00 0.  1.
          2    1    1    2  501    0 -0.20658377724E+02  0.40128493374E+01 -0.19533253084E+03  0.19646289505E+03  0.00000000000E+00 0.  1.
          2    1    1    2  502    0  0.20658377724E+02 -0.40128493374E+01  0.43191627756E+02  0.48045689070E+02  0.00000000000E+00 0. -1.
</event>
<event>
 4    1  0.6136512E+003  0.2798893E+02  0.7546771E-02  0.1437919E+00
          2   -1    0    0  501    0  0.00000000000E+00  0.00000000000E+00  0.19650673055E+01  0.19650673055E+01  0.00000000000E+00 0. -1.
          2   -1    0    0  502    0 -0.00000000000E+00 -0.00000000000E+00 -0.70984823519E+03  0.70984823519E+03  0.00000000000E+00 0.  1.
          2    1    1    2  501    0  0.27051387328E+02 -0.71834815342E+01 -0.58959287575E+03  0.59025684163E+03  0.00000000000E+00 0.  1.
          2    1    1    2  502    0 -0.27051387328E+02  0.71834815342E+01 -0.11829029213E+03  0.12155646086E+03  0.00000000000E+00 0. -1.
</event>
<event>
 4    1  0.6136512E+003  0.3191699E+02  0.7546771E-02  0.1403638E+00
          2   -1    0    0  501    0  0.00000000000E+00  0.00000000000E+00  0.24070147690E+03  0.24070147690E+03  0.00000000000E+00 0.  1.
          2   -1    0    0  502    0 -0.00000000000E+00 -0.00000000000E+00 -0.53464805675E+03  0.53464805675E+03  0.00000000000E+00 0. -1.
          2    1    1    2  501    0  0.24286337193E+02 -0.20709126471E+02 -0.53311062236E+03  0.53406519243E+03  0.00000000000E+00 0. -1.
          2    1    1    2  502    0 -0.24286337193E+02  0.20709126471E+02  0.23916404251E+03  0.24128434123E+03  0.00000000000E+00 0.  1.
</event>
<event>
 4    1  0.6136512E+003  0.2417073E+02  0.7546771E-02  0.1478298E+00
          2   -1    0    0  502    0  0.00000000000E+00  0.00000000000E+00  0.17350605725E+04  0.17350605725E+04  0.00000000000E+00 0. -1.
          2   -1    0    0  501    0 -0.00000000000E+00 -0.00000000000E+00 -0.33190919433E+01  0.33190919433E+01  0.00000000000E+00 0. -1.
          2    1    1    2  501    0  0.20955312272E+02 -0.12045710278E+02  0.16897927845E+04  0.16899656443E+04  0.00000000000E+00 0. -1.
          2    1    1    2  502    0 -0.20955312272E+02  0.12045710278E+02  0.41948696025E+02  0.48414020147E+02  0.00000000000E+00 0. -1.
</event>
<event>
 4    1  0.6136512E+003  0.2624653E+02  0.7546771E-02  0.1455327E+00
          2   -1    0    0  501    0  0.00000000000E+00  0.00000000000E+00  0.19913697330E+03  0.19913697330E+03  0.00000000000E+00 0.  1.
          2   -1    0    0  502    0 -0.00000000000E+00 -0.00000000000E+00 -0.14256188825E+04  0.14256188825E+04  0.00000000000E+00 0. -1.
          2    1    1    2  501    0 -0.22064357374E+02 -0.14214238215E+02 -0.14246326477E+04  0.14248744020E+04  0.00000000000E+00 0. -1.
          2    1    1    2  502    0  0.22064357374E+02  0.14214238215E+02  0.19815073849E+03  0.19988145386E+03  0.00000000000E+00 0.  1.
</event>
<event>
 4    1  0.6136512E+003  0.3127959E+02  0.7546771E-02  0.1408793E+00
          2   -1    0    0  502    0  0.00000000000E+00  0.00000000000E+00  0.17861049160E+04  0.17861049160E+04  0.00000000000E+00 0.  1.
          2   -1    0    0  501    0 -0.00000000000E+00 -0.00000000000E+00 -0.11288067478E+02  0.11288067478E+02  0.00000000000E+00 0.  1.
          2    1    1    2  501    0  0.14194188780E+02  0.27873598868E+02  0.17640276171E+04  0.17643049188E+04  0.00000000000E+00 0.  1.
          2    1    1    2  502    0 -0.14194188780E+02 -0.27873598868E+02  0.10789231369E+02  0.33088064653E+02  0.00000000000E+00 0.  1.
</event>
<event>
 4    1  0.6136512E+003  0.3274896E+02  0.7546771E-02  0.1397119E+00
          2   -1    0    0  501    0  0.00000000000E+00  0.00000000000E+00  0.66580278074E+03  0.66580278074E+03  0.00000000000E+00 0.  1.
          2   -1    0    0  502    0 -0.00000000000E+00 -0.00000000000E+00 -0.60653899831E+01  0.60653899831E+01  0.00000000000E+00 0.  1.
          2    1    1    2  501    0 -0.32668018558E+02 -0.23010765385E+01  0.41978308158E+02  0.53241644842E+02  0.00000000000E+00 0.  1.
          2    1    1    2  502    0  0.32668018558E+02  0.23010765385E+01  0.61775908260E+03  0.61862652588E+03  0.00000000000E+00 0.  1.
</event>
<event>
 4    1  0.6136512E+003  0.3150053E+02  0.7546771E-02  0.1406990E+00
          2   -1    0    0  501    0  0.00000000000E+00  0.00000000000E+00  0.11611049251E+04  0.11611049251E+04  0.00000000000E+00 0.  1.
          2   -1    0    0  502    0 -0.00000000000E+00 -0.00000000000E+00 -0.27386590547E+01  0.27386590547E+01  0.00000000000E+00 0.  1.
          2    1    1    2  501    0 -0.38149425307E+01 -0.31268671032E+02  0.96521737399E+02  0.10153191304E+03  0.00000000000E+00 0.  1.
          2    1    1    2  502    0  0.38149425307E+01  0.31268671032E+02  0.10618445286E+04  0.10623116711E+04  0.00000000000E+00 0.  1.
</event>
<event>
 4    1  0.6136512E+003  0.2212290E+02  0.7546771E-02  0.1503816E+00
          2   -1    0    0  501    0  0.00000000000E+00  0.00000000000E+00  0.77292153146E+01  0.77292153146E+01  0.00000000000E+00 0.  1.
          2   -1    0    0  502    0 -0.00000000000E+00 -0.00000000000E+00 -0.40331554332E+03  0.40331554332E+03  0.00000000000E+00 0.  1.
          2    1    1    2  501    0  0.20484542534E+02  0.83550245365E+01 -0.38649342786E+03  0.38712606822E+03  0.00000000000E+00 0.  1.
          2    1    1    2  502    0 -0.20484542534E+02 -0.83550245365E+01 -0.90929001399E+01  0.23918690407E+02  0.00000000000E+00 0.  1.
</event>
<event>
 4    1  0.6136512E+003  0.2543546E+02  0.7546771E-02  0.1463990E+00
          2   -1    0    0  501    0  0.00000000000E+00  0.00000000000E+00  0.71397795382E+01  0.71397795382E+01  0.00000000000E+00 0. -1.
          2   -1    0    0  502    0 -0.00000000000E+00 -0.00000000000E+00 -0.61993427908E+03  0.61993427908E+03  0.00000000000E+00 0.  1.
          2    1    1    2  501    0  0.67978808255E+01  0.24510234354E+02 -0.59611516378E+03  0.59665756616E+03  0.00000000000E+00 0.  1.
          2    1    1    2  502    0 -0.67978808255E+01 -0.24510234354E+02 -0.16679335763E+02  0.30416492456E+02  0.00000000000E+00 0. -1.
</event>
<event>
 4    1  0.6136512E+003  0.2242093E+02  0.7546771E-02  0.1499900E+00
          2   -1    0    0  501    0  0.00000000000E+00  0.00000000000E+00  0.26906523550E+03  0.26906523550E+03  0.00000000000E+00 0.  1.
          2   -1    0    0  502    0 -0.00000000000E+00 -0.00000000000E+00 -0.44347185698E+01  0.44347185698E+01  0.00000000000E+00 0. -1.
          2    1    1    2  501    0 -0.12870368114E+02  0.18358964802E+02  0.28285662904E+02  0.36093997976E+02  0.00000000000E+00 0. -1.
          2    1    1    2  502    0  0.12870368114E+02 -0.18358964802E+02  0.23634485403E+03  0.23740595610E+03  0.00000000000E+00 0.  1.
</event>
<event>
 4    1  0.6136512E+003  0.2079325E+02  0.7546771E-02  0.1522237E+00
          2   -1    0    0  502    0  0.00000000000E+00  0.00000000000E+00  0.12132665282E+04  0.12132665282E+04  0.00000000000E+00 0.  1.
          2   -1    0    0  501    0 -0.00000000000E+00 -0.00000000000E+00 -0.11528366895E+01  0.11528366895E+01  0.00000000000E+00 0.  1.
          2    1    1    2  501    0 -0.30185283185E+00  0.20791054764E+02  0.11107663232E+04  0.11109609281E+04  0.00000000000E+00 0.  1.
          2    1    1    2  502    0  0.30185283185E+00 -0.20791054764E+02  0.10134736826E+03  0.10345843671E+03  0.00000000000E+00 0.  1.
</event>
<event>
 4    1  0.6136512E+003  0.4156208E+02  0.7546771E-02  0.1339567E+00
          2   -1    0    0  502    0  0.00000000000E+00  0.00000000000E+00  0.85233279400E+03  0.85233279400E+03  0.00000000000E+00 0. -1.
          2   -1    0    0  501    0 -0.00000000000E+00 -0.00000000000E+00 -0.70812756946E+01  0.70812756946E+01  0.00000000000E+00 0. -1.
          2    1    1    2  501    0  0.37573255961E+02  0.17766735661E+02  0.78567028431E+03  0.78676883651E+03  0.00000000000E+00 0. -1.
          2    1    1    2  502    0 -0.37573255961E+02 -0.17766735661E+02  0.59581233993E+02  0.72645233180E+02  0.00000000000E+00 0. -1.
</event>
<event>
 4    1  0.6136512E+003  0.4245114E+02  0.7546771E-02  0.1334691E+00
          2   -1    0    0  501    0  0.00000000000E+00  0.00000000000E+00  0.22777582238E+02  0.22777582238E+02  0.00000000000E+00 0.  1.
          2   -1    0    0  502    0 -0.00000000000E+00 -0.00000000000E+00 -0.37112667282E+03  0.37112667282E+03  0.00000000000E+00 0. -1.
          2    1    1    2  501    0  0.24715102211E+02 -0.34514680642E+02 -0.34887660783E+03  0.35144983560E+03  0.00000000000E+00 0. -1.
          2    1    1    2  502    0 -0.24715102211E+02  0.34514680642E+02  0.52751724014E+00  0.42454419459E+02  0.00000000000E+00 0.  1.
</event>
<event>
 4    1  0.6136512E+003  0.2203480E+02  0.7546771E-02  0.1504987E+00
          2   -1    0    0  502    0  0.00000000000E+00  0.00000000000E+00  0.39213457837E+03  0.39213457837E+03  0.00000000000E+00 0.  1.
          2   -1    0    0  501    0 -0.00000000000E+00 -0.00000000000E+00 -0.46341021653E+01  0.46341021653E+01  0.00000000000E+00 0.  1.
          2    1    1    2  501    0  0.17806254792E+02 -0.12979594824E+02  0.36357599045E+03  0.36424309660E+03  0.00000000000E+00 0.  1.
          2    1    1    2  502    0 -0.17806254792E+02  0.12979594824E+02  0.23924485756E+02  0.32525583933E+02  0.00000000000E+00 0.  1.
</event>
<event>
 4    1  0.6136512E+003  0.3805025E+02  0.7546771E-02  0.1360306E+00
          2   -1    0    0  502    0  0.00000000000E+00  0.00000000000E+00  0.81491948559E+01  0.81491948559E+01  0.00000000000E+00 0. -1.
          2   -1    0    0  501    0 -0.00000000000E+00 -0.00000000000E+00 -0.19405779955E+03  0.19405779955E+03  0.00000000000E+00 0. -1.
          2    1    1    2  501    0  0.13207384926E+02 -0.35684546539E+02 -0.63568670363E+02  0.74086420685E+02  0.00000000000E+00 0. -1.
          2    1    1    2  502    0 -0.13207384926E+02  0.35684546539E+02 -0.12233993433E+03  0.12812057372E+03  0.00000000000E+00 0. -1.
</event>
<event>
 4    1  0.6136512E+003  0.3673380E+02  0.7546771E-02  0.1368767E+00
          2   -1    0    0  502    0  0.00000000000E+00  0.00000000000E+00  0.92781743111E+02  0.92781743111E+02  0.00000000000E+00 0.  1.
          2   -1    0    0  501    0 -0.00000000000E+00 -0.00000000000E+00 -0.69352458901E+02  0.69352458901E+02  0.00000000000E+00 0. -1.
          2    1    1    2  501    0  0.14463150883E+02 -0.33766685172E+02  0.83782143763E+02  0.91481251492E+02  0.00000000000E+00 0.  1.
          2    1    1    2  502    0 -0.14463150883E+02  0.33766685172E+02 -0.60352859553E+02  0.70652950520E+02  0.00000000000E+00 0. -1.
</event>
<event>
 4    1  0.6136512E+003  0.4340842E+02  0.7546771E-02  0.1329592E+00
          2   -1    0    0  501    0  0.00000000000E+00  0.00000000000E+00  0.49642034942E+02  0.49642034942E+02  0.00000000000E+00 0.  1.
          2   -1    0    0  502    0 -0.00000000000E+00 -0.00000000000E+00 -0.29018072254E+04  0.29018072254E+04  0.00000000000E+00 0. -1.
          2    1    1    2  501    0 -0.27695296844E+02  0.33425459504E+02 -0.28921237254E+04  0.28924494695E+04  0.00000000000E+00 0. -1.
          2    1    1    2  502    0  0.27695296844E+02 -0.33425459504E+02  0.39958534891E+02  0.58999790855E+02  0.00000000000E+00 0.  1.
</event>
<event>
 4    1  0.6136512E+003  0.3131824E+02  0.7546771E-02  0.1408477E+00
          2   -1    0    0  501    0  0.00000000000E+00  0.00000000000E+00  0.55747461074E+02  0.55747461074E+02  0.00000000000E+00 0. -1.
          2   -1    0    0  502    0 -0.00000000000E+00 -0.00000000000E+00 -0.15017372750E+03  0.15017372750E+03  0.00000000000E+00 0. -1.
          2    1    1    2  501    0 -0.30390016504E+02 -0.75683007505E+01 -0.14395451472E+03  0.14732187410E+03  0.00000000000E+00 0. -1.
          2    1    1    2  502    0  0.30390016504E+02  0.75683007505E+01  0.49528248288E+02  0.58599314483E+02  0.00000000000E+00 0. -1.
</event>
<event>
 4    1  0.6136512E+003  0.2243724E+02  0.7546771E-02  0.1499688E+00
          2   -1    0    0  502    0  0.00000000000E+00  0.00000000000E+00  0.14324354386E+02  0.14324354386E+02  0.00000000000E+00 0. -1.
          2   -1    0    0  501    0 -0.00000000000E+00 -0.00000000000E+00 -0.67136724720E+02  0.67136724720E+02  0.00000000000E+00 0.  1.
          2    1    1    2  501    0 -0.18262158282E+02 -0.13035461590E+02  0.17101555217E+01  0.22502318012E+02  0.00000000000E+00 0. -1.
          2    1    1    2  502    0  0.18262158282E+02  0.13035461590E+02 -0.54522525857E+02  0.58958761094E+02  0.00000000000E+00 0.  1.
</event>
<event>
 4    1  0.6136512E+003  0.2240772E+02  0.7546771E-02  0.1500072E+00
          2   -1    0    0  501    0  0.00000000000E+00  0.00000000000E+00  0.17129456575E+02  0.17129456575E+02  0.00000000000E+00 0. -1.
          2   -1    0    0  502    0 -0.00000000000E+00 -0.00000000000E+00 -0.10371900566E+04  0.10371900566E+04  0.00000000000E+00 0.  1.
          2    1    1    2  501    0 -0.14207135717E+02  0.17328101525E+02 -0.10296875386E+04  0.10299313244E+04  0.00000000000E+00 0.  1.
          2    1    1    2  502    0  0.14207135717E+02 -0.17328101525E+02  0.96269385484E+01  0.24388188813E+02  0.00000000000E+00 0. -1.
</event>
<event>
 4    1  0.6136512E+003  0.3518499E+02  0.7546771E-02  0.1379267E+00
          2   -1    0    0  501    0  0.00000000000E+00  0.00000000000E+00  0.21592891865E+04  0.21592891865E+04  0.00000000000E+00 0. -1.
          2   -1    0    0  502    0 -0.00000000000E+00 -0.00000000000E+00 -0.14990931399E+01  0.14990931399E+01  0.00000000000E+00 0. -1.
          2    1    1    2  501    0 -0.15355680337E+02  0.31657325767E+02  0.22987473660E+03  0.23255188178E+03  0.00000000000E+00 0. -1.
          2    1    1    2  502    0  0.15355680337E+02 -0.31657325767E+02  0.19279153568E+04  0.19282363979E+04  0.00000000000E+00 0. -1.
</event>
<event>
 4    1  0.6136512E+003  0.2129997E+02  0.7546771E-02  0.1515025E+00
          2   -1    0    0  501    0  0.00000000000E+00  0.00000000000E+00  0.13377376301E+04  0.13377376301E+04  0.00000000000E+00 0.  1.
          2   -1    0    0  502    0 -0.00000000000E+00 -0.00000000000E+00 -0.41615142924E+01  0.41615142924E+01  0.00000000000E+00 0.  1.
          2    1    1    2  501    0  0.21295329543E+02 -0.44451218808E+00  0.23759238207E+02  0.31909090423E+02  0.00000000000E+00 0.  1.
          2    1    1    2  502    0 -0.21295329543E+02  0.44451218808E+00  0.13098168776E+04  0.13099900540E+04  0.00000000000E+00 0.  1.
</event>
<event>
 4    1  0.6136512E+003  0.2294281E+02  0.7546771E-02  0.1493217E+00
          2   -1    0    0  501    0  0.00000000000E+00  0.00000000000E+00  0.96918296239E+03  0.96918296239E+03  0.00000000000E+00 0.  1.
          2   -1    0    0  502    0 -0.00000000000E+00 -0.00000000000E+00 -0.77165899763E+01  0.77165899763E+01  0.00000000000E+00 0. -1.
          2    1    1    2  501    0  0.20116325486E+02 -0.11032050462E+02  0.97860543390E+01  0.24942725352E+02  0.00000000000E+00 0. -1.
          2    1    1    2  502    0 -0.20116325486E+02  0.11032050462E+02  0.95168031807E+03  0.95195682701E+03  0.00000000000E+00 0.  1.
</event>
<event>
 4    1  0.6136512E+003  0.2217973E+02  0.7546771E-02  0.1503063E+00
          2   -1    0    0  501    0  0.00000000000E+00  0.00000000000E+00  0.12605408821E+04  0.12605408821E+04  0.00000000000E+00 0. -1.
          2   -1    0    0  502    0 -0.00000000000E+00 -0.00000000000E+00 -0.13129418988E+01  0.13129418988E+01  0.00000000000E+00 0. -1.
          2    1    1    2  501    0 -0.21744610573E+02  0.43717709412E+01  0.10070374191E+03  0.10311733174E+03  0.00000000000E+00 0. -1.
          2    1    1    2  502    0  0.21744610573E+02 -0.43717709412E+01  0.11585241983E+04  0.11587364922E+04  0.00000000000E+00 0. -1.
</event>
<event>
 4    1  0.6136512E+003  0.2401018E+02  0.7546771E-02  0.1480188E+00
          2   -1    0    0  501    0  0.00000000000E+00  0.00000000000E+00  0.14894250658E+04  0.14894250658E+04  0.00000000000E+00 0. -1.
          2   -1    0    0  502    0 -0.00000000000E+00 -0.00000000000E+00 -0.36055993634E+02  0.36055993634E+02  0.00000000000E+00 0. -1.
          2    1    1    2  501    0 -0.21501255285E+02  0.10685729469E+02 -0.31951006418E+02  0.39966931383E+02  0.00000000000E+00 0. -1.
          2    1    1    2  502    0  0.21501255285E+02 -0.10685729469E+02  0.14853200786E+04  0.14855141280E+04  0.00000000000E+00 0. -1.
</event>
<event>
 4    1  0.6136512E+003  0.5361218E+02  0.7546771E-02  0.1283228E+00
          2   -1    0    0  502    0  0.00000000000E+00  0.00000000000E+00  0.73544106377E+03  0.73544106377E+03  0.00000000000E+00 0. -1.
          2   -1    0    0  501    0 -0.00000000000E+00 -0.00000000000E+00 -0.76790150271E+01  0.76790150271E+01  0.00000000000E+00 0. -1.
          2    1    1    2  501    0 -0.43257443979E+02 -0.31671108515E+02  0.62425207561E+03  0.62655001355E+03  0.00000000000E+00 0. -1.
          2    1    1    2  502    0  0.43257443979E+02  0.31671108515E+02  0.10350997313E+03  0.11657006525E+03  0.00000000000E+00 0. -1.
</event>
<event>
 4    1  0.6136512E+003  0.4528985E+02  0.7546771E-02  0.1319996E+00
          2   -1    0    0  502    0  0.00000000000E+00  0.00000000000E+00  0.11013099270E+03  0.11013099270E+03  0.00000000000E+00 0. -1.
          2   -1    0    0  501    0 -0.00000000000E+00 -0.00000000000E+00 -0.29269213519E+02  0.29269213519E+02  0.00000000000E+00 0.  1.
          2    1    1    2  501    0 -0.93754703783E+01  0.44308812522E+02  0.82463685748E+02  0.94082037494E+02  0.00000000000E+00 0. -1.
          2    1    1    2  502    0  0.93754703783E+01 -0.44308812522E+02 -0.16019065668E+01  0.45318168725E+02  0.00000000000E+00 0.  1.
</event>
<event>
 4    1  0.6136512E+003  0.5479527E+02  0.7546771E-02  0.1278621E+00
          2   -1    0    0  501    0  0.00000000000E+00  0.00000000000E+00  0.27604825089E+04  0.27604825089E+04  0.00000000000E+00 0.  1.
          2   -1    0    0  502    0 -0.00000000000E+00 -0.00000000000E+00 -0.19368244024E+03  0.19368244024E+03  0.00000000000E+00 0.  1.
          2    1    1    2  501    0  0.16246241578E+02 -0.52331458621E+02 -0.18952910770E+03  0.19729116704E+03  0.00000000000E+00 0.  1.
          2    1    1    2  502    0 -0.16246241578E+02  0.52331458621E+02  0.27563291764E+04  0.27568737821E+04  0.00000000000E+00 0.  1.
</event>
<event>
 4    1  0.6136512E+003  0.4544195E+02  0.7546771E-02  0.1319244E+00
          2   -1    0    0  502    0  0.00000000000E+00  0.00000000000E+00  0.27831176956E+04  0.27831176956E+04  0.00000000000E+00 0. -1.
          2   -1    0    0  501    0 -0.00000000000E+00 -0.00000000000E+00 -0.96938506013E+00  0.96938506013E+00  0.00000000000E+00 0.  1.
          2    1    1    2  501    0 -0.42625212760E+02 -0.15749994714E+02  0.20653237569E+04  0.20658236110E+04  0.00000000000E+00 0. -1.
          2    1    1    2  502    0  0.42625212760E+02  0.15749994714E+02  0.71682455370E+03  0.71826346969E+03  0.00000000000E+00 0.  1.
</event>
<event>
 4    1  0.6136512E+003  0.2265919E+02  0.7546771E-02  0.1496823E+00
          2   -1    0    0  501    0  0.00000000000E+00  0.00000000000E+00  0.19966164980E+02  0.19966164980E+02  0.00000000000E+00 0. -1.
          2   -1    0    0  502    0 -0.00000000000E+00 -0.00000000000E+00 -0.13158268150E+04  0.13158268150E+04  0.00000000000E+00 0.  1.
          2    1    1    2  501    0 -0.20094753913E+02  0.10470894362E+02 -0.13092682017E+04  0.13094642655E+04  0.00000000000E+00 0.  1.
          2    1    1    2  502    0  0.20094753913E+02 -0.10470894362E+02  0.13407551655E+02  0.26328714457E+02  0.00000000000E+00 0. -1.
</event>
<event>
 4    1  0.6136512E+003  0.2384877E+02  0.7546771E-02  0.1482107E+00
          2   -1    0    0  501    0  0.00000000000E+00  0.00000000000E+00  0.15902523083E+04  0.15902523083E+04  0.00000000000E+00 0.  1.
          2   -1    0    0  502    0 -0.00000000000E+00 -0.00000000000E+00 -0.15934454157E+01  0.15934454157E+01  0.00000000000E+00 0.  1.
          2    1    1    2  501    0 -0.22013261650E+02 -0.91749641109E+01  0.93399531635E+02  0.96396245594E+02  0.00000000000E+00 0.  1.
          2    1    1    2  502    0  0.22013261650E+02  0.91749641109E+01  0.14952593313E+04  0.14954495082E+04  0.00000000000E+00 0.  1.
</event>
<event>
 4    1  0.6136512E+003  0.3632530E+02  0.7546771E-02  0.1371478E+00
          2   -1    0    0  502    0  0.00000000000E+00  0.00000000000E+00  0.30904301733E+03  0.30904301733E+03  0.00000000000E+00 0.  1.
          2   -1    0    0  501    0 -0.00000000000E+00 -0.00000000000E+00 -0.48728412514E+01  0.48728412514E+01  0.00000000000E+00 0.  1.
          2    1    1    2  501    0 -0.25993777418E+02  0.25374214166E+02  0.20730483069E+03  0.21046334606E+03  0.00000000000E+00 0.  1.
          2    1    1    2  502    0  0.25993777418E+02 -0.25374214166E+02  0.96865345391E+02  0.10345251252E+03  0.00000000000E+00 0.  1.
</event>
<event>
 4    1  0.6136512E+003  0.1467294E+03  0.7546771E-02  0.1101017E+00
          2   -1    0    0  501    0  0.00000000000E+00  0.00000000000E+00  0.36180008573E+03  0.36180008573E+03  0.00000000000E+00 0.  1.
          2   -1    0    0  502    0 -0.00000000000E+00 -0.00000000000E+00 -0.11544117674E+04  0.11544117674E+04  0.00000000000E+00 0.  1.
          2    1    1    2  501    0  0.13973569007E+03 -0.44759820561E+02 -0.11346141661E+04  0.11440624154E+04  0.00000000000E+00 0.  1.
          2    1    1    2  502    0 -0.13973569007E+03  0.44759820561E+02  0.34200248441E+03  0.37214943767E+03  0.00000000000E+00 0.  1.
</event>
<event>
 4    1  0.6136512E+003  0.2012155E+02  0.7546771E-02  0.1532186E+00
          2   -1    0    0  501    0  0.00000000000E+00  0.00000000000E+00  0.42973670667E+01  0.42973670667E+01  0.00000000000E+00 0.  1.
          2   -1    0    0  502    0 -0.00000000000E+00 -0.00000000000E+00 -0.78909818219E+03  0.78909818219E+03  0.00000000000E+00 0. -1.
          2    1    1    2  501    0 -0.11392248056E+02 -0.16585946139E+02 -0.76466360885E+03  0.76492830490E+03  0.00000000000E+00 0. -1.
          2    1    1    2  502    0  0.11392248056E+02  0.16585946139E+02 -0.20137206266E+02  0.28467244358E+02  0.00000000000E+00 0.  1.
</event>
<event>
 4    1  0.6136512E+003  0.2189145E+02  0.7546771E-02  0.1506908E+00
          2   -1    0    0  502    0  0.00000000000E+00  0.00000000000E+00  0.65089930320E+03  0.65089930320E+03  0.00000000000E+00 0.  1.
          2   -1    0    0  501    0 -0.00000000000E+00 -0.00000000000E+00 -0.95489489068E+02  0.95489489068E+02  0.00000000000E+00 0. -1.
          2    1    1    2  501    0 -0.34970278537E+01 -0.21610331667E+02  0.64945777072E+03  0.64982661656E+03  0.00000000000E+00 0.  1.
          2    1    1    2  502    0  0.34970278537E+01  0.21610331667E+02 -0.94047956590E+02  0.96562175708E+02  0.00000000000E+00 0. -1.
</event>
<event>
 4    1  0.6136512E+003  0.2566090E+02  0.7546771E-02  0.1461544E+00
          2   -1    0    0  501    0  0.00000000000E+00  0.00000000000E+00  0.12962462077E+04  0.12962462077E+04  0.00000000000E+00 0. -1.
          2   -1    0    0  502    0 -0.00000000000E+00 -0.00000000000E+00 -0.20985760297E+03  0.20985760297E+03  0.00000000000E+00 0. -1.
          2    1    1    2  501    0  0.18158594274E+02  0.18131381722E+02 -0.20894561444E+03  0.21051544205E+03  0.00000000000E+00 0. -1.
          2    1    1    2  502    0 -0.18158594274E+02 -0.18131381722E+02  0.12953342192E+04  0.12955883686E+04  0.00000000000E+00 0. -1.
</event>
<event>
 4    1  0.6136512E+003  0.2061047E+02  0.7546771E-02  0.1524900E+00
          2   -1    0    0  501    0  0.00000000000E+00  0.00000000000E+00  0.19667396675E+02  0.19667396675E+02  0.00000000000E+00 0.  1.
          2   -1    0    0  502    0 -0.00000000000E+00 -0.00000000000E+00 -0.55983916101E+02  0.55983916101E+02  0.00000000000E+00 0.  1.
          2    1    1    2  501    0 -0.19345971036E+02  0.71080824758E+01 -0.47802499642E+02  0.52056415587E+02  0.00000000000E+00 0.  1.
          2    1    1    2  502    0  0.19345971036E+02 -0.71080824758E+01  0.11485980215E+02  0.23594897188E+02  0.00000000000E+00 0.  1.
</event>
<event>
 4    1  0.6136512E+003  0.2091442E+02  0.7546771E-02  0.1520490E+00
          2   -1    0    0  502    0  0.00000000000E+00  0.00000000000E+00  0.83903878024E+01  0.83903878024E+01  0.00000000000E+00 0. -1.
          2   -1    0    0  501    0 -0.00000000000E+00 -0.00000000000E+00 -0.71402468247E+03  0.71402468247E+03  0.00000000000E+00 0.  1.
          2    1    1    2  501    0 -0.19695180611E+02 -0.70365408525E+01 -0.50458224311E+01  0.21514492104E+02  0.00000000000E+00 0. -1.
          2    1    1    2  502    0  0.19695180611E+02  0.70365408525E+01 -0.70058847223E+03  0.70090057816E+03  0.00000000000E+00 0.  1.
</event>
<event>
 4    1  0.6136512E+003  0.2880459E+02  0.7546771E-02  0.1430277E+00
          2   -1    0    0  502    0  0.00000000000E+00  0.00000000000E+00  0.75181537894E+02  0.75181537894E+02  0.00000000000E+00 0. -1.
          2   -1    0    0  501    0 -0.00000000000E+00 -0.00000000000E+00 -0.13317264255E+02  0.13317264255E+02  0.00000000000E+00 0. -1.
          2    1    1    2  501    0  0.17106768750E+02 -0.23174615518E+02  0.49246278090E+02  0.57051733078E+02  0.00000000000E+00 0. -1.
          2    1    1    2  502    0 -0.17106768750E+02  0.23174615518E+02  0.12617995549E+02  0.31447069071E+02  0.00000000000E+00 0. -1.
</event>
<event>
 4    1  0.6136512E+003  0.3184758E+02  0.7546771E-02  0.1404193E+00
          2   -1    0    0  502    0  0.00000000000E+00  0.00000000000E+00  0.97182813058E+03  0.97182813058E+03  0.00000000000E+00 0.  1.
          2   -1    0    0  501    0 -0.00000000000E+00 -0.00000000000E+00 -0.19765765042E+01  0.19765765042E+01  0.00000000000E+00 0.  1.
          2    1    1    2  501    0 -0.81610776828E+01  0.30784168478E+02  0.81943187212E+03  0.82005052361E+03  0.00000000000E+00 0.  1.
          2    1    1    2  502    0  0.81610776828E+01 -0.30784168478E+02  0.15041968196E+03  0.15375418348E+03  0.00000000000E+00 0.  1.
</event>
<event>
 4    1  0.6136512E+003  0.2011423E+02  0.7546771E-02  0.1532297E+00
          2   -1    0    0  502    0  0.00000000000E+00  0.00000000000E+00  0.78544280643E+02  0.78544280643E+02  0.00000000000E+00 0.  1.
          2   -1    0    0  501    0 -0.00000000000E+00 -0.00000000000E+00 -0.60580150210E+01  0.60580150210E+01  0.00000000000E+00 0. -1.
          2    1    1    2  501    0 -0.78610742539E+01  0.18514479443E+02  0.52610982735E+02  0.56324931796E+02  0.00000000000E+00 0.  1.
          2    1    1    2  502    0  0.78610742539E+01 -0.18514479443E+02  0.19875282888E+02  0.28277363868E+02  0.00000000000E+00 0. -1.
</event>
<event>
 4    1  0.6136512E+003  0.2739972E+02  0.7546771E-02  0.1443634E+00
          2   -1    0    0  501    0  0.00000000000E+00  0.00000000000E+00  0.11656252222E+04  0.11656252222E+04  0.00000000000E+00 0. -1.
          2   -1    0    0  502    0 -0.00000000000E+00 -0.00000000000E+00 -0.99507104696E+01  0.99507104696E+01  0.00000000000E+00 0. -1.
          2    1    1    2  501    0  0.26301138935E+02 -0.76807874819E+01  0.93900833763E+01  0.28964082438E+02  0.00000000000E+00 0. -1.
          2    1    1    2  502    0 -0.26301138935E+02  0.76807874819E+01  0.11462844284E+04  0.11466118503E+04  0.00000000000E+00 0. -1.
</event>
<event>
 4    1  0.6136512E+003  0.2227970E+02  0.7546771E-02  0.1501747E+00
          2   -1    0    0  502    0  0.00000000000E+00  0.00000000000E+00  0.12638950626E+01  0.12638950626E+01  0.00000000000E+00 0. -1.
          2   -1    0    0  501    0 -0.00000000000E+00 -0.00000000000E+00 -0.51896750762E+03  0.51896750762E+03  0.00000000000E+00 0.  1.
          2    1    1    2  501    0 -0.16788573310E+02 -0.14646808922E+02 -0.13056874208E+03  0.13245596103E+03  0.00000000000E+00 0. -1.
          2    1    1    2  502    0  0.16788573310E+02  0.14646808922E+02 -0.38713487048E+03  0.38777544165E+03  0.00000000000E+00 0.  1.
</event>
<event>
 4    1  0.6136512E+003  0.2250118E+02  0.7546771E-02  0.1498859E+00
          2   -1    0    0  501    0  0.00000000000E+00  0.00000000000E+00  0.72900824046E+03  0.72900824046E+03  0.00000000000E+00 0. -1.
          2   -1    0    0  502    0 -0.00000000000E+00 -0.00000000000E+00 -0.23534036065E+03  0.23534036065E+03  0.00000000000E+00 0.  1.
          2    1    1    2  501    0 -0.16358509260E+02  0.15449986933E+02 -0.23462836653E+03  0.23570484361E+03  0.00000000000E+00 0.  1.
          2    1    1    2  502    0  0.16358509260E+02 -0.15449986933E+02  0.72829624633E+03  0.72864375750E+03  0.00000000000E+00 0. -1.
</event>
<event>
 4    1  0.6136512E+003  0.2829306E+02  0.7546771E-02  0.1435034E+00
          2   -1    0    0  501    0  0.00000000000E+00  0.00000000000E+00  0.40740334506E+03  0.40740334506E+03  0.00000000000E+00 0.  1.
          2   -1    0    0  502    0 -0.00000000000E+00 -0.00000000000E+00 -0.57699237176E+01  0.57699237176E+01  0.00000000000E+00 0.  1.
          2    1    1    2  501    0 -0.11397157266E+02 -0.25895983250E+02  0.33053308004E+02  0.43508830278E+02  0.00000000000E+00 0.  1.
          2    1    1    2  502    0  0.11397157266E+02  0.25895983250E+02  0.36858011334E+03  0.36966443850E+03  0.00000000000E+00 0.  1.
</event>
<event>
 4    1  0.6136512E+003  0.2124994E+02  0.7546771E-02  0.1515726E+00
          2   -1    0    0  501    0  0.00000000000E+00  0.00000000000E+00  0.15099883225E+02  0.15099883225E+02  0.00000000000E+00 0. -1.
          2   -1    0    0  502    0 -0.00000000000E+00 -0.00000000000E+00 -0.47927241506E+02  0.47927241506E+02  0.00000000000E+00 0. -1.
          2    1    1    2  501    0  0.64027667672E+01  0.20262386940E+02 -0.35738367082E+02  0.41578728077E+02  0.00000000000E+00 0. -1.
          2    1    1    2  502    0 -0.64027667672E+01 -0.20262386940E+02  0.29110088022E+01  0.21448396654E+02  0.00000000000E+00 0. -1.
</event>
<event>
 4    1  0.6136512E+003  0.3000988E+02  0.7546771E-02  0.1419511E+00
          2   -1    0    0  501    0  0.00000000000E+00  0.00000000000E+00  0.16310850623E+03  0.16310850623E+03  0.00000000000E+00 0.  1.
          2   -1    0    0  502    0 -0.00000000000E+00 -0.00000000000E+00 -0.12102277958E+02  0.12102277958E+02  0.00000000000E+00 0.  1.
          2    1    1    2  501    0 -0.13694472014E+02  0.26703072992E+02  0.10902282448E+02  0.31928865209E+02  0.00000000000E+00 0.  1.
          2    1    1    2  502    0  0.13694472014E+02 -0.26703072992E+02  0.14010394582E+03  0.14328191898E+03  0.00000000000E+00 0.  1.
</event>
<event>
 4    1  0.6136512E+003  0.2026474E+02  0.7546771E-02  0.1530026E+00
          2   -1    0    0  501    0  0.00000000000E+00  0.00000000000E+00  0.11985072835E+04  0.11985072835E+04  0.00000000000E+00 0. -1.
          2   -1    0    0  502    0 -0.00000000000E+00 -0.00000000000E+00 -0.20395585331E+02  0.20395585331E+02  0.00000000000E+00 0.  1.
          2    1    1    2  501    0  0.17709720554E+02 -0.98501510935E+01 -0.15254557689E+02  0.25364566011E+02  0.00000000000E+00 0.  1.
          2    1    1    2  502    0 -0.17709720554E+02  0.98501510935E+01  0.11933662559E+04  0.11935383029E+04  0.00000000000E+00 0. -1.
</event>
<event>
 4    1  0.6136512E+003  0.2361162E+02  0.7546771E-02  0.1484958E+00
          2   -1    0    0  502    0  0.00000000000E+00  0.00000000000E+00  0.76906488506E+01  0.76906488506E+01  0.00000000000E+00 0.  1.
          2   -1    0    0  501    0 -0.00000000000E+00 -0.00000000000E+00 -0.32744301678E+03  0.32744301678E+03  0.00000000000E+00 0. -1.
          2    1    1    2  501    0 -0.23408324830E+02 -0.30917181128E+01 -0.12016830071E+02  0.26493633144E+02  0.00000000000E+00 0.  1.
          2    1    1    2  502    0  0.23408324830E+02  0.30917181128E+01 -0.30773553786E+03  0.30864003248E+03  0.00000000000E+00 0. -1.
</event>
<event>
 4    1  0.6136512E+003  0.3120432E+02  0.7546771E-02  0.1409412E+00
          2   -1    0    0  502    0  0.00000000000E+00  0.00000000000E+00  0.11493389174E+04  0.11493389174E+04  0.00000000000E+00 0.  1.
          2   -1    0    0  501    0 -0.00000000000E+00 -0.00000000000E+00 -0.14929831685E+01  0.14929831685E+01  0.00000000000E+00 0. -1.
          2    1    1    2  501    0  0.20759262108E+02 -0.23297261260E+02  0.95236633433E+03  0.95287740245E+03  0.00000000000E+00 0.  1.
          2    1    1    2  502    0 -0.20759262108E+02  0.23297261260E+02  0.19547959990E+03  0.19795449811E+03  0.00000000000E+00 0. -1.
</event>
<event>
 4    1  0.6136512E+003  0.2079367E+02  0.7546771E-02  0.1522231E+00
          2   -1    0    0  501    0  0.00000000000E+00  0.00000000000E+00  0.26281176423E+02  0.26281176423E+02  0.00000000000E+00 0.  1.
          2   -1    0    0  502    0 -0.00000000000E+00 -0.00000000000E+00 -0.22593560273E+03  0.22593560273E+03  0.00000000000E+00 0. -1.
          2    1    1    2  501    0  0.45935118267E+01  0.20279953292E+02 -0.22125741099E+03  0.22223235312E+03  0.00000000000E+00 0. -1.
          2    1    1    2  502    0 -0.45935118267E+01 -0.20279953292E+02  0.21602984691E+02  0.29984426024E+02  0.00000000000E+00 0.  1.
</event>
<event>
 4    1  0.6136512E+003  0.2723126E+02  0.7546771E-02  0.1445299E+00
          2   -1    0    0  501    0  0.00000000000E+00  0.00000000000E+00  0.95843605566E+02  0.95843605566E+02  0.00000000000E+00 0.  1.
          2   -1    0    0  502    0 -0.00000000000E+00 -0.00000000000E+00 -0.11123888301E+02  0.11123888301E+02  0.00000000000E+00 0.  1.
          2    1    1    2  501    0 -0.21636299160E+02  0.16535183525E+02  0.12848166370E+02  0.30110083271E+02  0.00000000000E+00 0.  1.
          2    1    1    2  502    0  0.21636299160E+02 -0.16535183525E+02  0.71871550895E+02  0.76857410596E+02  0.00000000000E+00 0.  1.
</event>
<event>
 4    1  0.6136512E+003  0.2029219E+02  0.7546771E-02  0.1529615E+00
          2   -1    0    0  502    0  0.00000000000E+00  0.00000000000E+00  0.70610889457E+03  0.70610889457E+03  0.00000000000E+00 0. -1.
          2   -1    0    0  501    0 -0.00000000000E+00 -0.00000000000E+00 -0.35101026214E+01  0.35101026214E+01  0.00000000000E+00 0. -1.
          2    1    1    2  501    0 -0.19172415730E+02  0.66476679603E+01  0.67529758859E+03  0.67560240243E+03  0.00000000000E+00 0. -1.
          2    1    1    2  502    0  0.19172415730E+02 -0.66476679603E+01  0.27301203354E+02  0.34016594757E+02  0.00000000000E+00 0. -1.
</event>
<event>
 4    1  0.6136512E+003  0.7587251E+02  0.7546771E-02  0.1213768E+00
          2   -1    0    0  502    0  0.00000000000E+00  0.00000000000E+00  0.92372227004E+02  0.92372227004E+02  0.00000000000E+00 0. -1.
          2   -1    0    0  501    0 -0.00000000000E+00 -0.00000000000E+00 -0.76892296461E+02  0.76892296461E+02  0.00000000000E+00 0.  1.
          2    1    1    2  501    0  0.44111718834E+02 -0.61731625792E+02  0.44583263561E+02  0.88001731523E+02  0.00000000000E+00 0. -1.
          2    1    1    2  502    0 -0.44111718834E+02  0.61731625792E+02 -0.29103333018E+02  0.81262791942E+02  0.00000000000E+00 0.  1.
</event>
<event>
 4    1  0.6136512E+003  0.2193342E+02  0.7546771E-02  0.1506344E+00
          2   -1    0    0  501    0  0.00000000000E+00  0.00000000000E+00  0.11549083705E+02  0.11549083705E+02  0.00000000000E+00 0. -1.
          2   -1    0    0  502    0 -0.00000000000E+00 -0.00000000000E+00 -0.46986249885E+03  0.46986249885E+03  0.00000000000E+00 0. -1.
          2    1    1    2  501    0  0.97738653415E+01  0.19635333119E+02 -0.45894525717E+03  0.45946906732E+03  0.00000000000E+00 0. -1.
          2    1    1    2  502    0 -0.97738653415E+01 -0.19635333119E+02  0.63184202067E+00  0.21942515233E+02  0.00000000000E+00 0. -1.
</event>
<event>
 4    1  0.6136512E+003  0.2742377E+02  0.7546771E-02  0.1443397E+00
          2   -1    0    0  502    0  0.00000000000E+00  0.00000000000E+00  0.15354274757E+02  0.15354274757E+02  0.00000000000E+00 0. -1.
          2   -1    0    0  501    0 -0.00000000000E+00 -0.00000000000E+00 -0.49032037445E+02  0.49032037445E+02  0.00000000000E+00 0. -1.
          2    1    1    2  501    0 -0.26705440821E+02 -0.62356020394E+01 -0.17880459925E+02  0.32737961900E+02  0.00000000000E+00 0. -1.
          2    1    1    2  502    0  0.26705440821E+02  0.62356020394E+01 -0.15797302762E+02  0.31648350302E+02  0.00000000000E+00 0. -1.
</event>
<event>
 4    1  0.6136512E+003  0.5015308E+02  0.7546771E-02  0.1297510E+00
          2   -1    0    0  501    0  0.00000000000E+00  0.00000000000E+00  0.12342213812E+02  0.12342213812E+02  0.00000000000E+00 0. -1.
          2   -1    0    0  502    0 -0.00000000000E+00 -0.00000000000E+00 -0.45766922102E+03  0.45766922102E+03  0.00000000000E+00 0.  1.
          2    1    1    2  501    0  0.27588677517E+01  0.50077138954E+02 -0.39769186638E+03  0.40084180393E+03  0.00000000000E+00 0.  1.
          2    1    1    2  502    0 -0.27588677517E+01 -0.50077138954E+02 -0.47635140834E+02  0.69169630903E+02  0.00000000000E+00 0. -1.
</event>
<event>
 4    1  0.6136512E+003  0.4168387E+02  0.7546771E-02  0.1338891E+00
          2   -1    0    0  501    0  0.00000000000E+00  0.00000000000E+00  0.11702691124E+04  0.11702691124E+04  0.00000000000E+00 0. -1.
          2   -1    0    0  502    0 -0.00000000000E+00 -0.00000000000E+00 -0.15437117092E+01  0.15437117092E+01  0.00000000000E+00 0. -1.
          2    1    1    2  501    0 -0.19536723057E+02  0.36822020840E+02  0.69887941571E+03  0.70012140552E+03  0.00000000000E+00 0. -1.
          2    1    1    2  502    0  0.19536723057E+02 -0.36822020840E+02  0.46984598499E+03  0.47169141859E+03  0.00000000000E+00 0. -1.
</event>
<event>
 4    1  0.6136512E+003  0.2107028E+02  0.7546771E-02  0.1518264E+00
          2   -1    0    0  502    0  0.00000000000E+00  0.00000000000E+00  0.55017171223E+01  0.55017171223E+01  0.00000000000E+00 0. -1.
          2   -1    0    0  501    0 -0.00000000000E+00 -0.00000000000E+00 -0.99403711727E+02  0.99403711727E+02  0.00000000000E+00 0.  1.
          2    1    1    2  501    0 -0.20940102912E+02  0.23385786888E+01 -0.24194916068E+02  0.32083497686E+02  0.00000000000E+00 0. -1.
          2    1    1    2  502    0  0.20940102912E+02 -0.23385786888E+01 -0.69707078536E+02  0.72821931162E+02  0.00000000000E+00 0.  1.
</event>
<event>
 4    1  0.6136512E+003  0.2201831E+02  0.7546771E-02  0.1505207E+00
          2   -1    0    0  502    0  0.00000000000E+00  0.00000000000E+00  0.28276431582E+03  0.28276431582E+03  0.00000000000E+00 0. -1.
          2   -1    0    0  501    0 -0.00000000000E+00 -0.00000000000E+00 -0.61181010285E+02  0.61181010285E+02  0.00000000000E+00 0.  1.
          2    1    1    2  501    0  0.18595316940E+02 -0.11790687325E+02  0.28033753030E+03  0.28120088374E+03  0.00000000000E+00 0. -1.
          2    1    1    2  502    0 -0.18595316940E+02  0.11790687325E+02 -0.58754224767E+02  0.62744442365E+02  0.00000000000E+00 0.  1.
</event>
<event>
 4    1  0.6136512E+003  0.2550926E+02  0.7546771E-02  0.1463186E+00
          2   -1    0    0  502    0  0.00000000000E+00  0.00000000000E+00  0.10688245703E+03  0.10688245703E+03  0.00000000000E+00 0. -1.
          2   -1    0    0  501    0 -0.00000000000E+00 -0.00000000000E+00 -0.98213020067E+03  0.98213020067E+03  0.00000000000E+00 0. -1.
          2    1    1    2  501    0 -0.12958514572E+02  0.21972698863E+02  0.10519214086E+03  0.10824097697E+03  0.00000000000E+00 0. -1.
          2    1    1    2  502    0  0.12958514572E+02 -0.21972698863E+02 -0.98043988450E+03  0.98077168073E+03  0.00000000000E+00 0. -1.
</event>
<event>
 4    1  0.6136512E+003  0.5188906E+02  0.7546771E-02  0.1290183E+00
          2   -1    0    0  502    0  0.00000000000E+00  0.00000000000E+00  0.22145025435E+03  0.22145025435E+03  0.00000000000E+00 0.  1.
          2   -1    0    0  501    0 -0.00000000000E+00 -0.00000000000E+00 -0.13118729002E+02  0.13118729002E+02  0.00000000000E+00 0.  1.
          2    1    1    2  501    0 -0.34897172834E+02 -0.38401330103E+02  0.72432786609E+02  0.89100973067E+02  0.00000000000E+00 0.  1.
          2    1    1    2  502    0  0.34897172834E+02  0.38401330103E+02  0.13589873874E+03  0.14546801029E+03  0.00000000000E+00 0.  1.
</event>
<event>
 4    1  0.6136512E+003  0.7098556E+02  0.7546771E-02  0.1226479E+00
          2   -1    0    0  501    0  0.00000000000E+00  0.00000000000E+00  0.12626415853E+04  0.12626415853E+04  0.00000000000E+00 0.  1.
          2   -1    0    0  502    0 -0.00000000000E+00 -0.00000000000E+00 -0.57183499132E+03  0.57183499132E+03  0.00000000000E+00 0.  1.
          2    1    1    2  501    0 -0.31269525139E+02  0.63727284256E+02 -0.56862871367E+03  0.57304237537E+03  0.00000000000E+00 0.  1.
          2    1    1    2  502    0  0.31269525139E+02 -0.63727284256E+02  0.12594353076E+04  0.12614342012E+04  0.00000000000E+00 0.  1.
</event>
<event>
 4    1  0.6136512E+003  0.3542489E+02  0.7546771E-02  0.1377600E+00
          2   -1    0    0  502    0  0.00000000000E+00  0.00000000000E+00  0.48658948910E+03  0.48658948910E+03  0.00000000000E+00 0. -1.
          2   -1    0    0  501    0 -0.00000000000E+00 -0.00000000000E+00 -0.13183655694E+02  0.13183655694E+02  0.00000000000E+00 0.  1.
          2    1    1    2  501    0 -0.47663710707E+01  0.35102770585E+02  0.46081894751E+03  0.46217856417E+03  0.00000000000E+00 0. -1.
          2    1    1    2  502    0  0.47663710707E+01 -0.35102770585E+02  0.12586885903E+02  0.37594580629E+02  0.00000000000E+00 0.  1.
</event>
<event>
 4    1  0.6136512E+003  0.2634412E+02  0.7546771E-02  0.1454310E+00
          2   -1    0    0  501    0  0.00000000000E+00  0.00000000000E+00  0.55820156751E+01  0.55820156751E+01  0.00000000000E+00 0. -1.
          2   -1    0    0  502    0 -0.00000000000E+00 -0.00000000000E+00 -0.85701146530E+03  0.85701146530E+03  0.00000000000E+00 0.  1.
          2    1    1    2  501    0 -0.28895097352E+01  0.26185171553E+02 -0.82450121561E+03  0.82492197632E+03  0.00000000000E+00 0.  1.
          2    1    1    2  502    0  0.28895097352E+01 -0.26185171553E+02 -0.26928234019E+02  0.37671504658E+02  0.00000000000E+00 0. -1.
</event>
<event>
 4    1  0.6136512E+003  0.3278414E+02  0.7546771E-02  0.1396848E+00
          2   -1    0    0  502    0  0.00000000000E+00  0.00000000000E+00  0.12405815308E+04  0.12405815308E+04  0.00000000000E+00 0.  1.
          2   -1    0    0  501    0 -0.00000000000E+00 -0.00000000000E+00 -0.77978991284E+01  0.77978991284E+01  0.00000000000E+00 0.  1.
          2    1    1    2  501    0 -0.31278842251E+02  0.98200859190E+01  0.12048862948E+04  0.12053322295E+04  0.00000000000E+00 0.  1.
          2    1    1    2  502    0  0.31278842251E+02 -0.98200859190E+01  0.27897336848E+02  0.43047200411E+02  0.00000000000E+00 0.  1.
</event>
<event>
 4    1  0.6136512E+003  0.2558528E+02  0.7546771E-02  0.1462361E+00
          2   -1    0    0  502    0  0.00000000000E+00  0.00000000000E+00  0.24352900523E+01  0.24352900523E+01  0.00000000000E+00 0.  1.
          2   -1    0    0  501    0 -0.00000000000E+00 -0.00000000000E+00 -0.11844246969E+04  0.11844246969E+04  0.00000000000E+00 0. -1.
          2    1    1    2  501    0  0.25179998894E+02 -0.45358934687E+01 -0.69230300993E+02  0.73806783221E+02  0.00000000000E+00 0.  1.
          2    1    1    2  502    0 -0.25179998894E+02  0.45358934687E+01 -0.11127591059E+04  0.11130532037E+04  0.00000000000E+00 0. -1.
</event>
<event>
 4    1  0.6136512E+003  0.2423214E+02  0.7546771E-02  0.1477580E+00
          2   -1    0    0  502    0  0.00000000000E+00  0.00000000000E+00  0.36298184793E+03  0.36298184793E+03  0.00000000000E+00 0.  1.
          2   -1    0    0  501    0 -0.00000000000E+00 -0.00000000000E+00 -0.57297783762E+02  0.57297783762E+02  0.00000000000E+00 0. -1.
          2    1    1    2  501    0  0.24199151440E+02 -0.12640330172E+01  0.35999414376E+03  0.36080878627E+03  0.00000000000E+00 0.  1.
          2    1    1    2  502    0 -0.24199151440E+02  0.12640330172E+01 -0.54310079591E+02  0.59470845421E+02  0.00000000000E+00 0. -1.
</event>
<event>
 4    1  0.6136512E+003  0.2728856E+02  0.7546771E-02  0.1444731E+00
          2   -1    0    0  501    0  0.00000000000E+00  0.00000000000E+00  0.92591450635E+03  0.92591450635E+03  0.00000000000E+00 0.  1.
          2   -1    0    0  502    0 -0.00000000000E+00 -0.00000000000E+00 -0.22049422248E+02  0.22049422248E+02  0.00000000000E+00 0. -1.
          2    1    1    2  501    0 -0.14665933085E+02 -0.23012515562E+02 -0.13324924653E+02  0.30368060240E+02  0.00000000000E+00 0. -1.
          2    1    1    2  502    0  0.14665933085E+02  0.23012515562E+02  0.91719000876E+03  0.91759586836E+03  0.00000000000E+00 0.  1.
</event>
<event>
 4    1  0.6136512E+003  0.4144902E+02  0.7546771E-02  0.1340198E+00
          2   -1    0    0  502    0  0.00000000000E+00  0.00000000000E+00  0.62751060220E+01  0.62751060220E+01  0.00000000000E+00 0. -1.
          2   -1    0    0  501    0 -0.00000000000E+00 -0.00000000000E+00 -0.29907503342E+03  0.29907503342E+03  0.00000000000E+00 0.  1.
          2    1    1    2  501    0  0.61654254923E+01  0.40987908381E+02 -0.10200182274E+03  0.11010173907E+03  0.00000000000E+00 0. -1.
          2    1    1    2  502    0 -0.61654254923E+01 -0.40987908381E+02 -0.19079810466E+03  0.19524840037E+03  0.00000000000E+00 0.  1.
</event>
<event>
 4    1  0.6136512E+003  0.2332057E+02  0.7546771E-02  0.1488512E+00
          2   -1    0    0  502    0  0.00000000000E+00  0.00000000000E+00  0.35368003253E+03  0.35368003253E+03  0.00000000000E+00 0. -1.
          2   -1    0    0  501    0 -0.00000000000E+00 -0.00000000000E+00 -0.69335609544E+01  0.69335609544E+01  0.00000000000E+00 0.  1.
          2    1    1    2  501    0  0.19526021066E+02 -0.12750816155E+02  0.33243466118E+03  0.33325163580E+03  0.00000000000E+00 0. -1.
          2    1    1    2  502    0 -0.19526021066E+02  0.12750816155E+02  0.14311810393E+02  0.27361957679E+02  0.00000000000E+00 0.  1.
</event>
<event>
 4    1  0.6136512E+003  0.4208348E+02  0.7546771E-02  0.1336691E+00
          2   -1    0    0  501    0  0.00000000000E+00  0.00000000000E+00  0.17480495033E+03  0.17480495033E+03  0.00000000000E+00 0. -1.
          2   -1    0    0  502    0 -0.00000000000E+00 -0.00000000000E+00 -0.16693502424E+03  0.16693502424E+03  0.00000000000E+00 0.  1.
          2    1    1    2  501    0 -0.41325969883E+02  0.79488110704E+01 -0.16166876107E+03  0.16705630096E+03  0.00000000000E+00 0.  1.
          2    1    1    2  502    0  0.41325969883E+02 -0.79488110704E+01  0.16953868716E+03  0.17468367362E+03  0.00000000000E+00 0. -1.
</event>
<event>
 4    1  0.6136512E+003  0.2035650E+02  0.7546771E-02  0.1528654E+00
          2   -1    0    0  502    0  0.00000000000E+00  0.00000000000E+00  0.25807973450E+01  0.25807973450E+01  0.00000000000E+00 0.  1.
          2   -1    0    0  501    0 -0.00000000000E+00 -0.00000000000E+00 -0.12564819021E+04  0.12564819021E+04  0.00000000000E+00 0. -1.
          2    1    1    2  501    0  0.47225021243E+01  0.19801134310E+02 -0.39017383295E+02  0.44008444025E+02  0.00000000000E+00 0.  1.
          2    1    1    2  502    0 -0.47225021243E+01 -0.19801134310E+02 -0.12148837215E+04  0.12150542554E+04  0.00000000000E+00 0. -1.
</event>
<event>
 4    1  0.8996951E+003  0.2679086E+02  0.7546771E-02  0.1449720E+00
          2   -1    0    0  502    0  0.00000000000E+00  0.00000000000E+00  0.29839831386E+03  0.29839831386E+03  0.00000000000E+00 0. -1.
          2   -1    0    0  501    0 -0.00000000000E+00 -0.00000000000E+00 -0.10177306351E+04  0.10177306351E+04  0.00000000000E+00 0.  1.
          2    1    1    2  501    0 -0.57679524259E+01  0.26162583482E+02  0.29762020690E+03  0.29882358944E+03  0.00000000000E+00 0. -1.
          2    1    1    2  502    0  0.57679524259E+01 -0.26162583482E+02 -0.10169525282E+04  0.10173053596E+04  0.00000000000E+00 0.  1.
</event>
<event>
 4    1  0.6136512E+003  0.2199397E+02  0.7546771E-02  0.1505533E+00
          2   -1    0    0  502    0  0.00000000000E+00  0.00000000000E+00  0.72650148247E+00  0.72650148247E+00  0.00000000000E+00 0. -1.
          2   -1    0    0  501    0 -0.00000000000E+00 -0.00000000000E+00 -0.81652228790E+03  0.81652228790E+03  0.00000000000E+00 0.  1.
          2    1    1    2  501    0  0.29405027534E+01 -0.21796516088E+02 -0.23236054211E+03  0.23339913496E+03  0.00000000000E+00 0. -1.
          2    1    1    2  502    0 -0.29405027534E+01  0.21796516088E+02 -0.58343524430E+03  0.58384965442E+03  0.00000000000E+00 0.  1.
</event>
<event>
 4    1  0.6136512E+003  0.4082376E+02  0.7546771E-02  0.1343725E+00
          2   -1    0    0  501    0  0.00000000000E+00  0.00000000000E+00  0.13494329734E+04  0.13494329734E+04  0.00000000000E+00 0.  1.
          2   -1    0    0  502    0 -0.00000000000E+00 -0.00000000000E+00 -0.16080999329E+01  0.16080999329E+01  0.00000000000E+00 0.  1.
          2    1    1    2  501    0 -0.40442726445E+02  0.55646152178E+01  0.34853909374E+03  0.35092175614E+03  0.00000000000E+00 0.  1.
          2    1    1    2  502    0  0.40442726445E+02 -0.55646152178E+01  0.99928577977E+03  0.10001193172E+04  0.00000000000E+00 0.  1.
</event>
<event>
 4    1  0.6136512E+003  0.3606280E+02  0.7546771E-02  0.1373242E+00
          2   -1    0    0  502    0  0.00000000000E+00  0.00000000000E+00  0.85382253545E+03  0.85382253545E+03  0.00000000000E+00 0. -1.
          2   -1    0    0  501    0 -0.00000000000E+00 -0.00000000000E+00 -0.30410578330E+03  0.30410578330E+03  0.00000000000E+00 0. -1.
          2    1    1    2  501    0  0.11126324322E+02  0.34303501078E+02  0.85237078146E+03  0.85313332743E+03  0.00000000000E+00 0. -1.
          2    1    1    2  502    0 -0.11126324322E+02 -0.34303501078E+02 -0.30265402931E+03  0.30479499132E+03  0.00000000000E+00 0. -1.
</event>
<event>
 4    1  0.6136512E+003  0.2042931E+02  0.7546771E-02  0.1527571E+00
          2   -1    0    0  502    0  0.00000000000E+00  0.00000000000E+00  0.61320373099E+02  0.61320373099E+02  0.00000000000E+00 0.  1.
          2   -1    0    0  501    0 -0.00000000000E+00 -0.00000000000E+00 -0.26965513997E+03  0.26965513997E+03  0.00000000000E+00 0.  1.
          2    1    1    2  501    0  0.11912024075E+02 -0.16596999268E+02  0.59218548316E+02  0.62643380871E+02  0.00000000000E+00 0.  1.
          2    1    1    2  502    0 -0.11912024075E+02  0.16596999268E+02 -0.26755331518E+03  0.26833213220E+03  0.00000000000E+00 0.  1.
</event>
<event>
 4    1  0.6136512E+003  0.5781613E+02  0.7546771E-02  0.1267439E+00
          2   -1    0    0  502    0  0.00000000000E+00  0.00000000000E+00  0.20688061029E+02  0.20688061029E+02  0.00000000000E+00 0.  1.
          2   -1    0    0  501    0 -0.00000000000E+00 -0.00000000000E+00 -0.24673408500E+03  0.24673408500E+03  0.00000000000E+00 0.  1.
          2    1    1    2  501    0  0.55582001931E+02  0.15916853528E+02 -0.34469720922E+02  0.67311713879E+02  0.00000000000E+00 0.  1.
          2    1    1    2  502    0 -0.55582001931E+02 -0.15916853528E+02 -0.19157630305E+03  0.20011043215E+03  0.00000000000E+00 0.  1.
</event>
<event>
 4    1  0.6136512E+003  0.2341594E+02  0.7546771E-02  0.1487340E+00
          2   -1    0    0  501    0  0.00000000000E+00  0.00000000000E+00  0.19534153237E+01  0.19534153237E+01  0.00000000000E+00 0.  1.
          2   -1    0    0  502    0 -0.00000000000E+00 -0.00000000000E+00 -0.69994105265E+03  0.69994105265E+03  0.00000000000E+00 0.  1.
          2    1    1    2  501    0 -0.10932002562E+02 -0.20707423262E+02 -0.62060501276E+03  0.62104660688E+03  0.00000000000E+00 0.  1.
          2    1    1    2  502    0  0.10932002562E+02  0.20707423262E+02 -0.77382624567E+02  0.80847861091E+02  0.00000000000E+00 0.  1.
</event>
<event>
 4    1  0.6136512E+003  0.2078107E+02  0.7546771E-02  0.1522414E+00
          2   -1    0    0  502    0  0.00000000000E+00  0.00000000000E+00  0.26924138825E+02  0.26924138825E+02  0.00000000000E+00 0. -1.
          2   -1    0    0  501    0 -0.00000000000E+00 -0.00000000000E+00 -0.68714329222E+02  0.68714329222E+02  0.00000000000E+00 0. -1.
          2    1    1    2  501    0  0.19034295326E+02  0.83395743948E+01  0.20972695224E+02  0.29524681956E+02  0.00000000000E+00 0. -1.
          2    1    1    2  502    0 -0.19034295326E+02 -0.83395743948E+01 -0.62762885622E+02  0.66113786091E+02  0.00000000000E+00 0. -1.
</event>
<event>
 4    1  0.6136512E+003  0.2407664E+02  0.7546771E-02  0.1479404E+00
          2   -1    0    0  502    0  0.00000000000E+00  0.00000000000E+00  0.65988698085E+03  0.65988698085E+03  0.00000000000E+00 0. -1.
          2   -1    0    0  501    0 -0.00000000000E+00 -0.00000000000E+00 -0.20679345853E+02  0.20679345853E+02  0.00000000000E+00 0. -1.
          2    1    1    2  501    0  0.17581743376E+02  0.16448912778E+02  0.65258092113E+03  0.65302491763E+03  0.00000000000E+00 0. -1.
          2    1    1    2  502    0 -0.17581743376E+02 -0.16448912778E+02 -0.13373286129E+02  0.27541409071E+02  0.00000000000E+00 0. -1.
</event>
<event>
 4    1  0.6136512E+003  0.2133978E+02  0.7546771E-02  0.1514469E+00
          2   -1    0    0  501    0  0.00000000000E+00  0.00000000000E+00  0.11581470618E+03  0.11581470618E+03  0.00000000000E+00 0. -1.
          2   -1    0    0  502    0 -0.00000000000E+00 -0.00000000000E+00 -0.50072300069E+01  0.50072300069E+01  0.00000000000E+00 0.  1.
          2    1    1    2  501    0 -0.20298334583E+02 -0.65851301858E+01  0.27409886693E+02  0.34737418082E+02  0.00000000000E+00 0.  1.
          2    1    1    2  502    0  0.20298334583E+02  0.65851301858E+01  0.83397589483E+02  0.86084518109E+02  0.00000000000E+00 0. -1.
</event>
<event>
 4    1  0.6136512E+003  0.3061880E+02  0.7546771E-02  0.1414294E+00
          2   -1    0    0  502    0  0.00000000000E+00  0.00000000000E+00  0.36328746429E+03  0.36328746429E+03  0.00000000000E+00 0.  1.
          2   -1    0    0  501    0 -0.00000000000E+00 -0.00000000000E+00 -0.21399840130E+02  0.21399840130E+02  0.00000000000E+00 0. -1.
          2    1    1    2  501    0  0.30224762400E+02 -0.48963888901E+01  0.35131753868E+03  0.35264929303E+03  0.00000000000E+00 0.  1.
          2    1    1    2  502    0 -0.30224762400E+02  0.48963888901E+01 -0.94299145216E+01  0.32038011395E+02  0.00000000000E+00 0. -1.
</event>
<event>
 4    1  0.6136512E+003  0.2387220E+02  0.7546771E-02  0.1481827E+00
          2   -1    0    0  501    0  0.00000000000E+00  0.00000000000E+00  0.85410942127E+00  0.85410942127E+00  0.00000000000E+00 0.  1.
          2   -1    0    0  502    0 -0.00000000000E+00 -0.00000000000E+00 -0.77500647914E+03  0.77500647914E+03  0.00000000000E+00 0. -1.
          2    1    1    2  501    0  0.21599157413E+02  0.10166529460E+02 -0.53174536337E+03  0.53228095343E+03  0.00000000000E+00 0. -1.
          2    1    1    2  502    0 -0.21599157413E+02 -0.10166529460E+02 -0.24240700635E+03  0.24357963513E+03  0.00000000000E+00 0.  1.
</event>
<event>
 4    1  0.6136512E+003  0.2802445E+02  0.7546771E-02  0.1437580E+00
          2   -1    0    0  501    0  0.00000000000E+00  0.00000000000E+00  0.52102496371E+02  0.52102496371E+02  0.00000000000E+00 0.  1.
          2   -1    0    0  502    0 -0.00000000000E+00 -0.00000000000E+00 -0.46583477624E+03  0.46583477624E+03  0.00000000000E+00 0. -1.
          2    1    1    2  501    0 -0.25482091847E+02 -0.11663318767E+02 -0.46161044753E+03  0.46246034995E+03  0.00000000000E+00 0. -1.
          2    1    1    2  502    0  0.25482091847E+02  0.11663318767E+02  0.47878167659E+02  0.55476922661E+02  0.00000000000E+00 0.  1.
</event>
<event>
 4    1  0.1056034E+004  0.2251960E+02  0.7546771E-02  0.1498620E+00
          2   -1    0    0  501    0  0.00000000000E+00  0.00000000000E+00  0.12058909083E+04  0.12058909083E+04  0.00000000000E+00 0.  1.
          2   -1    0    0  502    0 -0.00000000000E+00 -0.00000000000E+00 -0.41215561982E+03  0.41215561982E+03  0.00000000000E+00 0.  1.
          2    1    1    2  501    0 -0.21460084372E+02 -0.68261967577E+01 -0.41174276841E+03  0.41235814473E+03  0.00000000000E+00 0.  1.
          2    1    1    2  502    0  0.21460084372E+02  0.68261967577E+01  0.12054780569E+04  0.12056883834E+04  0.00000000000E+00 0.  1.
</event>
<event>
 4    1  0.6136512E+003  0.3212605E+02  0.7546771E-02  0.1401978E+00
          2   -1    0    0  501    0  0.00000000000E+00  0.00000000000E+00  0.10669950255E+02  0.10669950255E+02  0.00000000000E+00 0. -1.
          2   -1    0    0  502    0 -0.00000000000E+00 -0.00000000000E+00 -0.21596775393E+03  0.21596775393E+03  0.00000000000E+00 0.  1.
          2    1    1    2  501    0  0.34522402241E+01  0.31940023852E+02 -0.18685009055E+03  0.18959177046E+03  0.00000000000E+00 0.  1.
          2    1    1    2  502    0 -0.34522402241E+01 -0.31940023852E+02 -0.18447713122E+02  0.37045933726E+02  0.00000000000E+00 0. -1.
</event>
<event>
 4    1  0.6136512E+003  0.3231982E+02  0.7546771E-02  0.1400453E+00
          2   -1    0    0  502    0  0.00000000000E+00  0.00000000000E+00  0.26488267753E+02  0.26488267753E+02  0.00000000000E+00 0. -1.
          2   -1    0    0  501    0 -0.00000000000E+00 -0.00000000000E+00 -0.99618860074E+02  0.99618860074E+02  0.00000000000E+00 0. -1.
          2    1    1    2  501    0  0.14547367754E+02  0.28860784777E+02  0.12443954412E+02  0.34632684100E+02  0.00000000000E+00 0. -1.
          2    1    1    2  502    0 -0.14547367754E+02 -0.28860784777E+02 -0.85574546733E+02  0.91474443726E+02  0.00000000000E+00 0. -1.
</event>
<event>
 4    1  0.6136512E+003  0.2282136E+02  0.7546771E-02  0.1494754E+00
          2   -1    0    0  502    0  0.00000000000E+00  0.00000000000E+00  0.48353463851E+02  0.48353463851E+02  0.00000000000E+00 0.  1.
          2   -1    0    0  501    0 -0.00000000000E+00 -0.00000000000E+00 -0.93064945217E+03  0.93064945217E+03  0.00000000000E+00 0.  1.
          2    1    1    2  501    0  0.15728101481E+02 -0.16536059940E+02  0.45512567522E+02  0.50913733481E+02  0.00000000000E+00 0.  1.
          2    1    1    2  502    0 -0.15728101481E+02  0.16536059940E+02 -0.92780855584E+03  0.92808918254E+03  0.00000000000E+00 0.  1.
</event>
<event>
 4    1  0.6136512E+003  0.2000165E+02  0.7546771E-02  0.1534010E+00
          2   -1    0    0  501    0  0.00000000000E+00  0.00000000000E+00  0.33036383767E+03  0.33036383767E+03  0.00000000000E+00 0.  1.
          2   -1    0    0  502    0 -0.00000000000E+00 -0.00000000000E+00 -0.31738487656E+02  0.31738487656E+02  0.00000000000E+00 0.  1.
          2    1    1    2  501    0 -0.17562821083E+02  0.95714807014E+01 -0.28250882121E+02  0.34614711725E+02  0.00000000000E+00 0.  1.
          2    1    1    2  502    0  0.17562821083E+02 -0.95714807014E+01  0.32687623213E+03  0.32748761360E+03  0.00000000000E+00 0.  1.
</event>
<event>
 4    1  0.6136512E+003  0.2049320E+02  0.7546771E-02  0.1526625E+00
          2   -1    0    0  502    0  0.00000000000E+00  0.00000000000E+00  0.91941038643E+02  0.91941038643E+02  0.00000000000E+00 0. -1.
          2   -1    0    0  501    0 -0.00000000000E+00 -0.00000000000E+00 -0.93571453072E+02  0.93571453072E+02  0.00000000000E+00 0.  1.
          2    1    1    2  501    0  0.18821121694E+02 -0.81078005915E+01  0.89648695265E+02  0.91961185371E+02  0.00000000000E+00 0. -1.
          2    1    1    2  502    0 -0.18821121694E+02  0.81078005915E+01 -0.91279109694E+02  0.93551306344E+02  0.00000000000E+00 0.  1.
</event>
<event>
 4    1  0.6136512E+003  0.2453722E+02  0.7546771E-02  0.1474048E+00
          2   -1    0    0  501    0  0.00000000000E+00  0.00000000000E+00  0.58069491261E+03  0.58069491261E+03  0.00000000000E+00 0.  1.
          2   -1    0    0  502    0 -0.00000000000E+00 -0.00000000000E+00 -0.85043770073E+01  0.85043770073E+01  0.00000000000E+00 0. -1.
          2    1    1    2  501    0 -0.24534460973E+02 -0.36804688661E+00  0.10037302127E+02  0.26510802850E+02  0.00000000000E+00 0. -1.
          2    1    1    2  502    0  0.24534460973E+02  0.36804688661E+00  0.56215323348E+03  0.56268848677E+03  0.00000000000E+00 0.  1.
</event>
<event>
 4    1  0.7776105E+003  0.2639965E+02  0.7546771E-02  0.1453734E+00
          2   -1    0    0  502    0  0.00000000000E+00  0.00000000000E+00  0.18265199005E+04  0.18265199005E+04  0.00000000000E+00 0.  1.
          2   -1    0    0  501    0 -0.00000000000E+00 -0.00000000000E+00 -0.27830519586E+03  0.27830519586E+03  0.00000000000E+00 0.  1.
          2    1    1    2  501    0 -0.23310695842E+02 -0.12391658434E+02  0.18257982021E+04  0.18259890516E+04  0.00000000000E+00 0.  1.
          2    1    1    2  502    0  0.23310695842E+02  0.12391658434E+02 -0.27758349752E+03  0.27883604471E+03  0.00000000000E+00 0.  1.
</event>
<event>
 4    1  0.6136512E+003  0.2252275E+02  0.7546771E-02  0.1498580E+00
          2   -1    0    0  502    0  0.00000000000E+00  0.00000000000E+00  0.16289289230E+04  0.16289289230E+04  0.00000000000E+00 0.  1.
          2   -1    0    0  501    0 -0.00000000000E+00 -0.00000000000E+00 -0.39466220490E+02  0.39466220490E+02  0.00000000000E+00 0.  1.
          2    1    1    2  501    0  0.16773385573E+02  0.15030893036E+02  0.16256312066E+04  0.16257872229E+04  0.00000000000E+00 0.  1.
          2    1    1    2  502    0 -0.16773385573E+02 -0.15030893036E+02 -0.36168504100E+02  0.42607920600E+02  0.00000000000E+00 0.  1.
</event>
<event>
 4    1  0.6136512E+003  0.2223357E+02  0.7546771E-02  0.1502353E+00
          2   -1    0    0  502    0  0.00000000000E+00  0.00000000000E+00  0.13699322923E+04  0.13699322923E+04  0.00000000000E+00 0.  1.
          2   -1    0    0  501    0 -0.00000000000E+00 -0.00000000000E+00 -0.36454200645E+00  0.36454200645E+00  0.00000000000E+00 0.  1.
          2    1    1    2  501    0  0.68415696510E+01 -0.21154779296E+02  0.75379170598E+03  0.75411953149E+03  0.00000000000E+00 0.  1.
          2    1    1    2  502    0 -0.68415696510E+01  0.21154779296E+02  0.61577604432E+03  0.61617730283E+03  0.00000000000E+00 0.  1.
</event>
<event>
 4    1  0.6136512E+003  0.2740971E+02  0.7546771E-02  0.1443535E+00
          2   -1    0    0  501    0  0.00000000000E+00  0.00000000000E+00  0.62220575635E+03  0.62220575635E+03  0.00000000000E+00 0.  1.
          2   -1    0    0  502    0 -0.00000000000E+00 -0.00000000000E+00 -0.27373524120E+01  0.27373524120E+01  0.00000000000E+00 0.  1.
          2    1    1    2  501    0 -0.23916159888E+02 -0.13390654556E+02  0.76133191797E+02  0.80916965010E+02  0.00000000000E+00 0.  1.
          2    1    1    2  502    0  0.23916159888E+02  0.13390654556E+02  0.54333521214E+03  0.54402614375E+03  0.00000000000E+00 0.  1.
</event>
<event>
 4    1  0.6136512E+003  0.2237083E+02  0.7546771E-02  0.1500553E+00
          2   -1    0    0  501    0  0.00000000000E+00  0.00000000000E+00  0.10711393322E+04  0.10711393322E+04  0.00000000000E+00 0.  1.
          2   -1    0    0  502    0 -0.00000000000E+00 -0.00000000000E+00 -0.78454966945E+01  0.78454966945E+01  0.00000000000E+00 0. -1.
          2    1    1    2  501    0 -0.15107680520E+02  0.16498852160E+02  0.84650449234E+01  0.23918844430E+02  0.00000000000E+00 0. -1.
          2    1    1    2  502    0  0.15107680520E+02 -0.16498852160E+02  0.10548287906E+04  0.10550659845E+04  0.00000000000E+00 0.  1.
</event>
<event>
 4    1  0.6136512E+003  0.3173864E+02  0.7546771E-02  0.1405066E+00
          2   -1    0    0  501    0  0.00000000000E+00  0.00000000000E+00  0.63798631379E+01  0.63798631379E+01  0.00000000000E+00 0. -1.
          2   -1    0    0  502    0 -0.00000000000E+00 -0.00000000000E+00 -0.92727256796E+03  0.92727256796E+03  0.00000000000E+00 0. -1.
          2    1    1    2  501    0 -0.25597393314E+02  0.18764721076E+02 -0.88567411239E+03  0.88624261614E+03  0.00000000000E+00 0. -1.
          2    1    1    2  502    0  0.25597393314E+02 -0.18764721076E+02 -0.35218592429E+02  0.47409814957E+02  0.00000000000E+00 0. -1.
</event>
<event>
 4    1  0.6136512E+003  0.2918545E+02  0.7546771E-02  0.1426809E+00
          2   -1    0    0  502    0  0.00000000000E+00  0.00000000000E+00  0.36934597805E+01  0.36934597805E+01  0.00000000000E+00 0.  1.
          2   -1    0    0  501    0 -0.00000000000E+00 -0.00000000000E+00 -0.59226760123E+03  0.59226760123E+03  0.00000000000E+00 0.  1.
          2    1    1    2  501    0  0.20081917370E+02 -0.21177984335E+02 -0.61439920945E+02  0.68019514197E+02  0.00000000000E+00 0.  1.
          2    1    1    2  502    0 -0.20081917370E+02  0.21177984335E+02 -0.52713422050E+03  0.52794154681E+03  0.00000000000E+00 0.  1.
</event>
<event>
 4    1  0.6136512E+003  0.4376431E+02  0.7546771E-02  0.1327735E+00
          2   -1    0    0  502    0  0.00000000000E+00  0.00000000000E+00  0.15847703185E+03  0.15847703185E+03  0.00000000000E+00 0.  1.
          2   -1    0    0  501    0 -0.00000000000E+00 -0.00000000000E+00 -0.68350311896E+02  0.68350311896E+02  0.00000000000E+00 0.  1.
          2    1    1    2  501    0  0.41596113681E+01 -0.43566180664E+02  0.14796270617E+03  0.15429930940E+03  0.00000000000E+00 0.  1.
          2    1    1    2  502    0 -0.41596113681E+01  0.43566180664E+02 -0.57835986216E+02  0.72528034346E+02  0.00000000000E+00 0.  1.
</event>
<event>
 4    1  0.6136512E+003  0.4616895E+02  0.7546771E-02  0.1315696E+00
          2   -1    0    0  502    0  0.00000000000E+00  0.00000000000E+00  0.96907374196E+03  0.96907374196E+03  0.00000000000E+00 0. -1.
          2   -1    0    0  501    0 -0.00000000000E+00 -0.00000000000E+00 -0.25548897329E+03  0.25548897329E+03  0.00000000000E+00 0. -1.
          2    1    1    2  501    0 -0.21246229020E+02  0.40989876563E+02  0.96643236802E+03  0.96753454418E+03  0.00000000000E+00 0. -1.
          2    1    1    2  502    0  0.21246229020E+02 -0.40989876563E+02 -0.25284759934E+03  0.25702817107E+03  0.00000000000E+00 0. -1.
</event>
<event>
 4    1  0.6136512E+003  0.2521272E+02  0.7546771E-02  0.1466438E+00
          2   -1    0    0  502    0  0.00000000000E+00  0.00000000000E+00  0.72252894418E+02  0.72252894418E+02  0.00000000000E+00 0. -1.
          2   -1    0    0  501    0 -0.00000000000E+00 -0.00000000000E+00 -0.93273599027E+01  0.93273599027E+01  0.00000000000E+00 0. -1.
          2    1    1    2  501    0 -0.24175216197E+02  0.71582287481E+01  0.41180147899E+02  0.48285462594E+02  0.00000000000E+00 0. -1.
          2    1    1    2  502    0  0.24175216197E+02 -0.71582287481E+01  0.21745386616E+02  0.33294791726E+02  0.00000000000E+00 0. -1.
</event>
<event>
 4    1  0.6136512E+003  0.2052677E+02  0.7546771E-02  0.1526130E+00
          2   -1    0    0  501    0  0.00000000000E+00  0.00000000000E+00  0.27224330281E+02  0.27224330281E+02  0.00000000000E+00 0. -1.
          2   -1    0    0  502    0 -0.00000000000E+00 -0.00000000000E+00 -0.97405046808E+03  0.97405046808E+03  0.00000000000E+00 0.  1.
          2    1    1    2  501    0 -0.10811204159E+02  0.17448953835E+02 -0.97005717472E+03  0.97027432737E+03  0.00000000000E+00 0.  1.
          2    1    1    2  502    0  0.10811204159E+02 -0.17448953835E+02  0.23231036920E+02  0.31000470992E+02  0.00000000000E+00 0. -1.
</event>
<event>
 4    1  0.6136512E+003  0.2244448E+02  0.7546771E-02  0.1499594E+00
          2   -1    0    0  502    0  0.00000000000E+00  0.00000000000E+00  0.26456094825E+01  0.26456094825E+01  0.00000000000E+00 0.  1.
          2   -1    0    0  501    0 -0.00000000000E+00 -0.00000000000E+00 -0.77865566113E+03  0.77865566113E+03  0.00000000000E+00 0. -1.
          2    1    1    2  501    0  0.19675628330E+02  0.10799268724E+02 -0.48462157664E+02  0.53407258688E+02  0.00000000000E+00 0.  1.
          2    1    1    2  502    0 -0.19675628330E+02 -0.10799268724E+02 -0.72754789398E+03  0.72789401192E+03  0.00000000000E+00 0. -1.
</event>
<event>
 4    1  0.6136512E+003  0.2033667E+02  0.7546771E-02  0.1528950E+00
          2   -1    0    0  502    0  0.00000000000E+00  0.00000000000E+00  0.44162451744E+03  0.44162451744E+03  0.00000000000E+00 0.  1.
          2   -1    0    0  501    0 -0.00000000000E+00 -0.00000000000E+00 -0.68368151250E+01  0.68368151250E+01  0.00000000000E+00 0.  1.
          2    1    1    2  501    0 -0.19347733017E+02  0.62646167465E+01  0.42570177475E+03  0.42618726074E+03  0.00000000000E+00 0.  1.
          2    1    1    2  502    0  0.19347733017E+02 -0.62646167465E+01  0.90859275710E+01  0.22274071826E+02  0.00000000000E+00 0.  1.
</event>
<event>
 4    1  0.6136512E+003  0.2248650E+02  0.7546771E-02  0.1499049E+00
          2   -1    0    0  502    0  0.00000000000E+00  0.00000000000E+00  0.66956810784E+01  0.66956810784E+01  0.00000000000E+00 0. -1.
          2   -1    0    0  501    0 -0.00000000000E+00 -0.00000000000E+00 -0.10213407278E+03  0.10213407278E+03  0.00000000000E+00 0.  1.
          2    1    1    2  501    0 -0.17164092260E+02  0.14527097849E+02 -0.19940841253E+02  0.30054613371E+02  0.00000000000E+00 0. -1.
          2    1    1    2  502    0  0.17164092260E+02 -0.14527097849E+02 -0.75497550443E+02  0.78775140482E+02  0.00000000000E+00 0.  1.
</event>
<event>
 4    1  0.6136512E+003  0.2020282E+02  0.7546771E-02  0.1530958E+00
          2   -1    0    0  502    0  0.00000000000E+00  0.00000000000E+00  0.36261928518E+03  0.36261928518E+03  0.00000000000E+00 0.  1.
          2   -1    0    0  501    0 -0.00000000000E+00 -0.00000000000E+00 -0.16733154920E+01  0.16733154920E+01  0.00000000000E+00 0.  1.
          2    1    1    2  501    0 -0.15435737553E+02  0.13034253734E+02  0.28468563353E+03  0.28540158322E+03  0.00000000000E+00 0.  1.
          2    1    1    2  502    0  0.15435737553E+02 -0.13034253734E+02  0.76260336159E+02  0.78891017456E+02  0.00000000000E+00 0.  1.
</event>
<event>
 4    1  0.6136512E+003  0.4011026E+02  0.7546771E-02  0.1347841E+00
          2   -1    0    0  502    0  0.00000000000E+00  0.00000000000E+00  0.23442202738E+03  0.23442202738E+03  0.00000000000E+00 0. -1.
          2   -1    0    0  501    0 -0.00000000000E+00 -0.00000000000E+00 -0.90924738914E+02  0.90924738914E+02  0.00000000000E+00 0. -1.
          2    1    1    2  501    0 -0.15633072234E+02 -0.36938323159E+02  0.22816231750E+03  0.23166112275E+03  0.00000000000E+00 0. -1.
          2    1    1    2  502    0  0.15633072234E+02  0.36938323159E+02 -0.84665029035E+02  0.93685643547E+02  0.00000000000E+00 0. -1.
</event>
<event>
 4    1  0.6136512E+003  0.2018816E+02  0.7546771E-02  0.1531179E+00
          2   -1    0    0  502    0  0.00000000000E+00  0.00000000000E+00  0.10982613978E+04  0.10982613978E+04  0.00000000000E+00 0. -1.
          2   -1    0    0  501    0 -0.00000000000E+00 -0.00000000000E+00 -0.17125775997E+02  0.17125775997E+02  0.00000000000E+00 0.  1.
          2    1    1    2  501    0 -0.94329556687E+01 -0.17848843048E+02  0.10921859929E+04  0.10923725577E+04  0.00000000000E+00 0. -1.
          2    1    1    2  502    0  0.94329556687E+01  0.17848843048E+02 -0.11050371087E+02  0.23014616051E+02  0.00000000000E+00 0.  1.
</event>
<event>
 4    1  0.6136512E+003  0.3219619E+02  0.7546771E-02  0.1401424E+00
          2   -1    0    0  502    0  0.00000000000E+00  0.00000000000E+00  0.43541775284E+03  0.43541775284E+03  0.00000000000E+00 0. -1.
          2   -1    0    0  501    0 -0.00000000000E+00 -0.00000000000E+00 -0.87452783481E+02  0.87452783481E+02  0.00000000000E+00 0.  1.
          2    1    1    2  501    0  0.14790074117E+02 -0.28598048092E+02  0.43183472929E+03  0.43303328748E+03  0.00000000000E+00 0. -1.
          2    1    1    2  502    0 -0.14790074117E+02  0.28598048092E+02 -0.83869759934E+02  0.89837248836E+02  0.00000000000E+00 0.  1.
</event>
<event>
 4    1  0.6136512E+003  0.2584050E+02  0.7546771E-02  0.1459616E+00
          2   -1    0    0  501    0  0.00000000000E+00  0.00000000000E+00  0.54962258216E+03  0.54962258216E+03  0.00000000000E+00 0. -1.
          2   -1    0    0  502    0 -0.00000000000E+00 -0.00000000000E+00 -0.91820045446E+01  0.91820045446E+01  0.00000000000E+00 0. -1.
          2    1    1    2  501    0  0.14251964682E+02  0.21554887941E+02  0.99577211585E+01  0.27692740964E+02  0.00000000000E+00 0. -1.
          2    1    1    2  502    0 -0.14251964682E+02 -0.21554887941E+02  0.53048285646E+03  0.53111184575E+03  0.00000000000E+00 0. -1.
</event>
<event>
 4    1  0.6136512E+003  0.2432675E+02  0.7546771E-02  0.1476478E+00
          2   -1    0    0  502    0  0.00000000000E+00  0.00000000000E+00  0.83479501631E+03  0.83479501631E+03  0.00000000000E+00 0. -1.
          2   -1    0    0  501    0 -0.00000000000E+00 -0.00000000000E+00 -0.15410388713E+01  0.15410388713E+01  0.00000000000E+00 0. -1.
          2    1    1    2  501    0 -0.19859063794E+02  0.14050210498E+02  0.72391136618E+03  0.72431999622E+03  0.00000000000E+00 0. -1.
          2    1    1    2  502    0  0.19859063794E+02 -0.14050210498E+02  0.10934261125E+03  0.11201605896E+03  0.00000000000E+00 0. -1.
</event>
<event>
 4    1  0.6136512E+003  0.2014449E+02  0.7546771E-02  0.1531838E+00
          2   -1    0    0  502    0  0.00000000000E+00  0.00000000000E+00  0.62816891757E+03  0.62816891757E+03  0.00000000000E+00 0.  1.
          2   -1    0    0  501    0 -0.00000000000E+00 -0.00000000000E+00 -0.41456536281E+01  0.41456536281E+01  0.00000000000E+00 0.  1.
          2    1    1    2  501    0 -0.99933140735E+01  0.17490971857E+02  0.60249340900E+03  0.60283008245E+03  0.00000000000E+00 0.  1.
          2    1    1    2  502    0  0.99933140735E+01 -0.17490971857E+02  0.21529854941E+02  0.29484488744E+02  0.00000000000E+00 0.  1.
</event>
<event>
 4    1  0.6136512E+003  0.4247034E+02  0.7546771E-02  0.1334588E+00
          2   -1    0    0  501    0  0.00000000000E+00  0.00000000000E+00  0.27034654110E+02  0.27034654110E+02  0.00000000000E+00 0.  1.
          2   -1    0    0  502    0 -0.00000000000E+00 -0.00000000000E+00 -0.14415675137E+04  0.14415675137E+04  0.00000000000E+00 0. -1.
          2    1    1    2  501    0  0.41281457210E+02  0.99785439205E+01 -0.14243736103E+04  0.14250066357E+04  0.00000000000E+00 0. -1.
          2    1    1    2  502    0 -0.41281457210E+02 -0.99785439205E+01  0.98407506898E+01  0.43595532137E+02  0.00000000000E+00 0.  1.
</event>
<event>
 4    1  0.6136512E+003  0.2549101E+02  0.7546771E-02  0.1463385E+00
          2   -1    0    0  501    0  0.00000000000E+00  0.00000000000E+00  0.16497239968E+02  0.16497239968E+02  0.00000000000E+00 0.  1.
          2   -1    0    0  502    0 -0.00000000000E+00 -0.00000000000E+00 -0.12059093627E+04  0.12059093627E+04  0.00000000000E+00 0.  1.
          2    1    1    2  501    0  0.20459218600E+02  0.15205656079E+02 -0.11958448130E+04  0.11961164694E+04  0.00000000000E+00 0.  1.
          2    1    1    2  502    0 -0.20459218600E+02 -0.15205656079E+02  0.64326902734E+01  0.26290133257E+02  0.00000000000E+00 0.  1.
</event>
<event>
 4    1  0.6136512E+003  0.4369709E+02  0.7546771E-02  0.1328084E+00
          2   -1    0    0  502    0  0.00000000000E+00  0.00000000000E+00  0.13218305261E+04  0.13218305261E+04  0.00000000000E+00 0. -1.
          2   -1    0    0  501    0 -0.00000000000E+00 -0.00000000000E+00 -0.82709385915E+01  0.82709385915E+01  0.00000000000E+00 0.  1.
          2    1    1    2  501    0  0.26273849593E+02  0.34915900531E+02  0.12609693895E+04  0.12617262922E+04  0.00000000000E+00 0. -1.
          2    1    1    2  502    0 -0.26273849593E+02 -0.34915900531E+02  0.52590198059E+02  0.68375172499E+02  0.00000000000E+00 0.  1.
</event>
<event>
 4    1  0.6136512E+003  0.2082028E+02  0.7546771E-02  0.1521846E+00
          2   -1    0    0  502    0  0.00000000000E+00  0.00000000000E+00  0.92416184252E+03  0.92416184252E+03  0.00000000000E+00 0.  1.
          2   -1    0    0  501    0 -0.00000000000E+00 -0.00000000000E+00 -0.24429662973E+02  0.24429662973E+02  0.00000000000E+00 0.  1.
          2    1    1    2  501    0  0.20259743662E+02 -0.47986306114E+01  0.91958646758E+03  0.91982213250E+03  0.00000000000E+00 0.  1.
          2    1    1    2  502    0 -0.20259743662E+02  0.47986306114E+01 -0.19854288037E+02  0.28769372994E+02  0.00000000000E+00 0.  1.
</event>
<event>
 4    1  0.6136512E+003  0.2942217E+02  0.7546771E-02  0.1424685E+00
          2   -1    0    0  501    0  0.00000000000E+00  0.00000000000E+00  0.88187764400E+00  0.88187764400E+00  0.00000000000E+00 0.  1.
          2   -1    0    0  502    0 -0.00000000000E+00 -0.00000000000E+00 -0.98671018248E+03  0.98671018248E+03  0.00000000000E+00 0.  1.
          2    1    1    2  501    0 -0.29387147152E+02 -0.14351158578E+01 -0.52839953493E+03  0.52921803871E+03  0.00000000000E+00 0.  1.
          2    1    1    2  502    0  0.29387147152E+02  0.14351158578E+01 -0.45742876990E+03  0.45837402142E+03  0.00000000000E+00 0.  1.
</event>
<event>
 4    1  0.6136512E+003  0.3103799E+02  0.7546771E-02  0.1410786E+00
          2   -1    0    0  501    0  0.00000000000E+00  0.00000000000E+00  0.33897927571E+03  0.33897927571E+03  0.00000000000E+00 0.  1.
          2   -1    0    0  502    0 -0.00000000000E+00 -0.00000000000E+00 -0.26951019912E+02  0.26951019912E+02  0.00000000000E+00 0. -1.
          2    1    1    2  501    0  0.46544680019E-01 -0.31037953522E+02 -0.17035687669E+02  0.35405809970E+02  0.00000000000E+00 0. -1.
          2    1    1    2  502    0 -0.46544680019E-01  0.31037953522E+02  0.32906394346E+03  0.33052448565E+03  0.00000000000E+00 0.  1.
</event>
<event>
 4    1  0.6136512E+003  0.3394329E+02  0.7546771E-02  0.1388148E+00
          2   -1    0    0  502    0  0.00000000000E+00  0.00000000000E+00  0.90523278834E+01  0.90523278834E+01  0.00000000000E+00 0. -1.
          2   -1    0    0  501    0 -0.00000000000E+00 -0.00000000000E+00 -0.18447559528E+04  0.18447559528E+04  0.00000000000E+00 0. -1.
          2    1    1    2  501    0  0.28150164863E+02  0.18966160547E+02 -0.23494300720E+02  0.41281099720E+02  0.00000000000E+00 0. -1.
          2    1    1    2  502    0 -0.28150164863E+02 -0.18966160547E+02 -0.18122093242E+04  0.18125271809E+04  0.00000000000E+00 0. -1.
</event>
<event>
 4    1  0.6136512E+003  0.2977837E+02  0.7546771E-02  0.1421532E+00
          2   -1    0    0  501    0  0.00000000000E+00  0.00000000000E+00  0.59585864846E+02  0.59585864846E+02  0.00000000000E+00 0.  1.
          2   -1    0    0  502    0 -0.00000000000E+00 -0.00000000000E+00 -0.15333333713E+02  0.15333333713E+02  0.00000000000E+00 0.  1.
          2    1    1    2  501    0 -0.29778258453E+02  0.80205744870E-01  0.15698796548E+02  0.33663085457E+02  0.00000000000E+00 0.  1.
          2    1    1    2  502    0  0.29778258453E+02 -0.80205744870E-01  0.28553734585E+02  0.41256113101E+02  0.00000000000E+00 0.  1.
</event>
<event>
 4    1  0.6136512E+003  0.3139200E+02  0.7546771E-02  0.1407874E+00
          2   -1    0    0  502    0  0.00000000000E+00  0.00000000000E+00  0.20505020487E+03  0.20505020487E+03  0.00000000000E+00 0.  1.
          2   -1    0    0  501    0 -0.00000000000E+00 -0.00000000000E+00 -0.10134663147E+02  0.10134663147E+02  0.00000000000E+00 0.  1.
          2    1    1    2  501    0 -0.13125641674E+02  0.28516223541E+02  0.17547471788E+03  0.17826057918E+03  0.00000000000E+00 0.  1.
          2    1    1    2  502    0  0.13125641674E+02 -0.28516223541E+02  0.19440823843E+02  0.36924288836E+02  0.00000000000E+00 0.  1.
</event>
<event>
 4    1  0.6136512E+003  0.3478581E+02  0.7546771E-02  0.1382075E+00
          2   -1    0    0  502    0  0.00000000000E+00  0.00000000000E+00  0.25282187178E+03  0.25282187178E+03  0.00000000000E+00 0.  1.
          2   -1    0    0  501    0 -0.00000000000E+00 -0.00000000000E+00 -0.36931564064E+02  0.36931564064E+02  0.00000000000E+00 0. -1.
          2    1    1    2  501    0  0.34327279127E+02  0.56294484710E+01  0.24310852342E+03  0.24558462277E+03  0.00000000000E+00 0.  1.
          2    1    1    2  502    0 -0.34327279127E+02 -0.56294484710E+01 -0.27218215702E+02  0.44168813074E+02  0.00000000000E+00 0. -1.
</event>
<event>
 4    1  0.6136512E+003  0.6257113E+03  0.7546771E-02  0.9152415E-01
          2   -1    0    0  502    0  0.00000000000E+00  0.00000000000E+00  0.17267340969E+04  0.17267340969E+04  0.00000000000E+00 0.  1.
          2   -1    0    0  501    0 -0.00000000000E+00 -0.00000000000E+00 -0.12209290164E+04  0.12209290164E+04  0.00000000000E+00 0. -1.
          2    1    1    2  501    0  0.60341658843E+03 -0.16553864259E+03  0.15828600464E+04  0.17020459887E+04  0.00000000000E+00 0.  1.
          2    1    1    2  502    0 -0.60341658843E+03  0.16553864259E+03 -0.10770549659E+04  0.12456171245E+04  0.00000000000E+00 0. -1.
</event>
<event>
 4    1  0.6136512E+003  0.3306897E+02  0.7546771E-02  0.1394672E+00
          2   -1    0    0  502    0  0.00000000000E+00  0.00000000000E+00  0.35550474461E+03  0.35550474461E+03  0.00000000000E+00 0. -1.
          2   -1    0    0  501    0 -0.00000000000E+00 -0.00000000000E+00 -0.18560392105E+02  0.18560392105E+02  0.00000000000E+00 0. -1.
          2    1    1    2  501    0  0.28998691423E+02 -0.15894432283E+02  0.33930439380E+03  0.34091205425E+03  0.00000000000E+00 0. -1.
          2    1    1    2  502    0 -0.28998691423E+02  0.15894432283E+02 -0.23600412956E+01  0.33153082462E+02  0.00000000000E+00 0. -1.
</event>
<event>
 4    1  0.6136512E+003  0.2255319E+02  0.7546771E-02  0.1498186E+00
          2   -1    0    0  502    0  0.00000000000E+00  0.00000000000E+00  0.14029974505E+04  0.14029974505E+04  0.00000000000E+00 0.  1.
          2   -1    0    0  501    0 -0.00000000000E+00 -0.00000000000E+00 -0.41362626110E+00  0.41362626110E+00  0.00000000000E+00 0.  1.
          2    1    1    2  501    0 -0.12798076902E+02  0.18570287006E+02  0.94789124350E+03  0.94815950970E+03  0.00000000000E+00 0.  1.
          2    1    1    2  502    0  0.12798076902E+02 -0.18570287006E+02  0.45469258070E+03  0.45525156702E+03  0.00000000000E+00 0.  1.
</event>
<event>
 4    1  0.6136512E+003  0.3755369E+02  0.7546771E-02  0.1363450E+00
          2   -1    0    0  502    0  0.00000000000E+00  0.00000000000E+00  0.61551550605E+01  0.61551550605E+01  0.00000000000E+00 0.  1.
          2   -1    0    0  501    0 -0.00000000000E+00 -0.00000000000E+00 -0.67254981140E+03  0.67254981140E+03  0.00000000000E+00 0. -1.
          2    1    1    2  501    0 -0.27295304142E+02 -0.25792368551E+02 -0.57647344233E+02  0.68800408435E+02  0.00000000000E+00 0.  1.
          2    1    1    2  502    0  0.27295304142E+02  0.25792368551E+02 -0.60874731211E+03  0.60990455803E+03  0.00000000000E+00 0. -1.
</event>
<event>
 4    1  0.6136512E+003  0.2177529E+02  0.7546771E-02  0.1508477E+00
          2   -1    0    0  502    0  0.00000000000E+00  0.00000000000E+00  0.18429573739E+04  0.18429573739E+04  0.00000000000E+00 0.  1.
          2   -1    0    0  501    0 -0.00000000000E+00 -0.00000000000E+00 -0.27097294233E+00  0.27097294233E+00  0.00000000000E+00 0.  1.
          2    1    1    2  501    0 -0.20996304491E+02 -0.57722080688E+01  0.11284876679E+04  0.11286977363E+04  0.00000000000E+00 0.  1.
          2    1    1    2  502    0  0.20996304491E+02  0.57722080688E+01  0.71419873307E+03  0.71453061061E+03  0.00000000000E+00 0.  1.
</event>
<event>
 4    1  0.6136512E+003  0.3078035E+02  0.7546771E-02  0.1412934E+00
          2   -1    0    0  502    0  0.00000000000E+00  0.00000000000E+00  0.87585921321E+01  0.87585921321E+01  0.00000000000E+00 0.  1.
          2   -1    0    0  501    0 -0.00000000000E+00 -0.00000000000E+00 -0.11878843174E+03  0.11878843174E+03  0.00000000000E+00 0.  1.
          2    1    1    2  501    0  0.23646525391E+02  0.19704619313E+02 -0.74080606549E+02  0.80220735799E+02  0.00000000000E+00 0.  1.
          2    1    1    2  502    0 -0.23646525391E+02 -0.19704619313E+02 -0.35949233059E+02  0.47326288074E+02  0.00000000000E+00 0.  1.
</event>
<event>
 4    1  0.6136512E+003  0.2250888E+02  0.7546771E-02  0.1498759E+00
          2   -1    0    0  501    0  0.00000000000E+00  0.00000000000E+00  0.13298605729E+03  0.13298605729E+03  0.00000000000E+00 0. -1.
          2   -1    0    0  502    0 -0.00000000000E+00 -0.00000000000E+00 -0.17184611289E+02  0.17184611289E+02  0.00000000000E+00 0.  1.
          2    1    1    2  501    0 -0.22196495372E+02  0.37370411158E+01 -0.83406220411E+01  0.24004496644E+02  0.00000000000E+00 0.  1.
          2    1    1    2  502    0  0.22196495372E+02 -0.37370411158E+01  0.12414206804E+03  0.12616617194E+03  0.00000000000E+00 0. -1.
</event>
<event>
 4    1  0.6136512E+003  0.2054002E+02  0.7546771E-02  0.1525935E+00
          2   -1    0    0  502    0  0.00000000000E+00  0.00000000000E+00  0.95885170574E+03  0.95885170574E+03  0.00000000000E+00 0.  1.
          2   -1    0    0  501    0 -0.00000000000E+00 -0.00000000000E+00 -0.97991861294E+01  0.97991861294E+01  0.00000000000E+00 0. -1.
          2    1    1    2  501    0  0.55233705429E+01  0.19783444174E+02  0.94785337612E+03  0.94807590145E+03  0.00000000000E+00 0.  1.
          2    1    1    2  502    0 -0.55233705429E+01 -0.19783444174E+02  0.11991434865E+01  0.20574990417E+02  0.00000000000E+00 0. -1.
</event>
<event>
 4    1  0.6136512E+003  0.4055650E+02  0.7546771E-02  0.1345255E+00
          2   -1    0    0  502    0  0.00000000000E+00  0.00000000000E+00  0.44874882143E+01  0.44874882143E+01  0.00000000000E+00 0.  1.
          2   -1    0    0  501    0 -0.00000000000E+00 -0.00000000000E+00 -0.11204271937E+04  0.11204271937E+04  0.00000000000E+00 0.  1.
          2    1    1    2  501    0 -0.95355221364E+01  0.39419586821E+02 -0.96597203379E+02  0.10476568956E+03  0.00000000000E+00 0.  1.
          2    1    1    2  502    0  0.95355221364E+01 -0.39419586821E+02 -0.10193425021E+04  0.10201489924E+04  0.00000000000E+00 0.  1.
</event>
<event>
 4    1  0.8388214E+003  0.2227499E+02  0.7546771E-02  0.1501808E+00
          2   -1    0    0  502    0  0.00000000000E+00  0.00000000000E+00  0.72363277925E+03  0.72363277925E+03  0.00000000000E+00 0.  1.
          2   -1    0    0  501    0 -0.00000000000E+00 -0.00000000000E+00 -0.48318194439E+03  0.48318194439E+03  0.00000000000E+00 0.  1.
          2    1    1    2  501    0 -0.21290256713E+02  0.65498187897E+01  0.72320448638E+03  0.72354744438E+03  0.00000000000E+00 0.  1.
          2    1    1    2  502    0  0.21290256713E+02 -0.65498187897E+01 -0.48275365152E+03  0.48326727927E+03  0.00000000000E+00 0.  1.
</event>
<event>
 4    1  0.6136512E+003  0.2444879E+02  0.7546771E-02  0.1475065E+00
          2   -1    0    0  502    0  0.00000000000E+00  0.00000000000E+00  0.19188485173E+02  0.19188485173E+02  0.00000000000E+00 0.  1.
          2   -1    0    0  501    0 -0.00000000000E+00 -0.00000000000E+00 -0.31467627041E+02  0.31467627041E+02  0.00000000000E+00 0.  1.
          2    1    1    2  501    0 -0.23035112003E+02 -0.81930928241E+01 -0.35994814948E+01  0.24712333399E+02  0.00000000000E+00 0.  1.
          2    1    1    2  502    0  0.23035112003E+02  0.81930928241E+01 -0.86796603731E+01  0.25943778815E+02  0.00000000000E+00 0.  1.
</event>
<event>
 4    1  0.6136512E+003  0.2491392E+02  0.7546771E-02  0.1469769E+00
          2   -1    0    0  502    0  0.00000000000E+00  0.00000000000E+00  0.10385760455E+03  0.10385760455E+03  0.00000000000E+00 0. -1.
          2   -1    0    0  501    0 -0.00000000000E+00 -0.00000000000E+00 -0.81814112249E+03  0.81814112249E+03  0.00000000000E+00 0. -1.
          2    1    1    2  501    0  0.77990289817E+01 -0.23661757536E+02  0.10217072764E+03  0.10516444841E+03  0.00000000000E+00 0. -1.
          2    1    1    2  502    0 -0.77990289817E+01  0.23661757536E+02 -0.81645424558E+03  0.81683427863E+03  0.00000000000E+00 0. -1.
</event>
<event>
 4    1  0.6136512E+003  0.2373729E+02  0.7546771E-02  0.1483442E+00
          2   -1    0    0  502    0  0.00000000000E+00  0.00000000000E+00  0.17689770526E+01  0.17689770526E+01  0.00000000000E+00 0. -1.
          2   -1    0    0  501    0 -0.00000000000E+00 -0.00000000000E+00 -0.40430593134E+03  0.40430593134E+03  0.00000000000E+00 0.  1.
          2    1    1    2  501    0 -0.22367091930E+01 -0.23631670864E+02 -0.29479249979E+03  0.29574664270E+03  0.00000000000E+00 0.  1.
          2    1    1    2  502    0  0.22367091930E+01  0.23631670864E+02 -0.10774445450E+03  0.11032826569E+03  0.00000000000E+00 0. -1.
</event>
<event>
 4    1  0.6136512E+003  0.2397981E+02  0.7546771E-02  0.1480548E+00
          2   -1    0    0  501    0  0.00000000000E+00  0.00000000000E+00  0.33763720025E+03  0.33763720025E+03  0.00000000000E+00 0. -1.
          2   -1    0    0  502    0 -0.00000000000E+00 -0.00000000000E+00 -0.18118831814E+02  0.18118831814E+02  0.00000000000E+00 0. -1.
          2    1    1    2  501    0  0.22379522617E+02 -0.86132654943E+01 -0.95526236554E+01  0.25812477482E+02  0.00000000000E+00 0. -1.
          2    1    1    2  502    0 -0.22379522617E+02  0.86132654943E+01  0.32907099209E+03  0.32994355458E+03  0.00000000000E+00 0. -1.
</event>
<event>
 4    1  0.6136512E+003  0.4040106E+02  0.7546771E-02  0.1346152E+00
          2   -1    0    0  502    0  0.00000000000E+00  0.00000000000E+00  0.44996734750E+02  0.44996734750E+02  0.00000000000E+00 0. -1.
          2   -1    0    0  501    0 -0.00000000000E+00 -0.00000000000E+00 -0.13735700635E+03  0.13735700635E+03  0.00000000000E+00 0. -1.
          2    1    1    2  501    0  0.28035145438E+02  0.29090824046E+02  0.32036067597E+02  0.51561177746E+02  0.00000000000E+00 0. -1.
          2    1    1    2  502    0 -0.28035145438E+02 -0.29090824046E+02 -0.12439633920E+03  0.13079256336E+03  0.00000000000E+00 0. -1.
</event>
<event>
 4    1  0.6136512E+003  0.3664147E+02  0.7546771E-02  0.1369376E+00
          2   -1    0    0  502    0  0.00000000000E+00  0.00000000000E+00  0.11086864342E+02  0.11086864342E+02  0.00000000000E+00 0. -1.
          2   -1    0    0  501    0 -0.00000000000E+00 -0.00000000000E+00 -0.15429644969E+03  0.15429644969E+03  0.00000000000E+00 0. -1.
          2    1    1    2  501    0 -0.18151121946E+02 -0.31829770290E+02 -0.33247990746E+02  0.49477534228E+02  0.00000000000E+00 0. -1.
          2    1    1    2  502    0  0.18151121946E+02  0.31829770290E+02 -0.10996159460E+03  0.11590577980E+03  0.00000000000E+00 0. -1.
</event>
<event>
 4    1  0.6136512E+003  0.2013326E+02  0.7546771E-02  0.1532008E+00
          2   -1    0    0  501    0  0.00000000000E+00  0.00000000000E+00  0.15302221858E+03  0.15302221858E+03  0.00000000000E+00 0. -1.
          2   -1    0    0  502    0 -0.00000000000E+00 -0.00000000000E+00 -0.30044089055E+02  0.30044089055E+02  0.00000000000E+00 0. -1.
          2    1    1    2  501    0 -0.19590557534E+02  0.46430683331E+01 -0.25915813034E+02  0.32817333732E+02  0.00000000000E+00 0. -1.
          2    1    1    2  502    0  0.19590557534E+02 -0.46430683331E+01  0.14889394255E+03  0.15024897390E+03  0.00000000000E+00 0. -1.
</event>
<event>
 4    1  0.6136512E+003  0.6604337E+02  0.7546771E-02  0.1240575E+00
          2   -1    0    0  501    0  0.00000000000E+00  0.00000000000E+00  0.77087313411E+01  0.77087313411E+01  0.00000000000E+00 0.  1.
          2   -1    0    0  502    0 -0.00000000000E+00 -0.00000000000E+00 -0.11594745881E+04  0.11594745881E+04  0.00000000000E+00 0.  1.
          2    1    1    2  501    0 -0.51160865356E+02 -0.41764735962E+02 -0.99346962759E+03  0.99566240677E+03  0.00000000000E+00 0.  1.
          2    1    1    2  502    0  0.51160865356E+02  0.41764735962E+02 -0.15829622917E+03  0.17152091267E+03  0.00000000000E+00 0.  1.
</event>
<event>
 4    1  0.6136512E+003  0.2636149E+02  0.7546771E-02  0.1454130E+00
          2   -1    0    0  501    0  0.00000000000E+00  0.00000000000E+00  0.59766895023E+02  0.59766895023E+02  0.00000000000E+00 0. -1.
          2   -1    0    0  502    0 -0.00000000000E+00 -0.00000000000E+00 -0.87301460159E+03  0.87301460159E+03  0.00000000000E+00 0.  1.
          2    1    1    2  501    0 -0.58549053633E+01  0.25703076327E+02 -0.86989836162E+03  0.87029770056E+03  0.00000000000E+00 0.  1.
          2    1    1    2  502    0  0.58549053633E+01 -0.25703076327E+02  0.56650655061E+02  0.62483796046E+02  0.00000000000E+00 0. -1.
</event>
<event>
 4    1  0.6136512E+003  0.4203403E+02  0.7546771E-02  0.1336962E+00
          2   -1    0    0  502    0  0.00000000000E+00  0.00000000000E+00  0.65128677956E+03  0.65128677956E+03  0.00000000000E+00 0.  1.
          2   -1    0    0  501    0 -0.00000000000E+00 -0.00000000000E+00 -0.17640654963E+03  0.17640654963E+03  0.00000000000E+00 0. -1.
          2    1    1    2  501    0  0.99306055004E+00  0.42022301859E+02  0.64809227100E+03  0.64945396431E+03  0.00000000000E+00 0.  1.
          2    1    1    2  502    0 -0.99306055004E+00 -0.42022301859E+02 -0.17321204107E+03  0.17823936489E+03  0.00000000000E+00 0. -1.
</event>
<event>
 4    1  0.6136512E+003  0.2013440E+02  0.7546771E-02  0.1531991E+00
          2   -1    0    0  501    0  0.00000000000E+00  0.00000000000E+00  0.16043383203E+04  0.16043383203E+04  0.00000000000E+00 0.  1.
          2   -1    0    0  502    0 -0.00000000000E+00 -0.00000000000E+00 -0.42900690637E+00  0.42900690637E+00  0.00000000000E+00 0. -1.
          2    1    1    2  501    0  0.26091961723E+01  0.19964619961E+02  0.28755372418E+03  0.28825776355E+03  0.00000000000E+00 0. -1.
          2    1    1    2  502    0 -0.26091961723E+01 -0.19964619961E+02  0.13163555892E+04  0.13165095636E+04  0.00000000000E+00 0.  1.
</event>
<event>
 4    1  0.6136512E+003  0.2019951E+02  0.7546771E-02  0.1531007E+00
          2   -1    0    0  501    0  0.00000000000E+00  0.00000000000E+00  0.24616391669E+01  0.24616391669E+01  0.00000000000E+00 0.  1.
          2   -1    0    0  502    0 -0.00000000000E+00 -0.00000000000E+00 -0.18522016212E+03  0.18522016212E+03  0.00000000000E+00 0. -1.
          2    1    1    2  501    0 -0.18790468820E+02  0.74120460255E+01 -0.60955200911E+02  0.64214925546E+02  0.00000000000E+00 0.  1.
          2    1    1    2  502    0  0.18790468820E+02 -0.74120460255E+01 -0.12180332205E+03  0.12346687574E+03  0.00000000000E+00 0. -1.
</event>
<event>
 4    1  0.6136512E+003  0.2884793E+02  0.7546771E-02  0.1429879E+00
          2   -1    0    0  501    0  0.00000000000E+00  0.00000000000E+00  0.68187152132E+02  0.68187152132E+02  0.00000000000E+00 0. -1.
          2   -1    0    0  502    0 -0.00000000000E+00 -0.00000000000E+00 -0.45160709809E+03  0.45160709809E+03  0.00000000000E+00 0. -1.
          2    1    1    2  501    0  0.28801586149E+02  0.16345144704E+01 -0.44807118289E+03  0.44899887298E+03  0.00000000000E+00 0. -1.
          2    1    1    2  502    0 -0.28801586149E+02 -0.16345144704E+01  0.64651236931E+02  0.70795377242E+02  0.00000000000E+00 0. -1.
</event>
<event>
 4    1  0.6136512E+003  0.9236056E+02  0.7546771E-02  0.1177747E+00
          2   -1    0    0  502    0  0.00000000000E+00  0.00000000000E+00  0.40765146175E+03  0.40765146175E+03  0.00000000000E+00 0. -1.
          2   -1    0    0  501    0 -0.00000000000E+00 -0.00000000000E+00 -0.13656767307E+03  0.13656767307E+03  0.00000000000E+00 0. -1.
          2    1    1    2  501    0  0.63837119801E+02 -0.66747996832E+02  0.38593780480E+03  0.39683556055E+03  0.00000000000E+00 0. -1.
          2    1    1    2  502    0 -0.63837119801E+02  0.66747996832E+02 -0.11485401611E+03  0.14738357426E+03  0.00000000000E+00 0. -1.
</event>
<event>
 4    1  0.6136512E+003  0.2575685E+02  0.7546771E-02  0.1460512E+00
          2   -1    0    0  501    0  0.00000000000E+00  0.00000000000E+00  0.75200007474E+01  0.75200007474E+01  0.00000000000E+00 0. -1.
          2   -1    0    0  502    0 -0.00000000000E+00 -0.00000000000E+00 -0.24801800104E+03  0.24801800104E+03  0.00000000000E+00 0. -1.
          2    1    1    2  501    0 -0.16664471788E+02 -0.19639513499E+02 -0.22280697866E+03  0.22429080420E+03  0.00000000000E+00 0. -1.
          2    1    1    2  502    0  0.16664471788E+02  0.19639513499E+02 -0.17691021633E+02  0.31247197585E+02  0.00000000000E+00 0. -1.
</event>
<event>
 4    1  0.6136512E+003  0.2470206E+02  0.7546771E-02  0.1472164E+00
          2   -1    0    0  502    0  0.00000000000E+00  0.00000000000E+00  0.20358323052E+03  0.20358323052E+03  0.00000000000E+00 0.  1.
          2   -1    0    0  501    0 -0.00000000000E+00 -0.00000000000E+00 -0.11292133324E+02  0.11292133324E+02  0.00000000000E+00 0.  1.
          2    1    1    2  501    0  0.17165365370E+02  0.17763504511E+02  0.18822728738E+03  0.18984125889E+03  0.00000000000E+00 0.  1.
          2    1    1    2  502    0 -0.17165365370E+02 -0.17763504511E+02  0.40638098133E+01  0.25034104957E+02  0.00000000000E+00 0.  1.
</event>
<event>
 4    1  0.6136512E+003  0.2472969E+02  0.7546771E-02  0.1471850E+00
          2   -1    0    0  502    0  0.00000000000E+00  0.00000000000E+00  0.19134717025E+03  0.19134717025E+03  0.00000000000E+00 0.  1.
          2   -1    0    0  501    0 -0.00000000000E+00 -0.00000000000E+00 -0.14969562513E+04  0.14969562513E+04  0.00000000000E+00 0.  1.
          2    1    1    2  501    0 -0.21932264027E+02  0.11425123710E+02  0.19044553941E+03  0.19204442491E+03  0.00000000000E+00 0.  1.
          2    1    1    2  502    0  0.21932264027E+02 -0.11425123710E+02 -0.14960546205E+04  0.14962589967E+04  0.00000000000E+00 0.  1.
</event>
<event>
 4    1  0.6136512E+003  0.2611995E+02  0.7546771E-02  0.1456654E+00
          2   -1    0    0  502    0  0.00000000000E+00  0.00000000000E+00  0.27701922460E+01  0.27701922460E+01  0.00000000000E+00 0.  1.
          2   -1    0    0  501    0 -0.00000000000E+00 -0.00000000000E+00 -0.57707905006E+03  0.57707905006E+03  0.00000000000E+00 0.  1.
          2    1    1    2  501    0  0.20100363914E+02 -0.16680148200E+02 -0.67647905176E+02  0.72515453858E+02  0.00000000000E+00 0.  1.
          2    1    1    2  502    0 -0.20100363914E+02  0.16680148200E+02 -0.50666095264E+03  0.50733378845E+03  0.00000000000E+00 0.  1.
</event>
<event>
 4    1  0.6136512E+003  0.4251161E+02  0.7546771E-02  0.1334365E+00
          2   -1    0    0  502    0  0.00000000000E+00  0.00000000000E+00  0.97680450659E+02  0.97680450659E+02  0.00000000000E+00 0. -1.
          2   -1    0    0  501    0 -0.00000000000E+00 -0.00000000000E+00 -0.88910538549E+03  0.88910538549E+03  0.00000000000E+00 0.  1.
          2    1    1    2  501    0 -0.40239449261E+02 -0.13712182707E+02  0.92519920185E+02  0.10181931478E+03  0.00000000000E+00 0. -1.
          2    1    1    2  502    0  0.40239449261E+02  0.13712182707E+02 -0.88394485502E+03  0.88496652137E+03  0.00000000000E+00 0.  1.
</event>
<event>
 4    1  0.6136512E+003  0.2225055E+02  0.7546771E-02  0.1502130E+00
          2   -1    0    0  501    0  0.00000000000E+00  0.00000000000E+00  0.15670057850E+01  0.15670057850E+01  0.00000000000E+00 0. -1.
          2   -1    0    0  502    0 -0.00000000000E+00 -0.00000000000E+00 -0.31595014689E+03  0.31595014689E+03  0.00000000000E+00 0.  1.
          2    1    1    2  501    0  0.14249808914E+01  0.22204876356E+02 -0.15652976802E+03  0.15810330604E+03  0.00000000000E+00 0.  1.
          2    1    1    2  502    0 -0.14249808914E+01 -0.22204876356E+02 -0.15785337309E+03  0.15941384664E+03  0.00000000000E+00 0. -1.
</event>
<event>
 4    1  0.6136512E+003  0.2525626E+02  0.7546771E-02  0.1465957E+00
          2   -1    0    0  501    0  0.00000000000E+00  0.00000000000E+00  0.22077651805E+01  0.22077651805E+01  0.00000000000E+00 0.  1.
          2   -1    0    0  502    0 -0.00000000000E+00 -0.00000000000E+00 -0.18376340867E+04  0.18376340867E+04  0.00000000000E+00 0. -1.
          2    1    1    2  501    0 -0.20036342474E+02  0.15376067657E+02 -0.17622253207E+04  0.17624062981E+04  0.00000000000E+00 0. -1.
          2    1    1    2  502    0  0.20036342474E+02 -0.15376067657E+02 -0.73201000784E+02  0.77435553799E+02  0.00000000000E+00 0.  1.
</event>
<event>
 4    1  0.6136512E+003  0.4663739E+02  0.7546771E-02  0.1313449E+00
          2   -1    0    0  502    0  0.00000000000E+00  0.00000000000E+00  0.32763510294E+02  0.32763510294E+02  0.00000000000E+00 0.  1.
          2   -1    0    0  501    0 -0.00000000000E+00 -0.00000000000E+00 -0.16551064380E+04  0.16551064380E+04  0.00000000000E+00 0. -1.
          2    1    1    2  501    0  0.44539599270E+02  0.13830037031E+02  0.15665210360E+02  0.49198014625E+02  0.00000000000E+00 0.  1.
          2    1    1    2  502    0 -0.44539599270E+02 -0.13830037031E+02 -0.16380081380E+04  0.16386719336E+04  0.00000000000E+00 0. -1.
</event>
<event>
 4    1  0.6136512E+003  0.2066378E+02  0.7546771E-02  0.1524120E+00
          2   -1    0    0  501    0  0.00000000000E+00  0.00000000000E+00  0.16273196347E+01  0.16273196347E+01  0.00000000000E+00 0. -1.
          2   -1    0    0  502    0 -0.00000000000E+00 -0.00000000000E+00 -0.30904041364E+03  0.30904041364E+03  0.00000000000E+00 0. -1.
          2    1    1    2  501    0 -0.20507097721E+02 -0.25398186800E+01 -0.21405805981E+03  0.21505312066E+03  0.00000000000E+00 0. -1.
          2    1    1    2  502    0  0.20507097721E+02  0.25398186800E+01 -0.93355034193E+02  0.95614612613E+02  0.00000000000E+00 0. -1.
</event>
<event>
 4    1  0.6136512E+003  0.2308841E+02  0.7546771E-02  0.1491391E+00
          2   -1    0    0  501    0  0.00000000000E+00  0.00000000000E+00  0.19786954786E+01  0.19786954786E+01  0.00000000000E+00 0.  1.
          2   -1    0    0  502    0 -0.00000000000E+00 -0.00000000000E+00 -0.94853156583E+03  0.94853156583E+03  0.00000000000E+00 0. -1.
          2    1    1    2  501    0 -0.40818233454E+01  0.22724735366E+02 -0.87541485286E+03  0.87571926979E+03  0.00000000000E+00 0. -1.
          2    1    1    2  502    0  0.40818233454E+01 -0.22724735366E+02 -0.71138017495E+02  0.74790991519E+02  0.00000000000E+00 0.  1.
</event>
<event>
 4    1  0.6136512E+003  0.2723365E+02  0.7546771E-02  0.1445275E+00
          2   -1    0    0  502    0  0.00000000000E+00  0.00000000000E+00  0.16838886484E+03  0.16838886484E+03  0.00000000000E+00 0.  1.
          2   -1    0    0  501    0 -0.00000000000E+00 -0.00000000000E+00 -0.45149202967E+01  0.45149202967E+01  0.00000000000E+00 0.  1.
          2    1    1    2  501    0  0.20259743170E+02 -0.18199302719E+02  0.95455774175E+02  0.99264679701E+02  0.00000000000E+00 0.  1.
          2    1    1    2  502    0 -0.20259743170E+02  0.18199302719E+02  0.68418170364E+02  0.73639105432E+02  0.00000000000E+00 0.  1.
</event>
<event>
 4    1  0.6136512E+003  0.5263448E+02  0.7546771E-02  0.1287137E+00
          2   -1    0    0  502    0  0.00000000000E+00  0.00000000000E+00  0.43590638249E+02  0.43590638249E+02  0.00000000000E+00 0. -1.
          2   -1    0    0  501    0 -0.00000000000E+00 -0.00000000000E+00 -0.12580709507E+03  0.12580709507E+03  0.00000000000E+00 0. -1.
          2    1    1    2  501    0  0.34917582446E+02  0.39384657977E+02  0.18472135502E+02  0.55781794861E+02  0.00000000000E+00 0. -1.
          2    1    1    2  502    0 -0.34917582446E+02 -0.39384657977E+02 -0.10068859232E+03  0.11361593846E+03  0.00000000000E+00 0. -1.
</event>
<event>
 4    1  0.6136512E+003  0.2449822E+02  0.7546771E-02  0.1474496E+00
          2   -1    0    0  502    0  0.00000000000E+00  0.00000000000E+00  0.14551953936E+03  0.14551953936E+03  0.00000000000E+00 0.  1.
          2   -1    0    0  501    0 -0.00000000000E+00 -0.00000000000E+00 -0.17966527305E+03  0.17966527305E+03  0.00000000000E+00 0.  1.
          2    1    1    2  501    0 -0.45947121307E+01  0.24063490748E+02  0.14364252290E+03  0.14571663375E+03  0.00000000000E+00 0.  1.
          2    1    1    2  502    0  0.45947121307E+01 -0.24063490748E+02 -0.17778825659E+03  0.17946817865E+03  0.00000000000E+00 0.  1.
</event>
<event>
 4    1  0.6136512E+003  0.2317340E+02  0.7546771E-02  0.1490332E+00
          2   -1    0    0  502    0  0.00000000000E+00  0.00000000000E+00  0.98350726316E+00  0.98350726316E+00  0.00000000000E+00 0. -1.
          2   -1    0    0  501    0 -0.00000000000E+00 -0.00000000000E+00 -0.11039136242E+04  0.11039136242E+04  0.00000000000E+00 0. -1.
          2    1    1    2  501    0 -0.16915973545E+02  0.15838441463E+02 -0.15872674887E+03  0.16040943611E+03  0.00000000000E+00 0. -1.
          2    1    1    2  502    0  0.16915973545E+02 -0.15838441463E+02 -0.94420336812E+03  0.94448769539E+03  0.00000000000E+00 0. -1.
</event>
<event>
 4    1  0.6136512E+003  0.2038206E+02  0.7546771E-02  0.1528273E+00
          2   -1    0    0  501    0  0.00000000000E+00  0.00000000000E+00  0.23947580053E+01  0.23947580053E+01  0.00000000000E+00 0. -1.
          2   -1    0    0  502    0 -0.00000000000E+00 -0.00000000000E+00 -0.10542801449E+04  0.10542801449E+04  0.00000000000E+00 0.  1.
          2    1    1    2  501    0  0.15598512092E+02  0.13119245955E+02 -0.10088608752E+04  0.10090667440E+04  0.00000000000E+00 0.  1.
          2    1    1    2  502    0 -0.15598512092E+02 -0.13119245955E+02 -0.43024511622E+02  0.47608158904E+02  0.00000000000E+00 0. -1.
</event>
<event>
 4    1  0.6136512E+003  0.4150972E+02  0.7546771E-02  0.1339859E+00
          2   -1    0    0  502    0  0.00000000000E+00  0.00000000000E+00  0.28419206726E+04  0.28419206726E+04  0.00000000000E+00 0. -1.
          2   -1    0    0  501    0 -0.00000000000E+00 -0.00000000000E+00 -0.25910934815E+03  0.25910934815E+03  0.00000000000E+00 0. -1.
          2    1    1    2  501    0  0.22363271188E+02 -0.34970571573E+02  0.28401055548E+04  0.28404088824E+04  0.00000000000E+00 0. -1.
          2    1    1    2  502    0 -0.22363271188E+02  0.34970571573E+02 -0.25729423036E+03  0.26062113834E+03  0.00000000000E+00 0. -1.
</event>
<event>
 4    1  0.6136512E+003  0.2166407E+02  0.7546771E-02  0.1509991E+00
          2   -1    0    0  502    0  0.00000000000E+00  0.00000000000E+00  0.74211135480E+02  0.74211135480E+02  0.00000000000E+00 0.  1.
          2   -1    0    0  501    0 -0.00000000000E+00 -0.00000000000E+00 -0.29252028187E+02  0.29252028187E+02  0.00000000000E+00 0.  1.
          2    1    1    2  501    0 -0.12970625147E+01  0.21625209684E+02  0.68278813549E+02  0.71633291456E+02  0.00000000000E+00 0.  1.
          2    1    1    2  502    0  0.12970625147E+01 -0.21625209684E+02 -0.23319706257E+02  0.31829872211E+02  0.00000000000E+00 0.  1.
</event>
<event>
 4    1  0.6136512E+003  0.2143478E+02  0.7546771E-02  0.1513147E+00
          2   -1    0    0  501    0  0.00000000000E+00  0.00000000000E+00  0.42847842755E+02  0.42847842755E+02  0.00000000000E+00 0. -1.
          2   -1    0    0  502    0 -0.00000000000E+00 -0.00000000000E+00 -0.72787505170E+02  0.72787505170E+02  0.00000000000E+00 0. -1.
          2    1    1    2  501    0 -0.21416213054E+02 -0.89208741999E+00 -0.68359159016E+02  0.71640942365E+02  0.00000000000E+00 0. -1.
          2    1    1    2  502    0  0.21416213054E+02  0.89208741999E+00  0.38419496601E+02  0.43994405561E+02  0.00000000000E+00 0. -1.
</event>
<event>
 4    1  0.6136512E+003  0.2128753E+02  0.7546771E-02  0.1515199E+00
          2   -1    0    0  501    0  0.00000000000E+00  0.00000000000E+00  0.86369796086E+02  0.86369796086E+02  0.00000000000E+00 0. -1.
          2   -1    0    0  502    0 -0.00000000000E+00 -0.00000000000E+00 -0.88163431554E+03  0.88163431554E+03  0.00000000000E+00 0.  1.
          2    1    1    2  501    0  0.13275690768E+02 -0.16640762698E+02 -0.88019198441E+03  0.88044936730E+03  0.00000000000E+00 0.  1.
          2    1    1    2  502    0 -0.13275690768E+02  0.16640762698E+02  0.84927464964E+02  0.87554744325E+02  0.00000000000E+00 0. -1.
</event>
<event>
 4    1  0.6136512E+003  0.2219984E+02  0.7546771E-02  0.1502798E+00
          2   -1    0    0  502    0  0.00000000000E+00  0.00000000000E+00  0.12085675716E+04  0.12085675716E+04  0.00000000000E+00 0.  1.
          2   -1    0    0  501    0 -0.00000000000E+00 -0.00000000000E+00 -0.49012879196E+00  0.49012879196E+00  0.00000000000E+00 0.  1.
          2    1    1    2  501    0  0.37439670510E+01 -0.21881851060E+02  0.85182883300E+03  0.85211806308E+03  0.00000000000E+00 0.  1.
          2    1    1    2  502    0 -0.37439670510E+01  0.21881851060E+02  0.35624860981E+03  0.35693963732E+03  0.00000000000E+00 0.  1.
</event>
<event>
 4    1  0.6136512E+003  0.4987117E+02  0.7546771E-02  0.1298732E+00
          2   -1    0    0  502    0  0.00000000000E+00  0.00000000000E+00  0.21295608589E+04  0.21295608589E+04  0.00000000000E+00 0.  1.
          2   -1    0    0  501    0 -0.00000000000E+00 -0.00000000000E+00 -0.74812724868E+01  0.74812724868E+01  0.00000000000E+00 0.  1.
          2    1    1    2  501    0  0.43721273061E-01  0.49871153179E+02  0.20426198826E+04  0.20432286016E+04  0.00000000000E+00 0.  1.
          2    1    1    2  502    0 -0.43721273061E-01 -0.49871153179E+02  0.79459703829E+02  0.93813529747E+02  0.00000000000E+00 0.  1.
</event>
<event>
 4    1  0.6136512E+003  0.2085611E+02  0.7546771E-02  0.1521329E+00
          2   -1    0    0  501    0  0.00000000000E+00  0.00000000000E+00  0.23415088970E+01  0.23415088970E+01  0.00000000000E+00 0. -1.
          2   -1    0    0  502    0 -0.00000000000E+00 -0.00000000000E+00 -0.47467862779E+03  0.47467862779E+03  0.00000000000E+00 0.  1.
          2    1    1    2  501    0  0.23961052072E+01 -0.20718013334E+02 -0.42224382427E+03  0.42275858895E+03  0.00000000000E+00 0.  1.
          2    1    1    2  502    0 -0.23961052072E+01  0.20718013334E+02 -0.50093294623E+02  0.54261547737E+02  0.00000000000E+00 0. -1.
</event>
<event>
 4    1  0.6136512E+003  0.2034089E+02  0.7546771E-02  0.1528887E+00
          2   -1    0    0  502    0  0.00000000000E+00  0.00000000000E+00  0.35691072009E+03  0.35691072009E+03  0.00000000000E+00 0.  1.
          2   -1    0    0  501    0 -0.00000000000E+00 -0.00000000000E+00 -0.12413690441E+01  0.12413690441E+01  0.00000000000E+00 0.  1.
          2    1    1    2  501    0 -0.18340254591E+01  0.20258041513E+02  0.22389061996E+03  0.22481272563E+03  0.00000000000E+00 0.  1.
          2    1    1    2  502    0  0.18340254591E+01 -0.20258041513E+02  0.13177873109E+03  0.13333936351E+03  0.00000000000E+00 0.  1.
</event>
<event>
 4    1  0.6136512E+003  0.3524842E+02  0.7546771E-02  0.1378825E+00
          2   -1    0    0  501    0  0.00000000000E+00  0.00000000000E+00  0.82580533527E+03  0.82580533527E+03  0.00000000000E+00 0. -1.
          2   -1    0    0  502    0 -0.00000000000E+00 -0.00000000000E+00 -0.22707952813E+03  0.22707952813E+03  0.00000000000E+00 0. -1.
          2    1    1    2  501    0  0.13443561980E+02  0.32584072970E+02 -0.22533263752E+03  0.22807290216E+03  0.00000000000E+00 0. -1.
          2    1    1    2  502    0 -0.13443561980E+02 -0.32584072970E+02  0.82405844466E+03  0.82481196123E+03  0.00000000000E+00 0. -1.
</event>
<event>
 4    1  0.6136512E+003  0.2038684E+02  0.7546771E-02  0.1528202E+00
          2   -1    0    0  501    0  0.00000000000E+00  0.00000000000E+00  0.63285937437E+03  0.63285937437E+03  0.00000000000E+00 0.  1.
          2   -1    0    0  502    0 -0.00000000000E+00 -0.00000000000E+00 -0.17495736756E+01  0.17495736756E+01  0.00000000000E+00 0.  1.
          2    1    1    2  501    0  0.20154272259E+02  0.30705709049E+01  0.64778065317E+02  0.67910388323E+02  0.00000000000E+00 0.  1.
          2    1    1    2  502    0 -0.20154272259E+02 -0.30705709049E+01  0.56633173538E+03  0.56669855972E+03  0.00000000000E+00 0.  1.
</event>
<event>
 4    1  0.6136512E+003  0.2439136E+02  0.7546771E-02  0.1475729E+00
          2   -1    0    0  502    0  0.00000000000E+00  0.00000000000E+00  0.13666388783E+04  0.13666388783E+04  0.00000000000E+00 0. -1.
          2   -1    0    0  501    0 -0.00000000000E+00 -0.00000000000E+00 -0.13859737998E+01  0.13859737998E+01  0.00000000000E+00 0. -1.
          2    1    1    2  501    0 -0.91721132154E+01  0.22601118421E+02  0.12491207023E+04  0.12493588224E+04  0.00000000000E+00 0. -1.
          2    1    1    2  502    0  0.91721132154E+01 -0.22601118421E+02  0.11613220217E+03  0.11866602966E+03  0.00000000000E+00 0. -1.
</event>
<event>
 4    1  0.6136512E+003  0.2182571E+02  0.7546771E-02  0.1507795E+00
          2   -1    0    0  501    0  0.00000000000E+00  0.00000000000E+00  0.43644627941E+02  0.43644627941E+02  0.00000000000E+00 0. -1.
          2   -1    0    0  502    0 -0.00000000000E+00 -0.00000000000E+00 -0.12442715781E+02  0.12442715781E+02  0.00000000000E+00 0.  1.
          2    1    1    2  501    0  0.14823721640E+02 -0.16019327446E+02  0.57730229636E+01  0.22576301052E+02  0.00000000000E+00 0.  1.
          2    1    1    2  502    0 -0.14823721640E+02  0.16019327446E+02  0.25428889196E+02  0.33511042670E+02  0.00000000000E+00 0. -1.
</event>
<event>
 4    1  0.6136512E+003  0.2634020E+02  0.7546771E-02  0.1454351E+00
          2   -1    0    0  502    0  0.00000000000E+00  0.00000000000E+00  0.12484694804E+03  0.12484694804E+03  0.00000000000E+00 0.  1.
          2   -1    0    0  501    0 -0.00000000000E+00 -0.00000000000E+00 -0.10546832240E+04  0.10546832240E+04  0.00000000000E+00 0. -1.
          2    1    1    2  501    0  0.15473373451E+02  0.21316208365E+02  0.12329112434E+03  0.12607342054E+03  0.00000000000E+00 0.  1.
          2    1    1    2  502    0 -0.15473373451E+02 -0.21316208365E+02 -0.10531274003E+04  0.10534567515E+04  0.00000000000E+00 0. -1.
</event>
<event>
 4    1  0.6136512E+003  0.2073131E+02  0.7546771E-02  0.1523136E+00
          2   -1    0    0  501    0  0.00000000000E+00  0.00000000000E+00  0.61886864802E+03  0.61886864802E+03  0.00000000000E+00 0.  1.
          2   -1    0    0  502    0 -0.00000000000E+00 -0.00000000000E+00 -0.13379962938E+01  0.13379962938E+01  0.00000000000E+00 0.  1.
          2    1    1    2  501    0 -0.49502650312E+01  0.20131620786E+02  0.93704526263E+02  0.95970440874E+02  0.00000000000E+00 0.  1.
          2    1    1    2  502    0  0.49502650312E+01 -0.20131620786E+02  0.52382612546E+03  0.52423620344E+03  0.00000000000E+00 0.  1.
</event>
<event>
 4    1  0.6136512E+003  0.2019262E+02  0.7546771E-02  0.1531111E+00
          2   -1    0    0  501    0  0.00000000000E+00  0.00000000000E+00  0.17153798531E+03  0.17153798531E+03  0.00000000000E+00 0.  1.
          2   -1    0    0  502    0 -0.00000000000E+00 -0.00000000000E+00 -0.36868030461E+02  0.36868030461E+02  0.00000000000E+00 0.  1.
          2    1    1    2  501    0  0.67499353464E+01 -0.19031032198E+02 -0.33452950632E+02  0.39074822068E+02  0.00000000000E+00 0.  1.
          2    1    1    2  502    0 -0.67499353464E+01  0.19031032198E+02  0.16812290548E+03  0.16933119370E+03  0.00000000000E+00 0.  1.
</event>
<event>
 4    1  0.6136512E+003  0.3219453E+02  0.7546771E-02  0.1401438E+00
          2   -1    0    0  501    0  0.00000000000E+00  0.00000000000E+00  0.49326770073E+03  0.49326770073E+03  0.00000000000E+00 0. -1.
          2   -1    0    0  502    0 -0.00000000000E+00 -0.00000000000E+00 -0.27040188304E+01  0.27040188304E+01  0.00000000000E+00 0. -1.
          2    1    1    2  501    0  0.20287949109E+02 -0.24997739004E+02  0.12819965419E+03  0.13218032822E+03  0.00000000000E+00 0. -1.
          2    1    1    2  502    0 -0.20287949109E+02  0.24997739004E+02  0.36236402771E+03  0.36379139134E+03  0.00000000000E+00 0. -1.
</event>
<event>
 4    1  0.6136512E+003  0.2064340E+02  0.7546771E-02  0.1524418E+00
          2   -1    0    0  502    0  0.00000000000E+00  0.00000000000E+00  0.61235476149E+01  0.61235476149E+01  0.00000000000E+00 0.  1.
          2   -1    0    0  501    0 -0.00000000000E+00 -0.00000000000E+00 -0.85777146910E+02  0.85777146910E+02  0.00000000000E+00 0.  1.
          2    1    1    2  501    0 -0.15547418083E+02  0.13580417120E+02 -0.19866764819E+02  0.28650275436E+02  0.00000000000E+00 0.  1.
          2    1    1    2  502    0  0.15547418083E+02 -0.13580417120E+02 -0.59786834476E+02  0.63250419088E+02  0.00000000000E+00 0.  1.
</event>
<event>
 4    1  0.6136512E+003  0.2138517E+02  0.7546771E-02  0.1513836E+00
          2   -1    0    0  502    0  0.00000000000E+00  0.00000000000E+00  0.15073385785E+02  0.15073385785E+02  0.00000000000E+00 0. -1.
          2   -1    0    0  501    0 -0.00000000000E+00 -0.00000000000E+00 -0.19821316105E+03  0.19821316105E+03  0.00000000000E+00 0.  1.
          2    1    1    2  501    0 -0.55383606255E+01 -0.20655559091E+02  0.65727985292E+01  0.22372466120E+02  0.00000000000E+00 0. -1.
          2    1    1    2  502    0  0.55383606255E+01  0.20655559091E+02 -0.18971257380E+03  0.19091408072E+03  0.00000000000E+00 0.  1.
</event>
<event>
 4    1  0.6136512E+003  0.5682736E+02  0.7546771E-02  0.1271011E+00
          2   -1    0    0  501    0  0.00000000000E+00  0.00000000000E+00  0.67980599783E+01  0.67980599783E+01  0.00000000000E+00 0. -1.
          2   -1    0    0  502    0 -0.00000000000E+00 -0.00000000000E+00 -0.75844879107E+03  0.75844879107E+03  0.00000000000E+00 0.  1.
          2    1    1    2  501    0  0.56681601006E+02 -0.40675119692E+01 -0.60971732533E+03  0.61235983323E+03  0.00000000000E+00 0.  1.
          2    1    1    2  502    0 -0.56681601006E+02  0.40675119692E+01 -0.14193340576E+03  0.15288701782E+03  0.00000000000E+00 0. -1.
</event>
<event>
 4    1  0.6136512E+003  0.2041815E+02  0.7546771E-02  0.1527737E+00
          2   -1    0    0  501    0  0.00000000000E+00  0.00000000000E+00  0.11212502535E+01  0.11212502535E+01  0.00000000000E+00 0.  1.
          2   -1    0    0  502    0 -0.00000000000E+00 -0.00000000000E+00 -0.81257953778E+03  0.81257953778E+03  0.00000000000E+00 0. -1.
          2    1    1    2  501    0 -0.87566907581E+01  0.18445091330E+02 -0.70537180438E+03  0.70566726113E+03  0.00000000000E+00 0. -1.
          2    1    1    2  502    0  0.87566907581E+01 -0.18445091330E+02 -0.10608648315E+03  0.10803352690E+03  0.00000000000E+00 0.  1.
</event>
<event>
 4    1  0.6136512E+003  0.2337986E+02  0.7546771E-02  0.1487783E+00
          2   -1    0    0  501    0  0.00000000000E+00  0.00000000000E+00  0.22160555687E+03  0.22160555687E+03  0.00000000000E+00 0.  1.
          2   -1    0    0  502    0 -0.00000000000E+00 -0.00000000000E+00 -0.25852749866E+03  0.25852749866E+03  0.00000000000E+00 0.  1.
          2    1    1    2  501    0 -0.21311063775E+02  0.96154293918E+01 -0.25737950966E+03  0.25843921900E+03  0.00000000000E+00 0.  1.
          2    1    1    2  502    0  0.21311063775E+02 -0.96154293918E+01  0.22045756788E+03  0.22169383653E+03  0.00000000000E+00 0.  1.
</event>
<event>
 4    1  0.6136512E+003  0.4296327E+02  0.7546771E-02  0.1331944E+00
          2   -1    0    0  502    0  0.00000000000E+00  0.00000000000E+00  0.90300626210E+02  0.90300626210E+02  0.00000000000E+00 0. -1.
          2   -1    0    0  501    0 -0.00000000000E+00 -0.00000000000E+00 -0.22844547726E+02  0.22844547726E+02  0.00000000000E+00 0. -1.
          2    1    1    2  501    0 -0.30160785433E+02 -0.30596889588E+02  0.15378143640E+02  0.45632553427E+02  0.00000000000E+00 0. -1.
          2    1    1    2  502    0  0.30160785433E+02  0.30596889588E+02  0.52077934844E+02  0.67512620510E+02  0.00000000000E+00 0. -1.
</event>
<event>
 4    1  0.6136512E+003  0.2264995E+02  0.7546771E-02  0.1496941E+00
          2   -1    0    0  501    0  0.00000000000E+00  0.00000000000E+00  0.84628135192E+02  0.84628135192E+02  0.00000000000E+00 0.  1.
          2   -1    0    0  502    0 -0.00000000000E+00 -0.00000000000E+00 -0.81335531625E+01  0.81335531625E+01  0.00000000000E+00 0.  1.
          2    1    1    2  501    0  0.14945038378E+02  0.17019577773E+02  0.14840545632E+02  0.27078810800E+02  0.00000000000E+00 0.  1.
          2    1    1    2  502    0 -0.14945038378E+02 -0.17019577773E+02  0.61654036398E+02  0.65682877555E+02  0.00000000000E+00 0.  1.
</event>
<event>
 4    1  0.6136512E+003  0.2328755E+02  0.7546771E-02  0.1488919E+00
          2   -1    0    0  502    0  0.00000000000E+00  0.00000000000E+00  0.75247370507E+02  0.75247370507E+02  0.00000000000E+00 0. -1.
          2   -1    0    0  501    0 -0.00000000000E+00 -0.00000000000E+00 -0.31148469533E+03  0.31148469533E+03  0.00000000000E+00 0.  1.
          2    1    1    2  501    0 -0.18652821574E+02  0.13942102317E+02  0.72997259414E+02  0.76621862752E+02  0.00000000000E+00 0. -1.
          2    1    1    2  502    0  0.18652821574E+02 -0.13942102317E+02 -0.30923458423E+03  0.31011020308E+03  0.00000000000E+00 0.  1.
</event>
<event>
 4    1  0.6136512E+003  0.2114131E+02  0.7546771E-02  0.1517257E+00
          2   -1    0    0  501    0  0.00000000000E+00  0.00000000000E+00  0.31065097221E+02  0.31065097221E+02  0.00000000000E+00 0.  1.
          2   -1    0    0  502    0 -0.00000000000E+00 -0.00000000000E+00 -0.98338688373E+02  0.98338688373E+02  0.00000000000E+00 0.  1.
          2    1    1    2  501    0  0.42714977623E+01  0.20705296363E+02 -0.93418420100E+02  0.95780771581E+02  0.00000000000E+00 0.  1.
          2    1    1    2  502    0 -0.42714977623E+01 -0.20705296363E+02  0.26144828948E+02  0.33623014014E+02  0.00000000000E+00 0.  1.
</event>
<event>
 4    1  0.6136512E+003  0.2333263E+02  0.7546771E-02  0.1488363E+00
          2   -1    0    0  502    0  0.00000000000E+00  0.00000000000E+00  0.27084688952E+03  0.27084688952E+03  0.00000000000E+00 0. -1.
          2   -1    0    0  501    0 -0.00000000000E+00 -0.00000000000E+00 -0.43897977388E+03  0.43897977388E+03  0.00000000000E+00 0. -1.
          2    1    1    2  501    0  0.18983991052E+02  0.13565380577E+02  0.27003340514E+03  0.27103957526E+03  0.00000000000E+00 0. -1.
          2    1    1    2  502    0 -0.18983991052E+02 -0.13565380577E+02 -0.43816628950E+03  0.43878708815E+03  0.00000000000E+00 0. -1.
</event>
<event>
 4    1  0.6136512E+003  0.3667133E+02  0.7546771E-02  0.1369179E+00
          2   -1    0    0  502    0  0.00000000000E+00  0.00000000000E+00  0.44124098523E+02  0.44124098523E+02  0.00000000000E+00 0.  1.
          2   -1    0    0  501    0 -0.00000000000E+00 -0.00000000000E+00 -0.40318758727E+02  0.40318758727E+02  0.00000000000E+00 0. -1.
          2    1    1    2  501    0  0.32563694365E+02  0.16863944046E+02  0.22762337293E+02  0.43161450376E+02  0.00000000000E+00 0.  1.
          2    1    1    2  502    0 -0.32563694365E+02 -0.16863944046E+02 -0.18956997497E+02  0.41281406875E+02  0.00000000000E+00 0. -1.
</event>
<event>
 4    1  0.6136512E+003  0.2846403E+02  0.7546771E-02  0.1433431E+00
          2   -1    0    0  502    0  0.00000000000E+00  0.00000000000E+00  0.46550528660E+02  0.46550528660E+02  0.00000000000E+00 0.  1.
          2   -1    0    0  501    0 -0.00000000000E+00 -0.00000000000E+00 -0.10526918532E+04  0.10526918532E+04  0.00000000000E+00 0. -1.
          2    1    1    2  501    0  0.27699972436E+02  0.65507523365E+01  0.41987989337E+02  0.50726640710E+02  0.00000000000E+00 0.  1.
          2    1    1    2  502    0 -0.27699972436E+02 -0.65507523365E+01 -0.10481293139E+04  0.10485157412E+04  0.00000000000E+00 0. -1.
</event>
<event>
 4    1  0.6136512E+003  0.2236112E+02  0.7546771E-02  0.1500680E+00
          2   -1    0    0  502    0  0.00000000000E+00  0.00000000000E+00  0.11592810937E+04  0.11592810937E+04  0.00000000000E+00 0.  1.
          2   -1    0    0  501    0 -0.00000000000E+00 -0.00000000000E+00 -0.98492765032E+00  0.98492765032E+00  0.00000000000E+00 0. -1.
          2    1    1    2  501    0  0.14375367075E+02 -0.17128009980E+02  0.10140855959E+04  0.10143321033E+04  0.00000000000E+00 0.  1.
          2    1    1    2  502    0 -0.14375367075E+02  0.17128009980E+02  0.14421057012E+03  0.14593391806E+03  0.00000000000E+00 0. -1.
</event>
<event>
 4    1  0.6136512E+003  0.2362838E+02  0.7546771E-02  0.1484755E+00
          2   -1    0    0  501    0  0.00000000000E+00  0.00000000000E+00  0.66371878374E+03  0.66371878374E+03  0.00000000000E+00 0. -1.
          2   -1    0    0  502    0 -0.00000000000E+00 -0.00000000000E+00 -0.22576271173E+03  0.22576271173E+03  0.00000000000E+00 0.  1.
          2    1    1    2  501    0 -0.21984844692E+02 -0.86583578811E+01 -0.22493340771E+03  0.22617103807E+03  0.00000000000E+00 0.  1.
          2    1    1    2  502    0  0.21984844692E+02  0.86583578811E+01  0.66288947973E+03  0.66331045740E+03  0.00000000000E+00 0. -1.
</event>
<event>
 4    1  0.6136512E+003  0.2264964E+02  0.7546771E-02  0.1496945E+00
          2   -1    0    0  502    0  0.00000000000E+00  0.00000000000E+00  0.14356637489E+04  0.14356637489E+04  0.00000000000E+00 0. -1.
          2   -1    0    0  501    0 -0.00000000000E+00 -0.00000000000E+00 -0.11582266315E+02  0.11582266315E+02  0.00000000000E+00 0.  1.
          2    1    1    2  501    0 -0.20710733889E+02 -0.91690605581E+01  0.14244138721E+04  0.14245939369E+04  0.00000000000E+00 0. -1.
          2    1    1    2  502    0  0.20710733889E+02  0.91690605581E+01 -0.33238945319E+00  0.22652078326E+02  0.00000000000E+00 0.  1.
</event>
<event>
 4    1  0.6136512E+003  0.2280035E+02  0.7546771E-02  0.1495020E+00
          2   -1    0    0  502    0  0.00000000000E+00  0.00000000000E+00  0.92184921571E+02  0.92184921571E+02  0.00000000000E+00 0.  1.
          2   -1    0    0  501    0 -0.00000000000E+00 -0.00000000000E+00 -0.58126193436E+02  0.58126193436E+02  0.00000000000E+00 0.  1.
          2    1    1    2  501    0  0.12336807425E+01  0.22766950025E+02  0.88446216165E+02  0.91337774965E+02  0.00000000000E+00 0.  1.
          2    1    1    2  502    0 -0.12336807425E+01 -0.22766950025E+02 -0.54387488030E+02  0.58973340043E+02  0.00000000000E+00 0.  1.
</event>
<event>
 4    1  0.6136512E+003  0.5344754E+02  0.7546771E-02  0.1283879E+00
          2   -1    0    0  502    0  0.00000000000E+00  0.00000000000E+00  0.78800185925E+01  0.78800185925E+01  0.00000000000E+00 0.  1.
          2   -1    0    0  501    0 -0.00000000000E+00 -0.00000000000E+00 -0.32528863215E+04  0.32528863215E+04  0.00000000000E+00 0.  1.
          2    1    1    2  501    0  0.44783405769E+02  0.29173379952E+02 -0.85651595685E+02  0.10095957297E+03  0.00000000000E+00 0.  1.
          2    1    1    2  502    0 -0.44783405769E+02 -0.29173379952E+02 -0.31593547072E+04  0.31598067671E+04  0.00000000000E+00 0.  1.
</event>
<event>
 4    1  0.6136512E+003  0.2414729E+02  0.7546771E-02  0.1478573E+00
          2   -1    0    0  502    0  0.00000000000E+00  0.00000000000E+00  0.30926547316E+02  0.30926547316E+02  0.00000000000E+00 0.  1.
          2   -1    0    0  501    0 -0.00000000000E+00 -0.00000000000E+00 -0.31209709741E+02  0.31209709741E+02  0.00000000000E+00 0. -1.
          2    1    1    2  501    0  0.24124267775E+02  0.10540899922E+01  0.19406439131E+02  0.30979045840E+02  0.00000000000E+00 0.  1.
          2    1    1    2  502    0 -0.24124267775E+02 -0.10540899922E+01 -0.19689601556E+02  0.31157211217E+02  0.00000000000E+00 0. -1.
</event>
<event>
 4    1  0.6136512E+003  0.2367475E+02  0.7546771E-02  0.1484195E+00
          2   -1    0    0  502    0  0.00000000000E+00  0.00000000000E+00  0.18572436583E+03  0.18572436583E+03  0.00000000000E+00 0. -1.
          2   -1    0    0  501    0 -0.00000000000E+00 -0.00000000000E+00 -0.17464093987E+02  0.17464093987E+02  0.00000000000E+00 0.  1.
          2    1    1    2  501    0  0.84087279342E+01  0.22131128741E+02  0.17653036705E+03  0.17811081959E+03  0.00000000000E+00 0. -1.
          2    1    1    2  502    0 -0.84087279342E+01 -0.22131128741E+02 -0.82700952026E+01  0.25077640229E+02  0.00000000000E+00 0.  1.
</event>
<event>
 4    1  0.6136512E+003  0.2163787E+02  0.7546771E-02  0.1510349E+00
          2   -1    0    0  502    0  0.00000000000E+00  0.00000000000E+00  0.33908715568E+03  0.33908715568E+03  0.00000000000E+00 0.  1.
          2   -1    0    0  501    0 -0.00000000000E+00 -0.00000000000E+00 -0.62709270594E+01  0.62709270594E+01  0.00000000000E+00 0. -1.
          2    1    1    2  501    0 -0.16134166602E+02 -0.14418252978E+02  0.31889612010E+03  0.31962936781E+03  0.00000000000E+00 0.  1.
          2    1    1    2  502    0  0.16134166602E+02  0.14418252978E+02  0.13920108525E+02  0.25728714936E+02  0.00000000000E+00 0. -1.
</event>
<event>
 4    1  0.6136512E+003  0.3024990E+02  0.7546771E-02  0.1417437E+00
          2   -1    0    0  501    0  0.00000000000E+00  0.00000000000E+00  0.73007620469E+03  0.73007620469E+03  0.00000000000E+00 0.  1.
          2   -1    0    0  502    0 -0.00000000000E+00 -0.00000000000E+00 -0.21078407329E+01  0.21078407329E+01  0.00000000000E+00 0. -1.
          2    1    1    2  501    0  0.29691772274E+02 -0.57840132470E+01  0.13089625570E+03  0.13434614213E+03  0.00000000000E+00 0. -1.
          2    1    1    2  502    0 -0.29691772274E+02  0.57840132470E+01  0.59707210826E+03  0.59783790329E+03  0.00000000000E+00 0.  1.
</event>
<event>
 4    1  0.6136512E+003  0.2168996E+02  0.7546771E-02  0.1509638E+00
          2   -1    0    0  501    0  0.00000000000E+00  0.00000000000E+00  0.22880892181E+03  0.22880892181E+03  0.00000000000E+00 0.  1.
          2   -1    0    0  502    0 -0.00000000000E+00 -0.00000000000E+00 -0.62682372250E+03  0.62682372250E+03  0.00000000000E+00 0.  1.
          2    1    1    2  501    0  0.20495432060E+02 -0.70986920411E+01 -0.62612148685E+03  0.62649706341E+03  0.00000000000E+00 0.  1.
          2    1    1    2  502    0 -0.20495432060E+02  0.70986920411E+01  0.22810668616E+03  0.22913558090E+03  0.00000000000E+00 0.  1.
</event>
<event>
 4    1  0.6136512E+003  0.3848536E+02  0.7546771E-02  0.1357598E+00
          2   -1    0    0  501    0  0.00000000000E+00  0.00000000000E+00  0.33260483578E+01  0.33260483578E+01  0.00000000000E+00 0. -1.
          2   -1    0    0  502    0 -0.00000000000E+00 -0.00000000000E+00 -0.65928972042E+03  0.65928972042E+03  0.00000000000E+00 0. -1.
          2    1    1    2  501    0  0.27224439125E+02 -0.27202078515E+02 -0.51672870409E+03  0.51815989500E+03  0.00000000000E+00 0. -1.
          2    1    1    2  502    0 -0.27224439125E+02  0.27202078515E+02 -0.13923496797E+03  0.14445587377E+03  0.00000000000E+00 0. -1.
</event>
<event>
 4    1  0.6136512E+003  0.2738582E+02  0.7546771E-02  0.1443770E+00
          2   -1    0    0  502    0  0.00000000000E+00  0.00000000000E+00  0.62801059005E+01  0.62801059005E+01  0.00000000000E+00 0.  1.
          2   -1    0    0  501    0 -0.00000000000E+00 -0.00000000000E+00 -0.13800401742E+03  0.13800401742E+03  0.00000000000E+00 0. -1.
          2    1    1    2  501    0  0.18228884652E+02 -0.20437493379E+02 -0.39389875806E+02  0.47974427431E+02  0.00000000000E+00 0.  1.
          2    1    1    2  502    0 -0.18228884652E+02  0.20437493379E+02 -0.92334035711E+02  0.96309695887E+02  0.00000000000E+00 0. -1.
</event>
<event>
 4    1  0.6136512E+003  0.3158739E+02  0.7546771E-02  0.1406286E+00
          2   -1    0    0  501    0  0.00000000000E+00  0.00000000000E+00  0.72297958470E+03  0.72297958470E+03  0.00000000000E+00 0.  1.
          2   -1    0    0  502    0 -0.00000000000E+00 -0.00000000000E+00 -0.96599872626E+01  0.96599872626E+01  0.00000000000E+00 0. -1.
          2    1    1    2  501    0  0.31503375029E+02 -0.23022533685E+01  0.17515065014E+02  0.36118423433E+02  0.00000000000E+00 0. -1.
          2    1    1    2  502    0 -0.31503375029E+02  0.23022533685E+01  0.69580453243E+03  0.69652114853E+03  0.00000000000E+00 0.  1.
</event>
<event>
 4    1  0.6136512E+003  0.3311568E+02  0.7546771E-02  0.1394317E+00
          2   -1    0    0  502    0  0.00000000000E+00  0.00000000000E+00  0.14341189799E+01  0.14341189799E+01  0.00000000000E+00 0. -1.
          2   -1    0    0  501    0 -0.00000000000E+00 -0.00000000000E+00 -0.84255899929E+03  0.84255899929E+03  0.00000000000E+00 0. -1.
          2    1    1    2  501    0 -0.32916258854E+02  0.36288022713E+01 -0.54885659587E+03  0.54985471821E+03  0.00000000000E+00 0. -1.
          2    1    1    2  502    0  0.32916258854E+02 -0.36288022713E+01 -0.29226828444E+03  0.29413840006E+03  0.00000000000E+00 0. -1.
</event>
<event>
 4    1  0.6136512E+003  0.2203702E+02  0.7546771E-02  0.1504958E+00
          2   -1    0    0  501    0  0.00000000000E+00  0.00000000000E+00  0.34999765044E+03  0.34999765044E+03  0.00000000000E+00 0. -1.
          2   -1    0    0  502    0 -0.00000000000E+00 -0.00000000000E+00 -0.66155494249E+02  0.66155494249E+02  0.00000000000E+00 0.  1.
          2    1    1    2  501    0 -0.14247246650E+02  0.16812082197E+02 -0.63961865701E+02  0.67651684449E+02  0.00000000000E+00 0.  1.
          2    1    1    2  502    0  0.14247246650E+02 -0.16812082197E+02  0.34780402189E+03  0.34850146024E+03  0.00000000000E+00 0. -1.
</event>
<event>
 4    1  0.6136512E+003  0.2899278E+02  0.7546771E-02  0.1428556E+00
          2   -1    0    0  501    0  0.00000000000E+00  0.00000000000E+00  0.81901294964E+03  0.81901294964E+03  0.00000000000E+00 0. -1.
          2   -1    0    0  502    0 -0.00000000000E+00 -0.00000000000E+00 -0.20251627294E+02  0.20251627294E+02  0.00000000000E+00 0.  1.
          2    1    1    2  501    0 -0.18158873951E+02  0.22601688563E+02 -0.94800867115E+01  0.30503328886E+02  0.00000000000E+00 0.  1.
          2    1    1    2  502    0  0.18158873951E+02 -0.22601688563E+02  0.80824140906E+03  0.80876124805E+03  0.00000000000E+00 0. -1.
</event>
<event>
 4    1  0.6136512E+003  0.3085378E+02  0.7546771E-02  0.1412319E+00
          2   -1    0    0  502    0  0.00000000000E+00  0.00000000000E+00  0.46099488866E+01  0.46099488866E+01  0.00000000000E+00 0. -1.
          2   -1    0    0  501    0 -0.00000000000E+00 -0.00000000000E+00 -0.12378750955E+04  0.12378750955E+04  0.00000000000E+00 0. -1.
          2    1    1    2  501    0 -0.21022222862E+02  0.22583670858E+02 -0.49569968331E+02  0.58387822393E+02  0.00000000000E+00 0. -1.
          2    1    1    2  502    0  0.21022222862E+02 -0.22583670858E+02 -0.11836951783E+04  0.11840972220E+04  0.00000000000E+00 0. -1.
</event>
<event>
 4    1  0.6136512E+003  0.2753025E+02  0.7546771E-02  0.1442353E+00
          2   -1    0    0  502    0  0.00000000000E+00  0.00000000000E+00  0.34362669915E+03  0.34362669915E+03  0.00000000000E+00 0.  1.
          2   -1    0    0  501    0 -0.00000000000E+00 -0.00000000000E+00 -0.28600202444E+01  0.28600202444E+01  0.00000000000E+00 0.  1.
          2    1    1    2  501    0  0.26219136028E+02 -0.83947440668E+01  0.25325175529E+03  0.25474372687E+03  0.00000000000E+00 0.  1.
          2    1    1    2  502    0 -0.26219136028E+02  0.83947440668E+01  0.87514923620E+02  0.91742992529E+02  0.00000000000E+00 0.  1.
</event>
<event>
 4    1  0.6136512E+003  0.7254294E+02  0.7546771E-02  0.1222305E+00
          2   -1    0    0  501    0  0.00000000000E+00  0.00000000000E+00  0.13532875722E+03  0.13532875722E+03  0.00000000000E+00 0. -1.
          2   -1    0    0  502    0 -0.00000000000E+00 -0.00000000000E+00 -0.16260806338E+03  0.16260806338E+03  0.00000000000E+00 0.  1.
          2    1    1    2  501    0 -0.53247876807E+02 -0.49266025811E+02 -0.14358048324E+03  0.16086588467E+03  0.00000000000E+00 0.  1.
          2    1    1    2  502    0  0.53247876807E+02  0.49266025811E+02  0.11630117709E+03  0.13707093592E+03  0.00000000000E+00 0. -1.
</event>
<event>
 4    1  0.6136512E+003  0.2385323E+02  0.7546771E-02  0.1482053E+00
          2   -1    0    0  502    0  0.00000000000E+00  0.00000000000E+00  0.20751531871E+02  0.20751531871E+02  0.00000000000E+00 0. -1.
          2   -1    0    0  501    0 -0.00000000000E+00 -0.00000000000E+00 -0.16996771806E+04  0.16996771806E+04  0.00000000000E+00 0.  1.
          2    1    1    2  501    0  0.71467996023E+00 -0.23842518018E+02  0.13785001710E+02  0.27550003721E+02  0.00000000000E+00 0. -1.
          2    1    1    2  502    0 -0.71467996023E+00  0.23842518018E+02 -0.16927106504E+04  0.16928787087E+04  0.00000000000E+00 0.  1.
</event>
<event>
 4    1  0.6136512E+003  0.3462597E+02  0.7546771E-02  0.1383212E+00
          2   -1    0    0  502    0  0.00000000000E+00  0.00000000000E+00  0.63786520825E+00  0.63786520825E+00  0.00000000000E+00 0.  1.
          2   -1    0    0  501    0 -0.00000000000E+00 -0.00000000000E+00 -0.19744373948E+04  0.19744373948E+04  0.00000000000E+00 0. -1.
          2    1    1    2  501    0  0.22887378331E+02 -0.25983184585E+02 -0.77051506419E+03  0.77129269549E+03  0.00000000000E+00 0.  1.
          2    1    1    2  502    0 -0.22887378331E+02  0.25983184585E+02 -0.12032844654E+04  0.12037825645E+04  0.00000000000E+00 0. -1.
</event>
<event>
 4    1  0.6136512E+003  0.4417367E+02  0.7546771E-02  0.1325623E+00
          2   -1    0    0  502    0  0.00000000000E+00  0.00000000000E+00  0.27935806563E+04  0.27935806563E+04  0.00000000000E+00 0.  1.
          2   -1    0    0  501    0 -0.00000000000E+00 -0.00000000000E+00 -0.70659444753E+00  0.70659444753E+00  0.00000000000E+00 0.  1.
          2    1    1    2  501    0 -0.44131225673E+02  0.19359628945E+01  0.12468896192E+04  0.12476718461E+04  0.00000000000E+00 0.  1.
          2    1    1    2  502    0  0.44131225673E+02 -0.19359628945E+01  0.15459844426E+04  0.15466154046E+04  0.00000000000E+00 0.  1.
</event>
<event>
 4    1  0.6136512E+003  0.8878224E+02  0.7546771E-02  0.1184808E+00
          2   -1    0    0  501    0  0.00000000000E+00  0.00000000000E+00  0.93490699408E+01  0.93490699408E+01  0.00000000000E+00 0. -1.
          2   -1    0    0  502    0 -0.00000000000E+00 -0.00000000000E+00 -0.12024440163E+04  0.12024440163E+04  0.00000000000E+00 0.  1.
          2    1    1    2  501    0  0.88777704387E+02 -0.89711257026E+00 -0.92776687872E+03  0.93200518607E+03  0.00000000000E+00 0.  1.
          2    1    1    2  502    0 -0.88777704387E+02  0.89711257026E+00 -0.26532806767E+03  0.27978790021E+03  0.00000000000E+00 0. -1.
</event>
<event>
 4    1  0.6136512E+003  0.2271948E+02  0.7546771E-02  0.1496051E+00
          2   -1    0    0  502    0  0.00000000000E+00  0.00000000000E+00  0.79078511189E+01  0.79078511189E+01  0.00000000000E+00 0. -1.
          2   -1    0    0  501    0 -0.00000000000E+00 -0.00000000000E+00 -0.11477153367E+03  0.11477153367E+03  0.00000000000E+00 0.  1.
          2    1    1    2  501    0  0.22632668735E+02  0.19842419699E+01 -0.13149242430E+02  0.26250285460E+02  0.00000000000E+00 0. -1.
          2    1    1    2  502    0 -0.22632668735E+02 -0.19842419699E+01 -0.93714440124E+02  0.96429099332E+02  0.00000000000E+00 0.  1.
</event>
<event>
 4    1  0.6136512E+003  0.2065790E+02  0.7546771E-02  0.1524206E+00
          2   -1    0    0  502    0  0.00000000000E+00  0.00000000000E+00  0.38520638811E+03  0.38520638811E+03  0.00000000000E+00 0. -1.
          2   -1    0    0  501    0 -0.00000000000E+00 -0.00000000000E+00 -0.85305531697E+02  0.85305531697E+02  0.00000000000E+00 0.  1.
          2    1    1    2  501    0  0.22912033802E+00 -0.20656631011E+02  0.38367378637E+03  0.38422951897E+03  0.00000000000E+00 0. -1.
          2    1    1    2  502    0 -0.22912033802E+00  0.20656631011E+02 -0.83772929956E+02  0.86282400838E+02  0.00000000000E+00 0.  1.
</event>
<event>
 4    1  0.6136512E+003  0.2053227E+02  0.7546771E-02  0.1526049E+00
          2   -1    0    0  502    0  0.00000000000E+00  0.00000000000E+00  0.14854001953E+03  0.14854001953E+03  0.00000000000E+00 0. -1.
          2   -1    0    0  501    0 -0.00000000000E+00 -0.00000000000E+00 -0.27878734300E+03  0.27878734300E+03  0.00000000000E+00 0. -1.
          2    1    1    2  501    0  0.15088119767E+02 -0.13925620130E+02  0.14744966481E+03  0.14887235440E+03  0.00000000000E+00 0. -1.
          2    1    1    2  502    0 -0.15088119767E+02  0.13925620130E+02 -0.27769698827E+03  0.27845500813E+03  0.00000000000E+00 0. -1.
</event>
<event>
 4    1  0.6136512E+003  0.3546793E+02  0.7546771E-02  0.1377303E+00
          2   -1    0    0  501    0  0.00000000000E+00  0.00000000000E+00  0.13712066516E+03  0.13712066516E+03  0.00000000000E+00 0.  1.
          2   -1    0    0  502    0 -0.00000000000E+00 -0.00000000000E+00 -0.14188772672E+02  0.14188772672E+02  0.00000000000E+00 0. -1.
          2    1    1    2  501    0 -0.21731443484E+02  0.28030670047E+02  0.16490028198E+02  0.39113873870E+02  0.00000000000E+00 0. -1.
          2    1    1    2  502    0  0.21731443484E+02 -0.28030670047E+02  0.10644186429E+03  0.11219556396E+03  0.00000000000E+00 0.  1.
</event>
<event>
 4    1  0.6136512E+003  0.2253962E+02  0.7546771E-02  0.1498362E+00
          2   -1    0    0  501    0  0.00000000000E+00  0.00000000000E+00  0.62264403675E+03  0.62264403675E+03  0.00000000000E+00 0. -1.
          2   -1    0    0  502    0 -0.00000000000E+00 -0.00000000000E+00 -0.86583328400E+02  0.86583328400E+02  0.00000000000E+00 0. -1.
          2    1    1    2  501    0 -0.97760751913E+01 -0.20309178955E+02 -0.84908496231E+02  0.87849229525E+02  0.00000000000E+00 0. -1.
          2    1    1    2  502    0  0.97760751913E+01  0.20309178955E+02  0.62096920458E+03  0.62137813562E+03  0.00000000000E+00 0. -1.
</event>
<event>
 4    1  0.6136512E+003  0.2204472E+02  0.7546771E-02  0.1504855E+00
          2   -1    0    0  502    0  0.00000000000E+00  0.00000000000E+00  0.95921758297E+01  0.95921758297E+01  0.00000000000E+00 0. -1.
          2   -1    0    0  501    0 -0.00000000000E+00 -0.00000000000E+00 -0.33898693778E+03  0.33898693778E+03  0.00000000000E+00 0.  1.
          2    1    1    2  501    0  0.16371840482E+01 -0.21983842297E+02 -0.39587989825E+01  0.22397361075E+02  0.00000000000E+00 0. -1.
          2    1    1    2  502    0 -0.16371840482E+01  0.21983842297E+02 -0.32543596297E+03  0.32618175254E+03  0.00000000000E+00 0.  1.
</event>
<event>
 4    1  0.6136512E+003  0.2184367E+02  0.7546771E-02  0.1507552E+00
          2   -1    0    0  501    0  0.00000000000E+00  0.00000000000E+00  0.73574974061E+03  0.73574974061E+03  0.00000000000E+00 0. -1.
          2   -1    0    0  502    0 -0.00000000000E+00 -0.00000000000E+00 -0.38662222681E+01  0.38662222681E+01  0.00000000000E+00 0.  1.
          2    1    1    2  501    0  0.20831061564E+01  0.21744114695E+02  0.28572090246E+02  0.35965402766E+02  0.00000000000E+00 0.  1.
          2    1    1    2  502    0 -0.20831061564E+01 -0.21744114695E+02  0.70331142809E+03  0.70365056011E+03  0.00000000000E+00 0. -1.
</event>
<event>
 4    1  0.6136512E+003  0.3593921E+02  0.7546771E-02  0.1374078E+00
          2   -1    0    0  501    0  0.00000000000E+00  0.00000000000E+00  0.46447316256E+03  0.46447316256E+03  0.00000000000E+00 0. -1.
          2   -1    0    0  502    0 -0.00000000000E+00 -0.00000000000E+00 -0.52503921125E+01  0.52503921125E+01  0.00000000000E+00 0.  1.
          2    1    1    2  501    0 -0.33370616869E+02  0.13342730728E+02  0.68537407049E+02  0.77388647091E+02  0.00000000000E+00 0.  1.
          2    1    1    2  502    0  0.33370616869E+02 -0.13342730728E+02  0.39068536340E+03  0.39233490758E+03  0.00000000000E+00 0. -1.
</event>
<event>
 4    1  0.6136512E+003  0.1649173E+03  0.7546771E-02  0.1083239E+00
          2   -1    0    0  502    0  0.00000000000E+00  0.00000000000E+00  0.14235594283E+04  0.14235594283E+04  0.00000000000E+00 0.  1.
          2   -1    0    0  501    0 -0.00000000000E+00 -0.00000000000E+00 -0.24816862166E+03  0.24816862166E+03  0.00000000000E+00 0. -1.
          2    1    1    2  501    0  0.73915814885E+02  0.14742514120E+03  0.13907403437E+04  0.14004843532E+04  0.00000000000E+00 0.  1.
          2    1    1    2  502    0 -0.73915814885E+02 -0.14742514120E+03 -0.21534953704E+03  0.27124369679E+03  0.00000000000E+00 0. -1.
</event>
<event>
 4    1  0.6136512E+003  0.2077255E+02  0.7546771E-02  0.1522537E+00
          2   -1    0    0  502    0  0.00000000000E+00  0.00000000000E+00  0.23456885162E+01  0.23456885162E+01  0.00000000000E+00 0.  1.
          2   -1    0    0  501    0 -0.00000000000E+00 -0.00000000000E+00 -0.48860353738E+03  0.48860353738E+03  0.00000000000E+00 0. -1.
          2    1    1    2  501    0 -0.20375535573E+02 -0.40418046476E+01 -0.49295536020E+02  0.53493443582E+02  0.00000000000E+00 0.  1.
          2    1    1    2  502    0  0.20375535573E+02  0.40418046476E+01 -0.43696231285E+03  0.43745578232E+03  0.00000000000E+00 0. -1.
</event>
<event>
 4    1  0.6136512E+003  0.3621035E+02  0.7546771E-02  0.1372248E+00
          2   -1    0    0  502    0  0.00000000000E+00  0.00000000000E+00  0.31385003695E+02  0.31385003695E+02  0.00000000000E+00 0.  1.
          2   -1    0    0  501    0 -0.00000000000E+00 -0.00000000000E+00 -0.64481227445E+03  0.64481227445E+03  0.00000000000E+00 0. -1.
          2    1    1    2  501    0  0.35358132190E+02  0.78097421517E+01  0.20248847981E+02  0.41487412899E+02  0.00000000000E+00 0.  1.
          2    1    1    2  502    0 -0.35358132190E+02 -0.78097421517E+01 -0.63367611874E+03  0.63470986525E+03  0.00000000000E+00 0. -1.
</event>
<event>
 4    1  0.6136512E+003  0.2752514E+02  0.7546771E-02  0.1442403E+00
          2   -1    0    0  501    0  0.00000000000E+00  0.00000000000E+00  0.20651523017E+03  0.20651523017E+03  0.00000000000E+00 0. -1.
          2   -1    0    0  502    0 -0.00000000000E+00 -0.00000000000E+00 -0.56783631419E+03  0.56783631419E+03  0.00000000000E+00 0. -1.
          2    1    1    2  501    0 -0.22865055003E+02 -0.15323930052E+02 -0.56658356159E+03  0.56725176583E+03  0.00000000000E+00 0. -1.
          2    1    1    2  502    0  0.22865055003E+02  0.15323930052E+02  0.20526247757E+03  0.20709977854E+03  0.00000000000E+00 0. -1.
</event>
<event>
 4    1  0.6136512E+003  0.2101112E+02  0.7546771E-02  0.1519106E+00
          2   -1    0    0  501    0  0.00000000000E+00  0.00000000000E+00  0.57001563092E+02  0.57001563092E+02  0.00000000000E+00 0.  1.
          2   -1    0    0  502    0 -0.00000000000E+00 -0.00000000000E+00 -0.50092513702E+03  0.50092513702E+03  0.00000000000E+00 0.  1.
          2    1    1    2  501    0  0.16177104844E+02  0.13407769445E+02 -0.49876020487E+03  0.49920257307E+03  0.00000000000E+00 0.  1.
          2    1    1    2  502    0 -0.16177104844E+02 -0.13407769445E+02  0.54836630945E+02  0.58724127034E+02  0.00000000000E+00 0.  1.
</event>
<event>
 4    1  0.6136512E+003  0.2389930E+02  0.7546771E-02  0.1481504E+00
          2   -1    0    0  502    0  0.00000000000E+00  0.00000000000E+00  0.57437955326E+01  0.57437955326E+01  0.00000000000E+00 0. -1.
          2   -1    0    0  501    0 -0.00000000000E+00 -0.00000000000E+00 -0.21038739504E+03  0.21038739504E+03  0.00000000000E+00 0. -1.
          2    1    1    2  501    0 -0.63358190881E+01 -0.23044177378E+02 -0.23846771086E+02  0.33761593649E+02  0.00000000000E+00 0. -1.
          2    1    1    2  502    0  0.63358190881E+01  0.23044177378E+02 -0.18079682842E+03  0.18236959692E+03  0.00000000000E+00 0. -1.
</event>
<event>
 4    1  0.6136512E+003  0.2389530E+02  0.7546771E-02  0.1481552E+00
          2   -1    0    0  501    0  0.00000000000E+00  0.00000000000E+00  0.10665996584E+01  0.10665996584E+01  0.00000000000E+00 0. -1.
          2   -1    0    0  502    0 -0.00000000000E+00 -0.00000000000E+00 -0.57266952051E+03  0.57266952051E+03  0.00000000000E+00 0.  1.
          2    1    1    2  501    0  0.23581466488E+02 -0.38600474664E+01 -0.35905011099E+03  0.35984436598E+03  0.00000000000E+00 0.  1.
          2    1    1    2  502    0 -0.23581466488E+02  0.38600474664E+01 -0.21255280987E+03  0.21389175419E+03  0.00000000000E+00 0. -1.
</event>
<event>
 4    1  0.6136512E+003  0.2399097E+02  0.7546771E-02  0.1480416E+00
          2   -1    0    0  502    0  0.00000000000E+00  0.00000000000E+00  0.20264948985E+03  0.20264948985E+03  0.00000000000E+00 0. -1.
          2   -1    0    0  501    0 -0.00000000000E+00 -0.00000000000E+00 -0.15481746678E+03  0.15481746678E+03  0.00000000000E+00 0.  1.
          2    1    1    2  501    0  0.23841678859E+02 -0.26722335327E+01  0.20100242151E+03  0.20242909854E+03  0.00000000000E+00 0. -1.
          2    1    1    2  502    0 -0.23841678859E+02  0.26722335327E+01 -0.15317039844E+03  0.15503785809E+03  0.00000000000E+00 0.  1.
</event>
<event>
 4    1  0.6136512E+003  0.2058836E+02  0.7546771E-02  0.1525224E+00
          2   -1    0    0  502    0  0.00000000000E+00  0.00000000000E+00  0.84233145666E+03  0.84233145666E+03  0.00000000000E+00 0.  1.
          2   -1    0    0  501    0 -0.00000000000E+00 -0.00000000000E+00 -0.21284336707E+02  0.21284336707E+02  0.00000000000E+00 0.  1.
          2    1    1    2  501    0 -0.20583291240E+02 -0.45698401782E+00  0.83719633004E+03  0.83744944668E+03  0.00000000000E+00 0.  1.
          2    1    1    2  502    0  0.20583291240E+02  0.45698401782E+00 -0.16149210085E+02  0.26166346689E+02  0.00000000000E+00 0.  1.
</event>
<event>
 4    1  0.6136512E+003  0.2700695E+02  0.7546771E-02  0.1447538E+00
          2   -1    0    0  501    0  0.00000000000E+00  0.00000000000E+00  0.41917859803E+01  0.41917859803E+01  0.00000000000E+00 0.  1.
          2   -1    0    0  502    0 -0.00000000000E+00 -0.00000000000E+00 -0.22576964725E+03  0.22576964725E+03  0.00000000000E+00 0.  1.
          2    1    1    2  501    0 -0.26879576078E+02  0.26198857487E+01 -0.16584753300E+03  0.16803207912E+03  0.00000000000E+00 0.  1.
          2    1    1    2  502    0  0.26879576078E+02 -0.26198857487E+01 -0.55730328275E+02  0.61929354115E+02  0.00000000000E+00 0.  1.
</event>
<event>
 4    1  0.6136512E+003  0.2759723E+02  0.7546771E-02  0.1441699E+00
          2   -1    0    0  501    0  0.00000000000E+00  0.00000000000E+00  0.57029460152E+02  0.57029460152E+02  0.00000000000E+00 0.  1.
          2   -1    0    0  502    0 -0.00000000000E+00 -0.00000000000E+00 -0.19001051250E+02  0.19001051250E+02  0.00000000000E+00 0.  1.
          2    1    1    2  501    0 -0.19130149077E+02 -0.19890809774E+02 -0.17089576345E+01  0.27650089573E+02  0.00000000000E+00 0.  1.
          2    1    1    2  502    0  0.19130149077E+02  0.19890809774E+02  0.39737366536E+02  0.48380421830E+02  0.00000000000E+00 0.  1.
</event>
<event>
 4    1  0.6136512E+003  0.2126398E+02  0.7546771E-02  0.1515529E+00
          2   -1    0    0  501    0  0.00000000000E+00  0.00000000000E+00  0.49309538260E+03  0.49309538260E+03  0.00000000000E+00 0.  1.
          2   -1    0    0  502    0 -0.00000000000E+00 -0.00000000000E+00 -0.12511082312E+01  0.12511082312E+01  0.00000000000E+00 0. -1.
          2    1    1    2  501    0  0.21126095457E+02  0.24176231425E+01  0.11818623838E+03  0.12008390297E+03  0.00000000000E+00 0. -1.
          2    1    1    2  502    0 -0.21126095457E+02 -0.24176231425E+01  0.37365803599E+03  0.37426258786E+03  0.00000000000E+00 0.  1.
</event>
<event>
 4    1  0.6136512E+003  0.2025048E+02  0.7546771E-02  0.1530241E+00
          2   -1    0    0  501    0  0.00000000000E+00  0.00000000000E+00  0.29714035075E+03  0.29714035075E+03  0.00000000000E+00 0. -1.
          2   -1    0    0  502    0 -0.00000000000E+00 -0.00000000000E+00 -0.47858457826E+01  0.47858457826E+01  0.00000000000E+00 0. -1.
          2    1    1    2  501    0  0.19196378776E+02 -0.64483191925E+01  0.18827556741E+02  0.27650654086E+02  0.00000000000E+00 0. -1.
          2    1    1    2  502    0 -0.19196378776E+02  0.64483191925E+01  0.27352694823E+03  0.27427554245E+03  0.00000000000E+00 0. -1.
</event>
<event>
 4    1  0.6136512E+003  0.2436489E+02  0.7546771E-02  0.1476035E+00
          2   -1    0    0  502    0  0.00000000000E+00  0.00000000000E+00  0.12577040524E+03  0.12577040524E+03  0.00000000000E+00 0.  1.
          2   -1    0    0  501    0 -0.00000000000E+00 -0.00000000000E+00 -0.10274108732E+02  0.10274108732E+02  0.00000000000E+00 0. -1.
          2    1    1    2  501    0  0.19981993440E+02  0.13941588826E+02  0.10776110456E+03  0.11048123649E+03  0.00000000000E+00 0.  1.
          2    1    1    2  502    0 -0.19981993440E+02 -0.13941588826E+02  0.77351919416E+01  0.25563277474E+02  0.00000000000E+00 0. -1.
</event>
<event>
 4    1  0.6136512E+003  0.2605578E+02  0.7546771E-02  0.1457331E+00
          2   -1    0    0  502    0  0.00000000000E+00  0.00000000000E+00  0.20575655677E+02  0.20575655677E+02  0.00000000000E+00 0. -1.
          2   -1    0    0  501    0 -0.00000000000E+00 -0.00000000000E+00 -0.53627778902E+03  0.53627778902E+03  0.00000000000E+00 0. -1.
          2    1    1    2  501    0  0.18690026889E+02  0.18154518484E+02  0.11874330895E+02  0.28633955030E+02  0.00000000000E+00 0. -1.
          2    1    1    2  502    0 -0.18690026889E+02 -0.18154518484E+02 -0.52757646424E+03  0.52821948966E+03  0.00000000000E+00 0. -1.
</event>
<event>
 4    1  0.6136512E+003  0.2702726E+02  0.7546771E-02  0.1447335E+00
          2   -1    0    0  501    0  0.00000000000E+00  0.00000000000E+00  0.69918822127E+01  0.69918822127E+01  0.00000000000E+00 0.  1.
          2   -1    0    0  502    0 -0.00000000000E+00 -0.00000000000E+00 -0.92543990027E+03  0.92543990027E+03  0.00000000000E+00 0.  1.
          2    1    1    2  501    0 -0.10343100407E+02 -0.24969839489E+02 -0.89833612408E+03  0.89874260188E+03  0.00000000000E+00 0.  1.
          2    1    1    2  502    0  0.10343100407E+02  0.24969839489E+02 -0.20111893974E+02  0.33689180598E+02  0.00000000000E+00 0.  1.
</event>
<event>
 4    1  0.6136512E+003  0.3007222E+02  0.7546771E-02  0.1418970E+00
          2   -1    0    0  502    0  0.00000000000E+00  0.00000000000E+00  0.59021430642E+02  0.59021430642E+02  0.00000000000E+00 0.  1.
          2   -1    0    0  501    0 -0.00000000000E+00 -0.00000000000E+00 -0.38377893396E+02  0.38377893396E+02  0.00000000000E+00 0. -1.
          2    1    1    2  501    0  0.83823857339E+01  0.28880336602E+02  0.48068075313E+02  0.56699895036E+02  0.00000000000E+00 0.  1.
          2    1    1    2  502    0 -0.83823857339E+01 -0.28880336602E+02 -0.27424538067E+02  0.40699429001E+02  0.00000000000E+00 0. -1.
</event>
<event>
 4    1  0.6136512E+003  0.2271139E+02  0.7546771E-02  0.1496154E+00
          2   -1    0    0  502    0  0.00000000000E+00  0.00000000000E+00  0.75092240546E+02  0.75092240546E+02  0.00000000000E+00 0.  1.
          2   -1    0    0  501    0 -0.00000000000E+00 -0.00000000000E+00 -0.23927906157E+02  0.23927906157E+02  0.00000000000E+00 0. -1.
          2    1    1    2  501    0  0.50555023890E+01  0.22141570358E+02  0.67386090435E+02  0.71110424176E+02  0.00000000000E+00 0.  1.
          2    1    1    2  502    0 -0.50555023890E+01 -0.22141570358E+02 -0.16221756046E+02  0.27909722527E+02  0.00000000000E+00 0. -1.
</event>
<event>
 4    1  0.6136512E+003  0.2337938E+02  0.7546771E-02  0.1487788E+00
          2   -1    0    0  502    0  0.00000000000E+00  0.00000000000E+00  0.21428609436E+01  0.21428609436E+01  0.00000000000E+00 0. -1.
          2   -1    0    0  501    0 -0.00000000000E+00 -0.00000000000E+00 -0.52945993701E+03  0.52945993701E+03  0.00000000000E+00 0. -1.
          2    1    1    2  501    0 -0.22436360711E+02 -0.65730752479E+01 -0.72312766385E+02  0.75998235390E+02  0.00000000000E+00 0. -1.
          2    1    1    2  502    0  0.22436360711E+02  0.65730752479E+01 -0.45500430968E+03  0.45560456257E+03  0.00000000000E+00 0. -1.
</event>
<event>
 4    1  0.6136512E+003  0.3167680E+02  0.7546771E-02  0.1405564E+00
          2   -1    0    0  501    0  0.00000000000E+00  0.00000000000E+00  0.20448902559E+03  0.20448902559E+03  0.00000000000E+00 0.  1.
          2   -1    0    0  502    0 -0.00000000000E+00 -0.00000000000E+00 -0.53546673396E+03  0.53546673396E+03  0.00000000000E+00 0. -1.
          2    1    1    2  501    0  0.81449386382E+01  0.30611760473E+02 -0.53376761272E+03  0.53470672737E+03  0.00000000000E+00 0. -1.
          2    1    1    2  502    0 -0.81449386382E+01 -0.30611760473E+02  0.20278990435E+03  0.20524903218E+03  0.00000000000E+00 0.  1.
</event>
<event>
 4    1  0.6136512E+003  0.2260572E+02  0.7546771E-02  0.1497509E+00
          2   -1    0    0  502    0  0.00000000000E+00  0.00000000000E+00  0.56364337680E+02  0.56364337680E+02  0.00000000000E+00 0.  1.
          2   -1    0    0  501    0 -0.00000000000E+00 -0.00000000000E+00 -0.56074643979E+02  0.56074643979E+02  0.00000000000E+00 0.  1.
          2    1    1    2  501    0 -0.77995153903E+01 -0.21217589627E+02  0.51619201698E+02  0.56352112062E+02  0.00000000000E+00 0.  1.
          2    1    1    2  502    0  0.77995153903E+01  0.21217589627E+02 -0.51329507997E+02  0.56086869597E+02  0.00000000000E+00 0.  1.
</event>
<event>
 4    1  0.6136512E+003  0.2450414E+02  0.7546771E-02  0.1474428E+00
          2   -1    0    0  502    0  0.00000000000E+00  0.00000000000E+00  0.30248090506E+02  0.30248090506E+02  0.00000000000E+00 0.  1.
          2   -1    0    0  501    0 -0.00000000000E+00 -0.00000000000E+00 -0.33203251133E+02  0.33203251133E+02  0.00000000000E+00 0.  1.
          2    1    1    2  501    0  0.21421834739E+02 -0.11897812343E+02 -0.21596227636E+02  0.32662669674E+02  0.00000000000E+00 0.  1.
          2    1    1    2  502    0 -0.21421834739E+02  0.11897812343E+02  0.18641067009E+02  0.30788671965E+02  0.00000000000E+00 0.  1.
</event>
<event>
 4    1  0.6136512E+003  0.3496886E+02  0.7546771E-02  0.1380782E+00
          2   -1    0    0  502    0  0.00000000000E+00  0.00000000000E+00  0.41032020635E+01  0.41032020635E+01  0.00000000000E+00 0.  1.
          2   -1    0    0  501    0 -0.00000000000E+00 -0.00000000000E+00 -0.16672861729E+04  0.16672861729E+04  0.00000000000E+00 0. -1.
          2    1    1    2  501    0  0.33318216844E+02  0.10616858989E+02 -0.74258126699E+02  0.82079782220E+02  0.00000000000E+00 0.  1.
          2    1    1    2  502    0 -0.33318216844E+02 -0.10616858989E+02 -0.15889248441E+04  0.15893095927E+04  0.00000000000E+00 0. -1.
</event>
<event>
 4    1  0.6136512E+003  0.2223531E+02  0.7546771E-02  0.1502330E+00
          2   -1    0    0  502    0  0.00000000000E+00  0.00000000000E+00  0.35908291423E+02  0.35908291423E+02  0.00000000000E+00 0.  1.
          2   -1    0    0  501    0 -0.00000000000E+00 -0.00000000000E+00 -0.28027041012E+03  0.28027041012E+03  0.00000000000E+00 0. -1.
          2    1    1    2  501    0 -0.10035187837E+02  0.19841976130E+02  0.31976215765E+02  0.38947238494E+02  0.00000000000E+00 0.  1.
          2    1    1    2  502    0  0.10035187837E+02 -0.19841976130E+02 -0.27633833446E+03  0.27723146305E+03  0.00000000000E+00 0. -1.
</event>
<event>
 4    1  0.6136512E+003  0.3280205E+02  0.7546771E-02  0.1396711E+00
          2   -1    0    0  501    0  0.00000000000E+00  0.00000000000E+00  0.13134556790E+04  0.13134556790E+04  0.00000000000E+00 0.  1.
          2   -1    0    0  502    0 -0.00000000000E+00 -0.00000000000E+00 -0.34109745698E+02  0.34109745698E+02  0.00000000000E+00 0.  1.
          2    1    1    2  501    0  0.17069934921E+02 -0.28010571642E+02 -0.25969651768E+02  0.41837753464E+02  0.00000000000E+00 0.  1.
          2    1    1    2  502    0 -0.17069934921E+02  0.28010571642E+02  0.13053155851E+04  0.13057276712E+04  0.00000000000E+00 0.  1.
</event>
<event>
 4    1  0.6136512E+003  0.2724102E+02  0.7546771E-02  0.1445202E+00
          2   -1    0    0  501    0  0.00000000000E+00  0.00000000000E+00  0.13721652324E+02  0.13721652324E+02  0.00000000000E+00 0. -1.
          2   -1    0    0  502    0 -0.00000000000E+00 -0.00000000000E+00 -0.97771238322E+03  0.97771238322E+03  0.00000000000E+00 0. -1.
          2    1    1    2  501    0 -0.27237429804E+02 -0.44229803120E+00 -0.96380750588E+03  0.96419239864E+03  0.00000000000E+00 0. -1.
          2    1    1    2  502    0  0.27237429804E+02  0.44229803120E+00 -0.18322502060E+00  0.27241636905E+02  0.00000000000E+00 0. -1.
</event>
<event>
 4    1  0.6136512E+003  0.2324370E+02  0.7546771E-02  0.1489460E+00
          2   -1    0    0  502    0  0.00000000000E+00  0.00000000000E+00  0.88723468427E+03  0.88723468427E+03  0.00000000000E+00 0.  1.
          2   -1    0    0  501    0 -0.00000000000E+00 -0.00000000000E+00 -0.20326223133E+02  0.20326223133E+02  0.00000000000E+00 0.  1.
          2    1    1    2  501    0  0.15191280201E+02 -0.17592454603E+02  0.88038578417E+03  0.88069256749E+03  0.00000000000E+00 0.  1.
          2    1    1    2  502    0 -0.15191280201E+02  0.17592454603E+02 -0.13477323043E+02  0.26868339910E+02  0.00000000000E+00 0.  1.
</event>
<event>
 4    1  0.6136512E+003  0.2325558E+02  0.7546771E-02  0.1489314E+00
          2   -1    0    0  502    0  0.00000000000E+00  0.00000000000E+00  0.38424005758E+03  0.38424005758E+03  0.00000000000E+00 0. -1.
          2   -1    0    0  501    0 -0.00000000000E+00 -0.00000000000E+00 -0.56783908066E+01  0.56783908066E+01  0.00000000000E+00 0.  1.
          2    1    1    2  501    0 -0.19701637151E+02  0.12355869775E+02  0.35835989713E+03  0.35911368381E+03  0.00000000000E+00 0. -1.
          2    1    1    2  502    0  0.19701637151E+02 -0.12355869775E+02  0.20201769646E+02  0.30804764585E+02  0.00000000000E+00 0.  1.
</event>
<event>
 4    1  0.6136512E+003  0.2235244E+02  0.7546771E-02  0.1500794E+00
          2   -1    0    0  502    0  0.00000000000E+00  0.00000000000E+00  0.48760335337E+02  0.48760335337E+02  0.00000000000E+00 0.  1.
          2   -1    0    0  501    0 -0.00000000000E+00 -0.00000000000E+00 -0.23755904328E+02  0.23755904328E+02  0.00000000000E+00 0. -1.
          2    1    1    2  501    0  0.55991805558E+01 -0.21639798280E+02  0.39844491127E+02  0.45686050012E+02  0.00000000000E+00 0.  1.
          2    1    1    2  502    0 -0.55991805558E+01  0.21639798280E+02 -0.14840060118E+02  0.26830189653E+02  0.00000000000E+00 0. -1.
</event>
<event>
 4    1  0.9933915E+003  0.2546391E+02  0.7546771E-02  0.1463680E+00
          2   -1    0    0  501    0  0.00000000000E+00  0.00000000000E+00  0.30731214884E+03  0.30731214884E+03  0.00000000000E+00 0. -1.
          2   -1    0    0  502    0 -0.00000000000E+00 -0.00000000000E+00 -0.14484953001E+04  0.14484953001E+04  0.00000000000E+00 0. -1.
          2    1    1    2  501    0  0.22449464726E+02  0.12017992543E+02 -0.14478556707E+04  0.14480795743E+04  0.00000000000E+00 0. -1.
          2    1    1    2  502    0 -0.22449464726E+02 -0.12017992543E+02  0.30667251942E+03  0.30772787456E+03  0.00000000000E+00 0. -1.
</event>
<event>
 4    1  0.6136512E+003  0.2366762E+02  0.7546771E-02  0.1484281E+00
          2   -1    0    0  501    0  0.00000000000E+00  0.00000000000E+00  0.22226479171E+02  0.22226479171E+02  0.00000000000E+00 0.  1.
          2   -1    0    0  502    0 -0.00000000000E+00 -0.00000000000E+00 -0.80995389337E+03  0.80995389337E+03  0.00000000000E+00 0. -1.
          2    1    1    2  501    0  0.23665544505E+02 -0.31371036785E+00 -0.80342928772E+03  0.80377781556E+03  0.00000000000E+00 0. -1.
          2    1    1    2  502    0 -0.23665544505E+02  0.31371036785E+00  0.15701873525E+02  0.28402556982E+02  0.00000000000E+00 0.  1.
</event>
<event>
 4    1  0.6136512E+003  0.2814024E+02  0.7546771E-02  0.1436479E+00
          2   -1    0    0  501    0  0.00000000000E+00  0.00000000000E+00  0.12371614308E+04  0.12371614308E+04  0.00000000000E+00 0. -1.
          2   -1    0    0  502    0 -0.00000000000E+00 -0.00000000000E+00 -0.20115425901E+03  0.20115425901E+03  0.00000000000E+00 0.  1.
          2    1    1    2  501    0  0.28030075183E+02  0.24875992779E+01 -0.20000916749E+03  0.20197905918E+03  0.00000000000E+00 0.  1.
          2    1    1    2  502    0 -0.28030075183E+02 -0.24875992779E+01  0.12360163392E+04  0.12363366306E+04  0.00000000000E+00 0. -1.
</event>
<event>
 4    1  0.6136512E+003  0.3031252E+02  0.7546771E-02  0.1416900E+00
          2   -1    0    0  502    0  0.00000000000E+00  0.00000000000E+00  0.12115055682E+03  0.12115055682E+03  0.00000000000E+00 0. -1.
          2   -1    0    0  501    0 -0.00000000000E+00 -0.00000000000E+00 -0.76386612446E+01  0.76386612446E+01  0.00000000000E+00 0. -1.
          2    1    1    2  501    0 -0.30145475283E+02 -0.31779612743E+01  0.62185403734E+02  0.69180008351E+02  0.00000000000E+00 0. -1.
          2    1    1    2  502    0  0.30145475283E+02  0.31779612743E+01  0.51326491842E+02  0.59609209714E+02  0.00000000000E+00 0. -1.
</event>
<event>
 4    1  0.6136512E+003  0.3060820E+02  0.7546771E-02  0.1414383E+00
          2   -1    0    0  501    0  0.00000000000E+00  0.00000000000E+00  0.62644148831E+02  0.62644148831E+02  0.00000000000E+00 0.  1.
          2   -1    0    0  502    0 -0.00000000000E+00 -0.00000000000E+00 -0.28804247737E+02  0.28804247737E+02  0.00000000000E+00 0.  1.
          2    1    1    2  501    0  0.30290372968E+02 -0.43994660582E+01 -0.14784937906E+02  0.33992004722E+02  0.00000000000E+00 0.  1.
          2    1    1    2  502    0 -0.30290372968E+02  0.43994660582E+01  0.48624839001E+02  0.57456391846E+02  0.00000000000E+00 0.  1.
</event>
<event>
 4    1  0.6136512E+003  0.2153407E+02  0.7546771E-02  0.1511775E+00
          2   -1    0    0  501    0  0.00000000000E+00  0.00000000000E+00  0.80196505603E+01  0.80196505603E+01  0.00000000000E+00 0.  1.
          2   -1    0    0  502    0 -0.00000000000E+00 -0.00000000000E+00 -0.82434858841E+02  0.82434858841E+02  0.00000000000E+00 0.  1.
          2    1    1    2  501    0 -0.33241130747E+01 -0.21275958592E+02 -0.61920378838E+02  0.65557985457E+02  0.00000000000E+00 0.  1.
          2    1    1    2  502    0  0.33241130747E+01  0.21275958592E+02 -0.12494829443E+02  0.24896523945E+02  0.00000000000E+00 0.  1.
</event>
<event>
 4    1  0.6136512E+003  0.2680406E+02  0.7546771E-02  0.1449586E+00
          2   -1    0    0  502    0  0.00000000000E+00  0.00000000000E+00  0.72725640324E+01  0.72725640324E+01  0.00000000000E+00 0.  1.
          2   -1    0    0  501    0 -0.00000000000E+00 -0.00000000000E+00 -0.17899807767E+04  0.17899807767E+04  0.00000000000E+00 0. -1.
          2    1    1    2  501    0  0.17230088222E+02 -0.20532449015E+02 -0.17877240781E+02  0.32218832080E+02  0.00000000000E+00 0.  1.
          2    1    1    2  502    0 -0.17230088222E+02  0.20532449015E+02 -0.17648309719E+04  0.17650345086E+04  0.00000000000E+00 0. -1.
</event>
<event>
 4    1  0.6136512E+003  0.4774755E+02  0.7546771E-02  0.1308245E+00
          2   -1    0    0  501    0  0.00000000000E+00  0.00000000000E+00  0.19806093536E+01  0.19806093536E+01  0.00000000000E+00 0.  1.
          2   -1    0    0  502    0 -0.00000000000E+00 -0.00000000000E+00 -0.29085232315E+04  0.29085232315E+04  0.00000000000E+00 0. -1.
          2    1    1    2  501    0  0.17712544926E+02 -0.44340662549E+02 -0.25844813867E+04  0.25849224102E+04  0.00000000000E+00 0. -1.
          2    1    1    2  502    0 -0.17712544926E+02  0.44340662549E+02 -0.32206123543E+03  0.32558143063E+03  0.00000000000E+00 0.  1.
</event>
<event>
 4    1  0.6136512E+003  0.2402207E+02  0.7546771E-02  0.1480048E+00
          2   -1    0    0  502    0  0.00000000000E+00  0.00000000000E+00  0.88157224336E+03  0.88157224336E+03  0.00000000000E+00 0.  1.
          2   -1    0    0  501    0 -0.00000000000E+00 -0.00000000000E+00 -0.11610429738E+02  0.11610429738E+02  0.00000000000E+00 0. -1.
          2    1    1    2  501    0  0.33685072600E+01 -0.23784722443E+02  0.86880051059E+03  0.86913254862E+03  0.00000000000E+00 0.  1.
          2    1    1    2  502    0 -0.33685072600E+01  0.23784722443E+02  0.11613030334E+01  0.24050124482E+02  0.00000000000E+00 0. -1.
</event>
<event>
 4    1  0.6136512E+003  0.2034403E+02  0.7546771E-02  0.1528840E+00
          2   -1    0    0  501    0  0.00000000000E+00  0.00000000000E+00  0.17227429751E+01  0.17227429751E+01  0.00000000000E+00 0. -1.
          2   -1    0    0  502    0 -0.00000000000E+00 -0.00000000000E+00 -0.76091407183E+03  0.76091407183E+03  0.00000000000E+00 0.  1.
          2    1    1    2  501    0  0.18892090060E+02  0.75477401202E+01 -0.69502427307E+03  0.69532195392E+03  0.00000000000E+00 0.  1.
          2    1    1    2  502    0 -0.18892090060E+02 -0.75477401202E+01 -0.64167055785E+02  0.67314860885E+02  0.00000000000E+00 0. -1.
</event>
<event>
 4    1  0.6136512E+003  0.4576704E+02  0.7546771E-02  0.1317648E+00
          2   -1    0    0  501    0  0.00000000000E+00  0.00000000000E+00  0.43340198074E+03  0.43340198074E+03  0.00000000000E+00 0. -1.
          2   -1    0    0  502    0 -0.00000000000E+00 -0.00000000000E+00 -0.55652428058E+01  0.55652428058E+01  0.00000000000E+00 0. -1.
          2    1    1    2  501    0 -0.32231772051E+02 -0.32492069338E+02  0.13430344419E+03  0.14188740896E+03  0.00000000000E+00 0. -1.
          2    1    1    2  502    0  0.32231772051E+02  0.32492069338E+02  0.29353329374E+03  0.29707981459E+03  0.00000000000E+00 0. -1.
</event>
<event>
 4    1  0.6136512E+003  0.2686468E+02  0.7546771E-02  0.1448972E+00
          2   -1    0    0  502    0  0.00000000000E+00  0.00000000000E+00  0.41474259021E+03  0.41474259021E+03  0.00000000000E+00 0. -1.
          2   -1    0    0  501    0 -0.00000000000E+00 -0.00000000000E+00 -0.18018193494E+01  0.18018193494E+01  0.00000000000E+00 0. -1.
          2    1    1    2  501    0  0.79622742056E+01  0.25657618135E+02  0.24500375847E+03  0.24647221515E+03  0.00000000000E+00 0. -1.
          2    1    1    2  502    0 -0.79622742056E+01 -0.25657618135E+02  0.16793701239E+03  0.17007219440E+03  0.00000000000E+00 0. -1.
</event>
<event>
 4    1  0.6136512E+003  0.3137585E+02  0.7546771E-02  0.1408005E+00
          2   -1    0    0  502    0  0.00000000000E+00  0.00000000000E+00  0.13481774376E+04  0.13481774376E+04  0.00000000000E+00 0.  1.
          2   -1    0    0  501    0 -0.00000000000E+00 -0.00000000000E+00 -0.36845979997E+01  0.36845979997E+01  0.00000000000E+00 0.  1.
          2    1    1    2  501    0  0.30374070353E+01 -0.31228486906E+02  0.12775058213E+04  0.12778910626E+04  0.00000000000E+00 0.  1.
          2    1    1    2  502    0 -0.30374070353E+01  0.31228486906E+02  0.66987018276E+02  0.73970973047E+02  0.00000000000E+00 0.  1.
</event>
<event>
 4    1  0.6136512E+003  0.2412947E+02  0.7546771E-02  0.1478782E+00
          2   -1    0    0  501    0  0.00000000000E+00  0.00000000000E+00  0.72173676477E+00  0.72173676477E+00  0.00000000000E+00 0. -1.
          2   -1    0    0  502    0 -0.00000000000E+00 -0.00000000000E+00 -0.10070087512E+04  0.10070087512E+04  0.00000000000E+00 0.  1.
          2    1    1    2  501    0 -0.72518610569E+00 -0.24118565419E+02 -0.72786192181E+03  0.72826177183E+03  0.00000000000E+00 0.  1.
          2    1    1    2  502    0  0.72518610569E+00  0.24118565419E+02 -0.27842509260E+03  0.27946871611E+03  0.00000000000E+00 0. -1.
</event>
<event>
 4    1  0.6136512E+003  0.4857451E+02  0.7546771E-02  0.1304474E+00
          2   -1    0    0  501    0  0.00000000000E+00  0.00000000000E+00  0.15146552895E+02  0.15146552895E+02  0.00000000000E+00 0. -1.
          2   -1    0    0  502    0 -0.00000000000E+00 -0.00000000000E+00 -0.18075107125E+04  0.18075107125E+04  0.00000000000E+00 0. -1.
          2    1    1    2  501    0  0.23727778643E+02  0.42384854209E+02 -0.17673554721E+04  0.17680228642E+04  0.00000000000E+00 0. -1.
          2    1    1    2  502    0 -0.23727778643E+02 -0.42384854209E+02 -0.25008687430E+02  0.54634401183E+02  0.00000000000E+00 0. -1.
</event>
<event>
 4    1  0.6136512E+003  0.2043462E+02  0.7546771E-02  0.1527492E+00
          2   -1    0    0  501    0  0.00000000000E+00  0.00000000000E+00  0.18266661940E+03  0.18266661940E+03  0.00000000000E+00 0.  1.
          2   -1    0    0  502    0 -0.00000000000E+00 -0.00000000000E+00 -0.23330966062E+01  0.23330966062E+01  0.00000000000E+00 0.  1.
          2    1    1    2  501    0  0.12894518202E+02 -0.15852602148E+02  0.77022763150E+02  0.79687386943E+02  0.00000000000E+00 0.  1.
          2    1    1    2  502    0 -0.12894518202E+02  0.15852602148E+02  0.10331075964E+03  0.10531232906E+03  0.00000000000E+00 0.  1.
</event>
<event>
 4    1  0.6136512E+003  0.3752445E+02  0.7546771E-02  0.1363637E+00
          2   -1    0    0  502    0  0.00000000000E+00  0.00000000000E+00  0.19411272762E+03  0.19411272762E+03  0.00000000000E+00 0.  1.
          2   -1    0    0  501    0 -0.00000000000E+00 -0.00000000000E+00 -0.20144236982E+02  0.20144236982E+02  0.00000000000E+00 0. -1.
          2    1    1    2  501    0  0.11942478471E+02 -0.35573327501E+02  0.17268029438E+03  0.17671040855E+03  0.00000000000E+00 0.  1.
          2    1    1    2  502    0 -0.11942478471E+02  0.35573327501E+02  0.12881962515E+01  0.37546556049E+02  0.00000000000E+00 0. -1.
</event>
<event>
 4    1  0.6136512E+003  0.4028000E+02  0.7546771E-02  0.1346853E+00
          2   -1    0    0  502    0  0.00000000000E+00  0.00000000000E+00  0.18422366929E+02  0.18422366929E+02  0.00000000000E+00 0. -1.
          2   -1    0    0  501    0 -0.00000000000E+00 -0.00000000000E+00 -0.15334879371E+04  0.15334879371E+04  0.00000000000E+00 0.  1.
          2    1    1    2  501    0  0.15482986922E+02  0.37185423080E+02 -0.41893813272E+01  0.40497277558E+02  0.00000000000E+00 0. -1.
          2    1    1    2  502    0 -0.15482986922E+02 -0.37185423080E+02 -0.15108761888E+04  0.15114130264E+04  0.00000000000E+00 0.  1.
</event>
<event>
 4    1  0.6136512E+003  0.2117914E+02  0.7546771E-02  0.1516722E+00
          2   -1    0    0  501    0  0.00000000000E+00  0.00000000000E+00  0.23407291964E+03  0.23407291964E+03  0.00000000000E+00 0.  1.
          2   -1    0    0  502    0 -0.00000000000E+00 -0.00000000000E+00 -0.33175844373E+01  0.33175844373E+01  0.00000000000E+00 0.  1.
          2    1    1    2  501    0 -0.33533941081E+01  0.20911974277E+02  0.38236858425E+02  0.43710562366E+02  0.00000000000E+00 0.  1.
          2    1    1    2  502    0  0.33533941081E+01 -0.20911974277E+02  0.19251847678E+03  0.19367994171E+03  0.00000000000E+00 0.  1.
</event>
<event>
 4    1  0.6136512E+003  0.2953737E+02  0.7546771E-02  0.1423660E+00
          2   -1    0    0  502    0  0.00000000000E+00  0.00000000000E+00  0.60437660495E+01  0.60437660495E+01  0.00000000000E+00 0. -1.
          2   -1    0    0  501    0 -0.00000000000E+00 -0.00000000000E+00 -0.43404006081E+03  0.43404006081E+03  0.00000000000E+00 0.  1.
          2    1    1    2  501    0  0.15478070985E+02 -0.25157220866E+02 -0.34234244534E+02  0.45215483431E+02  0.00000000000E+00 0. -1.
          2    1    1    2  502    0 -0.15478070985E+02  0.25157220866E+02 -0.39376205022E+03  0.39486834343E+03  0.00000000000E+00 0.  1.
</event>
<event>
 4    1  0.6136512E+003  0.4693951E+02  0.7546771E-02  0.1312016E+00
          2   -1    0    0  501    0  0.00000000000E+00  0.00000000000E+00  0.81295437744E+00  0.81295437744E+00  0.00000000000E+00 0. -1.
          2   -1    0    0  502    0 -0.00000000000E+00 -0.00000000000E+00 -0.34303236428E+04  0.34303236428E+04  0.00000000000E+00 0. -1.
          2    1    1    2  501    0  0.36504651949E+02  0.29508107349E+02 -0.25007612353E+04  0.25012017260E+04  0.00000000000E+00 0. -1.
          2    1    1    2  502    0 -0.36504651949E+02 -0.29508107349E+02 -0.92874945312E+03  0.92993487121E+03  0.00000000000E+00 0. -1.
</event>
<event>
 4    1  0.6136512E+003  0.2731376E+02  0.7546771E-02  0.1444482E+00
          2   -1    0    0  501    0  0.00000000000E+00  0.00000000000E+00  0.66025453869E+03  0.66025453869E+03  0.00000000000E+00 0. -1.
          2   -1    0    0  502    0 -0.00000000000E+00 -0.00000000000E+00 -0.14935764999E+01  0.14935764999E+01  0.00000000000E+00 0. -1.
          2    1    1    2  501    0  0.27037036527E+02  0.38781355387E+01  0.16611709247E+03  0.16834764534E+03  0.00000000000E+00 0. -1.
          2    1    1    2  502    0 -0.27037036527E+02 -0.38781355387E+01  0.49264386972E+03  0.49340046985E+03  0.00000000000E+00 0. -1.
</event>
<event>
 4    1  0.6136512E+003  0.4066055E+02  0.7546771E-02  0.1344658E+00
          2   -1    0    0  501    0  0.00000000000E+00  0.00000000000E+00  0.17633616968E+04  0.17633616968E+04  0.00000000000E+00 0. -1.
          2   -1    0    0  502    0 -0.00000000000E+00 -0.00000000000E+00 -0.97510280178E+00  0.97510280178E+00  0.00000000000E+00 0. -1.
          2    1    1    2  501    0  0.61282726577E+01 -0.40196073634E+02  0.70812589827E+03  0.70929230072E+03  0.00000000000E+00 0. -1.
          2    1    1    2  502    0 -0.61282726577E+01  0.40196073634E+02  0.10542606958E+04  0.10550444989E+04  0.00000000000E+00 0. -1.
</event>
<event>
 4    1  0.6136512E+003  0.1383133E+03  0.7546771E-02  0.1110238E+00
          2   -1    0    0  501    0  0.00000000000E+00  0.00000000000E+00  0.23498228236E+03  0.23498228236E+03  0.00000000000E+00 0. -1.
          2   -1    0    0  502    0 -0.00000000000E+00 -0.00000000000E+00 -0.13149722060E+03  0.13149722060E+03  0.00000000000E+00 0.  1.
          2    1    1    2  501    0  0.13237984770E+03  0.40076678566E+02 -0.61344488787E+02  0.15130667714E+03  0.00000000000E+00 0.  1.
          2    1    1    2  502    0 -0.13237984770E+03 -0.40076678566E+02  0.16482955054E+03  0.21517282583E+03  0.00000000000E+00 0. -1.
</event>
<event>
 4    1  0.6136512E+003  0.3143019E+02  0.7546771E-02  0.1407562E+00
          2   -1    0    0  502    0  0.00000000000E+00  0.00000000000E+00  0.82760472720E+02  0.82760472720E+02  0.00000000000E+00 0.  1.
          2   -1    0    0  501    0 -0.00000000000E+00 -0.00000000000E+00 -0.19123144175E+03  0.19123144175E+03  0.00000000000E+00 0. -1.
          2    1    1    2  501    0 -0.24381632930E+02 -0.19834131176E+02  0.78416062546E+02  0.84480386180E+02  0.00000000000E+00 0.  1.
          2    1    1    2  502    0  0.24381632930E+02  0.19834131176E+02 -0.18688703157E+03  0.18951152829E+03  0.00000000000E+00 0. -1.
</event>
<event>
 4    1  0.6136512E+003  0.2087149E+02  0.7546771E-02  0.1521108E+00
          2   -1    0    0  502    0  0.00000000000E+00  0.00000000000E+00  0.11191765748E+04  0.11191765748E+04  0.00000000000E+00 0. -1.
          2   -1    0    0  501    0 -0.00000000000E+00 -0.00000000000E+00 -0.18812157443E+02  0.18812157443E+02  0.00000000000E+00 0.  1.
          2    1    1    2  501    0  0.35885776967E+00  0.20868408882E+02  0.11132594340E+04  0.11134550672E+04  0.00000000000E+00 0. -1.
          2    1    1    2  502    0 -0.35885776967E+00 -0.20868408882E+02 -0.12895016621E+02  0.24533665072E+02  0.00000000000E+00 0.  1.
</event>
<event>
 4    1  0.6136512E+003  0.3289681E+02  0.7546771E-02  0.1395984E+00
          2   -1    0    0  501    0  0.00000000000E+00  0.00000000000E+00  0.64771108662E+01  0.64771108662E+01  0.00000000000E+00 0. -1.
          2   -1    0    0  502    0 -0.00000000000E+00 -0.00000000000E+00 -0.97612848560E+03  0.97612848560E+03  0.00000000000E+00 0.  1.
          2    1    1    2  501    0  0.29839178870E+02 -0.13850045368E+02 -0.93210913373E+03  0.93268946469E+03  0.00000000000E+00 0.  1.
          2    1    1    2  502    0 -0.29839178870E+02  0.13850045368E+02 -0.37542241003E+02  0.49916131780E+02  0.00000000000E+00 0. -1.
</event>
<event>
 4    1  0.6136512E+003  0.6914740E+02  0.7546771E-02  0.1231566E+00
          2   -1    0    0  502    0  0.00000000000E+00  0.00000000000E+00  0.90892164034E+02  0.90892164034E+02  0.00000000000E+00 0. -1.
          2   -1    0    0  501    0 -0.00000000000E+00 -0.00000000000E+00 -0.84728196622E+02  0.84728196622E+02  0.00000000000E+00 0.  1.
          2    1    1    2  501    0  0.66413979781E+02 -0.19249593829E+02  0.57150152075E+02  0.89707878445E+02  0.00000000000E+00 0. -1.
          2    1    1    2  502    0 -0.66413979781E+02  0.19249593829E+02 -0.50986184664E+02  0.85912482210E+02  0.00000000000E+00 0.  1.
</event>
<event>
 4    1  0.6136512E+003  0.3698820E+02  0.7546771E-02  0.1367100E+00
          2   -1    0    0  502    0  0.00000000000E+00  0.00000000000E+00  0.86615892631E+02  0.86615892631E+02  0.00000000000E+00 0.  1.
          2   -1    0    0  501    0 -0.00000000000E+00 -0.00000000000E+00 -0.24637656004E+03  0.24637656004E+03  0.00000000000E+00 0. -1.
          2    1    1    2  501    0  0.30454755854E+02  0.20991303220E+02  0.81190413326E+02  0.89218889149E+02  0.00000000000E+00 0.  1.
          2    1    1    2  502    0 -0.30454755854E+02 -0.20991303220E+02 -0.24095108073E+03  0.24377356352E+03  0.00000000000E+00 0. -1.
</event>
<event>
 4    1  0.6136512E+003  0.2380107E+02  0.7546771E-02  0.1482677E+00
          2   -1    0    0  502    0  0.00000000000E+00  0.00000000000E+00  0.27462860252E+02  0.27462860252E+02  0.00000000000E+00 0. -1.
          2   -1    0    0  501    0 -0.00000000000E+00 -0.00000000000E+00 -0.11117044925E+04  0.11117044925E+04  0.00000000000E+00 0.  1.
          2    1    1    2  501    0  0.10719514309E+02  0.21250485864E+02  0.22153841444E+02  0.32515901145E+02  0.00000000000E+00 0. -1.
          2    1    1    2  502    0 -0.10719514309E+02 -0.21250485864E+02 -0.11063954737E+04  0.11066514516E+04  0.00000000000E+00 0.  1.
</event>
<event>
 4    1  0.6136512E+003  0.2156592E+02  0.7546771E-02  0.1511336E+00
          2   -1    0    0  502    0  0.00000000000E+00  0.00000000000E+00  0.11471811864E+03  0.11471811864E+03  0.00000000000E+00 0. -1.
          2   -1    0    0  501    0 -0.00000000000E+00 -0.00000000000E+00 -0.21075084396E+03  0.21075084396E+03  0.00000000000E+00 0. -1.
          2    1    1    2  501    0  0.26509780162E+01  0.21402360469E+02  0.11314526649E+03  0.11518220369E+03  0.00000000000E+00 0. -1.
          2    1    1    2  502    0 -0.26509780162E+01 -0.21402360469E+02 -0.20917799181E+03  0.21028675892E+03  0.00000000000E+00 0. -1.
</event>
<event>
 4    1  0.6136512E+003  0.2562374E+02  0.7546771E-02  0.1461945E+00
          2   -1    0    0  501    0  0.00000000000E+00  0.00000000000E+00  0.49072688945E+02  0.49072688945E+02  0.00000000000E+00 0.  1.
          2   -1    0    0  502    0 -0.00000000000E+00 -0.00000000000E+00 -0.53947868635E+02  0.53947868635E+02  0.00000000000E+00 0. -1.
          2    1    1    2  501    0 -0.12584225693E+02 -0.22320689004E+02 -0.47105915142E+02  0.53624090997E+02  0.00000000000E+00 0. -1.
          2    1    1    2  502    0  0.12584225693E+02  0.22320689004E+02  0.42230735453E+02  0.49396466582E+02  0.00000000000E+00 0.  1.
</event>
<event>
 4    1  0.6136512E+003  0.2262407E+02  0.7546771E-02  0.1497274E+00
          2   -1    0    0  502    0  0.00000000000E+00  0.00000000000E+00  0.10455414304E+04  0.10455414304E+04  0.00000000000E+00 0. -1.
          2   -1    0    0  501    0 -0.00000000000E+00 -0.00000000000E+00 -0.17526512907E+03  0.17526512907E+03  0.00000000000E+00 0. -1.
          2    1    1    2  501    0 -0.13947651524E+02  0.17813235322E+02  0.10446883401E+04  0.10449332880E+04  0.00000000000E+00 0. -1.
          2    1    1    2  502    0  0.13947651524E+02 -0.17813235322E+02 -0.17441203881E+03  0.17587327147E+03  0.00000000000E+00 0. -1.
</event>
<event>
 4    1  0.6136512E+003  0.2055006E+02  0.7546771E-02  0.1525787E+00
          2   -1    0    0  502    0  0.00000000000E+00  0.00000000000E+00  0.68609103677E+03  0.68609103677E+03  0.00000000000E+00 0.  1.
          2   -1    0    0  501    0 -0.00000000000E+00 -0.00000000000E+00 -0.62930249842E+03  0.62930249842E+03  0.00000000000E+00 0. -1.
          2    1    1    2  501    0 -0.88916847111E+01 -0.18526813300E+02  0.68576931027E+03  0.68607714711E+03  0.00000000000E+00 0.  1.
          2    1    1    2  502    0  0.88916847111E+01  0.18526813300E+02 -0.62898077192E+03  0.62931638809E+03  0.00000000000E+00 0. -1.
</event>
<event>
 4    1  0.6136512E+003  0.2440474E+02  0.7546771E-02  0.1475574E+00
          2   -1    0    0  502    0  0.00000000000E+00  0.00000000000E+00  0.87579460485E+02  0.87579460485E+02  0.00000000000E+00 0. -1.
          2   -1    0    0  501    0 -0.00000000000E+00 -0.00000000000E+00 -0.27576278548E+02  0.27576278548E+02  0.00000000000E+00 0.  1.
          2    1    1    2  501    0 -0.21271648134E+02 -0.11962795826E+02  0.79978056205E+02  0.83618664021E+02  0.00000000000E+00 0. -1.
          2    1    1    2  502    0  0.21271648134E+02  0.11962795826E+02 -0.19974874267E+02  0.31537075012E+02  0.00000000000E+00 0.  1.
</event>
<event>
 4    1  0.6136512E+003  0.2108270E+02  0.7546771E-02  0.1518087E+00
          2   -1    0    0  501    0  0.00000000000E+00  0.00000000000E+00  0.92269839772E+00  0.92269839772E+00  0.00000000000E+00 0.  1.
          2   -1    0    0  502    0 -0.00000000000E+00 -0.00000000000E+00 -0.11453891951E+04  0.11453891951E+04  0.00000000000E+00 0.  1.
          2    1    1    2  501    0  0.11817232007E+02 -0.17459475373E+02 -0.10085207862E+04  0.10087411246E+04  0.00000000000E+00 0.  1.
          2    1    1    2  502    0 -0.11817232007E+02  0.17459475373E+02 -0.13594571057E+03  0.13757076897E+03  0.00000000000E+00 0.  1.
</event>
<event>
 4    1  0.6136512E+003  0.2095618E+02  0.7546771E-02  0.1519891E+00
          2   -1    0    0  502    0  0.00000000000E+00  0.00000000000E+00  0.11274524655E+02  0.11274524655E+02  0.00000000000E+00 0.  1.
          2   -1    0    0  501    0 -0.00000000000E+00 -0.00000000000E+00 -0.14129508511E+03  0.14129508511E+03  0.00000000000E+00 0. -1.
          2    1    1    2  501    0 -0.19688045222E+02 -0.71793013190E+01 -0.86398486366E-01  0.20956358386E+02  0.00000000000E+00 0.  1.
          2    1    1    2  502    0  0.19688045222E+02  0.71793013190E+01 -0.12993416197E+03  0.13161325138E+03  0.00000000000E+00 0. -1.
</event>
<event>
 4    1  0.6136512E+003  0.3498183E+02  0.7546771E-02  0.1380691E+00
          2   -1    0    0  502    0  0.00000000000E+00  0.00000000000E+00  0.12884440251E+04  0.12884440251E+04  0.00000000000E+00 0. -1.
          2   -1    0    0  501    0 -0.00000000000E+00 -0.00000000000E+00 -0.57076732615E+02  0.57076732615E+02  0.00000000000E+00 0. -1.
          2    1    1    2  501    0  0.21032780528E+01 -0.34918540058E+02  0.12828230870E+04  0.12832999653E+04  0.00000000000E+00 0. -1.
          2    1    1    2  502    0 -0.21032780528E+01  0.34918540058E+02 -0.51455794559E+02  0.62220792441E+02  0.00000000000E+00 0. -1.
</event>
<event>
 4    1  0.6136512E+003  0.3193154E+02  0.7546771E-02  0.1403522E+00
          2   -1    0    0  501    0  0.00000000000E+00  0.00000000000E+00  0.40964726791E+02  0.40964726791E+02  0.00000000000E+00 0.  1.
          2   -1    0    0  502    0 -0.00000000000E+00 -0.00000000000E+00 -0.23075723843E+04  0.23075723843E+04  0.00000000000E+00 0. -1.
          2    1    1    2  501    0 -0.30453122448E+02 -0.96036740487E+01 -0.23012221809E+04  0.23014437097E+04  0.00000000000E+00 0. -1.
          2    1    1    2  502    0  0.30453122448E+02  0.96036740487E+01  0.34614523387E+02  0.47093401357E+02  0.00000000000E+00 0.  1.
</event>
<event>
 4    1  0.6136512E+003  0.2488078E+02  0.7546771E-02  0.1470142E+00
          2   -1    0    0  502    0  0.00000000000E+00  0.00000000000E+00  0.45720498662E+01  0.45720498662E+01  0.00000000000E+00 0.  1.
          2   -1    0    0  501    0 -0.00000000000E+00 -0.00000000000E+00 -0.45909487268E+03  0.45909487268E+03  0.00000000000E+00 0. -1.
          2    1    1    2  501    0  0.81597389109E+01  0.23504723753E+02 -0.32594056797E+02  0.41005193772E+02  0.00000000000E+00 0.  1.
          2    1    1    2  502    0 -0.81597389109E+01 -0.23504723753E+02 -0.42192876602E+03  0.42266172877E+03  0.00000000000E+00 0. -1.
</event>
<event>
 4    1  0.6136512E+003  0.2284552E+02  0.7546771E-02  0.1494447E+00
          2   -1    0    0  501    0  0.00000000000E+00  0.00000000000E+00  0.10172476798E+03  0.10172476798E+03  0.00000000000E+00 0.  1.
          2   -1    0    0  502    0 -0.00000000000E+00 -0.00000000000E+00 -0.52101010788E+01  0.52101010788E+01  0.00000000000E+00 0.  1.
          2    1    1    2  501    0  0.19382056731E+02  0.12093529523E+02  0.54858563074E+02  0.59425411416E+02  0.00000000000E+00 0.  1.
          2    1    1    2  502    0 -0.19382056731E+02 -0.12093529523E+02  0.41656103830E+02  0.47509457645E+02  0.00000000000E+00 0.  1.
</event>
<event>
 4    1  0.6136512E+003  0.2370664E+02  0.7546771E-02  0.1483810E+00
          2   -1    0    0  501    0  0.00000000000E+00  0.00000000000E+00  0.12180352895E+02  0.12180352895E+02  0.00000000000E+00 0.  1.
          2   -1    0    0  502    0 -0.00000000000E+00 -0.00000000000E+00 -0.56470619047E+02  0.56470619047E+02  0.00000000000E+00 0. -1.
          2    1    1    2  501    0 -0.42086579040E+01 -0.23330066496E+02 -0.36826377246E+02  0.43797110237E+02  0.00000000000E+00 0. -1.
          2    1    1    2  502    0  0.42086579040E+01  0.23330066496E+02 -0.74638889065E+01  0.24853861705E+02  0.00000000000E+00 0.  1.
</event>
<event>
 4    1  0.6136512E+003  0.2774977E+02  0.7546771E-02  0.1440218E+00
          2   -1    0    0  502    0  0.00000000000E+00  0.00000000000E+00  0.43304057065E+01  0.43304057065E+01  0.00000000000E+00 0.  1.
          2   -1    0    0  501    0 -0.00000000000E+00 -0.00000000000E+00 -0.11549757126E+04  0.11549757126E+04  0.00000000000E+00 0.  1.
          2    1    1    2  501    0  0.15850612615E+02  0.22777357345E+02 -0.42156327572E+02  0.50469851221E+02  0.00000000000E+00 0.  1.
          2    1    1    2  502    0 -0.15850612615E+02 -0.22777357345E+02 -0.11084889794E+04  0.11088362671E+04  0.00000000000E+00 0.  1.
</event>
<event>
 4    1  0.6136512E+003  0.2821732E+02  0.7546771E-02  0.1435749E+00
          2   -1    0    0  501    0  0.00000000000E+00  0.00000000000E+00  0.69016118977E+01  0.69016118977E+01  0.00000000000E+00 0.  1.
          2   -1    0    0  502    0 -0.00000000000E+00 -0.00000000000E+00 -0.12607319759E+04  0.12607319759E+04  0.00000000000E+00 0. -1.
          2    1    1    2  501    0  0.95106581632E+01 -0.26566233160E+02 -0.12310367380E+04  0.12313600885E+04  0.00000000000E+00 0. -1.
          2    1    1    2  502    0 -0.95106581632E+01  0.26566233160E+02 -0.22793626059E+02  0.36273499306E+02  0.00000000000E+00 0.  1.
</event>
<event>
 4    1  0.6136512E+003  0.2054493E+02  0.7546771E-02  0.1525862E+00
          2   -1    0    0  502    0  0.00000000000E+00  0.00000000000E+00  0.49003410544E+02  0.49003410544E+02  0.00000000000E+00 0. -1.
          2   -1    0    0  501    0 -0.00000000000E+00 -0.00000000000E+00 -0.11528809879E+02  0.11528809879E+02  0.00000000000E+00 0. -1.
          2    1    1    2  501    0 -0.88339061959E+01 -0.18548750113E+02  0.33956854846E+02  0.39688310879E+02  0.00000000000E+00 0. -1.
          2    1    1    2  502    0  0.88339061959E+01  0.18548750113E+02  0.35177458193E+01  0.20843909544E+02  0.00000000000E+00 0. -1.
</event>
<event>
 4    1  0.6136512E+003  0.2694998E+02  0.7546771E-02  0.1448111E+00
          2   -1    0    0  501    0  0.00000000000E+00  0.00000000000E+00  0.75164560155E+03  0.75164560155E+03  0.00000000000E+00 0.  1.
          2   -1    0    0  502    0 -0.00000000000E+00 -0.00000000000E+00 -0.23599116824E+01  0.23599116824E+01  0.00000000000E+00 0. -1.
          2    1    1    2  501    0  0.32098600126E+01 -0.26758145493E+02  0.84928261022E+02  0.89101689500E+02  0.00000000000E+00 0. -1.
          2    1    1    2  502    0 -0.32098600126E+01  0.26758145493E+02  0.66435742885E+03  0.66490382373E+03  0.00000000000E+00 0.  1.
</event>
<event>
 4    1  0.6136512E+003  0.3330873E+02  0.7546771E-02  0.1392860E+00
          2   -1    0    0  502    0  0.00000000000E+00  0.00000000000E+00  0.57099817327E+03  0.57099817327E+03  0.00000000000E+00 0. -1.
          2   -1    0    0  501    0 -0.00000000000E+00 -0.00000000000E+00 -0.12015240276E+02  0.12015240276E+02  0.00000000000E+00 0. -1.
          2    1    1    2  501    0  0.32261855000E+02 -0.82851884164E+01  0.54638897657E+03  0.54740331142E+03  0.00000000000E+00 0. -1.
          2    1    1    2  502    0 -0.32261855000E+02  0.82851884164E+01  0.12593956424E+02  0.35610102128E+02  0.00000000000E+00 0. -1.
</event>
<event>
 4    1  0.6136512E+003  0.5452513E+02  0.7546771E-02  0.1279661E+00
          2   -1    0    0  501    0  0.00000000000E+00  0.00000000000E+00  0.11263570546E+04  0.11263570546E+04  0.00000000000E+00 0. -1.
          2   -1    0    0  502    0 -0.00000000000E+00 -0.00000000000E+00 -0.34345920326E+01  0.34345920326E+01  0.00000000000E+00 0.  1.
          2    1    1    2  501    0 -0.51779039529E+02 -0.17085697093E+02  0.28966299769E+03  0.29475013522E+03  0.00000000000E+00 0.  1.
          2    1    1    2  502    0  0.51779039529E+02  0.17085697093E+02  0.83325946491E+03  0.83504151145E+03  0.00000000000E+00 0. -1.
</event>
<event>
 4    1  0.6551584E+003  0.4976164E+02  0.7546771E-02  0.1299209E+00
          2   -1    0    0  502    0  0.00000000000E+00  0.00000000000E+00  0.18608289442E+04  0.18608289442E+04  0.00000000000E+00 0.  1.
          2   -1    0    0  501    0 -0.00000000000E+00 -0.00000000000E+00 -0.77885616811E+03  0.77885616811E+03  0.00000000000E+00 0.  1.
          2    1    1    2  501    0  0.10011408176E+02  0.48744155504E+02  0.18597009589E+04  0.18603665976E+04  0.00000000000E+00 0.  1.
          2    1    1    2  502    0 -0.10011408176E+02 -0.48744155504E+02 -0.77772818282E+03  0.77931851469E+03  0.00000000000E+00 0.  1.
</event>
<event>
 4    1  0.6136512E+003  0.4930322E+02  0.7546771E-02  0.1301222E+00
          2   -1    0    0  502    0  0.00000000000E+00  0.00000000000E+00  0.49810971678E+02  0.49810971678E+02  0.00000000000E+00 0.  1.
          2   -1    0    0  501    0 -0.00000000000E+00 -0.00000000000E+00 -0.12473098196E+04  0.12473098196E+04  0.00000000000E+00 0.  1.
          2    1    1    2  501    0 -0.10894793447E+02 -0.48084415212E+02  0.36997014428E+02  0.61640786717E+02  0.00000000000E+00 0.  1.
          2    1    1    2  502    0  0.10894793447E+02  0.48084415212E+02 -0.12344958623E+04  0.12354800045E+04  0.00000000000E+00 0.  1.
</event>
<event>
 4    1  0.6136512E+003  0.3182810E+02  0.7546771E-02  0.1404348E+00
          2   -1    0    0  501    0  0.00000000000E+00  0.00000000000E+00  0.86006279748E+03  0.86006279748E+03  0.00000000000E+00 0.  1.
          2   -1    0    0  502    0 -0.00000000000E+00 -0.00000000000E+00 -0.13879424869E+02  0.13879424869E+02  0.00000000000E+00 0. -1.
          2    1    1    2  501    0  0.93451884642E+01  0.30425239496E+02  0.50729751732E+01  0.32229843669E+02  0.00000000000E+00 0. -1.
          2    1    1    2  502    0 -0.93451884642E+01 -0.30425239496E+02  0.84111039743E+03  0.84171237868E+03  0.00000000000E+00 0.  1.
</event>
<event>
 4    1  0.6136512E+003  0.2188708E+02  0.7546771E-02  0.1506967E+00
          2   -1    0    0  502    0  0.00000000000E+00  0.00000000000E+00  0.30563899144E+03  0.30563899144E+03  0.00000000000E+00 0.  1.
          2   -1    0    0  501    0 -0.00000000000E+00 -0.00000000000E+00 -0.21957803038E+02  0.21957803038E+02  0.00000000000E+00 0.  1.
          2    1    1    2  501    0  0.76603475493E+01  0.20502761343E+02  0.29968478842E+03  0.30048297216E+03  0.00000000000E+00 0.  1.
          2    1    1    2  502    0 -0.76603475493E+01 -0.20502761343E+02 -0.16003600017E+02  0.27113822320E+02  0.00000000000E+00 0.  1.
</event>
<event>
 4    1  0.6136512E+003  0.2029196E+02  0.7546771E-02  0.1529618E+00
          2   -1    0    0  501    0  0.00000000000E+00  0.00000000000E+00  0.17899480181E+03  0.17899480181E+03  0.00000000000E+00 0. -1.
          2   -1    0    0  502    0 -0.00000000000E+00 -0.00000000000E+00 -0.53003341069E+03  0.53003341069E+03  0.00000000000E+00 0. -1.
          2    1    1    2  501    0 -0.59804497761E+01 -0.19390663412E+02 -0.52926325272E+03  0.52965210685E+03  0.00000000000E+00 0. -1.
          2    1    1    2  502    0  0.59804497761E+01  0.19390663412E+02  0.17822464384E+03  0.17937610565E+03  0.00000000000E+00 0. -1.
</event>
<event>
 4    1  0.6136512E+003  0.2727355E+02  0.7546771E-02  0.1444879E+00
          2   -1    0    0  501    0  0.00000000000E+00  0.00000000000E+00  0.33029513503E+03  0.33029513503E+03  0.00000000000E+00 0. -1.
          2   -1    0    0  502    0 -0.00000000000E+00 -0.00000000000E+00 -0.17854356761E+02  0.17854356761E+02  0.00000000000E+00 0. -1.
          2    1    1    2  501    0  0.10584226547E+02  0.25136045685E+02 -0.65059449510E+01  0.28038793911E+02  0.00000000000E+00 0. -1.
          2    1    1    2  502    0 -0.10584226547E+02 -0.25136045685E+02  0.31894672322E+03  0.32011069788E+03  0.00000000000E+00 0. -1.
</event>
<event>
 4    1  0.6136512E+003  0.2001941E+02  0.7546771E-02  0.1533739E+00
          2   -1    0    0  501    0  0.00000000000E+00  0.00000000000E+00  0.24748016124E+00  0.24748016124E+00  0.00000000000E+00 0. -1.
          2   -1    0    0  502    0 -0.00000000000E+00 -0.00000000000E+00 -0.18711101697E+04  0.18711101697E+04  0.00000000000E+00 0.  1.
          2    1    1    2  501    0 -0.19866101698E+02 -0.24727913822E+01 -0.12785955505E+04  0.12787522663E+04  0.00000000000E+00 0.  1.
          2    1    1    2  502    0  0.19866101698E+02  0.24727913822E+01 -0.59226713899E+03  0.59260538356E+03  0.00000000000E+00 0. -1.
</event>
<event>
 4    1  0.6136512E+003  0.3670724E+02  0.7546771E-02  0.1368942E+00
          2   -1    0    0  502    0  0.00000000000E+00  0.00000000000E+00  0.32529918111E+01  0.32529918111E+01  0.00000000000E+00 0.  1.
          2   -1    0    0  501    0 -0.00000000000E+00 -0.00000000000E+00 -0.71181113147E+03  0.71181113147E+03  0.00000000000E+00 0.  1.
          2    1    1    2  501    0  0.36555952567E+02  0.33292768973E+01 -0.12309926580E+03  0.12845563823E+03  0.00000000000E+00 0.  1.
          2    1    1    2  502    0 -0.36555952567E+02 -0.33292768973E+01 -0.58545887386E+03  0.58660848505E+03  0.00000000000E+00 0.  1.
</event>
<event>
 4    1  0.6136512E+003  0.2224069E+02  0.7546771E-02  0.1502259E+00
          2   -1    0    0  501    0  0.00000000000E+00  0.00000000000E+00  0.61378537101E+03  0.61378537101E+03  0.00000000000E+00 0. -1.
          2   -1    0    0  502    0 -0.00000000000E+00 -0.00000000000E+00 -0.24263366416E+02  0.24263366416E+02  0.00000000000E+00 0.  1.
          2    1    1    2  501    0 -0.19414096874E+02 -0.10850865230E+02 -0.18920492758E+02  0.29199888354E+02  0.00000000000E+00 0.  1.
          2    1    1    2  502    0  0.19414096874E+02  0.10850865230E+02  0.60844249735E+03  0.60884884907E+03  0.00000000000E+00 0. -1.
</event>
<event>
 4    1  0.6136512E+003  0.3872459E+02  0.7546771E-02  0.1356126E+00
          2   -1    0    0  502    0  0.00000000000E+00  0.00000000000E+00  0.82891310343E+03  0.82891310343E+03  0.00000000000E+00 0.  1.
          2   -1    0    0  501    0 -0.00000000000E+00 -0.00000000000E+00 -0.10164424215E+02  0.10164424215E+02  0.00000000000E+00 0. -1.
          2    1    1    2  501    0 -0.26744852324E+02  0.28005477344E+02  0.78974948466E+03  0.79069832579E+03  0.00000000000E+00 0.  1.
          2    1    1    2  502    0  0.26744852324E+02 -0.28005477344E+02  0.28999194549E+02  0.48379201850E+02  0.00000000000E+00 0. -1.
</event>
<event>
 4    1  0.6136512E+003  0.2231733E+02  0.7546771E-02  0.1501253E+00
          2   -1    0    0  502    0  0.00000000000E+00  0.00000000000E+00  0.13346377551E+02  0.13346377551E+02  0.00000000000E+00 0.  1.
          2   -1    0    0  501    0 -0.00000000000E+00 -0.00000000000E+00 -0.11728188927E+03  0.11728188927E+03  0.00000000000E+00 0. -1.
          2    1    1    2  501    0  0.13984346358E+02 -0.17392561937E+02  0.19631889962E+01  0.22403510101E+02  0.00000000000E+00 0.  1.
          2    1    1    2  502    0 -0.13984346358E+02  0.17392561937E+02 -0.10589870071E+03  0.10822475672E+03  0.00000000000E+00 0. -1.
</event>
<event>
 4    1  0.6136512E+003  0.2369278E+02  0.7546771E-02  0.1483977E+00
          2   -1    0    0  502    0  0.00000000000E+00  0.00000000000E+00  0.24210047349E+02  0.24210047349E+02  0.00000000000E+00 0. -1.
          2   -1    0    0  501    0 -0.00000000000E+00 -0.00000000000E+00 -0.14923052872E+04  0.14923052872E+04  0.00000000000E+00 0. -1.
          2    1    1    2  501    0  0.23544732511E+02  0.26445351115E+01  0.18296303047E+02  0.29934974531E+02  0.00000000000E+00 0. -1.
          2    1    1    2  502    0 -0.23544732511E+02 -0.26445351115E+01 -0.14863915429E+04  0.14865803600E+04  0.00000000000E+00 0. -1.
</event>
<event>
 4    1  0.6136512E+003  0.1225001E+03  0.7546771E-02  0.1129687E+00
          2   -1    0    0  502    0  0.00000000000E+00  0.00000000000E+00  0.69796682677E+02  0.69796682677E+02  0.00000000000E+00 0. -1.
          2   -1    0    0  501    0 -0.00000000000E+00 -0.00000000000E+00 -0.12276075045E+04  0.12276075045E+04  0.00000000000E+00 0.  1.
          2    1    1    2  501    0  0.11795041060E+03 -0.33075253460E+02  0.10258517391E+02  0.12292887753E+03  0.00000000000E+00 0. -1.
          2    1    1    2  502    0 -0.11795041060E+03  0.33075253460E+02 -0.11680693392E+04  0.11744753096E+04  0.00000000000E+00 0.  1.
</event>
<event>
 4    1  0.6136512E+003  0.2919643E+02  0.7546771E-02  0.1426710E+00
          2   -1    0    0  501    0  0.00000000000E+00  0.00000000000E+00  0.21817761064E+01  0.21817761064E+01  0.00000000000E+00 0. -1.
          2   -1    0    0  502    0 -0.00000000000E+00 -0.00000000000E+00 -0.14826596492E+04  0.14826596492E+04  0.00000000000E+00 0. -1.
          2    1    1    2  501    0  0.50689142605E+01  0.28753049577E+02 -0.13773740828E+04  0.13776834890E+04  0.00000000000E+00 0. -1.
          2    1    1    2  502    0 -0.50689142605E+01 -0.28753049577E+02 -0.10310379031E+03  0.10715793638E+03  0.00000000000E+00 0. -1.
</event>
<event>
 4    1  0.6136512E+003  0.2038771E+02  0.7546771E-02  0.1528189E+00
          2   -1    0    0  502    0  0.00000000000E+00  0.00000000000E+00  0.17234501600E+01  0.17234501600E+01  0.00000000000E+00 0. -1.
          2   -1    0    0  501    0 -0.00000000000E+00 -0.00000000000E+00 -0.76251726629E+03  0.76251726629E+03  0.00000000000E+00 0.  1.
          2    1    1    2  501    0  0.92696033773E+01 -0.18158555966E+02 -0.64434476601E+02  0.67582989549E+02  0.00000000000E+00 0. -1.
          2    1    1    2  502    0 -0.92696033773E+01  0.18158555966E+02 -0.69635933953E+03  0.69665772690E+03  0.00000000000E+00 0.  1.
</event>
<event>
 4    1  0.6136512E+003  0.2343798E+02  0.7546771E-02  0.1487070E+00
          2   -1    0    0  502    0  0.00000000000E+00  0.00000000000E+00  0.16975304584E+02  0.16975304584E+02  0.00000000000E+00 0.  1.
          2   -1    0    0  501    0 -0.00000000000E+00 -0.00000000000E+00 -0.12081584742E+03  0.12081584742E+03  0.00000000000E+00 0.  1.
          2    1    1    2  501    0  0.22579895316E+02  0.62838942753E+01  0.70305733743E+01  0.24469735628E+02  0.00000000000E+00 0.  1.
          2    1    1    2  502    0 -0.22579895316E+02 -0.62838942753E+01 -0.11087111621E+03  0.11332141638E+03  0.00000000000E+00 0.  1.
</event>
<event>
 4    1  0.6136512E+003  0.2220248E+02  0.7546771E-02  0.1502763E+00
          2   -1    0    0  502    0  0.00000000000E+00  0.00000000000E+00  0.14517954298E+02  0.14517954298E+02  0.00000000000E+00 0.  1.
          2   -1    0    0  501    0 -0.00000000000E+00 -0.00000000000E+00 -0.21193540908E+03  0.21193540908E+03  0.00000000000E+00 0.  1.
          2    1    1    2  501    0  0.29476354130E+01 -0.22005946097E+02  0.50521655107E+01  0.22770037209E+02  0.00000000000E+00 0.  1.
          2    1    1    2  502    0 -0.29476354130E+01  0.22005946097E+02 -0.20246962029E+03  0.20368332617E+03  0.00000000000E+00 0.  1.
</event>
<event>
 4    1  0.6136512E+003  0.5675253E+02  0.7546771E-02  0.1271284E+00
          2   -1    0    0  501    0  0.00000000000E+00  0.00000000000E+00  0.12118931239E+04  0.12118931239E+04  0.00000000000E+00 0.  1.
          2   -1    0    0  502    0 -0.00000000000E+00 -0.00000000000E+00 -0.42373145006E+02  0.42373145006E+02  0.00000000000E+00 0. -1.
          2    1    1    2  501    0  0.40464136717E+02 -0.39793259747E+02 -0.22387365423E+02  0.61008556877E+02  0.00000000000E+00 0. -1.
          2    1    1    2  502    0 -0.40464136717E+02  0.39793259747E+02  0.11919073443E+04  0.11932577120E+04  0.00000000000E+00 0.  1.
</event>
<event>
 4    1  0.6136512E+003  0.2218876E+02  0.7546771E-02  0.1502944E+00
          2   -1    0    0  502    0  0.00000000000E+00  0.00000000000E+00  0.17682393459E+04  0.17682393459E+04  0.00000000000E+00 0.  1.
          2   -1    0    0  501    0 -0.00000000000E+00 -0.00000000000E+00 -0.36711497636E+00  0.36711497636E+00  0.00000000000E+00 0. -1.
          2    1    1    2  501    0  0.13584465324E+02 -0.17544322053E+02  0.44931455542E+03  0.44986210181E+03  0.00000000000E+00 0. -1.
          2    1    1    2  502    0 -0.13584465324E+02  0.17544322053E+02  0.13185576755E+04  0.13187443590E+04  0.00000000000E+00 0.  1.
</event>
<event>
 4    1  0.6136512E+003  0.2536128E+02  0.7546771E-02  0.1464802E+00
          2   -1    0    0  502    0  0.00000000000E+00  0.00000000000E+00  0.60604667901E+03  0.60604667901E+03  0.00000000000E+00 0.  1.
          2   -1    0    0  501    0 -0.00000000000E+00 -0.00000000000E+00 -0.17628024527E+03  0.17628024527E+03  0.00000000000E+00 0. -1.
          2    1    1    2  501    0  0.24196283392E+02 -0.75983034474E+01  0.60486740174E+03  0.60539885037E+03  0.00000000000E+00 0.  1.
          2    1    1    2  502    0 -0.24196283392E+02  0.75983034474E+01 -0.17510096800E+03  0.17692807392E+03  0.00000000000E+00 0. -1.
</event>
