<event>
 4    1  0.8931296E+003  0.2890023E+02  0.7546771E-02  0.1429400E+00
          2   -1    0    0  502    0  0.00000000000E+00  0.00000000000E+00  0.71989692400E+01  0.71989692400E+01  0.00000000000E+00 0.  1.
          2   -1    0    0  501    0 -0.00000000000E+00 -0.00000000000E+00 -0.14673850553E+04  0.14673850553E+04  0.00000000000E+00 0. -1.
          2    1    1    2  501    0  0.77578998209E-01 -0.28900123586E+02 -0.22548390363E+02  0.36655873605E+02  0.00000000000E+00 0.  1.
          2    1    1    2  502    0 -0.77578998209E-01  0.28900123586E+02 -0.14376376957E+04  0.14379281509E+04  0.00000000000E+00 0. -1.
</event>
<event>
 4    1  0.8931296E+003  0.2082570E+02  0.7546771E-02  0.1521768E+00
          2   -1    0    0  501    0  0.00000000000E+00  0.00000000000E+00  0.15798213167E+01  0.15798213167E+01  0.00000000000E+00 0. -1.
          2   -1    0    0  502    0 -0.00000000000E+00 -0.00000000000E+00 -0.33471091797E+03  0.33471091797E+03  0.00000000000E+00 0. -1.
          2    1    1    2  501    0  0.32818765504E+01  0.20565479348E+02 -0.23786339086E+03  0.23877332843E+03  0.00000000000E+00 0. -1.
          2    1    1    2  502    0 -0.32818765504E+01 -0.20565479348E+02 -0.95267705790E+02  0.97517410861E+02  0.00000000000E+00 0. -1.
</event>
<event>
 4    1  0.8931296E+003  0.2811316E+02  0.7546771E-02  0.1436736E+00
          2   -1    0    0  501    0  0.00000000000E+00  0.00000000000E+00  0.39834244264E+03  0.39834244264E+03  0.00000000000E+00 0. -1.
          2   -1    0    0  502    0 -0.00000000000E+00 -0.00000000000E+00 -0.26587069731E+02  0.26587069731E+02  0.00000000000E+00 0.  1.
          2    1    1    2  501    0  0.27899350268E+02  0.34606538541E+01 -0.18505637742E+02  0.33657220603E+02  0.00000000000E+00 0.  1.
          2    1    1    2  502    0 -0.27899350268E+02 -0.34606538541E+01  0.39026101065E+03  0.39127229177E+03  0.00000000000E+00 0. -1.
</event>
<event>
 4    1  0.8931296E+003  0.3465189E+02  0.7546771E-02  0.1383027E+00
          2   -1    0    0  501    0  0.00000000000E+00  0.00000000000E+00  0.77265700186E+01  0.77265700186E+01  0.00000000000E+00 0. -1.
          2   -1    0    0  502    0 -0.00000000000E+00 -0.00000000000E+00 -0.92661694052E+03  0.92661694052E+03  0.00000000000E+00 0. -1.
          2    1    1    2  501    0  0.32386180275E+02 -0.12324328549E+02 -0.88564485517E+03  0.88632249392E+03  0.00000000000E+00 0. -1.
          2    1    1    2  502    0 -0.32386180275E+02  0.12324328549E+02 -0.33245515330E+02  0.48021016613E+02  0.00000000000E+00 0. -1.
</event>
<event>
 4    1  0.8931296E+003  0.3752936E+02  0.7546771E-02  0.1363605E+00
          2   -1    0    0  502    0  0.00000000000E+00  0.00000000000E+00  0.68469573579E+03  0.68469573579E+03  0.00000000000E+00 0. -1.
          2   -1    0    0  501    0 -0.00000000000E+00 -0.00000000000E+00 -0.53362052126E+02  0.53362052126E+02  0.00000000000E+00 0.  1.
          2    1    1    2  501    0  0.37520322596E+02  0.82345556348E+00  0.67751300283E+03  0.67855163525E+03  0.00000000000E+00 0. -1.
          2    1    1    2  502    0 -0.37520322596E+02 -0.82345556348E+00 -0.46179319168E+02  0.59506152670E+02  0.00000000000E+00 0.  1.
</event>
<event>
 4    1  0.8931296E+003  0.2735796E+02  0.7546771E-02  0.1444045E+00
          2   -1    0    0  501    0  0.00000000000E+00  0.00000000000E+00  0.28814244813E+01  0.28814244813E+01  0.00000000000E+00 0.  1.
          2   -1    0    0  502    0 -0.00000000000E+00 -0.00000000000E+00 -0.57741821161E+03  0.57741821161E+03  0.00000000000E+00 0.  1.
          2    1    1    2  501    0  0.36304543973E+01 -0.27116000896E+02 -0.50247823005E+03  0.50322244522E+03  0.00000000000E+00 0.  1.
          2    1    1    2  502    0 -0.36304543973E+01  0.27116000896E+02 -0.72058557085E+02  0.77077190873E+02  0.00000000000E+00 0.  1.
</event>
<event>
 4    1  0.8931296E+003  0.3428681E+02  0.7546771E-02  0.1385648E+00
          2   -1    0    0  502    0  0.00000000000E+00  0.00000000000E+00  0.42156190696E+01  0.42156190696E+01  0.00000000000E+00 0.  1.
          2   -1    0    0  501    0 -0.00000000000E+00 -0.00000000000E+00 -0.29239943111E+03  0.29239943111E+03  0.00000000000E+00 0.  1.
          2    1    1    2  501    0 -0.32188764131E+02  0.11809695960E+02 -0.11218336527E+03  0.11730597981E+03  0.00000000000E+00 0.  1.
          2    1    1    2  502    0  0.32188764131E+02 -0.11809695960E+02 -0.17600044677E+03  0.17930907037E+03  0.00000000000E+00 0.  1.
</event>
<event>
 4    1  0.8931296E+003  0.2191097E+02  0.7546771E-02  0.1506645E+00
          2   -1    0    0  501    0  0.00000000000E+00  0.00000000000E+00  0.85589972785E+03  0.85589972785E+03  0.00000000000E+00 0.  1.
          2   -1    0    0  502    0 -0.00000000000E+00 -0.00000000000E+00 -0.86236843994E+00  0.86236843994E+00  0.00000000000E+00 0.  1.
          2    1    1    2  501    0 -0.95500762148E+01  0.19720214261E+02  0.17424460517E+03  0.17561683642E+03  0.00000000000E+00 0.  1.
          2    1    1    2  502    0  0.95500762148E+01 -0.19720214261E+02  0.68079275425E+03  0.68114525987E+03  0.00000000000E+00 0.  1.
</event>
<event>
 4    1  0.8931296E+003  0.3756853E+02  0.7546771E-02  0.1363355E+00
          2   -1    0    0  502    0  0.00000000000E+00  0.00000000000E+00  0.61188102164E+02  0.61188102164E+02  0.00000000000E+00 0.  1.
          2   -1    0    0  501    0 -0.00000000000E+00 -0.00000000000E+00 -0.22178286378E+04  0.22178286378E+04  0.00000000000E+00 0. -1.
          2    1    1    2  501    0 -0.23552231212E+02 -0.29269210340E+02  0.55246896987E+02  0.66810282859E+02  0.00000000000E+00 0.  1.
          2    1    1    2  502    0  0.23552231212E+02  0.29269210340E+02 -0.22118874326E+04  0.22122064571E+04  0.00000000000E+00 0. -1.
</event>
<event>
 4    1  0.8931296E+003  0.2179344E+02  0.7546771E-02  0.1508231E+00
          2   -1    0    0  502    0  0.00000000000E+00  0.00000000000E+00  0.96668735230E+02  0.96668735230E+02  0.00000000000E+00 0. -1.
          2   -1    0    0  501    0 -0.00000000000E+00 -0.00000000000E+00 -0.21847449963E+02  0.21847449963E+02  0.00000000000E+00 0. -1.
          2    1    1    2  501    0  0.27662717164E+01  0.21617164308E+02  0.89581756907E+02  0.92194605170E+02  0.00000000000E+00 0. -1.
          2    1    1    2  502    0 -0.27662717164E+01 -0.21617164308E+02 -0.14760471639E+02  0.26321580024E+02  0.00000000000E+00 0. -1.
</event>
<event>
 4    1  0.8931296E+003  0.5253520E+02  0.7546771E-02  0.1287540E+00
          2   -1    0    0  501    0  0.00000000000E+00  0.00000000000E+00  0.27189194519E+02  0.27189194519E+02  0.00000000000E+00 0. -1.
          2   -1    0    0  502    0 -0.00000000000E+00 -0.00000000000E+00 -0.24454552151E+03  0.24454552151E+03  0.00000000000E+00 0. -1.
          2    1    1    2  501    0 -0.45761707152E+02 -0.25803361030E+02 -0.21258850705E+03  0.21898360809E+03  0.00000000000E+00 0. -1.
          2    1    1    2  502    0  0.45761707152E+02  0.25803361030E+02 -0.47678199405E+01  0.52751107940E+02  0.00000000000E+00 0. -1.
</event>
<event>
 4    1  0.8931296E+003  0.2005341E+02  0.7546771E-02  0.1533221E+00
          2   -1    0    0  501    0  0.00000000000E+00  0.00000000000E+00  0.33501964478E+01  0.33501964478E+01  0.00000000000E+00 0.  1.
          2   -1    0    0  502    0 -0.00000000000E+00 -0.00000000000E+00 -0.12442027148E+04  0.12442027148E+04  0.00000000000E+00 0.  1.
          2    1    1    2  501    0  0.32582545049E+01  0.19786937535E+02 -0.12133502989E+04  0.12135160020E+04  0.00000000000E+00 0.  1.
          2    1    1    2  502    0 -0.32582545049E+01 -0.19786937535E+02 -0.27502219368E+02  0.34036909226E+02  0.00000000000E+00 0.  1.
</event>
<event>
 4    1  0.8931296E+003  0.3972610E+02  0.7546771E-02  0.1350098E+00
          2   -1    0    0  501    0  0.00000000000E+00  0.00000000000E+00  0.69247754366E+03  0.69247754366E+03  0.00000000000E+00 0.  1.
          2   -1    0    0  502    0 -0.00000000000E+00 -0.00000000000E+00 -0.96953101205E+02  0.96953101205E+02  0.00000000000E+00 0.  1.
          2    1    1    2  501    0 -0.33080624028E+02  0.21996264506E+02 -0.92286362320E+02  0.10047355875E+03  0.00000000000E+00 0.  1.
          2    1    1    2  502    0  0.33080624028E+02 -0.21996264506E+02  0.68781080478E+03  0.68895708611E+03  0.00000000000E+00 0.  1.
</event>
<event>
 4    1  0.8931296E+003  0.5218943E+02  0.7546771E-02  0.1288949E+00
          2   -1    0    0  502    0  0.00000000000E+00  0.00000000000E+00  0.79950224132E+02  0.79950224132E+02  0.00000000000E+00 0.  1.
          2   -1    0    0  501    0 -0.00000000000E+00 -0.00000000000E+00 -0.39534861046E+03  0.39534861046E+03  0.00000000000E+00 0. -1.
          2    1    1    2  501    0  0.51888408743E+02  0.55973079980E+01  0.69480248687E+02  0.86897881310E+02  0.00000000000E+00 0.  1.
          2    1    1    2  502    0 -0.51888408743E+02 -0.55973079980E+01 -0.38487863502E+03  0.38840095328E+03  0.00000000000E+00 0. -1.
</event>
<event>
 4    1  0.8931296E+003  0.3306103E+02  0.7546771E-02  0.1394732E+00
          2   -1    0    0  501    0  0.00000000000E+00  0.00000000000E+00  0.14150923617E+04  0.14150923617E+04  0.00000000000E+00 0.  1.
          2   -1    0    0  502    0 -0.00000000000E+00 -0.00000000000E+00 -0.73534146425E+02  0.73534146425E+02  0.00000000000E+00 0.  1.
          2    1    1    2  501    0 -0.22902033366E+02 -0.23843838690E+02 -0.69614655264E+02  0.77066412939E+02  0.00000000000E+00 0.  1.
          2    1    1    2  502    0  0.22902033366E+02  0.23843838690E+02  0.14111728705E+04  0.14115600952E+04  0.00000000000E+00 0.  1.
</event>
<event>
 4    1  0.8931296E+003  0.2178405E+02  0.7546771E-02  0.1508359E+00
          2   -1    0    0  501    0  0.00000000000E+00  0.00000000000E+00  0.29023247978E+01  0.29023247978E+01  0.00000000000E+00 0. -1.
          2   -1    0    0  502    0 -0.00000000000E+00 -0.00000000000E+00 -0.63539438763E+03  0.63539438763E+03  0.00000000000E+00 0.  1.
          2    1    1    2  501    0 -0.16979325527E+02 -0.13647250358E+02 -0.59128294070E+03  0.59168408876E+03  0.00000000000E+00 0.  1.
          2    1    1    2  502    0  0.16979325527E+02  0.13647250358E+02 -0.41209122140E+02  0.46612623668E+02  0.00000000000E+00 0. -1.
</event>
<event>
 4    1  0.1548671E+004  0.3717729E+02  0.7546771E-02  0.1365871E+00
          2   -1    0    0  502    0  0.00000000000E+00  0.00000000000E+00  0.12637693731E+04  0.12637693731E+04  0.00000000000E+00 0. -1.
          2   -1    0    0  501    0 -0.00000000000E+00 -0.00000000000E+00 -0.10214359424E+04  0.10214359424E+04  0.00000000000E+00 0. -1.
          2    1    1    2  501    0 -0.15830297175E+02 -0.33638553038E+02  0.12631575048E+04  0.12637044878E+04  0.00000000000E+00 0. -1.
          2    1    1    2  502    0  0.15830297175E+02  0.33638553038E+02 -0.10208240742E+04  0.10215008277E+04  0.00000000000E+00 0. -1.
</event>
<event>
 4    1  0.8931296E+003  0.2818014E+02  0.7546771E-02  0.1436100E+00
          2   -1    0    0  502    0  0.00000000000E+00  0.00000000000E+00  0.65093715256E+03  0.65093715256E+03  0.00000000000E+00 0. -1.
          2   -1    0    0  501    0 -0.00000000000E+00 -0.00000000000E+00 -0.73288913923E+01  0.73288913923E+01  0.00000000000E+00 0.  1.
          2    1    1    2  501    0 -0.13673857099E+02  0.24640333111E+02  0.62229741404E+03  0.62293514262E+03  0.00000000000E+00 0. -1.
          2    1    1    2  502    0  0.13673857099E+02 -0.24640333111E+02  0.21310847119E+02  0.35330901329E+02  0.00000000000E+00 0.  1.
</event>
<event>
 4    1  0.8931296E+003  0.2058850E+02  0.7546771E-02  0.1525222E+00
          2   -1    0    0  501    0  0.00000000000E+00  0.00000000000E+00  0.43488177713E+00  0.43488177713E+00  0.00000000000E+00 0.  1.
          2   -1    0    0  502    0 -0.00000000000E+00 -0.00000000000E+00 -0.14975464902E+04  0.14975464902E+04  0.00000000000E+00 0.  1.
          2    1    1    2  501    0  0.40571501321E+01 -0.20184790802E+02 -0.11911102357E+04  0.11912881599E+04  0.00000000000E+00 0.  1.
          2    1    1    2  502    0 -0.40571501321E+01  0.20184790802E+02 -0.30600137271E+03  0.30669321210E+03  0.00000000000E+00 0.  1.
</event>
<event>
 4    1  0.8931296E+003  0.2100843E+02  0.7546771E-02  0.1519144E+00
          2   -1    0    0  501    0  0.00000000000E+00  0.00000000000E+00  0.21160931574E+04  0.21160931574E+04  0.00000000000E+00 0. -1.
          2   -1    0    0  502    0 -0.00000000000E+00 -0.00000000000E+00 -0.24187579115E+00  0.24187579115E+00  0.00000000000E+00 0.  1.
          2    1    1    2  501    0 -0.11269665517E+02  0.17729889179E+02  0.14505847653E+04  0.14507368872E+04  0.00000000000E+00 0. -1.
          2    1    1    2  502    0  0.11269665517E+02 -0.17729889179E+02  0.66526651623E+03  0.66559814599E+03  0.00000000000E+00 0.  1.
</event>
<event>
 4    1  0.8931296E+003  0.5583967E+02  0.7546771E-02  0.1274663E+00
          2   -1    0    0  502    0  0.00000000000E+00  0.00000000000E+00  0.50449212670E+03  0.50449212670E+03  0.00000000000E+00 0. -1.
          2   -1    0    0  501    0 -0.00000000000E+00 -0.00000000000E+00 -0.59077972295E+03  0.59077972295E+03  0.00000000000E+00 0.  1.
          2    1    1    2  501    0 -0.45791586603E+02  0.31956215738E+02  0.50161997050E+03  0.50471840062E+03  0.00000000000E+00 0. -1.
          2    1    1    2  502    0  0.45791586603E+02 -0.31956215738E+02 -0.58790756674E+03  0.59055344903E+03  0.00000000000E+00 0.  1.
</event>
<event>
 4    1  0.8931296E+003  0.2265005E+02  0.7546771E-02  0.1496940E+00
          2   -1    0    0  501    0  0.00000000000E+00  0.00000000000E+00  0.15458442440E+04  0.15458442440E+04  0.00000000000E+00 0. -1.
          2   -1    0    0  502    0 -0.00000000000E+00 -0.00000000000E+00 -0.26278332799E+01  0.26278332799E+01  0.00000000000E+00 0. -1.
          2    1    1    2  501    0  0.22636380208E+02 -0.78671744604E+00  0.47911454201E+02  0.52995585447E+02  0.00000000000E+00 0. -1.
          2    1    1    2  502    0 -0.22636380208E+02  0.78671744604E+00  0.14953049565E+04  0.14954764919E+04  0.00000000000E+00 0. -1.
</event>
<event>
 4    1  0.8931296E+003  0.2357918E+02  0.7546771E-02  0.1485351E+00
          2   -1    0    0  502    0  0.00000000000E+00  0.00000000000E+00  0.17453272048E+04  0.17453272048E+04  0.00000000000E+00 0. -1.
          2   -1    0    0  501    0 -0.00000000000E+00 -0.00000000000E+00 -0.26378219421E+01  0.26378219421E+01  0.00000000000E+00 0.  1.
          2    1    1    2  501    0  0.13825782640E+02 -0.19100404954E+02  0.16908573018E+04  0.16910217009E+04  0.00000000000E+00 0. -1.
          2    1    1    2  502    0 -0.13825782640E+02  0.19100404954E+02  0.51832081009E+02  0.56943325832E+02  0.00000000000E+00 0.  1.
</event>
<event>
 4    1  0.1807591E+004  0.2088372E+02  0.7546771E-02  0.1520931E+00
          2   -1    0    0  502    0  0.00000000000E+00  0.00000000000E+00  0.12617473400E+04  0.12617473400E+04  0.00000000000E+00 0. -1.
          2   -1    0    0  501    0 -0.00000000000E+00 -0.00000000000E+00 -0.87388509118E+03  0.87388509118E+03  0.00000000000E+00 0. -1.
          2    1    1    2  501    0 -0.17101516242E+02 -0.11986163309E+02  0.12615361377E+04  0.12617089825E+04  0.00000000000E+00 0. -1.
          2    1    1    2  502    0  0.17101516242E+02  0.11986163309E+02 -0.87367388886E+03  0.87392344862E+03  0.00000000000E+00 0. -1.
</event>
<event>
 4    1  0.8931296E+003  0.2031008E+02  0.7546771E-02  0.1529347E+00
          2   -1    0    0  501    0  0.00000000000E+00  0.00000000000E+00  0.14003606142E+03  0.14003606142E+03  0.00000000000E+00 0.  1.
          2   -1    0    0  502    0 -0.00000000000E+00 -0.00000000000E+00 -0.37668491436E+01  0.37668491436E+01  0.00000000000E+00 0.  1.
          2    1    1    2  501    0 -0.11077574441E+02 -0.17023117672E+02  0.10170597867E+03  0.10371405540E+03  0.00000000000E+00 0.  1.
          2    1    1    2  502    0  0.11077574441E+02  0.17023117672E+02  0.34563233604E+02  0.40088855159E+02  0.00000000000E+00 0.  1.
</event>
<event>
 4    1  0.8931296E+003  0.2156873E+02  0.7546771E-02  0.1511298E+00
          2   -1    0    0  501    0  0.00000000000E+00  0.00000000000E+00  0.15924249581E+02  0.15924249581E+02  0.00000000000E+00 0. -1.
          2   -1    0    0  502    0 -0.00000000000E+00 -0.00000000000E+00 -0.87024459286E+03  0.87024459286E+03  0.00000000000E+00 0. -1.
          2    1    1    2  501    0  0.21325330491E+02  0.32311315298E+01 -0.86274398077E+03  0.86301354930E+03  0.00000000000E+00 0. -1.
          2    1    1    2  502    0 -0.21325330491E+02 -0.32311315298E+01  0.84236374912E+01  0.23155293134E+02  0.00000000000E+00 0. -1.
</event>
<event>
 4    1  0.9333513E+003  0.2166535E+02  0.7546771E-02  0.1509974E+00
          2   -1    0    0  502    0  0.00000000000E+00  0.00000000000E+00  0.15824048774E+04  0.15824048774E+04  0.00000000000E+00 0.  1.
          2   -1    0    0  501    0 -0.00000000000E+00 -0.00000000000E+00 -0.44294605040E+03  0.44294605040E+03  0.00000000000E+00 0.  1.
          2    1    1    2  501    0  0.21519587845E+02  0.25089330771E+01  0.15820657398E+04  0.15822140792E+04  0.00000000000E+00 0.  1.
          2    1    1    2  502    0 -0.21519587845E+02 -0.25089330771E+01 -0.44260691275E+03  0.44313684864E+03  0.00000000000E+00 0.  1.
</event>
<event>
 4    1  0.8931296E+003  0.5381856E+02  0.7546771E-02  0.1282414E+00
          2   -1    0    0  502    0  0.00000000000E+00  0.00000000000E+00  0.30485954538E+03  0.30485954538E+03  0.00000000000E+00 0.  1.
          2   -1    0    0  501    0 -0.00000000000E+00 -0.00000000000E+00 -0.15429915078E+04  0.15429915078E+04  0.00000000000E+00 0. -1.
          2    1    1    2  501    0  0.49033519164E+02 -0.22184474354E+02  0.30201064151E+03  0.30676842160E+03  0.00000000000E+00 0.  1.
          2    1    1    2  502    0 -0.49033519164E+02  0.22184474354E+02 -0.15401426040E+04  0.15410826316E+04  0.00000000000E+00 0. -1.
</event>
<event>
 4    1  0.8931296E+003  0.2128571E+02  0.7546771E-02  0.1515224E+00
          2   -1    0    0  501    0  0.00000000000E+00  0.00000000000E+00  0.59548232923E+03  0.59548232923E+03  0.00000000000E+00 0. -1.
          2   -1    0    0  502    0 -0.00000000000E+00 -0.00000000000E+00 -0.24592613058E+03  0.24592613058E+03  0.00000000000E+00 0. -1.
          2    1    1    2  501    0 -0.94651880021E+01 -0.19065460792E+02 -0.24527482314E+03  0.24619671087E+03  0.00000000000E+00 0. -1.
          2    1    1    2  502    0  0.94651880021E+01  0.19065460792E+02  0.59483102180E+03  0.59521174894E+03  0.00000000000E+00 0. -1.
</event>
<event>
 4    1  0.8931296E+003  0.2201148E+02  0.7546771E-02  0.1505299E+00
          2   -1    0    0  501    0  0.00000000000E+00  0.00000000000E+00  0.87900988079E+01  0.87900988079E+01  0.00000000000E+00 0. -1.
          2   -1    0    0  502    0 -0.00000000000E+00 -0.00000000000E+00 -0.11267979984E+04  0.11267979984E+04  0.00000000000E+00 0. -1.
          2    1    1    2  501    0 -0.19758548708E+02  0.97007836810E+01 -0.11127365218E+04  0.11129542095E+04  0.00000000000E+00 0. -1.
          2    1    1    2  502    0  0.19758548708E+02 -0.97007836810E+01 -0.52713778263E+01  0.22633887762E+02  0.00000000000E+00 0. -1.
</event>
<event>
 4    1  0.8931296E+003  0.2095941E+02  0.7546771E-02  0.1519845E+00
          2   -1    0    0  502    0  0.00000000000E+00  0.00000000000E+00  0.28937789689E+01  0.28937789689E+01  0.00000000000E+00 0. -1.
          2   -1    0    0  501    0 -0.00000000000E+00 -0.00000000000E+00 -0.33777336794E+03  0.33777336794E+03  0.00000000000E+00 0.  1.
          2    1    1    2  501    0  0.16774616448E+02  0.12566192211E+02 -0.41052231300E+02  0.46093195141E+02  0.00000000000E+00 0. -1.
          2    1    1    2  502    0 -0.16774616448E+02 -0.12566192211E+02 -0.29382735767E+03  0.29457395177E+03  0.00000000000E+00 0.  1.
</event>
<event>
 4    1  0.8931296E+003  0.2324935E+02  0.7546771E-02  0.1489391E+00
          2   -1    0    0  501    0  0.00000000000E+00  0.00000000000E+00  0.16722223825E+04  0.16722223825E+04  0.00000000000E+00 0.  1.
          2   -1    0    0  502    0 -0.00000000000E+00 -0.00000000000E+00 -0.14333599250E+01  0.14333599250E+01  0.00000000000E+00 0.  1.
          2    1    1    2  501    0 -0.14791264094E+02  0.17937412568E+02  0.98944804677E+02  0.10163959187E+03  0.00000000000E+00 0.  1.
          2    1    1    2  502    0  0.14791264094E+02 -0.17937412568E+02  0.15718442179E+04  0.15720161505E+04  0.00000000000E+00 0.  1.
</event>
<event>
 4    1  0.8931296E+003  0.2824688E+02  0.7546771E-02  0.1435470E+00
          2   -1    0    0  502    0  0.00000000000E+00  0.00000000000E+00  0.34119460052E+02  0.34119460052E+02  0.00000000000E+00 0. -1.
          2   -1    0    0  501    0 -0.00000000000E+00 -0.00000000000E+00 -0.23805308074E+03  0.23805308074E+03  0.00000000000E+00 0. -1.
          2    1    1    2  501    0 -0.22735179658E+02 -0.16762996983E+02  0.27262509888E+02  0.39257240190E+02  0.00000000000E+00 0. -1.
          2    1    1    2  502    0  0.22735179658E+02  0.16762996983E+02 -0.23119613058E+03  0.23291530060E+03  0.00000000000E+00 0. -1.
</event>
<event>
 4    1  0.8931296E+003  0.2086083E+02  0.7546771E-02  0.1521261E+00
          2   -1    0    0  502    0  0.00000000000E+00  0.00000000000E+00  0.93149568583E+02  0.93149568583E+02  0.00000000000E+00 0.  1.
          2   -1    0    0  501    0 -0.00000000000E+00 -0.00000000000E+00 -0.38667641385E+03  0.38667641385E+03  0.00000000000E+00 0. -1.
          2    1    1    2  501    0 -0.79619042266E+01 -0.19281653044E+02  0.91695864535E+02  0.94038851736E+02  0.00000000000E+00 0.  1.
          2    1    1    2  502    0  0.79619042266E+01  0.19281653044E+02 -0.38522270980E+03  0.38578713070E+03  0.00000000000E+00 0. -1.
</event>
<event>
 4    1  0.8931296E+003  0.2078699E+02  0.7546771E-02  0.1522328E+00
          2   -1    0    0  502    0  0.00000000000E+00  0.00000000000E+00  0.37720167964E+03  0.37720167964E+03  0.00000000000E+00 0.  1.
          2   -1    0    0  501    0 -0.00000000000E+00 -0.00000000000E+00 -0.38133548451E+03  0.38133548451E+03  0.00000000000E+00 0. -1.
          2    1    1    2  501    0 -0.33887084774E+01 -0.20508912301E+02  0.37663158672E+03  0.37720478648E+03  0.00000000000E+00 0.  1.
          2    1    1    2  502    0  0.33887084774E+01  0.20508912301E+02 -0.38076539159E+03  0.38133237767E+03  0.00000000000E+00 0. -1.
</event>
<event>
 4    1  0.8931296E+003  0.2696745E+02  0.7546771E-02  0.1447935E+00
          2   -1    0    0  502    0  0.00000000000E+00  0.00000000000E+00  0.10089778352E+04  0.10089778352E+04  0.00000000000E+00 0. -1.
          2   -1    0    0  501    0 -0.00000000000E+00 -0.00000000000E+00 -0.32651364792E+01  0.32651364792E+01  0.00000000000E+00 0. -1.
          2    1    1    2  501    0 -0.21579679353E+02 -0.16172841503E+02  0.94963635958E+03  0.95001918865E+03  0.00000000000E+00 0. -1.
          2    1    1    2  502    0  0.21579679353E+02  0.16172841503E+02  0.56076339141E+02  0.62223783031E+02  0.00000000000E+00 0. -1.
</event>
<event>
 4    1  0.8931296E+003  0.2800064E+02  0.7546771E-02  0.1437807E+00
          2   -1    0    0  501    0  0.00000000000E+00  0.00000000000E+00  0.12474635710E+04  0.12474635710E+04  0.00000000000E+00 0. -1.
          2   -1    0    0  502    0 -0.00000000000E+00 -0.00000000000E+00 -0.32668143695E+03  0.32668143695E+03  0.00000000000E+00 0.  1.
          2    1    1    2  501    0  0.20312269430E+02  0.19272974171E+02 -0.32592394616E+03  0.32712452446E+03  0.00000000000E+00 0.  1.
          2    1    1    2  502    0 -0.20312269430E+02 -0.19272974171E+02  0.12467060802E+04  0.12470204835E+04  0.00000000000E+00 0. -1.
</event>
<event>
 4    1  0.8931296E+003  0.4317161E+02  0.7546771E-02  0.1330840E+00
          2   -1    0    0  501    0  0.00000000000E+00  0.00000000000E+00  0.30553517919E+02  0.30553517919E+02  0.00000000000E+00 0.  1.
          2   -1    0    0  502    0 -0.00000000000E+00 -0.00000000000E+00 -0.64789295458E+03  0.64789295458E+03  0.00000000000E+00 0.  1.
          2    1    1    2  501    0 -0.41174731955E+02  0.12978020280E+02 -0.63152889452E+03  0.63300279003E+03  0.00000000000E+00 0.  1.
          2    1    1    2  502    0  0.41174731955E+02 -0.12978020280E+02  0.14189457865E+02  0.45443682471E+02  0.00000000000E+00 0.  1.
</event>
<event>
 4    1  0.8931296E+003  0.2053632E+02  0.7546771E-02  0.1525989E+00
          2   -1    0    0  501    0  0.00000000000E+00  0.00000000000E+00  0.62640961828E+03  0.62640961828E+03  0.00000000000E+00 0. -1.
          2   -1    0    0  502    0 -0.00000000000E+00 -0.00000000000E+00 -0.74557521056E+02  0.74557521056E+02  0.00000000000E+00 0. -1.
          2    1    1    2  501    0  0.20916984996E+01  0.20429513962E+02 -0.72971472028E+02  0.75806173715E+02  0.00000000000E+00 0. -1.
          2    1    1    2  502    0 -0.20916984996E+01 -0.20429513962E+02  0.62482356926E+03  0.62516096563E+03  0.00000000000E+00 0. -1.
</event>
<event>
 4    1  0.8931296E+003  0.2650751E+02  0.7546771E-02  0.1452619E+00
          2   -1    0    0  502    0  0.00000000000E+00  0.00000000000E+00  0.34763852612E+02  0.34763852612E+02  0.00000000000E+00 0. -1.
          2   -1    0    0  501    0 -0.00000000000E+00 -0.00000000000E+00 -0.16959275501E+03  0.16959275501E+03  0.00000000000E+00 0. -1.
          2    1    1    2  501    0  0.26260879408E+02  0.36075004313E+01  0.28481954701E+02  0.38908477100E+02  0.00000000000E+00 0. -1.
          2    1    1    2  502    0 -0.26260879408E+02 -0.36075004313E+01 -0.16331085710E+03  0.16544813052E+03  0.00000000000E+00 0. -1.
</event>
<event>
 4    1  0.8931296E+003  0.2428225E+02  0.7546771E-02  0.1476995E+00
          2   -1    0    0  501    0  0.00000000000E+00  0.00000000000E+00  0.12806069955E+04  0.12806069955E+04  0.00000000000E+00 0. -1.
          2   -1    0    0  502    0 -0.00000000000E+00 -0.00000000000E+00 -0.29384134170E+01  0.29384134170E+01  0.00000000000E+00 0. -1.
          2    1    1    2  501    0  0.13155896994E+02 -0.20409558837E+02  0.49483136671E+02  0.55119946775E+02  0.00000000000E+00 0. -1.
          2    1    1    2  502    0 -0.13155896994E+02  0.20409558837E+02  0.12281854454E+04  0.12284254621E+04  0.00000000000E+00 0. -1.
</event>
<event>
 4    1  0.8931296E+003  0.2400166E+02  0.7546771E-02  0.1480289E+00
          2   -1    0    0  502    0  0.00000000000E+00  0.00000000000E+00  0.70189290893E+01  0.70189290893E+01  0.00000000000E+00 0.  1.
          2   -1    0    0  501    0 -0.00000000000E+00 -0.00000000000E+00 -0.10531225677E+04  0.10531225677E+04  0.00000000000E+00 0. -1.
          2    1    1    2  501    0 -0.23593496764E+02  0.44075708402E+01 -0.14055555912E+02  0.27814356406E+02  0.00000000000E+00 0.  1.
          2    1    1    2  502    0  0.23593496764E+02 -0.44075708402E+01 -0.10320480827E+04  0.10323271404E+04  0.00000000000E+00 0. -1.
</event>
<event>
 4    1  0.8931296E+003  0.2583975E+02  0.7546771E-02  0.1459625E+00
          2   -1    0    0  501    0  0.00000000000E+00  0.00000000000E+00  0.70966153895E+03  0.70966153895E+03  0.00000000000E+00 0. -1.
          2   -1    0    0  502    0 -0.00000000000E+00 -0.00000000000E+00 -0.12279828209E+01  0.12279828209E+01  0.00000000000E+00 0.  1.
          2    1    1    2  501    0  0.12934105679E+02 -0.22369653720E+02  0.18234306333E+03  0.18416483172E+03  0.00000000000E+00 0.  1.
          2    1    1    2  502    0 -0.12934105679E+02  0.22369653720E+02  0.52609049280E+03  0.52672469005E+03  0.00000000000E+00 0. -1.
</event>
<event>
 4    1  0.8931296E+003  0.4285278E+02  0.7546771E-02  0.1332533E+00
          2   -1    0    0  501    0  0.00000000000E+00  0.00000000000E+00  0.71967808360E+03  0.71967808360E+03  0.00000000000E+00 0.  1.
          2   -1    0    0  502    0 -0.00000000000E+00 -0.00000000000E+00 -0.15218308795E+03  0.15218308795E+03  0.00000000000E+00 0.  1.
          2    1    1    2  501    0 -0.20574499460E+02  0.37590561834E+02 -0.14851303284E+03  0.15457192918E+03  0.00000000000E+00 0.  1.
          2    1    1    2  502    0  0.20574499460E+02 -0.37590561834E+02  0.71600802849E+03  0.71728924237E+03  0.00000000000E+00 0.  1.
</event>
<event>
 4    1  0.8931296E+003  0.2170279E+02  0.7546771E-02  0.1509463E+00
          2   -1    0    0  502    0  0.00000000000E+00  0.00000000000E+00  0.87410027310E+03  0.87410027310E+03  0.00000000000E+00 0. -1.
          2   -1    0    0  501    0 -0.00000000000E+00 -0.00000000000E+00 -0.16358697721E+01  0.16358697721E+01  0.00000000000E+00 0.  1.
          2    1    1    2  501    0 -0.13656789416E+02  0.16867224512E+02  0.79480359410E+03  0.79509984552E+03  0.00000000000E+00 0. -1.
          2    1    1    2  502    0  0.13656789416E+02 -0.16867224512E+02  0.77660809229E+02  0.80636297348E+02  0.00000000000E+00 0.  1.
</event>
<event>
 4    1  0.8931296E+003  0.2694376E+02  0.7546771E-02  0.1448174E+00
          2   -1    0    0  501    0  0.00000000000E+00  0.00000000000E+00  0.51768538999E+01  0.51768538999E+01  0.00000000000E+00 0. -1.
          2   -1    0    0  502    0 -0.00000000000E+00 -0.00000000000E+00 -0.61527846772E+03  0.61527846772E+03  0.00000000000E+00 0.  1.
          2    1    1    2  501    0  0.18620551146E+02 -0.19474114878E+02 -0.57764225127E+03  0.57827029712E+03  0.00000000000E+00 0.  1.
          2    1    1    2  502    0 -0.18620551146E+02  0.19474114878E+02 -0.32459362555E+02  0.42185024508E+02  0.00000000000E+00 0. -1.
</event>
<event>
 4    1  0.8931296E+003  0.2548973E+02  0.7546771E-02  0.1463399E+00
          2   -1    0    0  502    0  0.00000000000E+00  0.00000000000E+00  0.10265058194E+04  0.10265058194E+04  0.00000000000E+00 0.  1.
          2   -1    0    0  501    0 -0.00000000000E+00 -0.00000000000E+00 -0.20880707622E+01  0.20880707622E+01  0.00000000000E+00 0. -1.
          2    1    1    2  501    0  0.21929216032E+01 -0.25395223870E+02  0.94153857955E+03  0.94188355070E+03  0.00000000000E+00 0.  1.
          2    1    1    2  502    0 -0.21929216032E+01  0.25395223870E+02  0.82879169065E+02  0.86710339438E+02  0.00000000000E+00 0. -1.
</event>
<event>
 4    1  0.8931296E+003  0.2096316E+02  0.7546771E-02  0.1519791E+00
          2   -1    0    0  501    0  0.00000000000E+00  0.00000000000E+00  0.37745063738E+01  0.37745063738E+01  0.00000000000E+00 0. -1.
          2   -1    0    0  502    0 -0.00000000000E+00 -0.00000000000E+00 -0.75285402427E+03  0.75285402427E+03  0.00000000000E+00 0. -1.
          2    1    1    2  501    0 -0.19179764523E+02 -0.84611171576E+01 -0.72237348473E+03  0.72267759431E+03  0.00000000000E+00 0. -1.
          2    1    1    2  502    0  0.19179764523E+02  0.84611171576E+01 -0.26706033164E+02  0.33950936336E+02  0.00000000000E+00 0. -1.
</event>
<event>
 4    1  0.8931296E+003  0.3326780E+02  0.7546771E-02  0.1393168E+00
          2   -1    0    0  501    0  0.00000000000E+00  0.00000000000E+00  0.40837185922E+02  0.40837185922E+02  0.00000000000E+00 0.  1.
          2   -1    0    0  502    0 -0.00000000000E+00 -0.00000000000E+00 -0.68171738357E+03  0.68171738357E+03  0.00000000000E+00 0. -1.
          2    1    1    2  501    0  0.23732355013E+01  0.33183043205E+02 -0.67446332937E+03  0.67528329556E+03  0.00000000000E+00 0. -1.
          2    1    1    2  502    0 -0.23732355013E+01 -0.33183043205E+02  0.33583131718E+02  0.47271273931E+02  0.00000000000E+00 0.  1.
</event>
<event>
 4    1  0.8931296E+003  0.2958852E+02  0.7546771E-02  0.1423206E+00
          2   -1    0    0  501    0  0.00000000000E+00  0.00000000000E+00  0.37098254768E+03  0.37098254768E+03  0.00000000000E+00 0. -1.
          2   -1    0    0  502    0 -0.00000000000E+00 -0.00000000000E+00 -0.81769259378E+01  0.81769259378E+01  0.00000000000E+00 0.  1.
          2    1    1    2  501    0 -0.87305299901E+01 -0.28271156860E+02  0.21503162073E+02  0.36576856662E+02  0.00000000000E+00 0.  1.
          2    1    1    2  502    0  0.87305299901E+01  0.28271156860E+02  0.34130245966E+03  0.34258261695E+03  0.00000000000E+00 0. -1.
</event>
<event>
 4    1  0.8931296E+003  0.4274666E+02  0.7546771E-02  0.1333101E+00
          2   -1    0    0  502    0  0.00000000000E+00  0.00000000000E+00  0.17162659014E+04  0.17162659014E+04  0.00000000000E+00 0.  1.
          2   -1    0    0  501    0 -0.00000000000E+00 -0.00000000000E+00 -0.17584092201E+02  0.17584092201E+02  0.00000000000E+00 0. -1.
          2    1    1    2  501    0  0.41882424814E+02 -0.85521654883E+01  0.16896108324E+04  0.16901514849E+04  0.00000000000E+00 0.  1.
          2    1    1    2  502    0 -0.41882424814E+02  0.85521654883E+01  0.90709768398E+01  0.43698508713E+02  0.00000000000E+00 0. -1.
</event>
<event>
 4    1  0.8931296E+003  0.3586817E+02  0.7546771E-02  0.1374560E+00
          2   -1    0    0  502    0  0.00000000000E+00  0.00000000000E+00  0.16472812748E+03  0.16472812748E+03  0.00000000000E+00 0. -1.
          2   -1    0    0  501    0 -0.00000000000E+00 -0.00000000000E+00 -0.11967281650E+04  0.11967281650E+04  0.00000000000E+00 0. -1.
          2    1    1    2  501    0 -0.35569692202E+02  0.46176074141E+01  0.16250323476E+03  0.16641462258E+03  0.00000000000E+00 0. -1.
          2    1    1    2  502    0  0.35569692202E+02 -0.46176074141E+01 -0.11945032723E+04  0.11950416699E+04  0.00000000000E+00 0. -1.
</event>
<event>
 4    1  0.8931296E+003  0.5882471E+02  0.7546771E-02  0.1263879E+00
          2   -1    0    0  502    0  0.00000000000E+00  0.00000000000E+00  0.62618568685E+03  0.62618568685E+03  0.00000000000E+00 0. -1.
          2   -1    0    0  501    0 -0.00000000000E+00 -0.00000000000E+00 -0.51037346971E+03  0.51037346971E+03  0.00000000000E+00 0.  1.
          2    1    1    2  501    0 -0.56872857065E+02 -0.15027446002E+02  0.62310078936E+03  0.62587134438E+03  0.00000000000E+00 0. -1.
          2    1    1    2  502    0  0.56872857065E+02  0.15027446002E+02 -0.50728857222E+03  0.51068781218E+03  0.00000000000E+00 0.  1.
</event>
<event>
 4    1  0.8931296E+003  0.2066191E+02  0.7546771E-02  0.1524147E+00
          2   -1    0    0  501    0  0.00000000000E+00  0.00000000000E+00  0.13816442214E+03  0.13816442214E+03  0.00000000000E+00 0.  1.
          2   -1    0    0  502    0 -0.00000000000E+00 -0.00000000000E+00 -0.27714482106E+03  0.27714482106E+03  0.00000000000E+00 0. -1.
          2    1    1    2  501    0  0.20293896037E+02 -0.38822917903E+01 -0.27598400072E+03  0.27675636047E+03  0.00000000000E+00 0. -1.
          2    1    1    2  502    0 -0.20293896037E+02  0.38822917903E+01  0.13700360180E+03  0.13855288273E+03  0.00000000000E+00 0.  1.
</event>
<event>
 4    1  0.1188906E+004  0.2495892E+02  0.7546771E-02  0.1469264E+00
          2   -1    0    0  502    0  0.00000000000E+00  0.00000000000E+00  0.46652954165E+03  0.46652954165E+03  0.00000000000E+00 0.  1.
          2   -1    0    0  501    0 -0.00000000000E+00 -0.00000000000E+00 -0.14930306821E+04  0.14930306821E+04  0.00000000000E+00 0.  1.
          2    1    1    2  501    0  0.20815274697E+01 -0.24871970866E+02  0.46609131432E+03  0.46675910380E+03  0.00000000000E+00 0.  1.
          2    1    1    2  502    0 -0.20815274697E+01  0.24871970866E+02 -0.14925924548E+04  0.14928011199E+04  0.00000000000E+00 0.  1.
</event>
<event>
 4    1  0.8931296E+003  0.2658486E+02  0.7546771E-02  0.1451823E+00
          2   -1    0    0  502    0  0.00000000000E+00  0.00000000000E+00  0.38306354412E+01  0.38306354412E+01  0.00000000000E+00 0. -1.
          2   -1    0    0  501    0 -0.00000000000E+00 -0.00000000000E+00 -0.14324346968E+04  0.14324346968E+04  0.00000000000E+00 0.  1.
          2    1    1    2  501    0  0.10182663418E+02  0.24557450793E+02 -0.44011522464E+02  0.51417595561E+02  0.00000000000E+00 0. -1.
          2    1    1    2  502    0 -0.10182663418E+02 -0.24557450793E+02 -0.13845925389E+04  0.13848477367E+04  0.00000000000E+00 0.  1.
</event>
<event>
 4    1  0.8931296E+003  0.3411456E+02  0.7546771E-02  0.1386897E+00
          2   -1    0    0  502    0  0.00000000000E+00  0.00000000000E+00  0.25431571202E+03  0.25431571202E+03  0.00000000000E+00 0.  1.
          2   -1    0    0  501    0 -0.00000000000E+00 -0.00000000000E+00 -0.75311834381E+01  0.75311834381E+01  0.00000000000E+00 0.  1.
          2    1    1    2  501    0  0.21721405270E+02  0.26305582989E+02  0.20540141438E+03  0.20821513916E+03  0.00000000000E+00 0.  1.
          2    1    1    2  502    0 -0.21721405270E+02 -0.26305582989E+02  0.41383114203E+02  0.53631756306E+02  0.00000000000E+00 0.  1.
</event>
<event>
 4    1  0.8931296E+003  0.2251727E+02  0.7546771E-02  0.1498650E+00
          2   -1    0    0  502    0  0.00000000000E+00  0.00000000000E+00  0.81454873810E+00  0.81454873810E+00  0.00000000000E+00 0. -1.
          2   -1    0    0  501    0 -0.00000000000E+00 -0.00000000000E+00 -0.17488062154E+04  0.17488062154E+04  0.00000000000E+00 0. -1.
          2    1    1    2  501    0 -0.18102201319E+02 -0.13391712106E+02 -0.17192945490E+03  0.17339770791E+03  0.00000000000E+00 0. -1.
          2    1    1    2  502    0  0.18102201319E+02  0.13391712106E+02 -0.15760622118E+04  0.15762230562E+04  0.00000000000E+00 0. -1.
</event>
<event>
 4    1  0.8931296E+003  0.2214545E+02  0.7546771E-02  0.1503517E+00
          2   -1    0    0  501    0  0.00000000000E+00  0.00000000000E+00  0.24647522012E+01  0.24647522012E+01  0.00000000000E+00 0.  1.
          2   -1    0    0  502    0 -0.00000000000E+00 -0.00000000000E+00 -0.26601152632E+03  0.26601152632E+03  0.00000000000E+00 0.  1.
          2    1    1    2  501    0  0.21346173783E+02 -0.58959225847E+01 -0.19916183132E+03  0.20038926143E+03  0.00000000000E+00 0.  1.
          2    1    1    2  502    0 -0.21346173783E+02  0.58959225847E+01 -0.64384942791E+02  0.68087017092E+02  0.00000000000E+00 0.  1.
</event>
<event>
 4    1  0.8931296E+003  0.4690263E+02  0.7546771E-02  0.1312191E+00
          2   -1    0    0  501    0  0.00000000000E+00  0.00000000000E+00  0.85147214332E+03  0.85147214332E+03  0.00000000000E+00 0. -1.
          2   -1    0    0  502    0 -0.00000000000E+00 -0.00000000000E+00 -0.48316351518E+02  0.48316351518E+02  0.00000000000E+00 0. -1.
          2    1    1    2  501    0 -0.37335463648E+02  0.28388734386E+02 -0.36122636749E+02  0.59200523406E+02  0.00000000000E+00 0. -1.
          2    1    1    2  502    0  0.37335463648E+02 -0.28388734386E+02  0.83927842855E+03  0.84058797143E+03  0.00000000000E+00 0. -1.
</event>
<event>
 4    1  0.8931296E+003  0.2322900E+02  0.7546771E-02  0.1489642E+00
          2   -1    0    0  502    0  0.00000000000E+00  0.00000000000E+00  0.19016103816E+03  0.19016103816E+03  0.00000000000E+00 0. -1.
          2   -1    0    0  501    0 -0.00000000000E+00 -0.00000000000E+00 -0.32615242323E+01  0.32615242323E+01  0.00000000000E+00 0.  1.
          2    1    1    2  501    0  0.11313730979E+02  0.20287585525E+02  0.12831956377E+03  0.13040512675E+03  0.00000000000E+00 0. -1.
          2    1    1    2  502    0 -0.11313730979E+02 -0.20287585525E+02  0.58579950151E+02  0.63017435642E+02  0.00000000000E+00 0.  1.
</event>
<event>
 4    1  0.8931296E+003  0.2331140E+02  0.7546771E-02  0.1488624E+00
          2   -1    0    0  501    0  0.00000000000E+00  0.00000000000E+00  0.59468662050E+03  0.59468662050E+03  0.00000000000E+00 0. -1.
          2   -1    0    0  502    0 -0.00000000000E+00 -0.00000000000E+00 -0.19436309649E+01  0.19436309649E+01  0.00000000000E+00 0.  1.
          2    1    1    2  501    0  0.21182111176E+02  0.97334352191E+01  0.79225201581E+02  0.82583619203E+02  0.00000000000E+00 0.  1.
          2    1    1    2  502    0 -0.21182111176E+02 -0.97334352191E+01  0.51351778796E+03  0.51404663226E+03  0.00000000000E+00 0. -1.
</event>
<event>
 4    1  0.8931296E+003  0.2562150E+02  0.7546771E-02  0.1461969E+00
          2   -1    0    0  501    0  0.00000000000E+00  0.00000000000E+00  0.70358560455E+00  0.70358560455E+00  0.00000000000E+00 0. -1.
          2   -1    0    0  502    0 -0.00000000000E+00 -0.00000000000E+00 -0.20473348841E+04  0.20473348841E+04  0.00000000000E+00 0. -1.
          2    1    1    2  501    0 -0.23333444243E+02  0.10583543430E+02 -0.17787856123E+04  0.17789701278E+04  0.00000000000E+00 0. -1.
          2    1    1    2  502    0  0.23333444243E+02 -0.10583543430E+02 -0.26784568613E+03  0.26906834185E+03  0.00000000000E+00 0. -1.
</event>
<event>
 4    1  0.8931296E+003  0.2447620E+02  0.7546771E-02  0.1474749E+00
          2   -1    0    0  501    0  0.00000000000E+00  0.00000000000E+00  0.57674984819E+00  0.57674984819E+00  0.00000000000E+00 0. -1.
          2   -1    0    0  502    0 -0.00000000000E+00 -0.00000000000E+00 -0.11477063046E+04  0.11477063046E+04  0.00000000000E+00 0. -1.
          2    1    1    2  501    0 -0.53535632241E+01  0.23883541225E+02 -0.75048628554E+03  0.75088531013E+03  0.00000000000E+00 0. -1.
          2    1    1    2  502    0  0.53535632241E+01 -0.23883541225E+02 -0.39664326920E+03  0.39739774431E+03  0.00000000000E+00 0. -1.
</event>
<event>
 4    1  0.8931296E+003  0.2535716E+02  0.7546771E-02  0.1464847E+00
          2   -1    0    0  502    0  0.00000000000E+00  0.00000000000E+00  0.18892913554E+01  0.18892913554E+01  0.00000000000E+00 0.  1.
          2   -1    0    0  501    0 -0.00000000000E+00 -0.00000000000E+00 -0.37424245173E+03  0.37424245173E+03  0.00000000000E+00 0.  1.
          2    1    1    2  501    0  0.19792422888E+02  0.15850734857E+02 -0.12956543116E+03  0.13202343258E+03  0.00000000000E+00 0.  1.
          2    1    1    2  502    0 -0.19792422888E+02 -0.15850734857E+02 -0.24278772922E+03  0.24410831051E+03  0.00000000000E+00 0.  1.
</event>
<event>
 4    1  0.8931296E+003  0.2033651E+02  0.7546771E-02  0.1528952E+00
          2   -1    0    0  502    0  0.00000000000E+00  0.00000000000E+00  0.51544360127E+03  0.51544360127E+03  0.00000000000E+00 0.  1.
          2   -1    0    0  501    0 -0.00000000000E+00 -0.00000000000E+00 -0.18019860736E+01  0.18019860736E+01  0.00000000000E+00 0. -1.
          2    1    1    2  501    0  0.14573454367E+02  0.14184080768E+02  0.44944412735E+03  0.44990398679E+03  0.00000000000E+00 0.  1.
          2    1    1    2  502    0 -0.14573454367E+02 -0.14184080768E+02  0.64197487842E+02  0.67341600550E+02  0.00000000000E+00 0. -1.
</event>
<event>
 4    1  0.8931296E+003  0.2071250E+02  0.7546771E-02  0.1523409E+00
          2   -1    0    0  501    0  0.00000000000E+00  0.00000000000E+00  0.14304286175E+04  0.14304286175E+04  0.00000000000E+00 0.  1.
          2   -1    0    0  502    0 -0.00000000000E+00 -0.00000000000E+00 -0.39857901608E+00  0.39857901608E+00  0.00000000000E+00 0. -1.
          2    1    1    2  501    0  0.11647639407E+01  0.20679724578E+02  0.35907377331E+03  0.35967065819E+03  0.00000000000E+00 0. -1.
          2    1    1    2  502    0 -0.11647639407E+01 -0.20679724578E+02  0.10709562652E+04  0.10711565384E+04  0.00000000000E+00 0.  1.
</event>
<event>
 4    1  0.8931296E+003  0.2116094E+02  0.7546771E-02  0.1516979E+00
          2   -1    0    0  502    0  0.00000000000E+00  0.00000000000E+00  0.72488187406E+01  0.72488187406E+01  0.00000000000E+00 0. -1.
          2   -1    0    0  501    0 -0.00000000000E+00 -0.00000000000E+00 -0.81595049520E+02  0.81595049520E+02  0.00000000000E+00 0.  1.
          2    1    1    2  501    0 -0.44135899336E+01 -0.20695543985E+02 -0.15278680704E+02  0.26100256723E+02  0.00000000000E+00 0. -1.
          2    1    1    2  502    0  0.44135899336E+01  0.20695543985E+02 -0.59067550075E+02  0.62743611538E+02  0.00000000000E+00 0.  1.
</event>
<event>
 4    1  0.8931296E+003  0.2132789E+02  0.7546771E-02  0.1514635E+00
          2   -1    0    0  501    0  0.00000000000E+00  0.00000000000E+00  0.72159450415E+03  0.72159450415E+03  0.00000000000E+00 0.  1.
          2   -1    0    0  502    0 -0.00000000000E+00 -0.00000000000E+00 -0.30677282468E+03  0.30677282468E+03  0.00000000000E+00 0. -1.
          2    1    1    2  501    0 -0.97445415909E+01  0.18971628286E+02 -0.30624426123E+03  0.30698603602E+03  0.00000000000E+00 0. -1.
          2    1    1    2  502    0  0.97445415909E+01 -0.18971628286E+02  0.72106594070E+03  0.72138129281E+03  0.00000000000E+00 0.  1.
</event>
<event>
 4    1  0.8931296E+003  0.3966376E+02  0.7546771E-02  0.1350467E+00
          2   -1    0    0  502    0  0.00000000000E+00  0.00000000000E+00  0.63114438903E+03  0.63114438903E+03  0.00000000000E+00 0. -1.
          2   -1    0    0  501    0 -0.00000000000E+00 -0.00000000000E+00 -0.43007426823E+01  0.43007426823E+01  0.00000000000E+00 0. -1.
          2    1    1    2  501    0  0.36833817177E+02  0.14713386242E+02  0.51943179542E+03  0.52094395467E+03  0.00000000000E+00 0. -1.
          2    1    1    2  502    0 -0.36833817177E+02 -0.14713386242E+02  0.10741185093E+03  0.11450117704E+03  0.00000000000E+00 0. -1.
</event>
<event>
 4    1  0.8931296E+003  0.2124387E+02  0.7546771E-02  0.1515811E+00
          2   -1    0    0  502    0  0.00000000000E+00  0.00000000000E+00  0.56863945572E+00  0.56863945572E+00  0.00000000000E+00 0.  1.
          2   -1    0    0  501    0 -0.00000000000E+00 -0.00000000000E+00 -0.98662975093E+03  0.98662975093E+03  0.00000000000E+00 0.  1.
          2    1    1    2  501    0  0.15653896372E+02  0.14361665446E+02 -0.27473201549E+03  0.27555214069E+03  0.00000000000E+00 0.  1.
          2    1    1    2  502    0 -0.15653896372E+02 -0.14361665446E+02 -0.71132909598E+03  0.71164624969E+03  0.00000000000E+00 0.  1.
</event>
<event>
 4    1  0.8931296E+003  0.2006915E+02  0.7546771E-02  0.1532981E+00
          2   -1    0    0  501    0  0.00000000000E+00  0.00000000000E+00  0.11098830676E+04  0.11098830676E+04  0.00000000000E+00 0.  1.
          2   -1    0    0  502    0 -0.00000000000E+00 -0.00000000000E+00 -0.60774915642E+00  0.60774915642E+00  0.00000000000E+00 0.  1.
          2    1    1    2  501    0  0.50280115390E+01  0.19429095653E+02  0.20220445389E+03  0.20319796217E+03  0.00000000000E+00 0.  1.
          2    1    1    2  502    0 -0.50280115390E+01 -0.19429095653E+02  0.90707086457E+03  0.90729285460E+03  0.00000000000E+00 0.  1.
</event>
<event>
 4    1  0.8931296E+003  0.2754152E+02  0.7546771E-02  0.1442243E+00
          2   -1    0    0  502    0  0.00000000000E+00  0.00000000000E+00  0.80531661253E+02  0.80531661253E+02  0.00000000000E+00 0.  1.
          2   -1    0    0  501    0 -0.00000000000E+00 -0.00000000000E+00 -0.17154263440E+03  0.17154263440E+03  0.00000000000E+00 0. -1.
          2    1    1    2  501    0  0.31700277141E+01 -0.27358475409E+02  0.77022576773E+02  0.81798609922E+02  0.00000000000E+00 0.  1.
          2    1    1    2  502    0 -0.31700277141E+01  0.27358475409E+02 -0.16803354992E+03  0.17027568573E+03  0.00000000000E+00 0. -1.
</event>
<event>
 4    1  0.8931296E+003  0.2048545E+02  0.7546771E-02  0.1526740E+00
          2   -1    0    0  502    0  0.00000000000E+00  0.00000000000E+00  0.39346141783E+02  0.39346141783E+02  0.00000000000E+00 0. -1.
          2   -1    0    0  501    0 -0.00000000000E+00 -0.00000000000E+00 -0.72475645633E+02  0.72475645633E+02  0.00000000000E+00 0.  1.
          2    1    1    2  501    0  0.29417491098E+01  0.20273132894E+02  0.35068514344E+02  0.40613476870E+02  0.00000000000E+00 0. -1.
          2    1    1    2  502    0 -0.29417491098E+01 -0.20273132894E+02 -0.68198018194E+02  0.71208310546E+02  0.00000000000E+00 0.  1.
</event>
<event>
 4    1  0.8931296E+003  0.2566631E+02  0.7546771E-02  0.1461486E+00
          2   -1    0    0  501    0  0.00000000000E+00  0.00000000000E+00  0.21189737206E+04  0.21189737206E+04  0.00000000000E+00 0. -1.
          2   -1    0    0  502    0 -0.00000000000E+00 -0.00000000000E+00 -0.32189368080E+00  0.32189368080E+00  0.00000000000E+00 0. -1.
          2    1    1    2  501    0 -0.13488114543E+01  0.25630842999E+02  0.86337291266E+03  0.86375433181E+03  0.00000000000E+00 0. -1.
          2    1    1    2  502    0  0.13488114543E+01 -0.25630842999E+02  0.12552789143E+04  0.12555412825E+04  0.00000000000E+00 0. -1.
</event>
<event>
 4    1  0.8931296E+003  0.2360283E+02  0.7546771E-02  0.1485064E+00
          2   -1    0    0  501    0  0.00000000000E+00  0.00000000000E+00  0.24426931279E+03  0.24426931279E+03  0.00000000000E+00 0. -1.
          2   -1    0    0  502    0 -0.00000000000E+00 -0.00000000000E+00 -0.35054121608E+03  0.35054121608E+03  0.00000000000E+00 0.  1.
          2    1    1    2  501    0  0.17791348383E+02  0.15510052648E+02 -0.34957216402E+03  0.35036808027E+03  0.00000000000E+00 0.  1.
          2    1    1    2  502    0 -0.17791348383E+02 -0.15510052648E+02  0.24330026073E+03  0.24444244861E+03  0.00000000000E+00 0. -1.
</event>
<event>
 4    1  0.8931296E+003  0.3817060E+02  0.7546771E-02  0.1359553E+00
          2   -1    0    0  502    0  0.00000000000E+00  0.00000000000E+00  0.17453177491E+03  0.17453177491E+03  0.00000000000E+00 0.  1.
          2   -1    0    0  501    0 -0.00000000000E+00 -0.00000000000E+00 -0.27683183827E+02  0.27683183827E+02  0.00000000000E+00 0.  1.
          2    1    1    2  501    0 -0.22497205623E+02  0.30836185143E+02  0.15792283539E+03  0.16247035580E+03  0.00000000000E+00 0.  1.
          2    1    1    2  502    0  0.22497205623E+02 -0.30836185143E+02 -0.11074244316E+02  0.39744602932E+02  0.00000000000E+00 0.  1.
</event>
<event>
 4    1  0.8931296E+003  0.2358996E+02  0.7546771E-02  0.1485220E+00
          2   -1    0    0  502    0  0.00000000000E+00  0.00000000000E+00  0.52603736995E+03  0.52603736995E+03  0.00000000000E+00 0.  1.
          2   -1    0    0  501    0 -0.00000000000E+00 -0.00000000000E+00 -0.12225004159E+01  0.12225004159E+01  0.00000000000E+00 0. -1.
          2    1    1    2  501    0  0.11404374844E+02  0.20650097770E+02  0.35914771066E+03  0.35992160865E+03  0.00000000000E+00 0.  1.
          2    1    1    2  502    0 -0.11404374844E+02 -0.20650097770E+02  0.16566715887E+03  0.16733826171E+03  0.00000000000E+00 0. -1.
</event>
<event>
 4    1  0.8931296E+003  0.2554447E+02  0.7546771E-02  0.1462804E+00
          2   -1    0    0  501    0  0.00000000000E+00  0.00000000000E+00  0.60327383833E+02  0.60327383833E+02  0.00000000000E+00 0.  1.
          2   -1    0    0  502    0 -0.00000000000E+00 -0.00000000000E+00 -0.17854641267E+02  0.17854641267E+02  0.00000000000E+00 0.  1.
          2    1    1    2  501    0  0.24269111716E+02  0.79705736487E+01 -0.33071083312E+01  0.25757655042E+02  0.00000000000E+00 0.  1.
          2    1    1    2  502    0 -0.24269111716E+02 -0.79705736487E+01  0.45779850897E+02  0.52424370058E+02  0.00000000000E+00 0.  1.
</event>
<event>
 4    1  0.8931296E+003  0.2446023E+02  0.7546771E-02  0.1474933E+00
          2   -1    0    0  502    0  0.00000000000E+00  0.00000000000E+00  0.15830176645E+03  0.15830176645E+03  0.00000000000E+00 0. -1.
          2   -1    0    0  501    0 -0.00000000000E+00 -0.00000000000E+00 -0.51106392632E+02  0.51106392632E+02  0.00000000000E+00 0.  1.
          2    1    1    2  501    0 -0.17986244693E+02 -0.16577028285E+02  0.15435578153E+03  0.15628182926E+03  0.00000000000E+00 0. -1.
          2    1    1    2  502    0  0.17986244693E+02  0.16577028285E+02 -0.47160407712E+02  0.53126329823E+02  0.00000000000E+00 0.  1.
</event>
<event>
 4    1  0.8931296E+003  0.2319897E+02  0.7546771E-02  0.1490015E+00
          2   -1    0    0  502    0  0.00000000000E+00  0.00000000000E+00  0.10597834163E+04  0.10597834163E+04  0.00000000000E+00 0. -1.
          2   -1    0    0  501    0 -0.00000000000E+00 -0.00000000000E+00 -0.23310454710E+02  0.23310454710E+02  0.00000000000E+00 0. -1.
          2    1    1    2  501    0  0.19864375128E+02  0.11983269479E+02  0.10538519714E+04  0.10541072857E+04  0.00000000000E+00 0. -1.
          2    1    1    2  502    0 -0.19864375128E+02 -0.11983269479E+02 -0.17379009801E+02  0.28986585316E+02  0.00000000000E+00 0. -1.
</event>
<event>
 4    1  0.8931296E+003  0.2529623E+02  0.7546771E-02  0.1465517E+00
          2   -1    0    0  502    0  0.00000000000E+00  0.00000000000E+00  0.88715729884E+02  0.88715729884E+02  0.00000000000E+00 0.  1.
          2   -1    0    0  501    0 -0.00000000000E+00 -0.00000000000E+00 -0.12901778979E+02  0.12901778979E+02  0.00000000000E+00 0.  1.
          2    1    1    2  501    0  0.16598757641E+01  0.25241710595E+02  0.71645529959E+02  0.75980136249E+02  0.00000000000E+00 0.  1.
          2    1    1    2  502    0 -0.16598757641E+01 -0.25241710595E+02  0.41684209453E+01  0.25637372613E+02  0.00000000000E+00 0.  1.
</event>
<event>
 4    1  0.8931296E+003  0.3374536E+02  0.7546771E-02  0.1389605E+00
          2   -1    0    0  502    0  0.00000000000E+00  0.00000000000E+00  0.11253326832E+04  0.11253326832E+04  0.00000000000E+00 0.  1.
          2   -1    0    0  501    0 -0.00000000000E+00 -0.00000000000E+00 -0.92600048198E+01  0.92600048198E+01  0.00000000000E+00 0. -1.
          2    1    1    2  501    0 -0.33420414176E+02  0.46717258270E+01  0.10934394375E+04  0.10939600325E+04  0.00000000000E+00 0.  1.
          2    1    1    2  502    0  0.33420414176E+02 -0.46717258270E+01  0.22633240867E+02  0.40632655562E+02  0.00000000000E+00 0. -1.
</event>
<event>
 4    1  0.1324280E+004  0.4119884E+02  0.7546771E-02  0.1341600E+00
          2   -1    0    0  501    0  0.00000000000E+00  0.00000000000E+00  0.16901230054E+04  0.16901230054E+04  0.00000000000E+00 0.  1.
          2   -1    0    0  502    0 -0.00000000000E+00 -0.00000000000E+00 -0.13415768587E+04  0.13415768587E+04  0.00000000000E+00 0.  1.
          2    1    1    2  501    0 -0.91838505470E+00  0.41188600072E+02 -0.13410093879E+04  0.13416420993E+04  0.00000000000E+00 0.  1.
          2    1    1    2  502    0  0.91838505470E+00 -0.41188600072E+02  0.16895555346E+04  0.16900577649E+04  0.00000000000E+00 0.  1.
</event>
<event>
 4    1  0.8931296E+003  0.4371480E+02  0.7546771E-02  0.1327992E+00
          2   -1    0    0  502    0  0.00000000000E+00  0.00000000000E+00  0.22137736453E+04  0.22137736453E+04  0.00000000000E+00 0.  1.
          2   -1    0    0  501    0 -0.00000000000E+00 -0.00000000000E+00 -0.20599639396E+02  0.20599639396E+02  0.00000000000E+00 0.  1.
          2    1    1    2  501    0 -0.25213796880E+02  0.35710616674E+02  0.21901153821E+04  0.21905516134E+04  0.00000000000E+00 0.  1.
          2    1    1    2  502    0  0.25213796880E+02 -0.35710616674E+02  0.30586237246E+01  0.43821671299E+02  0.00000000000E+00 0.  1.
</event>
<event>
 4    1  0.8931296E+003  0.2589129E+02  0.7546771E-02  0.1459075E+00
          2   -1    0    0  501    0  0.00000000000E+00  0.00000000000E+00  0.81778727816E+03  0.81778727816E+03  0.00000000000E+00 0. -1.
          2   -1    0    0  502    0 -0.00000000000E+00 -0.00000000000E+00 -0.13119061194E+01  0.13119061194E+01  0.00000000000E+00 0.  1.
          2    1    1    2  501    0  0.24026202013E+02 -0.96488609055E+01  0.15738511751E+03  0.15950057716E+03  0.00000000000E+00 0.  1.
          2    1    1    2  502    0 -0.24026202013E+02  0.96488609055E+01  0.65909025452E+03  0.65959860712E+03  0.00000000000E+00 0. -1.
</event>
<event>
 4    1  0.8931296E+003  0.3635295E+02  0.7546771E-02  0.1371293E+00
          2   -1    0    0  501    0  0.00000000000E+00  0.00000000000E+00  0.30737785238E+01  0.30737785238E+01  0.00000000000E+00 0. -1.
          2   -1    0    0  502    0 -0.00000000000E+00 -0.00000000000E+00 -0.10474618122E+04  0.10474618122E+04  0.00000000000E+00 0.  1.
          2    1    1    2  501    0  0.47761430109E+01 -0.36037832240E+02 -0.92550330188E+03  0.92621698250E+03  0.00000000000E+00 0.  1.
          2    1    1    2  502    0 -0.47761430109E+01  0.36037832240E+02 -0.11888473180E+03  0.12431860822E+03  0.00000000000E+00 0. -1.
</event>
<event>
 4    1  0.8931296E+003  0.2382955E+02  0.7546771E-02  0.1482336E+00
          2   -1    0    0  501    0  0.00000000000E+00  0.00000000000E+00  0.60622807880E+03  0.60622807880E+03  0.00000000000E+00 0.  1.
          2   -1    0    0  502    0 -0.00000000000E+00 -0.00000000000E+00 -0.14860958467E+03  0.14860958467E+03  0.00000000000E+00 0.  1.
          2    1    1    2  501    0  0.23573988672E+02 -0.34805594348E+01 -0.14741826536E+03  0.14933181911E+03  0.00000000000E+00 0.  1.
          2    1    1    2  502    0 -0.23573988672E+02  0.34805594348E+01  0.60503675948E+03  0.60550584437E+03  0.00000000000E+00 0.  1.
</event>
<event>
 4    1  0.8931296E+003  0.3514710E+02  0.7546771E-02  0.1379532E+00
          2   -1    0    0  501    0  0.00000000000E+00  0.00000000000E+00  0.10747517773E+04  0.10747517773E+04  0.00000000000E+00 0. -1.
          2   -1    0    0  502    0 -0.00000000000E+00 -0.00000000000E+00 -0.85616246310E+02  0.85616246310E+02  0.00000000000E+00 0.  1.
          2    1    1    2  501    0  0.36059196844E+01  0.34961634357E+02 -0.81708599004E+02  0.88947252262E+02  0.00000000000E+00 0.  1.
          2    1    1    2  502    0 -0.36059196844E+01 -0.34961634357E+02  0.10708441300E+04  0.10714207713E+04  0.00000000000E+00 0. -1.
</event>
<event>
 4    1  0.8931296E+003  0.2239195E+02  0.7546771E-02  0.1500278E+00
          2   -1    0    0  501    0  0.00000000000E+00  0.00000000000E+00  0.63638787184E+03  0.63638787184E+03  0.00000000000E+00 0.  1.
          2   -1    0    0  502    0 -0.00000000000E+00 -0.00000000000E+00 -0.58730037130E+01  0.58730037130E+01  0.00000000000E+00 0. -1.
          2    1    1    2  501    0 -0.14692529700E+02  0.16897603685E+02  0.16442739881E+02  0.27780625156E+02  0.00000000000E+00 0. -1.
          2    1    1    2  502    0  0.14692529700E+02 -0.16897603685E+02  0.61407212825E+03  0.61448025040E+03  0.00000000000E+00 0.  1.
</event>
<event>
 4    1  0.8931296E+003  0.2930220E+02  0.7546771E-02  0.1425759E+00
          2   -1    0    0  501    0  0.00000000000E+00  0.00000000000E+00  0.47314856433E+02  0.47314856433E+02  0.00000000000E+00 0.  1.
          2   -1    0    0  502    0 -0.00000000000E+00 -0.00000000000E+00 -0.61144867381E+03  0.61144867381E+03  0.00000000000E+00 0. -1.
          2    1    1    2  501    0  0.36694292812E+00  0.29299906629E+02 -0.60652406903E+03  0.60723147603E+03  0.00000000000E+00 0. -1.
          2    1    1    2  502    0 -0.36694292812E+00 -0.29299906629E+02  0.42390251653E+02  0.51532054207E+02  0.00000000000E+00 0.  1.
</event>
<event>
 4    1  0.8931296E+003  0.4137443E+02  0.7546771E-02  0.1340615E+00
          2   -1    0    0  501    0  0.00000000000E+00  0.00000000000E+00  0.28394747320E+03  0.28394747320E+03  0.00000000000E+00 0.  1.
          2   -1    0    0  502    0 -0.00000000000E+00 -0.00000000000E+00 -0.72932936069E+01  0.72932936069E+01  0.00000000000E+00 0.  1.
          2    1    1    2  501    0  0.38832525847E+02 -0.14278586534E+02  0.77691111237E+02  0.88021314818E+02  0.00000000000E+00 0.  1.
          2    1    1    2  502    0 -0.38832525847E+02  0.14278586534E+02  0.19896306836E+03  0.20321945199E+03  0.00000000000E+00 0.  1.
</event>
<event>
 4    1  0.8931296E+003  0.2523592E+02  0.7546771E-02  0.1466181E+00
          2   -1    0    0  502    0  0.00000000000E+00  0.00000000000E+00  0.20684575618E+01  0.20684575618E+01  0.00000000000E+00 0.  1.
          2   -1    0    0  501    0 -0.00000000000E+00 -0.00000000000E+00 -0.35583138852E+03  0.35583138852E+03  0.00000000000E+00 0. -1.
          2    1    1    2  501    0  0.25140258355E+02  0.21951868716E+01 -0.11119471923E+03  0.11402244087E+03  0.00000000000E+00 0.  1.
          2    1    1    2  502    0 -0.25140258355E+02 -0.21951868716E+01 -0.24256821173E+03  0.24387740522E+03  0.00000000000E+00 0. -1.
</event>
<event>
 4    1  0.8931296E+003  0.2016526E+02  0.7546771E-02  0.1531524E+00
          2   -1    0    0  502    0  0.00000000000E+00  0.00000000000E+00  0.72128502281E+03  0.72128502281E+03  0.00000000000E+00 0.  1.
          2   -1    0    0  501    0 -0.00000000000E+00 -0.00000000000E+00 -0.22114362847E+02  0.22114362847E+02  0.00000000000E+00 0. -1.
          2    1    1    2  501    0  0.20041122941E+02 -0.22340574883E+01  0.71651650773E+03  0.71680021168E+03  0.00000000000E+00 0.  1.
          2    1    1    2  502    0 -0.20041122941E+02  0.22340574883E+01 -0.17345847763E+02  0.26599173976E+02  0.00000000000E+00 0. -1.
</event>
<event>
 4    1  0.8931296E+003  0.2767902E+02  0.7546771E-02  0.1440904E+00
          2   -1    0    0  502    0  0.00000000000E+00  0.00000000000E+00  0.13662100971E+01  0.13662100971E+01  0.00000000000E+00 0. -1.
          2   -1    0    0  501    0 -0.00000000000E+00 -0.00000000000E+00 -0.81613226745E+03  0.81613226745E+03  0.00000000000E+00 0.  1.
          2    1    1    2  501    0 -0.76843648947E+01 -0.26590953859E+02 -0.17874109593E+03  0.18087152253E+03  0.00000000000E+00 0. -1.
          2    1    1    2  502    0  0.76843648947E+01  0.26590953859E+02 -0.63602496143E+03  0.63662695502E+03  0.00000000000E+00 0.  1.
</event>
<event>
 4    1  0.8931296E+003  0.2464744E+02  0.7546771E-02  0.1472786E+00
          2   -1    0    0  501    0  0.00000000000E+00  0.00000000000E+00  0.39023882758E+02  0.39023882758E+02  0.00000000000E+00 0. -1.
          2   -1    0    0  502    0 -0.00000000000E+00 -0.00000000000E+00 -0.39248873148E+02  0.39248873148E+02  0.00000000000E+00 0.  1.
          2    1    1    2  501    0  0.24543502920E+02 -0.22611816803E+01 -0.30512406078E+02  0.39223760692E+02  0.00000000000E+00 0.  1.
          2    1    1    2  502    0 -0.24543502920E+02  0.22611816803E+01  0.30287415688E+02  0.39048995214E+02  0.00000000000E+00 0. -1.
</event>
<event>
 4    1  0.8931296E+003  0.2041008E+02  0.7546771E-02  0.1527856E+00
          2   -1    0    0  501    0  0.00000000000E+00  0.00000000000E+00  0.13560834213E+04  0.13560834213E+04  0.00000000000E+00 0. -1.
          2   -1    0    0  502    0 -0.00000000000E+00 -0.00000000000E+00 -0.64511382115E+00  0.64511382115E+00  0.00000000000E+00 0.  1.
          2    1    1    2  501    0 -0.18077695164E+02  0.94746102155E+01  0.18674789102E+03  0.18785991084E+03  0.00000000000E+00 0.  1.
          2    1    1    2  502    0  0.18077695164E+02 -0.94746102155E+01  0.11686904164E+04  0.11688686243E+04  0.00000000000E+00 0. -1.
</event>
<event>
 4    1  0.8931296E+003  0.3663236E+02  0.7546771E-02  0.1369437E+00
          2   -1    0    0  501    0  0.00000000000E+00  0.00000000000E+00  0.36688574005E+03  0.36688574005E+03  0.00000000000E+00 0. -1.
          2   -1    0    0  502    0 -0.00000000000E+00 -0.00000000000E+00 -0.18176725956E+02  0.18176725956E+02  0.00000000000E+00 0. -1.
          2    1    1    2  501    0  0.18647164164E+01 -0.36584872469E+02  0.22813047894E+01  0.36703329718E+02  0.00000000000E+00 0. -1.
          2    1    1    2  502    0 -0.18647164164E+01  0.36584872469E+02  0.34642770931E+03  0.34835913629E+03  0.00000000000E+00 0. -1.
</event>
<event>
 4    1  0.8931296E+003  0.2166145E+02  0.7546771E-02  0.1510027E+00
          2   -1    0    0  501    0  0.00000000000E+00  0.00000000000E+00  0.53961579584E+03  0.53961579584E+03  0.00000000000E+00 0.  1.
          2   -1    0    0  502    0 -0.00000000000E+00 -0.00000000000E+00 -0.12288585910E+03  0.12288585910E+03  0.00000000000E+00 0.  1.
          2    1    1    2  501    0  0.19418531042E+02  0.95989131613E+01 -0.12171181114E+03  0.12362436432E+03  0.00000000000E+00 0.  1.
          2    1    1    2  502    0 -0.19418531042E+02 -0.95989131613E+01  0.53844174788E+03  0.53887729062E+03  0.00000000000E+00 0.  1.
</event>
<event>
 4    1  0.8931296E+003  0.4026350E+02  0.7546771E-02  0.1346949E+00
          2   -1    0    0  501    0  0.00000000000E+00  0.00000000000E+00  0.23055257315E+02  0.23055257315E+02  0.00000000000E+00 0.  1.
          2   -1    0    0  502    0 -0.00000000000E+00 -0.00000000000E+00 -0.14537054784E+04  0.14537054784E+04  0.00000000000E+00 0. -1.
          2    1    1    2  501    0  0.37843935631E+02  0.13747212882E+02 -0.14356263961E+04  0.14361908991E+04  0.00000000000E+00 0. -1.
          2    1    1    2  502    0 -0.37843935631E+02 -0.13747212882E+02  0.49761750526E+01  0.40569836630E+02  0.00000000000E+00 0.  1.
</event>
<event>
 4    1  0.8931296E+003  0.2803165E+02  0.7546771E-02  0.1437511E+00
          2   -1    0    0  502    0  0.00000000000E+00  0.00000000000E+00  0.74556642307E+03  0.74556642307E+03  0.00000000000E+00 0.  1.
          2   -1    0    0  501    0 -0.00000000000E+00 -0.00000000000E+00 -0.42521929869E+01  0.42521929869E+01  0.00000000000E+00 0. -1.
          2    1    1    2  501    0  0.24254748041E+02  0.14052782783E+02  0.69580201419E+03  0.69636643834E+03  0.00000000000E+00 0.  1.
          2    1    1    2  502    0 -0.24254748041E+02 -0.14052782783E+02  0.45512215903E+02  0.53452177719E+02  0.00000000000E+00 0. -1.
</event>
<event>
 4    1  0.8931296E+003  0.3332335E+02  0.7546771E-02  0.1392750E+00
          2   -1    0    0  501    0  0.00000000000E+00  0.00000000000E+00  0.27138709532E+03  0.27138709532E+03  0.00000000000E+00 0.  1.
          2   -1    0    0  502    0 -0.00000000000E+00 -0.00000000000E+00 -0.79334404925E+02  0.79334404925E+02  0.00000000000E+00 0. -1.
          2    1    1    2  501    0  0.90904927269E+01 -0.32059449341E+02 -0.74752351780E+02  0.81843505831E+02  0.00000000000E+00 0. -1.
          2    1    1    2  502    0 -0.90904927269E+01  0.32059449341E+02  0.26680504218E+03  0.26887799442E+03  0.00000000000E+00 0.  1.
</event>
<event>
 4    1  0.8931296E+003  0.2235835E+02  0.7546771E-02  0.1500716E+00
          2   -1    0    0  502    0  0.00000000000E+00  0.00000000000E+00  0.58398379116E+03  0.58398379116E+03  0.00000000000E+00 0. -1.
          2   -1    0    0  501    0 -0.00000000000E+00 -0.00000000000E+00 -0.57792860869E+01  0.57792860869E+01  0.00000000000E+00 0. -1.
          2    1    1    2  501    0  0.15436325761E+02  0.16174537489E+02  0.56127058586E+03  0.56171573449E+03  0.00000000000E+00 0. -1.
          2    1    1    2  502    0 -0.15436325761E+02 -0.16174537489E+02  0.16933919207E+02  0.28047342756E+02  0.00000000000E+00 0. -1.
</event>
<event>
 4    1  0.8931296E+003  0.2207773E+02  0.7546771E-02  0.1504416E+00
          2   -1    0    0  502    0  0.00000000000E+00  0.00000000000E+00  0.10978275788E+01  0.10978275788E+01  0.00000000000E+00 0. -1.
          2   -1    0    0  501    0 -0.00000000000E+00 -0.00000000000E+00 -0.92495958130E+03  0.92495958130E+03  0.00000000000E+00 0.  1.
          2    1    1    2  501    0 -0.14577949213E+02  0.16580398784E+02 -0.12803994937E+03  0.12992942262E+03  0.00000000000E+00 0. -1.
          2    1    1    2  502    0  0.14577949213E+02 -0.16580398784E+02 -0.79582180435E+03  0.79612798626E+03  0.00000000000E+00 0.  1.
</event>
<event>
 4    1  0.8931296E+003  0.2092582E+02  0.7546771E-02  0.1520327E+00
          2   -1    0    0  502    0  0.00000000000E+00  0.00000000000E+00  0.54618414583E+03  0.54618414583E+03  0.00000000000E+00 0.  1.
          2   -1    0    0  501    0 -0.00000000000E+00 -0.00000000000E+00 -0.19861647083E+01  0.19861647083E+01  0.00000000000E+00 0.  1.
          2    1    1    2  501    0  0.13414905714E+02 -0.16060205675E+02  0.48375676402E+03  0.48420914555E+03  0.00000000000E+00 0.  1.
          2    1    1    2  502    0 -0.13414905714E+02  0.16060205675E+02  0.60441217105E+02  0.63961164989E+02  0.00000000000E+00 0.  1.
</event>
<event>
 4    1  0.8931296E+003  0.5334943E+02  0.7546771E-02  0.1284269E+00
          2   -1    0    0  502    0  0.00000000000E+00  0.00000000000E+00  0.37327453936E+03  0.37327453936E+03  0.00000000000E+00 0.  1.
          2   -1    0    0  501    0 -0.00000000000E+00 -0.00000000000E+00 -0.13090963403E+04  0.13090963403E+04  0.00000000000E+00 0.  1.
          2    1    1    2  501    0  0.44564446240E+02 -0.29328680057E+02  0.37082121448E+03  0.37463920570E+03  0.00000000000E+00 0.  1.
          2    1    1    2  502    0 -0.44564446240E+02  0.29328680057E+02 -0.13066430154E+04  0.13077316739E+04  0.00000000000E+00 0.  1.
</event>
<event>
 4    1  0.8931296E+003  0.2234654E+02  0.7546771E-02  0.1500871E+00
          2   -1    0    0  502    0  0.00000000000E+00  0.00000000000E+00  0.31130113668E+03  0.31130113668E+03  0.00000000000E+00 0.  1.
          2   -1    0    0  501    0 -0.00000000000E+00 -0.00000000000E+00 -0.10042662172E+02  0.10042662172E+02  0.00000000000E+00 0.  1.
          2    1    1    2  501    0 -0.22276781038E+02  0.17643719948E+01  0.29791098048E+03  0.29874792095E+03  0.00000000000E+00 0.  1.
          2    1    1    2  502    0  0.22276781038E+02 -0.17643719948E+01  0.33474940307E+01  0.22595877903E+02  0.00000000000E+00 0.  1.
</event>
<event>
 4    1  0.8931296E+003  0.2049024E+02  0.7546771E-02  0.1526669E+00
          2   -1    0    0  501    0  0.00000000000E+00  0.00000000000E+00  0.91833533490E+02  0.91833533490E+02  0.00000000000E+00 0.  1.
          2   -1    0    0  502    0 -0.00000000000E+00 -0.00000000000E+00 -0.57726744096E+01  0.57726744096E+01  0.00000000000E+00 0.  1.
          2    1    1    2  501    0 -0.10020262526E+02 -0.17873006439E+02  0.20771876252E+02  0.29177403299E+02  0.00000000000E+00 0.  1.
          2    1    1    2  502    0  0.10020262526E+02  0.17873006439E+02  0.65288982829E+02  0.68428804601E+02  0.00000000000E+00 0.  1.
</event>
<event>
 4    1  0.8931296E+003  0.2008666E+02  0.7546771E-02  0.1532715E+00
          2   -1    0    0  502    0  0.00000000000E+00  0.00000000000E+00  0.63476696457E+02  0.63476696457E+02  0.00000000000E+00 0. -1.
          2   -1    0    0  501    0 -0.00000000000E+00 -0.00000000000E+00 -0.76656269873E+01  0.76656269873E+01  0.00000000000E+00 0. -1.
          2    1    1    2  501    0 -0.20040618911E+02  0.13592441080E+01  0.42606844880E+02  0.47104322323E+02  0.00000000000E+00 0. -1.
          2    1    1    2  502    0  0.20040618911E+02 -0.13592441080E+01  0.13204224590E+02  0.24038001121E+02  0.00000000000E+00 0. -1.
</event>
<event>
 4    1  0.8931296E+003  0.3846688E+02  0.7546771E-02  0.1357712E+00
          2   -1    0    0  502    0  0.00000000000E+00  0.00000000000E+00  0.32071111254E+02  0.32071111254E+02  0.00000000000E+00 0. -1.
          2   -1    0    0  501    0 -0.00000000000E+00 -0.00000000000E+00 -0.48070400058E+02  0.48070400058E+02  0.00000000000E+00 0. -1.
          2    1    1    2  501    0  0.25976749153E+02  0.28370924095E+02 -0.16033490749E+02  0.41674616449E+02  0.00000000000E+00 0. -1.
          2    1    1    2  502    0 -0.25976749153E+02 -0.28370924095E+02  0.34201944661E-01  0.38466894863E+02  0.00000000000E+00 0. -1.
</event>
<event>
 4    1  0.8931296E+003  0.2660867E+02  0.7546771E-02  0.1451579E+00
          2   -1    0    0  502    0  0.00000000000E+00  0.00000000000E+00  0.57036547706E+03  0.57036547706E+03  0.00000000000E+00 0. -1.
          2   -1    0    0  501    0 -0.00000000000E+00 -0.00000000000E+00 -0.31968549927E+01  0.31968549927E+01  0.00000000000E+00 0.  1.
          2    1    1    2  501    0 -0.26608634281E+02  0.45907039980E-01  0.50787897675E+03  0.50857553672E+03  0.00000000000E+00 0. -1.
          2    1    1    2  502    0  0.26608634281E+02 -0.45907039980E-01  0.59289645320E+02  0.64986795335E+02  0.00000000000E+00 0.  1.
</event>
<event>
 4    1  0.8931296E+003  0.5731687E+02  0.7546771E-02  0.1269232E+00
          2   -1    0    0  501    0  0.00000000000E+00  0.00000000000E+00  0.37026512007E+01  0.37026512007E+01  0.00000000000E+00 0.  1.
          2   -1    0    0  502    0 -0.00000000000E+00 -0.00000000000E+00 -0.14542963470E+04  0.14542963470E+04  0.00000000000E+00 0.  1.
          2    1    1    2  501    0 -0.29937836697E+02  0.48876875548E+02 -0.11805000620E+04  0.11818906969E+04  0.00000000000E+00 0.  1.
          2    1    1    2  502    0  0.29937836697E+02 -0.48876875548E+02 -0.27009363375E+03  0.27610830126E+03  0.00000000000E+00 0.  1.
</event>
<event>
 4    1  0.8931296E+003  0.2123136E+02  0.7546771E-02  0.1515987E+00
          2   -1    0    0  501    0  0.00000000000E+00  0.00000000000E+00  0.94161373572E+03  0.94161373572E+03  0.00000000000E+00 0.  1.
          2   -1    0    0  502    0 -0.00000000000E+00 -0.00000000000E+00 -0.69347282498E+00  0.69347282498E+00  0.00000000000E+00 0.  1.
          2    1    1    2  501    0  0.11533551993E+02 -0.17825487634E+02  0.20827043392E+03  0.20934981365E+03  0.00000000000E+00 0.  1.
          2    1    1    2  502    0 -0.11533551993E+02  0.17825487634E+02  0.73264982897E+03  0.73295739489E+03  0.00000000000E+00 0.  1.
</event>
<event>
 4    1  0.8931296E+003  0.2126567E+02  0.7546771E-02  0.1515505E+00
          2   -1    0    0  502    0  0.00000000000E+00  0.00000000000E+00  0.42616732439E+03  0.42616732439E+03  0.00000000000E+00 0. -1.
          2   -1    0    0  501    0 -0.00000000000E+00 -0.00000000000E+00 -0.12195962251E+02  0.12195962251E+02  0.00000000000E+00 0.  1.
          2    1    1    2  501    0 -0.17904183013E+02 -0.11474710801E+02  0.41641502526E+03  0.41695767413E+03  0.00000000000E+00 0. -1.
          2    1    1    2  502    0  0.17904183013E+02  0.11474710801E+02 -0.24436631205E+01  0.21405612506E+02  0.00000000000E+00 0.  1.
</event>
<event>
 4    1  0.8931296E+003  0.2142290E+02  0.7546771E-02  0.1513312E+00
          2   -1    0    0  502    0  0.00000000000E+00  0.00000000000E+00  0.17359610119E+03  0.17359610119E+03  0.00000000000E+00 0.  1.
          2   -1    0    0  501    0 -0.00000000000E+00 -0.00000000000E+00 -0.26680405365E+01  0.26680405365E+01  0.00000000000E+00 0.  1.
          2    1    1    2  501    0 -0.11581904347E+02 -0.18022215214E+02  0.77050867962E+02  0.79973601915E+02  0.00000000000E+00 0.  1.
          2    1    1    2  502    0  0.11581904347E+02  0.18022215214E+02  0.93877192688E+02  0.96290539808E+02  0.00000000000E+00 0.  1.
</event>
<event>
 4    1  0.8931296E+003  0.2542950E+02  0.7546771E-02  0.1464056E+00
          2   -1    0    0  502    0  0.00000000000E+00  0.00000000000E+00  0.27453683411E+03  0.27453683411E+03  0.00000000000E+00 0. -1.
          2   -1    0    0  501    0 -0.00000000000E+00 -0.00000000000E+00 -0.15544693407E+04  0.15544693407E+04  0.00000000000E+00 0. -1.
          2    1    1    2  501    0 -0.15221273047E+02  0.20370863113E+02  0.27384370764E+03  0.27502188173E+03  0.00000000000E+00 0. -1.
          2    1    1    2  502    0  0.15221273047E+02 -0.20370863113E+02 -0.15537762142E+04  0.15539842931E+04  0.00000000000E+00 0. -1.
</event>
<event>
 4    1  0.8931296E+003  0.3041746E+02  0.7546771E-02  0.1416003E+00
          2   -1    0    0  501    0  0.00000000000E+00  0.00000000000E+00  0.70172289977E+02  0.70172289977E+02  0.00000000000E+00 0.  1.
          2   -1    0    0  502    0 -0.00000000000E+00 -0.00000000000E+00 -0.11325878856E+04  0.11325878856E+04  0.00000000000E+00 0.  1.
          2    1    1    2  501    0  0.30378736191E+02  0.15343887760E+01 -0.11290771596E+04  0.11294868102E+04  0.00000000000E+00 0.  1.
          2    1    1    2  502    0 -0.30378736191E+02 -0.15343887760E+01  0.66661564007E+02  0.73273365402E+02  0.00000000000E+00 0.  1.
</event>
<event>
 4    1  0.8931296E+003  0.2339321E+02  0.7546771E-02  0.1487619E+00
          2   -1    0    0  502    0  0.00000000000E+00  0.00000000000E+00  0.62580745386E+03  0.62580745386E+03  0.00000000000E+00 0. -1.
          2   -1    0    0  501    0 -0.00000000000E+00 -0.00000000000E+00 -0.23646705040E+02  0.23646705040E+02  0.00000000000E+00 0. -1.
          2    1    1    2  501    0  0.20210109375E+02  0.11781084918E+02  0.61974666901E+03  0.62018801684E+03  0.00000000000E+00 0. -1.
          2    1    1    2  502    0 -0.20210109375E+02 -0.11781084918E+02 -0.17585920183E+02  0.29266142067E+02  0.00000000000E+00 0. -1.
</event>
<event>
 4    1  0.8931296E+003  0.2511760E+02  0.7546771E-02  0.1467492E+00
          2   -1    0    0  501    0  0.00000000000E+00  0.00000000000E+00  0.66839941067E+00  0.66839941067E+00  0.00000000000E+00 0. -1.
          2   -1    0    0  502    0 -0.00000000000E+00 -0.00000000000E+00 -0.12853175000E+04  0.12853175000E+04  0.00000000000E+00 0.  1.
          2    1    1    2  501    0 -0.16404399663E+02  0.19020764499E+02 -0.97372407119E+03  0.97404797655E+03  0.00000000000E+00 0.  1.
          2    1    1    2  502    0  0.16404399663E+02 -0.19020764499E+02 -0.31092502943E+03  0.31193792289E+03  0.00000000000E+00 0. -1.
</event>
<event>
 4    1  0.8931296E+003  0.2337032E+02  0.7546771E-02  0.1487900E+00
          2   -1    0    0  502    0  0.00000000000E+00  0.00000000000E+00  0.72737821646E+03  0.72737821646E+03  0.00000000000E+00 0.  1.
          2   -1    0    0  501    0 -0.00000000000E+00 -0.00000000000E+00 -0.14046523022E+01  0.14046523022E+01  0.00000000000E+00 0.  1.
          2    1    1    2  501    0  0.22837554553E+02 -0.49616270046E+01  0.61158497432E+03  0.61203133290E+03  0.00000000000E+00 0.  1.
          2    1    1    2  502    0 -0.22837554553E+02  0.49616270046E+01  0.11438858983E+03  0.11675153586E+03  0.00000000000E+00 0.  1.
</event>
<event>
 4    1  0.8931296E+003  0.2114329E+02  0.7546771E-02  0.1517229E+00
          2   -1    0    0  501    0  0.00000000000E+00  0.00000000000E+00  0.45275374835E+02  0.45275374835E+02  0.00000000000E+00 0.  1.
          2   -1    0    0  502    0 -0.00000000000E+00 -0.00000000000E+00 -0.26676641159E+03  0.26676641159E+03  0.00000000000E+00 0.  1.
          2    1    1    2  501    0  0.22614166655E+01 -0.21022003276E+02 -0.26385180341E+03  0.26469758743E+03  0.00000000000E+00 0.  1.
          2    1    1    2  502    0 -0.22614166655E+01  0.21022003276E+02  0.42360766655E+02  0.47344198997E+02  0.00000000000E+00 0.  1.
</event>
<event>
 4    1  0.8931296E+003  0.2134265E+02  0.7546771E-02  0.1514429E+00
          2   -1    0    0  502    0  0.00000000000E+00  0.00000000000E+00  0.10086875459E+04  0.10086875459E+04  0.00000000000E+00 0.  1.
          2   -1    0    0  501    0 -0.00000000000E+00 -0.00000000000E+00 -0.12637730367E+02  0.12637730367E+02  0.00000000000E+00 0.  1.
          2    1    1    2  501    0 -0.45616827144E+01  0.20849457056E+02  0.99948076421E+03  0.99970861097E+03  0.00000000000E+00 0.  1.
          2    1    1    2  502    0  0.45616827144E+01 -0.20849457056E+02 -0.34309487037E+01  0.21616665278E+02  0.00000000000E+00 0.  1.
</event>
<event>
 4    1  0.8931296E+003  0.2085939E+02  0.7546771E-02  0.1521282E+00
          2   -1    0    0  502    0  0.00000000000E+00  0.00000000000E+00  0.26085173226E+03  0.26085173226E+03  0.00000000000E+00 0. -1.
          2   -1    0    0  501    0 -0.00000000000E+00 -0.00000000000E+00 -0.15489820797E+02  0.15489820797E+02  0.00000000000E+00 0.  1.
          2    1    1    2  501    0  0.80023515149E-01 -0.20859240741E+02  0.25320027776E+03  0.25405805436E+03  0.00000000000E+00 0. -1.
          2    1    1    2  502    0 -0.80023515149E-01  0.20859240741E+02 -0.78383662949E+01  0.22283498698E+02  0.00000000000E+00 0.  1.
</event>
<event>
 4    1  0.8931296E+003  0.2290455E+02  0.7546771E-02  0.1493700E+00
          2   -1    0    0  502    0  0.00000000000E+00  0.00000000000E+00  0.22193727194E+03  0.22193727194E+03  0.00000000000E+00 0.  1.
          2   -1    0    0  501    0 -0.00000000000E+00 -0.00000000000E+00 -0.23646370991E+01  0.23646370991E+01  0.00000000000E+00 0.  1.
          2    1    1    2  501    0  0.22800432148E+02 -0.21814491877E+01  0.11187874939E+03  0.11419926878E+03  0.00000000000E+00 0.  1.
          2    1    1    2  502    0 -0.22800432148E+02  0.21814491877E+01  0.10769388545E+03  0.11010264025E+03  0.00000000000E+00 0.  1.
</event>
<event>
 4    1  0.8931296E+003  0.3007744E+02  0.7546771E-02  0.1418925E+00
          2   -1    0    0  502    0  0.00000000000E+00  0.00000000000E+00  0.41644269263E+03  0.41644269263E+03  0.00000000000E+00 0. -1.
          2   -1    0    0  501    0 -0.00000000000E+00 -0.00000000000E+00 -0.32963655704E+01  0.32963655704E+01  0.00000000000E+00 0.  1.
          2    1    1    2  501    0  0.13180193938E+02 -0.27035806101E+02  0.32912535892E+03  0.33049682934E+03  0.00000000000E+00 0. -1.
          2    1    1    2  502    0 -0.13180193938E+02  0.27035806101E+02  0.84020968143E+02  0.89242228858E+02  0.00000000000E+00 0.  1.
</event>
<event>
 4    1  0.8931296E+003  0.2044437E+02  0.7546771E-02  0.1527348E+00
          2   -1    0    0  501    0  0.00000000000E+00  0.00000000000E+00  0.29028044689E+03  0.29028044689E+03  0.00000000000E+00 0.  1.
          2   -1    0    0  502    0 -0.00000000000E+00 -0.00000000000E+00 -0.13440510747E+02  0.13440510747E+02  0.00000000000E+00 0. -1.
          2    1    1    2  501    0  0.19949263945E+02 -0.44720588249E+01 -0.50756704723E+01  0.21065015377E+02  0.00000000000E+00 0. -1.
          2    1    1    2  502    0 -0.19949263945E+02  0.44720588249E+01  0.28191560661E+03  0.28265594226E+03  0.00000000000E+00 0.  1.
</event>
<event>
 4    1  0.8931296E+003  0.2812014E+02  0.7546771E-02  0.1436669E+00
          2   -1    0    0  502    0  0.00000000000E+00  0.00000000000E+00  0.29430294392E+03  0.29430294392E+03  0.00000000000E+00 0. -1.
          2   -1    0    0  501    0 -0.00000000000E+00 -0.00000000000E+00 -0.88391349382E+01  0.88391349382E+01  0.00000000000E+00 0. -1.
          2    1    1    2  501    0 -0.26634819270E+02  0.90182481892E+01  0.26918522074E+03  0.27065000547E+03  0.00000000000E+00 0. -1.
          2    1    1    2  502    0  0.26634819270E+02 -0.90182481892E+01  0.16278588249E+02  0.32492073392E+02  0.00000000000E+00 0. -1.
</event>
<event>
 4    1  0.8931296E+003  0.3442748E+02  0.7546771E-02  0.1384633E+00
          2   -1    0    0  502    0  0.00000000000E+00  0.00000000000E+00  0.23560109748E+04  0.23560109748E+04  0.00000000000E+00 0.  1.
          2   -1    0    0  501    0 -0.00000000000E+00 -0.00000000000E+00 -0.19982944787E+01  0.19982944787E+01  0.00000000000E+00 0.  1.
          2    1    1    2  501    0 -0.19229069947E+02  0.28556860383E+02  0.21968607265E+04  0.21971304702E+04  0.00000000000E+00 0.  1.
          2    1    1    2  502    0  0.19229069947E+02 -0.28556860383E+02  0.15715195383E+03  0.16087879910E+03  0.00000000000E+00 0.  1.
</event>
<event>
 4    1  0.8931296E+003  0.2397607E+02  0.7546771E-02  0.1480592E+00
          2   -1    0    0  502    0  0.00000000000E+00  0.00000000000E+00  0.76796125346E+02  0.76796125346E+02  0.00000000000E+00 0. -1.
          2   -1    0    0  501    0 -0.00000000000E+00 -0.00000000000E+00 -0.97218470915E+01  0.97218470915E+01  0.00000000000E+00 0. -1.
          2    1    1    2  501    0  0.20821998185E+02 -0.11886817505E+02  0.54285238658E+02  0.59344242980E+02  0.00000000000E+00 0. -1.
          2    1    1    2  502    0 -0.20821998185E+02  0.11886817505E+02  0.12789039597E+02  0.27173729457E+02  0.00000000000E+00 0. -1.
</event>
<event>
 4    1  0.8931296E+003  0.2171731E+02  0.7546771E-02  0.1509265E+00
          2   -1    0    0  501    0  0.00000000000E+00  0.00000000000E+00  0.24533202736E+01  0.24533202736E+01  0.00000000000E+00 0. -1.
          2   -1    0    0  502    0 -0.00000000000E+00 -0.00000000000E+00 -0.49539417130E+03  0.49539417130E+03  0.00000000000E+00 0.  1.
          2    1    1    2  501    0 -0.21489268705E+02  0.31389512669E+01 -0.44119383295E+03  0.44172801577E+03  0.00000000000E+00 0.  1.
          2    1    1    2  502    0  0.21489268705E+02 -0.31389512669E+01 -0.51747018085E+02  0.56119475810E+02  0.00000000000E+00 0. -1.
</event>
<event>
 4    1  0.8931296E+003  0.2295722E+02  0.7546771E-02  0.1493036E+00
          2   -1    0    0  501    0  0.00000000000E+00  0.00000000000E+00  0.21163833490E+03  0.21163833490E+03  0.00000000000E+00 0. -1.
          2   -1    0    0  502    0 -0.00000000000E+00 -0.00000000000E+00 -0.48758703629E+03  0.48758703629E+03  0.00000000000E+00 0. -1.
          2    1    1    2  501    0  0.25855449451E+01 -0.22811158298E+02 -0.48669310342E+03  0.48723424644E+03  0.00000000000E+00 0. -1.
          2    1    1    2  502    0 -0.25855449451E+01  0.22811158298E+02  0.21074440204E+03  0.21199112476E+03  0.00000000000E+00 0. -1.
</event>
<event>
 4    1  0.8931296E+003  0.2440464E+02  0.7546771E-02  0.1475575E+00
          2   -1    0    0  501    0  0.00000000000E+00  0.00000000000E+00  0.65032318316E+02  0.65032318316E+02  0.00000000000E+00 0. -1.
          2   -1    0    0  502    0 -0.00000000000E+00 -0.00000000000E+00 -0.13979555302E+03  0.13979555302E+03  0.00000000000E+00 0. -1.
          2    1    1    2  501    0  0.22518904589E+02  0.94066566546E+01 -0.13638405269E+03  0.13855033772E+03  0.00000000000E+00 0. -1.
          2    1    1    2  502    0 -0.22518904589E+02 -0.94066566546E+01  0.61620817987E+02  0.66277533619E+02  0.00000000000E+00 0. -1.
</event>
<event>
 4    1  0.8931296E+003  0.1038020E+03  0.7546771E-02  0.1157378E+00
          2   -1    0    0  501    0  0.00000000000E+00  0.00000000000E+00  0.15445886688E+04  0.15445886688E+04  0.00000000000E+00 0.  1.
          2   -1    0    0  502    0 -0.00000000000E+00 -0.00000000000E+00 -0.71482377767E+02  0.71482377767E+02  0.00000000000E+00 0.  1.
          2    1    1    2  501    0  0.72763212044E+02  0.74029505719E+02 -0.31042880468E+02  0.10834441920E+03  0.00000000000E+00 0.  1.
          2    1    1    2  502    0 -0.72763212044E+02 -0.74029505719E+02  0.15041491715E+04  0.15077266274E+04  0.00000000000E+00 0.  1.
</event>
<event>
 4    1  0.8931296E+003  0.2039001E+02  0.7546771E-02  0.1528155E+00
          2   -1    0    0  502    0  0.00000000000E+00  0.00000000000E+00  0.17710599562E+02  0.17710599562E+02  0.00000000000E+00 0.  1.
          2   -1    0    0  501    0 -0.00000000000E+00 -0.00000000000E+00 -0.20187837276E+03  0.20187837276E+03  0.00000000000E+00 0.  1.
          2    1    1    2  501    0 -0.18591138619E+02  0.83738804055E+01  0.11129835325E+02  0.23229841638E+02  0.00000000000E+00 0.  1.
          2    1    1    2  502    0  0.18591138619E+02 -0.83738804055E+01 -0.19529760853E+03  0.19635913069E+03  0.00000000000E+00 0.  1.
</event>
<event>
 4    1  0.8931296E+003  0.3678935E+02  0.7546771E-02  0.1368402E+00
          2   -1    0    0  501    0  0.00000000000E+00  0.00000000000E+00  0.61548554343E+03  0.61548554343E+03  0.00000000000E+00 0.  1.
          2   -1    0    0  502    0 -0.00000000000E+00 -0.00000000000E+00 -0.66761724656E+02  0.66761724656E+02  0.00000000000E+00 0. -1.
          2    1    1    2  501    0  0.88308611213E+01  0.35713757317E+02 -0.61096698161E+02  0.71318041869E+02  0.00000000000E+00 0. -1.
          2    1    1    2  502    0 -0.88308611213E+01 -0.35713757317E+02  0.60982051694E+03  0.61092922622E+03  0.00000000000E+00 0.  1.
</event>
<event>
 4    1  0.8931296E+003  0.2293309E+02  0.7546771E-02  0.1493340E+00
          2   -1    0    0  502    0  0.00000000000E+00  0.00000000000E+00  0.80583095711E+03  0.80583095711E+03  0.00000000000E+00 0. -1.
          2   -1    0    0  501    0 -0.00000000000E+00 -0.00000000000E+00 -0.47199159726E+02  0.47199159726E+02  0.00000000000E+00 0. -1.
          2    1    1    2  501    0  0.21985637022E+02 -0.65236643880E+01  0.80287185253E+03  0.80319931400E+03  0.00000000000E+00 0. -1.
          2    1    1    2  502    0 -0.21985637022E+02  0.65236643880E+01 -0.44240055142E+02  0.49830802836E+02  0.00000000000E+00 0. -1.
</event>
<event>
 4    1  0.8931296E+003  0.3970151E+02  0.7546771E-02  0.1350244E+00
          2   -1    0    0  501    0  0.00000000000E+00  0.00000000000E+00  0.22907955713E+02  0.22907955713E+02  0.00000000000E+00 0.  1.
          2   -1    0    0  502    0 -0.00000000000E+00 -0.00000000000E+00 -0.96101928670E+02  0.96101928670E+02  0.00000000000E+00 0.  1.
          2    1    1    2  501    0  0.34495342754E+02  0.19654041064E+02 -0.68309752033E+02  0.79009064193E+02  0.00000000000E+00 0.  1.
          2    1    1    2  502    0 -0.34495342754E+02 -0.19654041064E+02 -0.48842209228E+01  0.40000820190E+02  0.00000000000E+00 0.  1.
</event>
<event>
 4    1  0.8931296E+003  0.4732500E+02  0.7546771E-02  0.1310206E+00
          2   -1    0    0  502    0  0.00000000000E+00  0.00000000000E+00  0.74477463490E+02  0.74477463490E+02  0.00000000000E+00 0. -1.
          2   -1    0    0  501    0 -0.00000000000E+00 -0.00000000000E+00 -0.71416660449E+03  0.71416660449E+03  0.00000000000E+00 0.  1.
          2    1    1    2  501    0 -0.34845679932E+02 -0.32022406378E+02  0.66086272636E+02  0.81283770527E+02  0.00000000000E+00 0. -1.
          2    1    1    2  502    0  0.34845679932E+02  0.32022406378E+02 -0.70577541363E+03  0.70736029745E+03  0.00000000000E+00 0.  1.
</event>
<event>
 4    1  0.8931296E+003  0.2879365E+02  0.7546771E-02  0.1430377E+00
          2   -1    0    0  502    0  0.00000000000E+00  0.00000000000E+00  0.10618322004E+03  0.10618322004E+03  0.00000000000E+00 0.  1.
          2   -1    0    0  501    0 -0.00000000000E+00 -0.00000000000E+00 -0.49404744048E+02  0.49404744048E+02  0.00000000000E+00 0.  1.
          2    1    1    2  501    0  0.28708876666E+02 -0.22079300522E+01  0.99771703225E+02  0.10384347509E+03  0.00000000000E+00 0.  1.
          2    1    1    2  502    0 -0.28708876666E+02  0.22079300522E+01 -0.42993227228E+02  0.51744489001E+02  0.00000000000E+00 0.  1.
</event>
<event>
 4    1  0.8931296E+003  0.2362442E+02  0.7546771E-02  0.1484803E+00
          2   -1    0    0  502    0  0.00000000000E+00  0.00000000000E+00  0.89768425548E+01  0.89768425548E+01  0.00000000000E+00 0.  1.
          2   -1    0    0  501    0 -0.00000000000E+00 -0.00000000000E+00 -0.29071770628E+03  0.29071770628E+03  0.00000000000E+00 0. -1.
          2    1    1    2  501    0 -0.57294855457E+01 -0.22919127685E+02 -0.80089496936E+01  0.24945073534E+02  0.00000000000E+00 0.  1.
          2    1    1    2  502    0  0.57294855457E+01  0.22919127685E+02 -0.27373191403E+03  0.27474947530E+03  0.00000000000E+00 0. -1.
</event>
<event>
 4    1  0.8931296E+003  0.2427540E+02  0.7546771E-02  0.1477075E+00
          2   -1    0    0  502    0  0.00000000000E+00  0.00000000000E+00  0.21840014834E+03  0.21840014834E+03  0.00000000000E+00 0. -1.
          2   -1    0    0  501    0 -0.00000000000E+00 -0.00000000000E+00 -0.34640891723E+01  0.34640891723E+01  0.00000000000E+00 0. -1.
          2    1    1    2  501    0  0.13470123419E+02  0.20195321941E+02  0.15962776631E+03  0.16146305779E+03  0.00000000000E+00 0. -1.
          2    1    1    2  502    0 -0.13470123419E+02 -0.20195321941E+02  0.55308292861E+02  0.60401179727E+02  0.00000000000E+00 0. -1.
</event>
<event>
 4    1  0.8931296E+003  0.2010079E+02  0.7546771E-02  0.1532501E+00
          2   -1    0    0  502    0  0.00000000000E+00  0.00000000000E+00  0.34056228288E+01  0.34056228288E+01  0.00000000000E+00 0. -1.
          2   -1    0    0  501    0 -0.00000000000E+00 -0.00000000000E+00 -0.25245913749E+03  0.25245913749E+03  0.00000000000E+00 0.  1.
          2    1    1    2  501    0  0.39822215686E+01 -0.19702372670E+02 -0.31384927025E+02  0.37270031149E+02  0.00000000000E+00 0. -1.
          2    1    1    2  502    0 -0.39822215686E+01  0.19702372670E+02 -0.21766858764E+03  0.21859472917E+03  0.00000000000E+00 0.  1.
</event>
<event>
 4    1  0.8931296E+003  0.2814276E+02  0.7546771E-02  0.1436455E+00
          2   -1    0    0  502    0  0.00000000000E+00  0.00000000000E+00  0.81275287446E+01  0.81275287446E+01  0.00000000000E+00 0. -1.
          2   -1    0    0  501    0 -0.00000000000E+00 -0.00000000000E+00 -0.98212421302E+03  0.98212421302E+03  0.00000000000E+00 0.  1.
          2    1    1    2  501    0 -0.22260003735E+02  0.17219386391E+02 -0.17077750221E+02  0.32919061144E+02  0.00000000000E+00 0. -1.
          2    1    1    2  502    0  0.22260003735E+02 -0.17219386391E+02 -0.95691893406E+03  0.95733268062E+03  0.00000000000E+00 0.  1.
</event>
<event>
 4    1  0.8931296E+003  0.3529041E+02  0.7546771E-02  0.1378533E+00
          2   -1    0    0  502    0  0.00000000000E+00  0.00000000000E+00  0.42725039690E+03  0.42725039690E+03  0.00000000000E+00 0. -1.
          2   -1    0    0  501    0 -0.00000000000E+00 -0.00000000000E+00 -0.42438697958E+01  0.42438697958E+01  0.00000000000E+00 0.  1.
          2    1    1    2  501    0 -0.34603251514E+02  0.69302064744E+01  0.33223284285E+03  0.33410189261E+03  0.00000000000E+00 0. -1.
          2    1    1    2  502    0  0.34603251514E+02 -0.69302064744E+01  0.90773684260E+02  0.97392374091E+02  0.00000000000E+00 0.  1.
</event>
<event>
 4    1  0.8931296E+003  0.3910417E+02  0.7546771E-02  0.1353817E+00
          2   -1    0    0  501    0  0.00000000000E+00  0.00000000000E+00  0.25324609481E+01  0.25324609481E+01  0.00000000000E+00 0. -1.
          2   -1    0    0  502    0 -0.00000000000E+00 -0.00000000000E+00 -0.13891554271E+04  0.13891554271E+04  0.00000000000E+00 0.  1.
          2    1    1    2  501    0  0.38916083145E+02  0.38307041116E+01 -0.12165089550E+04  0.12171372862E+04  0.00000000000E+00 0.  1.
          2    1    1    2  502    0 -0.38916083145E+02 -0.38307041116E+01 -0.17011401116E+03  0.17455060187E+03  0.00000000000E+00 0. -1.
</event>
<event>
 4    1  0.8931296E+003  0.3441986E+02  0.7546771E-02  0.1384688E+00
          2   -1    0    0  501    0  0.00000000000E+00  0.00000000000E+00  0.80289921149E+02  0.80289921149E+02  0.00000000000E+00 0.  1.
          2   -1    0    0  502    0 -0.00000000000E+00 -0.00000000000E+00 -0.18999601966E+03  0.18999601966E+03  0.00000000000E+00 0. -1.
          2    1    1    2  501    0 -0.33377578878E+02  0.84061777073E+01 -0.18464218529E+03  0.18782295702E+03  0.00000000000E+00 0. -1.
          2    1    1    2  502    0  0.33377578878E+02 -0.84061777073E+01  0.74936086773E+02  0.82462983794E+02  0.00000000000E+00 0.  1.
</event>
<event>
 4    1  0.8931296E+003  0.8672174E+02  0.7546771E-02  0.1189047E+00
          2   -1    0    0  502    0  0.00000000000E+00  0.00000000000E+00  0.10039636103E+04  0.10039636103E+04  0.00000000000E+00 0. -1.
          2   -1    0    0  501    0 -0.00000000000E+00 -0.00000000000E+00 -0.98382953032E+01  0.98382953032E+01  0.00000000000E+00 0. -1.
          2    1    1    2  501    0  0.84752339094E+02 -0.18376660043E+02  0.74466222541E+03  0.74969493167E+03  0.00000000000E+00 0. -1.
          2    1    1    2  502    0 -0.84752339094E+02  0.18376660043E+02  0.24946308963E+03  0.26410697398E+03  0.00000000000E+00 0. -1.
</event>
<event>
 4    1  0.8931296E+003  0.2362639E+02  0.7546771E-02  0.1484779E+00
          2   -1    0    0  502    0  0.00000000000E+00  0.00000000000E+00  0.75341927115E+03  0.75341927115E+03  0.00000000000E+00 0.  1.
          2   -1    0    0  501    0 -0.00000000000E+00 -0.00000000000E+00 -0.20610095502E+03  0.20610095502E+03  0.00000000000E+00 0. -1.
          2    1    1    2  501    0  0.23616567916E+02 -0.68122767977E+00  0.75255616737E+03  0.75292694958E+03  0.00000000000E+00 0.  1.
          2    1    1    2  502    0 -0.23616567916E+02  0.68122767977E+00 -0.20523785124E+03  0.20659327659E+03  0.00000000000E+00 0. -1.
</event>
<event>
 4    1  0.8931296E+003  0.3077363E+02  0.7546771E-02  0.1412990E+00
          2   -1    0    0  502    0  0.00000000000E+00  0.00000000000E+00  0.90326854146E+03  0.90326854146E+03  0.00000000000E+00 0.  1.
          2   -1    0    0  501    0 -0.00000000000E+00 -0.00000000000E+00 -0.19320030628E+01  0.19320030628E+01  0.00000000000E+00 0.  1.
          2    1    1    2  501    0 -0.30732665054E+02 -0.15872918968E+01  0.75674583380E+03  0.75737129148E+03  0.00000000000E+00 0.  1.
          2    1    1    2  502    0  0.30732665054E+02  0.15872918968E+01  0.14459070460E+03  0.14782925304E+03  0.00000000000E+00 0.  1.
</event>
<event>
 4    1  0.8931296E+003  0.2254930E+02  0.7546771E-02  0.1498237E+00
          2   -1    0    0  502    0  0.00000000000E+00  0.00000000000E+00  0.19280772978E+01  0.19280772978E+01  0.00000000000E+00 0.  1.
          2   -1    0    0  501    0 -0.00000000000E+00 -0.00000000000E+00 -0.79274750660E+03  0.79274750660E+03  0.00000000000E+00 0. -1.
          2    1    1    2  501    0  0.50387623734E+01  0.21979121019E+02 -0.70822124612E+02  0.74325259647E+02  0.00000000000E+00 0.  1.
          2    1    1    2  502    0 -0.50387623734E+01 -0.21979121019E+02 -0.71999730469E+03  0.72035032425E+03  0.00000000000E+00 0. -1.
</event>
<event>
 4    1  0.8931296E+003  0.3223121E+02  0.7546771E-02  0.1401149E+00
          2   -1    0    0  501    0  0.00000000000E+00  0.00000000000E+00  0.10860040745E+01  0.10860040745E+01  0.00000000000E+00 0.  1.
          2   -1    0    0  502    0 -0.00000000000E+00 -0.00000000000E+00 -0.17512832360E+04  0.17512832360E+04  0.00000000000E+00 0. -1.
          2    1    1    2  501    0 -0.31120775842E+02 -0.83873992581E+01 -0.14653262982E+04  0.14656807331E+04  0.00000000000E+00 0. -1.
          2    1    1    2  502    0  0.31120775842E+02  0.83873992581E+01 -0.28487093374E+03  0.28668850700E+03  0.00000000000E+00 0.  1.
</event>
<event>
 4    1  0.8931296E+003  0.2398273E+02  0.7546771E-02  0.1480513E+00
          2   -1    0    0  502    0  0.00000000000E+00  0.00000000000E+00  0.60280581876E+01  0.60280581876E+01  0.00000000000E+00 0. -1.
          2   -1    0    0  501    0 -0.00000000000E+00 -0.00000000000E+00 -0.26242781561E+03  0.26242781561E+03  0.00000000000E+00 0. -1.
          2    1    1    2  501    0 -0.23894852500E+02 -0.20512072007E+01 -0.21118990864E+02  0.31955957224E+02  0.00000000000E+00 0. -1.
          2    1    1    2  502    0  0.23894852500E+02  0.20512072007E+01 -0.23528076656E+03  0.23649991657E+03  0.00000000000E+00 0. -1.
</event>
<event>
 4    1  0.8931296E+003  0.3231570E+02  0.7546771E-02  0.1400485E+00
          2   -1    0    0  501    0  0.00000000000E+00  0.00000000000E+00  0.30550791214E+03  0.30550791214E+03  0.00000000000E+00 0.  1.
          2   -1    0    0  502    0 -0.00000000000E+00 -0.00000000000E+00 -0.10081758905E+02  0.10081758905E+02  0.00000000000E+00 0. -1.
          2    1    1    2  501    0 -0.22605981289E+02 -0.23092731324E+02  0.19428074158E+02  0.37706162567E+02  0.00000000000E+00 0. -1.
          2    1    1    2  502    0  0.22605981289E+02  0.23092731324E+02  0.27599807907E+03  0.27788350847E+03  0.00000000000E+00 0.  1.
</event>
<event>
 4    1  0.8931296E+003  0.2079337E+02  0.7546771E-02  0.1522236E+00
          2   -1    0    0  501    0  0.00000000000E+00  0.00000000000E+00  0.22094688316E+00  0.22094688316E+00  0.00000000000E+00 0. -1.
          2   -1    0    0  502    0 -0.00000000000E+00 -0.00000000000E+00 -0.20056371060E+04  0.20056371060E+04  0.00000000000E+00 0.  1.
          2    1    1    2  501    0 -0.78586531430E+01 -0.19251123545E+02 -0.84631758907E+03  0.84657298903E+03  0.00000000000E+00 0. -1.
          2    1    1    2  502    0  0.78586531430E+01  0.19251123545E+02 -0.11590985700E+04  0.11592850638E+04  0.00000000000E+00 0.  1.
</event>
<event>
 4    1  0.8931296E+003  0.2194981E+02  0.7546771E-02  0.1506124E+00
          2   -1    0    0  502    0  0.00000000000E+00  0.00000000000E+00  0.14529039802E+02  0.14529039802E+02  0.00000000000E+00 0.  1.
          2   -1    0    0  501    0 -0.00000000000E+00 -0.00000000000E+00 -0.90779575921E+02  0.90779575921E+02  0.00000000000E+00 0.  1.
          2    1    1    2  501    0 -0.14827462288E+02 -0.16184572049E+02  0.38237689931E+01  0.22280377457E+02  0.00000000000E+00 0.  1.
          2    1    1    2  502    0  0.14827462288E+02  0.16184572049E+02 -0.80074305112E+02  0.83028238266E+02  0.00000000000E+00 0.  1.
</event>
<event>
 4    1  0.8931296E+003  0.3061270E+02  0.7546771E-02  0.1414345E+00
          2   -1    0    0  501    0  0.00000000000E+00  0.00000000000E+00  0.62214783970E+01  0.62214783970E+01  0.00000000000E+00 0. -1.
          2   -1    0    0  502    0 -0.00000000000E+00 -0.00000000000E+00 -0.11234847990E+04  0.11234847990E+04  0.00000000000E+00 0. -1.
          2    1    1    2  501    0  0.22889412569E+02  0.20327617226E+02 -0.10842567709E+04  0.10846888413E+04  0.00000000000E+00 0. -1.
          2    1    1    2  502    0 -0.22889412569E+02 -0.20327617226E+02 -0.33006549774E+02  0.45017436154E+02  0.00000000000E+00 0. -1.
</event>
<event>
 4    1  0.8931296E+003  0.2013631E+02  0.7546771E-02  0.1531962E+00
          2   -1    0    0  501    0  0.00000000000E+00  0.00000000000E+00  0.53863436269E+02  0.53863436269E+02  0.00000000000E+00 0.  1.
          2   -1    0    0  502    0 -0.00000000000E+00 -0.00000000000E+00 -0.14232855144E+02  0.14232855144E+02  0.00000000000E+00 0.  1.
          2    1    1    2  501    0  0.16649530113E+02 -0.11325379819E+02 -0.35542345062E+01  0.20447583328E+02  0.00000000000E+00 0.  1.
          2    1    1    2  502    0 -0.16649530113E+02  0.11325379819E+02  0.43184815631E+02  0.47648708085E+02  0.00000000000E+00 0.  1.
</event>
<event>
 4    1  0.8931296E+003  0.3417178E+02  0.7546771E-02  0.1386481E+00
          2   -1    0    0  501    0  0.00000000000E+00  0.00000000000E+00  0.72996995575E+03  0.72996995575E+03  0.00000000000E+00 0. -1.
          2   -1    0    0  502    0 -0.00000000000E+00 -0.00000000000E+00 -0.18424807725E+03  0.18424807725E+03  0.00000000000E+00 0.  1.
          2    1    1    2  501    0 -0.63282813510E+01  0.33580704662E+02 -0.18225940643E+03  0.18543516954E+03  0.00000000000E+00 0.  1.
          2    1    1    2  502    0  0.63282813510E+01 -0.33580704662E+02  0.72798128493E+03  0.72878286346E+03  0.00000000000E+00 0. -1.
</event>
<event>
 4    1  0.8931296E+003  0.2285146E+02  0.7546771E-02  0.1494372E+00
          2   -1    0    0  501    0  0.00000000000E+00  0.00000000000E+00  0.38961592068E+01  0.38961592068E+01  0.00000000000E+00 0.  1.
          2   -1    0    0  502    0 -0.00000000000E+00 -0.00000000000E+00 -0.15135412698E+04  0.15135412698E+04  0.00000000000E+00 0. -1.
          2    1    1    2  501    0 -0.19325597690E+02  0.12194688081E+02 -0.14791698083E+04  0.14793463120E+04  0.00000000000E+00 0. -1.
          2    1    1    2  502    0  0.19325597690E+02 -0.12194688081E+02 -0.30475302368E+02  0.38091117047E+02  0.00000000000E+00 0.  1.
</event>
<event>
 4    1  0.8931296E+003  0.2023689E+02  0.7546771E-02  0.1530445E+00
          2   -1    0    0  501    0  0.00000000000E+00  0.00000000000E+00  0.29396396875E+01  0.29396396875E+01  0.00000000000E+00 0. -1.
          2   -1    0    0  502    0 -0.00000000000E+00 -0.00000000000E+00 -0.30126527203E+03  0.30126527203E+03  0.00000000000E+00 0.  1.
          2    1    1    2  501    0  0.11482521970E+02  0.16663832616E+02 -0.26068325793E+03  0.26146757465E+03  0.00000000000E+00 0.  1.
          2    1    1    2  502    0 -0.11482521970E+02 -0.16663832616E+02 -0.37642374415E+02  0.42737337070E+02  0.00000000000E+00 0. -1.
</event>
<event>
 4    1  0.8931296E+003  0.2609973E+02  0.7546771E-02  0.1456867E+00
          2   -1    0    0  501    0  0.00000000000E+00  0.00000000000E+00  0.28737883441E+03  0.28737883441E+03  0.00000000000E+00 0.  1.
          2   -1    0    0  502    0 -0.00000000000E+00 -0.00000000000E+00 -0.49436611347E+02  0.49436611347E+02  0.00000000000E+00 0.  1.
          2    1    1    2  501    0 -0.25849624730E+02 -0.36045425533E+01 -0.45349630946E+02  0.52323845928E+02  0.00000000000E+00 0.  1.
          2    1    1    2  502    0  0.25849624730E+02  0.36045425533E+01  0.28329185401E+03  0.28449159983E+03  0.00000000000E+00 0.  1.
</event>
<event>
 4    1  0.8931296E+003  0.2070280E+02  0.7546771E-02  0.1523551E+00
          2   -1    0    0  501    0  0.00000000000E+00  0.00000000000E+00  0.14831668201E+04  0.14831668201E+04  0.00000000000E+00 0.  1.
          2   -1    0    0  502    0 -0.00000000000E+00 -0.00000000000E+00 -0.33345232326E+00  0.33345232326E+00  0.00000000000E+00 0.  1.
          2    1    1    2  501    0 -0.20694529980E+02  0.58518348252E+00  0.47053219029E+03  0.47098741821E+03  0.00000000000E+00 0.  1.
          2    1    1    2  502    0  0.20694529980E+02 -0.58518348252E+00  0.10123011775E+04  0.10125128542E+04  0.00000000000E+00 0.  1.
</event>
<event>
 4    1  0.8931296E+003  0.3014815E+02  0.7546771E-02  0.1418313E+00
          2   -1    0    0  501    0  0.00000000000E+00  0.00000000000E+00  0.14862317389E+04  0.14862317389E+04  0.00000000000E+00 0.  1.
          2   -1    0    0  502    0 -0.00000000000E+00 -0.00000000000E+00 -0.22377859580E+01  0.22377859580E+01  0.00000000000E+00 0.  1.
          2    1    1    2  501    0 -0.23028350757E+01 -0.30060069196E+02  0.13764389963E+04  0.13767691242E+04  0.00000000000E+00 0.  1.
          2    1    1    2  502    0  0.23028350757E+01  0.30060069196E+02  0.10755495666E+03  0.11170040067E+03  0.00000000000E+00 0.  1.
</event>
<event>
 4    1  0.8931296E+003  0.4637254E+02  0.7546771E-02  0.1314715E+00
          2   -1    0    0  501    0  0.00000000000E+00  0.00000000000E+00  0.42927795140E+03  0.42927795140E+03  0.00000000000E+00 0. -1.
          2   -1    0    0  502    0 -0.00000000000E+00 -0.00000000000E+00 -0.72222249871E+01  0.72222249871E+01  0.00000000000E+00 0.  1.
          2    1    1    2  501    0  0.56156447540E+01  0.46031261147E+02  0.90219969564E+02  0.10143991018E+03  0.00000000000E+00 0.  1.
          2    1    1    2  502    0 -0.56156447540E+01 -0.46031261147E+02  0.33183575685E+03  0.33506026621E+03  0.00000000000E+00 0. -1.
</event>
<event>
 4    1  0.8931296E+003  0.9486242E+02  0.7546771E-02  0.1173021E+00
          2   -1    0    0  501    0  0.00000000000E+00  0.00000000000E+00  0.37936389669E+03  0.37936389669E+03  0.00000000000E+00 0. -1.
          2   -1    0    0  502    0 -0.00000000000E+00 -0.00000000000E+00 -0.25559867161E+02  0.25559867161E+02  0.00000000000E+00 0. -1.
          2    1    1    2  501    0 -0.36560173437E+02  0.87534181349E+02  0.12259663851E+03  0.15501230583E+03  0.00000000000E+00 0. -1.
          2    1    1    2  502    0  0.36560173437E+02 -0.87534181349E+02  0.23120739102E+03  0.24991145801E+03  0.00000000000E+00 0. -1.
</event>
<event>
 4    1  0.8931296E+003  0.2122395E+02  0.7546771E-02  0.1516091E+00
          2   -1    0    0  501    0  0.00000000000E+00  0.00000000000E+00  0.93209886158E+03  0.93209886158E+03  0.00000000000E+00 0. -1.
          2   -1    0    0  502    0 -0.00000000000E+00 -0.00000000000E+00 -0.37806336843E+02  0.37806336843E+02  0.00000000000E+00 0.  1.
          2    1    1    2  501    0  0.12392541707E+02 -0.17230236508E+02 -0.34696842257E+02  0.40673418871E+02  0.00000000000E+00 0.  1.
          2    1    1    2  502    0 -0.12392541707E+02  0.17230236508E+02  0.92898936700E+03  0.92923177955E+03  0.00000000000E+00 0. -1.
</event>
<event>
 4    1  0.8931296E+003  0.2848053E+02  0.7546771E-02  0.1433277E+00
          2   -1    0    0  501    0  0.00000000000E+00  0.00000000000E+00  0.14551816210E+03  0.14551816210E+03  0.00000000000E+00 0. -1.
          2   -1    0    0  502    0 -0.00000000000E+00 -0.00000000000E+00 -0.16567950834E+03  0.16567950834E+03  0.00000000000E+00 0.  1.
          2    1    1    2  501    0  0.18346961246E+02  0.21783702820E+02 -0.16303961501E+03  0.16550847941E+03  0.00000000000E+00 0.  1.
          2    1    1    2  502    0 -0.18346961246E+02 -0.21783702820E+02  0.14287826877E+03  0.14568919103E+03  0.00000000000E+00 0. -1.
</event>
<event>
 4    1  0.8931296E+003  0.2459360E+02  0.7546771E-02  0.1473401E+00
          2   -1    0    0  501    0  0.00000000000E+00  0.00000000000E+00  0.28836063251E+02  0.28836063251E+02  0.00000000000E+00 0.  1.
          2   -1    0    0  502    0 -0.00000000000E+00 -0.00000000000E+00 -0.20981430901E+02  0.20981430901E+02  0.00000000000E+00 0. -1.
          2    1    1    2  501    0  0.12592817364E+02  0.21125008845E+02  0.43531428990E+01  0.24975886390E+02  0.00000000000E+00 0. -1.
          2    1    1    2  502    0 -0.12592817364E+02 -0.21125008845E+02  0.35014894505E+01  0.24841607762E+02  0.00000000000E+00 0.  1.
</event>
<event>
 4    1  0.8931296E+003  0.2416658E+02  0.7546771E-02  0.1478347E+00
          2   -1    0    0  502    0  0.00000000000E+00  0.00000000000E+00  0.24317600953E+02  0.24317600953E+02  0.00000000000E+00 0.  1.
          2   -1    0    0  501    0 -0.00000000000E+00 -0.00000000000E+00 -0.67106370877E+02  0.67106370877E+02  0.00000000000E+00 0.  1.
          2    1    1    2  501    0  0.16799456062E+02  0.17372439449E+02  0.15235526476E+02  0.28568245368E+02  0.00000000000E+00 0.  1.
          2    1    1    2  502    0 -0.16799456062E+02 -0.17372439449E+02 -0.58024296400E+02  0.62855726462E+02  0.00000000000E+00 0.  1.
</event>
<event>
 4    1  0.8931296E+003  0.2924725E+02  0.7546771E-02  0.1426253E+00
          2   -1    0    0  501    0  0.00000000000E+00  0.00000000000E+00  0.17243461615E+04  0.17243461615E+04  0.00000000000E+00 0. -1.
          2   -1    0    0  502    0 -0.00000000000E+00 -0.00000000000E+00 -0.72080992501E+01  0.72080992501E+01  0.00000000000E+00 0. -1.
          2    1    1    2  501    0 -0.26673451407E+02 -0.11997021798E+02  0.23115008468E+02  0.37278749422E+02  0.00000000000E+00 0. -1.
          2    1    1    2  502    0  0.26673451407E+02  0.11997021798E+02  0.16940230537E+04  0.16942755113E+04  0.00000000000E+00 0. -1.
</event>
<event>
 4    1  0.8931296E+003  0.3312586E+02  0.7546771E-02  0.1394240E+00
          2   -1    0    0  502    0  0.00000000000E+00  0.00000000000E+00  0.56227430098E+03  0.56227430098E+03  0.00000000000E+00 0.  1.
          2   -1    0    0  501    0 -0.00000000000E+00 -0.00000000000E+00 -0.18792717280E+02  0.18792717280E+02  0.00000000000E+00 0. -1.
          2    1    1    2  501    0 -0.30861337123E+02 -0.12037455045E+02  0.54677528670E+03  0.54777781682E+03  0.00000000000E+00 0.  1.
          2    1    1    2  502    0  0.30861337123E+02  0.12037455045E+02 -0.32937030025E+01  0.33289201439E+02  0.00000000000E+00 0. -1.
</event>
<event>
 4    1  0.8931296E+003  0.2801436E+02  0.7546771E-02  0.1437676E+00
          2   -1    0    0  501    0  0.00000000000E+00  0.00000000000E+00  0.99496261559E+02  0.99496261559E+02  0.00000000000E+00 0.  1.
          2   -1    0    0  502    0 -0.00000000000E+00 -0.00000000000E+00 -0.10936119852E+03  0.10936119852E+03  0.00000000000E+00 0. -1.
          2    1    1    2  501    0  0.17732877147E+02 -0.21687544828E+02 -0.10552471647E+03  0.10917999047E+03  0.00000000000E+00 0. -1.
          2    1    1    2  502    0 -0.17732877147E+02  0.21687544828E+02  0.95659779508E+02  0.99677469611E+02  0.00000000000E+00 0.  1.
</event>
<event>
 4    1  0.8931296E+003  0.2005348E+02  0.7546771E-02  0.1533220E+00
          2   -1    0    0  501    0  0.00000000000E+00  0.00000000000E+00  0.37544562732E+02  0.37544562732E+02  0.00000000000E+00 0.  1.
          2   -1    0    0  502    0 -0.00000000000E+00 -0.00000000000E+00 -0.20569112306E+02  0.20569112306E+02  0.00000000000E+00 0.  1.
          2    1    1    2  501    0 -0.44248765141E+01 -0.19559201048E+02 -0.11628025205E+02  0.23180872460E+02  0.00000000000E+00 0.  1.
          2    1    1    2  502    0  0.44248765141E+01  0.19559201048E+02  0.28603475632E+02  0.34932802579E+02  0.00000000000E+00 0.  1.
</event>
<event>
 4    1  0.8931296E+003  0.3370925E+02  0.7546771E-02  0.1389872E+00
          2   -1    0    0  501    0  0.00000000000E+00  0.00000000000E+00  0.27090542038E+02  0.27090542038E+02  0.00000000000E+00 0. -1.
          2   -1    0    0  502    0 -0.00000000000E+00 -0.00000000000E+00 -0.70164269404E+02  0.70164269404E+02  0.00000000000E+00 0. -1.
          2    1    1    2  501    0  0.30687837089E+02  0.13948842059E+02 -0.52375542613E+02  0.62285720707E+02  0.00000000000E+00 0. -1.
          2    1    1    2  502    0 -0.30687837089E+02 -0.13948842059E+02  0.93018152461E+01  0.34969090735E+02  0.00000000000E+00 0. -1.
</event>
<event>
 4    1  0.8931296E+003  0.2464954E+02  0.7546771E-02  0.1472762E+00
          2   -1    0    0  502    0  0.00000000000E+00  0.00000000000E+00  0.18174543631E+02  0.18174543631E+02  0.00000000000E+00 0. -1.
          2   -1    0    0  501    0 -0.00000000000E+00 -0.00000000000E+00 -0.75089992492E+02  0.75089992492E+02  0.00000000000E+00 0. -1.
          2    1    1    2  501    0 -0.13791456559E+02  0.20430258929E+02  0.62757317895E+01  0.25435891245E+02  0.00000000000E+00 0. -1.
          2    1    1    2  502    0  0.13791456559E+02 -0.20430258929E+02 -0.63191180651E+02  0.67828644878E+02  0.00000000000E+00 0. -1.
</event>
<event>
 4    1  0.8931296E+003  0.2038010E+02  0.7546771E-02  0.1528302E+00
          2   -1    0    0  502    0  0.00000000000E+00  0.00000000000E+00  0.19709782396E+01  0.19709782396E+01  0.00000000000E+00 0.  1.
          2   -1    0    0  501    0 -0.00000000000E+00 -0.00000000000E+00 -0.11011136807E+04  0.11011136807E+04  0.00000000000E+00 0.  1.
          2    1    1    2  501    0  0.13486986680E+02 -0.15279063878E+02 -0.53606583484E+02  0.57349929342E+02  0.00000000000E+00 0.  1.
          2    1    1    2  502    0 -0.13486986680E+02  0.15279063878E+02 -0.10455361189E+04  0.10457347296E+04  0.00000000000E+00 0.  1.
</event>
<event>
 4    1  0.8931296E+003  0.4601319E+02  0.7546771E-02  0.1316449E+00
          2   -1    0    0  502    0  0.00000000000E+00  0.00000000000E+00  0.20071560073E+03  0.20071560073E+03  0.00000000000E+00 0. -1.
          2   -1    0    0  501    0 -0.00000000000E+00 -0.00000000000E+00 -0.15038065178E+02  0.15038065178E+02  0.00000000000E+00 0.  1.
          2    1    1    2  501    0 -0.12345551689E+01 -0.45996627433E+02  0.15178318757E+03  0.15860438169E+03  0.00000000000E+00 0. -1.
          2    1    1    2  502    0  0.12345551689E+01  0.45996627433E+02  0.33894347979E+02  0.57149284218E+02  0.00000000000E+00 0.  1.
</event>
<event>
 4    1  0.8931296E+003  0.2400879E+02  0.7546771E-02  0.1480205E+00
          2   -1    0    0  501    0  0.00000000000E+00  0.00000000000E+00  0.18399979788E+04  0.18399979788E+04  0.00000000000E+00 0.  1.
          2   -1    0    0  502    0 -0.00000000000E+00 -0.00000000000E+00 -0.15639137616E+01  0.15639137616E+01  0.00000000000E+00 0.  1.
          2    1    1    2  501    0 -0.27517922706E+01  0.23850567330E+02  0.95806930830E+02  0.98769377429E+02  0.00000000000E+00 0.  1.
          2    1    1    2  502    0  0.27517922706E+01 -0.23850567330E+02  0.17426271342E+04  0.17427925152E+04  0.00000000000E+00 0.  1.
</event>
<event>
 4    1  0.8931296E+003  0.2189845E+02  0.7546771E-02  0.1506814E+00
          2   -1    0    0  501    0  0.00000000000E+00  0.00000000000E+00  0.77263568359E+03  0.77263568359E+03  0.00000000000E+00 0.  1.
          2   -1    0    0  502    0 -0.00000000000E+00 -0.00000000000E+00 -0.30903007677E+01  0.30903007677E+01  0.00000000000E+00 0. -1.
          2    1    1    2  501    0  0.65716776061E+01  0.20889113457E+02  0.38039756721E+02  0.43892654271E+02  0.00000000000E+00 0. -1.
          2    1    1    2  502    0 -0.65716776061E+01 -0.20889113457E+02  0.73150562610E+03  0.73183333009E+03  0.00000000000E+00 0.  1.
</event>
<event>
 4    1  0.1074621E+004  0.2054377E+02  0.7546771E-02  0.1525879E+00
          2   -1    0    0  501    0  0.00000000000E+00  0.00000000000E+00  0.77820078429E+03  0.77820078429E+03  0.00000000000E+00 0.  1.
          2   -1    0    0  502    0 -0.00000000000E+00 -0.00000000000E+00 -0.12209982829E+04  0.12209982829E+04  0.00000000000E+00 0.  1.
          2    1    1    2  501    0 -0.11688275106E+02  0.16894700682E+02 -0.12207762599E+04  0.12209491076E+04  0.00000000000E+00 0.  1.
          2    1    1    2  502    0  0.11688275106E+02 -0.16894700682E+02  0.77797876124E+03  0.77824995961E+03  0.00000000000E+00 0.  1.
</event>
<event>
 4    1  0.8931296E+003  0.2067942E+02  0.7546771E-02  0.1523891E+00
          2   -1    0    0  502    0  0.00000000000E+00  0.00000000000E+00  0.21336007733E+02  0.21336007733E+02  0.00000000000E+00 0. -1.
          2   -1    0    0  501    0 -0.00000000000E+00 -0.00000000000E+00 -0.21651085358E+02  0.21651085358E+02  0.00000000000E+00 0. -1.
          2    1    1    2  501    0  0.19062596439E+02  0.80159857128E+01  0.57000168187E+01  0.21450613084E+02  0.00000000000E+00 0. -1.
          2    1    1    2  502    0 -0.19062596439E+02 -0.80159857128E+01 -0.60150944437E+01  0.21536480008E+02  0.00000000000E+00 0. -1.
</event>
<event>
 4    1  0.8931296E+003  0.3481789E+02  0.7546771E-02  0.1381848E+00
          2   -1    0    0  502    0  0.00000000000E+00  0.00000000000E+00  0.11264300941E+04  0.11264300941E+04  0.00000000000E+00 0.  1.
          2   -1    0    0  501    0 -0.00000000000E+00 -0.00000000000E+00 -0.11995612478E+01  0.11995612478E+01  0.00000000000E+00 0.  1.
          2    1    1    2  501    0  0.31881769644E+02 -0.13994216415E+02  0.74340819040E+03  0.74422310021E+03  0.00000000000E+00 0.  1.
          2    1    1    2  502    0 -0.31881769644E+02  0.13994216415E+02  0.38182234244E+03  0.38340655512E+03  0.00000000000E+00 0.  1.
</event>
<event>
 4    1  0.8931296E+003  0.3986651E+02  0.7546771E-02  0.1349270E+00
          2   -1    0    0  501    0  0.00000000000E+00  0.00000000000E+00  0.19676484680E+02  0.19676484680E+02  0.00000000000E+00 0.  1.
          2   -1    0    0  502    0 -0.00000000000E+00 -0.00000000000E+00 -0.19820018833E+03  0.19820018833E+03  0.00000000000E+00 0. -1.
          2    1    1    2  501    0 -0.28504438184E+01 -0.39764473522E+02 -0.17311360139E+03  0.17764475047E+03  0.00000000000E+00 0. -1.
          2    1    1    2  502    0  0.28504438184E+01  0.39764473522E+02 -0.54101022586E+01  0.40231922535E+02  0.00000000000E+00 0.  1.
</event>
<event>
 4    1  0.8931296E+003  0.3749834E+02  0.7546771E-02  0.1363804E+00
          2   -1    0    0  501    0  0.00000000000E+00  0.00000000000E+00  0.70580295143E+02  0.70580295143E+02  0.00000000000E+00 0.  1.
          2   -1    0    0  502    0 -0.00000000000E+00 -0.00000000000E+00 -0.88196757822E+02  0.88196757822E+02  0.00000000000E+00 0. -1.
          2    1    1    2  501    0 -0.11578177405E+02  0.35666109130E+02 -0.78657263587E+02  0.87138342006E+02  0.00000000000E+00 0. -1.
          2    1    1    2  502    0  0.11578177405E+02 -0.35666109130E+02  0.61040800908E+02  0.71638710959E+02  0.00000000000E+00 0.  1.
</event>
<event>
 4    1  0.8931296E+003  0.3639320E+02  0.7546771E-02  0.1371025E+00
          2   -1    0    0  502    0  0.00000000000E+00  0.00000000000E+00  0.23311647003E+03  0.23311647003E+03  0.00000000000E+00 0. -1.
          2   -1    0    0  501    0 -0.00000000000E+00 -0.00000000000E+00 -0.22815097153E+03  0.22815097153E+03  0.00000000000E+00 0. -1.
          2    1    1    2  501    0 -0.25632808679E+02  0.25834548924E+02  0.23022667312E+03  0.23308536165E+03  0.00000000000E+00 0. -1.
          2    1    1    2  502    0  0.25632808679E+02 -0.25834548924E+02 -0.22526117462E+03  0.22818207991E+03  0.00000000000E+00 0. -1.
</event>
<event>
 4    1  0.8931296E+003  0.2676695E+02  0.7546771E-02  0.1449963E+00
          2   -1    0    0  502    0  0.00000000000E+00  0.00000000000E+00  0.10232414686E+04  0.10232414686E+04  0.00000000000E+00 0.  1.
          2   -1    0    0  501    0 -0.00000000000E+00 -0.00000000000E+00 -0.70797944529E+00  0.70797944529E+00  0.00000000000E+00 0.  1.
          2    1    1    2  501    0  0.25848478799E+02 -0.69516670195E+01  0.45758512945E+03  0.45836734201E+03  0.00000000000E+00 0.  1.
          2    1    1    2  502    0 -0.25848478799E+02  0.69516670195E+01  0.56494835975E+03  0.56558210608E+03  0.00000000000E+00 0.  1.
</event>
<event>
 4    1  0.8931296E+003  0.2589653E+02  0.7546771E-02  0.1459019E+00
          2   -1    0    0  502    0  0.00000000000E+00  0.00000000000E+00  0.20006134154E+03  0.20006134154E+03  0.00000000000E+00 0.  1.
          2   -1    0    0  501    0 -0.00000000000E+00 -0.00000000000E+00 -0.12794665125E+04  0.12794665125E+04  0.00000000000E+00 0. -1.
          2    1    1    2  501    0  0.21481236377E+02  0.14463296744E+02  0.19909163780E+03  0.20076879914E+03  0.00000000000E+00 0.  1.
          2    1    1    2  502    0 -0.21481236377E+02 -0.14463296744E+02 -0.12784968087E+04  0.12787590549E+04  0.00000000000E+00 0. -1.
</event>
<event>
 4    1  0.8931296E+003  0.2972051E+02  0.7546771E-02  0.1422041E+00
          2   -1    0    0  502    0  0.00000000000E+00  0.00000000000E+00  0.10130744281E+03  0.10130744281E+03  0.00000000000E+00 0.  1.
          2   -1    0    0  501    0 -0.00000000000E+00 -0.00000000000E+00 -0.73099822205E+02  0.73099822205E+02  0.00000000000E+00 0. -1.
          2    1    1    2  501    0  0.28193780812E+02  0.94031606385E+01  0.95941690528E+02  0.10043961712E+03  0.00000000000E+00 0.  1.
          2    1    1    2  502    0 -0.28193780812E+02 -0.94031606385E+01 -0.67734069922E+02  0.73967647892E+02  0.00000000000E+00 0. -1.
</event>
<event>
 4    1  0.8931296E+003  0.2791667E+02  0.7546771E-02  0.1438611E+00
          2   -1    0    0  501    0  0.00000000000E+00  0.00000000000E+00  0.65199254185E+01  0.65199254185E+01  0.00000000000E+00 0.  1.
          2   -1    0    0  502    0 -0.00000000000E+00 -0.00000000000E+00 -0.23290728664E+03  0.23290728664E+03  0.00000000000E+00 0.  1.
          2    1    1    2  501    0  0.22943843067E+02  0.15903478948E+02 -0.19671761117E+03  0.19868859837E+03  0.00000000000E+00 0.  1.
          2    1    1    2  502    0 -0.22943843067E+02 -0.15903478948E+02 -0.29669750056E+02  0.40738613695E+02  0.00000000000E+00 0.  1.
</event>
<event>
 4    1  0.8931296E+003  0.2338593E+02  0.7546771E-02  0.1487708E+00
          2   -1    0    0  501    0  0.00000000000E+00  0.00000000000E+00  0.28006214766E+02  0.28006214766E+02  0.00000000000E+00 0. -1.
          2   -1    0    0  502    0 -0.00000000000E+00 -0.00000000000E+00 -0.32411323515E+03  0.32411323515E+03  0.00000000000E+00 0.  1.
          2    1    1    2  501    0  0.85241556001E+01 -0.21777065456E+02 -0.31872703198E+03  0.31958382738E+03  0.00000000000E+00 0.  1.
          2    1    1    2  502    0 -0.85241556001E+01  0.21777065456E+02  0.22620011601E+02  0.32535622530E+02  0.00000000000E+00 0. -1.
</event>
<event>
 4    1  0.8931296E+003  0.2036328E+02  0.7546771E-02  0.1528553E+00
          2   -1    0    0  502    0  0.00000000000E+00  0.00000000000E+00  0.14609096126E+04  0.14609096126E+04  0.00000000000E+00 0. -1.
          2   -1    0    0  501    0 -0.00000000000E+00 -0.00000000000E+00 -0.86760618852E+01  0.86760618852E+01  0.00000000000E+00 0.  1.
          2    1    1    2  501    0  0.20148748757E+02  0.29480391586E+01  0.14487902265E+04  0.14489333261E+04  0.00000000000E+00 0. -1.
          2    1    1    2  502    0 -0.20148748757E+02 -0.29480391586E+01  0.34433241616E+01  0.20652348356E+02  0.00000000000E+00 0.  1.
</event>
<event>
 4    1  0.8931296E+003  0.2311613E+02  0.7546771E-02  0.1491045E+00
          2   -1    0    0  502    0  0.00000000000E+00  0.00000000000E+00  0.15753284217E+04  0.15753284217E+04  0.00000000000E+00 0.  1.
          2   -1    0    0  501    0 -0.00000000000E+00 -0.00000000000E+00 -0.30861619610E+02  0.30861619610E+02  0.00000000000E+00 0. -1.
          2    1    1    2  501    0  0.13822935282E+02  0.18527864800E+02  0.15709027872E+04  0.15710728571E+04  0.00000000000E+00 0.  1.
          2    1    1    2  502    0 -0.13822935282E+02 -0.18527864800E+02 -0.26435985175E+02  0.35117184198E+02  0.00000000000E+00 0. -1.
</event>
<event>
 4    1  0.8931296E+003  0.2061295E+02  0.7546771E-02  0.1524863E+00
          2   -1    0    0  501    0  0.00000000000E+00  0.00000000000E+00  0.10341635568E+04  0.10341635568E+04  0.00000000000E+00 0.  1.
          2   -1    0    0  502    0 -0.00000000000E+00 -0.00000000000E+00 -0.11059935266E+01  0.11059935266E+01  0.00000000000E+00 0.  1.
          2    1    1    2  501    0 -0.19054357053E+02  0.78629051249E+01  0.10615267466E+03  0.10813548972E+03  0.00000000000E+00 0.  1.
          2    1    1    2  502    0  0.19054357053E+02 -0.78629051249E+01  0.92690488857E+03  0.92713406056E+03  0.00000000000E+00 0.  1.
</event>
<event>
 4    1  0.8931296E+003  0.2214860E+02  0.7546771E-02  0.1503475E+00
          2   -1    0    0  501    0  0.00000000000E+00  0.00000000000E+00  0.13037227779E+04  0.13037227779E+04  0.00000000000E+00 0. -1.
          2   -1    0    0  502    0 -0.00000000000E+00 -0.00000000000E+00 -0.11224909129E+03  0.11224909129E+03  0.00000000000E+00 0. -1.
          2    1    1    2  501    0  0.97811069672E+01 -0.19871847887E+02 -0.11106145505E+03  0.11324843129E+03  0.00000000000E+00 0. -1.
          2    1    1    2  502    0 -0.97811069672E+01  0.19871847887E+02  0.13025351416E+04  0.13027234379E+04  0.00000000000E+00 0. -1.
</event>
<event>
 4    1  0.8931296E+003  0.2193663E+02  0.7546771E-02  0.1506301E+00
          2   -1    0    0  502    0  0.00000000000E+00  0.00000000000E+00  0.35090192353E+02  0.35090192353E+02  0.00000000000E+00 0. -1.
          2   -1    0    0  501    0 -0.00000000000E+00 -0.00000000000E+00 -0.38379995126E+02  0.38379995126E+02  0.00000000000E+00 0. -1.
          2    1    1    2  501    0 -0.83297258676E+01 -0.20293625508E+02  0.27804797430E+02  0.35416413277E+02  0.00000000000E+00 0. -1.
          2    1    1    2  502    0  0.83297258676E+01  0.20293625508E+02 -0.31094600202E+02  0.38053774202E+02  0.00000000000E+00 0. -1.
</event>
<event>
 4    1  0.8931296E+003  0.2143248E+02  0.7546771E-02  0.1513179E+00
          2   -1    0    0  501    0  0.00000000000E+00  0.00000000000E+00  0.81695088084E+01  0.81695088084E+01  0.00000000000E+00 0.  1.
          2   -1    0    0  502    0 -0.00000000000E+00 -0.00000000000E+00 -0.89599631805E+02  0.89599631805E+02  0.00000000000E+00 0. -1.
          2    1    1    2  501    0 -0.78892289105E+01  0.19927653678E+02 -0.70548991036E+02  0.73732702718E+02  0.00000000000E+00 0. -1.
          2    1    1    2  502    0  0.78892289105E+01 -0.19927653678E+02 -0.10881131960E+02  0.24036437895E+02  0.00000000000E+00 0.  1.
</event>
<event>
 4    1  0.8931296E+003  0.4948928E+02  0.7546771E-02  0.1300402E+00
          2   -1    0    0  502    0  0.00000000000E+00  0.00000000000E+00  0.41425087974E+03  0.41425087974E+03  0.00000000000E+00 0. -1.
          2   -1    0    0  501    0 -0.00000000000E+00 -0.00000000000E+00 -0.34565794902E+02  0.34565794902E+02  0.00000000000E+00 0. -1.
          2    1    1    2  501    0 -0.42777230473E+02 -0.24885696236E+02  0.39415942838E+03  0.39725413063E+03  0.00000000000E+00 0. -1.
          2    1    1    2  502    0  0.42777230473E+02  0.24885696236E+02 -0.14474343540E+02  0.51562544012E+02  0.00000000000E+00 0. -1.
</event>
<event>
 4    1  0.8931296E+003  0.8697355E+02  0.7546771E-02  0.1188522E+00
          2   -1    0    0  502    0  0.00000000000E+00  0.00000000000E+00  0.25262576334E+03  0.25262576334E+03  0.00000000000E+00 0. -1.
          2   -1    0    0  501    0 -0.00000000000E+00 -0.00000000000E+00 -0.12858378998E+03  0.12858378998E+03  0.00000000000E+00 0.  1.
          2    1    1    2  501    0  0.14100795531E+02  0.85822876448E+02  0.22896418099E+03  0.24492650884E+03  0.00000000000E+00 0. -1.
          2    1    1    2  502    0 -0.14100795531E+02 -0.85822876448E+02 -0.10492220763E+03  0.13628304447E+03  0.00000000000E+00 0.  1.
</event>
<event>
 4    1  0.8931296E+003  0.3131333E+02  0.7546771E-02  0.1408517E+00
          2   -1    0    0  501    0  0.00000000000E+00  0.00000000000E+00  0.10815584236E+04  0.10815584236E+04  0.00000000000E+00 0. -1.
          2   -1    0    0  502    0 -0.00000000000E+00 -0.00000000000E+00 -0.42328144945E+03  0.42328144945E+03  0.00000000000E+00 0. -1.
          2    1    1    2  501    0  0.31308129138E+02 -0.57070952706E+00 -0.42247525031E+03  0.42363411311E+03  0.00000000000E+00 0. -1.
          2    1    1    2  502    0 -0.31308129138E+02  0.57070952706E+00  0.10807522244E+04  0.10812057599E+04  0.00000000000E+00 0. -1.
</event>
<event>
 4    1  0.8931296E+003  0.2151154E+02  0.7546771E-02  0.1512085E+00
          2   -1    0    0  501    0  0.00000000000E+00  0.00000000000E+00  0.37080153757E+03  0.37080153757E+03  0.00000000000E+00 0. -1.
          2   -1    0    0  502    0 -0.00000000000E+00 -0.00000000000E+00 -0.34468130261E+01  0.34468130261E+01  0.00000000000E+00 0. -1.
          2    1    1    2  501    0  0.21395196819E+02  0.22342817724E+01  0.34219461641E+02  0.40419277789E+02  0.00000000000E+00 0. -1.
          2    1    1    2  502    0 -0.21395196819E+02 -0.22342817724E+01  0.33313526291E+03  0.33382907281E+03  0.00000000000E+00 0. -1.
</event>
<event>
 4    1  0.8931296E+003  0.2054114E+02  0.7546771E-02  0.1525918E+00
          2   -1    0    0  502    0  0.00000000000E+00  0.00000000000E+00  0.75800867777E+03  0.75800867777E+03  0.00000000000E+00 0. -1.
          2   -1    0    0  501    0 -0.00000000000E+00 -0.00000000000E+00 -0.24123573832E+02  0.24123573832E+02  0.00000000000E+00 0. -1.
          2    1    1    2  501    0  0.20117373226E+02 -0.41508506994E+01  0.75347051008E+03  0.75375045461E+03  0.00000000000E+00 0. -1.
          2    1    1    2  502    0 -0.20117373226E+02  0.41508506994E+01 -0.19585406139E+02  0.28381796995E+02  0.00000000000E+00 0. -1.
</event>
<event>
 4    1  0.8931296E+003  0.2822452E+02  0.7546771E-02  0.1435681E+00
          2   -1    0    0  502    0  0.00000000000E+00  0.00000000000E+00  0.16143660248E+02  0.16143660248E+02  0.00000000000E+00 0. -1.
          2   -1    0    0  501    0 -0.00000000000E+00 -0.00000000000E+00 -0.15622933791E+03  0.15622933791E+03  0.00000000000E+00 0.  1.
          2    1    1    2  501    0  0.33538137546E+01  0.28024551875E+02  0.12446201358E+01  0.28251949557E+02  0.00000000000E+00 0. -1.
          2    1    1    2  502    0 -0.33538137546E+01 -0.28024551875E+02 -0.14133029780E+03  0.14412104860E+03  0.00000000000E+00 0.  1.
</event>
<event>
 4    1  0.8931296E+003  0.2530004E+02  0.7546771E-02  0.1465475E+00
          2   -1    0    0  501    0  0.00000000000E+00  0.00000000000E+00  0.52422926007E+02  0.52422926007E+02  0.00000000000E+00 0.  1.
          2   -1    0    0  502    0 -0.00000000000E+00 -0.00000000000E+00 -0.90347312707E+02  0.90347312707E+02  0.00000000000E+00 0.  1.
          2    1    1    2  501    0 -0.98184666788E+01 -0.23317154441E+02 -0.85348556739E+02  0.89019481669E+02  0.00000000000E+00 0.  1.
          2    1    1    2  502    0  0.98184666788E+01  0.23317154441E+02  0.47424170038E+02  0.53750757045E+02  0.00000000000E+00 0.  1.
</event>
<event>
 4    1  0.8931296E+003  0.2312557E+02  0.7546771E-02  0.1490927E+00
          2   -1    0    0  502    0  0.00000000000E+00  0.00000000000E+00  0.12692512129E+01  0.12692512129E+01  0.00000000000E+00 0. -1.
          2   -1    0    0  501    0 -0.00000000000E+00 -0.00000000000E+00 -0.50387583247E+03  0.50387583247E+03  0.00000000000E+00 0.  1.
          2    1    1    2  501    0  0.16030252084E+02  0.16668028610E+02 -0.14908384889E+03  0.15086678283E+03  0.00000000000E+00 0. -1.
          2    1    1    2  502    0 -0.16030252084E+02 -0.16668028610E+02 -0.35352273236E+03  0.35427830086E+03  0.00000000000E+00 0.  1.
</event>
<event>
 4    1  0.8931296E+003  0.2075598E+02  0.7546771E-02  0.1522778E+00
          2   -1    0    0  501    0  0.00000000000E+00  0.00000000000E+00  0.66332317497E+01  0.66332317497E+01  0.00000000000E+00 0.  1.
          2   -1    0    0  502    0 -0.00000000000E+00 -0.00000000000E+00 -0.90026436187E+02  0.90026436187E+02  0.00000000000E+00 0. -1.
          2    1    1    2  501    0  0.14048433859E+02  0.15279139731E+02 -0.67205189914E+02  0.70337388039E+02  0.00000000000E+00 0. -1.
          2    1    1    2  502    0 -0.14048433859E+02 -0.15279139731E+02 -0.16188014524E+02  0.26322279898E+02  0.00000000000E+00 0.  1.
</event>
<event>
 4    1  0.8931296E+003  0.3338276E+02  0.7546771E-02  0.1392304E+00
          2   -1    0    0  502    0  0.00000000000E+00  0.00000000000E+00  0.29648405163E+03  0.29648405163E+03  0.00000000000E+00 0.  1.
          2   -1    0    0  501    0 -0.00000000000E+00 -0.00000000000E+00 -0.20921247005E+02  0.20921247005E+02  0.00000000000E+00 0.  1.
          2    1    1    2  501    0 -0.61652192696E+01 -0.32808513453E+02  0.28152240527E+03  0.28349474978E+03  0.00000000000E+00 0.  1.
          2    1    1    2  502    0  0.61652192696E+01  0.32808513453E+02 -0.59596006474E+01  0.33910548853E+02  0.00000000000E+00 0.  1.
</event>
<event>
 4    1  0.8931296E+003  0.2100266E+02  0.7546771E-02  0.1519227E+00
          2   -1    0    0  502    0  0.00000000000E+00  0.00000000000E+00  0.16929171190E+03  0.16929171190E+03  0.00000000000E+00 0. -1.
          2   -1    0    0  501    0 -0.00000000000E+00 -0.00000000000E+00 -0.31957993709E+01  0.31957993709E+01  0.00000000000E+00 0.  1.
          2    1    1    2  501    0 -0.77390421959E+01 -0.19524825031E+02  0.12010973278E+03  0.12193219212E+03  0.00000000000E+00 0. -1.
          2    1    1    2  502    0  0.77390421959E+01  0.19524825031E+02  0.45986179752E+02  0.50555319154E+02  0.00000000000E+00 0.  1.
</event>
<event>
 4    1  0.8931296E+003  0.3187377E+02  0.7546771E-02  0.1403983E+00
          2   -1    0    0  502    0  0.00000000000E+00  0.00000000000E+00  0.31431129976E+03  0.31431129976E+03  0.00000000000E+00 0. -1.
          2   -1    0    0  501    0 -0.00000000000E+00 -0.00000000000E+00 -0.20539788466E+02  0.20539788466E+02  0.00000000000E+00 0.  1.
          2    1    1    2  501    0  0.31841396680E+02  0.14361159703E+01  0.30057420115E+03  0.30225947027E+03  0.00000000000E+00 0. -1.
          2    1    1    2  502    0 -0.31841396680E+02 -0.14361159703E+01 -0.68026898564E+01  0.32591617955E+02  0.00000000000E+00 0.  1.
</event>
<event>
 4    1  0.8931296E+003  0.2488974E+02  0.7546771E-02  0.1470041E+00
          2   -1    0    0  502    0  0.00000000000E+00  0.00000000000E+00  0.35021630069E+01  0.35021630069E+01  0.00000000000E+00 0.  1.
          2   -1    0    0  501    0 -0.00000000000E+00 -0.00000000000E+00 -0.26577171039E+03  0.26577171039E+03  0.00000000000E+00 0.  1.
          2    1    1    2  501    0 -0.22039517478E+02  0.11565404693E+02 -0.53274640995E+02  0.58802094261E+02  0.00000000000E+00 0.  1.
          2    1    1    2  502    0  0.22039517478E+02 -0.11565404693E+02 -0.20899490639E+03  0.21047177914E+03  0.00000000000E+00 0.  1.
</event>
<event>
 4    1  0.8931296E+003  0.6501447E+02  0.7546771E-02  0.1243685E+00
          2   -1    0    0  502    0  0.00000000000E+00  0.00000000000E+00  0.16419588030E+04  0.16419588030E+04  0.00000000000E+00 0. -1.
          2   -1    0    0  501    0 -0.00000000000E+00 -0.00000000000E+00 -0.96003646395E+01  0.96003646395E+01  0.00000000000E+00 0.  1.
          2    1    1    2  501    0  0.13402402603E+02 -0.63618050570E+02  0.15226213749E+04  0.15240087704E+04  0.00000000000E+00 0. -1.
          2    1    1    2  502    0 -0.13402402603E+02  0.63618050570E+02  0.10973706341E+03  0.12755039725E+03  0.00000000000E+00 0.  1.
</event>
<event>
 4    1  0.8931296E+003  0.2080287E+02  0.7546771E-02  0.1522098E+00
          2   -1    0    0  502    0  0.00000000000E+00  0.00000000000E+00  0.42967995436E+03  0.42967995436E+03  0.00000000000E+00 0. -1.
          2   -1    0    0  501    0 -0.00000000000E+00 -0.00000000000E+00 -0.39285967025E+03  0.39285967025E+03  0.00000000000E+00 0. -1.
          2    1    1    2  501    0 -0.92699125402E+01  0.18623322387E+02  0.42915243374E+03  0.42965634035E+03  0.00000000000E+00 0. -1.
          2    1    1    2  502    0  0.92699125402E+01 -0.18623322387E+02 -0.39233214963E+03  0.39288328426E+03  0.00000000000E+00 0. -1.
</event>
<event>
 4    1  0.8931296E+003  0.2103628E+02  0.7546771E-02  0.1518747E+00
          2   -1    0    0  501    0  0.00000000000E+00  0.00000000000E+00  0.11178940432E+04  0.11178940432E+04  0.00000000000E+00 0. -1.
          2   -1    0    0  502    0 -0.00000000000E+00 -0.00000000000E+00 -0.15023033873E+01  0.15023033873E+01  0.00000000000E+00 0. -1.
          2    1    1    2  501    0  0.18656656023E+02 -0.97187528404E+01  0.77865035705E+02  0.80656610120E+02  0.00000000000E+00 0. -1.
          2    1    1    2  502    0 -0.18656656023E+02  0.97187528404E+01  0.10385267041E+04  0.10387397365E+04  0.00000000000E+00 0. -1.
</event>
<event>
 4    1  0.8931296E+003  0.2047535E+02  0.7546771E-02  0.1526889E+00
          2   -1    0    0  502    0  0.00000000000E+00  0.00000000000E+00  0.15370117093E+03  0.15370117093E+03  0.00000000000E+00 0.  1.
          2   -1    0    0  501    0 -0.00000000000E+00 -0.00000000000E+00 -0.32184099683E+02  0.32184099683E+02  0.00000000000E+00 0. -1.
          2    1    1    2  501    0  0.20193739977E+02 -0.33842157849E+01  0.14967550297E+03  0.15106950798E+03  0.00000000000E+00 0.  1.
          2    1    1    2  502    0 -0.20193739977E+02  0.33842157849E+01 -0.28158431724E+02  0.34815762635E+02  0.00000000000E+00 0. -1.
</event>
<event>
 4    1  0.8931296E+003  0.3531396E+02  0.7546771E-02  0.1378369E+00
          2   -1    0    0  501    0  0.00000000000E+00  0.00000000000E+00  0.92596261632E+02  0.92596261632E+02  0.00000000000E+00 0.  1.
          2   -1    0    0  502    0 -0.00000000000E+00 -0.00000000000E+00 -0.23533207072E+02  0.23533207072E+02  0.00000000000E+00 0. -1.
          2    1    1    2  501    0  0.16089820781E+02 -0.31435541830E+02 -0.34424219450E+01  0.35481345687E+02  0.00000000000E+00 0. -1.
          2    1    1    2  502    0 -0.16089820781E+02  0.31435541830E+02  0.72505476505E+02  0.80648123016E+02  0.00000000000E+00 0.  1.
</event>
<event>
 4    1  0.8931296E+003  0.3010794E+02  0.7546771E-02  0.1418661E+00
          2   -1    0    0  502    0  0.00000000000E+00  0.00000000000E+00  0.29642856819E+03  0.29642856819E+03  0.00000000000E+00 0. -1.
          2   -1    0    0  501    0 -0.00000000000E+00 -0.00000000000E+00 -0.14159832700E+02  0.14159832700E+02  0.00000000000E+00 0. -1.
          2    1    1    2  501    0  0.11475526922E+02  0.27835233669E+02  0.27864076251E+03  0.28026266694E+03  0.00000000000E+00 0. -1.
          2    1    1    2  502    0 -0.11475526922E+02 -0.27835233669E+02  0.36279729835E+01  0.30325733948E+02  0.00000000000E+00 0. -1.
</event>
<event>
 4    1  0.8931296E+003  0.4674928E+02  0.7546771E-02  0.1312917E+00
          2   -1    0    0  502    0  0.00000000000E+00  0.00000000000E+00  0.71939205552E+03  0.71939205552E+03  0.00000000000E+00 0. -1.
          2   -1    0    0  501    0 -0.00000000000E+00 -0.00000000000E+00 -0.81993628909E+01  0.81993628909E+01  0.00000000000E+00 0.  1.
          2    1    1    2  501    0  0.37971656701E+02 -0.27269914122E+02  0.64423253190E+03  0.64592650518E+03  0.00000000000E+00 0. -1.
          2    1    1    2  502    0 -0.37971656701E+02  0.27269914122E+02  0.66960160725E+02  0.81664913232E+02  0.00000000000E+00 0.  1.
</event>
<event>
 4    1  0.8931296E+003  0.3664836E+02  0.7546771E-02  0.1369331E+00
          2   -1    0    0  502    0  0.00000000000E+00  0.00000000000E+00  0.17590747915E+02  0.17590747915E+02  0.00000000000E+00 0.  1.
          2   -1    0    0  501    0 -0.00000000000E+00 -0.00000000000E+00 -0.11931262923E+04  0.11931262923E+04  0.00000000000E+00 0. -1.
          2    1    1    2  501    0 -0.36646521082E+02 -0.36756940151E+00 -0.20990886312E+01  0.36708429383E+02  0.00000000000E+00 0.  1.
          2    1    1    2  502    0  0.36646521082E+02  0.36756940151E+00 -0.11734364557E+04  0.11740086108E+04  0.00000000000E+00 0. -1.
</event>
<event>
 4    1  0.8931296E+003  0.2180458E+02  0.7546771E-02  0.1508081E+00
          2   -1    0    0  502    0  0.00000000000E+00  0.00000000000E+00  0.10123766107E+04  0.10123766107E+04  0.00000000000E+00 0. -1.
          2   -1    0    0  501    0 -0.00000000000E+00 -0.00000000000E+00 -0.49751395013E+00  0.49751395013E+00  0.00000000000E+00 0. -1.
          2    1    1    2  501    0  0.18320520587E+02 -0.11823630414E+02  0.62584002148E+03  0.62621974753E+03  0.00000000000E+00 0. -1.
          2    1    1    2  502    0 -0.18320520587E+02  0.11823630414E+02  0.38603907527E+03  0.38665437712E+03  0.00000000000E+00 0. -1.
</event>
<event>
 4    1  0.8931296E+003  0.2287921E+02  0.7546771E-02  0.1494020E+00
          2   -1    0    0  501    0  0.00000000000E+00  0.00000000000E+00  0.38885078473E+03  0.38885078473E+03  0.00000000000E+00 0.  1.
          2   -1    0    0  502    0 -0.00000000000E+00 -0.00000000000E+00 -0.21437898355E+01  0.21437898355E+01  0.00000000000E+00 0. -1.
          2    1    1    2  501    0  0.18910670279E+02 -0.12878081065E+02  0.74106297073E+02  0.77557731325E+02  0.00000000000E+00 0. -1.
          2    1    1    2  502    0 -0.18910670279E+02  0.12878081065E+02  0.31260069782E+03  0.31343684324E+03  0.00000000000E+00 0.  1.
</event>
<event>
 4    1  0.8931296E+003  0.2628867E+02  0.7546771E-02  0.1454887E+00
          2   -1    0    0  502    0  0.00000000000E+00  0.00000000000E+00  0.57493033924E+03  0.57493033924E+03  0.00000000000E+00 0. -1.
          2   -1    0    0  501    0 -0.00000000000E+00 -0.00000000000E+00 -0.24278199085E+01  0.24278199085E+01  0.00000000000E+00 0.  1.
          2    1    1    2  501    0 -0.18378227088E+02 -0.18797206049E+02  0.49137305580E+03  0.49207578090E+03  0.00000000000E+00 0. -1.
          2    1    1    2  502    0  0.18378227088E+02  0.18797206049E+02  0.81129463531E+02  0.85282378244E+02  0.00000000000E+00 0.  1.
</event>
<event>
 4    1  0.8931296E+003  0.2662542E+02  0.7546771E-02  0.1451408E+00
          2   -1    0    0  502    0  0.00000000000E+00  0.00000000000E+00  0.43822577140E+03  0.43822577140E+03  0.00000000000E+00 0. -1.
          2   -1    0    0  501    0 -0.00000000000E+00 -0.00000000000E+00 -0.63804417134E+01  0.63804417134E+01  0.00000000000E+00 0. -1.
          2    1    1    2  501    0  0.10579646933E+02 -0.24433253221E+02  0.40798809273E+03  0.40885596070E+03  0.00000000000E+00 0. -1.
          2    1    1    2  502    0 -0.10579646933E+02  0.24433253221E+02  0.23857236953E+02  0.35750252408E+02  0.00000000000E+00 0. -1.
</event>
<event>
 4    1  0.8931296E+003  0.2138439E+02  0.7546771E-02  0.1513847E+00
          2   -1    0    0  501    0  0.00000000000E+00  0.00000000000E+00  0.11010091869E+03  0.11010091869E+03  0.00000000000E+00 0.  1.
          2   -1    0    0  502    0 -0.00000000000E+00 -0.00000000000E+00 -0.11650069421E+04  0.11650069421E+04  0.00000000000E+00 0.  1.
          2    1    1    2  501    0 -0.16919830269E+02 -0.13077131017E+02 -0.11638694492E+04  0.11640658859E+04  0.00000000000E+00 0.  1.
          2    1    1    2  502    0  0.16919830269E+02  0.13077131017E+02  0.10896342581E+03  0.11104197483E+03  0.00000000000E+00 0.  1.
</event>
<event>
 4    1  0.8931296E+003  0.4197656E+02  0.7546771E-02  0.1337277E+00
          2   -1    0    0  502    0  0.00000000000E+00  0.00000000000E+00  0.14649134519E+04  0.14649134519E+04  0.00000000000E+00 0.  1.
          2   -1    0    0  501    0 -0.00000000000E+00 -0.00000000000E+00 -0.79262666995E+01  0.79262666995E+01  0.00000000000E+00 0. -1.
          2    1    1    2  501    0  0.15521607854E+02 -0.39001425801E+02  0.14067392768E+04  0.14073654196E+04  0.00000000000E+00 0.  1.
          2    1    1    2  502    0 -0.15521607854E+02  0.39001425801E+02  0.50247908406E+02  0.65474298958E+02  0.00000000000E+00 0. -1.
</event>
<event>
 4    1  0.8931296E+003  0.2076481E+02  0.7546771E-02  0.1522649E+00
          2   -1    0    0  502    0  0.00000000000E+00  0.00000000000E+00  0.28824642277E+03  0.28824642277E+03  0.00000000000E+00 0.  1.
          2   -1    0    0  501    0 -0.00000000000E+00 -0.00000000000E+00 -0.88692742666E+01  0.88692742666E+01  0.00000000000E+00 0.  1.
          2    1    1    2  501    0  0.95153860622E+01 -0.18456298664E+02  0.27514067645E+03  0.27592312221E+03  0.00000000000E+00 0.  1.
          2    1    1    2  502    0 -0.95153860622E+01  0.18456298664E+02  0.42364720512E+01  0.21192574825E+02  0.00000000000E+00 0.  1.
</event>
<event>
 4    1  0.8931296E+003  0.2383071E+02  0.7546771E-02  0.1482322E+00
          2   -1    0    0  502    0  0.00000000000E+00  0.00000000000E+00  0.18350952607E+03  0.18350952607E+03  0.00000000000E+00 0.  1.
          2   -1    0    0  501    0 -0.00000000000E+00 -0.00000000000E+00 -0.96234111312E+02  0.96234111312E+02  0.00000000000E+00 0.  1.
          2    1    1    2  501    0 -0.94646633474E+01 -0.21870593009E+02  0.18124216409E+03  0.18280214641E+03  0.00000000000E+00 0.  1.
          2    1    1    2  502    0  0.94646633474E+01  0.21870593009E+02 -0.93966749330E+02  0.96941490965E+02  0.00000000000E+00 0.  1.
</event>
<event>
 4    1  0.8931296E+003  0.6041854E+02  0.7546771E-02  0.1258417E+00
          2   -1    0    0  501    0  0.00000000000E+00  0.00000000000E+00  0.41846619523E+04  0.41846619523E+04  0.00000000000E+00 0.  1.
          2   -1    0    0  502    0 -0.00000000000E+00 -0.00000000000E+00 -0.87817217115E+00  0.87817217115E+00  0.00000000000E+00 0. -1.
          2    1    1    2  501    0  0.21472242245E+02  0.56474271481E+02  0.22626057797E+04  0.22634123166E+04  0.00000000000E+00 0.  1.
          2    1    1    2  502    0 -0.21472242245E+02 -0.56474271481E+02  0.19211780004E+04  0.19221278078E+04  0.00000000000E+00 0. -1.
</event>
<event>
 4    1  0.8931296E+003  0.2457358E+02  0.7546771E-02  0.1473631E+00
          2   -1    0    0  501    0  0.00000000000E+00  0.00000000000E+00  0.97516010061E+01  0.97516010061E+01  0.00000000000E+00 0.  1.
          2   -1    0    0  502    0 -0.00000000000E+00 -0.00000000000E+00 -0.40874738283E+03  0.40874738283E+03  0.00000000000E+00 0. -1.
          2    1    1    2  501    0  0.16453649842E+02  0.18252071227E+02 -0.39224636141E+03  0.39301535433E+03  0.00000000000E+00 0. -1.
          2    1    1    2  502    0 -0.16453649842E+02 -0.18252071227E+02 -0.67494204180E+01  0.25483629513E+02  0.00000000000E+00 0.  1.
</event>
<event>
 4    1  0.8931296E+003  0.2137800E+02  0.7546771E-02  0.1513936E+00
          2   -1    0    0  502    0  0.00000000000E+00  0.00000000000E+00  0.41951553857E+03  0.41951553857E+03  0.00000000000E+00 0.  1.
          2   -1    0    0  501    0 -0.00000000000E+00 -0.00000000000E+00 -0.11507306604E+02  0.11507306604E+02  0.00000000000E+00 0.  1.
          2    1    1    2  501    0  0.66644712347E+01 -0.20312649324E+02  0.40906071363E+03  0.40961895261E+03  0.00000000000E+00 0.  1.
          2    1    1    2  502    0 -0.66644712347E+01  0.20312649324E+02 -0.10524816631E+01  0.21403892568E+02  0.00000000000E+00 0.  1.
</event>
<event>
 4    1  0.8931296E+003  0.2449678E+02  0.7546771E-02  0.1474512E+00
          2   -1    0    0  501    0  0.00000000000E+00  0.00000000000E+00  0.36767242316E+03  0.36767242316E+03  0.00000000000E+00 0. -1.
          2   -1    0    0  502    0 -0.00000000000E+00 -0.00000000000E+00 -0.33392162410E+03  0.33392162410E+03  0.00000000000E+00 0. -1.
          2    1    1    2  501    0 -0.20378018186E+02  0.13595166025E+02 -0.33306326321E+03  0.33396291630E+03  0.00000000000E+00 0. -1.
          2    1    1    2  502    0  0.20378018186E+02 -0.13595166025E+02  0.36681406228E+03  0.36763113096E+03  0.00000000000E+00 0. -1.
</event>
<event>
 4    1  0.8931296E+003  0.2252338E+02  0.7546771E-02  0.1498571E+00
          2   -1    0    0  502    0  0.00000000000E+00  0.00000000000E+00  0.57954774619E+00  0.57954774619E+00  0.00000000000E+00 0. -1.
          2   -1    0    0  501    0 -0.00000000000E+00 -0.00000000000E+00 -0.11992059585E+04  0.11992059585E+04  0.00000000000E+00 0.  1.
          2    1    1    2  501    0 -0.14997400811E+01 -0.22473396418E+02 -0.28756231071E+03  0.28844303650E+03  0.00000000000E+00 0. -1.
          2    1    1    2  502    0  0.14997400811E+01  0.22473396418E+02 -0.91106410008E+03  0.91134246978E+03  0.00000000000E+00 0.  1.
</event>
<event>
 4    1  0.8931296E+003  0.2368849E+02  0.7546771E-02  0.1484029E+00
          2   -1    0    0  502    0  0.00000000000E+00  0.00000000000E+00  0.13864057648E+02  0.13864057648E+02  0.00000000000E+00 0.  1.
          2   -1    0    0  501    0 -0.00000000000E+00 -0.00000000000E+00 -0.28166209093E+03  0.28166209093E+03  0.00000000000E+00 0.  1.
          2    1    1    2  501    0  0.73607192727E+01 -0.22515867705E+02  0.28357517249E+01  0.23857618795E+02  0.00000000000E+00 0.  1.
          2    1    1    2  502    0 -0.73607192727E+01  0.22515867705E+02 -0.27063378500E+03  0.27166852978E+03  0.00000000000E+00 0.  1.
</event>
<event>
 4    1  0.8931296E+003  0.2337618E+02  0.7546771E-02  0.1487828E+00
          2   -1    0    0  502    0  0.00000000000E+00  0.00000000000E+00  0.56611899487E+03  0.56611899487E+03  0.00000000000E+00 0. -1.
          2   -1    0    0  501    0 -0.00000000000E+00 -0.00000000000E+00 -0.10121247313E+02  0.10121247313E+02  0.00000000000E+00 0.  1.
          2    1    1    2  501    0  0.20188134027E+02 -0.11784952018E+02  0.55203600964E+03  0.55253072475E+03  0.00000000000E+00 0. -1.
          2    1    1    2  502    0 -0.20188134027E+02  0.11784952018E+02  0.39617379125E+01  0.23709517431E+02  0.00000000000E+00 0.  1.
</event>
<event>
 4    1  0.8931296E+003  0.4019381E+02  0.7546771E-02  0.1347354E+00
          2   -1    0    0  502    0  0.00000000000E+00  0.00000000000E+00  0.54307940520E+03  0.54307940520E+03  0.00000000000E+00 0. -1.
          2   -1    0    0  501    0 -0.00000000000E+00 -0.00000000000E+00 -0.24868101519E+02  0.24868101519E+02  0.00000000000E+00 0. -1.
          2    1    1    2  501    0 -0.78748278972E+01  0.39414842721E+02  0.52555379333E+03  0.52708854325E+03  0.00000000000E+00 0. -1.
          2    1    1    2  502    0  0.78748278972E+01 -0.39414842721E+02 -0.73424896532E+01  0.40858963465E+02  0.00000000000E+00 0. -1.
</event>
<event>
 4    1  0.8931296E+003  0.2569957E+02  0.7546771E-02  0.1461127E+00
          2   -1    0    0  502    0  0.00000000000E+00  0.00000000000E+00  0.37088639076E+03  0.37088639076E+03  0.00000000000E+00 0.  1.
          2   -1    0    0  501    0 -0.00000000000E+00 -0.00000000000E+00 -0.32577180325E+01  0.32577180325E+01  0.00000000000E+00 0.  1.
          2    1    1    2  501    0 -0.18232431404E+02 -0.18112053197E+02  0.30977441603E+03  0.31083863475E+03  0.00000000000E+00 0.  1.
          2    1    1    2  502    0  0.18232431404E+02  0.18112053197E+02  0.57854256705E+02  0.63305474051E+02  0.00000000000E+00 0.  1.
</event>
<event>
 4    1  0.8931296E+003  0.2137274E+02  0.7546771E-02  0.1514009E+00
          2   -1    0    0  501    0  0.00000000000E+00  0.00000000000E+00  0.84083821817E+03  0.84083821817E+03  0.00000000000E+00 0.  1.
          2   -1    0    0  502    0 -0.00000000000E+00 -0.00000000000E+00 -0.23794088586E+01  0.23794088586E+01  0.00000000000E+00 0. -1.
          2    1    1    2  501    0 -0.21108009714E+02  0.33535237448E+01  0.48865181456E+02  0.53334793094E+02  0.00000000000E+00 0. -1.
          2    1    1    2  502    0  0.21108009714E+02 -0.33535237448E+01  0.78959362786E+03  0.78988283394E+03  0.00000000000E+00 0.  1.
</event>
<event>
 4    1  0.8931296E+003  0.2730167E+02  0.7546771E-02  0.1444601E+00
          2   -1    0    0  501    0  0.00000000000E+00  0.00000000000E+00  0.47840715456E+03  0.47840715456E+03  0.00000000000E+00 0. -1.
          2   -1    0    0  502    0 -0.00000000000E+00 -0.00000000000E+00 -0.11164486130E+02  0.11164486130E+02  0.00000000000E+00 0.  1.
          2    1    1    2  501    0  0.21149489376E+02 -0.17264995319E+02  0.65574310208E+01  0.28078120767E+02  0.00000000000E+00 0.  1.
          2    1    1    2  502    0 -0.21149489376E+02  0.17264995319E+02  0.46068523741E+03  0.46149351992E+03  0.00000000000E+00 0. -1.
</event>
<event>
 4    1  0.8931296E+003  0.5320218E+02  0.7546771E-02  0.1284855E+00
          2   -1    0    0  501    0  0.00000000000E+00  0.00000000000E+00  0.22691292184E+04  0.22691292184E+04  0.00000000000E+00 0. -1.
          2   -1    0    0  502    0 -0.00000000000E+00 -0.00000000000E+00 -0.50485783770E+01  0.50485783770E+01  0.00000000000E+00 0. -1.
          2    1    1    2  501    0 -0.35802629802E+02  0.39352803402E+02  0.14537466984E+03  0.15480396011E+03  0.00000000000E+00 0. -1.
          2    1    1    2  502    0  0.35802629802E+02 -0.39352803402E+02  0.21187059702E+04  0.21193738367E+04  0.00000000000E+00 0. -1.
</event>
<event>
 4    1  0.8931296E+003  0.4121028E+02  0.7546771E-02  0.1341536E+00
          2   -1    0    0  502    0  0.00000000000E+00  0.00000000000E+00  0.18370551280E+01  0.18370551280E+01  0.00000000000E+00 0. -1.
          2   -1    0    0  501    0 -0.00000000000E+00 -0.00000000000E+00 -0.16333494329E+04  0.16333494329E+04  0.00000000000E+00 0.  1.
          2    1    1    2  501    0 -0.40633048801E+02 -0.68733371371E+01 -0.27713129734E+03  0.28017859194E+03  0.00000000000E+00 0. -1.
          2    1    1    2  502    0  0.40633048801E+02  0.68733371371E+01 -0.13543810804E+04  0.13550078961E+04  0.00000000000E+00 0.  1.
</event>
<event>
 4    1  0.8931296E+003  0.2370818E+02  0.7546771E-02  0.1483792E+00
          2   -1    0    0  501    0  0.00000000000E+00  0.00000000000E+00  0.45786213771E+03  0.45786213771E+03  0.00000000000E+00 0. -1.
          2   -1    0    0  502    0 -0.00000000000E+00 -0.00000000000E+00 -0.77712066237E+01  0.77712066237E+01  0.00000000000E+00 0. -1.
          2    1    1    2  501    0  0.35847381150E+01 -0.23435599549E+02  0.11407714424E+02  0.26309952906E+02  0.00000000000E+00 0. -1.
          2    1    1    2  502    0 -0.35847381150E+01  0.23435599549E+02  0.43868321666E+03  0.43932339143E+03  0.00000000000E+00 0. -1.
</event>
<event>
 4    1  0.8931296E+003  0.3073248E+02  0.7546771E-02  0.1413336E+00
          2   -1    0    0  502    0  0.00000000000E+00  0.00000000000E+00  0.30522191687E+03  0.30522191687E+03  0.00000000000E+00 0. -1.
          2   -1    0    0  501    0 -0.00000000000E+00 -0.00000000000E+00 -0.13235749209E+04  0.13235749209E+04  0.00000000000E+00 0.  1.
          2    1    1    2  501    0 -0.30071906905E+02  0.63376645603E+01  0.30426935746E+03  0.30581747410E+03  0.00000000000E+00 0. -1.
          2    1    1    2  502    0  0.30071906905E+02 -0.63376645603E+01 -0.13226223615E+04  0.13229793637E+04  0.00000000000E+00 0.  1.
</event>
<event>
 4    1  0.8931296E+003  0.4118940E+02  0.7546771E-02  0.1341653E+00
          2   -1    0    0  501    0  0.00000000000E+00  0.00000000000E+00  0.60806324609E+02  0.60806324609E+02  0.00000000000E+00 0. -1.
          2   -1    0    0  502    0 -0.00000000000E+00 -0.00000000000E+00 -0.24714928652E+04  0.24714928652E+04  0.00000000000E+00 0.  1.
          2    1    1    2  501    0  0.37031699339E+02  0.18033847382E+02 -0.24643256787E+04  0.24646698800E+04  0.00000000000E+00 0.  1.
          2    1    1    2  502    0 -0.37031699339E+02 -0.18033847382E+02  0.53639138143E+02  0.67629309830E+02  0.00000000000E+00 0. -1.
</event>
<event>
 4    1  0.8931296E+003  0.2196271E+02  0.7546771E-02  0.1505951E+00
          2   -1    0    0  502    0  0.00000000000E+00  0.00000000000E+00  0.62460131836E+03  0.62460131836E+03  0.00000000000E+00 0. -1.
          2   -1    0    0  501    0 -0.00000000000E+00 -0.00000000000E+00 -0.25831347027E+01  0.25831347027E+01  0.00000000000E+00 0.  1.
          2    1    1    2  501    0 -0.20229740205E+02  0.85509270164E+01  0.57357285379E+03  0.57399318755E+03  0.00000000000E+00 0. -1.
          2    1    1    2  502    0  0.20229740205E+02 -0.85509270164E+01  0.48445329870E+02  0.53191265522E+02  0.00000000000E+00 0.  1.
</event>
<event>
 4    1  0.8931296E+003  0.2316679E+02  0.7546771E-02  0.1490414E+00
          2   -1    0    0  502    0  0.00000000000E+00  0.00000000000E+00  0.43087372141E+03  0.43087372141E+03  0.00000000000E+00 0.  1.
          2   -1    0    0  501    0 -0.00000000000E+00 -0.00000000000E+00 -0.16019712866E+03  0.16019712866E+03  0.00000000000E+00 0. -1.
          2    1    1    2  501    0 -0.29659018730E+01  0.22976148195E+02  0.42972251537E+03  0.43034653498E+03  0.00000000000E+00 0.  1.
          2    1    1    2  502    0  0.29659018730E+01 -0.22976148195E+02 -0.15904592262E+03  0.16072431509E+03  0.00000000000E+00 0. -1.
</event>
<event>
 4    1  0.8931296E+003  0.3820556E+02  0.7546771E-02  0.1359335E+00
          2   -1    0    0  502    0  0.00000000000E+00  0.00000000000E+00  0.87118125354E+03  0.87118125354E+03  0.00000000000E+00 0. -1.
          2   -1    0    0  501    0 -0.00000000000E+00 -0.00000000000E+00 -0.34381100430E+02  0.34381100430E+02  0.00000000000E+00 0.  1.
          2    1    1    2  501    0 -0.28276432288E+02 -0.25692565435E+02  0.86001072635E+03  0.86085893965E+03  0.00000000000E+00 0. -1.
          2    1    1    2  502    0  0.28276432288E+02  0.25692565435E+02 -0.23210573240E+02  0.44703414318E+02  0.00000000000E+00 0.  1.
</event>
<event>
 4    1  0.8931296E+003  0.2252004E+02  0.7546771E-02  0.1498615E+00
          2   -1    0    0  501    0  0.00000000000E+00  0.00000000000E+00  0.83243947196E+02  0.83243947196E+02  0.00000000000E+00 0. -1.
          2   -1    0    0  502    0 -0.00000000000E+00 -0.00000000000E+00 -0.27594633845E+03  0.27594633845E+03  0.00000000000E+00 0.  1.
          2    1    1    2  501    0  0.75150861973E+01  0.21229124530E+02 -0.27395271637E+03  0.27487677794E+03  0.00000000000E+00 0.  1.
          2    1    1    2  502    0 -0.75150861973E+01 -0.21229124530E+02  0.81250325116E+02  0.84313507698E+02  0.00000000000E+00 0. -1.
</event>
<event>
 4    1  0.8931296E+003  0.3771908E+02  0.7546771E-02  0.1362396E+00
          2   -1    0    0  501    0  0.00000000000E+00  0.00000000000E+00  0.29020426131E+02  0.29020426131E+02  0.00000000000E+00 0. -1.
          2   -1    0    0  502    0 -0.00000000000E+00 -0.00000000000E+00 -0.13008682514E+04  0.13008682514E+04  0.00000000000E+00 0.  1.
          2    1    1    2  501    0 -0.36352561955E+02 -0.10060818424E+02 -0.12882182332E+04  0.12887703229E+04  0.00000000000E+00 0.  1.
          2    1    1    2  502    0  0.36352561955E+02  0.10060818424E+02  0.16370407965E+02  0.41118354600E+02  0.00000000000E+00 0. -1.
</event>
<event>
 4    1  0.8931296E+003  0.2904474E+02  0.7546771E-02  0.1428083E+00
          2   -1    0    0  502    0  0.00000000000E+00  0.00000000000E+00  0.11798278057E+02  0.11798278057E+02  0.00000000000E+00 0.  1.
          2   -1    0    0  501    0 -0.00000000000E+00 -0.00000000000E+00 -0.10954458715E+04  0.10954458715E+04  0.00000000000E+00 0.  1.
          2    1    1    2  501    0 -0.55360976031E+01  0.28512253195E+02 -0.65745363256E+01  0.29779548130E+02  0.00000000000E+00 0.  1.
          2    1    1    2  502    0  0.55360976031E+01 -0.28512253195E+02 -0.10770730571E+04  0.10774646014E+04  0.00000000000E+00 0.  1.
</event>
<event>
 4    1  0.8931296E+003  0.2510344E+02  0.7546771E-02  0.1467649E+00
          2   -1    0    0  501    0  0.00000000000E+00  0.00000000000E+00  0.72458891030E+02  0.72458891030E+02  0.00000000000E+00 0.  1.
          2   -1    0    0  502    0 -0.00000000000E+00 -0.00000000000E+00 -0.23901243490E+03  0.23901243490E+03  0.00000000000E+00 0. -1.
          2    1    1    2  501    0 -0.14216029882E+01  0.25063158881E+02 -0.23615274938E+03  0.23748327084E+03  0.00000000000E+00 0. -1.
          2    1    1    2  502    0  0.14216029882E+01 -0.25063158881E+02  0.69599205512E+02  0.73988055090E+02  0.00000000000E+00 0.  1.
</event>
<event>
 4    1  0.8931296E+003  0.9667972E+02  0.7546771E-02  0.1169689E+00
          2   -1    0    0  502    0  0.00000000000E+00  0.00000000000E+00  0.27007209549E+04  0.27007209549E+04  0.00000000000E+00 0.  1.
          2   -1    0    0  501    0 -0.00000000000E+00 -0.00000000000E+00 -0.81293723180E+02  0.81293723180E+02  0.00000000000E+00 0.  1.
          2    1    1    2  501    0 -0.12470942731E+02 -0.95872014855E+02  0.26707892587E+04  0.26725385370E+04  0.00000000000E+00 0.  1.
          2    1    1    2  502    0  0.12470942731E+02  0.95872014855E+02 -0.51362026961E+02  0.10947614105E+03  0.00000000000E+00 0.  1.
</event>
<event>
 4    1  0.8931296E+003  0.2074190E+02  0.7546771E-02  0.1522982E+00
          2   -1    0    0  501    0  0.00000000000E+00  0.00000000000E+00  0.85993686897E+02  0.85993686897E+02  0.00000000000E+00 0. -1.
          2   -1    0    0  502    0 -0.00000000000E+00 -0.00000000000E+00 -0.36555729782E+03  0.36555729782E+03  0.00000000000E+00 0.  1.
          2    1    1    2  501    0 -0.17674004870E+02 -0.10856146716E+02 -0.36400699900E+03  0.36459747899E+03  0.00000000000E+00 0.  1.
          2    1    1    2  502    0  0.17674004870E+02  0.10856146716E+02  0.84443388070E+02  0.86953505728E+02  0.00000000000E+00 0. -1.
</event>
<event>
 4    1  0.8931296E+003  0.3073722E+02  0.7546771E-02  0.1413296E+00
          2   -1    0    0  501    0  0.00000000000E+00  0.00000000000E+00  0.21997538596E+04  0.21997538596E+04  0.00000000000E+00 0.  1.
          2   -1    0    0  502    0 -0.00000000000E+00 -0.00000000000E+00 -0.72883443384E+01  0.72883443384E+01  0.00000000000E+00 0. -1.
          2    1    1    2  501    0 -0.28284194617E+02 -0.12032503790E+02  0.25719806645E+02  0.40078488824E+02  0.00000000000E+00 0. -1.
          2    1    1    2  502    0  0.28284194617E+02  0.12032503790E+02  0.21667457086E+04  0.21669637151E+04  0.00000000000E+00 0.  1.
</event>
<event>
 4    1  0.8931296E+003  0.2744063E+02  0.7546771E-02  0.1443231E+00
          2   -1    0    0  502    0  0.00000000000E+00  0.00000000000E+00  0.46837231592E+02  0.46837231592E+02  0.00000000000E+00 0.  1.
          2   -1    0    0  501    0 -0.00000000000E+00 -0.00000000000E+00 -0.52205329907E+03  0.52205329907E+03  0.00000000000E+00 0.  1.
          2    1    1    2  501    0  0.27006071763E+01  0.27307417390E+02  0.42423217460E+02  0.50524426798E+02  0.00000000000E+00 0.  1.
          2    1    1    2  502    0 -0.27006071763E+01 -0.27307417390E+02 -0.51763928494E+03  0.51836610386E+03  0.00000000000E+00 0.  1.
</event>
<event>
 4    1  0.8931296E+003  0.3434792E+02  0.7546771E-02  0.1385206E+00
          2   -1    0    0  501    0  0.00000000000E+00  0.00000000000E+00  0.16504080702E+03  0.16504080702E+03  0.00000000000E+00 0.  1.
          2   -1    0    0  502    0 -0.00000000000E+00 -0.00000000000E+00 -0.39234864057E+02  0.39234864057E+02  0.00000000000E+00 0. -1.
          2    1    1    2  501    0 -0.14084971691E+02  0.31327195910E+02 -0.29462877263E+02  0.45253074677E+02  0.00000000000E+00 0. -1.
          2    1    1    2  502    0  0.14084971691E+02 -0.31327195910E+02  0.15526882023E+03  0.15902259640E+03  0.00000000000E+00 0.  1.
</event>
<event>
 4    1  0.8931296E+003  0.2289850E+02  0.7546771E-02  0.1493777E+00
          2   -1    0    0  501    0  0.00000000000E+00  0.00000000000E+00  0.40567048462E+02  0.40567048462E+02  0.00000000000E+00 0. -1.
          2   -1    0    0  502    0 -0.00000000000E+00 -0.00000000000E+00 -0.52590761754E+02  0.52590761754E+02  0.00000000000E+00 0.  1.
          2    1    1    2  501    0 -0.17613128813E+02  0.14632810556E+02 -0.46463929237E+02  0.51799982351E+02  0.00000000000E+00 0.  1.
          2    1    1    2  502    0  0.17613128813E+02 -0.14632810556E+02  0.34440215946E+02  0.41357827865E+02  0.00000000000E+00 0. -1.
</event>
<event>
 4    1  0.8931296E+003  0.2406432E+02  0.7546771E-02  0.1479549E+00
          2   -1    0    0  501    0  0.00000000000E+00  0.00000000000E+00  0.13002141981E+02  0.13002141981E+02  0.00000000000E+00 0.  1.
          2   -1    0    0  502    0 -0.00000000000E+00 -0.00000000000E+00 -0.64954290084E+02  0.64954290084E+02  0.00000000000E+00 0. -1.
          2    1    1    2  501    0 -0.14532426523E+02  0.19180726554E+02 -0.47828747540E+02  0.53541393175E+02  0.00000000000E+00 0. -1.
          2    1    1    2  502    0  0.14532426523E+02 -0.19180726554E+02 -0.41234005626E+01  0.24415038890E+02  0.00000000000E+00 0.  1.
</event>
<event>
 4    1  0.8931296E+003  0.2048030E+02  0.7546771E-02  0.1526816E+00
          2   -1    0    0  501    0  0.00000000000E+00  0.00000000000E+00  0.41983872266E+02  0.41983872266E+02  0.00000000000E+00 0. -1.
          2   -1    0    0  502    0 -0.00000000000E+00 -0.00000000000E+00 -0.12950738359E+02  0.12950738359E+02  0.00000000000E+00 0.  1.
          2    1    1    2  501    0  0.13301023216E+02 -0.15573227545E+02  0.13846746993E+01  0.20527054314E+02  0.00000000000E+00 0.  1.
          2    1    1    2  502    0 -0.13301023216E+02  0.15573227545E+02  0.27648459207E+02  0.34407556311E+02  0.00000000000E+00 0. -1.
</event>
<event>
 4    1  0.8931296E+003  0.3742951E+02  0.7546771E-02  0.1364245E+00
          2   -1    0    0  501    0  0.00000000000E+00  0.00000000000E+00  0.76835807400E+01  0.76835807400E+01  0.00000000000E+00 0. -1.
          2   -1    0    0  502    0 -0.00000000000E+00 -0.00000000000E+00 -0.79056811818E+03  0.79056811818E+03  0.00000000000E+00 0.  1.
          2    1    1    2  501    0  0.30514927691E+01  0.37304916556E+02 -0.74152931602E+03  0.74247336310E+03  0.00000000000E+00 0.  1.
          2    1    1    2  502    0 -0.30514927691E+01 -0.37304916556E+02 -0.41355221422E+02  0.55778335814E+02  0.00000000000E+00 0. -1.
</event>
<event>
 4    1  0.8931296E+003  0.2502299E+02  0.7546771E-02  0.1468546E+00
          2   -1    0    0  502    0  0.00000000000E+00  0.00000000000E+00  0.48696221054E+02  0.48696221054E+02  0.00000000000E+00 0. -1.
          2   -1    0    0  501    0 -0.00000000000E+00 -0.00000000000E+00 -0.11486155078E+03  0.11486155078E+03  0.00000000000E+00 0. -1.
          2    1    1    2  501    0  0.19946560380E+02 -0.15109100760E+02  0.43982990656E+02  0.50602901733E+02  0.00000000000E+00 0. -1.
          2    1    1    2  502    0 -0.19946560380E+02  0.15109100760E+02 -0.11014832038E+03  0.11295487010E+03  0.00000000000E+00 0. -1.
</event>
<event>
 4    1  0.8931296E+003  0.1042492E+03  0.7546771E-02  0.1156642E+00
          2   -1    0    0  501    0  0.00000000000E+00  0.00000000000E+00  0.19723261304E+03  0.19723261304E+03  0.00000000000E+00 0. -1.
          2   -1    0    0  502    0 -0.00000000000E+00 -0.00000000000E+00 -0.26740763873E+04  0.26740763873E+04  0.00000000000E+00 0. -1.
          2    1    1    2  501    0 -0.50192838167E+02  0.91370560747E+02 -0.26592078651E+04  0.26612505275E+04  0.00000000000E+00 0. -1.
          2    1    1    2  502    0  0.50192838167E+02 -0.91370560747E+02  0.18236409085E+03  0.21005847282E+03  0.00000000000E+00 0. -1.
</event>
<event>
 4    1  0.8931296E+003  0.2871681E+02  0.7546771E-02  0.1431085E+00
          2   -1    0    0  501    0  0.00000000000E+00  0.00000000000E+00  0.93801497879E+00  0.93801497879E+00  0.00000000000E+00 0.  1.
          2   -1    0    0  502    0 -0.00000000000E+00 -0.00000000000E+00 -0.21317740887E+04  0.21317740887E+04  0.00000000000E+00 0. -1.
          2    1    1    2  501    0  0.24428542807E+02  0.15096408989E+02 -0.18828321637E+04  0.18830511442E+04  0.00000000000E+00 0. -1.
          2    1    1    2  502    0 -0.24428542807E+02 -0.15096408989E+02 -0.24800391010E+03  0.24966095949E+03  0.00000000000E+00 0.  1.
</event>
<event>
 4    1  0.8931296E+003  0.3974302E+02  0.7546771E-02  0.1349998E+00
          2   -1    0    0  501    0  0.00000000000E+00  0.00000000000E+00  0.62531103957E+03  0.62531103957E+03  0.00000000000E+00 0. -1.
          2   -1    0    0  502    0 -0.00000000000E+00 -0.00000000000E+00 -0.97681293459E+01  0.97681293459E+01  0.00000000000E+00 0.  1.
          2    1    1    2  501    0  0.34742530661E+02  0.19299329053E+02  0.34353733829E+02  0.52532719010E+02  0.00000000000E+00 0.  1.
          2    1    1    2  502    0 -0.34742530661E+02 -0.19299329053E+02  0.58118917639E+03  0.58254644990E+03  0.00000000000E+00 0. -1.
</event>
<event>
 4    1  0.8931296E+003  0.2352608E+02  0.7546771E-02  0.1485996E+00
          2   -1    0    0  501    0  0.00000000000E+00  0.00000000000E+00  0.87051757045E+01  0.87051757045E+01  0.00000000000E+00 0.  1.
          2   -1    0    0  502    0 -0.00000000000E+00 -0.00000000000E+00 -0.32725780467E+03  0.32725780467E+03  0.00000000000E+00 0.  1.
          2    1    1    2  501    0 -0.14508817641E+02  0.18519462067E+02 -0.31005956364E+03  0.31095081487E+03  0.00000000000E+00 0.  1.
          2    1    1    2  502    0  0.14508817641E+02 -0.18519462067E+02 -0.84930653278E+01  0.25012165505E+02  0.00000000000E+00 0.  1.
</event>
<event>
 4    1  0.8931296E+003  0.3200646E+02  0.7546771E-02  0.1402926E+00
          2   -1    0    0  502    0  0.00000000000E+00  0.00000000000E+00  0.20800663226E+03  0.20800663226E+03  0.00000000000E+00 0. -1.
          2   -1    0    0  501    0 -0.00000000000E+00 -0.00000000000E+00 -0.12158645590E+04  0.12158645590E+04  0.00000000000E+00 0.  1.
          2    1    1    2  501    0 -0.21277255724E+01  0.31935655635E+02  0.20656330772E+03  0.20902825984E+03  0.00000000000E+00 0. -1.
          2    1    1    2  502    0  0.21277255724E+01 -0.31935655635E+02 -0.12144212344E+04  0.12148429314E+04  0.00000000000E+00 0.  1.
</event>
<event>
 4    1  0.8931296E+003  0.2028497E+02  0.7546771E-02  0.1529723E+00
          2   -1    0    0  502    0  0.00000000000E+00  0.00000000000E+00  0.96221796267E+03  0.96221796267E+03  0.00000000000E+00 0. -1.
          2   -1    0    0  501    0 -0.00000000000E+00 -0.00000000000E+00 -0.60360137370E+00  0.60360137370E+00  0.00000000000E+00 0. -1.
          2    1    1    2  501    0  0.18119678387E+02 -0.91190562807E+01  0.74073524201E+03  0.74101294098E+03  0.00000000000E+00 0. -1.
          2    1    1    2  502    0 -0.18119678387E+02  0.91190562807E+01  0.22087911928E+03  0.22180862307E+03  0.00000000000E+00 0. -1.
</event>
<event>
 4    1  0.8931296E+003  0.3717419E+02  0.7546771E-02  0.1365891E+00
          2   -1    0    0  502    0  0.00000000000E+00  0.00000000000E+00  0.10548083569E+02  0.10548083569E+02  0.00000000000E+00 0. -1.
          2   -1    0    0  501    0 -0.00000000000E+00 -0.00000000000E+00 -0.69083921537E+03  0.69083921537E+03  0.00000000000E+00 0. -1.
          2    1    1    2  501    0  0.22712654350E+01 -0.37104738715E+02 -0.24451363082E+02  0.44494824849E+02  0.00000000000E+00 0. -1.
          2    1    1    2  502    0 -0.22712654350E+01  0.37104738715E+02 -0.65583976872E+03  0.65689247409E+03  0.00000000000E+00 0. -1.
</event>
<event>
 4    1  0.8931296E+003  0.2402527E+02  0.7546771E-02  0.1480010E+00
          2   -1    0    0  501    0  0.00000000000E+00  0.00000000000E+00  0.15300134004E+03  0.15300134004E+03  0.00000000000E+00 0.  1.
          2   -1    0    0  502    0 -0.00000000000E+00 -0.00000000000E+00 -0.64582215890E+01  0.64582215890E+01  0.00000000000E+00 0.  1.
          2    1    1    2  501    0 -0.15068696811E+02 -0.18712245863E+02  0.21857010750E+02  0.32479881277E+02  0.00000000000E+00 0.  1.
          2    1    1    2  502    0  0.15068696811E+02  0.18712245863E+02  0.12468610770E+03  0.12697968036E+03  0.00000000000E+00 0.  1.
</event>
<event>
 4    1  0.8931296E+003  0.2198569E+02  0.7546771E-02  0.1505643E+00
          2   -1    0    0  501    0  0.00000000000E+00  0.00000000000E+00  0.56419215866E+01  0.56419215866E+01  0.00000000000E+00 0.  1.
          2   -1    0    0  502    0 -0.00000000000E+00 -0.00000000000E+00 -0.73987745342E+03  0.73987745342E+03  0.00000000000E+00 0.  1.
          2    1    1    2  501    0  0.25875362987E+01 -0.21832895666E+02 -0.71763161571E+03  0.71796831862E+03  0.00000000000E+00 0.  1.
          2    1    1    2  502    0 -0.25875362987E+01  0.21832895666E+02 -0.16603916120E+02  0.27551056382E+02  0.00000000000E+00 0.  1.
</event>
<event>
 4    1  0.8931296E+003  0.2212609E+02  0.7546771E-02  0.1503773E+00
          2   -1    0    0  501    0  0.00000000000E+00  0.00000000000E+00  0.52877855112E+03  0.52877855112E+03  0.00000000000E+00 0.  1.
          2   -1    0    0  502    0 -0.00000000000E+00 -0.00000000000E+00 -0.48341641194E+02  0.48341641194E+02  0.00000000000E+00 0.  1.
          2    1    1    2  501    0 -0.20994593352E+02 -0.69850557705E+01 -0.45565030521E+02  0.50653094284E+02  0.00000000000E+00 0.  1.
          2    1    1    2  502    0  0.20994593352E+02  0.69850557705E+01  0.52600194045E+03  0.52646709803E+03  0.00000000000E+00 0.  1.
</event>
<event>
 4    1  0.8931296E+003  0.2205735E+02  0.7546771E-02  0.1504687E+00
          2   -1    0    0  502    0  0.00000000000E+00  0.00000000000E+00  0.97510110103E+00  0.97510110103E+00  0.00000000000E+00 0.  1.
          2   -1    0    0  501    0 -0.00000000000E+00 -0.00000000000E+00 -0.15122513821E+04  0.15122513821E+04  0.00000000000E+00 0. -1.
          2    1    1    2  501    0 -0.76128381541E-01  0.22057219796E+02 -0.13629511694E+03  0.13806840928E+03  0.00000000000E+00 0.  1.
          2    1    1    2  502    0  0.76128381541E-01 -0.22057219796E+02 -0.13749811641E+04  0.13751580740E+04  0.00000000000E+00 0. -1.
</event>
<event>
 4    1  0.8931296E+003  0.2847461E+02  0.7546771E-02  0.1433332E+00
          2   -1    0    0  502    0  0.00000000000E+00  0.00000000000E+00  0.10399243956E+04  0.10399243956E+04  0.00000000000E+00 0.  1.
          2   -1    0    0  501    0 -0.00000000000E+00 -0.00000000000E+00 -0.97284000258E+01  0.97284000258E+01  0.00000000000E+00 0. -1.
          2    1    1    2  501    0  0.14470207027E+02  0.24523795333E+02  0.10184543271E+04  0.10188523052E+04  0.00000000000E+00 0.  1.
          2    1    1    2  502    0 -0.14470207027E+02 -0.24523795333E+02  0.11741668401E+02  0.30800490350E+02  0.00000000000E+00 0. -1.
</event>
<event>
 4    1  0.8931296E+003  0.3415788E+02  0.7546771E-02  0.1386582E+00
          2   -1    0    0  502    0  0.00000000000E+00  0.00000000000E+00  0.67632594032E+01  0.67632594032E+01  0.00000000000E+00 0.  1.
          2   -1    0    0  501    0 -0.00000000000E+00 -0.00000000000E+00 -0.10167147216E+04  0.10167147216E+04  0.00000000000E+00 0. -1.
          2    1    1    2  501    0  0.33882657655E+02  0.43273957044E+01 -0.38669023243E+02  0.51595098623E+02  0.00000000000E+00 0.  1.
          2    1    1    2  502    0 -0.33882657655E+02 -0.43273957044E+01 -0.97128243900E+03  0.97188288242E+03  0.00000000000E+00 0. -1.
</event>
<event>
 4    1  0.8931296E+003  0.2431818E+02  0.7546771E-02  0.1476577E+00
          2   -1    0    0  501    0  0.00000000000E+00  0.00000000000E+00  0.61143648390E+01  0.61143648390E+01  0.00000000000E+00 0.  1.
          2   -1    0    0  502    0 -0.00000000000E+00 -0.00000000000E+00 -0.19106574146E+03  0.19106574146E+03  0.00000000000E+00 0. -1.
          2    1    1    2  501    0 -0.11446218647E+02 -0.21455949262E+02 -0.16175534603E+03  0.16357312019E+03  0.00000000000E+00 0. -1.
          2    1    1    2  502    0  0.11446218647E+02  0.21455949262E+02 -0.23196030592E+02  0.33606986108E+02  0.00000000000E+00 0.  1.
</event>
<event>
 4    1  0.8931296E+003  0.2190384E+02  0.7546771E-02  0.1506741E+00
          2   -1    0    0  501    0  0.00000000000E+00  0.00000000000E+00  0.32029655900E+03  0.32029655900E+03  0.00000000000E+00 0. -1.
          2   -1    0    0  502    0 -0.00000000000E+00 -0.00000000000E+00 -0.20671844973E+01  0.20671844973E+01  0.00000000000E+00 0. -1.
          2    1    1    2  501    0  0.13307670593E+02  0.17397815847E+02  0.74531459397E+02  0.77683437957E+02  0.00000000000E+00 0. -1.
          2    1    1    2  502    0 -0.13307670593E+02 -0.17397815847E+02  0.24369791511E+03  0.24468030554E+03  0.00000000000E+00 0. -1.
</event>
<event>
 4    1  0.8931296E+003  0.2886453E+02  0.7546771E-02  0.1429727E+00
          2   -1    0    0  502    0  0.00000000000E+00  0.00000000000E+00  0.20247205576E+01  0.20247205576E+01  0.00000000000E+00 0.  1.
          2   -1    0    0  501    0 -0.00000000000E+00 -0.00000000000E+00 -0.10641834385E+04  0.10641834385E+04  0.00000000000E+00 0.  1.
          2    1    1    2  501    0 -0.20005212775E+02  0.20807508725E+02 -0.11357890447E+03  0.11718928491E+03  0.00000000000E+00 0.  1.
          2    1    1    2  502    0  0.20005212775E+02 -0.20807508725E+02 -0.94857981342E+03  0.94901887410E+03  0.00000000000E+00 0.  1.
</event>
<event>
 4    1  0.8931296E+003  0.2821718E+02  0.7546771E-02  0.1435750E+00
          2   -1    0    0  502    0  0.00000000000E+00  0.00000000000E+00  0.61330698740E+03  0.61330698740E+03  0.00000000000E+00 0.  1.
          2   -1    0    0  501    0 -0.00000000000E+00 -0.00000000000E+00 -0.17814393032E+02  0.17814393032E+02  0.00000000000E+00 0. -1.
          2    1    1    2  501    0 -0.53017593568E+01  0.27714628413E+02  0.60159126922E+03  0.60225265834E+03  0.00000000000E+00 0.  1.
          2    1    1    2  502    0  0.53017593568E+01 -0.27714628413E+02 -0.60986748478E+01  0.28868722092E+02  0.00000000000E+00 0. -1.
</event>
<event>
 4    1  0.8931296E+003  0.2018051E+02  0.7546771E-02  0.1531294E+00
          2   -1    0    0  502    0  0.00000000000E+00  0.00000000000E+00  0.12640605045E+02  0.12640605045E+02  0.00000000000E+00 0. -1.
          2   -1    0    0  501    0 -0.00000000000E+00 -0.00000000000E+00 -0.21538867352E+03  0.21538867352E+03  0.00000000000E+00 0. -1.
          2    1    1    2  501    0 -0.20179228047E+02  0.22737680231E+00  0.37682364408E+01  0.20529309551E+02  0.00000000000E+00 0. -1.
          2    1    1    2  502    0  0.20179228047E+02 -0.22737680231E+00 -0.20651630491E+03  0.20749996901E+03  0.00000000000E+00 0. -1.
</event>
<event>
 4    1  0.8931296E+003  0.2519636E+02  0.7546771E-02  0.1466619E+00
          2   -1    0    0  502    0  0.00000000000E+00  0.00000000000E+00  0.71167453237E+02  0.71167453237E+02  0.00000000000E+00 0. -1.
          2   -1    0    0  501    0 -0.00000000000E+00 -0.00000000000E+00 -0.54344029155E+03  0.54344029155E+03  0.00000000000E+00 0.  1.
          2    1    1    2  501    0 -0.15966218815E+02 -0.19491960912E+02  0.68634811332E+02  0.73113569261E+02  0.00000000000E+00 0. -1.
          2    1    1    2  502    0  0.15966218815E+02  0.19491960912E+02 -0.54090764964E+03  0.54149417552E+03  0.00000000000E+00 0.  1.
</event>
<event>
 4    1  0.8931296E+003  0.2052059E+02  0.7546771E-02  0.1526221E+00
          2   -1    0    0  502    0  0.00000000000E+00  0.00000000000E+00  0.74089652196E+01  0.74089652196E+01  0.00000000000E+00 0. -1.
          2   -1    0    0  501    0 -0.00000000000E+00 -0.00000000000E+00 -0.14133352268E+04  0.14133352268E+04  0.00000000000E+00 0.  1.
          2    1    1    2  501    0 -0.19656053064E+02  0.58935852318E+01 -0.70210416085E+01  0.21688471459E+02  0.00000000000E+00 0. -1.
          2    1    1    2  502    0  0.19656053064E+02 -0.58935852318E+01 -0.13989052200E+04  0.13990557206E+04  0.00000000000E+00 0.  1.
</event>
<event>
 4    1  0.8931296E+003  0.2344329E+02  0.7546771E-02  0.1487005E+00
          2   -1    0    0  502    0  0.00000000000E+00  0.00000000000E+00  0.46554582084E+03  0.46554582084E+03  0.00000000000E+00 0. -1.
          2   -1    0    0  501    0 -0.00000000000E+00 -0.00000000000E+00 -0.89557321715E+01  0.89557321715E+01  0.00000000000E+00 0. -1.
          2    1    1    2  501    0  0.13324191192E+02 -0.19288696338E+02  0.44935654554E+03  0.44996765761E+03  0.00000000000E+00 0. -1.
          2    1    1    2  502    0 -0.13324191192E+02  0.19288696338E+02  0.72335431309E+01  0.24533895402E+02  0.00000000000E+00 0. -1.
</event>
<event>
 4    1  0.8931296E+003  0.2712775E+02  0.7546771E-02  0.1446329E+00
          2   -1    0    0  501    0  0.00000000000E+00  0.00000000000E+00  0.14913443650E+03  0.14913443650E+03  0.00000000000E+00 0. -1.
          2   -1    0    0  502    0 -0.00000000000E+00 -0.00000000000E+00 -0.61435730276E+02  0.61435730276E+02  0.00000000000E+00 0.  1.
          2    1    1    2  501    0 -0.24228079946E+02 -0.12203063897E+02 -0.57118938515E+02  0.63233596793E+02  0.00000000000E+00 0.  1.
          2    1    1    2  502    0  0.24228079946E+02  0.12203063897E+02  0.14481764473E+03  0.14733656998E+03  0.00000000000E+00 0. -1.
</event>
<event>
 4    1  0.8931296E+003  0.2542217E+02  0.7546771E-02  0.1464136E+00
          2   -1    0    0  502    0  0.00000000000E+00  0.00000000000E+00  0.34120006878E+01  0.34120006878E+01  0.00000000000E+00 0. -1.
          2   -1    0    0  501    0 -0.00000000000E+00 -0.00000000000E+00 -0.28524445074E+03  0.28524445074E+03  0.00000000000E+00 0. -1.
          2    1    1    2  501    0  0.24008455058E+02  0.83594685374E+01 -0.57261495839E+02  0.62651141523E+02  0.00000000000E+00 0. -1.
          2    1    1    2  502    0 -0.24008455058E+02 -0.83594685374E+01 -0.22457095421E+03  0.22600530991E+03  0.00000000000E+00 0. -1.
</event>
<event>
 4    1  0.8931296E+003  0.2126113E+02  0.7546771E-02  0.1515569E+00
          2   -1    0    0  502    0  0.00000000000E+00  0.00000000000E+00  0.13101485173E+03  0.13101485173E+03  0.00000000000E+00 0.  1.
          2   -1    0    0  501    0 -0.00000000000E+00 -0.00000000000E+00 -0.23095092077E+03  0.23095092077E+03  0.00000000000E+00 0. -1.
          2    1    1    2  501    0  0.20997854820E+02 -0.33355538906E+01  0.12965787835E+03  0.13138950203E+03  0.00000000000E+00 0.  1.
          2    1    1    2  502    0 -0.20997854820E+02  0.33355538906E+01 -0.22959394738E+03  0.23057627047E+03  0.00000000000E+00 0. -1.
</event>
<event>
 4    1  0.8931296E+003  0.3657473E+02  0.7546771E-02  0.1369818E+00
          2   -1    0    0  502    0  0.00000000000E+00  0.00000000000E+00  0.18845984443E+02  0.18845984443E+02  0.00000000000E+00 0. -1.
          2   -1    0    0  501    0 -0.00000000000E+00 -0.00000000000E+00 -0.22714613244E+03  0.22714613244E+03  0.00000000000E+00 0. -1.
          2    1    1    2  501    0  0.31445568485E+02 -0.18678525744E+02 -0.21664966275E+01  0.36638842898E+02  0.00000000000E+00 0. -1.
          2    1    1    2  502    0 -0.31445568485E+02  0.18678525744E+02 -0.20613365137E+03  0.20935327399E+03  0.00000000000E+00 0. -1.
</event>
<event>
 4    1  0.8931296E+003  0.2130230E+02  0.7546771E-02  0.1514992E+00
          2   -1    0    0  501    0  0.00000000000E+00  0.00000000000E+00  0.90783920553E+02  0.90783920553E+02  0.00000000000E+00 0.  1.
          2   -1    0    0  502    0 -0.00000000000E+00 -0.00000000000E+00 -0.86368897700E+03  0.86368897700E+03  0.00000000000E+00 0. -1.
          2    1    1    2  501    0 -0.18003038575E+02  0.11387658665E+02 -0.86230598331E+03  0.86256906797E+03  0.00000000000E+00 0. -1.
          2    1    1    2  502    0  0.18003038575E+02 -0.11387658665E+02  0.89400926863E+02  0.91903829582E+02  0.00000000000E+00 0.  1.
</event>
<event>
 4    1  0.8931296E+003  0.2632216E+02  0.7546771E-02  0.1454539E+00
          2   -1    0    0  501    0  0.00000000000E+00  0.00000000000E+00  0.13054218273E+03  0.13054218273E+03  0.00000000000E+00 0. -1.
          2   -1    0    0  502    0 -0.00000000000E+00 -0.00000000000E+00 -0.53376053554E+02  0.53376053554E+02  0.00000000000E+00 0. -1.
          2    1    1    2  501    0  0.31312438129E+00  0.26320299563E+02 -0.48684322083E+02  0.55344551969E+02  0.00000000000E+00 0. -1.
          2    1    1    2  502    0 -0.31312438129E+00 -0.26320299563E+02  0.12585045126E+03  0.12857368431E+03  0.00000000000E+00 0. -1.
</event>
<event>
 4    1  0.8931296E+003  0.3411683E+02  0.7546771E-02  0.1386881E+00
          2   -1    0    0  501    0  0.00000000000E+00  0.00000000000E+00  0.98580846208E+00  0.98580846208E+00  0.00000000000E+00 0. -1.
          2   -1    0    0  502    0 -0.00000000000E+00 -0.00000000000E+00 -0.19552820174E+04  0.19552820174E+04  0.00000000000E+00 0.  1.
          2    1    1    2  501    0  0.33965444213E+02 -0.32104468091E+01 -0.15927830259E+04  0.15931483691E+04  0.00000000000E+00 0.  1.
          2    1    1    2  502    0 -0.33965444213E+02  0.32104468091E+01 -0.36151318302E+03  0.36311945674E+03  0.00000000000E+00 0. -1.
</event>
<event>
 4    1  0.8931296E+003  0.2142545E+02  0.7546771E-02  0.1513276E+00
          2   -1    0    0  502    0  0.00000000000E+00  0.00000000000E+00  0.12296666600E+02  0.12296666600E+02  0.00000000000E+00 0.  1.
          2   -1    0    0  501    0 -0.00000000000E+00 -0.00000000000E+00 -0.15384371097E+04  0.15384371097E+04  0.00000000000E+00 0.  1.
          2    1    1    2  501    0 -0.17099641346E+02  0.12909380558E+02  0.28314868273E+01  0.21611736584E+02  0.00000000000E+00 0.  1.
          2    1    1    2  502    0  0.17099641346E+02 -0.12909380558E+02 -0.15289719300E+04  0.15291220398E+04  0.00000000000E+00 0.  1.
</event>
<event>
 4    1  0.8931296E+003  0.3308519E+02  0.7546771E-02  0.1394549E+00
          2   -1    0    0  501    0  0.00000000000E+00  0.00000000000E+00  0.34527487734E+03  0.34527487734E+03  0.00000000000E+00 0. -1.
          2   -1    0    0  502    0 -0.00000000000E+00 -0.00000000000E+00 -0.39928190748E+02  0.39928190748E+02  0.00000000000E+00 0. -1.
          2    1    1    2  501    0  0.31617834822E+02  0.97438361908E+01 -0.32123749182E+02  0.46114694882E+02  0.00000000000E+00 0. -1.
          2    1    1    2  502    0 -0.31617834822E+02 -0.97438361908E+01  0.33747043577E+03  0.33908837321E+03  0.00000000000E+00 0. -1.
</event>
<event>
 4    1  0.8931296E+003  0.2830950E+02  0.7546771E-02  0.1434880E+00
          2   -1    0    0  502    0  0.00000000000E+00  0.00000000000E+00  0.16255398651E+04  0.16255398651E+04  0.00000000000E+00 0.  1.
          2   -1    0    0  501    0 -0.00000000000E+00 -0.00000000000E+00 -0.64816517690E+01  0.64816517690E+01  0.00000000000E+00 0.  1.
          2    1    1    2  501    0 -0.27740619230E+02  0.56467471454E+01  0.15938914802E+04  0.15941428663E+04  0.00000000000E+00 0.  1.
          2    1    1    2  502    0  0.27740619230E+02 -0.56467471454E+01  0.25166733155E+02  0.37878650534E+02  0.00000000000E+00 0.  1.
</event>
<event>
 4    1  0.8931296E+003  0.3554732E+02  0.7546771E-02  0.1376756E+00
          2   -1    0    0  501    0  0.00000000000E+00  0.00000000000E+00  0.96503358011E+01  0.96503358011E+01  0.00000000000E+00 0. -1.
          2   -1    0    0  502    0 -0.00000000000E+00 -0.00000000000E+00 -0.95941485469E+03  0.95941485469E+03  0.00000000000E+00 0. -1.
          2    1    1    2  501    0  0.23647317924E+02 -0.26540848353E+02 -0.92513826869E+03  0.92582094838E+03  0.00000000000E+00 0. -1.
          2    1    1    2  502    0 -0.23647317924E+02  0.26540848353E+02 -0.24626250197E+02  0.43244242103E+02  0.00000000000E+00 0. -1.
</event>
<event>
 4    1  0.8931296E+003  0.2328338E+02  0.7546771E-02  0.1488970E+00
          2   -1    0    0  501    0  0.00000000000E+00  0.00000000000E+00  0.88939944869E+03  0.88939944869E+03  0.00000000000E+00 0.  1.
          2   -1    0    0  502    0 -0.00000000000E+00 -0.00000000000E+00 -0.10628517579E+02  0.10628517579E+02  0.00000000000E+00 0.  1.
          2    1    1    2  501    0 -0.23279833296E+02 -0.40657357948E+00  0.24658196596E+01  0.23413590220E+02  0.00000000000E+00 0.  1.
          2    1    1    2  502    0  0.23279833296E+02  0.40657357948E+00  0.87630511145E+03  0.87661437605E+03  0.00000000000E+00 0.  1.
</event>
<event>
 4    1  0.8931296E+003  0.2465690E+02  0.7546771E-02  0.1472678E+00
          2   -1    0    0  502    0  0.00000000000E+00  0.00000000000E+00  0.98774415432E+01  0.98774415432E+01  0.00000000000E+00 0. -1.
          2   -1    0    0  501    0 -0.00000000000E+00 -0.00000000000E+00 -0.30048635489E+03  0.30048635489E+03  0.00000000000E+00 0.  1.
          2    1    1    2  501    0  0.40230198145E+01  0.24326492918E+02 -0.69257686835E+01  0.25611115125E+02  0.00000000000E+00 0. -1.
          2    1    1    2  502    0 -0.40230198145E+01 -0.24326492918E+02 -0.28368314466E+03  0.28475268131E+03  0.00000000000E+00 0.  1.
</event>
<event>
 4    1  0.8931296E+003  0.2510829E+02  0.7546771E-02  0.1467596E+00
          2   -1    0    0  501    0  0.00000000000E+00  0.00000000000E+00  0.13441912633E+03  0.13441912633E+03  0.00000000000E+00 0. -1.
          2   -1    0    0  502    0 -0.00000000000E+00 -0.00000000000E+00 -0.22168316074E+02  0.22168316074E+02  0.00000000000E+00 0.  1.
          2    1    1    2  501    0 -0.24615138501E+02 -0.49518663105E+01 -0.13394688330E+02  0.28457752877E+02  0.00000000000E+00 0.  1.
          2    1    1    2  502    0  0.24615138501E+02  0.49518663105E+01  0.12564549858E+03  0.12812968952E+03  0.00000000000E+00 0. -1.
</event>
<event>
 4    1  0.8931296E+003  0.2322200E+02  0.7546771E-02  0.1489729E+00
          2   -1    0    0  502    0  0.00000000000E+00  0.00000000000E+00  0.34921846727E+01  0.34921846727E+01  0.00000000000E+00 0.  1.
          2   -1    0    0  501    0 -0.00000000000E+00 -0.00000000000E+00 -0.20903738301E+03  0.20903738301E+03  0.00000000000E+00 0. -1.
          2    1    1    2  501    0 -0.18063800260E+02 -0.14593167514E+02 -0.48454469575E+02  0.53731713538E+02  0.00000000000E+00 0.  1.
          2    1    1    2  502    0  0.18063800260E+02  0.14593167514E+02 -0.15709072876E+03  0.15879785414E+03  0.00000000000E+00 0. -1.
</event>
<event>
 4    1  0.8931296E+003  0.3222570E+02  0.7546771E-02  0.1401192E+00
          2   -1    0    0  501    0  0.00000000000E+00  0.00000000000E+00  0.39946314354E+02  0.39946314354E+02  0.00000000000E+00 0. -1.
          2   -1    0    0  502    0 -0.00000000000E+00 -0.00000000000E+00 -0.42198546513E+02  0.42198546513E+02  0.00000000000E+00 0. -1.
          2    1    1    2  501    0  0.27393208300E+02 -0.16973731475E+02 -0.26575435493E+02  0.41770195029E+02  0.00000000000E+00 0. -1.
          2    1    1    2  502    0 -0.27393208300E+02  0.16973731475E+02  0.24323203334E+02  0.40374665838E+02  0.00000000000E+00 0. -1.
</event>
<event>
 4    1  0.8931296E+003  0.2093170E+02  0.7546771E-02  0.1520242E+00
          2   -1    0    0  502    0  0.00000000000E+00  0.00000000000E+00  0.24649197237E+02  0.24649197237E+02  0.00000000000E+00 0.  1.
          2   -1    0    0  501    0 -0.00000000000E+00 -0.00000000000E+00 -0.69958863156E+03  0.69958863156E+03  0.00000000000E+00 0.  1.
          2    1    1    2  501    0 -0.16892054924E+02 -0.12361005138E+02  0.20019315991E+02  0.28963925500E+02  0.00000000000E+00 0.  1.
          2    1    1    2  502    0  0.16892054924E+02  0.12361005138E+02 -0.69495875032E+03  0.69527390330E+03  0.00000000000E+00 0.  1.
</event>
<event>
 4    1  0.8931296E+003  0.2742593E+02  0.7546771E-02  0.1443376E+00
          2   -1    0    0  501    0  0.00000000000E+00  0.00000000000E+00  0.12393835221E+01  0.12393835221E+01  0.00000000000E+00 0. -1.
          2   -1    0    0  502    0 -0.00000000000E+00 -0.00000000000E+00 -0.16551744609E+04  0.16551744609E+04  0.00000000000E+00 0. -1.
          2    1    1    2  501    0 -0.24364417478E+02  0.12591923554E+02 -0.14860724547E+04  0.14863255101E+04  0.00000000000E+00 0. -1.
          2    1    1    2  502    0  0.24364417478E+02 -0.12591923554E+02 -0.16786262272E+03  0.17008833436E+03  0.00000000000E+00 0. -1.
</event>
<event>
 4    1  0.8931296E+003  0.3375472E+02  0.7546771E-02  0.1389536E+00
          2   -1    0    0  502    0  0.00000000000E+00  0.00000000000E+00  0.28069556220E+04  0.28069556220E+04  0.00000000000E+00 0. -1.
          2   -1    0    0  501    0 -0.00000000000E+00 -0.00000000000E+00 -0.53851199593E+00  0.53851199593E+00  0.00000000000E+00 0.  1.
          2    1    1    2  501    0  0.13591852224E+02  0.30897295028E+02  0.20997715645E+04  0.21000428578E+04  0.00000000000E+00 0. -1.
          2    1    1    2  502    0 -0.13591852224E+02 -0.30897295028E+02  0.70664554544E+03  0.70745127618E+03  0.00000000000E+00 0.  1.
</event>
<event>
 4    1  0.8931296E+003  0.2853127E+02  0.7546771E-02  0.1432804E+00
          2   -1    0    0  501    0  0.00000000000E+00  0.00000000000E+00  0.95359332592E+02  0.95359332592E+02  0.00000000000E+00 0.  1.
          2   -1    0    0  502    0 -0.00000000000E+00 -0.00000000000E+00 -0.11862350995E+03  0.11862350995E+03  0.00000000000E+00 0.  1.
          2    1    1    2  501    0  0.27775085567E+02 -0.65251832375E+01 -0.11470193812E+03  0.11819715734E+03  0.00000000000E+00 0.  1.
          2    1    1    2  502    0 -0.27775085567E+02  0.65251832375E+01  0.91437760768E+02  0.95785685198E+02  0.00000000000E+00 0.  1.
</event>
<event>
 4    1  0.8931296E+003  0.2092292E+02  0.7546771E-02  0.1520368E+00
          2   -1    0    0  502    0  0.00000000000E+00  0.00000000000E+00  0.11943531386E+04  0.11943531386E+04  0.00000000000E+00 0.  1.
          2   -1    0    0  501    0 -0.00000000000E+00 -0.00000000000E+00 -0.37049457912E+01  0.37049457912E+01  0.00000000000E+00 0.  1.
          2    1    1    2  501    0 -0.19323522582E+02  0.80230828762E+01  0.11639505323E+04  0.11641385700E+04  0.00000000000E+00 0.  1.
          2    1    1    2  502    0  0.19323522582E+02 -0.80230828762E+01  0.26697660504E+02  0.33919514445E+02  0.00000000000E+00 0.  1.
</event>
<event>
 4    1  0.8931296E+003  0.2109774E+02  0.7546771E-02  0.1517874E+00
          2   -1    0    0  502    0  0.00000000000E+00  0.00000000000E+00  0.31960362369E+02  0.31960362369E+02  0.00000000000E+00 0.  1.
          2   -1    0    0  501    0 -0.00000000000E+00 -0.00000000000E+00 -0.28331912372E+02  0.28331912372E+02  0.00000000000E+00 0.  1.
          2    1    1    2  501    0  0.20719010757E+02 -0.39796241917E+01  0.23309732127E+02  0.31439758703E+02  0.00000000000E+00 0.  1.
          2    1    1    2  502    0 -0.20719010757E+02  0.39796241917E+01 -0.19681282130E+02  0.28852516038E+02  0.00000000000E+00 0.  1.
</event>
<event>
 4    1  0.8931296E+003  0.2340650E+02  0.7546771E-02  0.1487456E+00
          2   -1    0    0  501    0  0.00000000000E+00  0.00000000000E+00  0.88316715823E+03  0.88316715823E+03  0.00000000000E+00 0.  1.
          2   -1    0    0  502    0 -0.00000000000E+00 -0.00000000000E+00 -0.88479148781E+00  0.88479148781E+00  0.00000000000E+00 0.  1.
          2    1    1    2  501    0  0.22178099365E+02 -0.74830565471E+01  0.19948381586E+03  0.20085232639E+03  0.00000000000E+00 0.  1.
          2    1    1    2  502    0 -0.22178099365E+02  0.74830565471E+01  0.68279855088E+03  0.68319962333E+03  0.00000000000E+00 0.  1.
</event>
<event>
 4    1  0.8931296E+003  0.4957303E+02  0.7546771E-02  0.1300034E+00
          2   -1    0    0  501    0  0.00000000000E+00  0.00000000000E+00  0.35132661420E+01  0.35132661420E+01  0.00000000000E+00 0.  1.
          2   -1    0    0  502    0 -0.00000000000E+00 -0.00000000000E+00 -0.87600969300E+03  0.87600969300E+03  0.00000000000E+00 0. -1.
          2    1    1    2  501    0  0.35586858166E+02 -0.34511755463E+02 -0.63365514150E+03  0.63559131845E+03  0.00000000000E+00 0. -1.
          2    1    1    2  502    0 -0.35586858166E+02  0.34511755463E+02 -0.23884128536E+03  0.24393164069E+03  0.00000000000E+00 0.  1.
</event>
<event>
 4    1  0.8931296E+003  0.3036376E+02  0.7546771E-02  0.1416461E+00
          2   -1    0    0  502    0  0.00000000000E+00  0.00000000000E+00  0.82151372013E+01  0.82151372013E+01  0.00000000000E+00 0. -1.
          2   -1    0    0  501    0 -0.00000000000E+00 -0.00000000000E+00 -0.25248332295E+03  0.25248332295E+03  0.00000000000E+00 0. -1.
          2    1    1    2  501    0 -0.35310853376E+01  0.30157739846E+02 -0.24981635063E+02  0.39319714225E+02  0.00000000000E+00 0. -1.
          2    1    1    2  502    0  0.35310853376E+01 -0.30157739846E+02 -0.21928655069E+03  0.22137874593E+03  0.00000000000E+00 0. -1.
</event>
<event>
 4    1  0.8931296E+003  0.2792458E+02  0.7546771E-02  0.1438535E+00
          2   -1    0    0  501    0  0.00000000000E+00  0.00000000000E+00  0.11434196803E+04  0.11434196803E+04  0.00000000000E+00 0. -1.
          2   -1    0    0  502    0 -0.00000000000E+00 -0.00000000000E+00 -0.13628749572E+01  0.13628749572E+01  0.00000000000E+00 0. -1.
          2    1    1    2  501    0 -0.10389105550E+02  0.25920047473E+02  0.16644598373E+03  0.16877217743E+03  0.00000000000E+00 0. -1.
          2    1    1    2  502    0  0.10389105550E+02 -0.25920047473E+02  0.97561082159E+03  0.97601037781E+03  0.00000000000E+00 0. -1.
</event>
<event>
 4    1  0.8931296E+003  0.2241508E+02  0.7546771E-02  0.1499977E+00
          2   -1    0    0  502    0  0.00000000000E+00  0.00000000000E+00  0.61310072584E+02  0.61310072584E+02  0.00000000000E+00 0.  1.
          2   -1    0    0  501    0 -0.00000000000E+00 -0.00000000000E+00 -0.16745513162E+02  0.16745513162E+02  0.00000000000E+00 0. -1.
          2    1    1    2  501    0  0.12195690087E+00  0.22414749355E+02  0.50170508111E+02  0.54950120530E+02  0.00000000000E+00 0.  1.
          2    1    1    2  502    0 -0.12195690087E+00 -0.22414749355E+02 -0.56059486890E+01  0.23105465216E+02  0.00000000000E+00 0. -1.
</event>
<event>
 4    1  0.8931296E+003  0.2077696E+02  0.7546771E-02  0.1522473E+00
          2   -1    0    0  501    0  0.00000000000E+00  0.00000000000E+00  0.86331828628E+03  0.86331828628E+03  0.00000000000E+00 0.  1.
          2   -1    0    0  502    0 -0.00000000000E+00 -0.00000000000E+00 -0.26095058123E+01  0.26095058123E+01  0.00000000000E+00 0.  1.
          2    1    1    2  501    0 -0.19231122814E+02  0.78642238913E+01  0.41076108757E+02  0.46031823912E+02  0.00000000000E+00 0.  1.
          2    1    1    2  502    0  0.19231122814E+02 -0.78642238913E+01  0.81963267171E+03  0.81989596818E+03  0.00000000000E+00 0.  1.
</event>
<event>
 4    1  0.8931296E+003  0.2044839E+02  0.7546771E-02  0.1527288E+00
          2   -1    0    0  501    0  0.00000000000E+00  0.00000000000E+00  0.47654468655E+01  0.47654468655E+01  0.00000000000E+00 0. -1.
          2   -1    0    0  502    0 -0.00000000000E+00 -0.00000000000E+00 -0.24910239338E+03  0.24910239338E+03  0.00000000000E+00 0. -1.
          2    1    1    2  501    0 -0.27897811458E+01  0.20257194579E+02 -0.22432949919E+03  0.22525954146E+03  0.00000000000E+00 0. -1.
          2    1    1    2  502    0  0.27897811458E+01 -0.20257194579E+02 -0.20007447322E+02  0.28608298785E+02  0.00000000000E+00 0. -1.
</event>
<event>
 4    1  0.8931296E+003  0.3105577E+02  0.7546771E-02  0.1410638E+00
          2   -1    0    0  501    0  0.00000000000E+00  0.00000000000E+00  0.65306998082E+03  0.65306998082E+03  0.00000000000E+00 0. -1.
          2   -1    0    0  502    0 -0.00000000000E+00 -0.00000000000E+00 -0.36695005213E+01  0.36695005213E+01  0.00000000000E+00 0. -1.
          2    1    1    2  501    0  0.55414679179E+01 -0.30557372258E+02  0.70867151909E+02  0.77373212972E+02  0.00000000000E+00 0. -1.
          2    1    1    2  502    0 -0.55414679179E+01  0.30557372258E+02  0.57853332839E+03  0.57936626837E+03  0.00000000000E+00 0. -1.
</event>
<event>
 4    1  0.8931296E+003  0.3896267E+02  0.7546771E-02  0.1354674E+00
          2   -1    0    0  502    0  0.00000000000E+00  0.00000000000E+00  0.27779259054E+03  0.27779259054E+03  0.00000000000E+00 0. -1.
          2   -1    0    0  501    0 -0.00000000000E+00 -0.00000000000E+00 -0.63387824822E+03  0.63387824822E+03  0.00000000000E+00 0.  1.
          2    1    1    2  501    0  0.16266849627E+02 -0.35404506066E+02  0.27582339879E+03  0.27856172882E+03  0.00000000000E+00 0. -1.
          2    1    1    2  502    0 -0.16266849627E+02  0.35404506066E+02 -0.63190905647E+03  0.63310910994E+03  0.00000000000E+00 0.  1.
</event>
<event>
 4    1  0.8931296E+003  0.3576822E+02  0.7546771E-02  0.1375241E+00
          2   -1    0    0  501    0  0.00000000000E+00  0.00000000000E+00  0.53982833598E+03  0.53982833598E+03  0.00000000000E+00 0.  1.
          2   -1    0    0  502    0 -0.00000000000E+00 -0.00000000000E+00 -0.11174996765E+04  0.11174996765E+04  0.00000000000E+00 0. -1.
          2    1    1    2  501    0  0.24200781569E+02  0.26337953325E+02 -0.11166205113E+04  0.11171932384E+04  0.00000000000E+00 0. -1.
          2    1    1    2  502    0 -0.24200781569E+02 -0.26337953325E+02  0.53894917073E+03  0.54013477415E+03  0.00000000000E+00 0.  1.
</event>
<event>
 4    1  0.8931296E+003  0.2394715E+02  0.7546771E-02  0.1480935E+00
          2   -1    0    0  502    0  0.00000000000E+00  0.00000000000E+00  0.91209157453E+02  0.91209157453E+02  0.00000000000E+00 0. -1.
          2   -1    0    0  501    0 -0.00000000000E+00 -0.00000000000E+00 -0.33517790744E+02  0.33517790744E+02  0.00000000000E+00 0. -1.
          2    1    1    2  501    0  0.23242754192E+02 -0.57654418126E+01  0.85056483117E+02  0.88363291372E+02  0.00000000000E+00 0. -1.
          2    1    1    2  502    0 -0.23242754192E+02  0.57654418126E+01 -0.27365116408E+02  0.36363656826E+02  0.00000000000E+00 0. -1.
</event>
<event>
 4    1  0.8931296E+003  0.4471350E+02  0.7546771E-02  0.1322878E+00
          2   -1    0    0  502    0  0.00000000000E+00  0.00000000000E+00  0.12995951552E+02  0.12995951552E+02  0.00000000000E+00 0.  1.
          2   -1    0    0  501    0 -0.00000000000E+00 -0.00000000000E+00 -0.17428743257E+04  0.17428743257E+04  0.00000000000E+00 0. -1.
          2    1    1    2  501    0 -0.41349942871E+01  0.44521890498E+02 -0.26645804750E+02  0.52050896458E+02  0.00000000000E+00 0.  1.
          2    1    1    2  502    0  0.41349942871E+01 -0.44521890498E+02 -0.17032325694E+04  0.17038193808E+04  0.00000000000E+00 0. -1.
</event>
<event>
 4    1  0.8931296E+003  0.2312878E+02  0.7546771E-02  0.1490887E+00
          2   -1    0    0  502    0  0.00000000000E+00  0.00000000000E+00  0.11161984967E+04  0.11161984967E+04  0.00000000000E+00 0.  1.
          2   -1    0    0  501    0 -0.00000000000E+00 -0.00000000000E+00 -0.55498639681E+02  0.55498639681E+02  0.00000000000E+00 0. -1.
          2    1    1    2  501    0 -0.22873004962E+02 -0.34301971691E+01  0.11136634976E+04  0.11139036433E+04  0.00000000000E+00 0.  1.
          2    1    1    2  502    0  0.22873004962E+02  0.34301971691E+01 -0.52963640642E+02  0.57793493048E+02  0.00000000000E+00 0. -1.
</event>
<event>
 4    1  0.1516090E+004  0.2098309E+02  0.7546771E-02  0.1519506E+00
          2   -1    0    0  501    0  0.00000000000E+00  0.00000000000E+00  0.95822892862E+03  0.95822892862E+03  0.00000000000E+00 0.  1.
          2   -1    0    0  502    0 -0.00000000000E+00 -0.00000000000E+00 -0.95177916193E+03  0.95177916193E+03  0.00000000000E+00 0. -1.
          2    1    1    2  501    0 -0.12109667614E+02 -0.17136106226E+02 -0.95154861402E+03  0.95177994045E+03  0.00000000000E+00 0. -1.
          2    1    1    2  502    0  0.12109667614E+02  0.17136106226E+02  0.95799838072E+03  0.95822815010E+03  0.00000000000E+00 0.  1.
</event>
<event>
 4    1  0.8931296E+003  0.3021683E+02  0.7546771E-02  0.1417721E+00
          2   -1    0    0  501    0  0.00000000000E+00  0.00000000000E+00  0.11870572543E+02  0.11870572543E+02  0.00000000000E+00 0.  1.
          2   -1    0    0  502    0 -0.00000000000E+00 -0.00000000000E+00 -0.16356563064E+04  0.16356563064E+04  0.00000000000E+00 0.  1.
          2    1    1    2  501    0  0.10041954707E+02 -0.28499405501E+02 -0.16160541037E+04  0.16163365748E+04  0.00000000000E+00 0.  1.
          2    1    1    2  502    0 -0.10041954707E+02  0.28499405501E+02 -0.77316301775E+01  0.31190304158E+02  0.00000000000E+00 0.  1.
</event>
<event>
 4    1  0.8931296E+003  0.2399195E+02  0.7546771E-02  0.1480404E+00
          2   -1    0    0  502    0  0.00000000000E+00  0.00000000000E+00  0.62442694582E+00  0.62442694582E+00  0.00000000000E+00 0.  1.
          2   -1    0    0  501    0 -0.00000000000E+00 -0.00000000000E+00 -0.92973791447E+03  0.92973791447E+03  0.00000000000E+00 0.  1.
          2    1    1    2  501    0  0.23706840994E+02  0.36877321273E+01 -0.50746615583E+03  0.50803298416E+03  0.00000000000E+00 0.  1.
          2    1    1    2  502    0 -0.23706840994E+02 -0.36877321273E+01 -0.42164733169E+03  0.42232935725E+03  0.00000000000E+00 0.  1.
</event>
<event>
 4    1  0.8931296E+003  0.2351907E+02  0.7546771E-02  0.1486081E+00
          2   -1    0    0  501    0  0.00000000000E+00  0.00000000000E+00  0.80289901217E+01  0.80289901217E+01  0.00000000000E+00 0. -1.
          2   -1    0    0  502    0 -0.00000000000E+00 -0.00000000000E+00 -0.11928237915E+03  0.11928237915E+03  0.00000000000E+00 0. -1.
          2    1    1    2  501    0 -0.21549143664E+01 -0.23420140403E+02 -0.96999564066E+02  0.99810130054E+02  0.00000000000E+00 0. -1.
          2    1    1    2  502    0  0.21549143664E+01  0.23420140403E+02 -0.14253824961E+02  0.27501239216E+02  0.00000000000E+00 0. -1.
</event>
<event>
 4    1  0.8931296E+003  0.2070590E+02  0.7546771E-02  0.1523506E+00
          2   -1    0    0  502    0  0.00000000000E+00  0.00000000000E+00  0.50521265854E+01  0.50521265854E+01  0.00000000000E+00 0. -1.
          2   -1    0    0  501    0 -0.00000000000E+00 -0.00000000000E+00 -0.44925398807E+03  0.44925398807E+03  0.00000000000E+00 0.  1.
          2    1    1    2  501    0  0.19868607312E+02 -0.58286182533E+01 -0.17523870467E+02  0.27126009353E+02  0.00000000000E+00 0. -1.
          2    1    1    2  502    0 -0.19868607312E+02  0.58286182533E+01 -0.42667799102E+03  0.42718010531E+03  0.00000000000E+00 0.  1.
</event>
<event>
 4    1  0.8931296E+003  0.3487522E+02  0.7546771E-02  0.1381443E+00
          2   -1    0    0  501    0  0.00000000000E+00  0.00000000000E+00  0.14313033798E+03  0.14313033798E+03  0.00000000000E+00 0.  1.
          2   -1    0    0  502    0 -0.00000000000E+00 -0.00000000000E+00 -0.19020084588E+02  0.19020084588E+02  0.00000000000E+00 0.  1.
          2    1    1    2  501    0 -0.30469710047E+02  0.16966958279E+02  0.17521665852E+01  0.34919206625E+02  0.00000000000E+00 0.  1.
          2    1    1    2  502    0  0.30469710047E+02 -0.16966958279E+02  0.12235808681E+03  0.12723121594E+03  0.00000000000E+00 0.  1.
</event>
<event>
 4    1  0.8931296E+003  0.4419277E+02  0.7546771E-02  0.1325525E+00
          2   -1    0    0  501    0  0.00000000000E+00  0.00000000000E+00  0.63720373528E+01  0.63720373528E+01  0.00000000000E+00 0. -1.
          2   -1    0    0  502    0 -0.00000000000E+00 -0.00000000000E+00 -0.12822416002E+04  0.12822416002E+04  0.00000000000E+00 0.  1.
          2    1    1    2  501    0 -0.38466318206E+02  0.21756456996E+02 -0.11999863943E+04  0.12007998782E+04  0.00000000000E+00 0.  1.
          2    1    1    2  502    0  0.38466318206E+02 -0.21756456996E+02 -0.75883168552E+02  0.87813759326E+02  0.00000000000E+00 0. -1.
</event>
<event>
 4    1  0.8931296E+003  0.3280155E+02  0.7546771E-02  0.1396715E+00
          2   -1    0    0  502    0  0.00000000000E+00  0.00000000000E+00  0.53744374156E+03  0.53744374156E+03  0.00000000000E+00 0. -1.
          2   -1    0    0  501    0 -0.00000000000E+00 -0.00000000000E+00 -0.40892916756E+02  0.40892916756E+02  0.00000000000E+00 0.  1.
          2    1    1    2  501    0  0.32801342447E+02  0.11594530799E+00  0.53027663323E+03  0.53129017425E+03  0.00000000000E+00 0. -1.
          2    1    1    2  502    0 -0.32801342447E+02 -0.11594530799E+00 -0.33725808419E+02  0.47046484068E+02  0.00000000000E+00 0.  1.
</event>
<event>
 4    1  0.8931296E+003  0.2653229E+02  0.7546771E-02  0.1452364E+00
          2   -1    0    0  501    0  0.00000000000E+00  0.00000000000E+00  0.34804480438E+01  0.34804480438E+01  0.00000000000E+00 0.  1.
          2   -1    0    0  502    0 -0.00000000000E+00 -0.00000000000E+00 -0.39139061390E+03  0.39139061390E+03  0.00000000000E+00 0. -1.
          2    1    1    2  501    0 -0.20288932248E+02 -0.17097414123E+02 -0.33120078151E+03  0.33226182449E+03  0.00000000000E+00 0. -1.
          2    1    1    2  502    0  0.20288932248E+02  0.17097414123E+02 -0.56709384348E+02  0.62609237454E+02  0.00000000000E+00 0.  1.
</event>
<event>
 4    1  0.8931296E+003  0.2262355E+02  0.7546771E-02  0.1497280E+00
          2   -1    0    0  501    0  0.00000000000E+00  0.00000000000E+00  0.14739292093E+04  0.14739292093E+04  0.00000000000E+00 0.  1.
          2   -1    0    0  502    0 -0.00000000000E+00 -0.00000000000E+00 -0.66072812025E+01  0.66072812025E+01  0.00000000000E+00 0. -1.
          2    1    1    2  501    0 -0.19105569545E+02  0.12116196904E+02  0.13108013374E+02  0.26146606465E+02  0.00000000000E+00 0. -1.
          2    1    1    2  502    0  0.19105569545E+02 -0.12116196904E+02  0.14542139147E+04  0.14543898840E+04  0.00000000000E+00 0.  1.
</event>
<event>
 4    1  0.8931296E+003  0.2965939E+02  0.7546771E-02  0.1422580E+00
          2   -1    0    0  502    0  0.00000000000E+00  0.00000000000E+00  0.22855717820E+02  0.22855717820E+02  0.00000000000E+00 0. -1.
          2   -1    0    0  501    0 -0.00000000000E+00 -0.00000000000E+00 -0.56471988954E+02  0.56471988954E+02  0.00000000000E+00 0. -1.
          2    1    1    2  501    0  0.19328483592E+02 -0.22496431519E+02  0.55747824880E+01  0.30178765860E+02  0.00000000000E+00 0. -1.
          2    1    1    2  502    0 -0.19328483592E+02  0.22496431519E+02 -0.39191053622E+02  0.49148940915E+02  0.00000000000E+00 0. -1.
</event>
<event>
 4    1  0.8931296E+003  0.2102207E+02  0.7546771E-02  0.1518950E+00
          2   -1    0    0  501    0  0.00000000000E+00  0.00000000000E+00  0.18786405136E+03  0.18786405136E+03  0.00000000000E+00 0. -1.
          2   -1    0    0  502    0 -0.00000000000E+00 -0.00000000000E+00 -0.20048466197E+03  0.20048466197E+03  0.00000000000E+00 0. -1.
          2    1    1    2  501    0  0.19362459301E+02 -0.81867359463E+01 -0.19934213192E+03  0.20044753187E+03  0.00000000000E+00 0. -1.
          2    1    1    2  502    0 -0.19362459301E+02  0.81867359463E+01  0.18672152131E+03  0.18790118147E+03  0.00000000000E+00 0. -1.
</event>
<event>
 4    1  0.8931296E+003  0.3597148E+02  0.7546771E-02  0.1373859E+00
          2   -1    0    0  501    0  0.00000000000E+00  0.00000000000E+00  0.99042539701E+01  0.99042539701E+01  0.00000000000E+00 0.  1.
          2   -1    0    0  502    0 -0.00000000000E+00 -0.00000000000E+00 -0.30644672301E+03  0.30644672301E+03  0.00000000000E+00 0. -1.
          2    1    1    2  501    0 -0.35886979807E+02 -0.24642069220E+01 -0.26807555000E+03  0.27047818423E+03  0.00000000000E+00 0. -1.
          2    1    1    2  502    0  0.35886979807E+02  0.24642069220E+01 -0.28466919044E+02  0.45872792757E+02  0.00000000000E+00 0.  1.
</event>
<event>
 4    1  0.8931296E+003  0.4170965E+02  0.7546771E-02  0.1338748E+00
          2   -1    0    0  501    0  0.00000000000E+00  0.00000000000E+00  0.82741716514E+01  0.82741716514E+01  0.00000000000E+00 0.  1.
          2   -1    0    0  502    0 -0.00000000000E+00 -0.00000000000E+00 -0.71451193018E+03  0.71451193018E+03  0.00000000000E+00 0.  1.
          2    1    1    2  501    0  0.40388512847E+02  0.10414538075E+02 -0.65671802462E+03  0.65804122852E+03  0.00000000000E+00 0.  1.
          2    1    1    2  502    0 -0.40388512847E+02 -0.10414538075E+02 -0.49519733902E+02  0.64744873303E+02  0.00000000000E+00 0.  1.
</event>
<event>
 4    1  0.8931296E+003  0.2123392E+02  0.7546771E-02  0.1515951E+00
          2   -1    0    0  501    0  0.00000000000E+00  0.00000000000E+00  0.53064031494E+03  0.53064031494E+03  0.00000000000E+00 0. -1.
          2   -1    0    0  502    0 -0.00000000000E+00 -0.00000000000E+00 -0.32349025963E+01  0.32349025963E+01  0.00000000000E+00 0. -1.
          2    1    1    2  501    0 -0.49329825257E+01  0.20652964227E+02  0.34487831135E+02  0.40500490668E+02  0.00000000000E+00 0. -1.
          2    1    1    2  502    0  0.49329825257E+01 -0.20652964227E+02  0.49291758121E+03  0.49337472687E+03  0.00000000000E+00 0. -1.
</event>
<event>
 4    1  0.8931296E+003  0.2710064E+02  0.7546771E-02  0.1446600E+00
          2   -1    0    0  501    0  0.00000000000E+00  0.00000000000E+00  0.39615290546E+03  0.39615290546E+03  0.00000000000E+00 0. -1.
          2   -1    0    0  502    0 -0.00000000000E+00 -0.00000000000E+00 -0.14088146813E+02  0.14088146813E+02  0.00000000000E+00 0. -1.
          2    1    1    2  501    0  0.26923876519E+02  0.30902146051E+01 -0.11575295697E+00  0.27100884706E+02  0.00000000000E+00 0. -1.
          2    1    1    2  502    0 -0.26923876519E+02 -0.30902146051E+01  0.38218051161E+03  0.38314016757E+03  0.00000000000E+00 0. -1.
</event>
<event>
 4    1  0.8931296E+003  0.3002920E+02  0.7546771E-02  0.1419343E+00
          2   -1    0    0  502    0  0.00000000000E+00  0.00000000000E+00  0.11537744972E+01  0.11537744972E+01  0.00000000000E+00 0. -1.
          2   -1    0    0  501    0 -0.00000000000E+00 -0.00000000000E+00 -0.79940006453E+03  0.79940006453E+03  0.00000000000E+00 0. -1.
          2    1    1    2  501    0  0.30026272112E+02  0.41941984583E+00 -0.33933949876E+03  0.34066559607E+03  0.00000000000E+00 0. -1.
          2    1    1    2  502    0 -0.30026272112E+02 -0.41941984583E+00 -0.45890679128E+03  0.45988824296E+03  0.00000000000E+00 0. -1.
</event>
<event>
 4    1  0.8931296E+003  0.2270063E+02  0.7546771E-02  0.1496292E+00
          2   -1    0    0  502    0  0.00000000000E+00  0.00000000000E+00  0.85187156047E+02  0.85187156047E+02  0.00000000000E+00 0. -1.
          2   -1    0    0  501    0 -0.00000000000E+00 -0.00000000000E+00 -0.24966435080E+02  0.24966435080E+02  0.00000000000E+00 0.  1.
          2    1    1    2  501    0 -0.65774080068E+01  0.21726858593E+02  0.78052633022E+02  0.81286728327E+02  0.00000000000E+00 0. -1.
          2    1    1    2  502    0  0.65774080068E+01 -0.21726858593E+02 -0.17831912054E+02  0.28866862800E+02  0.00000000000E+00 0.  1.
</event>
<event>
 4    1  0.8931296E+003  0.2629215E+02  0.7546771E-02  0.1454851E+00
          2   -1    0    0  502    0  0.00000000000E+00  0.00000000000E+00  0.10095723983E+02  0.10095723983E+02  0.00000000000E+00 0.  1.
          2   -1    0    0  501    0 -0.00000000000E+00 -0.00000000000E+00 -0.13546560142E+04  0.13546560142E+04  0.00000000000E+00 0.  1.
          2    1    1    2  501    0 -0.14654524530E+02 -0.21829382526E+02 -0.73735270239E+01  0.27306518112E+02  0.00000000000E+00 0.  1.
          2    1    1    2  502    0  0.14654524530E+02  0.21829382526E+02 -0.13371867632E+04  0.13374452201E+04  0.00000000000E+00 0.  1.
</event>
<event>
 4    1  0.8931296E+003  0.2317791E+02  0.7546771E-02  0.1490276E+00
          2   -1    0    0  501    0  0.00000000000E+00  0.00000000000E+00  0.11922108420E+01  0.11922108420E+01  0.00000000000E+00 0. -1.
          2   -1    0    0  502    0 -0.00000000000E+00 -0.00000000000E+00 -0.71129594812E+03  0.71129594812E+03  0.00000000000E+00 0. -1.
          2    1    1    2  501    0 -0.21648421929E+02 -0.82801651682E+01 -0.57072004405E+03  0.57119049711E+03  0.00000000000E+00 0. -1.
          2    1    1    2  502    0  0.21648421929E+02  0.82801651682E+01 -0.13938369323E+03  0.14129766185E+03  0.00000000000E+00 0. -1.
</event>
<event>
 4    1  0.8931296E+003  0.2249645E+02  0.7546771E-02  0.1498920E+00
          2   -1    0    0  501    0  0.00000000000E+00  0.00000000000E+00  0.62325644570E+03  0.62325644570E+03  0.00000000000E+00 0.  1.
          2   -1    0    0  502    0 -0.00000000000E+00 -0.00000000000E+00 -0.24727643020E+01  0.24727643020E+01  0.00000000000E+00 0.  1.
          2    1    1    2  501    0 -0.17182312523E+02  0.14520968879E+02  0.53991983519E+02  0.58491235969E+02  0.00000000000E+00 0.  1.
          2    1    1    2  502    0  0.17182312523E+02 -0.14520968879E+02  0.56679169788E+03  0.56723797403E+03  0.00000000000E+00 0.  1.
</event>
<event>
 4    1  0.8931296E+003  0.2421268E+02  0.7546771E-02  0.1477807E+00
          2   -1    0    0  501    0  0.00000000000E+00  0.00000000000E+00  0.13858822128E+03  0.13858822128E+03  0.00000000000E+00 0. -1.
          2   -1    0    0  502    0 -0.00000000000E+00 -0.00000000000E+00 -0.70831741800E+02  0.70831741800E+02  0.00000000000E+00 0.  1.
          2    1    1    2  501    0 -0.24170945443E+02 -0.14210774080E+01 -0.67656885026E+02  0.71858946249E+02  0.00000000000E+00 0.  1.
          2    1    1    2  502    0  0.24170945443E+02  0.14210774080E+01  0.13541336451E+03  0.13756101683E+03  0.00000000000E+00 0. -1.
</event>
<event>
 4    1  0.8931296E+003  0.2182492E+02  0.7546771E-02  0.1507805E+00
          2   -1    0    0  501    0  0.00000000000E+00  0.00000000000E+00  0.13976970335E+04  0.13976970335E+04  0.00000000000E+00 0.  1.
          2   -1    0    0  502    0 -0.00000000000E+00 -0.00000000000E+00 -0.18136797239E+01  0.18136797239E+01  0.00000000000E+00 0.  1.
          2    1    1    2  501    0 -0.11952504959E+02 -0.18261016760E+02  0.67346822325E+02  0.70794926267E+02  0.00000000000E+00 0.  1.
          2    1    1    2  502    0  0.11952504959E+02  0.18261016760E+02  0.13285365315E+04  0.13287157870E+04  0.00000000000E+00 0.  1.
</event>
<event>
 4    1  0.8931296E+003  0.5815108E+02  0.7546771E-02  0.1266247E+00
          2   -1    0    0  502    0  0.00000000000E+00  0.00000000000E+00  0.22988338176E+02  0.22988338176E+02  0.00000000000E+00 0.  1.
          2   -1    0    0  501    0 -0.00000000000E+00 -0.00000000000E+00 -0.40580982050E+04  0.40580982050E+04  0.00000000000E+00 0.  1.
          2    1    1    2  501    0 -0.76161644781E-01 -0.58151027148E+02 -0.14335938300E+02  0.59892127078E+02  0.00000000000E+00 0.  1.
          2    1    1    2  502    0  0.76161644781E-01  0.58151027148E+02 -0.40207739286E+04  0.40211944161E+04  0.00000000000E+00 0.  1.
</event>
<event>
 4    1  0.8931296E+003  0.4684818E+02  0.7546771E-02  0.1312448E+00
          2   -1    0    0  501    0  0.00000000000E+00  0.00000000000E+00  0.54244502333E+03  0.54244502333E+03  0.00000000000E+00 0. -1.
          2   -1    0    0  502    0 -0.00000000000E+00 -0.00000000000E+00 -0.62322662252E+01  0.62322662252E+01  0.00000000000E+00 0. -1.
          2    1    1    2  501    0  0.18792356776E+02  0.42913855437E+02  0.10562184933E+03  0.11554534485E+03  0.00000000000E+00 0. -1.
          2    1    1    2  502    0 -0.18792356776E+02 -0.42913855437E+02  0.43059090778E+03  0.43313194470E+03  0.00000000000E+00 0. -1.
</event>
<event>
 4    1  0.8931296E+003  0.2093384E+02  0.7546771E-02  0.1520211E+00
          2   -1    0    0  502    0  0.00000000000E+00  0.00000000000E+00  0.28024250444E+02  0.28024250444E+02  0.00000000000E+00 0.  1.
          2   -1    0    0  501    0 -0.00000000000E+00 -0.00000000000E+00 -0.22913868231E+02  0.22913868231E+02  0.00000000000E+00 0.  1.
          2    1    1    2  501    0  0.65290450364E+00  0.20923658496E+02  0.16907596900E+02  0.26908968804E+02  0.00000000000E+00 0.  1.
          2    1    1    2  502    0 -0.65290450364E+00 -0.20923658496E+02 -0.11797214687E+02  0.24029149871E+02  0.00000000000E+00 0.  1.
</event>
<event>
 4    1  0.8931296E+003  0.2958297E+02  0.7546771E-02  0.1423255E+00
          2   -1    0    0  501    0  0.00000000000E+00  0.00000000000E+00  0.32859628558E+03  0.32859628558E+03  0.00000000000E+00 0. -1.
          2   -1    0    0  502    0 -0.00000000000E+00 -0.00000000000E+00 -0.55967508018E+03  0.55967508018E+03  0.00000000000E+00 0.  1.
          2    1    1    2  501    0  0.85318631087E+01 -0.28325948510E+02 -0.55861707412E+03  0.55939984586E+03  0.00000000000E+00 0.  1.
          2    1    1    2  502    0 -0.85318631087E+01  0.28325948510E+02  0.32753827952E+03  0.32887151990E+03  0.00000000000E+00 0. -1.
</event>
<event>
 4    1  0.8931296E+003  0.2792094E+02  0.7546771E-02  0.1438570E+00
          2   -1    0    0  501    0  0.00000000000E+00  0.00000000000E+00  0.22938125849E+01  0.22938125849E+01  0.00000000000E+00 0.  1.
          2   -1    0    0  502    0 -0.00000000000E+00 -0.00000000000E+00 -0.12963031097E+04  0.12963031097E+04  0.00000000000E+00 0.  1.
          2    1    1    2  501    0  0.98667322632E+01 -0.26119461100E+02 -0.12047299107E+04  0.12050534164E+04  0.00000000000E+00 0.  1.
          2    1    1    2  502    0 -0.98667322632E+01  0.26119461100E+02 -0.89279386417E+02  0.93543505882E+02  0.00000000000E+00 0.  1.
</event>
<event>
 4    1  0.8931296E+003  0.2907076E+02  0.7546771E-02  0.1427847E+00
          2   -1    0    0  501    0  0.00000000000E+00  0.00000000000E+00  0.55968614475E+03  0.55968614475E+03  0.00000000000E+00 0.  1.
          2   -1    0    0  502    0 -0.00000000000E+00 -0.00000000000E+00 -0.47439587284E+01  0.47439587284E+01  0.00000000000E+00 0. -1.
          2    1    1    2  501    0 -0.36570257521E+01  0.28839815798E+02  0.44458694791E+02  0.53119528943E+02  0.00000000000E+00 0. -1.
          2    1    1    2  502    0  0.36570257521E+01 -0.28839815798E+02  0.51048349123E+03  0.51131057454E+03  0.00000000000E+00 0.  1.
</event>
<event>
 4    1  0.8931296E+003  0.4197870E+02  0.7546771E-02  0.1337265E+00
          2   -1    0    0  502    0  0.00000000000E+00  0.00000000000E+00  0.53239824131E+01  0.53239824131E+01  0.00000000000E+00 0. -1.
          2   -1    0    0  501    0 -0.00000000000E+00 -0.00000000000E+00 -0.59003265461E+03  0.59003265461E+03  0.00000000000E+00 0. -1.
          2    1    1    2  501    0 -0.39799569291E+02  0.13349364383E+02 -0.95116295765E+02  0.10396788430E+03  0.00000000000E+00 0. -1.
          2    1    1    2  502    0  0.39799569291E+02 -0.13349364383E+02 -0.48959237643E+03  0.49138875273E+03  0.00000000000E+00 0. -1.
</event>
<event>
 4    1  0.8931296E+003  0.2669544E+02  0.7546771E-02  0.1450692E+00
          2   -1    0    0  501    0  0.00000000000E+00  0.00000000000E+00  0.17374133633E+04  0.17374133633E+04  0.00000000000E+00 0. -1.
          2   -1    0    0  502    0 -0.00000000000E+00 -0.00000000000E+00 -0.17954643974E+01  0.17954643974E+01  0.00000000000E+00 0. -1.
          2    1    1    2  501    0  0.25384875884E+02  0.82616499588E+01  0.10396736577E+03  0.10733992700E+03  0.00000000000E+00 0. -1.
          2    1    1    2  502    0 -0.25384875884E+02 -0.82616499588E+01  0.16316505332E+04  0.16318689007E+04  0.00000000000E+00 0. -1.
</event>
<event>
 4    1  0.8931296E+003  0.2334359E+02  0.7546771E-02  0.1488228E+00
          2   -1    0    0  502    0  0.00000000000E+00  0.00000000000E+00  0.85905813136E+03  0.85905813136E+03  0.00000000000E+00 0. -1.
          2   -1    0    0  501    0 -0.00000000000E+00 -0.00000000000E+00 -0.19125106936E+02  0.19125106936E+02  0.00000000000E+00 0. -1.
          2    1    1    2  501    0 -0.23324288063E+02 -0.94906403926E+00  0.85171501026E+03  0.85203484778E+03  0.00000000000E+00 0. -1.
          2    1    1    2  502    0  0.23324288063E+02  0.94906403926E+00 -0.11781985835E+02  0.26148390513E+02  0.00000000000E+00 0. -1.
</event>
<event>
 4    1  0.8931296E+003  0.2207067E+02  0.7546771E-02  0.1504510E+00
          2   -1    0    0  502    0  0.00000000000E+00  0.00000000000E+00  0.10672381595E+04  0.10672381595E+04  0.00000000000E+00 0. -1.
          2   -1    0    0  501    0 -0.00000000000E+00 -0.00000000000E+00 -0.35301061810E+03  0.35301061810E+03  0.00000000000E+00 0.  1.
          2    1    1    2  501    0 -0.22069887486E+02 -0.18588354696E+00  0.10667789332E+04  0.10670072196E+04  0.00000000000E+00 0. -1.
          2    1    1    2  502    0  0.22069887486E+02  0.18588354696E+00 -0.35255139173E+03  0.35324155800E+03  0.00000000000E+00 0.  1.
</event>
<event>
 4    1  0.8931296E+003  0.2789660E+02  0.7546771E-02  0.1438804E+00
          2   -1    0    0  501    0  0.00000000000E+00  0.00000000000E+00  0.12262036898E+04  0.12262036898E+04  0.00000000000E+00 0. -1.
          2   -1    0    0  502    0 -0.00000000000E+00 -0.00000000000E+00 -0.10813078502E+02  0.10813078502E+02  0.00000000000E+00 0.  1.
          2    1    1    2  501    0 -0.11688839764E+02 -0.25329652656E+02  0.76126113478E+01  0.28916641061E+02  0.00000000000E+00 0.  1.
          2    1    1    2  502    0  0.11688839764E+02  0.25329652656E+02  0.12077779999E+04  0.12081001272E+04  0.00000000000E+00 0. -1.
</event>
<event>
 4    1  0.8931296E+003  0.2183601E+02  0.7546771E-02  0.1507656E+00
          2   -1    0    0  502    0  0.00000000000E+00  0.00000000000E+00  0.24247136611E+03  0.24247136611E+03  0.00000000000E+00 0. -1.
          2   -1    0    0  501    0 -0.00000000000E+00 -0.00000000000E+00 -0.73305269362E+01  0.73305269362E+01  0.00000000000E+00 0.  1.
          2    1    1    2  501    0 -0.20891733035E+02 -0.63519041726E+01  0.22441317206E+03  0.22547302054E+03  0.00000000000E+00 0. -1.
          2    1    1    2  502    0  0.20891733035E+02  0.63519041726E+01  0.10727667111E+02  0.24328872507E+02  0.00000000000E+00 0.  1.
</event>
<event>
 4    1  0.8931296E+003  0.2106710E+02  0.7546771E-02  0.1518309E+00
          2   -1    0    0  501    0  0.00000000000E+00  0.00000000000E+00  0.25163913035E+03  0.25163913035E+03  0.00000000000E+00 0. -1.
          2   -1    0    0  502    0 -0.00000000000E+00 -0.00000000000E+00 -0.35587331029E+01  0.35587331029E+01  0.00000000000E+00 0.  1.
          2    1    1    2  501    0  0.20939068509E+02 -0.23190727061E+01  0.33418475987E+02  0.39504648151E+02  0.00000000000E+00 0.  1.
          2    1    1    2  502    0 -0.20939068509E+02  0.23190727061E+01  0.21466192126E+03  0.21569321530E+03  0.00000000000E+00 0. -1.
</event>
<event>
 4    1  0.8931296E+003  0.2306299E+02  0.7546771E-02  0.1491709E+00
          2   -1    0    0  501    0  0.00000000000E+00  0.00000000000E+00  0.91041601515E+03  0.91041601515E+03  0.00000000000E+00 0.  1.
          2   -1    0    0  502    0 -0.00000000000E+00 -0.00000000000E+00 -0.61714521496E+02  0.61714521496E+02  0.00000000000E+00 0.  1.
          2    1    1    2  501    0  0.56892424291E+01 -0.22350262556E+02 -0.59408304090E+02  0.63727924103E+02  0.00000000000E+00 0.  1.
          2    1    1    2  502    0 -0.56892424291E+01  0.22350262556E+02  0.90810979774E+03  0.90840261254E+03  0.00000000000E+00 0.  1.
</event>
<event>
 4    1  0.8931296E+003  0.2955421E+02  0.7546771E-02  0.1423510E+00
          2   -1    0    0  502    0  0.00000000000E+00  0.00000000000E+00  0.12676257721E+04  0.12676257721E+04  0.00000000000E+00 0. -1.
          2   -1    0    0  501    0 -0.00000000000E+00 -0.00000000000E+00 -0.25736613084E+02  0.25736613084E+02  0.00000000000E+00 0.  1.
          2    1    1    2  501    0 -0.20935190328E+02 -0.20860706446E+02  0.12589102598E+04  0.12592571197E+04  0.00000000000E+00 0. -1.
          2    1    1    2  502    0  0.20935190328E+02  0.20860706446E+02 -0.17021100734E+02  0.34105265541E+02  0.00000000000E+00 0.  1.
</event>
<event>
 4    1  0.8931296E+003  0.2054754E+02  0.7546771E-02  0.1525824E+00
          2   -1    0    0  501    0  0.00000000000E+00  0.00000000000E+00  0.44535621554E+02  0.44535621554E+02  0.00000000000E+00 0. -1.
          2   -1    0    0  502    0 -0.00000000000E+00 -0.00000000000E+00 -0.27495425094E+03  0.27495425094E+03  0.00000000000E+00 0.  1.
          2    1    1    2  501    0 -0.15845893039E+02  0.13080872588E+02 -0.27217618972E+03  0.27295069116E+03  0.00000000000E+00 0.  1.
          2    1    1    2  502    0  0.15845893039E+02 -0.13080872588E+02  0.41757560336E+02  0.46539181332E+02  0.00000000000E+00 0. -1.
</event>
<event>
 4    1  0.8931296E+003  0.3080351E+02  0.7546771E-02  0.1412740E+00
          2   -1    0    0  501    0  0.00000000000E+00  0.00000000000E+00  0.18387776930E+02  0.18387776930E+02  0.00000000000E+00 0. -1.
          2   -1    0    0  502    0 -0.00000000000E+00 -0.00000000000E+00 -0.17352432662E+03  0.17352432662E+03  0.00000000000E+00 0. -1.
          2    1    1    2  501    0 -0.17238761528E+02 -0.25528044741E+02 -0.15800101196E+03  0.16097569924E+03  0.00000000000E+00 0. -1.
          2    1    1    2  502    0  0.17238761528E+02  0.25528044741E+02  0.28644622672E+01  0.30936404306E+02  0.00000000000E+00 0. -1.
</event>
<event>
 4    1  0.8931296E+003  0.2012749E+02  0.7546771E-02  0.1532096E+00
          2   -1    0    0  502    0  0.00000000000E+00  0.00000000000E+00  0.25273150716E+02  0.25273150716E+02  0.00000000000E+00 0. -1.
          2   -1    0    0  501    0 -0.00000000000E+00 -0.00000000000E+00 -0.43110927506E+03  0.43110927506E+03  0.00000000000E+00 0. -1.
          2    1    1    2  501    0 -0.20127070634E+02  0.12981593110E+00  0.20990665848E+02  0.29081332109E+02  0.00000000000E+00 0. -1.
          2    1    1    2  502    0  0.20127070634E+02 -0.12981593110E+00 -0.42682679019E+03  0.42730109367E+03  0.00000000000E+00 0. -1.
</event>
<event>
 4    1  0.8931296E+003  0.3180894E+02  0.7546771E-02  0.1404502E+00
          2   -1    0    0  501    0  0.00000000000E+00  0.00000000000E+00  0.19913852491E+02  0.19913852491E+02  0.00000000000E+00 0. -1.
          2   -1    0    0  502    0 -0.00000000000E+00 -0.00000000000E+00 -0.10995161545E+03  0.10995161545E+03  0.00000000000E+00 0.  1.
          2    1    1    2  501    0  0.31066504701E+02 -0.68323408007E+01 -0.92641371629E+02  0.97950152284E+02  0.00000000000E+00 0.  1.
          2    1    1    2  502    0 -0.31066504701E+02  0.68323408007E+01  0.26036086721E+01  0.31915315654E+02  0.00000000000E+00 0. -1.
</event>
<event>
 4    1  0.8931296E+003  0.3271148E+02  0.7546771E-02  0.1397408E+00
          2   -1    0    0  501    0  0.00000000000E+00  0.00000000000E+00  0.21839680003E+04  0.21839680003E+04  0.00000000000E+00 0.  1.
          2   -1    0    0  502    0 -0.00000000000E+00 -0.00000000000E+00 -0.12404125343E+01  0.12404125343E+01  0.00000000000E+00 0.  1.
          2    1    1    2  501    0 -0.22657468004E+02 -0.23594063639E+02  0.24151127788E+03  0.24371651163E+03  0.00000000000E+00 0.  1.
          2    1    1    2  502    0  0.22657468004E+02  0.23594063639E+02  0.19412163099E+04  0.19414919012E+04  0.00000000000E+00 0.  1.
</event>
<event>
 4    1  0.8931296E+003  0.2223942E+02  0.7546771E-02  0.1502276E+00
          2   -1    0    0  502    0  0.00000000000E+00  0.00000000000E+00  0.77556372530E+03  0.77556372530E+03  0.00000000000E+00 0. -1.
          2   -1    0    0  501    0 -0.00000000000E+00 -0.00000000000E+00 -0.21099014676E+01  0.21099014676E+01  0.00000000000E+00 0.  1.
          2    1    1    2  501    0 -0.22097195177E+02 -0.25110967712E+01  0.71152773746E+03  0.71187520874E+03  0.00000000000E+00 0. -1.
          2    1    1    2  502    0  0.22097195177E+02  0.25110967712E+01  0.61926086370E+02  0.65798418026E+02  0.00000000000E+00 0.  1.
</event>
<event>
 4    1  0.8931296E+003  0.2371028E+02  0.7546771E-02  0.1483767E+00
          2   -1    0    0  502    0  0.00000000000E+00  0.00000000000E+00  0.19811600502E+03  0.19811600502E+03  0.00000000000E+00 0. -1.
          2   -1    0    0  501    0 -0.00000000000E+00 -0.00000000000E+00 -0.76514959455E+01  0.76514959455E+01  0.00000000000E+00 0. -1.
          2    1    1    2  501    0  0.18600637654E+02  0.14703525987E+02  0.17683808363E+03  0.17842052914E+03  0.00000000000E+00 0. -1.
          2    1    1    2  502    0 -0.18600637654E+02 -0.14703525987E+02  0.13626425448E+02  0.27346971827E+02  0.00000000000E+00 0. -1.
</event>
<event>
 4    1  0.8931296E+003  0.3240640E+02  0.7546771E-02  0.1399775E+00
          2   -1    0    0  502    0  0.00000000000E+00  0.00000000000E+00  0.49571830229E+01  0.49571830229E+01  0.00000000000E+00 0.  1.
          2   -1    0    0  501    0 -0.00000000000E+00 -0.00000000000E+00 -0.34686256904E+03  0.34686256904E+03  0.00000000000E+00 0.  1.
          2    1    1    2  501    0 -0.21351190961E+02 -0.24378295178E+02 -0.61203813526E+02  0.69253746623E+02  0.00000000000E+00 0.  1.
          2    1    1    2  502    0  0.21351190961E+02  0.24378295178E+02 -0.28070157249E+03  0.28256600544E+03  0.00000000000E+00 0.  1.
</event>
<event>
 4    1  0.8931296E+003  0.2209763E+02  0.7546771E-02  0.1504151E+00
          2   -1    0    0  502    0  0.00000000000E+00  0.00000000000E+00  0.56453139804E+00  0.56453139804E+00  0.00000000000E+00 0. -1.
          2   -1    0    0  501    0 -0.00000000000E+00 -0.00000000000E+00 -0.14238875978E+04  0.14238875978E+04  0.00000000000E+00 0.  1.
          2    1    1    2  501    0  0.84691386661E+01 -0.20410265717E+02 -0.26543832115E+03  0.26635654223E+03  0.00000000000E+00 0. -1.
          2    1    1    2  502    0 -0.84691386661E+01  0.20410265717E+02 -0.11578847452E+04  0.11580955869E+04  0.00000000000E+00 0.  1.
</event>
<event>
 4    1  0.8931296E+003  0.2291944E+02  0.7546771E-02  0.1493512E+00
          2   -1    0    0  502    0  0.00000000000E+00  0.00000000000E+00  0.47442885538E+03  0.47442885538E+03  0.00000000000E+00 0. -1.
          2   -1    0    0  501    0 -0.00000000000E+00 -0.00000000000E+00 -0.13056085747E+01  0.13056085747E+01  0.00000000000E+00 0. -1.
          2    1    1    2  501    0  0.21021167966E+02  0.91329821509E+01  0.32928255844E+03  0.33007923921E+03  0.00000000000E+00 0. -1.
          2    1    1    2  502    0 -0.21021167966E+02 -0.91329821509E+01  0.14384068837E+03  0.14565522475E+03  0.00000000000E+00 0. -1.
</event>
<event>
 4    1  0.8931296E+003  0.4471686E+02  0.7546771E-02  0.1322861E+00
          2   -1    0    0  502    0  0.00000000000E+00  0.00000000000E+00  0.40952883983E+02  0.40952883983E+02  0.00000000000E+00 0.  1.
          2   -1    0    0  501    0 -0.00000000000E+00 -0.00000000000E+00 -0.66866632533E+02  0.66866632533E+02  0.00000000000E+00 0.  1.
          2    1    1    2  501    0 -0.81479549965E+00  0.44709441074E+02 -0.40958225323E+02  0.60639708397E+02  0.00000000000E+00 0.  1.
          2    1    1    2  502    0  0.81479549965E+00 -0.44709441074E+02  0.15044476774E+02  0.47179808120E+02  0.00000000000E+00 0.  1.
</event>
<event>
 4    1  0.8931296E+003  0.2988534E+02  0.7546771E-02  0.1420596E+00
          2   -1    0    0  501    0  0.00000000000E+00  0.00000000000E+00  0.22843082254E+01  0.22843082254E+01  0.00000000000E+00 0. -1.
          2   -1    0    0  502    0 -0.00000000000E+00 -0.00000000000E+00 -0.61405287689E+03  0.61405287689E+03  0.00000000000E+00 0. -1.
          2    1    1    2  501    0  0.26208028344E+02  0.14362209348E+02 -0.49162302274E+03  0.49253053742E+03  0.00000000000E+00 0. -1.
          2    1    1    2  502    0 -0.26208028344E+02 -0.14362209348E+02 -0.12014554592E+03  0.12380664769E+03  0.00000000000E+00 0. -1.
</event>
<event>
 4    1  0.8931296E+003  0.2419412E+02  0.7546771E-02  0.1478024E+00
          2   -1    0    0  501    0  0.00000000000E+00  0.00000000000E+00  0.37606008042E+03  0.37606008042E+03  0.00000000000E+00 0. -1.
          2   -1    0    0  502    0 -0.00000000000E+00 -0.00000000000E+00 -0.32109474308E+01  0.32109474308E+01  0.00000000000E+00 0. -1.
          2    1    1    2  501    0 -0.14188094114E+02 -0.19597277581E+02  0.50304123749E+02  0.55819890445E+02  0.00000000000E+00 0. -1.
          2    1    1    2  502    0  0.14188094114E+02  0.19597277581E+02  0.32254500924E+03  0.32345113740E+03  0.00000000000E+00 0. -1.
</event>
<event>
 4    1  0.8931296E+003  0.2263672E+02  0.7546771E-02  0.1497111E+00
          2   -1    0    0  501    0  0.00000000000E+00  0.00000000000E+00  0.13612075044E+03  0.13612075044E+03  0.00000000000E+00 0. -1.
          2   -1    0    0  502    0 -0.00000000000E+00 -0.00000000000E+00 -0.55127634011E+01  0.55127634011E+01  0.00000000000E+00 0.  1.
          2    1    1    2  501    0 -0.22592834030E+02  0.14088336853E+01  0.10518443002E+03  0.10759268228E+03  0.00000000000E+00 0.  1.
          2    1    1    2  502    0  0.22592834030E+02 -0.14088336853E+01  0.25423557022E+02  0.34040831563E+02  0.00000000000E+00 0. -1.
</event>
<event>
 4    1  0.8931296E+003  0.2085570E+02  0.7546771E-02  0.1521335E+00
          2   -1    0    0  501    0  0.00000000000E+00  0.00000000000E+00  0.28374504585E+02  0.28374504585E+02  0.00000000000E+00 0. -1.
          2   -1    0    0  502    0 -0.00000000000E+00 -0.00000000000E+00 -0.14998072472E+03  0.14998072472E+03  0.00000000000E+00 0.  1.
          2    1    1    2  501    0 -0.13121472614E+02 -0.16210717980E+02 -0.14530056996E+03  0.14678970008E+03  0.00000000000E+00 0.  1.
          2    1    1    2  502    0  0.13121472614E+02  0.16210717980E+02  0.23694349827E+02  0.31565529216E+02  0.00000000000E+00 0. -1.
</event>
<event>
 4    1  0.8931296E+003  0.3183056E+02  0.7546771E-02  0.1404329E+00
          2   -1    0    0  501    0  0.00000000000E+00  0.00000000000E+00  0.82612815588E+01  0.82612815588E+01  0.00000000000E+00 0. -1.
          2   -1    0    0  502    0 -0.00000000000E+00 -0.00000000000E+00 -0.14397319058E+03  0.14397319058E+03  0.00000000000E+00 0. -1.
          2    1    1    2  501    0  0.31091504923E+02  0.68193099434E+01 -0.97154368245E+02  0.10223578598E+03  0.00000000000E+00 0. -1.
          2    1    1    2  502    0 -0.31091504923E+02 -0.68193099434E+01 -0.38557540771E+02  0.49998686151E+02  0.00000000000E+00 0. -1.
</event>
<event>
 4    1  0.8931296E+003  0.2138192E+02  0.7546771E-02  0.1513881E+00
          2   -1    0    0  502    0  0.00000000000E+00  0.00000000000E+00  0.50505218161E+03  0.50505218161E+03  0.00000000000E+00 0.  1.
          2   -1    0    0  501    0 -0.00000000000E+00 -0.00000000000E+00 -0.25038087141E+03  0.25038087141E+03  0.00000000000E+00 0. -1.
          2    1    1    2  501    0  0.52760314895E+01  0.20720763655E+02  0.50436876565E+03  0.50482178868E+03  0.00000000000E+00 0.  1.
          2    1    1    2  502    0 -0.52760314895E+01 -0.20720763655E+02 -0.24969745545E+03  0.25061126434E+03  0.00000000000E+00 0. -1.
</event>
<event>
 4    1  0.8931296E+003  0.3743160E+02  0.7546771E-02  0.1364231E+00
          2   -1    0    0  501    0  0.00000000000E+00  0.00000000000E+00  0.38954246310E+01  0.38954246310E+01  0.00000000000E+00 0.  1.
          2   -1    0    0  502    0 -0.00000000000E+00 -0.00000000000E+00 -0.19873496911E+04  0.19873496911E+04  0.00000000000E+00 0.  1.
          2    1    1    2  501    0 -0.35509396125E+02  0.11840932537E+02 -0.18927588622E+04  0.18931289537E+04  0.00000000000E+00 0.  1.
          2    1    1    2  502    0  0.35509396125E+02 -0.11840932537E+02 -0.90695404273E+02  0.98116162037E+02  0.00000000000E+00 0.  1.
</event>
<event>
 4    1  0.8931296E+003  0.2293661E+02  0.7546771E-02  0.1493296E+00
          2   -1    0    0  501    0  0.00000000000E+00  0.00000000000E+00  0.65123025131E+03  0.65123025131E+03  0.00000000000E+00 0. -1.
          2   -1    0    0  502    0 -0.00000000000E+00 -0.00000000000E+00 -0.84658946068E+01  0.84658946068E+01  0.00000000000E+00 0.  1.
          2    1    1    2  501    0  0.20988337986E+02 -0.92508295758E+01  0.76660660707E+01  0.24183811699E+02  0.00000000000E+00 0.  1.
          2    1    1    2  502    0 -0.20988337986E+02  0.92508295758E+01  0.63509829064E+03  0.63551233422E+03  0.00000000000E+00 0. -1.
</event>
<event>
 4    1  0.8931296E+003  0.2398239E+02  0.7546771E-02  0.1480517E+00
          2   -1    0    0  502    0  0.00000000000E+00  0.00000000000E+00  0.93839926740E+01  0.93839926740E+01  0.00000000000E+00 0. -1.
          2   -1    0    0  501    0 -0.00000000000E+00 -0.00000000000E+00 -0.96884849294E+02  0.96884849294E+02  0.00000000000E+00 0. -1.
          2    1    1    2  501    0 -0.14325173961E+02 -0.19233942879E+02 -0.11544566167E+02  0.26616389230E+02  0.00000000000E+00 0. -1.
          2    1    1    2  502    0  0.14325173961E+02  0.19233942879E+02 -0.75956290454E+02  0.79652452738E+02  0.00000000000E+00 0. -1.
</event>
<event>
 4    1  0.8931296E+003  0.3149952E+02  0.7546771E-02  0.1406998E+00
          2   -1    0    0  501    0  0.00000000000E+00  0.00000000000E+00  0.99904144177E+03  0.99904144177E+03  0.00000000000E+00 0.  1.
          2   -1    0    0  502    0 -0.00000000000E+00 -0.00000000000E+00 -0.12846594773E+01  0.12846594773E+01  0.00000000000E+00 0.  1.
          2    1    1    2  501    0 -0.19440914680E+02 -0.24784481025E+02  0.26063120243E+03  0.26252779537E+03  0.00000000000E+00 0.  1.
          2    1    1    2  502    0  0.19440914680E+02  0.24784481025E+02  0.73712557986E+03  0.73779830587E+03  0.00000000000E+00 0.  1.
</event>
<event>
 4    1  0.8931296E+003  0.2141724E+02  0.7546771E-02  0.1513390E+00
          2   -1    0    0  501    0  0.00000000000E+00  0.00000000000E+00  0.32512504513E+03  0.32512504513E+03  0.00000000000E+00 0.  1.
          2   -1    0    0  502    0 -0.00000000000E+00 -0.00000000000E+00 -0.65027001974E+02  0.65027001974E+02  0.00000000000E+00 0. -1.
          2    1    1    2  501    0 -0.20864636808E+02 -0.48337632257E+01 -0.62899196423E+02  0.66445520893E+02  0.00000000000E+00 0. -1.
          2    1    1    2  502    0  0.20864636808E+02  0.48337632257E+01  0.32299723958E+03  0.32370652621E+03  0.00000000000E+00 0.  1.
</event>
<event>
 4    1  0.8931296E+003  0.2098591E+02  0.7546771E-02  0.1519466E+00
          2   -1    0    0  502    0  0.00000000000E+00  0.00000000000E+00  0.82845567569E+03  0.82845567569E+03  0.00000000000E+00 0.  1.
          2   -1    0    0  501    0 -0.00000000000E+00 -0.00000000000E+00 -0.96970708489E+01  0.96970708489E+01  0.00000000000E+00 0.  1.
          2    1    1    2  501    0 -0.12933349945E+02 -0.16526848069E+02  0.81680671707E+03  0.81707626406E+03  0.00000000000E+00 0.  1.
          2    1    1    2  502    0  0.12933349945E+02  0.16526848069E+02  0.19518877791E+01  0.21076482482E+02  0.00000000000E+00 0.  1.
</event>
<event>
 4    1  0.8931296E+003  0.2126766E+02  0.7546771E-02  0.1515478E+00
          2   -1    0    0  502    0  0.00000000000E+00  0.00000000000E+00  0.24614267715E+03  0.24614267715E+03  0.00000000000E+00 0. -1.
          2   -1    0    0  501    0 -0.00000000000E+00 -0.00000000000E+00 -0.80784885260E+01  0.80784885260E+01  0.00000000000E+00 0. -1.
          2    1    1    2  501    0  0.21012767024E+02  0.32828234516E+01  0.23075433854E+03  0.23173234143E+03  0.00000000000E+00 0. -1.
          2    1    1    2  502    0 -0.21012767024E+02 -0.32828234516E+01  0.73098500813E+01  0.22488824247E+02  0.00000000000E+00 0. -1.
</event>
<event>
 4    1  0.8931296E+003  0.5189779E+02  0.7546771E-02  0.1290148E+00
          2   -1    0    0  502    0  0.00000000000E+00  0.00000000000E+00  0.50708564766E+03  0.50708564766E+03  0.00000000000E+00 0.  1.
          2   -1    0    0  501    0 -0.00000000000E+00 -0.00000000000E+00 -0.10475484375E+02  0.10475484375E+02  0.00000000000E+00 0.  1.
          2    1    1    2  501    0  0.10452611700E+02  0.50834274011E+02  0.66612385771E+02  0.84442823517E+02  0.00000000000E+00 0.  1.
          2    1    1    2  502    0 -0.10452611700E+02 -0.50834274011E+02  0.42999777751E+03  0.43311830851E+03  0.00000000000E+00 0.  1.
</event>
<event>
 4    1  0.8931296E+003  0.2114973E+02  0.7546771E-02  0.1517138E+00
          2   -1    0    0  502    0  0.00000000000E+00  0.00000000000E+00  0.17914588609E+03  0.17914588609E+03  0.00000000000E+00 0. -1.
          2   -1    0    0  501    0 -0.00000000000E+00 -0.00000000000E+00 -0.64114341823E+03  0.64114341823E+03  0.00000000000E+00 0.  1.
          2    1    1    2  501    0  0.93084125019E+01  0.18991175088E+02  0.17834645998E+03  0.17959613320E+03  0.00000000000E+00 0. -1.
          2    1    1    2  502    0 -0.93084125019E+01 -0.18991175088E+02 -0.64034399212E+03  0.64069317112E+03  0.00000000000E+00 0.  1.
</event>
<event>
 4    1  0.8931296E+003  0.2759104E+02  0.7546771E-02  0.1441760E+00
          2   -1    0    0  501    0  0.00000000000E+00  0.00000000000E+00  0.51243602079E+02  0.51243602079E+02  0.00000000000E+00 0. -1.
          2   -1    0    0  502    0 -0.00000000000E+00 -0.00000000000E+00 -0.82807971063E+03  0.82807971063E+03  0.00000000000E+00 0. -1.
          2    1    1    2  501    0  0.10015363338E+02  0.25709106861E+02 -0.82411807884E+03  0.82457981636E+03  0.00000000000E+00 0. -1.
          2    1    1    2  502    0 -0.10015363338E+02 -0.25709106861E+02  0.47281970288E+02  0.54743496350E+02  0.00000000000E+00 0. -1.
</event>
<event>
 4    1  0.8931296E+003  0.3024429E+02  0.7546771E-02  0.1417485E+00
          2   -1    0    0  501    0  0.00000000000E+00  0.00000000000E+00  0.82358139747E+03  0.82358139747E+03  0.00000000000E+00 0. -1.
          2   -1    0    0  502    0 -0.00000000000E+00 -0.00000000000E+00 -0.82074759615E+02  0.82074759615E+02  0.00000000000E+00 0.  1.
          2    1    1    2  501    0  0.44181191534E+01 -0.29919850839E+02 -0.79000427126E+02  0.84591871579E+02  0.00000000000E+00 0.  1.
          2    1    1    2  502    0 -0.44181191534E+01  0.29919850839E+02  0.82050706498E+03  0.82106428551E+03  0.00000000000E+00 0. -1.
</event>
<event>
 4    1  0.8931296E+003  0.4255992E+02  0.7546771E-02  0.1334104E+00
          2   -1    0    0  502    0  0.00000000000E+00  0.00000000000E+00  0.18982386077E+04  0.18982386077E+04  0.00000000000E+00 0.  1.
          2   -1    0    0  501    0 -0.00000000000E+00 -0.00000000000E+00 -0.63920096800E+03  0.63920096800E+03  0.00000000000E+00 0.  1.
          2    1    1    2  501    0  0.44334536801E+01 -0.42328377732E+02  0.18972912558E+04  0.18977685466E+04  0.00000000000E+00 0.  1.
          2    1    1    2  502    0 -0.44334536801E+01  0.42328377732E+02 -0.63825361608E+03  0.63967102913E+03  0.00000000000E+00 0.  1.
</event>
<event>
 4    1  0.8931296E+003  0.3168317E+02  0.7546771E-02  0.1405513E+00
          2   -1    0    0  502    0  0.00000000000E+00  0.00000000000E+00  0.41304376579E+03  0.41304376579E+03  0.00000000000E+00 0.  1.
          2   -1    0    0  501    0 -0.00000000000E+00 -0.00000000000E+00 -0.19034752630E+02  0.19034752630E+02  0.00000000000E+00 0. -1.
          2    1    1    2  501    0  0.17854657683E+02 -0.26173160298E+02  0.39878131676E+03  0.40003795034E+03  0.00000000000E+00 0.  1.
          2    1    1    2  502    0 -0.17854657683E+02  0.26173160298E+02 -0.47723035978E+01  0.32040568076E+02  0.00000000000E+00 0. -1.
</event>
<event>
 4    1  0.8931296E+003  0.6769546E+02  0.7546771E-02  0.1235712E+00
          2   -1    0    0  501    0  0.00000000000E+00  0.00000000000E+00  0.59992192727E+02  0.59992192727E+02  0.00000000000E+00 0. -1.
          2   -1    0    0  502    0 -0.00000000000E+00 -0.00000000000E+00 -0.34954736786E+04  0.34954736786E+04  0.00000000000E+00 0.  1.
          2    1    1    2  501    0 -0.11423993132E+02 -0.66724568430E+02 -0.34759416544E+04  0.34766007911E+04  0.00000000000E+00 0.  1.
          2    1    1    2  502    0  0.11423993132E+02  0.66724568430E+02  0.40460168510E+02  0.78865080277E+02  0.00000000000E+00 0. -1.
</event>
<event>
 4    1  0.8931296E+003  0.2516970E+02  0.7546771E-02  0.1466914E+00
          2   -1    0    0  502    0  0.00000000000E+00  0.00000000000E+00  0.22274021862E+03  0.22274021862E+03  0.00000000000E+00 0.  1.
          2   -1    0    0  501    0 -0.00000000000E+00 -0.00000000000E+00 -0.48858509205E+01  0.48858509205E+01  0.00000000000E+00 0.  1.
          2    1    1    2  501    0  0.12328217696E+02  0.21943767510E+02  0.18249950854E+03  0.18422699178E+03  0.00000000000E+00 0.  1.
          2    1    1    2  502    0 -0.12328217696E+02 -0.21943767510E+02  0.35354859163E+02  0.43399077761E+02  0.00000000000E+00 0.  1.
</event>
<event>
 4    1  0.8931296E+003  0.3537046E+02  0.7546771E-02  0.1377977E+00
          2   -1    0    0  502    0  0.00000000000E+00  0.00000000000E+00  0.17298714815E+04  0.17298714815E+04  0.00000000000E+00 0.  1.
          2   -1    0    0  501    0 -0.00000000000E+00 -0.00000000000E+00 -0.27786349213E+01  0.27786349213E+01  0.00000000000E+00 0.  1.
          2    1    1    2  501    0  0.33238337885E+02 -0.12094714949E+02  0.16086478556E+04  0.16090366660E+04  0.00000000000E+00 0.  1.
          2    1    1    2  502    0 -0.33238337885E+02  0.12094714949E+02  0.11844499099E+03  0.12361345043E+03  0.00000000000E+00 0.  1.
</event>
<event>
 4    1  0.8931296E+003  0.3705255E+02  0.7546771E-02  0.1366681E+00
          2   -1    0    0  501    0  0.00000000000E+00  0.00000000000E+00  0.30587417469E+04  0.30587417469E+04  0.00000000000E+00 0.  1.
          2   -1    0    0  502    0 -0.00000000000E+00 -0.00000000000E+00 -0.10914378428E+01  0.10914378428E+01  0.00000000000E+00 0. -1.
          2    1    1    2  501    0 -0.70817061753E+01 -0.36369505194E+02  0.35490856784E+03  0.35683747420E+03  0.00000000000E+00 0. -1.
          2    1    1    2  502    0  0.70817061753E+01  0.36369505194E+02  0.27027417412E+04  0.27029957105E+04  0.00000000000E+00 0.  1.
</event>
<event>
 4    1  0.8931296E+003  0.2761151E+02  0.7546771E-02  0.1441560E+00
          2   -1    0    0  502    0  0.00000000000E+00  0.00000000000E+00  0.26643046651E+01  0.26643046651E+01  0.00000000000E+00 0. -1.
          2   -1    0    0  501    0 -0.00000000000E+00 -0.00000000000E+00 -0.70241538425E+03  0.70241538425E+03  0.00000000000E+00 0.  1.
          2    1    1    2  501    0 -0.10460270261E+02  0.25553434681E+02 -0.78484522394E+02  0.83199852965E+02  0.00000000000E+00 0. -1.
          2    1    1    2  502    0  0.10460270261E+02 -0.25553434681E+02 -0.62126655719E+03  0.62187983595E+03  0.00000000000E+00 0.  1.
</event>
<event>
 4    1  0.8931296E+003  0.3540551E+02  0.7546771E-02  0.1377735E+00
          2   -1    0    0  501    0  0.00000000000E+00  0.00000000000E+00  0.52159534017E+03  0.52159534017E+03  0.00000000000E+00 0.  1.
          2   -1    0    0  502    0 -0.00000000000E+00 -0.00000000000E+00 -0.12226163035E+03  0.12226163035E+03  0.00000000000E+00 0. -1.
          2    1    1    2  501    0 -0.34087228447E+02  0.95713611107E+01 -0.11908184825E+03  0.12423379845E+03  0.00000000000E+00 0. -1.
          2    1    1    2  502    0  0.34087228447E+02 -0.95713611107E+01  0.51841555807E+03  0.51962317206E+03  0.00000000000E+00 0.  1.
</event>
<event>
 4    1  0.8931296E+003  0.2057059E+02  0.7546771E-02  0.1525485E+00
          2   -1    0    0  501    0  0.00000000000E+00  0.00000000000E+00  0.11352609839E+01  0.11352609839E+01  0.00000000000E+00 0.  1.
          2   -1    0    0  502    0 -0.00000000000E+00 -0.00000000000E+00 -0.12285377796E+04  0.12285377796E+04  0.00000000000E+00 0.  1.
          2    1    1    2  501    0  0.24200813443E+01  0.20427731654E+02 -0.11268612639E+04  0.11270490039E+04  0.00000000000E+00 0.  1.
          2    1    1    2  502    0 -0.24200813443E+01 -0.20427731654E+02 -0.10054125467E+03  0.10262403668E+03  0.00000000000E+00 0.  1.
</event>
<event>
 4    1  0.8931296E+003  0.4618745E+02  0.7546771E-02  0.1315606E+00
          2   -1    0    0  501    0  0.00000000000E+00  0.00000000000E+00  0.57553403926E+02  0.57553403926E+02  0.00000000000E+00 0.  1.
          2   -1    0    0  502    0 -0.00000000000E+00 -0.00000000000E+00 -0.18410224824E+04  0.18410224824E+04  0.00000000000E+00 0. -1.
          2    1    1    2  501    0  0.42795384305E+02  0.17373414135E+02 -0.18314176793E+04  0.18319999990E+04  0.00000000000E+00 0. -1.
          2    1    1    2  502    0 -0.42795384305E+02 -0.17373414135E+02  0.47948600870E+02  0.66575887241E+02  0.00000000000E+00 0.  1.
</event>
<event>
 4    1  0.8931296E+003  0.6396816E+02  0.7546771E-02  0.1246915E+00
          2   -1    0    0  502    0  0.00000000000E+00  0.00000000000E+00  0.11674100146E+04  0.11674100146E+04  0.00000000000E+00 0.  1.
          2   -1    0    0  501    0 -0.00000000000E+00 -0.00000000000E+00 -0.85415556275E+02  0.85415556275E+02  0.00000000000E+00 0. -1.
          2    1    1    2  501    0  0.30655524727E+02 -0.56144134437E+02  0.11544225757E+04  0.11561934995E+04  0.00000000000E+00 0.  1.
          2    1    1    2  502    0 -0.30655524727E+02  0.56144134437E+02 -0.72428117379E+02  0.96632071358E+02  0.00000000000E+00 0. -1.
</event>
<event>
 4    1  0.8931296E+003  0.2562990E+02  0.7546771E-02  0.1461879E+00
          2   -1    0    0  502    0  0.00000000000E+00  0.00000000000E+00  0.56887391163E+03  0.56887391163E+03  0.00000000000E+00 0.  1.
          2   -1    0    0  501    0 -0.00000000000E+00 -0.00000000000E+00 -0.12273337384E+02  0.12273337384E+02  0.00000000000E+00 0. -1.
          2    1    1    2  501    0  0.20553691729E+02 -0.15311356654E+02  0.55486717649E+03  0.55545879725E+03  0.00000000000E+00 0.  1.
          2    1    1    2  502    0 -0.20553691729E+02  0.15311356654E+02  0.17333977466E+01  0.25688451764E+02  0.00000000000E+00 0. -1.
</event>
<event>
 4    1  0.8931296E+003  0.2369887E+02  0.7546771E-02  0.1483904E+00
          2   -1    0    0  501    0  0.00000000000E+00  0.00000000000E+00  0.68803001037E+02  0.68803001037E+02  0.00000000000E+00 0. -1.
          2   -1    0    0  502    0 -0.00000000000E+00 -0.00000000000E+00 -0.82138305154E+01  0.82138305154E+01  0.00000000000E+00 0.  1.
          2    1    1    2  501    0  0.77753965785E+01  0.22387037177E+02  0.27264109054E+02  0.36124338998E+02  0.00000000000E+00 0.  1.
          2    1    1    2  502    0 -0.77753965785E+01 -0.22387037177E+02  0.33325061468E+02  0.40892492555E+02  0.00000000000E+00 0. -1.
</event>
<event>
 4    1  0.8931296E+003  0.3078104E+02  0.7546771E-02  0.1412928E+00
          2   -1    0    0  501    0  0.00000000000E+00  0.00000000000E+00  0.40851502086E+02  0.40851502086E+02  0.00000000000E+00 0.  1.
          2   -1    0    0  502    0 -0.00000000000E+00 -0.00000000000E+00 -0.40631436709E+03  0.40631436709E+03  0.00000000000E+00 0.  1.
          2    1    1    2  501    0 -0.22556620158E+02 -0.20944487571E+02 -0.39983936765E+03  0.40102243403E+03  0.00000000000E+00 0.  1.
          2    1    1    2  502    0  0.22556620158E+02  0.20944487571E+02  0.34376502647E+02  0.46143435144E+02  0.00000000000E+00 0.  1.
</event>
<event>
 4    1  0.8931296E+003  0.3848628E+02  0.7546771E-02  0.1357592E+00
          2   -1    0    0  502    0  0.00000000000E+00  0.00000000000E+00  0.85265195623E+03  0.85265195623E+03  0.00000000000E+00 0.  1.
          2   -1    0    0  501    0 -0.00000000000E+00 -0.00000000000E+00 -0.19839666666E+01  0.19839666666E+01  0.00000000000E+00 0.  1.
          2    1    1    2  501    0  0.33937177155E+02  0.18151074484E+02  0.57605082775E+03  0.57733504108E+03  0.00000000000E+00 0.  1.
          2    1    1    2  502    0 -0.33937177155E+02 -0.18151074484E+02  0.27461716181E+03  0.27730088182E+03  0.00000000000E+00 0.  1.
</event>
<event>
 4    1  0.8931296E+003  0.3503075E+02  0.7546771E-02  0.1380347E+00
          2   -1    0    0  502    0  0.00000000000E+00  0.00000000000E+00  0.36635537981E+03  0.36635537981E+03  0.00000000000E+00 0. -1.
          2   -1    0    0  501    0 -0.00000000000E+00 -0.00000000000E+00 -0.18787518329E+04  0.18787518329E+04  0.00000000000E+00 0.  1.
          2    1    1    2  501    0  0.32086289766E+02 -0.14057855958E+02  0.36535423331E+03  0.36702979321E+03  0.00000000000E+00 0. -1.
          2    1    1    2  502    0 -0.32086289766E+02  0.14057855958E+02 -0.18777506864E+04  0.18780774195E+04  0.00000000000E+00 0.  1.
</event>
<event>
 4    1  0.8931296E+003  0.2152945E+02  0.7546771E-02  0.1511838E+00
          2   -1    0    0  501    0  0.00000000000E+00  0.00000000000E+00  0.95168060258E+02  0.95168060258E+02  0.00000000000E+00 0. -1.
          2   -1    0    0  502    0 -0.00000000000E+00 -0.00000000000E+00 -0.49362242325E+01  0.49362242325E+01  0.00000000000E+00 0. -1.
          2    1    1    2  501    0  0.21197635553E+02 -0.37652958469E+01  0.50890857356E+02  0.55257547613E+02  0.00000000000E+00 0. -1.
          2    1    1    2  502    0 -0.21197635553E+02  0.37652958469E+01  0.39340978670E+02  0.44846736877E+02  0.00000000000E+00 0. -1.
</event>
<event>
 4    1  0.8931296E+003  0.2883295E+02  0.7546771E-02  0.1430016E+00
          2   -1    0    0  502    0  0.00000000000E+00  0.00000000000E+00  0.91227579383E+00  0.91227579383E+00  0.00000000000E+00 0. -1.
          2   -1    0    0  501    0 -0.00000000000E+00 -0.00000000000E+00 -0.15990801785E+04  0.15990801785E+04  0.00000000000E+00 0.  1.
          2    1    1    2  501    0 -0.26051181159E+02  0.12356178664E+02 -0.27441690695E+03  0.27592748687E+03  0.00000000000E+00 0. -1.
          2    1    1    2  502    0  0.26051181159E+02 -0.12356178664E+02 -0.13237509958E+04  0.13240649674E+04  0.00000000000E+00 0.  1.
</event>
<event>
 4    1  0.8931296E+003  0.2491671E+02  0.7546771E-02  0.1469737E+00
          2   -1    0    0  501    0  0.00000000000E+00  0.00000000000E+00  0.10191396964E+02  0.10191396964E+02  0.00000000000E+00 0. -1.
          2   -1    0    0  502    0 -0.00000000000E+00 -0.00000000000E+00 -0.13358269041E+04  0.13358269041E+04  0.00000000000E+00 0. -1.
          2    1    1    2  501    0 -0.10079201291E+02 -0.22787108848E+02 -0.13203020755E+04  0.13205371684E+04  0.00000000000E+00 0. -1.
          2    1    1    2  502    0  0.10079201291E+02  0.22787108848E+02 -0.53334316585E+01  0.25481132659E+02  0.00000000000E+00 0. -1.
</event>
<event>
 4    1  0.8931296E+003  0.2189557E+02  0.7546771E-02  0.1506853E+00
          2   -1    0    0  501    0  0.00000000000E+00  0.00000000000E+00  0.24040365257E+01  0.24040365257E+01  0.00000000000E+00 0.  1.
          2   -1    0    0  502    0 -0.00000000000E+00 -0.00000000000E+00 -0.63019858668E+03  0.63019858668E+03  0.00000000000E+00 0. -1.
          2    1    1    2  501    0 -0.43695401441E+01  0.21455138020E+02 -0.57540753554E+03  0.57582397292E+03  0.00000000000E+00 0. -1.
          2    1    1    2  502    0  0.43695401441E+01 -0.21455138020E+02 -0.52387014616E+02  0.56778650292E+02  0.00000000000E+00 0.  1.
</event>
<event>
 4    1  0.8931296E+003  0.4590274E+02  0.7546771E-02  0.1316986E+00
          2   -1    0    0  501    0  0.00000000000E+00  0.00000000000E+00  0.82953637575E+03  0.82953637575E+03  0.00000000000E+00 0. -1.
          2   -1    0    0  502    0 -0.00000000000E+00 -0.00000000000E+00 -0.29154056666E+01  0.29154056666E+01  0.00000000000E+00 0. -1.
          2    1    1    2  501    0 -0.45477072177E+02  0.62367515932E+01  0.26396126092E+03  0.26792276580E+03  0.00000000000E+00 0. -1.
          2    1    1    2  502    0  0.45477072177E+02 -0.62367515932E+01  0.56265970916E+03  0.56452901562E+03  0.00000000000E+00 0. -1.
</event>
<event>
 4    1  0.8931296E+003  0.4630792E+02  0.7546771E-02  0.1315026E+00
          2   -1    0    0  501    0  0.00000000000E+00  0.00000000000E+00  0.29617934535E+02  0.29617934535E+02  0.00000000000E+00 0.  1.
          2   -1    0    0  502    0 -0.00000000000E+00 -0.00000000000E+00 -0.13763084389E+03  0.13763084389E+03  0.00000000000E+00 0. -1.
          2    1    1    2  501    0  0.45169084482E+02 -0.10206726661E+02 -0.11157589626E+03  0.12080399036E+03  0.00000000000E+00 0. -1.
          2    1    1    2  502    0 -0.45169084482E+02  0.10206726661E+02  0.35629869062E+01  0.46444788058E+02  0.00000000000E+00 0.  1.
</event>
<event>
 4    1  0.8931296E+003  0.5710165E+02  0.7546771E-02  0.1270011E+00
          2   -1    0    0  502    0  0.00000000000E+00  0.00000000000E+00  0.18464173342E+04  0.18464173342E+04  0.00000000000E+00 0. -1.
          2   -1    0    0  501    0 -0.00000000000E+00 -0.00000000000E+00 -0.24658353958E+02  0.24658353958E+02  0.00000000000E+00 0.  1.
          2    1    1    2  501    0  0.29095519047E+02  0.49132976399E+02  0.18122958609E+04  0.18131952145E+04  0.00000000000E+00 0. -1.
          2    1    1    2  502    0 -0.29095519047E+02 -0.49132976399E+02  0.94631193434E+01  0.57880473618E+02  0.00000000000E+00 0.  1.
</event>
<event>
 4    1  0.8931296E+003  0.2441769E+02  0.7546771E-02  0.1475424E+00
          2   -1    0    0  501    0  0.00000000000E+00  0.00000000000E+00  0.33908174024E+03  0.33908174024E+03  0.00000000000E+00 0.  1.
          2   -1    0    0  502    0 -0.00000000000E+00 -0.00000000000E+00 -0.41974518788E+03  0.41974518788E+03  0.00000000000E+00 0.  1.
          2    1    1    2  501    0  0.23072338582E+02 -0.79931718431E+01 -0.41894965649E+03  0.41966062274E+03  0.00000000000E+00 0.  1.
          2    1    1    2  502    0 -0.23072338582E+02  0.79931718431E+01  0.33828620886E+03  0.33916630538E+03  0.00000000000E+00 0.  1.
</event>
<event>
 4    1  0.8931296E+003  0.2665332E+02  0.7546771E-02  0.1451122E+00
          2   -1    0    0  501    0  0.00000000000E+00  0.00000000000E+00  0.16615749807E+04  0.16615749807E+04  0.00000000000E+00 0.  1.
          2   -1    0    0  502    0 -0.00000000000E+00 -0.00000000000E+00 -0.55843755926E+00  0.55843755926E+00  0.00000000000E+00 0.  1.
          2    1    1    2  501    0 -0.25877092874E+02  0.63855897899E+01  0.42815786894E+03  0.42898666696E+03  0.00000000000E+00 0.  1.
          2    1    1    2  502    0  0.25877092874E+02 -0.63855897899E+01  0.12328586742E+04  0.12331467513E+04  0.00000000000E+00 0.  1.
</event>
<event>
 4    1  0.8931296E+003  0.3603380E+02  0.7546771E-02  0.1373437E+00
          2   -1    0    0  501    0  0.00000000000E+00  0.00000000000E+00  0.60450259107E+03  0.60450259107E+03  0.00000000000E+00 0. -1.
          2   -1    0    0  502    0 -0.00000000000E+00 -0.00000000000E+00 -0.94661321025E+01  0.94661321025E+01  0.00000000000E+00 0.  1.
          2    1    1    2  501    0 -0.22010185707E+02  0.28530444800E+02  0.27600189981E+02  0.45389481626E+02  0.00000000000E+00 0.  1.
          2    1    1    2  502    0  0.22010185707E+02 -0.28530444800E+02  0.56743626899E+03  0.56857924154E+03  0.00000000000E+00 0. -1.
</event>
<event>
 4    1  0.8931296E+003  0.2683534E+02  0.7546771E-02  0.1449269E+00
          2   -1    0    0  502    0  0.00000000000E+00  0.00000000000E+00  0.14886675662E+02  0.14886675662E+02  0.00000000000E+00 0.  1.
          2   -1    0    0  501    0 -0.00000000000E+00 -0.00000000000E+00 -0.12108237542E+03  0.12108237542E+03  0.00000000000E+00 0.  1.
          2    1    1    2  501    0 -0.55578483369E+01 -0.26253487642E+02 -0.41607815578E+00  0.26838562043E+02  0.00000000000E+00 0.  1.
          2    1    1    2  502    0  0.55578483369E+01  0.26253487642E+02 -0.10577962160E+03  0.10913048904E+03  0.00000000000E+00 0.  1.
</event>
<event>
 4    1  0.8931296E+003  0.2001126E+02  0.7546771E-02  0.1533864E+00
          2   -1    0    0  502    0  0.00000000000E+00  0.00000000000E+00  0.80153166787E+02  0.80153166787E+02  0.00000000000E+00 0. -1.
          2   -1    0    0  501    0 -0.00000000000E+00 -0.00000000000E+00 -0.14564337810E+02  0.14564337810E+02  0.00000000000E+00 0. -1.
          2    1    1    2  501    0 -0.16015672409E+02 -0.11997860591E+02  0.71180308316E+02  0.73939750564E+02  0.00000000000E+00 0. -1.
          2    1    1    2  502    0  0.16015672409E+02  0.11997860591E+02 -0.55914793383E+01  0.20777754033E+02  0.00000000000E+00 0. -1.
</event>
<event>
 4    1  0.8931296E+003  0.9440867E+02  0.7546771E-02  0.1173866E+00
          2   -1    0    0  501    0  0.00000000000E+00  0.00000000000E+00  0.56412426697E+02  0.56412426697E+02  0.00000000000E+00 0. -1.
          2   -1    0    0  502    0 -0.00000000000E+00 -0.00000000000E+00 -0.10962830926E+04  0.10962830926E+04  0.00000000000E+00 0. -1.
          2    1    1    2  501    0  0.71167986934E+02 -0.62033167008E+02 -0.10531362438E+04  0.10573594205E+04  0.00000000000E+00 0. -1.
          2    1    1    2  502    0 -0.71167986934E+02  0.62033167008E+02  0.13265577889E+02  0.95336098777E+02  0.00000000000E+00 0. -1.
</event>
<event>
 4    1  0.8931296E+003  0.2106829E+02  0.7546771E-02  0.1518292E+00
          2   -1    0    0  501    0  0.00000000000E+00  0.00000000000E+00  0.64308595271E+03  0.64308595271E+03  0.00000000000E+00 0. -1.
          2   -1    0    0  502    0 -0.00000000000E+00 -0.00000000000E+00 -0.61240147029E+01  0.61240147029E+01  0.00000000000E+00 0.  1.
          2    1    1    2  501    0  0.21068276791E+02  0.27473503921E-01  0.12715425254E+02  0.24608028795E+02  0.00000000000E+00 0.  1.
          2    1    1    2  502    0 -0.21068276791E+02 -0.27473503921E-01  0.62424651276E+03  0.62460193862E+03  0.00000000000E+00 0. -1.
</event>
<event>
 4    1  0.8931296E+003  0.2599347E+02  0.7546771E-02  0.1457990E+00
          2   -1    0    0  502    0  0.00000000000E+00  0.00000000000E+00  0.50050596190E+03  0.50050596190E+03  0.00000000000E+00 0. -1.
          2   -1    0    0  501    0 -0.00000000000E+00 -0.00000000000E+00 -0.10433899415E+02  0.10433899415E+02  0.00000000000E+00 0. -1.
          2    1    1    2  501    0  0.11504923295E+02  0.23308738309E+02  0.48340718610E+03  0.48410553406E+03  0.00000000000E+00 0. -1.
          2    1    1    2  502    0 -0.11504923295E+02 -0.23308738309E+02  0.66648763858E+01  0.26834327248E+02  0.00000000000E+00 0. -1.
</event>
<event>
 4    1  0.8931296E+003  0.2911446E+02  0.7546771E-02  0.1427451E+00
          2   -1    0    0  502    0  0.00000000000E+00  0.00000000000E+00  0.28464102209E+03  0.28464102209E+03  0.00000000000E+00 0.  1.
          2   -1    0    0  501    0 -0.00000000000E+00 -0.00000000000E+00 -0.58894527128E+02  0.58894527128E+02  0.00000000000E+00 0.  1.
          2    1    1    2  501    0 -0.80259235650E+01  0.27986364288E+02  0.28024202210E+03  0.28175032029E+03  0.00000000000E+00 0.  1.
          2    1    1    2  502    0  0.80259235650E+01 -0.27986364288E+02 -0.54495527137E+02  0.61785228923E+02  0.00000000000E+00 0.  1.
</event>
<event>
 4    1  0.8931296E+003  0.2722564E+02  0.7546771E-02  0.1445355E+00
          2   -1    0    0  502    0  0.00000000000E+00  0.00000000000E+00  0.40409605648E+01  0.40409605648E+01  0.00000000000E+00 0. -1.
          2   -1    0    0  501    0 -0.00000000000E+00 -0.00000000000E+00 -0.22810051372E+03  0.22810051372E+03  0.00000000000E+00 0. -1.
          2    1    1    2  501    0  0.21404638070E+02  0.16824887881E+02 -0.60664729035E+02  0.66493945078E+02  0.00000000000E+00 0. -1.
          2    1    1    2  502    0 -0.21404638070E+02 -0.16824887881E+02 -0.16339482412E+03  0.16564752921E+03  0.00000000000E+00 0. -1.
</event>
<event>
 4    1  0.8931296E+003  0.2273693E+02  0.7546771E-02  0.1495828E+00
          2   -1    0    0  502    0  0.00000000000E+00  0.00000000000E+00  0.28076975013E+01  0.28076975013E+01  0.00000000000E+00 0. -1.
          2   -1    0    0  501    0 -0.00000000000E+00 -0.00000000000E+00 -0.90280794923E+03  0.90280794923E+03  0.00000000000E+00 0. -1.
          2    1    1    2  501    0 -0.77144041493E+01 -0.21388221515E+02 -0.45996907616E+02  0.51309682919E+02  0.00000000000E+00 0. -1.
          2    1    1    2  502    0  0.77144041493E+01  0.21388221515E+02 -0.85400334412E+03  0.85430596382E+03  0.00000000000E+00 0. -1.
</event>
<event>
 4    1  0.8931296E+003  0.2147212E+02  0.7546771E-02  0.1512630E+00
          2   -1    0    0  501    0  0.00000000000E+00  0.00000000000E+00  0.47253926060E+03  0.47253926060E+03  0.00000000000E+00 0. -1.
          2   -1    0    0  502    0 -0.00000000000E+00 -0.00000000000E+00 -0.98763864556E+00  0.98763864556E+00  0.00000000000E+00 0.  1.
          2    1    1    2  501    0 -0.10363655443E+02  0.18805492838E+02  0.20973396677E+03  0.21083023676E+03  0.00000000000E+00 0. -1.
          2    1    1    2  502    0  0.10363655443E+02 -0.18805492838E+02  0.26181765518E+03  0.26269666249E+03  0.00000000000E+00 0.  1.
</event>
<event>
 4    1  0.8931296E+003  0.2050602E+02  0.7546771E-02  0.1526436E+00
          2   -1    0    0  502    0  0.00000000000E+00  0.00000000000E+00  0.17714017749E+01  0.17714017749E+01  0.00000000000E+00 0. -1.
          2   -1    0    0  501    0 -0.00000000000E+00 -0.00000000000E+00 -0.39481021921E+03  0.39481021921E+03  0.00000000000E+00 0. -1.
          2    1    1    2  501    0 -0.20436371008E+02  0.16886093007E+01 -0.71305830415E+02  0.74195809265E+02  0.00000000000E+00 0. -1.
          2    1    1    2  502    0  0.20436371008E+02 -0.16886093007E+01 -0.32173298702E+03  0.32238581171E+03  0.00000000000E+00 0. -1.
</event>
<event>
 4    1  0.8931296E+003  0.2423571E+02  0.7546771E-02  0.1477538E+00
          2   -1    0    0  502    0  0.00000000000E+00  0.00000000000E+00  0.16833555774E+04  0.16833555774E+04  0.00000000000E+00 0.  1.
          2   -1    0    0  501    0 -0.00000000000E+00 -0.00000000000E+00 -0.36249319318E+00  0.36249319318E+00  0.00000000000E+00 0.  1.
          2    1    1    2  501    0 -0.14994062498E+02  0.19040679895E+02  0.67863927707E+03  0.67907189441E+03  0.00000000000E+00 0.  1.
          2    1    1    2  502    0  0.14994062498E+02 -0.19040679895E+02  0.10043538072E+04  0.10046461762E+04  0.00000000000E+00 0.  1.
</event>
<event>
 4    1  0.8931296E+003  0.2051687E+02  0.7546771E-02  0.1526276E+00
          2   -1    0    0  501    0  0.00000000000E+00  0.00000000000E+00  0.15590653044E+02  0.15590653044E+02  0.00000000000E+00 0.  1.
          2   -1    0    0  502    0 -0.00000000000E+00 -0.00000000000E+00 -0.28975776124E+02  0.28975776124E+02  0.00000000000E+00 0. -1.
          2    1    1    2  501    0  0.18617367089E+02 -0.86218018237E+01 -0.12511853014E+02  0.24030986036E+02  0.00000000000E+00 0. -1.
          2    1    1    2  502    0 -0.18617367089E+02  0.86218018237E+01 -0.87327006615E+00  0.20535443132E+02  0.00000000000E+00 0.  1.
</event>
<event>
 4    1  0.8931296E+003  0.2332990E+02  0.7546771E-02  0.1488397E+00
          2   -1    0    0  502    0  0.00000000000E+00  0.00000000000E+00  0.99187074884E+03  0.99187074884E+03  0.00000000000E+00 0. -1.
          2   -1    0    0  501    0 -0.00000000000E+00 -0.00000000000E+00 -0.13388932506E+01  0.13388932506E+01  0.00000000000E+00 0.  1.
          2    1    1    2  501    0  0.16508061906E+02  0.16485392332E+02  0.87676387374E+03  0.87707421269E+03  0.00000000000E+00 0. -1.
          2    1    1    2  502    0 -0.16508061906E+02 -0.16485392332E+02  0.11376798184E+03  0.11613542940E+03  0.00000000000E+00 0.  1.
</event>
<event>
 4    1  0.8931296E+003  0.2532998E+02  0.7546771E-02  0.1465146E+00
          2   -1    0    0  502    0  0.00000000000E+00  0.00000000000E+00  0.19263078636E+03  0.19263078636E+03  0.00000000000E+00 0.  1.
          2   -1    0    0  501    0 -0.00000000000E+00 -0.00000000000E+00 -0.11767698211E+04  0.11767698211E+04  0.00000000000E+00 0.  1.
          2    1    1    2  501    0 -0.10927837128E+02 -0.22851479526E+02  0.19166110167E+03  0.19332766391E+03  0.00000000000E+00 0.  1.
          2    1    1    2  502    0  0.10927837128E+02  0.22851479526E+02 -0.11758001364E+04  0.11760729436E+04  0.00000000000E+00 0.  1.
</event>
<event>
 4    1  0.8931296E+003  0.2270913E+02  0.7546771E-02  0.1496183E+00
          2   -1    0    0  501    0  0.00000000000E+00  0.00000000000E+00  0.41746670326E+02  0.41746670326E+02  0.00000000000E+00 0. -1.
          2   -1    0    0  502    0 -0.00000000000E+00 -0.00000000000E+00 -0.38835569185E+02  0.38835569185E+02  0.00000000000E+00 0. -1.
          2    1    1    2  501    0 -0.21942844538E+02 -0.58494423380E+01 -0.31815999076E+02  0.39089157056E+02  0.00000000000E+00 0. -1.
          2    1    1    2  502    0  0.21942844538E+02  0.58494423380E+01  0.34727100217E+02  0.41493082455E+02  0.00000000000E+00 0. -1.
</event>
<event>
 4    1  0.8931296E+003  0.2739448E+02  0.7546771E-02  0.1443685E+00
          2   -1    0    0  501    0  0.00000000000E+00  0.00000000000E+00  0.13267682806E+01  0.13267682806E+01  0.00000000000E+00 0.  1.
          2   -1    0    0  502    0 -0.00000000000E+00 -0.00000000000E+00 -0.75997292707E+03  0.75997292707E+03  0.00000000000E+00 0.  1.
          2    1    1    2  501    0  0.23341671159E+02 -0.14339589518E+02 -0.57181525315E+03  0.57247108326E+03  0.00000000000E+00 0.  1.
          2    1    1    2  502    0 -0.23341671159E+02  0.14339589518E+02 -0.18683090565E+03  0.18882861209E+03  0.00000000000E+00 0.  1.
</event>
<event>
 4    1  0.8931296E+003  0.2345672E+02  0.7546771E-02  0.1486841E+00
          2   -1    0    0  501    0  0.00000000000E+00  0.00000000000E+00  0.11793099769E+03  0.11793099769E+03  0.00000000000E+00 0.  1.
          2   -1    0    0  502    0 -0.00000000000E+00 -0.00000000000E+00 -0.37872058424E+02  0.37872058424E+02  0.00000000000E+00 0.  1.
          2    1    1    2  501    0  0.28863925506E+01 -0.23278457054E+02 -0.32915921684E+02  0.40418754620E+02  0.00000000000E+00 0.  1.
          2    1    1    2  502    0 -0.28863925506E+01  0.23278457054E+02  0.11297486095E+03  0.11538430150E+03  0.00000000000E+00 0.  1.
</event>
<event>
 4    1  0.8931296E+003  0.2869370E+02  0.7546771E-02  0.1431298E+00
          2   -1    0    0  502    0  0.00000000000E+00  0.00000000000E+00  0.10832307159E+02  0.10832307159E+02  0.00000000000E+00 0. -1.
          2   -1    0    0  501    0 -0.00000000000E+00 -0.00000000000E+00 -0.81275158234E+02  0.81275158234E+02  0.00000000000E+00 0.  1.
          2    1    1    2  501    0  0.60662796020E+01 -0.28045115835E+02 -0.23496060735E+02  0.37086293162E+02  0.00000000000E+00 0. -1.
          2    1    1    2  502    0 -0.60662796020E+01  0.28045115835E+02 -0.46946790340E+02  0.55021172231E+02  0.00000000000E+00 0.  1.
</event>
<event>
 4    1  0.8931296E+003  0.5728297E+02  0.7546771E-02  0.1269354E+00
          2   -1    0    0  501    0  0.00000000000E+00  0.00000000000E+00  0.16748978664E+02  0.16748978664E+02  0.00000000000E+00 0.  1.
          2   -1    0    0  502    0 -0.00000000000E+00 -0.00000000000E+00 -0.22162978154E+04  0.22162978154E+04  0.00000000000E+00 0.  1.
          2    1    1    2  501    0 -0.18490680116E+02 -0.54216540163E+02 -0.21658078969E+04  0.21665652966E+04  0.00000000000E+00 0.  1.
          2    1    1    2  502    0  0.18490680116E+02  0.54216540163E+02 -0.33740939899E+02  0.66481497453E+02  0.00000000000E+00 0.  1.
</event>
<event>
 4    1  0.8931296E+003  0.1138171E+03  0.7546771E-02  0.1141806E+00
          2   -1    0    0  502    0  0.00000000000E+00  0.00000000000E+00  0.93945869043E+03  0.93945869043E+03  0.00000000000E+00 0. -1.
          2   -1    0    0  501    0 -0.00000000000E+00 -0.00000000000E+00 -0.18303684323E+02  0.18303684323E+02  0.00000000000E+00 0.  1.
          2    1    1    2  501    0 -0.11246613554E+03 -0.17484331161E+02  0.69840669893E+03  0.70762013156E+03  0.00000000000E+00 0. -1.
          2    1    1    2  502    0  0.11246613554E+03  0.17484331161E+02  0.22274830717E+03  0.25014224319E+03  0.00000000000E+00 0.  1.
</event>
<event>
 4    1  0.8931296E+003  0.3084499E+02  0.7546771E-02  0.1412393E+00
          2   -1    0    0  502    0  0.00000000000E+00  0.00000000000E+00  0.80160171062E+02  0.80160171062E+02  0.00000000000E+00 0.  1.
          2   -1    0    0  501    0 -0.00000000000E+00 -0.00000000000E+00 -0.89480239840E+02  0.89480239840E+02  0.00000000000E+00 0. -1.
          2    1    1    2  501    0  0.29843645145E+02  0.77955456126E+01  0.74334731930E+02  0.80480221533E+02  0.00000000000E+00 0.  1.
          2    1    1    2  502    0 -0.29843645145E+02 -0.77955456126E+01 -0.83654800707E+02  0.89160189369E+02  0.00000000000E+00 0. -1.
</event>
<event>
 4    1  0.8931296E+003  0.2230671E+02  0.7546771E-02  0.1501392E+00
          2   -1    0    0  502    0  0.00000000000E+00  0.00000000000E+00  0.33002460275E+03  0.33002460275E+03  0.00000000000E+00 0.  1.
          2   -1    0    0  501    0 -0.00000000000E+00 -0.00000000000E+00 -0.28886321336E+02  0.28886321336E+02  0.00000000000E+00 0.  1.
          2    1    1    2  501    0 -0.52044186103E+01  0.21691085487E+02  0.32527846496E+03  0.32604243424E+03  0.00000000000E+00 0.  1.
          2    1    1    2  502    0  0.52044186103E+01 -0.21691085487E+02 -0.24140183547E+02  0.32868489839E+02  0.00000000000E+00 0.  1.
</event>
<event>
 4    1  0.8931296E+003  0.2209690E+02  0.7546771E-02  0.1504161E+00
          2   -1    0    0  501    0  0.00000000000E+00  0.00000000000E+00  0.19650714831E+03  0.19650714831E+03  0.00000000000E+00 0. -1.
          2   -1    0    0  502    0 -0.00000000000E+00 -0.00000000000E+00 -0.77586990561E+02  0.77586990561E+02  0.00000000000E+00 0.  1.
          2    1    1    2  501    0  0.12366069052E+02  0.18312653284E+02 -0.75374635713E+02  0.78546856353E+02  0.00000000000E+00 0.  1.
          2    1    1    2  502    0 -0.12366069052E+02 -0.18312653284E+02  0.19429479346E+03  0.19554728252E+03  0.00000000000E+00 0. -1.
</event>
<event>
 4    1  0.8931296E+003  0.2421412E+02  0.7546771E-02  0.1477790E+00
          2   -1    0    0  501    0  0.00000000000E+00  0.00000000000E+00  0.16329293598E+01  0.16329293598E+01  0.00000000000E+00 0. -1.
          2   -1    0    0  502    0 -0.00000000000E+00 -0.00000000000E+00 -0.12962655888E+04  0.12962655888E+04  0.00000000000E+00 0.  1.
          2    1    1    2  501    0 -0.23476933368E+02 -0.59293664964E+01 -0.11991149215E+04  0.11993593784E+04  0.00000000000E+00 0.  1.
          2    1    1    2  502    0  0.23476933368E+02  0.59293664964E+01 -0.95517737953E+02  0.98539139691E+02  0.00000000000E+00 0. -1.
</event>
<event>
 4    1  0.8931296E+003  0.2100608E+02  0.7546771E-02  0.1519178E+00
          2   -1    0    0  502    0  0.00000000000E+00  0.00000000000E+00  0.11054968083E+01  0.11054968083E+01  0.00000000000E+00 0. -1.
          2   -1    0    0  501    0 -0.00000000000E+00 -0.00000000000E+00 -0.55735225076E+03  0.55735225076E+03  0.00000000000E+00 0. -1.
          2    1    1    2  501    0 -0.20997577368E+02  0.59773706228E+00 -0.12935654072E+03  0.13105102125E+03  0.00000000000E+00 0. -1.
          2    1    1    2  502    0  0.20997577368E+02 -0.59773706228E+00 -0.42689021324E+03  0.42740672632E+03  0.00000000000E+00 0. -1.
</event>
<event>
 4    1  0.8931296E+003  0.2184390E+02  0.7546771E-02  0.1507549E+00
          2   -1    0    0  501    0  0.00000000000E+00  0.00000000000E+00  0.66097119240E+01  0.66097119240E+01  0.00000000000E+00 0.  1.
          2   -1    0    0  502    0 -0.00000000000E+00 -0.00000000000E+00 -0.68536383838E+03  0.68536383838E+03  0.00000000000E+00 0. -1.
          2    1    1    2  501    0 -0.20662902430E+02 -0.70852323304E+01 -0.66663535818E+03  0.66699314601E+03  0.00000000000E+00 0. -1.
          2    1    1    2  502    0  0.20662902430E+02  0.70852323304E+01 -0.12118768278E+02  0.24980404292E+02  0.00000000000E+00 0.  1.
</event>
<event>
 4    1  0.8931296E+003  0.3081812E+02  0.7546771E-02  0.1412617E+00
          2   -1    0    0  502    0  0.00000000000E+00  0.00000000000E+00  0.27160998592E+03  0.27160998592E+03  0.00000000000E+00 0. -1.
          2   -1    0    0  501    0 -0.00000000000E+00 -0.00000000000E+00 -0.12979858150E+04  0.12979858150E+04  0.00000000000E+00 0. -1.
          2    1    1    2  501    0  0.22139013517E+02  0.21438760108E+02  0.27055215281E+03  0.27230171454E+03  0.00000000000E+00 0. -1.
          2    1    1    2  502    0 -0.22139013517E+02 -0.21438760108E+02 -0.12969279818E+04  0.12972940863E+04  0.00000000000E+00 0. -1.
</event>
<event>
 4    1  0.8931296E+003  0.2133579E+02  0.7546771E-02  0.1514524E+00
          2   -1    0    0  501    0  0.00000000000E+00  0.00000000000E+00  0.19481407373E+03  0.19481407373E+03  0.00000000000E+00 0. -1.
          2   -1    0    0  502    0 -0.00000000000E+00 -0.00000000000E+00 -0.47346221878E+01  0.47346221878E+01  0.00000000000E+00 0. -1.
          2    1    1    2  501    0 -0.10648031303E+02  0.18488793615E+02  0.24033478674E+02  0.32137581694E+02  0.00000000000E+00 0. -1.
          2    1    1    2  502    0  0.10648031303E+02 -0.18488793615E+02  0.16604597286E+03  0.16741111422E+03  0.00000000000E+00 0. -1.
</event>
<event>
 4    1  0.8931296E+003  0.2378684E+02  0.7546771E-02  0.1482847E+00
          2   -1    0    0  501    0  0.00000000000E+00  0.00000000000E+00  0.13028965292E+04  0.13028965292E+04  0.00000000000E+00 0.  1.
          2   -1    0    0  502    0 -0.00000000000E+00 -0.00000000000E+00 -0.41637723745E+02  0.41637723745E+02  0.00000000000E+00 0. -1.
          2    1    1    2  501    0  0.22398100672E+01  0.23681148781E+02 -0.38122724964E+02  0.44935016583E+02  0.00000000000E+00 0. -1.
          2    1    1    2  502    0 -0.22398100672E+01 -0.23681148781E+02  0.12993815305E+04  0.12995992364E+04  0.00000000000E+00 0.  1.
</event>
<event>
 4    1  0.8931296E+003  0.2947245E+02  0.7546771E-02  0.1424237E+00
          2   -1    0    0  502    0  0.00000000000E+00  0.00000000000E+00  0.52030048178E+02  0.52030048178E+02  0.00000000000E+00 0.  1.
          2   -1    0    0  501    0 -0.00000000000E+00 -0.00000000000E+00 -0.55448691557E+03  0.55448691557E+03  0.00000000000E+00 0. -1.
          2    1    1    2  501    0 -0.90153330434E+01  0.28059741533E+02  0.47429851196E+02  0.55840989508E+02  0.00000000000E+00 0.  1.
          2    1    1    2  502    0  0.90153330434E+01 -0.28059741533E+02 -0.54988671859E+03  0.55067597424E+03  0.00000000000E+00 0. -1.
</event>
<event>
 4    1  0.8931296E+003  0.2898966E+02  0.7546771E-02  0.1428584E+00
          2   -1    0    0  501    0  0.00000000000E+00  0.00000000000E+00  0.36825022936E+02  0.36825022936E+02  0.00000000000E+00 0. -1.
          2   -1    0    0  502    0 -0.00000000000E+00 -0.00000000000E+00 -0.19010760557E+04  0.19010760557E+04  0.00000000000E+00 0. -1.
          2    1    1    2  501    0 -0.23443813630E+02  0.17052499462E+02 -0.18952426191E+04  0.18954643192E+04  0.00000000000E+00 0. -1.
          2    1    1    2  502    0  0.23443813630E+02 -0.17052499462E+02  0.30991586280E+02  0.42436759484E+02  0.00000000000E+00 0. -1.
</event>
<event>
 4    1  0.8931296E+003  0.5489511E+02  0.7546771E-02  0.1278238E+00
          2   -1    0    0  501    0  0.00000000000E+00  0.00000000000E+00  0.35030442750E+03  0.35030442750E+03  0.00000000000E+00 0.  1.
          2   -1    0    0  502    0 -0.00000000000E+00 -0.00000000000E+00 -0.77621511380E+02  0.77621511380E+02  0.00000000000E+00 0.  1.
          2    1    1    2  501    0 -0.96317743187E+01 -0.54043518277E+02 -0.65417173652E+02  0.85398358023E+02  0.00000000000E+00 0.  1.
          2    1    1    2  502    0  0.96317743187E+01  0.54043518277E+02  0.33810008977E+03  0.34252758085E+03  0.00000000000E+00 0.  1.
</event>
<event>
 4    1  0.8931296E+003  0.3066863E+02  0.7546771E-02  0.1413873E+00
          2   -1    0    0  502    0  0.00000000000E+00  0.00000000000E+00  0.27872235559E+01  0.27872235559E+01  0.00000000000E+00 0.  1.
          2   -1    0    0  501    0 -0.00000000000E+00 -0.00000000000E+00 -0.60850183825E+03  0.60850183825E+03  0.00000000000E+00 0.  1.
          2    1    1    2  501    0  0.91494714881E+01 -0.29272033923E+02 -0.98868094952E+02  0.10351553023E+03  0.00000000000E+00 0.  1.
          2    1    1    2  502    0 -0.91494714881E+01  0.29272033923E+02 -0.50684651975E+03  0.50777353158E+03  0.00000000000E+00 0.  1.
</event>
<event>
 4    1  0.8931296E+003  0.2892908E+02  0.7546771E-02  0.1429137E+00
          2   -1    0    0  501    0  0.00000000000E+00  0.00000000000E+00  0.13185151960E+04  0.13185151960E+04  0.00000000000E+00 0.  1.
          2   -1    0    0  502    0 -0.00000000000E+00 -0.00000000000E+00 -0.77660176857E+01  0.77660176857E+01  0.00000000000E+00 0.  1.
          2    1    1    2  501    0  0.15614784538E+02  0.24353030875E+02  0.19911055378E+02  0.35118965463E+02  0.00000000000E+00 0.  1.
          2    1    1    2  502    0 -0.15614784538E+02 -0.24353030875E+02  0.12908381229E+04  0.12911622482E+04  0.00000000000E+00 0.  1.
</event>
<event>
 4    1  0.8931296E+003  0.4595286E+02  0.7546771E-02  0.1316742E+00
          2   -1    0    0  502    0  0.00000000000E+00  0.00000000000E+00  0.42423953012E+04  0.42423953012E+04  0.00000000000E+00 0. -1.
          2   -1    0    0  501    0 -0.00000000000E+00 -0.00000000000E+00 -0.62200401866E+00  0.62200401866E+00  0.00000000000E+00 0. -1.
          2    1    1    2  501    0  0.45415806380E+02  0.70049827506E+01  0.30690825686E+04  0.30694265715E+04  0.00000000000E+00 0. -1.
          2    1    1    2  502    0 -0.45415806380E+02 -0.70049827506E+01  0.11726907286E+04  0.11735907337E+04  0.00000000000E+00 0. -1.
</event>
<event>
 4    1  0.8931296E+003  0.4713422E+02  0.7546771E-02  0.1311100E+00
          2   -1    0    0  502    0  0.00000000000E+00  0.00000000000E+00  0.11068153153E+03  0.11068153153E+03  0.00000000000E+00 0. -1.
          2   -1    0    0  501    0 -0.00000000000E+00 -0.00000000000E+00 -0.13823760310E+03  0.13823760310E+03  0.00000000000E+00 0. -1.
          2    1    1    2  501    0 -0.68728843834E+01 -0.46630444960E+02  0.10129144203E+03  0.11172104173E+03  0.00000000000E+00 0. -1.
          2    1    1    2  502    0  0.68728843834E+01  0.46630444960E+02 -0.12884751360E+03  0.13719809291E+03  0.00000000000E+00 0. -1.
</event>
<event>
 4    1  0.8931296E+003  0.2255258E+02  0.7546771E-02  0.1498194E+00
          2   -1    0    0  501    0  0.00000000000E+00  0.00000000000E+00  0.12799659013E+04  0.12799659013E+04  0.00000000000E+00 0. -1.
          2   -1    0    0  502    0 -0.00000000000E+00 -0.00000000000E+00 -0.33013210029E+02  0.33013210029E+02  0.00000000000E+00 0. -1.
          2    1    1    2  501    0 -0.17088857815E+02 -0.14716993385E+02 -0.29050274419E+02  0.36776859566E+02  0.00000000000E+00 0. -1.
          2    1    1    2  502    0  0.17088857815E+02  0.14716993385E+02  0.12760029657E+04  0.12762022518E+04  0.00000000000E+00 0. -1.
</event>
<event>
 4    1  0.8931296E+003  0.2940933E+02  0.7546771E-02  0.1424800E+00
          2   -1    0    0  502    0  0.00000000000E+00  0.00000000000E+00  0.74860432666E+01  0.74860432666E+01  0.00000000000E+00 0. -1.
          2   -1    0    0  501    0 -0.00000000000E+00 -0.00000000000E+00 -0.21748787195E+04  0.21748787195E+04  0.00000000000E+00 0.  1.
          2    1    1    2  501    0  0.29330091915E+02  0.21574547800E+01 -0.21892923391E+02  0.36663455886E+02  0.00000000000E+00 0. -1.
          2    1    1    2  502    0 -0.29330091915E+02 -0.21574547800E+01 -0.21454997529E+04  0.21457013069E+04  0.00000000000E+00 0.  1.
</event>
<event>
 4    1  0.8931296E+003  0.3148537E+02  0.7546771E-02  0.1407113E+00
          2   -1    0    0  502    0  0.00000000000E+00  0.00000000000E+00  0.19253511592E+02  0.19253511592E+02  0.00000000000E+00 0. -1.
          2   -1    0    0  501    0 -0.00000000000E+00 -0.00000000000E+00 -0.43995778862E+03  0.43995778862E+03  0.00000000000E+00 0. -1.
          2    1    1    2  501    0 -0.18738414586E+02  0.25302182389E+02  0.54002337963E+01  0.31945127014E+02  0.00000000000E+00 0. -1.
          2    1    1    2  502    0  0.18738414586E+02 -0.25302182389E+02 -0.42610451082E+03  0.42726617320E+03  0.00000000000E+00 0. -1.
</event>
<event>
 4    1  0.8931296E+003  0.3009547E+02  0.7546771E-02  0.1418769E+00
          2   -1    0    0  501    0  0.00000000000E+00  0.00000000000E+00  0.65567020948E+03  0.65567020948E+03  0.00000000000E+00 0. -1.
          2   -1    0    0  502    0 -0.00000000000E+00 -0.00000000000E+00 -0.25143342180E+01  0.25143342180E+01  0.00000000000E+00 0. -1.
          2    1    1    2  501    0  0.27064883779E+02  0.13161659614E+02  0.10567058673E+03  0.10987269960E+03  0.00000000000E+00 0. -1.
          2    1    1    2  502    0 -0.27064883779E+02 -0.13161659614E+02  0.54748528853E+03  0.54831184410E+03  0.00000000000E+00 0. -1.
</event>
<event>
 4    1  0.8931296E+003  0.2026319E+02  0.7546771E-02  0.1530050E+00
          2   -1    0    0  502    0  0.00000000000E+00  0.00000000000E+00  0.10886737821E+04  0.10886737821E+04  0.00000000000E+00 0. -1.
          2   -1    0    0  501    0 -0.00000000000E+00 -0.00000000000E+00 -0.25936660929E+01  0.25936660929E+01  0.00000000000E+00 0.  1.
          2    1    1    2  501    0 -0.22823268586E+01 -0.20134246682E+02  0.10474449550E+04  0.10476409359E+04  0.00000000000E+00 0. -1.
          2    1    1    2  502    0  0.22823268586E+01  0.20134246682E+02  0.38635161025E+02  0.43626512269E+02  0.00000000000E+00 0.  1.
</event>
<event>
 4    1  0.8931296E+003  0.3483585E+02  0.7546771E-02  0.1381721E+00
          2   -1    0    0  502    0  0.00000000000E+00  0.00000000000E+00  0.19403398573E+02  0.19403398573E+02  0.00000000000E+00 0. -1.
          2   -1    0    0  501    0 -0.00000000000E+00 -0.00000000000E+00 -0.71658285031E+03  0.71658285031E+03  0.00000000000E+00 0.  1.
          2    1    1    2  501    0 -0.31231491466E+02 -0.15431473885E+02  0.29778229432E+01  0.34962892829E+02  0.00000000000E+00 0. -1.
          2    1    1    2  502    0  0.31231491466E+02  0.15431473885E+02 -0.70015727468E+03  0.70102335605E+03  0.00000000000E+00 0.  1.
</event>
<event>
 4    1  0.8931296E+003  0.2741876E+02  0.7546771E-02  0.1443446E+00
          2   -1    0    0  501    0  0.00000000000E+00  0.00000000000E+00  0.12473719397E+03  0.12473719397E+03  0.00000000000E+00 0. -1.
          2   -1    0    0  502    0 -0.00000000000E+00 -0.00000000000E+00 -0.16615327026E+02  0.16615327026E+02  0.00000000000E+00 0.  1.
          2    1    1    2  501    0  0.10612437208E+02  0.25281700056E+02 -0.23590901655E+01  0.27520056098E+02  0.00000000000E+00 0.  1.
          2    1    1    2  502    0 -0.10612437208E+02 -0.25281700056E+02  0.11048095711E+03  0.11383246490E+03  0.00000000000E+00 0. -1.
</event>
<event>
 4    1  0.8931296E+003  0.2289964E+02  0.7546771E-02  0.1493762E+00
          2   -1    0    0  502    0  0.00000000000E+00  0.00000000000E+00  0.35484128300E+03  0.35484128300E+03  0.00000000000E+00 0.  1.
          2   -1    0    0  501    0 -0.00000000000E+00 -0.00000000000E+00 -0.31299094425E+02  0.31299094425E+02  0.00000000000E+00 0. -1.
          2    1    1    2  501    0  0.21760344795E+02 -0.71330733495E+01  0.35022814822E+03  0.35097599512E+03  0.00000000000E+00 0.  1.
          2    1    1    2  502    0 -0.21760344795E+02  0.71330733495E+01 -0.26685959646E+02  0.35164382309E+02  0.00000000000E+00 0. -1.
</event>
<event>
 4    1  0.8931296E+003  0.2194656E+02  0.7546771E-02  0.1506168E+00
          2   -1    0    0  502    0  0.00000000000E+00  0.00000000000E+00  0.91392790137E+03  0.91392790137E+03  0.00000000000E+00 0. -1.
          2   -1    0    0  501    0 -0.00000000000E+00 -0.00000000000E+00 -0.16947236167E+03  0.16947236167E+03  0.00000000000E+00 0. -1.
          2    1    1    2  501    0 -0.50165590836E+01 -0.21365522026E+02  0.91308497629E+03  0.91334868770E+03  0.00000000000E+00 0. -1.
          2    1    1    2  502    0  0.50165590836E+01  0.21365522026E+02 -0.16862943659E+03  0.17005157535E+03  0.00000000000E+00 0. -1.
</event>
<event>
 4    1  0.8931296E+003  0.2804049E+02  0.7546771E-02  0.1437427E+00
          2   -1    0    0  502    0  0.00000000000E+00  0.00000000000E+00  0.67498867411E+03  0.67498867411E+03  0.00000000000E+00 0.  1.
          2   -1    0    0  501    0 -0.00000000000E+00 -0.00000000000E+00 -0.34396022566E+01  0.34396022566E+01  0.00000000000E+00 0.  1.
          2    1    1    2  501    0 -0.24017785396E+02 -0.14471176742E+02  0.61163260672E+03  0.61227503181E+03  0.00000000000E+00 0.  1.
          2    1    1    2  502    0  0.24017785396E+02  0.14471176742E+02  0.59916465132E+02  0.66153244558E+02  0.00000000000E+00 0.  1.
</event>
<event>
 4    1  0.8931296E+003  0.2049319E+02  0.7546771E-02  0.1526625E+00
          2   -1    0    0  502    0  0.00000000000E+00  0.00000000000E+00  0.10757907796E+01  0.10757907796E+01  0.00000000000E+00 0.  1.
          2   -1    0    0  501    0 -0.00000000000E+00 -0.00000000000E+00 -0.13186182229E+04  0.13186182229E+04  0.00000000000E+00 0.  1.
          2    1    1    2  501    0  0.31525998627E+00 -0.20490764989E+02 -0.10515009808E+03  0.10712849278E+03  0.00000000000E+00 0.  1.
          2    1    1    2  502    0 -0.31525998627E+00  0.20490764989E+02 -0.12123923341E+04  0.12125655209E+04  0.00000000000E+00 0.  1.
</event>
<event>
 4    1  0.8931296E+003  0.2876204E+02  0.7546771E-02  0.1430668E+00
          2   -1    0    0  502    0  0.00000000000E+00  0.00000000000E+00  0.12309704917E+02  0.12309704917E+02  0.00000000000E+00 0.  1.
          2   -1    0    0  501    0 -0.00000000000E+00 -0.00000000000E+00 -0.21277936852E+03  0.21277936852E+03  0.00000000000E+00 0. -1.
          2    1    1    2  501    0 -0.28269727956E+02 -0.52988151133E+01 -0.71445402509E+01  0.29636116745E+02  0.00000000000E+00 0.  1.
          2    1    1    2  502    0  0.28269727956E+02  0.52988151133E+01 -0.19332512336E+03  0.19545295669E+03  0.00000000000E+00 0. -1.
</event>
<event>
 4    1  0.8931296E+003  0.3353120E+02  0.7546771E-02  0.1391194E+00
          2   -1    0    0  502    0  0.00000000000E+00  0.00000000000E+00  0.66676645653E+03  0.66676645653E+03  0.00000000000E+00 0. -1.
          2   -1    0    0  501    0 -0.00000000000E+00 -0.00000000000E+00 -0.17629894938E+01  0.17629894938E+01  0.00000000000E+00 0.  1.
          2    1    1    2  501    0 -0.33395995310E+02  0.30080913924E+01  0.40223643125E+03  0.40363162381E+03  0.00000000000E+00 0. -1.
          2    1    1    2  502    0  0.33395995310E+02 -0.30080913924E+01  0.26276703579E+03  0.26489782222E+03  0.00000000000E+00 0.  1.
</event>
<event>
 4    1  0.8931296E+003  0.2036119E+02  0.7546771E-02  0.1528584E+00
          2   -1    0    0  501    0  0.00000000000E+00  0.00000000000E+00  0.32368838814E+03  0.32368838814E+03  0.00000000000E+00 0.  1.
          2   -1    0    0  502    0 -0.00000000000E+00 -0.00000000000E+00 -0.37191926797E+01  0.37191926797E+01  0.00000000000E+00 0.  1.
          2    1    1    2  501    0  0.20280363236E+02 -0.18123963923E+01  0.27432435327E+02  0.34163085657E+02  0.00000000000E+00 0.  1.
          2    1    1    2  502    0 -0.20280363236E+02  0.18123963923E+01  0.29253676014E+03  0.29324449516E+03  0.00000000000E+00 0.  1.
</event>
<event>
 4    1  0.8931296E+003  0.2336086E+02  0.7546771E-02  0.1488016E+00
          2   -1    0    0  501    0  0.00000000000E+00  0.00000000000E+00  0.57438812042E+02  0.57438812042E+02  0.00000000000E+00 0. -1.
          2   -1    0    0  502    0 -0.00000000000E+00 -0.00000000000E+00 -0.39932693765E+02  0.39932693765E+02  0.00000000000E+00 0. -1.
          2    1    1    2  501    0  0.14437111402E+02  0.18365714405E+02 -0.33748045187E+02  0.41044612377E+02  0.00000000000E+00 0. -1.
          2    1    1    2  502    0 -0.14437111402E+02 -0.18365714405E+02  0.51254163463E+02  0.56326893430E+02  0.00000000000E+00 0. -1.
</event>
<event>
 4    1  0.8931296E+003  0.4994499E+02  0.7546771E-02  0.1298411E+00
          2   -1    0    0  501    0  0.00000000000E+00  0.00000000000E+00  0.25466939862E+03  0.25466939862E+03  0.00000000000E+00 0.  1.
          2   -1    0    0  502    0 -0.00000000000E+00 -0.00000000000E+00 -0.75752683285E+02  0.75752683285E+02  0.00000000000E+00 0. -1.
          2    1    1    2  501    0  0.49642771292E+02  0.54861046641E+01 -0.64701945423E+02  0.81736429011E+02  0.00000000000E+00 0. -1.
          2    1    1    2  502    0 -0.49642771292E+02 -0.54861046641E+01  0.24361866075E+03  0.24868565289E+03  0.00000000000E+00 0.  1.
</event>
<event>
 4    1  0.8931296E+003  0.2416943E+02  0.7546771E-02  0.1478313E+00
          2   -1    0    0  502    0  0.00000000000E+00  0.00000000000E+00  0.37042947917E+03  0.37042947917E+03  0.00000000000E+00 0.  1.
          2   -1    0    0  501    0 -0.00000000000E+00 -0.00000000000E+00 -0.31097053662E+02  0.31097053662E+02  0.00000000000E+00 0. -1.
          2    1    1    2  501    0  0.20206680248E+01 -0.24084817601E+02  0.36527272839E+03  0.36607147887E+03  0.00000000000E+00 0.  1.
          2    1    1    2  502    0 -0.20206680248E+01  0.24084817601E+02 -0.25940302878E+02  0.35455053964E+02  0.00000000000E+00 0. -1.
</event>
<event>
 4    1  0.8931296E+003  0.2005694E+02  0.7546771E-02  0.1533167E+00
          2   -1    0    0  502    0  0.00000000000E+00  0.00000000000E+00  0.98858125886E+01  0.98858125886E+01  0.00000000000E+00 0. -1.
          2   -1    0    0  501    0 -0.00000000000E+00 -0.00000000000E+00 -0.15271535953E+03  0.15271535953E+03  0.00000000000E+00 0. -1.
          2    1    1    2  501    0 -0.14435307806E+02  0.13924889904E+02 -0.17833610742E+01  0.20136063345E+02  0.00000000000E+00 0. -1.
          2    1    1    2  502    0  0.14435307806E+02 -0.13924889904E+02 -0.14104618586E+03  0.14246510877E+03  0.00000000000E+00 0. -1.
</event>
<event>
 4    1  0.8931296E+003  0.3631804E+02  0.7546771E-02  0.1371526E+00
          2   -1    0    0  502    0  0.00000000000E+00  0.00000000000E+00  0.92528609761E+03  0.92528609761E+03  0.00000000000E+00 0.  1.
          2   -1    0    0  501    0 -0.00000000000E+00 -0.00000000000E+00 -0.96336017704E+01  0.96336017704E+01  0.00000000000E+00 0.  1.
          2    1    1    2  501    0 -0.29309597354E+02  0.21446393293E+02  0.88931670475E+03  0.89005797655E+03  0.00000000000E+00 0.  1.
          2    1    1    2  502    0  0.29309597354E+02 -0.21446393293E+02  0.26335791085E+02  0.44861722820E+02  0.00000000000E+00 0.  1.
</event>
<event>
 4    1  0.8931296E+003  0.4638391E+02  0.7546771E-02  0.1314661E+00
          2   -1    0    0  502    0  0.00000000000E+00  0.00000000000E+00  0.32299615092E+03  0.32299615092E+03  0.00000000000E+00 0.  1.
          2   -1    0    0  501    0 -0.00000000000E+00 -0.00000000000E+00 -0.49592750355E+03  0.49592750355E+03  0.00000000000E+00 0. -1.
          2    1    1    2  501    0 -0.43904558884E+02 -0.14961838275E+02  0.32023704585E+03  0.32357878860E+03  0.00000000000E+00 0.  1.
          2    1    1    2  502    0  0.43904558884E+02  0.14961838275E+02 -0.49316839848E+03  0.49534486588E+03  0.00000000000E+00 0. -1.
</event>
<event>
 4    1  0.8931296E+003  0.2626840E+02  0.7546771E-02  0.1455099E+00
          2   -1    0    0  501    0  0.00000000000E+00  0.00000000000E+00  0.64194463172E+03  0.64194463172E+03  0.00000000000E+00 0. -1.
          2   -1    0    0  502    0 -0.00000000000E+00 -0.00000000000E+00 -0.36683751544E+01  0.36683751544E+01  0.00000000000E+00 0.  1.
          2    1    1    2  501    0 -0.69110140671E+01 -0.25342985895E+02  0.47715476460E+02  0.54468300353E+02  0.00000000000E+00 0.  1.
          2    1    1    2  502    0  0.69110140671E+01  0.25342985895E+02  0.59056078010E+03  0.59114470652E+03  0.00000000000E+00 0. -1.
</event>
<event>
 4    1  0.8931296E+003  0.2444230E+02  0.7546771E-02  0.1475140E+00
          2   -1    0    0  501    0  0.00000000000E+00  0.00000000000E+00  0.81170727859E+03  0.81170727859E+03  0.00000000000E+00 0. -1.
          2   -1    0    0  502    0 -0.00000000000E+00 -0.00000000000E+00 -0.19364402760E+01  0.19364402760E+01  0.00000000000E+00 0. -1.
          2    1    1    2  501    0 -0.70352884731E+01  0.23407921095E+02  0.84575498684E+02  0.88036589163E+02  0.00000000000E+00 0. -1.
          2    1    1    2  502    0  0.70352884731E+01 -0.23407921095E+02  0.72519533963E+03  0.72560712971E+03  0.00000000000E+00 0. -1.
</event>
<event>
 4    1  0.8931296E+003  0.2445706E+02  0.7546771E-02  0.1474970E+00
          2   -1    0    0  501    0  0.00000000000E+00  0.00000000000E+00  0.82618821928E+03  0.82618821928E+03  0.00000000000E+00 0.  1.
          2   -1    0    0  502    0 -0.00000000000E+00 -0.00000000000E+00 -0.23100163279E+03  0.23100163279E+03  0.00000000000E+00 0.  1.
          2    1    1    2  501    0 -0.76387470169E+01 -0.23233535283E+02 -0.23017264524E+03  0.23146834391E+03  0.00000000000E+00 0.  1.
          2    1    1    2  502    0  0.76387470169E+01  0.23233535283E+02  0.82535923173E+03  0.82572150815E+03  0.00000000000E+00 0.  1.
</event>
<event>
 4    1  0.8931296E+003  0.2974232E+02  0.7546771E-02  0.1421849E+00
          2   -1    0    0  501    0  0.00000000000E+00  0.00000000000E+00  0.16921464077E+02  0.16921464077E+02  0.00000000000E+00 0.  1.
          2   -1    0    0  502    0 -0.00000000000E+00 -0.00000000000E+00 -0.82349355721E+03  0.82349355721E+03  0.00000000000E+00 0.  1.
          2    1    1    2  501    0  0.14210050739E+02  0.26128151173E+02 -0.80993704167E+03  0.81048295312E+03  0.00000000000E+00 0.  1.
          2    1    1    2  502    0 -0.14210050739E+02 -0.26128151173E+02  0.33649485451E+01  0.29932068161E+02  0.00000000000E+00 0.  1.
</event>
<event>
 4    1  0.8931296E+003  0.2802480E+02  0.7546771E-02  0.1437577E+00
          2   -1    0    0  502    0  0.00000000000E+00  0.00000000000E+00  0.68106549022E+03  0.68106549022E+03  0.00000000000E+00 0.  1.
          2   -1    0    0  501    0 -0.00000000000E+00 -0.00000000000E+00 -0.35878859021E+02  0.35878859021E+02  0.00000000000E+00 0. -1.
          2    1    1    2  501    0  0.14904469696E+02 -0.23732807832E+02  0.67525763930E+03  0.67583893704E+03  0.00000000000E+00 0.  1.
          2    1    1    2  502    0 -0.14904469696E+02  0.23732807832E+02 -0.30071008098E+02  0.41105412205E+02  0.00000000000E+00 0. -1.
</event>
<event>
 4    1  0.8931296E+003  0.3423562E+02  0.7546771E-02  0.1386018E+00
          2   -1    0    0  502    0  0.00000000000E+00  0.00000000000E+00  0.76207335447E+02  0.76207335447E+02  0.00000000000E+00 0. -1.
          2   -1    0    0  501    0 -0.00000000000E+00 -0.00000000000E+00 -0.13399037643E+04  0.13399037643E+04  0.00000000000E+00 0. -1.
          2    1    1    2  501    0 -0.31054126424E+02  0.14412456971E+02  0.72131890674E+02  0.79844144032E+02  0.00000000000E+00 0. -1.
          2    1    1    2  502    0  0.31054126424E+02 -0.14412456971E+02 -0.13358283196E+04  0.13362669557E+04  0.00000000000E+00 0. -1.
</event>
<event>
 4    1  0.8931296E+003  0.3512284E+02  0.7546771E-02  0.1379702E+00
          2   -1    0    0  502    0  0.00000000000E+00  0.00000000000E+00  0.32837783084E+02  0.32837783084E+02  0.00000000000E+00 0.  1.
          2   -1    0    0  501    0 -0.00000000000E+00 -0.00000000000E+00 -0.84358742088E+03  0.84358742088E+03  0.00000000000E+00 0. -1.
          2    1    1    2  501    0  0.19891968823E+02 -0.28946904857E+02  0.22969355232E+02  0.41966713050E+02  0.00000000000E+00 0.  1.
          2    1    1    2  502    0 -0.19891968823E+02  0.28946904857E+02 -0.83371899303E+03  0.83445849091E+03  0.00000000000E+00 0. -1.
</event>
<event>
 4    1  0.8931296E+003  0.2665840E+02  0.7546771E-02  0.1451070E+00
          2   -1    0    0  501    0  0.00000000000E+00  0.00000000000E+00  0.10378062940E+04  0.10378062940E+04  0.00000000000E+00 0. -1.
          2   -1    0    0  502    0 -0.00000000000E+00 -0.00000000000E+00 -0.11860889240E+01  0.11860889240E+01  0.00000000000E+00 0.  1.
          2    1    1    2  501    0 -0.14230586763E+02 -0.22542424946E+02  0.18057529437E+03  0.18253248330E+03  0.00000000000E+00 0.  1.
          2    1    1    2  502    0  0.14230586763E+02  0.22542424946E+02  0.85604491072E+03  0.85645989964E+03  0.00000000000E+00 0. -1.
</event>
<event>
 4    1  0.8931296E+003  0.2230105E+02  0.7546771E-02  0.1501467E+00
          2   -1    0    0  502    0  0.00000000000E+00  0.00000000000E+00  0.14271689043E+03  0.14271689043E+03  0.00000000000E+00 0. -1.
          2   -1    0    0  501    0 -0.00000000000E+00 -0.00000000000E+00 -0.53434758738E+02  0.53434758738E+02  0.00000000000E+00 0. -1.
          2    1    1    2  501    0 -0.18526621028E+02  0.12413740795E+02  0.13946494225E+03  0.14123670474E+03  0.00000000000E+00 0. -1.
          2    1    1    2  502    0  0.18526621028E+02 -0.12413740795E+02 -0.50182810556E+02  0.54914944437E+02  0.00000000000E+00 0. -1.
</event>
<event>
 4    1  0.8931296E+003  0.2641075E+02  0.7546771E-02  0.1453619E+00
          2   -1    0    0  502    0  0.00000000000E+00  0.00000000000E+00  0.59232233106E+00  0.59232233106E+00  0.00000000000E+00 0.  1.
          2   -1    0    0  501    0 -0.00000000000E+00 -0.00000000000E+00 -0.17879864743E+04  0.17879864743E+04  0.00000000000E+00 0. -1.
          2    1    1    2  501    0  0.98443207815E+01 -0.24507485390E+02 -0.37118878725E+03  0.37212718695E+03  0.00000000000E+00 0.  1.
          2    1    1    2  502    0 -0.98443207815E+01  0.24507485390E+02 -0.14162053647E+04  0.14164516097E+04  0.00000000000E+00 0. -1.
</event>
<event>
 4    1  0.8931296E+003  0.2784122E+02  0.7546771E-02  0.1439336E+00
          2   -1    0    0  502    0  0.00000000000E+00  0.00000000000E+00  0.19977640628E+04  0.19977640628E+04  0.00000000000E+00 0.  1.
          2   -1    0    0  501    0 -0.00000000000E+00 -0.00000000000E+00 -0.14144580128E+01  0.14144580128E+01  0.00000000000E+00 0. -1.
          2    1    1    2  501    0 -0.27589772824E+02  0.37333814090E+01  0.18496990399E+04  0.18499085577E+04  0.00000000000E+00 0.  1.
          2    1    1    2  502    0  0.27589772824E+02 -0.37333814090E+01  0.14665056485E+03  0.14926996306E+03  0.00000000000E+00 0. -1.
</event>
<event>
 4    1  0.8931296E+003  0.5196117E+02  0.7546771E-02  0.1289886E+00
          2   -1    0    0  502    0  0.00000000000E+00  0.00000000000E+00  0.20656624523E+03  0.20656624523E+03  0.00000000000E+00 0. -1.
          2   -1    0    0  501    0 -0.00000000000E+00 -0.00000000000E+00 -0.15733839136E+03  0.15733839136E+03  0.00000000000E+00 0.  1.
          2    1    1    2  501    0 -0.50765382135E+02  0.11083278001E+02  0.19884467397E+03  0.20552169579E+03  0.00000000000E+00 0. -1.
          2    1    1    2  502    0  0.50765382135E+02 -0.11083278001E+02 -0.14961682011E+03  0.15838294079E+03  0.00000000000E+00 0.  1.
</event>
<event>
 4    1  0.8931296E+003  0.3397720E+02  0.7546771E-02  0.1387900E+00
          2   -1    0    0  502    0  0.00000000000E+00  0.00000000000E+00  0.21299747256E+03  0.21299747256E+03  0.00000000000E+00 0.  1.
          2   -1    0    0  501    0 -0.00000000000E+00 -0.00000000000E+00 -0.15749766857E+03  0.15749766857E+03  0.00000000000E+00 0.  1.
          2    1    1    2  501    0 -0.32172477385E+02  0.10926202487E+02  0.20978207491E+03  0.21251580919E+03  0.00000000000E+00 0.  1.
          2    1    1    2  502    0  0.32172477385E+02 -0.10926202487E+02 -0.15428227091E+03  0.15797933194E+03  0.00000000000E+00 0.  1.
</event>
<event>
 4    1  0.8931296E+003  0.2085026E+02  0.7546771E-02  0.1521414E+00
          2   -1    0    0  501    0  0.00000000000E+00  0.00000000000E+00  0.23285823681E+02  0.23285823681E+02  0.00000000000E+00 0.  1.
          2   -1    0    0  502    0 -0.00000000000E+00 -0.00000000000E+00 -0.32785974563E+03  0.32785974563E+03  0.00000000000E+00 0. -1.
          2    1    1    2  501    0 -0.99588139391E+01 -0.18318164862E+02 -0.32278762992E+03  0.32346033323E+03  0.00000000000E+00 0. -1.
          2    1    1    2  502    0  0.99588139391E+01  0.18318164862E+02  0.18213707973E+02  0.27685236086E+02  0.00000000000E+00 0.  1.
</event>
<event>
 4    1  0.8931296E+003  0.6001555E+02  0.7546771E-02  0.1259780E+00
          2   -1    0    0  501    0  0.00000000000E+00  0.00000000000E+00  0.30735436024E+04  0.30735436024E+04  0.00000000000E+00 0. -1.
          2   -1    0    0  502    0 -0.00000000000E+00 -0.00000000000E+00 -0.62992501351E+01  0.62992501351E+01  0.00000000000E+00 0. -1.
          2    1    1    2  501    0 -0.40465162875E+02 -0.44321969484E+02  0.14430664961E+03  0.15628907674E+03  0.00000000000E+00 0. -1.
          2    1    1    2  502    0  0.40465162875E+02  0.44321969484E+02  0.29229377027E+04  0.29235537758E+04  0.00000000000E+00 0. -1.
</event>
<event>
 4    1  0.8931296E+003  0.2823577E+02  0.7546771E-02  0.1435574E+00
          2   -1    0    0  502    0  0.00000000000E+00  0.00000000000E+00  0.55150545971E+01  0.55150545971E+01  0.00000000000E+00 0.  1.
          2   -1    0    0  501    0 -0.00000000000E+00 -0.00000000000E+00 -0.38557441509E+03  0.38557441509E+03  0.00000000000E+00 0.  1.
          2    1    1    2  501    0  0.24470242566E+02 -0.14087802025E+02 -0.35428395067E+02  0.45303753863E+02  0.00000000000E+00 0.  1.
          2    1    1    2  502    0 -0.24470242566E+02  0.14087802025E+02 -0.34463096543E+03  0.34578571583E+03  0.00000000000E+00 0.  1.
</event>
<event>
 4    1  0.8931296E+003  0.2425712E+02  0.7546771E-02  0.1477288E+00
          2   -1    0    0  502    0  0.00000000000E+00  0.00000000000E+00  0.86136856336E+02  0.86136856336E+02  0.00000000000E+00 0. -1.
          2   -1    0    0  501    0 -0.00000000000E+00 -0.00000000000E+00 -0.20976196911E+02  0.20976196911E+02  0.00000000000E+00 0. -1.
          2    1    1    2  501    0 -0.21009428795E+02  0.12124844821E+02  0.76560029663E+02  0.80310933890E+02  0.00000000000E+00 0. -1.
          2    1    1    2  502    0  0.21009428795E+02 -0.12124844821E+02 -0.11399370238E+02  0.26802119357E+02  0.00000000000E+00 0. -1.
</event>
<event>
 4    1  0.8931296E+003  0.2562321E+02  0.7546771E-02  0.1461951E+00
          2   -1    0    0  501    0  0.00000000000E+00  0.00000000000E+00  0.13932494021E+02  0.13932494021E+02  0.00000000000E+00 0. -1.
          2   -1    0    0  502    0 -0.00000000000E+00 -0.00000000000E+00 -0.15059111524E+03  0.15059111524E+03  0.00000000000E+00 0. -1.
          2    1    1    2  501    0  0.43929023093E+01  0.25243833086E+02 -0.13651616477E+03  0.13890000699E+03  0.00000000000E+00 0. -1.
          2    1    1    2  502    0 -0.43929023093E+01 -0.25243833086E+02 -0.14245645522E+00  0.25623602273E+02  0.00000000000E+00 0. -1.
</event>
<event>
 4    1  0.8931296E+003  0.2981122E+02  0.7546771E-02  0.1421244E+00
          2   -1    0    0  502    0  0.00000000000E+00  0.00000000000E+00  0.28982880450E+02  0.28982880450E+02  0.00000000000E+00 0.  1.
          2   -1    0    0  501    0 -0.00000000000E+00 -0.00000000000E+00 -0.13008687132E+03  0.13008687132E+03  0.00000000000E+00 0. -1.
          2    1    1    2  501    0 -0.25957603554E+01  0.29697991512E+02  0.18980162841E+02  0.35340561019E+02  0.00000000000E+00 0.  1.
          2    1    1    2  502    0  0.25957603554E+01 -0.29697991512E+02 -0.12008415371E+03  0.12372919075E+03  0.00000000000E+00 0. -1.
</event>
<event>
 4    1  0.1466379E+004  0.2437368E+02  0.7546771E-02  0.1475933E+00
          2   -1    0    0  502    0  0.00000000000E+00  0.00000000000E+00  0.89156163341E+03  0.89156163341E+03  0.00000000000E+00 0. -1.
          2   -1    0    0  501    0 -0.00000000000E+00 -0.00000000000E+00 -0.88538062786E+03  0.88538062786E+03  0.00000000000E+00 0. -1.
          2    1    1    2  501    0 -0.21021881363E+02 -0.12335181153E+02  0.89122724146E+03  0.89156047025E+03  0.00000000000E+00 0. -1.
          2    1    1    2  502    0  0.21021881363E+02  0.12335181153E+02 -0.88504623590E+03  0.88538179102E+03  0.00000000000E+00 0. -1.
</event>
<event>
 4    1  0.8931296E+003  0.6011287E+02  0.7546771E-02  0.1259450E+00
          2   -1    0    0  502    0  0.00000000000E+00  0.00000000000E+00  0.38920431361E+03  0.38920431361E+03  0.00000000000E+00 0.  1.
          2   -1    0    0  501    0 -0.00000000000E+00 -0.00000000000E+00 -0.90887917518E+02  0.90887917518E+02  0.00000000000E+00 0. -1.
          2    1    1    2  501    0  0.17731139526E+02 -0.57438347161E+02  0.37661338814E+03  0.38138065127E+03  0.00000000000E+00 0.  1.
          2    1    1    2  502    0 -0.17731139526E+02  0.57438347161E+02 -0.78296992052E+02  0.98711579857E+02  0.00000000000E+00 0. -1.
</event>
<event>
 4    1  0.8931296E+003  0.6346153E+02  0.7546771E-02  0.1248504E+00
          2   -1    0    0  502    0  0.00000000000E+00  0.00000000000E+00  0.18137046636E+03  0.18137046636E+03  0.00000000000E+00 0.  1.
          2   -1    0    0  501    0 -0.00000000000E+00 -0.00000000000E+00 -0.43014573489E+02  0.43014573489E+02  0.00000000000E+00 0.  1.
          2    1    1    2  501    0 -0.39764764392E+02 -0.49458356263E+02  0.14721227702E+03  0.16030851504E+03  0.00000000000E+00 0.  1.
          2    1    1    2  502    0  0.39764764392E+02  0.49458356263E+02 -0.88563841424E+01  0.64076524808E+02  0.00000000000E+00 0.  1.
</event>
<event>
 4    1  0.8931296E+003  0.2415025E+02  0.7546771E-02  0.1478538E+00
          2   -1    0    0  502    0  0.00000000000E+00  0.00000000000E+00  0.11536792687E+02  0.11536792687E+02  0.00000000000E+00 0. -1.
          2   -1    0    0  501    0 -0.00000000000E+00 -0.00000000000E+00 -0.78277297300E+02  0.78277297300E+02  0.00000000000E+00 0. -1.
          2    1    1    2  501    0 -0.90699755508E+01  0.22382364868E+02 -0.66453270728E+01  0.25047855906E+02  0.00000000000E+00 0. -1.
          2    1    1    2  502    0  0.90699755508E+01 -0.22382364868E+02 -0.60095177540E+02  0.64766234082E+02  0.00000000000E+00 0. -1.
</event>
<event>
 4    1  0.8931296E+003  0.2445736E+02  0.7546771E-02  0.1474966E+00
          2   -1    0    0  502    0  0.00000000000E+00  0.00000000000E+00  0.11294036198E+04  0.11294036198E+04  0.00000000000E+00 0. -1.
          2   -1    0    0  501    0 -0.00000000000E+00 -0.00000000000E+00 -0.22199906790E+03  0.22199906790E+03  0.00000000000E+00 0. -1.
          2    1    1    2  501    0  0.12320945320E+02  0.21127155363E+02  0.11285971227E+04  0.11288620942E+04  0.00000000000E+00 0. -1.
          2    1    1    2  502    0 -0.12320945320E+02 -0.21127155363E+02 -0.22119257078E+03  0.22254059350E+03  0.00000000000E+00 0. -1.
</event>
<event>
 4    1  0.8931296E+003  0.2310710E+02  0.7546771E-02  0.1491158E+00
          2   -1    0    0  501    0  0.00000000000E+00  0.00000000000E+00  0.13533094417E+03  0.13533094417E+03  0.00000000000E+00 0. -1.
          2   -1    0    0  502    0 -0.00000000000E+00 -0.00000000000E+00 -0.20435762803E+02  0.20435762803E+02  0.00000000000E+00 0.  1.
          2    1    1    2  501    0  0.18996635545E+02 -0.13155459116E+02 -0.12514692721E+02  0.26278428424E+02  0.00000000000E+00 0.  1.
          2    1    1    2  502    0 -0.18996635545E+02  0.13155459116E+02  0.12740987409E+03  0.12948827855E+03  0.00000000000E+00 0. -1.
</event>
<event>
 4    1  0.8931296E+003  0.2488688E+02  0.7546771E-02  0.1470073E+00
          2   -1    0    0  501    0  0.00000000000E+00  0.00000000000E+00  0.10872910476E+03  0.10872910476E+03  0.00000000000E+00 0. -1.
          2   -1    0    0  502    0 -0.00000000000E+00 -0.00000000000E+00 -0.18281790516E+03  0.18281790516E+03  0.00000000000E+00 0.  1.
          2    1    1    2  501    0  0.24844426262E+02 -0.14530551513E+01 -0.18052889223E+03  0.18223621433E+03  0.00000000000E+00 0.  1.
          2    1    1    2  502    0 -0.24844426262E+02  0.14530551513E+01  0.10644009182E+03  0.10931079559E+03  0.00000000000E+00 0. -1.
</event>
<event>
 4    1  0.8931296E+003  0.3310644E+02  0.7546771E-02  0.1394387E+00
          2   -1    0    0  501    0  0.00000000000E+00  0.00000000000E+00  0.97657478271E+03  0.97657478271E+03  0.00000000000E+00 0.  1.
          2   -1    0    0  502    0 -0.00000000000E+00 -0.00000000000E+00 -0.27931222369E+03  0.27931222369E+03  0.00000000000E+00 0. -1.
          2    1    1    2  501    0 -0.23862494037E+02  0.22948156738E+02 -0.27804935824E+03  0.28001336064E+03  0.00000000000E+00 0. -1.
          2    1    1    2  502    0  0.23862494037E+02 -0.22948156738E+02  0.97531191727E+03  0.97587364576E+03  0.00000000000E+00 0.  1.
</event>
<event>
 4    1  0.8931296E+003  0.2089443E+02  0.7546771E-02  0.1520777E+00
          2   -1    0    0  502    0  0.00000000000E+00  0.00000000000E+00  0.20719067806E+02  0.20719067806E+02  0.00000000000E+00 0.  1.
          2   -1    0    0  501    0 -0.00000000000E+00 -0.00000000000E+00 -0.85793037966E+03  0.85793037966E+03  0.00000000000E+00 0.  1.
          2    1    1    2  501    0  0.13420514539E+01  0.20851289961E+02  0.15290488708E+02  0.25891628764E+02  0.00000000000E+00 0.  1.
          2    1    1    2  502    0 -0.13420514539E+01 -0.20851289961E+02 -0.85250180056E+03  0.85275781870E+03  0.00000000000E+00 0.  1.
</event>
<event>
 4    1  0.8931296E+003  0.8725237E+02  0.7546771E-02  0.1187943E+00
          2   -1    0    0  502    0  0.00000000000E+00  0.00000000000E+00  0.12714525945E+04  0.12714525945E+04  0.00000000000E+00 0.  1.
          2   -1    0    0  501    0 -0.00000000000E+00 -0.00000000000E+00 -0.34285084903E+02  0.34285084903E+02  0.00000000000E+00 0.  1.
          2    1    1    2  501    0 -0.85746633840E+02 -0.16139737818E+02  0.12117099201E+04  0.12148472772E+04  0.00000000000E+00 0.  1.
          2    1    1    2  502    0  0.85746633840E+02  0.16139737818E+02  0.25457589456E+02  0.90890402204E+02  0.00000000000E+00 0.  1.
</event>
<event>
 4    1  0.8931296E+003  0.2130013E+02  0.7546771E-02  0.1515023E+00
          2   -1    0    0  501    0  0.00000000000E+00  0.00000000000E+00  0.36881218064E+01  0.36881218064E+01  0.00000000000E+00 0. -1.
          2   -1    0    0  502    0 -0.00000000000E+00 -0.00000000000E+00 -0.13379469852E+03  0.13379469852E+03  0.00000000000E+00 0. -1.
          2    1    1    2  501    0 -0.19791600649E+02 -0.78732466789E+01 -0.84565025021E+02  0.87206300956E+02  0.00000000000E+00 0. -1.
          2    1    1    2  502    0  0.19791600649E+02  0.78732466789E+01 -0.45541551697E+02  0.50276519375E+02  0.00000000000E+00 0. -1.
</event>
<event>
 4    1  0.8931296E+003  0.2052355E+02  0.7546771E-02  0.1526177E+00
          2   -1    0    0  502    0  0.00000000000E+00  0.00000000000E+00  0.61249637020E+03  0.61249637020E+03  0.00000000000E+00 0.  1.
          2   -1    0    0  501    0 -0.00000000000E+00 -0.00000000000E+00 -0.10823245083E+02  0.10823245083E+02  0.00000000000E+00 0.  1.
          2    1    1    2  501    0 -0.27702613505E+01 -0.20335729512E+02  0.60243252257E+03  0.60278201739E+03  0.00000000000E+00 0.  1.
          2    1    1    2  502    0  0.27702613505E+01  0.20335729512E+02 -0.75939744868E+00  0.20537597893E+02  0.00000000000E+00 0.  1.
</event>
<event>
 4    1  0.8931296E+003  0.5631112E+02  0.7546771E-02  0.1272909E+00
          2   -1    0    0  501    0  0.00000000000E+00  0.00000000000E+00  0.55407900242E+03  0.55407900242E+03  0.00000000000E+00 0.  1.
          2   -1    0    0  502    0 -0.00000000000E+00 -0.00000000000E+00 -0.13404376621E+02  0.13404376621E+02  0.00000000000E+00 0. -1.
          2    1    1    2  501    0  0.25847753069E+02 -0.50028349022E+02  0.55543371800E+02  0.79094931542E+02  0.00000000000E+00 0. -1.
          2    1    1    2  502    0 -0.25847753069E+02  0.50028349022E+02  0.48513125400E+03  0.48838844750E+03  0.00000000000E+00 0.  1.
</event>
<event>
 4    1  0.8931296E+003  0.3144773E+02  0.7546771E-02  0.1407419E+00
          2   -1    0    0  502    0  0.00000000000E+00  0.00000000000E+00  0.28216897521E+02  0.28216897521E+02  0.00000000000E+00 0.  1.
          2   -1    0    0  501    0 -0.00000000000E+00 -0.00000000000E+00 -0.22338152062E+03  0.22338152062E+03  0.00000000000E+00 0. -1.
          2    1    1    2  501    0  0.19525952230E+02  0.24651515327E+02  0.17927139954E+02  0.36198651430E+02  0.00000000000E+00 0.  1.
          2    1    1    2  502    0 -0.19525952230E+02 -0.24651515327E+02 -0.21309176306E+03  0.21539976672E+03  0.00000000000E+00 0. -1.
</event>
<event>
 4    1  0.1716133E+004  0.2222210E+02  0.7546771E-02  0.1502504E+00
          2   -1    0    0  501    0  0.00000000000E+00  0.00000000000E+00  0.12554385000E+04  0.12554385000E+04  0.00000000000E+00 0. -1.
          2   -1    0    0  502    0 -0.00000000000E+00 -0.00000000000E+00 -0.80909826901E+03  0.80909826901E+03  0.00000000000E+00 0.  1.
          2    1    1    2  501    0  0.26957472298E+01  0.22057987583E+02 -0.80884731795E+03  0.80915252310E+03  0.00000000000E+00 0.  1.
          2    1    1    2  502    0 -0.26957472298E+01 -0.22057987583E+02  0.12551875490E+04  0.12553842460E+04  0.00000000000E+00 0. -1.
</event>
<event>
 4    1  0.8931296E+003  0.2532781E+02  0.7546771E-02  0.1465169E+00
          2   -1    0    0  502    0  0.00000000000E+00  0.00000000000E+00  0.76435234703E+01  0.76435234703E+01  0.00000000000E+00 0. -1.
          2   -1    0    0  501    0 -0.00000000000E+00 -0.00000000000E+00 -0.15738514019E+04  0.15738514019E+04  0.00000000000E+00 0. -1.
          2    1    1    2  501    0  0.12255639597E+02 -0.22165229771E+02 -0.13728959723E+02  0.28809415957E+02  0.00000000000E+00 0. -1.
          2    1    1    2  502    0 -0.12255639597E+02  0.22165229771E+02 -0.15524789187E+04  0.15526855094E+04  0.00000000000E+00 0. -1.
</event>
<event>
 4    1  0.8931296E+003  0.8923430E+02  0.7546771E-02  0.1183896E+00
          2   -1    0    0  501    0  0.00000000000E+00  0.00000000000E+00  0.64015383884E+02  0.64015383884E+02  0.00000000000E+00 0.  1.
          2   -1    0    0  502    0 -0.00000000000E+00 -0.00000000000E+00 -0.94352261051E+03  0.94352261051E+03  0.00000000000E+00 0.  1.
          2    1    1    2  501    0  0.23076957064E+02 -0.86198691513E+02 -0.90914255911E+03  0.91351133170E+03  0.00000000000E+00 0.  1.
          2    1    1    2  502    0 -0.23076957064E+02  0.86198691513E+02  0.29635332482E+02  0.94026662693E+02  0.00000000000E+00 0.  1.
</event>
<event>
 4    1  0.8931296E+003  0.3314260E+02  0.7546771E-02  0.1394113E+00
          2   -1    0    0  502    0  0.00000000000E+00  0.00000000000E+00  0.10689795296E+03  0.10689795296E+03  0.00000000000E+00 0. -1.
          2   -1    0    0  501    0 -0.00000000000E+00 -0.00000000000E+00 -0.49649887652E+02  0.49649887652E+02  0.00000000000E+00 0.  1.
          2    1    1    2  501    0 -0.20368258357E+02 -0.26145094375E+02  0.98329164703E+02  0.10376442810E+03  0.00000000000E+00 0. -1.
          2    1    1    2  502    0  0.20368258357E+02  0.26145094375E+02 -0.41081099396E+02  0.52783412507E+02  0.00000000000E+00 0.  1.
</event>
<event>
 4    1  0.8931296E+003  0.2543131E+02  0.7546771E-02  0.1464036E+00
          2   -1    0    0  501    0  0.00000000000E+00  0.00000000000E+00  0.46934243783E+01  0.46934243783E+01  0.00000000000E+00 0. -1.
          2   -1    0    0  502    0 -0.00000000000E+00 -0.00000000000E+00 -0.50491174109E+03  0.50491174109E+03  0.00000000000E+00 0. -1.
          2    1    1    2  501    0 -0.19411363673E+02  0.16430168125E+02 -0.46737704124E+03  0.46806842463E+03  0.00000000000E+00 0. -1.
          2    1    1    2  502    0  0.19411363673E+02 -0.16430168125E+02 -0.32841275474E+02  0.41536740833E+02  0.00000000000E+00 0. -1.
</event>
<event>
 4    1  0.8931296E+003  0.2113351E+02  0.7546771E-02  0.1517367E+00
          2   -1    0    0  502    0  0.00000000000E+00  0.00000000000E+00  0.59871547081E+01  0.59871547081E+01  0.00000000000E+00 0. -1.
          2   -1    0    0  501    0 -0.00000000000E+00 -0.00000000000E+00 -0.34734543505E+03  0.34734543505E+03  0.00000000000E+00 0.  1.
          2    1    1    2  501    0  0.19432739377E+02  0.83062472332E+01 -0.14128855775E+02  0.25421441113E+02  0.00000000000E+00 0. -1.
          2    1    1    2  502    0 -0.19432739377E+02 -0.83062472332E+01 -0.32722942457E+03  0.32791114865E+03  0.00000000000E+00 0.  1.
</event>
<event>
 4    1  0.8931296E+003  0.2506099E+02  0.7546771E-02  0.1468122E+00
          2   -1    0    0  501    0  0.00000000000E+00  0.00000000000E+00  0.37855572150E+01  0.37855572150E+01  0.00000000000E+00 0. -1.
          2   -1    0    0  502    0 -0.00000000000E+00 -0.00000000000E+00 -0.16143868984E+04  0.16143868984E+04  0.00000000000E+00 0. -1.
          2    1    1    2  501    0 -0.25006613944E+02  0.16500564647E+01 -0.15716858798E+04  0.15718856696E+04  0.00000000000E+00 0. -1.
          2    1    1    2  502    0  0.25006613944E+02 -0.16500564647E+01 -0.38915461346E+02  0.46286786010E+02  0.00000000000E+00 0. -1.
</event>
<event>
 4    1  0.8931296E+003  0.3119520E+02  0.7546771E-02  0.1409487E+00
          2   -1    0    0  502    0  0.00000000000E+00  0.00000000000E+00  0.55935395691E+03  0.55935395691E+03  0.00000000000E+00 0.  1.
          2   -1    0    0  501    0 -0.00000000000E+00 -0.00000000000E+00 -0.17484515969E+01  0.17484515969E+01  0.00000000000E+00 0.  1.
          2    1    1    2  501    0 -0.72278699933E-01 -0.31195119169E+02  0.29858509935E+03  0.30021026338E+03  0.00000000000E+00 0.  1.
          2    1    1    2  502    0  0.72278699933E-01  0.31195119169E+02  0.25902040596E+03  0.26089214512E+03  0.00000000000E+00 0.  1.
</event>
<event>
 4    1  0.8931296E+003  0.2037191E+02  0.7546771E-02  0.1528424E+00
          2   -1    0    0  502    0  0.00000000000E+00  0.00000000000E+00  0.21789234817E+02  0.21789234817E+02  0.00000000000E+00 0. -1.
          2   -1    0    0  501    0 -0.00000000000E+00 -0.00000000000E+00 -0.28531126316E+02  0.28531126316E+02  0.00000000000E+00 0. -1.
          2    1    1    2  501    0  0.17691507232E+02  0.10100754595E+02 -0.17877293762E+02  0.27103732285E+02  0.00000000000E+00 0. -1.
          2    1    1    2  502    0 -0.17691507232E+02 -0.10100754595E+02  0.11135402262E+02  0.23216628848E+02  0.00000000000E+00 0. -1.
</event>
<event>
 4    1  0.8931296E+003  0.2200599E+02  0.7546771E-02  0.1505372E+00
          2   -1    0    0  502    0  0.00000000000E+00  0.00000000000E+00  0.25756523553E+03  0.25756523553E+03  0.00000000000E+00 0. -1.
          2   -1    0    0  501    0 -0.00000000000E+00 -0.00000000000E+00 -0.26362730308E+02  0.26362730308E+02  0.00000000000E+00 0.  1.
          2    1    1    2  501    0 -0.20480044097E+02  0.80518055064E+01  0.25240925126E+03  0.25336671822E+03  0.00000000000E+00 0. -1.
          2    1    1    2  502    0  0.20480044097E+02 -0.80518055064E+01 -0.21206746043E+02  0.30561247616E+02  0.00000000000E+00 0.  1.
</event>
<event>
 4    1  0.9174310E+003  0.2173194E+02  0.7546771E-02  0.1509066E+00
          2   -1    0    0  501    0  0.00000000000E+00  0.00000000000E+00  0.10152478479E+04  0.10152478479E+04  0.00000000000E+00 0.  1.
          2   -1    0    0  502    0 -0.00000000000E+00 -0.00000000000E+00 -0.45786874894E+03  0.45786874894E+03  0.00000000000E+00 0. -1.
          2    1    1    2  501    0  0.63469134114E+01  0.20784467651E+02 -0.45749449053E+03  0.45801035607E+03  0.00000000000E+00 0. -1.
          2    1    1    2  502    0 -0.63469134114E+01 -0.20784467651E+02  0.10148735895E+04  0.10151062407E+04  0.00000000000E+00 0.  1.
</event>
<event>
 4    1  0.8931296E+003  0.2005638E+02  0.7546771E-02  0.1533176E+00
          2   -1    0    0  501    0  0.00000000000E+00  0.00000000000E+00  0.95091038075E+02  0.95091038075E+02  0.00000000000E+00 0. -1.
          2   -1    0    0  502    0 -0.00000000000E+00 -0.00000000000E+00 -0.38559565751E+03  0.38559565751E+03  0.00000000000E+00 0. -1.
          2    1    1    2  501    0  0.19153124050E+02 -0.59511596969E+01 -0.38427365697E+03  0.38479670204E+03  0.00000000000E+00 0. -1.
          2    1    1    2  502    0 -0.19153124050E+02  0.59511596969E+01  0.93769037531E+02  0.95889993546E+02  0.00000000000E+00 0. -1.
</event>
<event>
 4    1  0.8931296E+003  0.2341050E+02  0.7546771E-02  0.1487407E+00
          2   -1    0    0  502    0  0.00000000000E+00  0.00000000000E+00  0.22938384082E+03  0.22938384082E+03  0.00000000000E+00 0. -1.
          2   -1    0    0  501    0 -0.00000000000E+00 -0.00000000000E+00 -0.36518612458E+03  0.36518612458E+03  0.00000000000E+00 0.  1.
          2    1    1    2  501    0 -0.22994202875E+02  0.43952443706E+01  0.22840975015E+03  0.22960632723E+03  0.00000000000E+00 0. -1.
          2    1    1    2  502    0  0.22994202875E+02 -0.43952443706E+01 -0.36421203391E+03  0.36496363817E+03  0.00000000000E+00 0.  1.
</event>
<event>
 4    1  0.8931296E+003  0.2142228E+02  0.7546771E-02  0.1513320E+00
          2   -1    0    0  501    0  0.00000000000E+00  0.00000000000E+00  0.12490174600E+03  0.12490174600E+03  0.00000000000E+00 0.  1.
          2   -1    0    0  502    0 -0.00000000000E+00 -0.00000000000E+00 -0.26488748963E+03  0.26488748963E+03  0.00000000000E+00 0. -1.
          2    1    1    2  501    0  0.55897728089E+01  0.20680144906E+02 -0.26353109815E+03  0.26440036620E+03  0.00000000000E+00 0. -1.
          2    1    1    2  502    0 -0.55897728089E+01 -0.20680144906E+02  0.12354535452E+03  0.12538886943E+03  0.00000000000E+00 0.  1.
</event>
<event>
 4    1  0.8931296E+003  0.2154276E+02  0.7546771E-02  0.1511655E+00
          2   -1    0    0  501    0  0.00000000000E+00  0.00000000000E+00  0.74355973938E+03  0.74355973938E+03  0.00000000000E+00 0. -1.
          2   -1    0    0  502    0 -0.00000000000E+00 -0.00000000000E+00 -0.59548481235E+02  0.59548481235E+02  0.00000000000E+00 0. -1.
          2    1    1    2  501    0  0.66874841985E+01 -0.20478476997E+02 -0.57438528804E+02  0.61345538193E+02  0.00000000000E+00 0. -1.
          2    1    1    2  502    0 -0.66874841985E+01  0.20478476997E+02  0.74144978695E+03  0.74176268242E+03  0.00000000000E+00 0. -1.
</event>
<event>
 4    1  0.8931296E+003  0.2377658E+02  0.7546771E-02  0.1482970E+00
          2   -1    0    0  501    0  0.00000000000E+00  0.00000000000E+00  0.56417894463E+02  0.56417894463E+02  0.00000000000E+00 0. -1.
          2   -1    0    0  502    0 -0.00000000000E+00 -0.00000000000E+00 -0.11919255042E+04  0.11919255042E+04  0.00000000000E+00 0.  1.
          2    1    1    2  501    0 -0.19237219518E+02  0.13973364845E+02 -0.11892963119E+04  0.11895339605E+04  0.00000000000E+00 0.  1.
          2    1    1    2  502    0  0.19237219518E+02 -0.13973364845E+02  0.53788702180E+02  0.58809438206E+02  0.00000000000E+00 0. -1.
</event>
<event>
 4    1  0.8931296E+003  0.2669443E+02  0.7546771E-02  0.1450702E+00
          2   -1    0    0  501    0  0.00000000000E+00  0.00000000000E+00  0.19345184386E+01  0.19345184386E+01  0.00000000000E+00 0.  1.
          2   -1    0    0  502    0 -0.00000000000E+00 -0.00000000000E+00 -0.96931851962E+03  0.96931851962E+03  0.00000000000E+00 0. -1.
          2    1    1    2  501    0 -0.26040694490E+02  0.58715374982E+01 -0.86606973866E+03  0.86648103554E+03  0.00000000000E+00 0. -1.
          2    1    1    2  502    0  0.26040694490E+02 -0.58715374982E+01 -0.10131426251E+03  0.10477200251E+03  0.00000000000E+00 0.  1.
</event>
<event>
 4    1  0.8931296E+003  0.2955929E+02  0.7546771E-02  0.1423465E+00
          2   -1    0    0  502    0  0.00000000000E+00  0.00000000000E+00  0.18731353124E+04  0.18731353124E+04  0.00000000000E+00 0. -1.
          2   -1    0    0  501    0 -0.00000000000E+00 -0.00000000000E+00 -0.16389448699E+01  0.16389448699E+01  0.00000000000E+00 0. -1.
          2    1    1    2  501    0  0.23924937303E+02  0.17359412668E+02  0.17285954510E+04  0.17288481671E+04  0.00000000000E+00 0. -1.
          2    1    1    2  502    0 -0.23924937303E+02 -0.17359412668E+02  0.14290091654E+03  0.14592609013E+03  0.00000000000E+00 0. -1.
</event>
<event>
 4    1  0.8931296E+003  0.2269201E+02  0.7546771E-02  0.1496402E+00
          2   -1    0    0  501    0  0.00000000000E+00  0.00000000000E+00  0.20188585820E+02  0.20188585820E+02  0.00000000000E+00 0.  1.
          2   -1    0    0  502    0 -0.00000000000E+00 -0.00000000000E+00 -0.51342883264E+03  0.51342883264E+03  0.00000000000E+00 0. -1.
          2    1    1    2  501    0 -0.27704768089E+01 -0.22522249218E+02 -0.50671722218E+03  0.50722506888E+03  0.00000000000E+00 0. -1.
          2    1    1    2  502    0  0.27704768089E+01  0.22522249218E+02  0.13476975355E+02  0.26392349579E+02  0.00000000000E+00 0.  1.
</event>
<event>
 4    1  0.8931296E+003  0.2101475E+02  0.7546771E-02  0.1519054E+00
          2   -1    0    0  501    0  0.00000000000E+00  0.00000000000E+00  0.15122332291E+02  0.15122332291E+02  0.00000000000E+00 0.  1.
          2   -1    0    0  502    0 -0.00000000000E+00 -0.00000000000E+00 -0.22376679540E+03  0.22376679540E+03  0.00000000000E+00 0.  1.
          2    1    1    2  501    0 -0.20477037960E+02  0.47234330048E+01 -0.21570022846E+03  0.21672149977E+03  0.00000000000E+00 0.  1.
          2    1    1    2  502    0  0.20477037960E+02 -0.47234330048E+01  0.70557653541E+01  0.22167627922E+02  0.00000000000E+00 0.  1.
</event>
<event>
 4    1  0.8931296E+003  0.2644536E+02  0.7546771E-02  0.1453260E+00
          2   -1    0    0  501    0  0.00000000000E+00  0.00000000000E+00  0.24649625966E+01  0.24649625966E+01  0.00000000000E+00 0.  1.
          2   -1    0    0  502    0 -0.00000000000E+00 -0.00000000000E+00 -0.19931980899E+04  0.19931980899E+04  0.00000000000E+00 0.  1.
          2    1    1    2  501    0 -0.51179919708E+01  0.25945393197E+02 -0.19194556866E+04  0.19196378539E+04  0.00000000000E+00 0.  1.
          2    1    1    2  502    0  0.51179919708E+01 -0.25945393197E+02 -0.71277440721E+02  0.76025198623E+02  0.00000000000E+00 0.  1.
</event>
<event>
 4    1  0.8931296E+003  0.2346752E+02  0.7546771E-02  0.1486709E+00
          2   -1    0    0  501    0  0.00000000000E+00  0.00000000000E+00  0.17485202217E+04  0.17485202217E+04  0.00000000000E+00 0. -1.
          2   -1    0    0  502    0 -0.00000000000E+00 -0.00000000000E+00 -0.28959600072E+01  0.28959600072E+01  0.00000000000E+00 0. -1.
          2    1    1    2  501    0  0.34386748890E+01 -0.23214216623E+02  0.46095671399E+02  0.51725576460E+02  0.00000000000E+00 0. -1.
          2    1    1    2  502    0 -0.34386748890E+01  0.23214216623E+02  0.16995285903E+04  0.16996906052E+04  0.00000000000E+00 0. -1.
</event>
<event>
 4    1  0.8931296E+003  0.2046757E+02  0.7546771E-02  0.1527004E+00
          2   -1    0    0  501    0  0.00000000000E+00  0.00000000000E+00  0.16347879045E+01  0.16347879045E+01  0.00000000000E+00 0. -1.
          2   -1    0    0  502    0 -0.00000000000E+00 -0.00000000000E+00 -0.30636930443E+03  0.30636930443E+03  0.00000000000E+00 0.  1.
          2    1    1    2  501    0  0.43978392564E+01 -0.19989510807E+02 -0.21465283372E+03  0.21562643752E+03  0.00000000000E+00 0.  1.
          2    1    1    2  502    0 -0.43978392564E+01  0.19989510807E+02 -0.90081682807E+02  0.92377654819E+02  0.00000000000E+00 0. -1.
</event>
<event>
 4    1  0.8931296E+003  0.2295756E+02  0.7546771E-02  0.1493032E+00
          2   -1    0    0  501    0  0.00000000000E+00  0.00000000000E+00  0.97385468029E+03  0.97385468029E+03  0.00000000000E+00 0.  1.
          2   -1    0    0  502    0 -0.00000000000E+00 -0.00000000000E+00 -0.22683300632E+01  0.22683300632E+01  0.00000000000E+00 0. -1.
          2    1    1    2  501    0  0.97854160046E+01 -0.20767645286E+02  0.59916316132E+02  0.64163964933E+02  0.00000000000E+00 0. -1.
          2    1    1    2  502    0 -0.97854160046E+01  0.20767645286E+02  0.91167003409E+03  0.91195904542E+03  0.00000000000E+00 0.  1.
</event>
<event>
 4    1  0.8931296E+003  0.2385660E+02  0.7546771E-02  0.1482013E+00
          2   -1    0    0  501    0  0.00000000000E+00  0.00000000000E+00  0.63629544579E+03  0.63629544579E+03  0.00000000000E+00 0. -1.
          2   -1    0    0  502    0 -0.00000000000E+00 -0.00000000000E+00 -0.21518962443E+02  0.21518962443E+02  0.00000000000E+00 0.  1.
          2    1    1    2  501    0  0.17805802859E+02  0.15877371810E+02 -0.14610753531E+02  0.27975197404E+02  0.00000000000E+00 0.  1.
          2    1    1    2  502    0 -0.17805802859E+02 -0.15877371810E+02  0.62938723688E+03  0.62983921083E+03  0.00000000000E+00 0. -1.
</event>
<event>
 4    1  0.8931296E+003  0.4007809E+02  0.7546771E-02  0.1348029E+00
          2   -1    0    0  502    0  0.00000000000E+00  0.00000000000E+00  0.27570791303E+04  0.27570791303E+04  0.00000000000E+00 0.  1.
          2   -1    0    0  501    0 -0.00000000000E+00 -0.00000000000E+00 -0.15624309032E+01  0.15624309032E+01  0.00000000000E+00 0.  1.
          2    1    1    2  501    0  0.25391951378E+02 -0.31008096303E+02  0.24700588413E+04  0.24703839647E+04  0.00000000000E+00 0.  1.
          2    1    1    2  502    0 -0.25391951378E+02  0.31008096303E+02  0.28545785808E+03  0.28825759655E+03  0.00000000000E+00 0.  1.
</event>
<event>
 4    1  0.8931296E+003  0.3414670E+02  0.7546771E-02  0.1386663E+00
          2   -1    0    0  502    0  0.00000000000E+00  0.00000000000E+00  0.46586774255E+02  0.46586774255E+02  0.00000000000E+00 0.  1.
          2   -1    0    0  501    0 -0.00000000000E+00 -0.00000000000E+00 -0.18350671538E+04  0.18350671538E+04  0.00000000000E+00 0.  1.
          2    1    1    2  501    0 -0.21125069349E+01 -0.34081296120E+02  0.40148770575E+02  0.52705988364E+02  0.00000000000E+00 0.  1.
          2    1    1    2  502    0  0.21125069349E+01  0.34081296120E+02 -0.18286291501E+04  0.18289479397E+04  0.00000000000E+00 0.  1.
</event>
<event>
 4    1  0.8931296E+003  0.4271390E+02  0.7546771E-02  0.1333276E+00
          2   -1    0    0  501    0  0.00000000000E+00  0.00000000000E+00  0.25177796747E+02  0.25177796747E+02  0.00000000000E+00 0.  1.
          2   -1    0    0  502    0 -0.00000000000E+00 -0.00000000000E+00 -0.12174317870E+04  0.12174317870E+04  0.00000000000E+00 0.  1.
          2    1    1    2  501    0  0.17066076327E+02 -0.39156431578E+02 -0.11986575424E+04  0.11994183511E+04  0.00000000000E+00 0.  1.
          2    1    1    2  502    0 -0.17066076327E+02  0.39156431578E+02  0.64035521364E+01  0.43191232618E+02  0.00000000000E+00 0.  1.
</event>
<event>
 4    1  0.8931296E+003  0.2012901E+02  0.7546771E-02  0.1532073E+00
          2   -1    0    0  501    0  0.00000000000E+00  0.00000000000E+00  0.21788411842E+01  0.21788411842E+01  0.00000000000E+00 0. -1.
          2   -1    0    0  502    0 -0.00000000000E+00 -0.00000000000E+00 -0.12179538515E+04  0.12179538515E+04  0.00000000000E+00 0. -1.
          2    1    1    2  501    0  0.20109587286E+02 -0.88393852529E+00 -0.11694527880E+04  0.11696260087E+04  0.00000000000E+00 0. -1.
          2    1    1    2  502    0 -0.20109587286E+02  0.88393852529E+00 -0.46322222378E+02  0.50506684054E+02  0.00000000000E+00 0. -1.
</event>
<event>
 4    1  0.8931296E+003  0.2928518E+02  0.7546771E-02  0.1425912E+00
          2   -1    0    0  501    0  0.00000000000E+00  0.00000000000E+00  0.46897662880E+01  0.46897662880E+01  0.00000000000E+00 0.  1.
          2   -1    0    0  502    0 -0.00000000000E+00 -0.00000000000E+00 -0.32534202790E+03  0.32534202790E+03  0.00000000000E+00 0.  1.
          2    1    1    2  501    0 -0.23806341182E+02  0.17055195799E+02 -0.51126996473E+02  0.58920211750E+02  0.00000000000E+00 0.  1.
          2    1    1    2  502    0  0.23806341182E+02 -0.17055195799E+02 -0.26952526514E+03  0.27111158244E+03  0.00000000000E+00 0.  1.
</event>
<event>
 4    1  0.8931296E+003  0.2365533E+02  0.7546771E-02  0.1484429E+00
          2   -1    0    0  502    0  0.00000000000E+00  0.00000000000E+00  0.44669333419E+03  0.44669333419E+03  0.00000000000E+00 0. -1.
          2   -1    0    0  501    0 -0.00000000000E+00 -0.00000000000E+00 -0.50381567470E+01  0.50381567470E+01  0.00000000000E+00 0. -1.
          2    1    1    2  501    0 -0.18799004432E+02  0.14358686634E+02  0.41660990321E+03  0.41728094361E+03  0.00000000000E+00 0. -1.
          2    1    1    2  502    0  0.18799004432E+02 -0.14358686634E+02  0.25045274230E+02  0.34450547321E+02  0.00000000000E+00 0. -1.
</event>
<event>
 4    1  0.8931296E+003  0.2883597E+02  0.7546771E-02  0.1429989E+00
          2   -1    0    0  501    0  0.00000000000E+00  0.00000000000E+00  0.34493862558E+01  0.34493862558E+01  0.00000000000E+00 0. -1.
          2   -1    0    0  502    0 -0.00000000000E+00 -0.00000000000E+00 -0.10503205567E+04  0.10503205567E+04  0.00000000000E+00 0.  1.
          2    1    1    2  501    0  0.28771581436E+02 -0.19259295311E+01 -0.98592175485E+03  0.98634335796E+03  0.00000000000E+00 0.  1.
          2    1    1    2  502    0 -0.28771581436E+02  0.19259295311E+01 -0.60949415577E+02  0.67426584980E+02  0.00000000000E+00 0. -1.
</event>
<event>
 4    1  0.8931296E+003  0.2433669E+02  0.7546771E-02  0.1476362E+00
          2   -1    0    0  502    0  0.00000000000E+00  0.00000000000E+00  0.38049319622E+00  0.38049319622E+00  0.00000000000E+00 0. -1.
          2   -1    0    0  501    0 -0.00000000000E+00 -0.00000000000E+00 -0.16060033180E+04  0.16060033180E+04  0.00000000000E+00 0. -1.
          2    1    1    2  501    0  0.23024454710E+02 -0.78834480211E+01 -0.94368864717E+03  0.94400240311E+03  0.00000000000E+00 0. -1.
          2    1    1    2  502    0 -0.23024454710E+02  0.78834480211E+01 -0.66193417766E+03  0.66238140812E+03  0.00000000000E+00 0. -1.
</event>
<event>
 4    1  0.8931296E+003  0.2528664E+02  0.7546771E-02  0.1465622E+00
          2   -1    0    0  502    0  0.00000000000E+00  0.00000000000E+00  0.14295857432E+03  0.14295857432E+03  0.00000000000E+00 0.  1.
          2   -1    0    0  501    0 -0.00000000000E+00 -0.00000000000E+00 -0.27420109581E+03  0.27420109581E+03  0.00000000000E+00 0.  1.
          2    1    1    2  501    0  0.48585467029E+01 -0.24815497008E+02  0.14125041927E+03  0.14349597664E+03  0.00000000000E+00 0.  1.
          2    1    1    2  502    0 -0.48585467029E+01  0.24815497008E+02 -0.27249294076E+03  0.27366369349E+03  0.00000000000E+00 0.  1.
</event>
<event>
 4    1  0.8931296E+003  0.5686797E+02  0.7546771E-02  0.1270862E+00
          2   -1    0    0  502    0  0.00000000000E+00  0.00000000000E+00  0.33541446816E+03  0.33541446816E+03  0.00000000000E+00 0. -1.
          2   -1    0    0  501    0 -0.00000000000E+00 -0.00000000000E+00 -0.21739043286E+04  0.21739043286E+04  0.00000000000E+00 0.  1.
          2    1    1    2  501    0 -0.47044032627E+02 -0.31950351683E+02  0.33262904344E+03  0.33745525114E+03  0.00000000000E+00 0. -1.
          2    1    1    2  502    0  0.47044032627E+02  0.31950351683E+02 -0.21711189039E+04  0.21718635457E+04  0.00000000000E+00 0.  1.
</event>
<event>
 4    1  0.8931296E+003  0.2681953E+02  0.7546771E-02  0.1449429E+00
          2   -1    0    0  501    0  0.00000000000E+00  0.00000000000E+00  0.56527870148E+01  0.56527870148E+01  0.00000000000E+00 0. -1.
          2   -1    0    0  502    0 -0.00000000000E+00 -0.00000000000E+00 -0.27195531052E+03  0.27195531052E+03  0.00000000000E+00 0.  1.
          2    1    1    2  501    0 -0.19771309712E+02 -0.18121321180E+02 -0.23440326125E+03  0.23593256633E+03  0.00000000000E+00 0.  1.
          2    1    1    2  502    0  0.19771309712E+02  0.18121321180E+02 -0.31899262257E+02  0.41675531209E+02  0.00000000000E+00 0. -1.
</event>
<event>
 4    1  0.8931296E+003  0.2216333E+02  0.7546771E-02  0.1503280E+00
          2   -1    0    0  502    0  0.00000000000E+00  0.00000000000E+00  0.21757085860E+03  0.21757085860E+03  0.00000000000E+00 0. -1.
          2   -1    0    0  501    0 -0.00000000000E+00 -0.00000000000E+00 -0.10274063609E+02  0.10274063609E+02  0.00000000000E+00 0. -1.
          2    1    1    2  501    0 -0.22000050754E+02  0.26853419268E+01  0.20427817057E+03  0.20547696773E+03  0.00000000000E+00 0. -1.
          2    1    1    2  502    0  0.22000050754E+02 -0.26853419268E+01  0.30186244230E+01  0.22367954486E+02  0.00000000000E+00 0. -1.
</event>
<event>
 4    1  0.8931296E+003  0.2163532E+02  0.7546771E-02  0.1510384E+00
          2   -1    0    0  501    0  0.00000000000E+00  0.00000000000E+00  0.46826124975E+01  0.46826124975E+01  0.00000000000E+00 0.  1.
          2   -1    0    0  502    0 -0.00000000000E+00 -0.00000000000E+00 -0.14824670945E+03  0.14824670945E+03  0.00000000000E+00 0. -1.
          2    1    1    2  501    0  0.14337385869E+02 -0.16202672919E+02 -0.11542049383E+03  0.11743073549E+03  0.00000000000E+00 0. -1.
          2    1    1    2  502    0 -0.14337385869E+02  0.16202672919E+02 -0.28143603121E+02  0.35498586450E+02  0.00000000000E+00 0.  1.
</event>
<event>
 4    1  0.8931296E+003  0.2146372E+02  0.7546771E-02  0.1512746E+00
          2   -1    0    0  501    0  0.00000000000E+00  0.00000000000E+00  0.16799670509E+03  0.16799670509E+03  0.00000000000E+00 0.  1.
          2   -1    0    0  502    0 -0.00000000000E+00 -0.00000000000E+00 -0.20116065945E+02  0.20116065945E+02  0.00000000000E+00 0.  1.
          2    1    1    2  501    0  0.20978411579E+02  0.45384341681E+01 -0.13470301598E+02  0.25340484648E+02  0.00000000000E+00 0.  1.
          2    1    1    2  502    0 -0.20978411579E+02 -0.45384341681E+01  0.16135094074E+03  0.16277228639E+03  0.00000000000E+00 0.  1.
</event>
<event>
 4    1  0.8931296E+003  0.7686855E+02  0.7546771E-02  0.1211310E+00
          2   -1    0    0  501    0  0.00000000000E+00  0.00000000000E+00  0.17846267798E+03  0.17846267798E+03  0.00000000000E+00 0. -1.
          2   -1    0    0  502    0 -0.00000000000E+00 -0.00000000000E+00 -0.37084015008E+02  0.37084015008E+02  0.00000000000E+00 0. -1.
          2    1    1    2  501    0 -0.29019939048E+02  0.71180176473E+02  0.35405886732E+02  0.84630675292E+02  0.00000000000E+00 0. -1.
          2    1    1    2  502    0  0.29019939048E+02 -0.71180176473E+02  0.10597277624E+03  0.13091601769E+03  0.00000000000E+00 0. -1.
</event>
<event>
 4    1  0.9067741E+003  0.3411060E+02  0.7546771E-02  0.1386926E+00
          2   -1    0    0  501    0  0.00000000000E+00  0.00000000000E+00  0.22507818907E+04  0.22507818907E+04  0.00000000000E+00 0. -1.
          2   -1    0    0  502    0 -0.00000000000E+00 -0.00000000000E+00 -0.73100650392E+03  0.73100650392E+03  0.00000000000E+00 0.  1.
          2    1    1    2  501    0  0.29785469677E+02  0.16624038624E+02 -0.73047925266E+03  0.73127523644E+03  0.00000000000E+00 0.  1.
          2    1    1    2  502    0 -0.29785469677E+02 -0.16624038624E+02  0.22502546395E+04  0.22505131582E+04  0.00000000000E+00 0. -1.
</event>
<event>
 4    1  0.8931296E+003  0.2183099E+02  0.7546771E-02  0.1507723E+00
          2   -1    0    0  501    0  0.00000000000E+00  0.00000000000E+00  0.47627332300E+03  0.47627332300E+03  0.00000000000E+00 0.  1.
          2   -1    0    0  502    0 -0.00000000000E+00 -0.00000000000E+00 -0.14732722496E+01  0.14732722496E+01  0.00000000000E+00 0.  1.
          2    1    1    2  501    0 -0.21808457407E+02 -0.99157881222E+00  0.10210732582E+03  0.10441502779E+03  0.00000000000E+00 0.  1.
          2    1    1    2  502    0  0.21808457407E+02  0.99157881222E+00  0.37269272493E+03  0.37333156746E+03  0.00000000000E+00 0.  1.
</event>
<event>
 4    1  0.8931296E+003  0.2568178E+02  0.7546771E-02  0.1461319E+00
          2   -1    0    0  501    0  0.00000000000E+00  0.00000000000E+00  0.46062311937E+01  0.46062311937E+01  0.00000000000E+00 0. -1.
          2   -1    0    0  502    0 -0.00000000000E+00 -0.00000000000E+00 -0.25579278158E+03  0.25579278158E+03  0.00000000000E+00 0. -1.
          2    1    1    2  501    0  0.25680659415E+02 -0.24029640226E+00 -0.21197957591E+03  0.21352961062E+03  0.00000000000E+00 0. -1.
          2    1    1    2  502    0 -0.25680659415E+02  0.24029640226E+00 -0.39206974481E+02  0.46869402154E+02  0.00000000000E+00 0. -1.
</event>
<event>
 4    1  0.8931296E+003  0.3906737E+02  0.7546771E-02  0.1354039E+00
          2   -1    0    0  502    0  0.00000000000E+00  0.00000000000E+00  0.79136530434E+03  0.79136530434E+03  0.00000000000E+00 0.  1.
          2   -1    0    0  501    0 -0.00000000000E+00 -0.00000000000E+00 -0.50797642421E+01  0.50797642421E+01  0.00000000000E+00 0.  1.
          2    1    1    2  501    0 -0.20935512603E+01 -0.39011233768E+02  0.70678661575E+03  0.70786550949E+03  0.00000000000E+00 0.  1.
          2    1    1    2  502    0  0.20935512603E+01  0.39011233768E+02  0.79498924341E+02  0.88579559089E+02  0.00000000000E+00 0.  1.
</event>
<event>
 4    1  0.8931296E+003  0.6393741E+02  0.7546771E-02  0.1247011E+00
          2   -1    0    0  502    0  0.00000000000E+00  0.00000000000E+00  0.45535236419E+03  0.45535236419E+03  0.00000000000E+00 0. -1.
          2   -1    0    0  501    0 -0.00000000000E+00 -0.00000000000E+00 -0.21163586091E+03  0.21163586091E+03  0.00000000000E+00 0.  1.
          2    1    1    2  501    0 -0.20397493838E+02 -0.60596486260E+02  0.44820226430E+03  0.45273972834E+03  0.00000000000E+00 0. -1.
          2    1    1    2  502    0  0.20397493838E+02  0.60596486260E+02 -0.20448576102E+03  0.21424849676E+03  0.00000000000E+00 0.  1.
</event>
<event>
 4    1  0.8931296E+003  0.2034367E+02  0.7546771E-02  0.1528845E+00
          2   -1    0    0  502    0  0.00000000000E+00  0.00000000000E+00  0.14957138789E+03  0.14957138789E+03  0.00000000000E+00 0. -1.
          2   -1    0    0  501    0 -0.00000000000E+00 -0.00000000000E+00 -0.37324900781E+01  0.37324900781E+01  0.00000000000E+00 0. -1.
          2    1    1    2  501    0 -0.71778201969E+01 -0.19035327625E+02  0.11190436138E+03  0.11373851985E+03  0.00000000000E+00 0. -1.
          2    1    1    2  502    0  0.71778201969E+01  0.19035327625E+02  0.33934536432E+02  0.39565358123E+02  0.00000000000E+00 0. -1.
</event>
<event>
 4    1  0.8931296E+003  0.2960057E+02  0.7546771E-02  0.1423100E+00
          2   -1    0    0  501    0  0.00000000000E+00  0.00000000000E+00  0.30771157171E+02  0.30771157171E+02  0.00000000000E+00 0.  1.
          2   -1    0    0  502    0 -0.00000000000E+00 -0.00000000000E+00 -0.33354967403E+03  0.33354967403E+03  0.00000000000E+00 0.  1.
          2    1    1    2  501    0  0.92218297138E+00 -0.29586204560E+02 -0.32560089796E+03  0.32694363226E+03  0.00000000000E+00 0.  1.
          2    1    1    2  502    0 -0.92218297138E+00  0.29586204560E+02  0.22822381101E+02  0.37377198943E+02  0.00000000000E+00 0.  1.
</event>
<event>
 4    1  0.8931296E+003  0.2124537E+02  0.7546771E-02  0.1515790E+00
          2   -1    0    0  501    0  0.00000000000E+00  0.00000000000E+00  0.17617018313E+03  0.17617018313E+03  0.00000000000E+00 0.  1.
          2   -1    0    0  502    0 -0.00000000000E+00 -0.00000000000E+00 -0.20514338713E+02  0.20514338713E+02  0.00000000000E+00 0.  1.
          2    1    1    2  501    0 -0.77485076247E+01  0.19781975514E+02 -0.14168452689E+02  0.25536463680E+02  0.00000000000E+00 0.  1.
          2    1    1    2  502    0  0.77485076247E+01 -0.19781975514E+02  0.16982429711E+03  0.17114805817E+03  0.00000000000E+00 0.  1.
</event>
<event>
 4    1  0.8931296E+003  0.2015902E+02  0.7546771E-02  0.1531619E+00
          2   -1    0    0  502    0  0.00000000000E+00  0.00000000000E+00  0.34789186559E+03  0.34789186559E+03  0.00000000000E+00 0.  1.
          2   -1    0    0  501    0 -0.00000000000E+00 -0.00000000000E+00 -0.12906651757E+01  0.12906651757E+01  0.00000000000E+00 0. -1.
          2    1    1    2  501    0  0.57704190750E+01  0.19315491266E+02  0.22709421775E+03  0.22798721384E+03  0.00000000000E+00 0.  1.
          2    1    1    2  502    0 -0.57704190750E+01 -0.19315491266E+02  0.11950698266E+03  0.12119531692E+03  0.00000000000E+00 0. -1.
</event>
<event>
 4    1  0.8931296E+003  0.3768708E+02  0.7546771E-02  0.1362600E+00
          2   -1    0    0  502    0  0.00000000000E+00  0.00000000000E+00  0.15322570223E+03  0.15322570223E+03  0.00000000000E+00 0. -1.
          2   -1    0    0  501    0 -0.00000000000E+00 -0.00000000000E+00 -0.39823285810E+03  0.39823285810E+03  0.00000000000E+00 0. -1.
          2    1    1    2  501    0 -0.35789905170E+02  0.11806715404E+02  0.14999781269E+03  0.15465981913E+03  0.00000000000E+00 0. -1.
          2    1    1    2  502    0  0.35789905170E+02 -0.11806715404E+02 -0.39500496855E+03  0.39679874121E+03  0.00000000000E+00 0. -1.
</event>
<event>
 4    1  0.8931296E+003  0.2325791E+02  0.7546771E-02  0.1489285E+00
          2   -1    0    0  502    0  0.00000000000E+00  0.00000000000E+00  0.22768308812E+01  0.22768308812E+01  0.00000000000E+00 0.  1.
          2   -1    0    0  501    0 -0.00000000000E+00 -0.00000000000E+00 -0.74533141774E+03  0.74533141774E+03  0.00000000000E+00 0. -1.
          2    1    1    2  501    0 -0.10042983813E+02 -0.20977816808E+02 -0.62999147729E+02  0.67155215259E+02  0.00000000000E+00 0.  1.
          2    1    1    2  502    0  0.10042983813E+02  0.20977816808E+02 -0.68005543913E+03  0.68045303336E+03  0.00000000000E+00 0. -1.
</event>
<event>
 4    1  0.8931296E+003  0.3250468E+02  0.7546771E-02  0.1399009E+00
          2   -1    0    0  501    0  0.00000000000E+00  0.00000000000E+00  0.74909321235E+03  0.74909321235E+03  0.00000000000E+00 0. -1.
          2   -1    0    0  502    0 -0.00000000000E+00 -0.00000000000E+00 -0.54586336585E+02  0.54586336585E+02  0.00000000000E+00 0. -1.
          2    1    1    2  501    0 -0.16099692019E+02 -0.28237461524E+02 -0.49360835602E+02  0.59102000032E+02  0.00000000000E+00 0. -1.
          2    1    1    2  502    0  0.16099692019E+02  0.28237461524E+02  0.74386771136E+03  0.74457754890E+03  0.00000000000E+00 0. -1.
</event>
<event>
 4    1  0.1341495E+004  0.2229561E+02  0.7546771E-02  0.1501538E+00
          2   -1    0    0  502    0  0.00000000000E+00  0.00000000000E+00  0.90533105569E+03  0.90533105569E+03  0.00000000000E+00 0.  1.
          2   -1    0    0  501    0 -0.00000000000E+00 -0.00000000000E+00 -0.58803480727E+03  0.58803480727E+03  0.00000000000E+00 0.  1.
          2    1    1    2  501    0  0.10938632077E+02  0.19427829154E+02  0.90498236857E+03  0.90525696995E+03  0.00000000000E+00 0.  1.
          2    1    1    2  502    0 -0.10938632077E+02 -0.19427829154E+02 -0.58768612015E+03  0.58810889301E+03  0.00000000000E+00 0.  1.
</event>
<event>
 4    1  0.8931296E+003  0.2499749E+02  0.7546771E-02  0.1468831E+00
          2   -1    0    0  501    0  0.00000000000E+00  0.00000000000E+00  0.20900512613E+03  0.20900512613E+03  0.00000000000E+00 0. -1.
          2   -1    0    0  502    0 -0.00000000000E+00 -0.00000000000E+00 -0.50981516375E+01  0.50981516375E+01  0.00000000000E+00 0. -1.
          2    1    1    2  501    0  0.20581066733E+02 -0.14187821027E+02  0.33109996953E+02  0.41486702346E+02  0.00000000000E+00 0. -1.
          2    1    1    2  502    0 -0.20581066733E+02  0.14187821027E+02  0.17079697754E+03  0.17261657542E+03  0.00000000000E+00 0. -1.
</event>
<event>
 4    1  0.8931296E+003  0.2086163E+02  0.7546771E-02  0.1521250E+00
          2   -1    0    0  502    0  0.00000000000E+00  0.00000000000E+00  0.21661317557E+03  0.21661317557E+03  0.00000000000E+00 0. -1.
          2   -1    0    0  501    0 -0.00000000000E+00 -0.00000000000E+00 -0.51101020966E+03  0.51101020966E+03  0.00000000000E+00 0.  1.
          2    1    1    2  501    0  0.80873367522E+01 -0.19230249141E+02  0.21589726943E+03  0.21690283180E+03  0.00000000000E+00 0. -1.
          2    1    1    2  502    0 -0.80873367522E+01  0.19230249141E+02 -0.51029430351E+03  0.51072055343E+03  0.00000000000E+00 0.  1.
</event>
<event>
 4    1  0.8931296E+003  0.2154247E+02  0.7546771E-02  0.1511659E+00
          2   -1    0    0  502    0  0.00000000000E+00  0.00000000000E+00  0.14359274202E+01  0.14359274202E+01  0.00000000000E+00 0.  1.
          2   -1    0    0  501    0 -0.00000000000E+00 -0.00000000000E+00 -0.10544564124E+04  0.10544564124E+04  0.00000000000E+00 0. -1.
          2    1    1    2  501    0  0.14601686594E+02  0.15838843108E+02 -0.86854276068E+02  0.89485995964E+02  0.00000000000E+00 0.  1.
          2    1    1    2  502    0 -0.14601686594E+02 -0.15838843108E+02 -0.96616620892E+03  0.96640634387E+03  0.00000000000E+00 0. -1.
</event>
<event>
 4    1  0.8931296E+003  0.2527802E+02  0.7546771E-02  0.1465717E+00
          2   -1    0    0  501    0  0.00000000000E+00  0.00000000000E+00  0.27197858806E+02  0.27197858806E+02  0.00000000000E+00 0. -1.
          2   -1    0    0  502    0 -0.00000000000E+00 -0.00000000000E+00 -0.14634318915E+03  0.14634318915E+03  0.00000000000E+00 0. -1.
          2    1    1    2  501    0 -0.36152944038E+01  0.25018154015E+02 -0.13907367347E+03  0.14135227283E+03  0.00000000000E+00 0. -1.
          2    1    1    2  502    0  0.36152944038E+01 -0.25018154015E+02  0.19928343125E+02  0.32188775119E+02  0.00000000000E+00 0. -1.
</event>
<event>
 4    1  0.8931296E+003  0.2256810E+02  0.7546771E-02  0.1497994E+00
          2   -1    0    0  501    0  0.00000000000E+00  0.00000000000E+00  0.54526378755E+03  0.54526378755E+03  0.00000000000E+00 0.  1.
          2   -1    0    0  502    0 -0.00000000000E+00 -0.00000000000E+00 -0.12484814227E+01  0.12484814227E+01  0.00000000000E+00 0.  1.
          2    1    1    2  501    0 -0.17800985062E+02  0.13872419395E+02  0.13488087191E+03  0.13675587262E+03  0.00000000000E+00 0.  1.
          2    1    1    2  502    0  0.17800985062E+02 -0.13872419395E+02  0.40913443422E+03  0.40975639635E+03  0.00000000000E+00 0.  1.
</event>
<event>
 4    1  0.8931296E+003  0.6016746E+02  0.7546771E-02  0.1259265E+00
          2   -1    0    0  502    0  0.00000000000E+00  0.00000000000E+00  0.15208249137E+04  0.15208249137E+04  0.00000000000E+00 0.  1.
          2   -1    0    0  501    0 -0.00000000000E+00 -0.00000000000E+00 -0.10952926776E+02  0.10952926776E+02  0.00000000000E+00 0. -1.
          2    1    1    2  501    0  0.30642040993E+01 -0.60089386369E+02  0.14325087223E+04  0.14337717263E+04  0.00000000000E+00 0.  1.
          2    1    1    2  502    0 -0.30642040993E+01  0.60089386369E+02  0.77363264636E+02  0.98006114177E+02  0.00000000000E+00 0. -1.
</event>
<event>
 4    1  0.8931296E+003  0.2288018E+02  0.7546771E-02  0.1494008E+00
          2   -1    0    0  501    0  0.00000000000E+00  0.00000000000E+00  0.14564998635E+03  0.14564998635E+03  0.00000000000E+00 0. -1.
          2   -1    0    0  502    0 -0.00000000000E+00 -0.00000000000E+00 -0.61412611561E+01  0.61412611561E+01  0.00000000000E+00 0. -1.
          2    1    1    2  501    0  0.18665078322E+02  0.13233198271E+02  0.20877508494E+02  0.30973747694E+02  0.00000000000E+00 0. -1.
          2    1    1    2  502    0 -0.18665078322E+02 -0.13233198271E+02  0.11863121670E+03  0.12081749981E+03  0.00000000000E+00 0. -1.
</event>
<event>
 4    1  0.8931296E+003  0.2200394E+02  0.7546771E-02  0.1505399E+00
          2   -1    0    0  501    0  0.00000000000E+00  0.00000000000E+00  0.17410636491E+04  0.17410636491E+04  0.00000000000E+00 0.  1.
          2   -1    0    0  502    0 -0.00000000000E+00 -0.00000000000E+00 -0.34499308192E+00  0.34499308192E+00  0.00000000000E+00 0.  1.
          2    1    1    2  501    0 -0.17878603282E+02  0.12826887086E+02  0.48692894550E+03  0.48742586252E+03  0.00000000000E+00 0.  1.
          2    1    1    2  502    0  0.17878603282E+02 -0.12826887086E+02  0.12537897105E+04  0.12539827796E+04  0.00000000000E+00 0.  1.
</event>
<event>
 4    1  0.8931296E+003  0.3572549E+02  0.7546771E-02  0.1375533E+00
          2   -1    0    0  501    0  0.00000000000E+00  0.00000000000E+00  0.10028011156E+04  0.10028011156E+04  0.00000000000E+00 0. -1.
          2   -1    0    0  502    0 -0.00000000000E+00 -0.00000000000E+00 -0.15807032109E+01  0.15807032109E+01  0.00000000000E+00 0. -1.
          2    1    1    2  501    0  0.12667826422E+02 -0.33404139626E+02  0.27894915569E+03  0.28122756236E+03  0.00000000000E+00 0. -1.
          2    1    1    2  502    0 -0.12667826422E+02  0.33404139626E+02  0.72227125673E+03  0.72315425649E+03  0.00000000000E+00 0. -1.
</event>
<event>
 4    1  0.8931296E+003  0.3502712E+02  0.7546771E-02  0.1380373E+00
          2   -1    0    0  502    0  0.00000000000E+00  0.00000000000E+00  0.74017395196E+03  0.74017395196E+03  0.00000000000E+00 0. -1.
          2   -1    0    0  501    0 -0.00000000000E+00 -0.00000000000E+00 -0.55962598320E+03  0.55962598320E+03  0.00000000000E+00 0.  1.
          2    1    1    2  501    0  0.13671130137E+02 -0.32249024480E+02  0.73921075358E+03  0.74004015944E+03  0.00000000000E+00 0. -1.
          2    1    1    2  502    0 -0.13671130137E+02  0.32249024480E+02 -0.55866278481E+03  0.55975977572E+03  0.00000000000E+00 0.  1.
</event>
<event>
 4    1  0.8931296E+003  0.2132680E+02  0.7546771E-02  0.1514650E+00
          2   -1    0    0  501    0  0.00000000000E+00  0.00000000000E+00  0.20972250523E+02  0.20972250523E+02  0.00000000000E+00 0. -1.
          2   -1    0    0  502    0 -0.00000000000E+00 -0.00000000000E+00 -0.10330524191E+04  0.10330524191E+04  0.00000000000E+00 0.  1.
          2    1    1    2  501    0  0.16968648864E+02  0.12918876324E+02 -0.10274911708E+04  0.10277124786E+04  0.00000000000E+00 0.  1.
          2    1    1    2  502    0 -0.16968648864E+02 -0.12918876324E+02  0.15411002247E+02  0.26312191090E+02  0.00000000000E+00 0. -1.
</event>
<event>
 4    1  0.8931296E+003  0.2461980E+02  0.7546771E-02  0.1473102E+00
          2   -1    0    0  502    0  0.00000000000E+00  0.00000000000E+00  0.20796177705E+03  0.20796177705E+03  0.00000000000E+00 0.  1.
          2   -1    0    0  501    0 -0.00000000000E+00 -0.00000000000E+00 -0.16060805440E+02  0.16060805440E+02  0.00000000000E+00 0. -1.
          2    1    1    2  501    0  0.24107481867E+02 -0.49963918713E+01  0.19728972008E+03  0.19881993930E+03  0.00000000000E+00 0.  1.
          2    1    1    2  502    0 -0.24107481867E+02  0.49963918713E+01 -0.53887484711E+01  0.25202643190E+02  0.00000000000E+00 0. -1.
</event>
<event>
 4    1  0.8931296E+003  0.2759874E+02  0.7546771E-02  0.1441685E+00
          2   -1    0    0  502    0  0.00000000000E+00  0.00000000000E+00  0.20645642173E+01  0.20645642173E+01  0.00000000000E+00 0.  1.
          2   -1    0    0  501    0 -0.00000000000E+00 -0.00000000000E+00 -0.60653278184E+03  0.60653278184E+03  0.00000000000E+00 0. -1.
          2    1    1    2  501    0 -0.27576905324E+02  0.10977019453E+01 -0.11177847707E+03  0.11513521873E+03  0.00000000000E+00 0.  1.
          2    1    1    2  502    0  0.27576905324E+02 -0.10977019453E+01 -0.49268974055E+03  0.49346212732E+03  0.00000000000E+00 0. -1.
</event>
<event>
 4    1  0.8931296E+003  0.2431566E+02  0.7546771E-02  0.1476607E+00
          2   -1    0    0  501    0  0.00000000000E+00  0.00000000000E+00  0.11227867691E+04  0.11227867691E+04  0.00000000000E+00 0. -1.
          2   -1    0    0  502    0 -0.00000000000E+00 -0.00000000000E+00 -0.69988063371E+01  0.69988063371E+01  0.00000000000E+00 0.  1.
          2    1    1    2  501    0 -0.98726632891E+01 -0.22221206880E+02  0.14668094224E+02  0.28397262258E+02  0.00000000000E+00 0.  1.
          2    1    1    2  502    0  0.98726632891E+01  0.22221206880E+02  0.11011198686E+04  0.11013883132E+04  0.00000000000E+00 0. -1.
</event>
<event>
 4    1  0.8931296E+003  0.2338767E+02  0.7546771E-02  0.1487687E+00
          2   -1    0    0  501    0  0.00000000000E+00  0.00000000000E+00  0.10837910923E+04  0.10837910923E+04  0.00000000000E+00 0.  1.
          2   -1    0    0  502    0 -0.00000000000E+00 -0.00000000000E+00 -0.63279688780E+02  0.63279688780E+02  0.00000000000E+00 0.  1.
          2    1    1    2  501    0  0.20574972117E+02  0.11119962114E+02 -0.60987962667E+02  0.65318562640E+02  0.00000000000E+00 0.  1.
          2    1    1    2  502    0 -0.20574972117E+02 -0.11119962114E+02  0.10814993661E+04  0.10817522184E+04  0.00000000000E+00 0.  1.
</event>
<event>
 4    1  0.8931296E+003  0.2329676E+02  0.7546771E-02  0.1488805E+00
          2   -1    0    0  501    0  0.00000000000E+00  0.00000000000E+00  0.26057843707E+01  0.26057843707E+01  0.00000000000E+00 0. -1.
          2   -1    0    0  502    0 -0.00000000000E+00 -0.00000000000E+00 -0.21925243671E+03  0.21925243671E+03  0.00000000000E+00 0.  1.
          2    1    1    2  501    0 -0.17275156523E+02  0.15630350695E+02 -0.83510380725E+02  0.86699034508E+02  0.00000000000E+00 0. -1.
          2    1    1    2  502    0  0.17275156523E+02 -0.15630350695E+02 -0.13313627162E+03  0.13515918658E+03  0.00000000000E+00 0.  1.
</event>
<event>
 4    1  0.8931296E+003  0.2170856E+02  0.7546771E-02  0.1509384E+00
          2   -1    0    0  502    0  0.00000000000E+00  0.00000000000E+00  0.19953021261E+02  0.19953021261E+02  0.00000000000E+00 0.  1.
          2   -1    0    0  501    0 -0.00000000000E+00 -0.00000000000E+00 -0.29719409884E+02  0.29719409884E+02  0.00000000000E+00 0. -1.
          2    1    1    2  501    0 -0.21046938337E+02  0.53186266165E+01  0.63696135893E+01  0.22623734876E+02  0.00000000000E+00 0.  1.
          2    1    1    2  502    0  0.21046938337E+02 -0.53186266165E+01 -0.16136002212E+02  0.27048696269E+02  0.00000000000E+00 0. -1.
</event>
<event>
 4    1  0.8931296E+003  0.2098489E+02  0.7546771E-02  0.1519481E+00
          2   -1    0    0  502    0  0.00000000000E+00  0.00000000000E+00  0.11927968635E+02  0.11927968635E+02  0.00000000000E+00 0. -1.
          2   -1    0    0  501    0 -0.00000000000E+00 -0.00000000000E+00 -0.71521325706E+02  0.71521325706E+02  0.00000000000E+00 0. -1.
          2    1    1    2  501    0 -0.20475320134E+02 -0.45963813763E+01 -0.77455190186E+00  0.20999175864E+02  0.00000000000E+00 0. -1.
          2    1    1    2  502    0  0.20475320134E+02  0.45963813763E+01 -0.58818805169E+02  0.62450118477E+02  0.00000000000E+00 0. -1.
</event>
<event>
 4    1  0.8931296E+003  0.2003561E+02  0.7546771E-02  0.1533492E+00
          2   -1    0    0  502    0  0.00000000000E+00  0.00000000000E+00  0.64451780771E+01  0.64451780771E+01  0.00000000000E+00 0.  1.
          2   -1    0    0  501    0 -0.00000000000E+00 -0.00000000000E+00 -0.81890078167E+03  0.81890078167E+03  0.00000000000E+00 0.  1.
          2    1    1    2  501    0 -0.59680698605E+01 -0.19126105090E+02 -0.95584645332E+01  0.22198873801E+02  0.00000000000E+00 0.  1.
          2    1    1    2  502    0  0.59680698605E+01  0.19126105090E+02 -0.80289713906E+03  0.80314708594E+03  0.00000000000E+00 0.  1.
</event>
<event>
 4    1  0.8931296E+003  0.2788075E+02  0.7546771E-02  0.1438956E+00
          2   -1    0    0  502    0  0.00000000000E+00  0.00000000000E+00  0.21098831850E+02  0.21098831850E+02  0.00000000000E+00 0.  1.
          2   -1    0    0  501    0 -0.00000000000E+00 -0.00000000000E+00 -0.44874268729E+03  0.44874268729E+03  0.00000000000E+00 0.  1.
          2    1    1    2  501    0 -0.26199461652E+02 -0.95354211893E+01  0.11248605865E+02  0.30064383946E+02  0.00000000000E+00 0.  1.
          2    1    1    2  502    0  0.26199461652E+02  0.95354211893E+01 -0.43889246130E+03  0.43977713519E+03  0.00000000000E+00 0.  1.
</event>
<event>
 4    1  0.8931296E+003  0.2497867E+02  0.7546771E-02  0.1469042E+00
          2   -1    0    0  501    0  0.00000000000E+00  0.00000000000E+00  0.78165450538E+01  0.78165450538E+01  0.00000000000E+00 0.  1.
          2   -1    0    0  502    0 -0.00000000000E+00 -0.00000000000E+00 -0.15851015641E+03  0.15851015641E+03  0.00000000000E+00 0. -1.
          2    1    1    2  501    0  0.11193961420E+02 -0.22330011204E+02 -0.13394138513E+03  0.13625061036E+03  0.00000000000E+00 0. -1.
          2    1    1    2  502    0 -0.11193961420E+02  0.22330011204E+02 -0.16752226227E+02  0.30076091106E+02  0.00000000000E+00 0.  1.
</event>
<event>
 4    1  0.8931296E+003  0.2069473E+02  0.7546771E-02  0.1523668E+00
          2   -1    0    0  502    0  0.00000000000E+00  0.00000000000E+00  0.99697245958E+00  0.99697245958E+00  0.00000000000E+00 0. -1.
          2   -1    0    0  501    0 -0.00000000000E+00 -0.00000000000E+00 -0.56215634772E+03  0.56215634772E+03  0.00000000000E+00 0. -1.
          2    1    1    2  501    0 -0.19993470090E+02  0.53416299664E+01 -0.41732534995E+03  0.41783814997E+03  0.00000000000E+00 0. -1.
          2    1    1    2  502    0  0.19993470090E+02 -0.53416299664E+01 -0.14383402531E+03  0.14531517022E+03  0.00000000000E+00 0. -1.
</event>
<event>
 4    1  0.8931296E+003  0.3488449E+02  0.7546771E-02  0.1381377E+00
          2   -1    0    0  502    0  0.00000000000E+00  0.00000000000E+00  0.13814247580E+04  0.13814247580E+04  0.00000000000E+00 0. -1.
          2   -1    0    0  501    0 -0.00000000000E+00 -0.00000000000E+00 -0.19451701131E+01  0.19451701131E+01  0.00000000000E+00 0.  1.
          2    1    1    2  501    0  0.53439463477E+01 -0.34472739944E+02  0.12013638666E+04  0.12018702373E+04  0.00000000000E+00 0. -1.
          2    1    1    2  502    0 -0.53439463477E+01  0.34472739944E+02  0.17811572132E+03  0.18149969076E+03  0.00000000000E+00 0.  1.
</event>
<event>
 4    1  0.8931296E+003  0.3047619E+02  0.7546771E-02  0.1415503E+00
          2   -1    0    0  501    0  0.00000000000E+00  0.00000000000E+00  0.36423890517E+02  0.36423890517E+02  0.00000000000E+00 0. -1.
          2   -1    0    0  502    0 -0.00000000000E+00 -0.00000000000E+00 -0.65654051499E+03  0.65654051499E+03  0.00000000000E+00 0.  1.
          2    1    1    2  501    0  0.14456473713E+02  0.26829249504E+02 -0.64974528455E+03  0.65045963215E+03  0.00000000000E+00 0.  1.
          2    1    1    2  502    0 -0.14456473713E+02 -0.26829249504E+02  0.29628660070E+02  0.42504773364E+02  0.00000000000E+00 0. -1.
</event>
<event>
 4    1  0.8931296E+003  0.2139042E+02  0.7546771E-02  0.1513763E+00
          2   -1    0    0  501    0  0.00000000000E+00  0.00000000000E+00  0.53129474044E+01  0.53129474044E+01  0.00000000000E+00 0. -1.
          2   -1    0    0  502    0 -0.00000000000E+00 -0.00000000000E+00 -0.98499822695E+03  0.98499822695E+03  0.00000000000E+00 0.  1.
          2    1    1    2  501    0  0.12248216190E+02 -0.17536574111E+02 -0.96285710955E+03  0.96309468052E+03  0.00000000000E+00 0.  1.
          2    1    1    2  502    0 -0.12248216190E+02  0.17536574111E+02 -0.16828169998E+02  0.27216493838E+02  0.00000000000E+00 0. -1.
</event>
<event>
 4    1  0.8931296E+003  0.3539695E+02  0.7546771E-02  0.1377794E+00
          2   -1    0    0  501    0  0.00000000000E+00  0.00000000000E+00  0.12123856292E+04  0.12123856292E+04  0.00000000000E+00 0.  1.
          2   -1    0    0  502    0 -0.00000000000E+00 -0.00000000000E+00 -0.35647345009E+01  0.35647345009E+01  0.00000000000E+00 0.  1.
          2    1    1    2  501    0 -0.32138802567E+02  0.14833783392E+02  0.92089084596E+02  0.98657707565E+02  0.00000000000E+00 0.  1.
          2    1    1    2  502    0  0.32138802567E+02 -0.14833783392E+02  0.11167318101E+04  0.11172926561E+04  0.00000000000E+00 0.  1.
</event>
<event>
 4    1  0.8931296E+003  0.2466790E+02  0.7546771E-02  0.1472553E+00
          2   -1    0    0  502    0  0.00000000000E+00  0.00000000000E+00  0.13527763554E+02  0.13527763554E+02  0.00000000000E+00 0. -1.
          2   -1    0    0  501    0 -0.00000000000E+00 -0.00000000000E+00 -0.18994304232E+03  0.18994304232E+03  0.00000000000E+00 0. -1.
          2    1    1    2  501    0 -0.40430965800E+00 -0.24664584025E+02  0.66869666687E+00  0.24676959429E+02  0.00000000000E+00 0. -1.
          2    1    1    2  502    0  0.40430965800E+00  0.24664584025E+02 -0.17708397543E+03  0.17879384644E+03  0.00000000000E+00 0. -1.
</event>
<event>
 4    1  0.8931296E+003  0.3103915E+02  0.7546771E-02  0.1410776E+00
          2   -1    0    0  501    0  0.00000000000E+00  0.00000000000E+00  0.76288745042E+03  0.76288745042E+03  0.00000000000E+00 0. -1.
          2   -1    0    0  502    0 -0.00000000000E+00 -0.00000000000E+00 -0.46432488818E+01  0.46432488818E+01  0.00000000000E+00 0. -1.
          2    1    1    2  501    0  0.30874879861E+02  0.31891320702E+01  0.51677845257E+02  0.60282903548E+02  0.00000000000E+00 0. -1.
          2    1    1    2  502    0 -0.30874879861E+02 -0.31891320702E+01  0.70656635629E+03  0.70724779576E+03  0.00000000000E+00 0. -1.
</event>
<event>
 4    1  0.8931296E+003  0.2741566E+02  0.7546771E-02  0.1443477E+00
          2   -1    0    0  501    0  0.00000000000E+00  0.00000000000E+00  0.13923233361E+01  0.13923233361E+01  0.00000000000E+00 0. -1.
          2   -1    0    0  502    0 -0.00000000000E+00 -0.00000000000E+00 -0.64277736497E+03  0.64277736497E+03  0.00000000000E+00 0.  1.
          2    1    1    2  501    0 -0.17398147546E+01 -0.27360395513E+02 -0.44959081730E+03  0.45042593309E+03  0.00000000000E+00 0.  1.
          2    1    1    2  502    0  0.17398147546E+01  0.27360395513E+02 -0.19179422434E+03  0.19374375522E+03  0.00000000000E+00 0. -1.
</event>
<event>
 4    1  0.8931296E+003  0.2063169E+02  0.7546771E-02  0.1524589E+00
          2   -1    0    0  502    0  0.00000000000E+00  0.00000000000E+00  0.69138342657E+00  0.69138342657E+00  0.00000000000E+00 0. -1.
          2   -1    0    0  501    0 -0.00000000000E+00 -0.00000000000E+00 -0.93233592389E+03  0.93233592389E+03  0.00000000000E+00 0.  1.
          2    1    1    2  501    0 -0.94420659057E+01  0.18344314470E+02 -0.19394281690E+03  0.19503713162E+03  0.00000000000E+00 0. -1.
          2    1    1    2  502    0  0.94420659057E+01 -0.18344314470E+02 -0.73770172356E+03  0.73799017569E+03  0.00000000000E+00 0.  1.
</event>
<event>
 4    1  0.8931296E+003  0.2555337E+02  0.7546771E-02  0.1462707E+00
          2   -1    0    0  502    0  0.00000000000E+00  0.00000000000E+00  0.22965581913E+03  0.22965581913E+03  0.00000000000E+00 0. -1.
          2   -1    0    0  501    0 -0.00000000000E+00 -0.00000000000E+00 -0.60757249659E+02  0.60757249659E+02  0.00000000000E+00 0.  1.
          2    1    1    2  501    0 -0.11572654751E+02 -0.22782634267E+02  0.22621747366E+03  0.22765614455E+03  0.00000000000E+00 0. -1.
          2    1    1    2  502    0  0.11572654751E+02  0.22782634267E+02 -0.57318904191E+02  0.62756924238E+02  0.00000000000E+00 0.  1.
</event>
<event>
 4    1  0.8931296E+003  0.2214815E+02  0.7546771E-02  0.1503481E+00
          2   -1    0    0  501    0  0.00000000000E+00  0.00000000000E+00  0.25946934159E+01  0.25946934159E+01  0.00000000000E+00 0.  1.
          2   -1    0    0  502    0 -0.00000000000E+00 -0.00000000000E+00 -0.13700304363E+04  0.13700304363E+04  0.00000000000E+00 0.  1.
          2    1    1    2  501    0 -0.21120384487E+02  0.66685683456E+01 -0.13209200123E+04  0.13211056806E+04  0.00000000000E+00 0.  1.
          2    1    1    2  502    0  0.21120384487E+02 -0.66685683456E+01 -0.46515730608E+02  0.51519449130E+02  0.00000000000E+00 0.  1.
</event>
<event>
 4    1  0.8931296E+003  0.2463949E+02  0.7546771E-02  0.1472877E+00
          2   -1    0    0  501    0  0.00000000000E+00  0.00000000000E+00  0.44064884519E+03  0.44064884519E+03  0.00000000000E+00 0. -1.
          2   -1    0    0  502    0 -0.00000000000E+00 -0.00000000000E+00 -0.30983739493E+01  0.30983739493E+01  0.00000000000E+00 0.  1.
          2    1    1    2  501    0  0.17562759392E+02 -0.17281604269E+02  0.53433841631E+02  0.58841140327E+02  0.00000000000E+00 0.  1.
          2    1    1    2  502    0 -0.17562759392E+02  0.17281604269E+02  0.38411662961E+03  0.38490607881E+03  0.00000000000E+00 0. -1.
</event>
<event>
 4    1  0.8931296E+003  0.2187160E+02  0.7546771E-02  0.1507175E+00
          2   -1    0    0  501    0  0.00000000000E+00  0.00000000000E+00  0.50021184476E+03  0.50021184476E+03  0.00000000000E+00 0. -1.
          2   -1    0    0  502    0 -0.00000000000E+00 -0.00000000000E+00 -0.13331337447E+01  0.13331337447E+01  0.00000000000E+00 0.  1.
          2    1    1    2  501    0 -0.15834218493E+02 -0.15087892809E+02  0.11611750390E+03  0.11815939106E+03  0.00000000000E+00 0.  1.
          2    1    1    2  502    0  0.15834218493E+02  0.15087892809E+02  0.38276120711E+03  0.38338558744E+03  0.00000000000E+00 0. -1.
</event>
<event>
 4    1  0.8931296E+003  0.2855832E+02  0.7546771E-02  0.1432553E+00
          2   -1    0    0  502    0  0.00000000000E+00  0.00000000000E+00  0.94834781069E+01  0.94834781069E+01  0.00000000000E+00 0. -1.
          2   -1    0    0  501    0 -0.00000000000E+00 -0.00000000000E+00 -0.31899584143E+03  0.31899584143E+03  0.00000000000E+00 0. -1.
          2    1    1    2  501    0 -0.20861034472E+02  0.19503708636E+02 -0.14390875067E+02  0.31979285405E+02  0.00000000000E+00 0. -1.
          2    1    1    2  502    0  0.20861034472E+02 -0.19503708636E+02 -0.29512148825E+03  0.29650003413E+03  0.00000000000E+00 0. -1.
</event>
<event>
 4    1  0.8931296E+003  0.2754405E+02  0.7546771E-02  0.1442218E+00
          2   -1    0    0  501    0  0.00000000000E+00  0.00000000000E+00  0.76264777416E+03  0.76264777416E+03  0.00000000000E+00 0.  1.
          2   -1    0    0  502    0 -0.00000000000E+00 -0.00000000000E+00 -0.12359312070E+01  0.12359312070E+01  0.00000000000E+00 0. -1.
          2    1    1    2  501    0 -0.20714306234E+02 -0.18154681664E+02  0.21199812865E+03  0.21377998386E+03  0.00000000000E+00 0. -1.
          2    1    1    2  502    0  0.20714306234E+02  0.18154681664E+02  0.54941371430E+03  0.55010372150E+03  0.00000000000E+00 0.  1.
</event>
<event>
 4    1  0.8931296E+003  0.3581055E+02  0.7546771E-02  0.1374953E+00
          2   -1    0    0  502    0  0.00000000000E+00  0.00000000000E+00  0.13252639999E+03  0.13252639999E+03  0.00000000000E+00 0.  1.
          2   -1    0    0  501    0 -0.00000000000E+00 -0.00000000000E+00 -0.40606224609E+02  0.40606224609E+02  0.00000000000E+00 0. -1.
          2    1    1    2  501    0 -0.24863145479E+02 -0.25772458117E+02  0.12151112495E+03  0.12667813184E+03  0.00000000000E+00 0.  1.
          2    1    1    2  502    0  0.24863145479E+02  0.25772458117E+02 -0.29590949571E+02  0.46454492754E+02  0.00000000000E+00 0. -1.
</event>
<event>
 4    1  0.8931296E+003  0.3622675E+02  0.7546771E-02  0.1372138E+00
          2   -1    0    0  501    0  0.00000000000E+00  0.00000000000E+00  0.58170822433E+02  0.58170822433E+02  0.00000000000E+00 0.  1.
          2   -1    0    0  502    0 -0.00000000000E+00 -0.00000000000E+00 -0.35030419620E+02  0.35030419620E+02  0.00000000000E+00 0.  1.
          2    1    1    2  501    0  0.22909592068E+02  0.28062933012E+02 -0.16233104468E+02  0.39697497385E+02  0.00000000000E+00 0.  1.
          2    1    1    2  502    0 -0.22909592068E+02 -0.28062933012E+02  0.39373507280E+02  0.53503744668E+02  0.00000000000E+00 0.  1.
</event>
<event>
 4    1  0.8931296E+003  0.3378411E+02  0.7546771E-02  0.1389319E+00
          2   -1    0    0  502    0  0.00000000000E+00  0.00000000000E+00  0.31563447208E+03  0.31563447208E+03  0.00000000000E+00 0. -1.
          2   -1    0    0  501    0 -0.00000000000E+00 -0.00000000000E+00 -0.78244878022E+03  0.78244878022E+03  0.00000000000E+00 0.  1.
          2    1    1    2  501    0 -0.32998341326E+02 -0.72439846498E+01  0.31436430033E+03  0.31617444420E+03  0.00000000000E+00 0. -1.
          2    1    1    2  502    0  0.32998341326E+02  0.72439846498E+01 -0.78117860847E+03  0.78190880810E+03  0.00000000000E+00 0.  1.
</event>
<event>
 4    1  0.8931296E+003  0.3829537E+02  0.7546771E-02  0.1358775E+00
          2   -1    0    0  501    0  0.00000000000E+00  0.00000000000E+00  0.11989314315E+03  0.11989314315E+03  0.00000000000E+00 0. -1.
          2   -1    0    0  502    0 -0.00000000000E+00 -0.00000000000E+00 -0.64488448461E+03  0.64488448461E+03  0.00000000000E+00 0.  1.
          2    1    1    2  501    0  0.78910687448E+01  0.37473540115E+02 -0.64124059176E+03  0.64238308796E+03  0.00000000000E+00 0.  1.
          2    1    1    2  502    0 -0.78910687448E+01 -0.37473540115E+02  0.11624925031E+03  0.12239453979E+03  0.00000000000E+00 0. -1.
</event>
<event>
 4    1  0.8931296E+003  0.2890865E+02  0.7546771E-02  0.1429323E+00
          2   -1    0    0  502    0  0.00000000000E+00  0.00000000000E+00  0.21391079402E+04  0.21391079402E+04  0.00000000000E+00 0. -1.
          2   -1    0    0  501    0 -0.00000000000E+00 -0.00000000000E+00 -0.10610068036E+01  0.10610068036E+01  0.00000000000E+00 0.  1.
          2    1    1    2  501    0  0.28847082202E+02  0.18857363033E+01  0.19195771832E+04  0.19197948517E+04  0.00000000000E+00 0. -1.
          2    1    1    2  502    0 -0.28847082202E+02 -0.18857363033E+01  0.21846975023E+03  0.22037409539E+03  0.00000000000E+00 0.  1.
</event>
<event>
 4    1  0.8931296E+003  0.2816816E+02  0.7546771E-02  0.1436214E+00
          2   -1    0    0  502    0  0.00000000000E+00  0.00000000000E+00  0.69688486905E+01  0.69688486905E+01  0.00000000000E+00 0. -1.
          2   -1    0    0  501    0 -0.00000000000E+00 -0.00000000000E+00 -0.56774458662E+03  0.56774458662E+03  0.00000000000E+00 0.  1.
          2    1    1    2  501    0 -0.18639692086E+02  0.21118874143E+02 -0.23455096661E+02  0.36654965904E+02  0.00000000000E+00 0. -1.
          2    1    1    2  502    0  0.18639692086E+02 -0.21118874143E+02 -0.53732064127E+03  0.53805846941E+03  0.00000000000E+00 0.  1.
</event>
<event>
 4    1  0.8931296E+003  0.2738196E+02  0.7546771E-02  0.1443809E+00
          2   -1    0    0  501    0  0.00000000000E+00  0.00000000000E+00  0.12930998898E+03  0.12930998898E+03  0.00000000000E+00 0.  1.
          2   -1    0    0  502    0 -0.00000000000E+00 -0.00000000000E+00 -0.39949238063E+03  0.39949238063E+03  0.00000000000E+00 0. -1.
          2    1    1    2  501    0 -0.12153724364E+02  0.24536879674E+02 -0.39756660258E+03  0.39850843776E+03  0.00000000000E+00 0. -1.
          2    1    1    2  502    0  0.12153724364E+02 -0.24536879674E+02  0.12738421094E+03  0.13029393185E+03  0.00000000000E+00 0.  1.
</event>
<event>
 4    1  0.8931296E+003  0.2613757E+02  0.7546771E-02  0.1456469E+00
          2   -1    0    0  502    0  0.00000000000E+00  0.00000000000E+00  0.97952186458E+03  0.97952186458E+03  0.00000000000E+00 0. -1.
          2   -1    0    0  501    0 -0.00000000000E+00 -0.00000000000E+00 -0.68196891236E+01  0.68196891236E+01  0.00000000000E+00 0. -1.
          2    1    1    2  501    0  0.87591831619E+01 -0.24626193996E+02  0.95362334978E+03  0.95398148093E+03  0.00000000000E+00 0. -1.
          2    1    1    2  502    0 -0.87591831619E+01  0.24626193996E+02  0.19078825674E+02  0.32360072767E+02  0.00000000000E+00 0. -1.
</event>
<event>
 4    1  0.8931296E+003  0.2285105E+02  0.7546771E-02  0.1494377E+00
          2   -1    0    0  501    0  0.00000000000E+00  0.00000000000E+00  0.18581414833E+01  0.18581414833E+01  0.00000000000E+00 0. -1.
          2   -1    0    0  502    0 -0.00000000000E+00 -0.00000000000E+00 -0.29862078482E+03  0.29862078482E+03  0.00000000000E+00 0. -1.
          2    1    1    2  501    0  0.15301726858E+02  0.16971373304E+02 -0.18485842285E+03  0.18626542045E+03  0.00000000000E+00 0. -1.
          2    1    1    2  502    0 -0.15301726858E+02 -0.16971373304E+02 -0.11190422049E+03  0.11421350585E+03  0.00000000000E+00 0. -1.
</event>
<event>
 4    1  0.8931296E+003  0.2800525E+02  0.7546771E-02  0.1437763E+00
          2   -1    0    0  502    0  0.00000000000E+00  0.00000000000E+00  0.80892933298E+01  0.80892933298E+01  0.00000000000E+00 0.  1.
          2   -1    0    0  501    0 -0.00000000000E+00 -0.00000000000E+00 -0.73496088333E+03  0.73496088333E+03  0.00000000000E+00 0.  1.
          2    1    1    2  501    0 -0.14182570272E+02  0.24148473505E+02 -0.17282462759E+02  0.32908624875E+02  0.00000000000E+00 0.  1.
          2    1    1    2  502    0  0.14182570272E+02 -0.24148473505E+02 -0.70958912724E+03  0.71014155178E+03  0.00000000000E+00 0.  1.
</event>
<event>
 4    1  0.8931296E+003  0.2828476E+02  0.7546771E-02  0.1435112E+00
          2   -1    0    0  502    0  0.00000000000E+00  0.00000000000E+00  0.13989399546E+04  0.13989399546E+04  0.00000000000E+00 0. -1.
          2   -1    0    0  501    0 -0.00000000000E+00 -0.00000000000E+00 -0.90415525526E+01  0.90415525526E+01  0.00000000000E+00 0.  1.
          2    1    1    2  501    0  0.23552496820E+02  0.15662294719E+02  0.13763124839E+04  0.13766030950E+04  0.00000000000E+00 0. -1.
          2    1    1    2  502    0 -0.23552496820E+02 -0.15662294719E+02  0.13585918133E+02  0.31378412226E+02  0.00000000000E+00 0.  1.
</event>
<event>
 4    1  0.8931296E+003  0.2892053E+02  0.7546771E-02  0.1429215E+00
          2   -1    0    0  502    0  0.00000000000E+00  0.00000000000E+00  0.28113707440E+02  0.28113707440E+02  0.00000000000E+00 0.  1.
          2   -1    0    0  501    0 -0.00000000000E+00 -0.00000000000E+00 -0.69166919208E+02  0.69166919208E+02  0.00000000000E+00 0. -1.
          2    1    1    2  501    0  0.28885864520E+02  0.14155615234E+01  0.16191959641E+02  0.33144781498E+02  0.00000000000E+00 0.  1.
          2    1    1    2  502    0 -0.28885864520E+02 -0.14155615234E+01 -0.57245171409E+02  0.64135845150E+02  0.00000000000E+00 0. -1.
</event>
<event>
 4    1  0.8931296E+003  0.2869898E+02  0.7546771E-02  0.1431250E+00
          2   -1    0    0  501    0  0.00000000000E+00  0.00000000000E+00  0.56732706386E+01  0.56732706386E+01  0.00000000000E+00 0. -1.
          2   -1    0    0  502    0 -0.00000000000E+00 -0.00000000000E+00 -0.50226235937E+03  0.50226235937E+03  0.00000000000E+00 0.  1.
          2    1    1    2  501    0 -0.26339594425E+01  0.28577849761E+02 -0.46243517899E+03  0.46332486012E+03  0.00000000000E+00 0.  1.
          2    1    1    2  502    0  0.26339594425E+01 -0.28577849761E+02 -0.34153909742E+02  0.44610769887E+02  0.00000000000E+00 0. -1.
</event>
<event>
 4    1  0.8931296E+003  0.2860619E+02  0.7546771E-02  0.1432108E+00
          2   -1    0    0  501    0  0.00000000000E+00  0.00000000000E+00  0.30717352061E+02  0.30717352061E+02  0.00000000000E+00 0. -1.
          2   -1    0    0  502    0 -0.00000000000E+00 -0.00000000000E+00 -0.69154436594E+03  0.69154436594E+03  0.00000000000E+00 0.  1.
          2    1    1    2  501    0  0.75528624176E+01 -0.27591097060E+02 -0.68452019209E+03  0.68511765978E+03  0.00000000000E+00 0.  1.
          2    1    1    2  502    0 -0.75528624176E+01  0.27591097060E+02  0.23693178207E+02  0.37144058222E+02  0.00000000000E+00 0. -1.
</event>
<event>
 4    1  0.8931296E+003  0.2624213E+02  0.7546771E-02  0.1455373E+00
          2   -1    0    0  501    0  0.00000000000E+00  0.00000000000E+00  0.12196232021E+01  0.12196232021E+01  0.00000000000E+00 0.  1.
          2   -1    0    0  502    0 -0.00000000000E+00 -0.00000000000E+00 -0.56464341672E+03  0.56464341672E+03  0.00000000000E+00 0. -1.
          2    1    1    2  501    0 -0.10516332142E+02 -0.24042795638E+02 -0.28229729966E+03  0.28351439939E+03  0.00000000000E+00 0.  1.
          2    1    1    2  502    0  0.10516332142E+02  0.24042795638E+02 -0.28112649386E+03  0.28234864054E+03  0.00000000000E+00 0. -1.
</event>
<event>
 4    1  0.8931296E+003  0.3037130E+02  0.7546771E-02  0.1416397E+00
          2   -1    0    0  501    0  0.00000000000E+00  0.00000000000E+00  0.63642623358E+01  0.63642623358E+01  0.00000000000E+00 0. -1.
          2   -1    0    0  502    0 -0.00000000000E+00 -0.00000000000E+00 -0.52899263294E+03  0.52899263294E+03  0.00000000000E+00 0.  1.
          2    1    1    2  501    0 -0.29412005332E+02  0.75729515690E+01 -0.48939344275E+03  0.49033494416E+03  0.00000000000E+00 0.  1.
          2    1    1    2  502    0  0.29412005332E+02 -0.75729515690E+01 -0.33234927850E+02  0.45021951116E+02  0.00000000000E+00 0. -1.
</event>
<event>
 4    1  0.8931296E+003  0.2866298E+02  0.7546771E-02  0.1431582E+00
          2   -1    0    0  502    0  0.00000000000E+00  0.00000000000E+00  0.44092636506E+03  0.44092636506E+03  0.00000000000E+00 0.  1.
          2   -1    0    0  501    0 -0.00000000000E+00 -0.00000000000E+00 -0.37148498416E+02  0.37148498416E+02  0.00000000000E+00 0.  1.
          2    1    1    2  501    0  0.11705860542E+02 -0.26163702060E+02  0.43485449522E+03  0.43579811667E+03  0.00000000000E+00 0.  1.
          2    1    1    2  502    0 -0.11705860542E+02  0.26163702060E+02 -0.31076628580E+02  0.42276746805E+02  0.00000000000E+00 0.  1.
</event>
<event>
 4    1  0.8931296E+003  0.3649175E+02  0.7546771E-02  0.1370368E+00
          2   -1    0    0  501    0  0.00000000000E+00  0.00000000000E+00  0.26240631196E+01  0.26240631196E+01  0.00000000000E+00 0. -1.
          2   -1    0    0  502    0 -0.00000000000E+00 -0.00000000000E+00 -0.15038784723E+04  0.15038784723E+04  0.00000000000E+00 0.  1.
          2    1    1    2  501    0  0.16165821647E+02 -0.32715651688E+02 -0.13637550138E+04  0.13642431548E+04  0.00000000000E+00 0.  1.
          2    1    1    2  502    0 -0.16165821647E+02  0.32715651688E+02 -0.13749939540E+03  0.14225938068E+03  0.00000000000E+00 0. -1.
</event>
<event>
 4    1  0.8931296E+003  0.3412307E+02  0.7546771E-02  0.1386835E+00
          2   -1    0    0  502    0  0.00000000000E+00  0.00000000000E+00  0.54287385147E+01  0.54287385147E+01  0.00000000000E+00 0.  1.
          2   -1    0    0  501    0 -0.00000000000E+00 -0.00000000000E+00 -0.63673317168E+03  0.63673317168E+03  0.00000000000E+00 0. -1.
          2    1    1    2  501    0 -0.23927815252E+02 -0.24327829257E+02 -0.54183559299E+02  0.64033129843E+02  0.00000000000E+00 0.  1.
          2    1    1    2  502    0  0.23927815252E+02  0.24327829257E+02 -0.57712087386E+03  0.57812878035E+03  0.00000000000E+00 0. -1.
</event>
<event>
 4    1  0.8931296E+003  0.2134408E+02  0.7546771E-02  0.1514409E+00
          2   -1    0    0  501    0  0.00000000000E+00  0.00000000000E+00  0.25725593943E+03  0.25725593943E+03  0.00000000000E+00 0.  1.
          2   -1    0    0  502    0 -0.00000000000E+00 -0.00000000000E+00 -0.13404399243E+03  0.13404399243E+03  0.00000000000E+00 0. -1.
          2    1    1    2  501    0 -0.20746690321E+02 -0.50144266755E+01 -0.13274731088E+03  0.13445228961E+03  0.00000000000E+00 0. -1.
          2    1    1    2  502    0  0.20746690321E+02  0.50144266755E+01  0.25595925789E+03  0.25684764225E+03  0.00000000000E+00 0.  1.
</event>
<event>
 4    1  0.8931296E+003  0.2061106E+02  0.7546771E-02  0.1524891E+00
          2   -1    0    0  501    0  0.00000000000E+00  0.00000000000E+00  0.80178052363E+02  0.80178052363E+02  0.00000000000E+00 0. -1.
          2   -1    0    0  502    0 -0.00000000000E+00 -0.00000000000E+00 -0.14543169691E+02  0.14543169691E+02  0.00000000000E+00 0. -1.
          2    1    1    2  501    0 -0.20157709573E+02 -0.42991157060E+01 -0.49428845284E+01  0.21195465518E+02  0.00000000000E+00 0. -1.
          2    1    1    2  502    0  0.20157709573E+02  0.42991157060E+01  0.70577767201E+02  0.73525756536E+02  0.00000000000E+00 0. -1.
</event>
<event>
 4    1  0.8931296E+003  0.2551632E+02  0.7546771E-02  0.1463109E+00
          2   -1    0    0  501    0  0.00000000000E+00  0.00000000000E+00  0.58872271671E+01  0.58872271671E+01  0.00000000000E+00 0.  1.
          2   -1    0    0  502    0 -0.00000000000E+00 -0.00000000000E+00 -0.54883886944E+03  0.54883886944E+03  0.00000000000E+00 0.  1.
          2    1    1    2  501    0 -0.15518948909E+01 -0.25469079452E+02 -0.51932381084E+03  0.51995028887E+03  0.00000000000E+00 0.  1.
          2    1    1    2  502    0  0.15518948909E+01  0.25469079452E+02 -0.23627831433E+02  0.34775807742E+02  0.00000000000E+00 0.  1.
</event>
<event>
 4    1  0.8931296E+003  0.2701238E+02  0.7546771E-02  0.1447484E+00
          2   -1    0    0  502    0  0.00000000000E+00  0.00000000000E+00  0.10229573713E+01  0.10229573713E+01  0.00000000000E+00 0.  1.
          2   -1    0    0  501    0 -0.00000000000E+00 -0.00000000000E+00 -0.74521526481E+03  0.74521526481E+03  0.00000000000E+00 0.  1.
          2    1    1    2  501    0  0.27012320208E+02 -0.56916758556E-01 -0.29487235851E+03  0.29610703554E+03  0.00000000000E+00 0.  1.
          2    1    1    2  502    0 -0.27012320208E+02  0.56916758556E-01 -0.44931994893E+03  0.45013118664E+03  0.00000000000E+00 0.  1.
</event>
<event>
 4    1  0.8931296E+003  0.2085848E+02  0.7546771E-02  0.1521295E+00
          2   -1    0    0  501    0  0.00000000000E+00  0.00000000000E+00  0.17305975581E+03  0.17305975581E+03  0.00000000000E+00 0.  1.
          2   -1    0    0  502    0 -0.00000000000E+00 -0.00000000000E+00 -0.16461757410E+02  0.16461757410E+02  0.00000000000E+00 0.  1.
          2    1    1    2  501    0  0.14181408648E+02  0.15295870346E+02 -0.89262610633E+01  0.22688193790E+02  0.00000000000E+00 0.  1.
          2    1    1    2  502    0 -0.14181408648E+02 -0.15295870346E+02  0.16552425946E+03  0.16683331943E+03  0.00000000000E+00 0.  1.
</event>
<event>
 4    1  0.8931296E+003  0.3001899E+02  0.7546771E-02  0.1419432E+00
          2   -1    0    0  502    0  0.00000000000E+00  0.00000000000E+00  0.50078509886E+01  0.50078509886E+01  0.00000000000E+00 0. -1.
          2   -1    0    0  501    0 -0.00000000000E+00 -0.00000000000E+00 -0.11125443900E+04  0.11125443900E+04  0.00000000000E+00 0.  1.
          2    1    1    2  501    0  0.24954956004E+01 -0.29915086577E+02 -0.42172873759E+02  0.51765733689E+02  0.00000000000E+00 0. -1.
          2    1    1    2  502    0 -0.24954956004E+01  0.29915086577E+02 -0.10653636653E+04  0.10657865073E+04  0.00000000000E+00 0.  1.
</event>
<event>
 4    1  0.8931296E+003  0.3589402E+02  0.7546771E-02  0.1374385E+00
          2   -1    0    0  501    0  0.00000000000E+00  0.00000000000E+00  0.17252264617E+02  0.17252264617E+02  0.00000000000E+00 0. -1.
          2   -1    0    0  502    0 -0.00000000000E+00 -0.00000000000E+00 -0.12689347238E+04  0.12689347238E+04  0.00000000000E+00 0. -1.
          2    1    1    2  501    0  0.28531171577E+02 -0.21779638299E+02 -0.12497242363E+04  0.12502395959E+04  0.00000000000E+00 0. -1.
          2    1    1    2  502    0 -0.28531171577E+02  0.21779638299E+02 -0.19582229573E+01  0.35947392578E+02  0.00000000000E+00 0. -1.
</event>
<event>
 4    1  0.8931296E+003  0.4401053E+02  0.7546771E-02  0.1326462E+00
          2   -1    0    0  502    0  0.00000000000E+00  0.00000000000E+00  0.26342688430E+01  0.26342688430E+01  0.00000000000E+00 0.  1.
          2   -1    0    0  501    0 -0.00000000000E+00 -0.00000000000E+00 -0.12178915442E+04  0.12178915442E+04  0.00000000000E+00 0. -1.
          2    1    1    2  501    0  0.35609752889E+02 -0.25862561636E+02 -0.22346940130E+03  0.22776193693E+03  0.00000000000E+00 0.  1.
          2    1    1    2  502    0 -0.35609752889E+02  0.25862561636E+02 -0.99178787406E+03  0.99276387612E+03  0.00000000000E+00 0. -1.
</event>
<event>
 4    1  0.8931296E+003  0.3334926E+02  0.7546771E-02  0.1392555E+00
          2   -1    0    0  502    0  0.00000000000E+00  0.00000000000E+00  0.11278525657E+04  0.11278525657E+04  0.00000000000E+00 0. -1.
          2   -1    0    0  501    0 -0.00000000000E+00 -0.00000000000E+00 -0.13858088337E+01  0.13858088337E+01  0.00000000000E+00 0.  1.
          2    1    1    2  501    0  0.31356556179E+02 -0.11355145009E+02  0.86646678040E+03  0.86710832915E+03  0.00000000000E+00 0. -1.
          2    1    1    2  502    0 -0.31356556179E+02  0.11355145009E+02  0.25999997643E+03  0.26213004535E+03  0.00000000000E+00 0.  1.
</event>
<event>
 4    1  0.8931296E+003  0.2273519E+02  0.7546771E-02  0.1495850E+00
          2   -1    0    0  502    0  0.00000000000E+00  0.00000000000E+00  0.61850168387E+03  0.61850168387E+03  0.00000000000E+00 0. -1.
          2   -1    0    0  501    0 -0.00000000000E+00 -0.00000000000E+00 -0.35257131292E+03  0.35257131292E+03  0.00000000000E+00 0.  1.
          2    1    1    2  501    0 -0.22230315755E+02 -0.47646323172E+01  0.61792590117E+03  0.61834400457E+03  0.00000000000E+00 0. -1.
          2    1    1    2  502    0  0.22230315755E+02  0.47646323172E+01 -0.35199553021E+03  0.35272899222E+03  0.00000000000E+00 0.  1.
</event>
<event>
 4    1  0.8931296E+003  0.2100617E+02  0.7546771E-02  0.1519177E+00
          2   -1    0    0  502    0  0.00000000000E+00  0.00000000000E+00  0.21363301690E+00  0.21363301690E+00  0.00000000000E+00 0.  1.
          2   -1    0    0  501    0 -0.00000000000E+00 -0.00000000000E+00 -0.20881674742E+04  0.20881674742E+04  0.00000000000E+00 0.  1.
          2    1    1    2  501    0 -0.91521115887E+01 -0.18907620153E+02 -0.11527665385E+04  0.11529579140E+04  0.00000000000E+00 0.  1.
          2    1    1    2  502    0  0.91521115887E+01  0.18907620153E+02 -0.93518730273E+03  0.93542319323E+03  0.00000000000E+00 0.  1.
</event>
<event>
 4    1  0.8931296E+003  0.2696153E+02  0.7546771E-02  0.1447995E+00
          2   -1    0    0  501    0  0.00000000000E+00  0.00000000000E+00  0.16682902253E+03  0.16682902253E+03  0.00000000000E+00 0.  1.
          2   -1    0    0  502    0 -0.00000000000E+00 -0.00000000000E+00 -0.25479465720E+03  0.25479465720E+03  0.00000000000E+00 0. -1.
          2    1    1    2  501    0  0.88825752462E+01 -0.25456312933E+02 -0.25298431423E+03  0.25441695553E+03  0.00000000000E+00 0. -1.
          2    1    1    2  502    0 -0.88825752462E+01  0.25456312933E+02  0.16501867956E+03  0.16720672420E+03  0.00000000000E+00 0.  1.
</event>
<event>
 4    1  0.8931296E+003  0.2307709E+02  0.7546771E-02  0.1491532E+00
          2   -1    0    0  502    0  0.00000000000E+00  0.00000000000E+00  0.86827390066E+03  0.86827390066E+03  0.00000000000E+00 0.  1.
          2   -1    0    0  501    0 -0.00000000000E+00 -0.00000000000E+00 -0.42009620726E+02  0.42009620726E+02  0.00000000000E+00 0.  1.
          2    1    1    2  501    0  0.60359152349E+01  0.22273743928E+02  0.86493912140E+03  0.86524692179E+03  0.00000000000E+00 0.  1.
          2    1    1    2  502    0 -0.60359152349E+01 -0.22273743928E+02 -0.38674841462E+02  0.45036599599E+02  0.00000000000E+00 0.  1.
</event>
<event>
 4    1  0.8931296E+003  0.2928150E+02  0.7546771E-02  0.1425945E+00
          2   -1    0    0  501    0  0.00000000000E+00  0.00000000000E+00  0.23670167700E+02  0.23670167700E+02  0.00000000000E+00 0. -1.
          2   -1    0    0  502    0 -0.00000000000E+00 -0.00000000000E+00 -0.16796849259E+04  0.16796849259E+04  0.00000000000E+00 0. -1.
          2    1    1    2  501    0 -0.12184074123E+02  0.26626199776E+02 -0.16704514919E+04  0.16707081112E+04  0.00000000000E+00 0. -1.
          2    1    1    2  502    0  0.12184074123E+02 -0.26626199776E+02  0.14436733704E+02  0.32646982354E+02  0.00000000000E+00 0. -1.
</event>
<event>
 4    1  0.8931296E+003  0.2239166E+02  0.7546771E-02  0.1500282E+00
          2   -1    0    0  501    0  0.00000000000E+00  0.00000000000E+00  0.11392578231E+02  0.11392578231E+02  0.00000000000E+00 0.  1.
          2   -1    0    0  502    0 -0.00000000000E+00 -0.00000000000E+00 -0.56219059594E+03  0.56219059594E+03  0.00000000000E+00 0. -1.
          2    1    1    2  501    0  0.15888341971E+02 -0.15778057155E+02 -0.55073641963E+03  0.55119142809E+03  0.00000000000E+00 0. -1.
          2    1    1    2  502    0 -0.15888341971E+02  0.15778057155E+02 -0.61598081857E-01  0.22391746080E+02  0.00000000000E+00 0.  1.
</event>
<event>
 4    1  0.8931296E+003  0.2780159E+02  0.7546771E-02  0.1439718E+00
          2   -1    0    0  501    0  0.00000000000E+00  0.00000000000E+00  0.42270392882E+03  0.42270392882E+03  0.00000000000E+00 0. -1.
          2   -1    0    0  502    0 -0.00000000000E+00 -0.00000000000E+00 -0.59931775149E+02  0.59931775149E+02  0.00000000000E+00 0.  1.
          2    1    1    2  501    0 -0.20759298914E+02 -0.18492705875E+02 -0.56221922947E+02  0.62720278075E+02  0.00000000000E+00 0.  1.
          2    1    1    2  502    0  0.20759298914E+02  0.18492705875E+02  0.41899407661E+03  0.41991542589E+03  0.00000000000E+00 0. -1.
</event>
<event>
 4    1  0.8931296E+003  0.2966867E+02  0.7546771E-02  0.1422498E+00
          2   -1    0    0  502    0  0.00000000000E+00  0.00000000000E+00  0.43694899226E+02  0.43694899226E+02  0.00000000000E+00 0. -1.
          2   -1    0    0  501    0 -0.00000000000E+00 -0.00000000000E+00 -0.15649866020E+03  0.15649866020E+03  0.00000000000E+00 0.  1.
          2    1    1    2  501    0 -0.61977295711E+01 -0.29014100541E+02  0.37030698082E+02  0.47449999815E+02  0.00000000000E+00 0. -1.
          2    1    1    2  502    0  0.61977295711E+01  0.29014100541E+02 -0.14983445906E+03  0.15274355962E+03  0.00000000000E+00 0.  1.
</event>
<event>
 4    1  0.8931296E+003  0.3210314E+02  0.7546771E-02  0.1402159E+00
          2   -1    0    0  502    0  0.00000000000E+00  0.00000000000E+00  0.49078898143E+02  0.49078898143E+02  0.00000000000E+00 0. -1.
          2   -1    0    0  501    0 -0.00000000000E+00 -0.00000000000E+00 -0.79330308636E+02  0.79330308636E+02  0.00000000000E+00 0.  1.
          2    1    1    2  501    0  0.22112065647E+02  0.23273769576E+02  0.39929343423E+02  0.51234405078E+02  0.00000000000E+00 0. -1.
          2    1    1    2  502    0 -0.22112065647E+02 -0.23273769576E+02 -0.70180753916E+02  0.77174801701E+02  0.00000000000E+00 0.  1.
</event>
<event>
 4    1  0.8931296E+003  0.2706289E+02  0.7546771E-02  0.1446977E+00
          2   -1    0    0  501    0  0.00000000000E+00  0.00000000000E+00  0.47731365297E+01  0.47731365297E+01  0.00000000000E+00 0.  1.
          2   -1    0    0  502    0 -0.00000000000E+00 -0.00000000000E+00 -0.18552445107E+03  0.18552445107E+03  0.00000000000E+00 0.  1.
          2    1    1    2  501    0 -0.15479744797E+02  0.22198589622E+02 -0.50808385652E+02  0.57566413235E+02  0.00000000000E+00 0.  1.
          2    1    1    2  502    0  0.15479744797E+02 -0.22198589622E+02 -0.12994292889E+03  0.13273117437E+03  0.00000000000E+00 0.  1.
</event>
<event>
 4    1  0.8931296E+003  0.3291231E+02  0.7546771E-02  0.1395866E+00
          2   -1    0    0  502    0  0.00000000000E+00  0.00000000000E+00  0.11204662431E+01  0.11204662431E+01  0.00000000000E+00 0. -1.
          2   -1    0    0  501    0 -0.00000000000E+00 -0.00000000000E+00 -0.97878132139E+03  0.97878132139E+03  0.00000000000E+00 0. -1.
          2    1    1    2  501    0 -0.29895423806E+02  0.13765310360E+02 -0.43452852818E+03  0.43577317717E+03  0.00000000000E+00 0. -1.
          2    1    1    2  502    0  0.29895423806E+02 -0.13765310360E+02 -0.54313232696E+03  0.54412861047E+03  0.00000000000E+00 0. -1.
</event>
<event>
 4    1  0.8931296E+003  0.2397744E+02  0.7546771E-02  0.1480576E+00
          2   -1    0    0  502    0  0.00000000000E+00  0.00000000000E+00  0.20990732271E+02  0.20990732271E+02  0.00000000000E+00 0.  1.
          2   -1    0    0  501    0 -0.00000000000E+00 -0.00000000000E+00 -0.14679311961E+03  0.14679311961E+03  0.00000000000E+00 0. -1.
          2    1    1    2  501    0 -0.20305599979E+02  0.12751487799E+02  0.12760618568E+02  0.27161576129E+02  0.00000000000E+00 0.  1.
          2    1    1    2  502    0  0.20305599979E+02 -0.12751487799E+02 -0.13856300591E+03  0.14062227576E+03  0.00000000000E+00 0. -1.
</event>
<event>
 4    1  0.8931296E+003  0.2328003E+02  0.7546771E-02  0.1489011E+00
          2   -1    0    0  502    0  0.00000000000E+00  0.00000000000E+00  0.74512580637E+03  0.74512580637E+03  0.00000000000E+00 0.  1.
          2   -1    0    0  501    0 -0.00000000000E+00 -0.00000000000E+00 -0.12819023322E+02  0.12819023322E+02  0.00000000000E+00 0.  1.
          2    1    1    2  501    0 -0.21889026525E+02  0.79265513010E+01  0.73421753861E+03  0.73458651887E+03  0.00000000000E+00 0.  1.
          2    1    1    2  502    0  0.21889026525E+02 -0.79265513010E+01 -0.19107555627E+01  0.23358310824E+02  0.00000000000E+00 0.  1.
</event>
<event>
 4    1  0.8931296E+003  0.2282091E+02  0.7546771E-02  0.1494759E+00
          2   -1    0    0  501    0  0.00000000000E+00  0.00000000000E+00  0.69646629341E+00  0.69646629341E+00  0.00000000000E+00 0. -1.
          2   -1    0    0  502    0 -0.00000000000E+00 -0.00000000000E+00 -0.75767423073E+03  0.75767423073E+03  0.00000000000E+00 0. -1.
          2    1    1    2  501    0  0.21191989250E+02  0.84672050916E+01 -0.33512746841E+03  0.33590357851E+03  0.00000000000E+00 0. -1.
          2    1    1    2  502    0 -0.21191989250E+02 -0.84672050916E+01 -0.42185029602E+03  0.42246711852E+03  0.00000000000E+00 0. -1.
</event>
<event>
 4    1  0.8931296E+003  0.2491332E+02  0.7546771E-02  0.1469775E+00
          2   -1    0    0  502    0  0.00000000000E+00  0.00000000000E+00  0.10275638611E+01  0.10275638611E+01  0.00000000000E+00 0.  1.
          2   -1    0    0  501    0 -0.00000000000E+00 -0.00000000000E+00 -0.73299355125E+03  0.73299355125E+03  0.00000000000E+00 0.  1.
          2    1    1    2  501    0  0.64143472216E+01 -0.24073423000E+02 -0.21203587521E+03  0.21349446344E+03  0.00000000000E+00 0.  1.
          2    1    1    2  502    0 -0.64143472216E+01  0.24073423000E+02 -0.51993011218E+03  0.52052665166E+03  0.00000000000E+00 0.  1.
</event>
<event>
 4    1  0.8931296E+003  0.3562314E+02  0.7546771E-02  0.1376235E+00
          2   -1    0    0  501    0  0.00000000000E+00  0.00000000000E+00  0.94161027605E+00  0.94161027605E+00  0.00000000000E+00 0. -1.
          2   -1    0    0  502    0 -0.00000000000E+00 -0.00000000000E+00 -0.17822139535E+04  0.17822139535E+04  0.00000000000E+00 0. -1.
          2    1    1    2  501    0  0.29749177988E+02 -0.19595773312E+02 -0.13308678718E+04  0.13313445460E+04  0.00000000000E+00 0. -1.
          2    1    1    2  502    0 -0.29749177988E+02  0.19595773312E+02 -0.45040447140E+03  0.45181101777E+03  0.00000000000E+00 0. -1.
</event>
<event>
 4    1  0.8931296E+003  0.4597347E+02  0.7546771E-02  0.1316642E+00
          2   -1    0    0  501    0  0.00000000000E+00  0.00000000000E+00  0.62517405519E+01  0.62517405519E+01  0.00000000000E+00 0. -1.
          2   -1    0    0  502    0 -0.00000000000E+00 -0.00000000000E+00 -0.61414690763E+03  0.61414690763E+03  0.00000000000E+00 0.  1.
          2    1    1    2  501    0  0.42858898625E+01  0.45773260067E+02 -0.51192464747E+03  0.51398482943E+03  0.00000000000E+00 0.  1.
          2    1    1    2  502    0 -0.42858898625E+01 -0.45773260067E+02 -0.95970519605E+02  0.10641381876E+03  0.00000000000E+00 0. -1.
</event>
<event>
 4    1  0.8931296E+003  0.4239176E+02  0.7546771E-02  0.1335013E+00
          2   -1    0    0  502    0  0.00000000000E+00  0.00000000000E+00  0.18901127709E+03  0.18901127709E+03  0.00000000000E+00 0.  1.
          2   -1    0    0  501    0 -0.00000000000E+00 -0.00000000000E+00 -0.90073719706E+03  0.90073719706E+03  0.00000000000E+00 0. -1.
          2    1    1    2  501    0  0.52249665003E+01  0.42068525838E+02  0.18612794992E+03  0.19089440768E+03  0.00000000000E+00 0.  1.
          2    1    1    2  502    0 -0.52249665003E+01 -0.42068525838E+02 -0.89785386989E+03  0.89885406647E+03  0.00000000000E+00 0. -1.
</event>
<event>
 4    1  0.8931296E+003  0.2940942E+02  0.7546771E-02  0.1424799E+00
          2   -1    0    0  502    0  0.00000000000E+00  0.00000000000E+00  0.50619271972E+00  0.50619271972E+00  0.00000000000E+00 0.  1.
          2   -1    0    0  501    0 -0.00000000000E+00 -0.00000000000E+00 -0.17235070050E+04  0.17235070050E+04  0.00000000000E+00 0.  1.
          2    1    1    2  501    0  0.29332588560E+02 -0.21244259176E+01 -0.78150852518E+03  0.78206169121E+03  0.00000000000E+00 0.  1.
          2    1    1    2  502    0 -0.29332588560E+02  0.21244259176E+01 -0.94149228710E+03  0.94195150651E+03  0.00000000000E+00 0.  1.
</event>
<event>
 4    1  0.8931296E+003  0.3912690E+02  0.7546771E-02  0.1353679E+00
          2   -1    0    0  501    0  0.00000000000E+00  0.00000000000E+00  0.14367202522E+04  0.14367202522E+04  0.00000000000E+00 0.  1.
          2   -1    0    0  502    0 -0.00000000000E+00 -0.00000000000E+00 -0.14476132769E+03  0.14476132769E+03  0.00000000000E+00 0.  1.
          2    1    1    2  501    0  0.25717594402E+01  0.39042292397E+02 -0.14184570226E+03  0.14714318806E+03  0.00000000000E+00 0.  1.
          2    1    1    2  502    0 -0.25717594402E+01 -0.39042292397E+02  0.14338046267E+04  0.14343383918E+04  0.00000000000E+00 0.  1.
</event>
<event>
 4    1  0.8931296E+003  0.2691082E+02  0.7546771E-02  0.1448506E+00
          2   -1    0    0  501    0  0.00000000000E+00  0.00000000000E+00  0.11777044430E+03  0.11777044430E+03  0.00000000000E+00 0.  1.
          2   -1    0    0  502    0 -0.00000000000E+00 -0.00000000000E+00 -0.12830313303E+03  0.12830313303E+03  0.00000000000E+00 0.  1.
          2    1    1    2  501    0  0.25499905398E+01 -0.26789734164E+02 -0.12531854064E+03  0.12817538350E+03  0.00000000000E+00 0.  1.
          2    1    1    2  502    0 -0.25499905398E+01  0.26789734164E+02  0.11478585191E+03  0.11789819382E+03  0.00000000000E+00 0.  1.
</event>
<event>
 4    1  0.8931296E+003  0.2177001E+02  0.7546771E-02  0.1508549E+00
          2   -1    0    0  501    0  0.00000000000E+00  0.00000000000E+00  0.37879373156E+01  0.37879373156E+01  0.00000000000E+00 0.  1.
          2   -1    0    0  502    0 -0.00000000000E+00 -0.00000000000E+00 -0.22713038794E+03  0.22713038794E+03  0.00000000000E+00 0.  1.
          2    1    1    2  501    0 -0.49059894822E+01 -0.21210012850E+02 -0.18904975578E+03  0.19029908969E+03  0.00000000000E+00 0.  1.
          2    1    1    2  502    0  0.49059894822E+01  0.21210012850E+02 -0.34292694841E+02  0.40619235558E+02  0.00000000000E+00 0.  1.
</event>
<event>
 4    1  0.8931296E+003  0.3573544E+02  0.7546771E-02  0.1375465E+00
          2   -1    0    0  501    0  0.00000000000E+00  0.00000000000E+00  0.77452707827E+00  0.77452707827E+00  0.00000000000E+00 0. -1.
          2   -1    0    0  502    0 -0.00000000000E+00 -0.00000000000E+00 -0.21328947652E+04  0.21328947652E+04  0.00000000000E+00 0. -1.
          2    1    1    2  501    0 -0.22326540530E+02 -0.27902462483E+02 -0.15743228422E+04  0.15747283681E+04  0.00000000000E+00 0. -1.
          2    1    1    2  502    0  0.22326540530E+02  0.27902462483E+02 -0.55779739587E+03  0.55894092413E+03  0.00000000000E+00 0. -1.
</event>
<event>
 4    1  0.8931296E+003  0.2454044E+02  0.7546771E-02  0.1474011E+00
          2   -1    0    0  502    0  0.00000000000E+00  0.00000000000E+00  0.75911856912E+03  0.75911856912E+03  0.00000000000E+00 0. -1.
          2   -1    0    0  501    0 -0.00000000000E+00 -0.00000000000E+00 -0.93649991713E+01  0.93649991713E+01  0.00000000000E+00 0.  1.
          2    1    1    2  501    0  0.75842216384E+01  0.23339085748E+02  0.74248343455E+03  0.74288887724E+03  0.00000000000E+00 0. -1.
          2    1    1    2  502    0 -0.75842216384E+01 -0.23339085748E+02  0.72701353982E+01  0.25594691054E+02  0.00000000000E+00 0.  1.
</event>
<event>
 4    1  0.8931296E+003  0.4585079E+02  0.7546771E-02  0.1317239E+00
          2   -1    0    0  502    0  0.00000000000E+00  0.00000000000E+00  0.17592036680E+03  0.17592036680E+03  0.00000000000E+00 0.  1.
          2   -1    0    0  501    0 -0.00000000000E+00 -0.00000000000E+00 -0.10013558819E+04  0.10013558819E+04  0.00000000000E+00 0.  1.
          2    1    1    2  501    0  0.43541982367E+02 -0.14366292743E+02  0.17239739672E+03  0.17839046217E+03  0.00000000000E+00 0.  1.
          2    1    1    2  502    0 -0.43541982367E+02  0.14366292743E+02 -0.99783291180E+03  0.99888578650E+03  0.00000000000E+00 0.  1.
</event>
<event>
 4    1  0.8931296E+003  0.2082104E+02  0.7546771E-02  0.1521835E+00
          2   -1    0    0  502    0  0.00000000000E+00  0.00000000000E+00  0.14768689592E+01  0.14768689592E+01  0.00000000000E+00 0.  1.
          2   -1    0    0  501    0 -0.00000000000E+00 -0.00000000000E+00 -0.56428942619E+03  0.56428942619E+03  0.00000000000E+00 0. -1.
          2    1    1    2  501    0  0.20421562495E+02  0.40589892876E+01 -0.85457600234E+02  0.87957472943E+02  0.00000000000E+00 0.  1.
          2    1    1    2  502    0 -0.20421562495E+02 -0.40589892876E+01 -0.47735495700E+03  0.47780882221E+03  0.00000000000E+00 0. -1.
</event>
<event>
 4    1  0.8931296E+003  0.4595851E+02  0.7546771E-02  0.1316715E+00
          2   -1    0    0  502    0  0.00000000000E+00  0.00000000000E+00  0.20314865205E+04  0.20314865205E+04  0.00000000000E+00 0. -1.
          2   -1    0    0  501    0 -0.00000000000E+00 -0.00000000000E+00 -0.59477476854E+02  0.59477476854E+02  0.00000000000E+00 0. -1.
          2    1    1    2  501    0  0.24981830070E+02  0.38575810401E+02  0.20223082138E+04  0.20228303677E+04  0.00000000000E+00 0. -1.
          2    1    1    2  502    0 -0.24981830070E+02 -0.38575810401E+02 -0.50299170098E+02  0.68133629687E+02  0.00000000000E+00 0. -1.
</event>
<event>
 4    1  0.8931296E+003  0.2615566E+02  0.7546771E-02  0.1456279E+00
          2   -1    0    0  501    0  0.00000000000E+00  0.00000000000E+00  0.13088344387E+04  0.13088344387E+04  0.00000000000E+00 0.  1.
          2   -1    0    0  502    0 -0.00000000000E+00 -0.00000000000E+00 -0.67046896428E+00  0.67046896428E+00  0.00000000000E+00 0.  1.
          2    1    1    2  501    0  0.24305814344E+02  0.96615700832E+01  0.34669197120E+03  0.34767720869E+03  0.00000000000E+00 0.  1.
          2    1    1    2  502    0 -0.24305814344E+02 -0.96615700832E+01  0.96147199854E+03  0.96182769898E+03  0.00000000000E+00 0.  1.
</event>
<event>
 4    1  0.8931296E+003  0.6203031E+02  0.7546771E-02  0.1253086E+00
          2   -1    0    0  501    0  0.00000000000E+00  0.00000000000E+00  0.16918823742E+03  0.16918823742E+03  0.00000000000E+00 0.  1.
          2   -1    0    0  502    0 -0.00000000000E+00 -0.00000000000E+00 -0.12425149687E+03  0.12425149687E+03  0.00000000000E+00 0.  1.
          2    1    1    2  501    0  0.26748351957E+01  0.61972608932E+02 -0.11014595352E+03  0.12641158996E+03  0.00000000000E+00 0.  1.
          2    1    1    2  502    0 -0.26748351957E+01 -0.61972608932E+02  0.15508269406E+03  0.16702814433E+03  0.00000000000E+00 0.  1.
</event>
<event>
 4    1  0.8931296E+003  0.2717853E+02  0.7546771E-02  0.1445823E+00
          2   -1    0    0  502    0  0.00000000000E+00  0.00000000000E+00  0.13232168715E+02  0.13232168715E+02  0.00000000000E+00 0.  1.
          2   -1    0    0  501    0 -0.00000000000E+00 -0.00000000000E+00 -0.69470599504E+03  0.69470599504E+03  0.00000000000E+00 0.  1.
          2    1    1    2  501    0 -0.27170451692E+02  0.66253700391E+00 -0.12874428469E+01  0.27209004200E+02  0.00000000000E+00 0.  1.
          2    1    1    2  502    0  0.27170451692E+02 -0.66253700391E+00 -0.68018638348E+03  0.68072915956E+03  0.00000000000E+00 0.  1.
</event>
<event>
 4    1  0.8931296E+003  0.3923434E+02  0.7546771E-02  0.1353032E+00
          2   -1    0    0  502    0  0.00000000000E+00  0.00000000000E+00  0.90798662159E+01  0.90798662159E+01  0.00000000000E+00 0. -1.
          2   -1    0    0  501    0 -0.00000000000E+00 -0.00000000000E+00 -0.31161345916E+03  0.31161345916E+03  0.00000000000E+00 0.  1.
          2    1    1    2  501    0  0.23798498745E+02  0.31192387868E+02 -0.42993948003E+02  0.58204923918E+02  0.00000000000E+00 0. -1.
          2    1    1    2  502    0 -0.23798498745E+02 -0.31192387868E+02 -0.25953964495E+03  0.26248840146E+03  0.00000000000E+00 0.  1.
</event>
<event>
 4    1  0.8931296E+003  0.2768899E+02  0.7546771E-02  0.1440807E+00
          2   -1    0    0  502    0  0.00000000000E+00  0.00000000000E+00  0.23616146108E+03  0.23616146108E+03  0.00000000000E+00 0. -1.
          2   -1    0    0  501    0 -0.00000000000E+00 -0.00000000000E+00 -0.53604067344E+01  0.53604067344E+01  0.00000000000E+00 0. -1.
          2    1    1    2  501    0 -0.27486049177E+02 -0.33462485073E+01  0.19123702871E+03  0.19323116060E+03  0.00000000000E+00 0. -1.
          2    1    1    2  502    0  0.27486049177E+02  0.33462485073E+01  0.39564025636E+02  0.48290707211E+02  0.00000000000E+00 0. -1.
</event>
<event>
 4    1  0.8931296E+003  0.2326305E+02  0.7546771E-02  0.1489221E+00
          2   -1    0    0  502    0  0.00000000000E+00  0.00000000000E+00  0.46116694199E+03  0.46116694199E+03  0.00000000000E+00 0.  1.
          2   -1    0    0  501    0 -0.00000000000E+00 -0.00000000000E+00 -0.36568638760E+03  0.36568638760E+03  0.00000000000E+00 0.  1.
          2    1    1    2  501    0  0.82876764966E+01 -0.21736696140E+02  0.46050307099E+03  0.46109028176E+03  0.00000000000E+00 0.  1.
          2    1    1    2  502    0 -0.82876764966E+01  0.21736696140E+02 -0.36502251659E+03  0.36576304784E+03  0.00000000000E+00 0.  1.
</event>
<event>
 4    1  0.8931296E+003  0.2109631E+02  0.7546771E-02  0.1517894E+00
          2   -1    0    0  501    0  0.00000000000E+00  0.00000000000E+00  0.10708264217E+03  0.10708264217E+03  0.00000000000E+00 0. -1.
          2   -1    0    0  502    0 -0.00000000000E+00 -0.00000000000E+00 -0.16308266080E+03  0.16308266080E+03  0.00000000000E+00 0.  1.
          2    1    1    2  501    0  0.19954680190E+02  0.68458058264E+01 -0.16135025525E+03  0.16272356678E+03  0.00000000000E+00 0.  1.
          2    1    1    2  502    0 -0.19954680190E+02 -0.68458058264E+01  0.10535023661E+03  0.10744173618E+03  0.00000000000E+00 0. -1.
</event>
<event>
 4    1  0.8931296E+003  0.2029698E+02  0.7546771E-02  0.1529543E+00
          2   -1    0    0  502    0  0.00000000000E+00  0.00000000000E+00  0.16007400433E+03  0.16007400433E+03  0.00000000000E+00 0.  1.
          2   -1    0    0  501    0 -0.00000000000E+00 -0.00000000000E+00 -0.41933319752E+03  0.41933319752E+03  0.00000000000E+00 0. -1.
          2    1    1    2  501    0 -0.22853315695E+01  0.20167908617E+02  0.15918362625E+03  0.16047240929E+03  0.00000000000E+00 0.  1.
          2    1    1    2  502    0  0.22853315695E+01 -0.20167908617E+02 -0.41844281944E+03  0.41893479256E+03  0.00000000000E+00 0. -1.
</event>
<event>
 4    1  0.8931296E+003  0.2036521E+02  0.7546771E-02  0.1528524E+00
          2   -1    0    0  501    0  0.00000000000E+00  0.00000000000E+00  0.42069847001E+02  0.42069847001E+02  0.00000000000E+00 0.  1.
          2   -1    0    0  502    0 -0.00000000000E+00 -0.00000000000E+00 -0.47832882052E+03  0.47832882052E+03  0.00000000000E+00 0. -1.
          2    1    1    2  501    0  0.20146638262E+02 -0.29757086938E+01 -0.47563349141E+03  0.47606928070E+03  0.00000000000E+00 0. -1.
          2    1    1    2  502    0 -0.20146638262E+02  0.29757086938E+01  0.39374517899E+02  0.44329386814E+02  0.00000000000E+00 0.  1.
</event>
<event>
 4    1  0.8931296E+003  0.2127694E+02  0.7546771E-02  0.1515347E+00
          2   -1    0    0  501    0  0.00000000000E+00  0.00000000000E+00  0.42461723099E+03  0.42461723099E+03  0.00000000000E+00 0.  1.
          2   -1    0    0  502    0 -0.00000000000E+00 -0.00000000000E+00 -0.11920830146E+01  0.11920830146E+01  0.00000000000E+00 0. -1.
          2    1    1    2  501    0 -0.49016755304E+01 -0.20704631665E+02  0.14251491243E+03  0.14409444285E+03  0.00000000000E+00 0. -1.
          2    1    1    2  502    0  0.49016755304E+01  0.20704631665E+02  0.28091023555E+03  0.28171487116E+03  0.00000000000E+00 0.  1.
</event>
<event>
 4    1  0.8931296E+003  0.3739856E+02  0.7546771E-02  0.1364444E+00
          2   -1    0    0  501    0  0.00000000000E+00  0.00000000000E+00  0.39345239154E+01  0.39345239154E+01  0.00000000000E+00 0.  1.
          2   -1    0    0  502    0 -0.00000000000E+00 -0.00000000000E+00 -0.38554240482E+03  0.38554240482E+03  0.00000000000E+00 0. -1.
          2    1    1    2  501    0  0.43527514768E+01  0.37144389414E+02 -0.24518074282E+03  0.24801663000E+03  0.00000000000E+00 0. -1.
          2    1    1    2  502    0 -0.43527514768E+01 -0.37144389414E+02 -0.13642713809E+03  0.14146029873E+03  0.00000000000E+00 0.  1.
</event>
<event>
 4    1  0.8931296E+003  0.3356423E+02  0.7546771E-02  0.1390948E+00
          2   -1    0    0  501    0  0.00000000000E+00  0.00000000000E+00  0.71849816236E+03  0.71849816236E+03  0.00000000000E+00 0.  1.
          2   -1    0    0  502    0 -0.00000000000E+00 -0.00000000000E+00 -0.36088080605E+03  0.36088080605E+03  0.00000000000E+00 0. -1.
          2    1    1    2  501    0  0.32101088452E+02  0.98019271037E+01 -0.35970712408E+03  0.36126966766E+03  0.00000000000E+00 0. -1.
          2    1    1    2  502    0 -0.32101088452E+02 -0.98019271037E+01  0.71732448039E+03  0.71810930075E+03  0.00000000000E+00 0.  1.
</event>
<event>
 4    1  0.8931296E+003  0.2272086E+02  0.7546771E-02  0.1496033E+00
          2   -1    0    0  501    0  0.00000000000E+00  0.00000000000E+00  0.74740970800E+00  0.74740970800E+00  0.00000000000E+00 0. -1.
          2   -1    0    0  502    0 -0.00000000000E+00 -0.00000000000E+00 -0.72105734462E+03  0.72105734462E+03  0.00000000000E+00 0. -1.
          2    1    1    2  501    0 -0.22607014380E+02 -0.22716777473E+01 -0.43420412780E+03  0.43479818562E+03  0.00000000000E+00 0. -1.
          2    1    1    2  502    0  0.22607014380E+02  0.22716777473E+01 -0.28610580711E+03  0.28700656871E+03  0.00000000000E+00 0. -1.
</event>
<event>
 4    1  0.8931296E+003  0.3070305E+02  0.7546771E-02  0.1413583E+00
          2   -1    0    0  501    0  0.00000000000E+00  0.00000000000E+00  0.32372732908E+03  0.32372732908E+03  0.00000000000E+00 0. -1.
          2   -1    0    0  502    0 -0.00000000000E+00 -0.00000000000E+00 -0.22225728037E+02  0.22225728037E+02  0.00000000000E+00 0.  1.
          2    1    1    2  501    0  0.17263582689E+02 -0.25389881857E+02 -0.10496633129E+02  0.32447753312E+02  0.00000000000E+00 0.  1.
          2    1    1    2  502    0 -0.17263582689E+02  0.25389881857E+02  0.31199823417E+03  0.31350530380E+03  0.00000000000E+00 0. -1.
</event>
<event>
 4    1  0.8931296E+003  0.2800726E+02  0.7546771E-02  0.1437744E+00
          2   -1    0    0  502    0  0.00000000000E+00  0.00000000000E+00  0.10876862585E+03  0.10876862585E+03  0.00000000000E+00 0.  1.
          2   -1    0    0  501    0 -0.00000000000E+00 -0.00000000000E+00 -0.11579490742E+02  0.11579490742E+02  0.00000000000E+00 0.  1.
          2    1    1    2  501    0  0.26435884173E+02  0.92493727594E+01  0.85551456663E+02  0.90019212425E+02  0.00000000000E+00 0.  1.
          2    1    1    2  502    0 -0.26435884173E+02 -0.92493727594E+01  0.11637678449E+02  0.30328904170E+02  0.00000000000E+00 0.  1.
</event>
<event>
 4    1  0.8931296E+003  0.2065615E+02  0.7546771E-02  0.1524231E+00
          2   -1    0    0  501    0  0.00000000000E+00  0.00000000000E+00  0.29544539782E+03  0.29544539782E+03  0.00000000000E+00 0. -1.
          2   -1    0    0  502    0 -0.00000000000E+00 -0.00000000000E+00 -0.10434941076E+04  0.10434941076E+04  0.00000000000E+00 0. -1.
          2    1    1    2  501    0 -0.69912126939E+01  0.19437067345E+02 -0.10430306789E+04  0.10432351958E+04  0.00000000000E+00 0. -1.
          2    1    1    2  502    0  0.69912126939E+01 -0.19437067345E+02  0.29498196910E+03  0.29570430963E+03  0.00000000000E+00 0. -1.
</event>
<event>
 4    1  0.8931296E+003  0.2462830E+02  0.7546771E-02  0.1473005E+00
          2   -1    0    0  502    0  0.00000000000E+00  0.00000000000E+00  0.11273189427E+02  0.11273189427E+02  0.00000000000E+00 0.  1.
          2   -1    0    0  501    0 -0.00000000000E+00 -0.00000000000E+00 -0.88263873723E+02  0.88263873723E+02  0.00000000000E+00 0. -1.
          2    1    1    2  501    0 -0.20241248483E+02  0.14030139555E+02 -0.73986328328E+01  0.25715612454E+02  0.00000000000E+00 0.  1.
          2    1    1    2  502    0  0.20241248483E+02 -0.14030139555E+02 -0.69592051463E+02  0.73821450697E+02  0.00000000000E+00 0. -1.
</event>
<event>
 4    1  0.8931296E+003  0.2198218E+02  0.7546771E-02  0.1505690E+00
          2   -1    0    0  501    0  0.00000000000E+00  0.00000000000E+00  0.74045047942E+01  0.74045047942E+01  0.00000000000E+00 0. -1.
          2   -1    0    0  502    0 -0.00000000000E+00 -0.00000000000E+00 -0.76807191233E+02  0.76807191233E+02  0.00000000000E+00 0. -1.
          2    1    1    2  501    0 -0.19575008140E+02  0.10001770079E+02 -0.51027494140E+02  0.55560971073E+02  0.00000000000E+00 0. -1.
          2    1    1    2  502    0  0.19575008140E+02 -0.10001770079E+02 -0.18375192299E+02  0.28650724954E+02  0.00000000000E+00 0. -1.
</event>
<event>
 4    1  0.8931296E+003  0.2049453E+02  0.7546771E-02  0.1526606E+00
          2   -1    0    0  501    0  0.00000000000E+00  0.00000000000E+00  0.89599531109E+01  0.89599531109E+01  0.00000000000E+00 0.  1.
          2   -1    0    0  502    0 -0.00000000000E+00 -0.00000000000E+00 -0.97637613240E+02  0.97637613240E+02  0.00000000000E+00 0. -1.
          2    1    1    2  501    0  0.14657701398E+01  0.20442041844E+02 -0.82768570514E+02  0.85268175902E+02  0.00000000000E+00 0. -1.
          2    1    1    2  502    0 -0.14657701398E+01 -0.20442041844E+02 -0.59090896159E+01  0.21329390449E+02  0.00000000000E+00 0.  1.
</event>
<event>
 4    1  0.8931296E+003  0.2187717E+02  0.7546771E-02  0.1507100E+00
          2   -1    0    0  501    0  0.00000000000E+00  0.00000000000E+00  0.36077617754E+03  0.36077617754E+03  0.00000000000E+00 0. -1.
          2   -1    0    0  502    0 -0.00000000000E+00 -0.00000000000E+00 -0.51641901997E+01  0.51641901997E+01  0.00000000000E+00 0.  1.
          2    1    1    2  501    0 -0.43954127882E+01 -0.21431068896E+02  0.20078365576E+02  0.29694294600E+02  0.00000000000E+00 0.  1.
          2    1    1    2  502    0  0.43954127882E+01  0.21431068896E+02  0.33553362176E+03  0.33624607314E+03  0.00000000000E+00 0. -1.
</event>
<event>
 4    1  0.8931296E+003  0.2059078E+02  0.7546771E-02  0.1525188E+00
          2   -1    0    0  501    0  0.00000000000E+00  0.00000000000E+00  0.10311033144E+02  0.10311033144E+02  0.00000000000E+00 0.  1.
          2   -1    0    0  502    0 -0.00000000000E+00 -0.00000000000E+00 -0.13563697670E+03  0.13563697670E+03  0.00000000000E+00 0. -1.
          2    1    1    2  501    0  0.15812487933E+02  0.13188836241E+02 -0.12357964254E+03  0.12528331185E+03  0.00000000000E+00 0. -1.
          2    1    1    2  502    0 -0.15812487933E+02 -0.13188836241E+02 -0.17463010110E+01  0.20664697996E+02  0.00000000000E+00 0.  1.
</event>
<event>
 4    1  0.8931296E+003  0.2327809E+02  0.7546771E-02  0.1489035E+00
          2   -1    0    0  502    0  0.00000000000E+00  0.00000000000E+00  0.82308171155E+02  0.82308171155E+02  0.00000000000E+00 0. -1.
          2   -1    0    0  501    0 -0.00000000000E+00 -0.00000000000E+00 -0.31532862923E+03  0.31532862923E+03  0.00000000000E+00 0. -1.
          2    1    1    2  501    0  0.18874946897E+02  0.13623724206E+02  0.80221761089E+02  0.83530835227E+02  0.00000000000E+00 0. -1.
          2    1    1    2  502    0 -0.18874946897E+02 -0.13623724206E+02 -0.31324221916E+03  0.31410596516E+03  0.00000000000E+00 0. -1.
</event>
<event>
 4    1  0.8931296E+003  0.2117173E+02  0.7546771E-02  0.1516827E+00
          2   -1    0    0  501    0  0.00000000000E+00  0.00000000000E+00  0.95486971078E+03  0.95486971078E+03  0.00000000000E+00 0. -1.
          2   -1    0    0  502    0 -0.00000000000E+00 -0.00000000000E+00 -0.10913634554E+01  0.10913634554E+01  0.00000000000E+00 0. -1.
          2    1    1    2  501    0  0.15970330201E+02  0.13899298657E+02  0.11606269740E+03  0.11797792877E+03  0.00000000000E+00 0. -1.
          2    1    1    2  502    0 -0.15970330201E+02 -0.13899298657E+02  0.83771564992E+03  0.83798314546E+03  0.00000000000E+00 0. -1.
</event>
<event>
 4    1  0.8931296E+003  0.8581956E+02  0.7546771E-02  0.1190945E+00
          2   -1    0    0  501    0  0.00000000000E+00  0.00000000000E+00  0.15221529705E+03  0.15221529705E+03  0.00000000000E+00 0.  1.
          2   -1    0    0  502    0 -0.00000000000E+00 -0.00000000000E+00 -0.51785843394E+03  0.51785843394E+03  0.00000000000E+00 0.  1.
          2    1    1    2  501    0  0.82202594437E+02  0.24652174676E+02 -0.50182283064E+03  0.50910819047E+03  0.00000000000E+00 0.  1.
          2    1    1    2  502    0 -0.82202594437E+02 -0.24652174676E+02  0.13617969374E+03  0.16096554052E+03  0.00000000000E+00 0.  1.
</event>
<event>
 4    1  0.8931296E+003  0.2713427E+02  0.7546771E-02  0.1446264E+00
          2   -1    0    0  501    0  0.00000000000E+00  0.00000000000E+00  0.11507641501E+03  0.11507641501E+03  0.00000000000E+00 0.  1.
          2   -1    0    0  502    0 -0.00000000000E+00 -0.00000000000E+00 -0.77460750555E+02  0.77460750555E+02  0.00000000000E+00 0. -1.
          2    1    1    2  501    0 -0.26588705819E+02  0.54137936404E+01 -0.73399292866E+02  0.78254230761E+02  0.00000000000E+00 0. -1.
          2    1    1    2  502    0  0.26588705819E+02 -0.54137936404E+01  0.11101495732E+03  0.11428293480E+03  0.00000000000E+00 0.  1.
</event>
<event>
 4    1  0.8931296E+003  0.1760521E+03  0.7546771E-02  0.1073550E+00
          2   -1    0    0  501    0  0.00000000000E+00  0.00000000000E+00  0.35955216410E+03  0.35955216410E+03  0.00000000000E+00 0.  1.
          2   -1    0    0  502    0 -0.00000000000E+00 -0.00000000000E+00 -0.51822831914E+03  0.51822831914E+03  0.00000000000E+00 0. -1.
          2    1    1    2  501    0 -0.16399746403E+03  0.64024885921E+02 -0.48006647793E+03  0.51132981279E+03  0.00000000000E+00 0. -1.
          2    1    1    2  502    0  0.16399746403E+03 -0.64024885921E+02  0.32139032288E+03  0.36645067044E+03  0.00000000000E+00 0.  1.
</event>
<event>
 4    1  0.8931296E+003  0.2002956E+02  0.7546771E-02  0.1533584E+00
          2   -1    0    0  501    0  0.00000000000E+00  0.00000000000E+00  0.15778367708E+03  0.15778367708E+03  0.00000000000E+00 0.  1.
          2   -1    0    0  502    0 -0.00000000000E+00 -0.00000000000E+00 -0.49641176812E+02  0.49641176812E+02  0.00000000000E+00 0. -1.
          2    1    1    2  501    0 -0.66929453893E+01 -0.18878232086E+02 -0.46950196945E+02  0.51044139309E+02  0.00000000000E+00 0. -1.
          2    1    1    2  502    0  0.66929453893E+01  0.18878232086E+02  0.15509269722E+03  0.15638071459E+03  0.00000000000E+00 0.  1.
</event>
<event>
 4    1  0.8931296E+003  0.2370154E+02  0.7546771E-02  0.1483872E+00
          2   -1    0    0  502    0  0.00000000000E+00  0.00000000000E+00  0.20954575929E+03  0.20954575929E+03  0.00000000000E+00 0. -1.
          2   -1    0    0  501    0 -0.00000000000E+00 -0.00000000000E+00 -0.60407178382E+02  0.60407178382E+02  0.00000000000E+00 0. -1.
          2    1    1    2  501    0 -0.12803681952E+02 -0.19945643328E+02  0.20651665346E+03  0.20787229521E+03  0.00000000000E+00 0. -1.
          2    1    1    2  502    0  0.12803681952E+02  0.19945643328E+02 -0.57378072549E+02  0.62080642464E+02  0.00000000000E+00 0. -1.
</event>
<event>
 4    1  0.8931296E+003  0.3593956E+02  0.7546771E-02  0.1374075E+00
          2   -1    0    0  502    0  0.00000000000E+00  0.00000000000E+00  0.63610788520E+03  0.63610788520E+03  0.00000000000E+00 0. -1.
          2   -1    0    0  501    0 -0.00000000000E+00 -0.00000000000E+00 -0.82821456781E+02  0.82821456781E+02  0.00000000000E+00 0. -1.
          2    1    1    2  501    0  0.44364236391E+01  0.35664689990E+02  0.63167399614E+03  0.63269557400E+03  0.00000000000E+00 0. -1.
          2    1    1    2  502    0 -0.44364236391E+01 -0.35664689990E+02 -0.78387567719E+02  0.86233767978E+02  0.00000000000E+00 0. -1.
</event>
<event>
 4    1  0.8931296E+003  0.3593200E+02  0.7546771E-02  0.1374127E+00
          2   -1    0    0  501    0  0.00000000000E+00  0.00000000000E+00  0.37396078247E+01  0.37396078247E+01  0.00000000000E+00 0.  1.
          2   -1    0    0  502    0 -0.00000000000E+00 -0.00000000000E+00 -0.99006733002E+03  0.99006733002E+03  0.00000000000E+00 0.  1.
          2    1    1    2  501    0  0.24022788721E+02 -0.26721047257E+02 -0.89417569672E+03  0.89489736023E+03  0.00000000000E+00 0.  1.
          2    1    1    2  502    0 -0.24022788721E+02  0.26721047257E+02 -0.92152025476E+02  0.98909577614E+02  0.00000000000E+00 0.  1.
</event>
<event>
 4    1  0.8931296E+003  0.2146285E+02  0.7546771E-02  0.1512758E+00
          2   -1    0    0  502    0  0.00000000000E+00  0.00000000000E+00  0.31339133961E+03  0.31339133961E+03  0.00000000000E+00 0.  1.
          2   -1    0    0  501    0 -0.00000000000E+00 -0.00000000000E+00 -0.99346199315E+02  0.99346199315E+02  0.00000000000E+00 0.  1.
          2    1    1    2  501    0  0.21340972956E+02  0.22840136049E+01  0.31185896184E+03  0.31259665053E+03  0.00000000000E+00 0.  1.
          2    1    1    2  502    0 -0.21340972956E+02 -0.22840136049E+01 -0.97813821539E+02  0.10014088840E+03  0.00000000000E+00 0.  1.
</event>
<event>
 4    1  0.8931296E+003  0.2024780E+02  0.7546771E-02  0.1530281E+00
          2   -1    0    0  502    0  0.00000000000E+00  0.00000000000E+00  0.27608707044E+02  0.27608707044E+02  0.00000000000E+00 0.  1.
          2   -1    0    0  501    0 -0.00000000000E+00 -0.00000000000E+00 -0.36277795702E+02  0.36277795702E+02  0.00000000000E+00 0.  1.
          2    1    1    2  501    0 -0.18624487803E+02  0.79436679783E+01  0.20215555117E+02  0.28611921913E+02  0.00000000000E+00 0.  1.
          2    1    1    2  502    0  0.18624487803E+02 -0.79436679783E+01 -0.28884643776E+02  0.35274580833E+02  0.00000000000E+00 0.  1.
</event>
<event>
 4    1  0.8931296E+003  0.2214814E+02  0.7546771E-02  0.1503481E+00
          2   -1    0    0  502    0  0.00000000000E+00  0.00000000000E+00  0.28629655804E+00  0.28629655804E+00  0.00000000000E+00 0. -1.
          2   -1    0    0  501    0 -0.00000000000E+00 -0.00000000000E+00 -0.17203023758E+04  0.17203023758E+04  0.00000000000E+00 0.  1.
          2    1    1    2  501    0  0.21617335701E+02  0.48198553435E+01 -0.80551029941E+03  0.80581473222E+03  0.00000000000E+00 0. -1.
          2    1    1    2  502    0 -0.21617335701E+02 -0.48198553435E+01 -0.91450577979E+03  0.91477394010E+03  0.00000000000E+00 0.  1.
</event>
<event>
 4    1  0.8931296E+003  0.2953265E+02  0.7546771E-02  0.1423702E+00
          2   -1    0    0  501    0  0.00000000000E+00  0.00000000000E+00  0.32746703418E+03  0.32746703418E+03  0.00000000000E+00 0. -1.
          2   -1    0    0  502    0 -0.00000000000E+00 -0.00000000000E+00 -0.44590403931E+03  0.44590403931E+03  0.00000000000E+00 0. -1.
          2    1    1    2  501    0  0.18311065245E+02 -0.23170714815E+02 -0.44474746482E+03  0.44572691706E+03  0.00000000000E+00 0. -1.
          2    1    1    2  502    0 -0.18311065245E+02  0.23170714815E+02  0.32631045969E+03  0.32764415642E+03  0.00000000000E+00 0. -1.
</event>
<event>
 4    1  0.8931296E+003  0.3745328E+02  0.7546771E-02  0.1364092E+00
          2   -1    0    0  501    0  0.00000000000E+00  0.00000000000E+00  0.82825746640E+01  0.82825746640E+01  0.00000000000E+00 0. -1.
          2   -1    0    0  502    0 -0.00000000000E+00 -0.00000000000E+00 -0.91061048685E+03  0.91061048685E+03  0.00000000000E+00 0. -1.
          2    1    1    2  501    0 -0.34441202614E+02 -0.14715693829E+02 -0.86568897824E+03  0.86649879118E+03  0.00000000000E+00 0. -1.
          2    1    1    2  502    0  0.34441202614E+02  0.14715693829E+02 -0.36638933945E+02  0.52394270326E+02  0.00000000000E+00 0. -1.
</event>
<event>
 4    1  0.8931296E+003  0.2651318E+02  0.7546771E-02  0.1452561E+00
          2   -1    0    0  501    0  0.00000000000E+00  0.00000000000E+00  0.88278085863E+03  0.88278085863E+03  0.00000000000E+00 0.  1.
          2   -1    0    0  502    0 -0.00000000000E+00 -0.00000000000E+00 -0.56845775887E+02  0.56845775887E+02  0.00000000000E+00 0. -1.
          2    1    1    2  501    0  0.46008522853E+01  0.26110932566E+02 -0.53543626205E+02  0.59748376952E+02  0.00000000000E+00 0. -1.
          2    1    1    2  502    0 -0.46008522853E+01 -0.26110932566E+02  0.87947870895E+03  0.87987825756E+03  0.00000000000E+00 0.  1.
</event>
<event>
 4    1  0.8931296E+003  0.3722357E+02  0.7546771E-02  0.1365571E+00
          2   -1    0    0  502    0  0.00000000000E+00  0.00000000000E+00  0.15390571707E+04  0.15390571707E+04  0.00000000000E+00 0.  1.
          2   -1    0    0  501    0 -0.00000000000E+00 -0.00000000000E+00 -0.72630532572E+01  0.72630532572E+01  0.00000000000E+00 0. -1.
          2    1    1    2  501    0 -0.22256209731E+02  0.29837140370E+02  0.14895541065E+04  0.14900191374E+04  0.00000000000E+00 0.  1.
          2    1    1    2  502    0  0.22256209731E+02 -0.29837140370E+02  0.42240010984E+02  0.56301086535E+02  0.00000000000E+00 0. -1.
</event>
<event>
 4    1  0.8931296E+003  0.9455540E+02  0.7546771E-02  0.1173592E+00
          2   -1    0    0  502    0  0.00000000000E+00  0.00000000000E+00  0.15570452011E+03  0.15570452011E+03  0.00000000000E+00 0. -1.
          2   -1    0    0  501    0 -0.00000000000E+00 -0.00000000000E+00 -0.16205260138E+03  0.16205260138E+03  0.00000000000E+00 0. -1.
          2    1    1    2  501    0  0.92607173709E+02 -0.19095432607E+02  0.12448998376E+03  0.15632811719E+03  0.00000000000E+00 0. -1.
          2    1    1    2  502    0 -0.92607173709E+02  0.19095432607E+02 -0.13083806503E+03  0.16142900430E+03  0.00000000000E+00 0. -1.
</event>
<event>
 4    1  0.8931296E+003  0.3290877E+02  0.7546771E-02  0.1395893E+00
          2   -1    0    0  502    0  0.00000000000E+00  0.00000000000E+00  0.94893356757E+03  0.94893356757E+03  0.00000000000E+00 0.  1.
          2   -1    0    0  501    0 -0.00000000000E+00 -0.00000000000E+00 -0.22854123313E+02  0.22854123313E+02  0.00000000000E+00 0.  1.
          2    1    1    2  501    0  0.30191195037E+02  0.13094994251E+02  0.93664615010E+03  0.93722409147E+03  0.00000000000E+00 0.  1.
          2    1    1    2  502    0 -0.30191195037E+02 -0.13094994251E+02 -0.10566705841E+02  0.34563599415E+02  0.00000000000E+00 0.  1.
</event>
<event>
 4    1  0.8931296E+003  0.2047014E+02  0.7546771E-02  0.1526966E+00
          2   -1    0    0  502    0  0.00000000000E+00  0.00000000000E+00  0.78197512546E+03  0.78197512546E+03  0.00000000000E+00 0.  1.
          2   -1    0    0  501    0 -0.00000000000E+00 -0.00000000000E+00 -0.14060389389E+02  0.14060389389E+02  0.00000000000E+00 0.  1.
          2    1    1    2  501    0  0.40319258508E+00 -0.20466172398E+02  0.77431700447E+03  0.77458753552E+03  0.00000000000E+00 0.  1.
          2    1    1    2  502    0 -0.40319258508E+00  0.20466172398E+02 -0.64022683920E+01  0.21447979332E+02  0.00000000000E+00 0.  1.
</event>
<event>
 4    1  0.1589287E+004  0.3740358E+02  0.7546771E-02  0.1364411E+00
          2   -1    0    0  501    0  0.00000000000E+00  0.00000000000E+00  0.13438257019E+04  0.13438257019E+04  0.00000000000E+00 0.  1.
          2   -1    0    0  502    0 -0.00000000000E+00 -0.00000000000E+00 -0.15785294859E+04  0.15785294859E+04  0.00000000000E+00 0.  1.
          2    1    1    2  501    0  0.35333007431E+02  0.12272181655E+02 -0.15780475655E+04  0.15784907813E+04  0.00000000000E+00 0.  1.
          2    1    1    2  502    0 -0.35333007431E+02 -0.12272181655E+02  0.13433437815E+04  0.13438644065E+04  0.00000000000E+00 0.  1.
</event>
<event>
 4    1  0.8931296E+003  0.6553474E+02  0.7546771E-02  0.1242104E+00
          2   -1    0    0  501    0  0.00000000000E+00  0.00000000000E+00  0.61339624293E+02  0.61339624293E+02  0.00000000000E+00 0. -1.
          2   -1    0    0  502    0 -0.00000000000E+00 -0.00000000000E+00 -0.19039245282E+04  0.19039245282E+04  0.00000000000E+00 0. -1.
          2    1    1    2  501    0 -0.18510051905E+02 -0.62866369738E+02 -0.18856871543E+04  0.18868256004E+04  0.00000000000E+00 0. -1.
          2    1    1    2  502    0  0.18510051905E+02  0.62866369738E+02  0.43102250388E+02  0.78438552091E+02  0.00000000000E+00 0. -1.
</event>
<event>
 4    1  0.8931296E+003  0.4114375E+02  0.7546771E-02  0.1341911E+00
          2   -1    0    0  501    0  0.00000000000E+00  0.00000000000E+00  0.17921311929E+04  0.17921311929E+04  0.00000000000E+00 0. -1.
          2   -1    0    0  502    0 -0.00000000000E+00 -0.00000000000E+00 -0.19360744572E+01  0.19360744572E+01  0.00000000000E+00 0.  1.
          2    1    1    2  501    0 -0.11158044902E+02  0.39601850230E+02  0.25315941310E+03  0.25648098750E+03  0.00000000000E+00 0.  1.
          2    1    1    2  502    0  0.11158044902E+02 -0.39601850230E+02  0.15370357054E+04  0.15375862799E+04  0.00000000000E+00 0. -1.
</event>
<event>
 4    1  0.8931296E+003  0.3971165E+02  0.7546771E-02  0.1350184E+00
          2   -1    0    0  501    0  0.00000000000E+00  0.00000000000E+00  0.87083768022E+03  0.87083768022E+03  0.00000000000E+00 0. -1.
          2   -1    0    0  502    0 -0.00000000000E+00 -0.00000000000E+00 -0.76408833518E+01  0.76408833518E+01  0.00000000000E+00 0. -1.
          2    1    1    2  501    0 -0.18302640072E+02  0.35242429238E+02  0.47924387368E+02  0.62239556207E+02  0.00000000000E+00 0. -1.
          2    1    1    2  502    0  0.18302640072E+02 -0.35242429238E+02  0.81527240950E+03  0.81623900737E+03  0.00000000000E+00 0. -1.
</event>
<event>
 4    1  0.8931296E+003  0.2407953E+02  0.7546771E-02  0.1479370E+00
          2   -1    0    0  502    0  0.00000000000E+00  0.00000000000E+00  0.27391362696E+02  0.27391362696E+02  0.00000000000E+00 0.  1.
          2   -1    0    0  501    0 -0.00000000000E+00 -0.00000000000E+00 -0.21194292933E+02  0.21194292933E+02  0.00000000000E+00 0. -1.
          2    1    1    2  501    0 -0.24066434044E+02  0.79400714740E+00  0.22448807249E+01  0.24183944765E+02  0.00000000000E+00 0. -1.
          2    1    1    2  502    0  0.24066434044E+02 -0.79400714740E+00  0.39521890386E+01  0.24401710865E+02  0.00000000000E+00 0.  1.
</event>
<event>
 4    1  0.8931296E+003  0.2020025E+02  0.7546771E-02  0.1530996E+00
          2   -1    0    0  502    0  0.00000000000E+00  0.00000000000E+00  0.12294268345E+04  0.12294268345E+04  0.00000000000E+00 0. -1.
          2   -1    0    0  501    0 -0.00000000000E+00 -0.00000000000E+00 -0.35089733274E+01  0.35089733274E+01  0.00000000000E+00 0.  1.
          2    1    1    2  501    0 -0.48166034427E+01  0.19617609606E+02  0.11995478580E+04  0.11997179310E+04  0.00000000000E+00 0. -1.
          2    1    1    2  502    0  0.48166034427E+01 -0.19617609606E+02  0.26370003190E+02  0.33217876868E+02  0.00000000000E+00 0.  1.
</event>
<event>
 4    1  0.8931296E+003  0.6793706E+02  0.7546771E-02  0.1235014E+00
          2   -1    0    0  501    0  0.00000000000E+00  0.00000000000E+00  0.73922914240E+03  0.73922914240E+03  0.00000000000E+00 0.  1.
          2   -1    0    0  502    0 -0.00000000000E+00 -0.00000000000E+00 -0.37827229954E+04  0.37827229954E+04  0.00000000000E+00 0.  1.
          2    1    1    2  501    0  0.43690662465E+02  0.52024709258E+02 -0.37808562926E+04  0.37814666135E+04  0.00000000000E+00 0.  1.
          2    1    1    2  502    0 -0.43690662465E+02 -0.52024709258E+02  0.73736243956E+03  0.74048552426E+03  0.00000000000E+00 0.  1.
</event>
<event>
 4    1  0.8931296E+003  0.2971314E+02  0.7546771E-02  0.1422106E+00
          2   -1    0    0  501    0  0.00000000000E+00  0.00000000000E+00  0.36660267144E+02  0.36660267144E+02  0.00000000000E+00 0.  1.
          2   -1    0    0  502    0 -0.00000000000E+00 -0.00000000000E+00 -0.16322811456E+03  0.16322811456E+03  0.00000000000E+00 0.  1.
          2    1    1    2  501    0  0.28928561980E+02 -0.67830037967E+01 -0.15556121500E+03  0.15837349037E+03  0.00000000000E+00 0.  1.
          2    1    1    2  502    0 -0.28928561980E+02  0.67830037967E+01  0.28993367586E+02  0.41514891336E+02  0.00000000000E+00 0.  1.
</event>
<event>
 4    1  0.8931296E+003  0.2802542E+02  0.7546771E-02  0.1437571E+00
          2   -1    0    0  501    0  0.00000000000E+00  0.00000000000E+00  0.56724970177E+03  0.56724970177E+03  0.00000000000E+00 0. -1.
          2   -1    0    0  502    0 -0.00000000000E+00 -0.00000000000E+00 -0.24809891856E+03  0.24809891856E+03  0.00000000000E+00 0. -1.
          2    1    1    2  501    0 -0.24047709172E+02  0.14392080353E+02 -0.24695972966E+03  0.24854482969E+03  0.00000000000E+00 0. -1.
          2    1    1    2  502    0  0.24047709172E+02 -0.14392080353E+02  0.56611051287E+03  0.56680379063E+03  0.00000000000E+00 0. -1.
</event>
<event>
 4    1  0.8931296E+003  0.2805080E+02  0.7546771E-02  0.1437329E+00
          2   -1    0    0  502    0  0.00000000000E+00  0.00000000000E+00  0.17948697656E+01  0.17948697656E+01  0.00000000000E+00 0. -1.
          2   -1    0    0  501    0 -0.00000000000E+00 -0.00000000000E+00 -0.12527276349E+04  0.12527276349E+04  0.00000000000E+00 0. -1.
          2    1    1    2  501    0  0.28050542787E+02  0.12012494231E+00 -0.11973114640E+03  0.12297314666E+03  0.00000000000E+00 0. -1.
          2    1    1    2  502    0 -0.28050542787E+02 -0.12012494231E+00 -0.11312016188E+04  0.11315493581E+04  0.00000000000E+00 0. -1.
</event>
<event>
 4    1  0.8931296E+003  0.2880311E+02  0.7546771E-02  0.1430290E+00
          2   -1    0    0  501    0  0.00000000000E+00  0.00000000000E+00  0.13529643842E+01  0.13529643842E+01  0.00000000000E+00 0.  1.
          2   -1    0    0  502    0 -0.00000000000E+00 -0.00000000000E+00 -0.12218587860E+04  0.12218587860E+04  0.00000000000E+00 0.  1.
          2    1    1    2  501    0 -0.37632521579E+01  0.28556207247E+02 -0.10419240614E+04  0.10423221042E+04  0.00000000000E+00 0.  1.
          2    1    1    2  502    0  0.37632521579E+01 -0.28556207247E+02 -0.17858176019E+03  0.18088964623E+03  0.00000000000E+00 0.  1.
</event>
<event>
 4    1  0.8931296E+003  0.2794458E+02  0.7546771E-02  0.1438344E+00
          2   -1    0    0  502    0  0.00000000000E+00  0.00000000000E+00  0.10721384497E+02  0.10721384497E+02  0.00000000000E+00 0.  1.
          2   -1    0    0  501    0 -0.00000000000E+00 -0.00000000000E+00 -0.60387988453E+03  0.60387988453E+03  0.00000000000E+00 0.  1.
          2    1    1    2  501    0  0.12607177086E+02  0.24939103026E+02 -0.84061123406E+01  0.29181543799E+02  0.00000000000E+00 0.  1.
          2    1    1    2  502    0 -0.12607177086E+02 -0.24939103026E+02 -0.58475238769E+03  0.58541972522E+03  0.00000000000E+00 0.  1.
</event>
<event>
 4    1  0.8931296E+003  0.2191980E+02  0.7546771E-02  0.1506527E+00
          2   -1    0    0  502    0  0.00000000000E+00  0.00000000000E+00  0.12804337184E+04  0.12804337184E+04  0.00000000000E+00 0.  1.
          2   -1    0    0  501    0 -0.00000000000E+00 -0.00000000000E+00 -0.15145561733E+03  0.15145561733E+03  0.00000000000E+00 0. -1.
          2    1    1    2  501    0  0.15736398218E+02 -0.15259213375E+02  0.12795462567E+04  0.12797339962E+04  0.00000000000E+00 0.  1.
          2    1    1    2  502    0 -0.15736398218E+02  0.15259213375E+02 -0.15056815572E+03  0.15215533950E+03  0.00000000000E+00 0. -1.
</event>
<event>
 4    1  0.8931296E+003  0.2135617E+02  0.7546771E-02  0.1514240E+00
          2   -1    0    0  501    0  0.00000000000E+00  0.00000000000E+00  0.58985677065E+01  0.58985677065E+01  0.00000000000E+00 0. -1.
          2   -1    0    0  502    0 -0.00000000000E+00 -0.00000000000E+00 -0.22004994473E+03  0.22004994473E+03  0.00000000000E+00 0. -1.
          2    1    1    2  501    0  0.20824880785E+02 -0.47339571249E+01 -0.19806159988E+03  0.19920964675E+03  0.00000000000E+00 0. -1.
          2    1    1    2  502    0 -0.20824880785E+02  0.47339571249E+01 -0.16089777139E+02  0.26738865686E+02  0.00000000000E+00 0. -1.
</event>
<event>
 4    1  0.8931296E+003  0.2122689E+02  0.7546771E-02  0.1516050E+00
          2   -1    0    0  501    0  0.00000000000E+00  0.00000000000E+00  0.90727296585E+02  0.90727296585E+02  0.00000000000E+00 0.  1.
          2   -1    0    0  502    0 -0.00000000000E+00 -0.00000000000E+00 -0.38288924474E+02  0.38288924474E+02  0.00000000000E+00 0. -1.
          2    1    1    2  501    0 -0.84296334501E+01 -0.19481329360E+02 -0.33960123098E+02  0.40048356703E+02  0.00000000000E+00 0. -1.
          2    1    1    2  502    0  0.84296334501E+01  0.19481329360E+02  0.86398495210E+02  0.88967864357E+02  0.00000000000E+00 0.  1.
</event>
<event>
 4    1  0.8931296E+003  0.2275491E+02  0.7546771E-02  0.1495599E+00
          2   -1    0    0  501    0  0.00000000000E+00  0.00000000000E+00  0.28970840319E+02  0.28970840319E+02  0.00000000000E+00 0. -1.
          2   -1    0    0  502    0 -0.00000000000E+00 -0.00000000000E+00 -0.44605706043E+03  0.44605706043E+03  0.00000000000E+00 0. -1.
          2    1    1    2  501    0  0.63812958748E+00  0.22745955895E+02 -0.44125005202E+03  0.44183638841E+03  0.00000000000E+00 0. -1.
          2    1    1    2  502    0 -0.63812958748E+00 -0.22745955895E+02  0.24163831905E+02  0.33191512338E+02  0.00000000000E+00 0. -1.
</event>
<event>
 4    1  0.8931296E+003  0.2219765E+02  0.7546771E-02  0.1502827E+00
          2   -1    0    0  502    0  0.00000000000E+00  0.00000000000E+00  0.85762043204E+02  0.85762043204E+02  0.00000000000E+00 0.  1.
          2   -1    0    0  501    0 -0.00000000000E+00 -0.00000000000E+00 -0.15290385297E+02  0.15290385297E+02  0.00000000000E+00 0. -1.
          2    1    1    2  501    0  0.22191296766E+02 -0.53111537496E+00  0.75156292581E+02  0.78365834713E+02  0.00000000000E+00 0.  1.
          2    1    1    2  502    0 -0.22191296766E+02  0.53111537496E+00 -0.46846346741E+01  0.22686593788E+02  0.00000000000E+00 0. -1.
</event>
<event>
 4    1  0.8931296E+003  0.3923788E+02  0.7546771E-02  0.1353011E+00
          2   -1    0    0  502    0  0.00000000000E+00  0.00000000000E+00  0.92723654404E+03  0.92723654404E+03  0.00000000000E+00 0. -1.
          2   -1    0    0  501    0 -0.00000000000E+00 -0.00000000000E+00 -0.98109381959E+01  0.98109381959E+01  0.00000000000E+00 0.  1.
          2    1    1    2  501    0 -0.38308170930E+02 -0.84908983445E+01  0.88575292290E+03  0.88662159444E+03  0.00000000000E+00 0. -1.
          2    1    1    2  502    0  0.38308170930E+02  0.84908983445E+01  0.31672682952E+02  0.50425887797E+02  0.00000000000E+00 0.  1.
</event>
<event>
 4    1  0.8931296E+003  0.2030871E+02  0.7546771E-02  0.1529368E+00
          2   -1    0    0  502    0  0.00000000000E+00  0.00000000000E+00  0.24977151493E+03  0.24977151493E+03  0.00000000000E+00 0. -1.
          2   -1    0    0  501    0 -0.00000000000E+00 -0.00000000000E+00 -0.15146461324E+03  0.15146461324E+03  0.00000000000E+00 0.  1.
          2    1    1    2  501    0  0.17920765935E+02 -0.95545739452E+01  0.24867493773E+03  0.24950284245E+03  0.00000000000E+00 0. -1.
          2    1    1    2  502    0 -0.17920765935E+02  0.95545739452E+01 -0.15036803604E+03  0.15173328573E+03  0.00000000000E+00 0.  1.
</event>
<event>
 4    1  0.8931296E+003  0.2445637E+02  0.7546771E-02  0.1474978E+00
          2   -1    0    0  502    0  0.00000000000E+00  0.00000000000E+00  0.20982389543E+02  0.20982389543E+02  0.00000000000E+00 0.  1.
          2   -1    0    0  501    0 -0.00000000000E+00 -0.00000000000E+00 -0.14934828442E+03  0.14934828442E+03  0.00000000000E+00 0.  1.
          2    1    1    2  501    0  0.20705999494E+02  0.13014431498E+02  0.12424868865E+02  0.27431573206E+02  0.00000000000E+00 0.  1.
          2    1    1    2  502    0 -0.20705999494E+02 -0.13014431498E+02 -0.14079076374E+03  0.14289910076E+03  0.00000000000E+00 0.  1.
</event>
<event>
 4    1  0.8931296E+003  0.2712357E+02  0.7546771E-02  0.1446371E+00
          2   -1    0    0  501    0  0.00000000000E+00  0.00000000000E+00  0.17754384497E+03  0.17754384497E+03  0.00000000000E+00 0.  1.
          2   -1    0    0  502    0 -0.00000000000E+00 -0.00000000000E+00 -0.41947931376E+01  0.41947931376E+01  0.00000000000E+00 0.  1.
          2    1    1    2  501    0  0.70393255697E+00  0.27114438212E+02  0.76645774360E+02  0.81303523957E+02  0.00000000000E+00 0.  1.
          2    1    1    2  502    0 -0.70393255697E+00 -0.27114438212E+02  0.96703277475E+02  0.10043511415E+03  0.00000000000E+00 0.  1.
</event>
<event>
 4    1  0.8931296E+003  0.2182823E+02  0.7546771E-02  0.1507761E+00
          2   -1    0    0  502    0  0.00000000000E+00  0.00000000000E+00  0.13214385418E+03  0.13214385418E+03  0.00000000000E+00 0.  1.
          2   -1    0    0  501    0 -0.00000000000E+00 -0.00000000000E+00 -0.16005818320E+03  0.16005818320E+03  0.00000000000E+00 0. -1.
          2    1    1    2  501    0 -0.18964237473E+02  0.10808771241E+02  0.13048883722E+03  0.13230195947E+03  0.00000000000E+00 0.  1.
          2    1    1    2  502    0  0.18964237473E+02 -0.10808771241E+02 -0.15840316624E+03  0.15990007791E+03  0.00000000000E+00 0. -1.
</event>
<event>
 4    1  0.8931296E+003  0.2119051E+02  0.7546771E-02  0.1516562E+00
          2   -1    0    0  502    0  0.00000000000E+00  0.00000000000E+00  0.12377204533E+04  0.12377204533E+04  0.00000000000E+00 0. -1.
          2   -1    0    0  501    0 -0.00000000000E+00 -0.00000000000E+00 -0.10217399001E+02  0.10217399001E+02  0.00000000000E+00 0.  1.
          2    1    1    2  501    0 -0.20728396709E+02 -0.44013036751E+01  0.12265425437E+04  0.12267255803E+04  0.00000000000E+00 0. -1.
          2    1    1    2  502    0  0.20728396709E+02  0.44013036751E+01  0.96051065355E+00  0.21212272035E+02  0.00000000000E+00 0.  1.
</event>
<event>
 4    1  0.8931296E+003  0.2126568E+02  0.7546771E-02  0.1515505E+00
          2   -1    0    0  501    0  0.00000000000E+00  0.00000000000E+00  0.19251982174E+03  0.19251982174E+03  0.00000000000E+00 0.  1.
          2   -1    0    0  502    0 -0.00000000000E+00 -0.00000000000E+00 -0.32780201618E+02  0.32780201618E+02  0.00000000000E+00 0.  1.
          2    1    1    2  501    0  0.20814718376E+02  0.43562169283E+01 -0.28668980796E+02  0.35695091916E+02  0.00000000000E+00 0.  1.
          2    1    1    2  502    0 -0.20814718376E+02 -0.43562169283E+01  0.18840860091E+03  0.18960493144E+03  0.00000000000E+00 0.  1.
</event>
<event>
 4    1  0.8931296E+003  0.3740384E+02  0.7546771E-02  0.1364410E+00
          2   -1    0    0  501    0  0.00000000000E+00  0.00000000000E+00  0.63079777386E+02  0.63079777386E+02  0.00000000000E+00 0.  1.
          2   -1    0    0  502    0 -0.00000000000E+00 -0.00000000000E+00 -0.45063443526E+03  0.45063443526E+03  0.00000000000E+00 0.  1.
          2    1    1    2  501    0 -0.22666875677E+02  0.29753317356E+02 -0.44423377867E+03  0.44580567208E+03  0.00000000000E+00 0.  1.
          2    1    1    2  502    0  0.22666875677E+02 -0.29753317356E+02  0.56679120800E+02  0.67908540562E+02  0.00000000000E+00 0.  1.
</event>
<event>
 4    1  0.8931296E+003  0.2551710E+02  0.7546771E-02  0.1463101E+00
          2   -1    0    0  502    0  0.00000000000E+00  0.00000000000E+00  0.21029413794E+03  0.21029413794E+03  0.00000000000E+00 0. -1.
          2   -1    0    0  501    0 -0.00000000000E+00 -0.00000000000E+00 -0.66142582440E+02  0.66142582440E+02  0.00000000000E+00 0.  1.
          2    1    1    2  501    0 -0.15994192457E+02 -0.19882353934E+02  0.20702024819E+03  0.20858692517E+03  0.00000000000E+00 0. -1.
          2    1    1    2  502    0  0.15994192457E+02  0.19882353934E+02 -0.62868692688E+02  0.67849795214E+02  0.00000000000E+00 0.  1.
</event>
<event>
 4    1  0.8931296E+003  0.2057315E+02  0.7546771E-02  0.1525447E+00
          2   -1    0    0  501    0  0.00000000000E+00  0.00000000000E+00  0.54559975065E+02  0.54559975065E+02  0.00000000000E+00 0. -1.
          2   -1    0    0  502    0 -0.00000000000E+00 -0.00000000000E+00 -0.21537869807E+03  0.21537869807E+03  0.00000000000E+00 0. -1.
          2    1    1    2  501    0  0.20552176736E+02  0.92870407551E+00 -0.21292571639E+03  0.21391730917E+03  0.00000000000E+00 0. -1.
          2    1    1    2  502    0 -0.20552176736E+02 -0.92870407551E+00  0.52106993393E+02  0.56021363963E+02  0.00000000000E+00 0. -1.
</event>
<event>
 4    1  0.8931296E+003  0.2242043E+02  0.7546771E-02  0.1499907E+00
          2   -1    0    0  501    0  0.00000000000E+00  0.00000000000E+00  0.16449360559E+03  0.16449360559E+03  0.00000000000E+00 0. -1.
          2   -1    0    0  502    0 -0.00000000000E+00 -0.00000000000E+00 -0.88096735737E+01  0.88096735737E+01  0.00000000000E+00 0.  1.
          2    1    1    2  501    0 -0.22368171284E+02  0.15299104508E+01  0.78137072219E+01  0.23742993348E+02  0.00000000000E+00 0.  1.
          2    1    1    2  502    0  0.22368171284E+02 -0.15299104508E+01  0.14787022479E+03  0.14956028581E+03  0.00000000000E+00 0. -1.
</event>
<event>
 4    1  0.8931296E+003  0.3922029E+02  0.7546771E-02  0.1353116E+00
          2   -1    0    0  502    0  0.00000000000E+00  0.00000000000E+00  0.10805013077E+03  0.10805013077E+03  0.00000000000E+00 0. -1.
          2   -1    0    0  501    0 -0.00000000000E+00 -0.00000000000E+00 -0.34509364047E+02  0.34509364047E+02  0.00000000000E+00 0.  1.
          2    1    1    2  501    0  0.13818342859E+02  0.36705373604E+02  0.91403713087E+02  0.99462906738E+02  0.00000000000E+00 0. -1.
          2    1    1    2  502    0 -0.13818342859E+02 -0.36705373604E+02 -0.17862946367E+02  0.43096588075E+02  0.00000000000E+00 0.  1.
</event>
<event>
 4    1  0.8931296E+003  0.2069554E+02  0.7546771E-02  0.1523656E+00
          2   -1    0    0  501    0  0.00000000000E+00  0.00000000000E+00  0.24784891158E+00  0.24784891158E+00  0.00000000000E+00 0.  1.
          2   -1    0    0  502    0 -0.00000000000E+00 -0.00000000000E+00 -0.17292627252E+04  0.17292627252E+04  0.00000000000E+00 0.  1.
          2    1    1    2  501    0 -0.11261035262E+02 -0.17363600246E+02 -0.84199957046E+03  0.84225387038E+03  0.00000000000E+00 0.  1.
          2    1    1    2  502    0  0.11261035262E+02  0.17363600246E+02 -0.88701530587E+03  0.88725670376E+03  0.00000000000E+00 0.  1.
</event>
<event>
 4    1  0.8931296E+003  0.2265926E+02  0.7546771E-02  0.1496822E+00
          2   -1    0    0  502    0  0.00000000000E+00  0.00000000000E+00  0.44109481162E+03  0.44109481162E+03  0.00000000000E+00 0.  1.
          2   -1    0    0  501    0 -0.00000000000E+00 -0.00000000000E+00 -0.31208164724E+01  0.31208164724E+01  0.00000000000E+00 0.  1.
          2    1    1    2  501    0 -0.22516165296E+02 -0.25424915332E+01  0.39486149051E+03  0.39551111065E+03  0.00000000000E+00 0.  1.
          2    1    1    2  502    0  0.22516165296E+02  0.25424915332E+01  0.43112504641E+02  0.48704517442E+02  0.00000000000E+00 0.  1.
</event>
<event>
 4    1  0.8931296E+003  0.5574190E+02  0.7546771E-02  0.1275029E+00
          2   -1    0    0  502    0  0.00000000000E+00  0.00000000000E+00  0.17127868960E+03  0.17127868960E+03  0.00000000000E+00 0.  1.
          2   -1    0    0  501    0 -0.00000000000E+00 -0.00000000000E+00 -0.66844196904E+03  0.66844196904E+03  0.00000000000E+00 0. -1.
          2    1    1    2  501    0  0.46291255091E+02 -0.31052839527E+02  0.16554217177E+03  0.17467504050E+03  0.00000000000E+00 0.  1.
          2    1    1    2  502    0 -0.46291255091E+02  0.31052839527E+02 -0.66270545120E+03  0.66504561813E+03  0.00000000000E+00 0. -1.
</event>
<event>
 4    1  0.8931296E+003  0.2064824E+02  0.7546771E-02  0.1524347E+00
          2   -1    0    0  501    0  0.00000000000E+00  0.00000000000E+00  0.75200341279E+02  0.75200341279E+02  0.00000000000E+00 0.  1.
          2   -1    0    0  502    0 -0.00000000000E+00 -0.00000000000E+00 -0.11349764693E+03  0.11349764693E+03  0.00000000000E+00 0.  1.
          2    1    1    2  501    0 -0.18441956615E+02  0.92867737183E+01 -0.11111096323E+03  0.11301325621E+03  0.00000000000E+00 0.  1.
          2    1    1    2  502    0  0.18441956615E+02 -0.92867737183E+01  0.72813657570E+02  0.75684732004E+02  0.00000000000E+00 0.  1.
</event>
<event>
 4    1  0.8931296E+003  0.3055292E+02  0.7546771E-02  0.1414851E+00
          2   -1    0    0  502    0  0.00000000000E+00  0.00000000000E+00  0.12829170669E+01  0.12829170669E+01  0.00000000000E+00 0.  1.
          2   -1    0    0  501    0 -0.00000000000E+00 -0.00000000000E+00 -0.15023403782E+04  0.15023403782E+04  0.00000000000E+00 0. -1.
          2    1    1    2  501    0  0.30075550955E+02  0.53797750112E+01 -0.21064982525E+03  0.21285401011E+03  0.00000000000E+00 0.  1.
          2    1    1    2  502    0 -0.30075550955E+02 -0.53797750112E+01 -0.12904076359E+04  0.12907692851E+04  0.00000000000E+00 0. -1.
</event>
<event>
 4    1  0.8931296E+003  0.2388418E+02  0.7546771E-02  0.1481684E+00
          2   -1    0    0  502    0  0.00000000000E+00  0.00000000000E+00  0.83130593229E+01  0.83130593229E+01  0.00000000000E+00 0. -1.
          2   -1    0    0  501    0 -0.00000000000E+00 -0.00000000000E+00 -0.75725658255E+02  0.75725658255E+02  0.00000000000E+00 0.  1.
          2    1    1    2  501    0 -0.19325890403E+02 -0.14034392341E+02 -0.20836089040E+02  0.31695375289E+02  0.00000000000E+00 0. -1.
          2    1    1    2  502    0  0.19325890403E+02  0.14034392341E+02 -0.46576509892E+02  0.52343342288E+02  0.00000000000E+00 0.  1.
</event>
<event>
 4    1  0.8931296E+003  0.2259920E+02  0.7546771E-02  0.1497593E+00
          2   -1    0    0  502    0  0.00000000000E+00  0.00000000000E+00  0.51446207100E+02  0.51446207100E+02  0.00000000000E+00 0. -1.
          2   -1    0    0  501    0 -0.00000000000E+00 -0.00000000000E+00 -0.12040862400E+02  0.12040862400E+02  0.00000000000E+00 0. -1.
          2    1    1    2  501    0 -0.22066824559E+02  0.48763653502E+01  0.33002025673E+02  0.39998217256E+02  0.00000000000E+00 0. -1.
          2    1    1    2  502    0  0.22066824559E+02 -0.48763653502E+01  0.64033190271E+01  0.23488852243E+02  0.00000000000E+00 0. -1.
</event>
<event>
 4    1  0.8931296E+003  0.2126279E+02  0.7546771E-02  0.1515546E+00
          2   -1    0    0  501    0  0.00000000000E+00  0.00000000000E+00  0.45436431880E+02  0.45436431880E+02  0.00000000000E+00 0.  1.
          2   -1    0    0  502    0 -0.00000000000E+00 -0.00000000000E+00 -0.60822794527E+03  0.60822794527E+03  0.00000000000E+00 0.  1.
          2    1    1    2  501    0  0.84417178671E+01 -0.19515216027E+02 -0.60554351602E+03  0.60591670719E+03  0.00000000000E+00 0.  1.
          2    1    1    2  502    0 -0.84417178671E+01  0.19515216027E+02  0.42752002634E+02  0.47747669957E+02  0.00000000000E+00 0.  1.
</event>
<event>
 4    1  0.8931296E+003  0.2691700E+02  0.7546771E-02  0.1448444E+00
          2   -1    0    0  502    0  0.00000000000E+00  0.00000000000E+00  0.96701105861E+02  0.96701105861E+02  0.00000000000E+00 0.  1.
          2   -1    0    0  501    0 -0.00000000000E+00 -0.00000000000E+00 -0.22548634610E+03  0.22548634610E+03  0.00000000000E+00 0.  1.
          2    1    1    2  501    0  0.20913409077E+02  0.16945632652E+02  0.94002099741E+02  0.97779956540E+02  0.00000000000E+00 0.  1.
          2    1    1    2  502    0 -0.20913409077E+02 -0.16945632652E+02 -0.22278733998E+03  0.22440749542E+03  0.00000000000E+00 0.  1.
</event>
<event>
 4    1  0.8931296E+003  0.2952892E+02  0.7546771E-02  0.1423735E+00
          2   -1    0    0  502    0  0.00000000000E+00  0.00000000000E+00  0.29617338217E+03  0.29617338217E+03  0.00000000000E+00 0.  1.
          2   -1    0    0  501    0 -0.00000000000E+00 -0.00000000000E+00 -0.11589860019E+02  0.11589860019E+02  0.00000000000E+00 0. -1.
          2    1    1    2  501    0 -0.23647396603E+02  0.17684962990E+02  0.27519936241E+03  0.27677905693E+03  0.00000000000E+00 0.  1.
          2    1    1    2  502    0  0.23647396603E+02 -0.17684962990E+02  0.93841597335E+01  0.30984185255E+02  0.00000000000E+00 0. -1.
</event>
<event>
 4    1  0.8931296E+003  0.2129809E+02  0.7546771E-02  0.1515051E+00
          2   -1    0    0  502    0  0.00000000000E+00  0.00000000000E+00  0.30972480777E+03  0.30972480777E+03  0.00000000000E+00 0.  1.
          2   -1    0    0  501    0 -0.00000000000E+00 -0.00000000000E+00 -0.56333036565E+03  0.56333036565E+03  0.00000000000E+00 0. -1.
          2    1    1    2  501    0 -0.18804105514E+02  0.10000704318E+02  0.30915699357E+03  0.30988974676E+03  0.00000000000E+00 0.  1.
          2    1    1    2  502    0  0.18804105514E+02 -0.10000704318E+02 -0.56276255145E+03  0.56316542666E+03  0.00000000000E+00 0. -1.
</event>
<event>
 4    1  0.8931296E+003  0.3901604E+02  0.7546771E-02  0.1354350E+00
          2   -1    0    0  502    0  0.00000000000E+00  0.00000000000E+00  0.18511222171E+04  0.18511222171E+04  0.00000000000E+00 0.  1.
          2   -1    0    0  501    0 -0.00000000000E+00 -0.00000000000E+00 -0.68165449682E+01  0.68165449682E+01  0.00000000000E+00 0. -1.
          2    1    1    2  501    0  0.32820739479E+01  0.38877746732E+02  0.17932870179E+04  0.17937113981E+04  0.00000000000E+00 0.  1.
          2    1    1    2  502    0 -0.32820739479E+01 -0.38877746732E+02  0.51018654272E+02  0.64227363982E+02  0.00000000000E+00 0. -1.
</event>
<event>
 4    1  0.8931296E+003  0.2792215E+02  0.7546771E-02  0.1438559E+00
          2   -1    0    0  502    0  0.00000000000E+00  0.00000000000E+00  0.74340258803E+02  0.74340258803E+02  0.00000000000E+00 0.  1.
          2   -1    0    0  501    0 -0.00000000000E+00 -0.00000000000E+00 -0.12831898396E+02  0.12831898396E+02  0.00000000000E+00 0. -1.
          2    1    1    2  501    0 -0.26234935594E+02  0.95590097787E+01  0.49384240049E+02  0.56731381781E+02  0.00000000000E+00 0.  1.
          2    1    1    2  502    0  0.26234935594E+02 -0.95590097787E+01  0.12124120359E+02  0.30440775418E+02  0.00000000000E+00 0. -1.
</event>
<event>
 4    1  0.8931296E+003  0.2667426E+02  0.7546771E-02  0.1450908E+00
          2   -1    0    0  501    0  0.00000000000E+00  0.00000000000E+00  0.84425191517E+03  0.84425191517E+03  0.00000000000E+00 0. -1.
          2   -1    0    0  502    0 -0.00000000000E+00 -0.00000000000E+00 -0.76125391332E+01  0.76125391332E+01  0.00000000000E+00 0.  1.
          2    1    1    2  501    0 -0.25821555093E+02 -0.66905683782E+01  0.16656135824E+02  0.31447468471E+02  0.00000000000E+00 0.  1.
          2    1    1    2  502    0  0.25821555093E+02  0.66905683782E+01  0.81998324022E+03  0.82041698584E+03  0.00000000000E+00 0. -1.
</event>
<event>
 4    1  0.8931296E+003  0.2945093E+02  0.7546771E-02  0.1424429E+00
          2   -1    0    0  501    0  0.00000000000E+00  0.00000000000E+00  0.89080210452E+02  0.89080210452E+02  0.00000000000E+00 0.  1.
          2   -1    0    0  502    0 -0.00000000000E+00 -0.00000000000E+00 -0.23340048447E+02  0.23340048447E+02  0.00000000000E+00 0. -1.
          2    1    1    2  501    0 -0.27750233407E+02 -0.98631440753E+01 -0.10042522862E+02  0.31116062261E+02  0.00000000000E+00 0. -1.
          2    1    1    2  502    0  0.27750233407E+02  0.98631440753E+01  0.75782684868E+02  0.81304196638E+02  0.00000000000E+00 0.  1.
</event>
<event>
 4    1  0.8931296E+003  0.2116842E+02  0.7546771E-02  0.1516874E+00
          2   -1    0    0  501    0  0.00000000000E+00  0.00000000000E+00  0.22886157989E+02  0.22886157989E+02  0.00000000000E+00 0.  1.
          2   -1    0    0  502    0 -0.00000000000E+00 -0.00000000000E+00 -0.77639450724E+02  0.77639450724E+02  0.00000000000E+00 0.  1.
          2    1    1    2  501    0 -0.13149764588E+01  0.21127538020E+02 -0.70842019521E+02  0.73937093233E+02  0.00000000000E+00 0.  1.
          2    1    1    2  502    0  0.13149764588E+01 -0.21127538020E+02  0.16088726786E+02  0.26588515481E+02  0.00000000000E+00 0.  1.
</event>
<event>
 4    1  0.8931296E+003  0.2462407E+02  0.7546771E-02  0.1473053E+00
          2   -1    0    0  502    0  0.00000000000E+00  0.00000000000E+00  0.21695716218E+02  0.21695716218E+02  0.00000000000E+00 0.  1.
          2   -1    0    0  501    0 -0.00000000000E+00 -0.00000000000E+00 -0.72530562165E+02  0.72530562165E+02  0.00000000000E+00 0.  1.
          2    1    1    2  501    0 -0.10857520299E+01  0.24600116556E+02  0.11519921380E+02  0.27185532561E+02  0.00000000000E+00 0.  1.
          2    1    1    2  502    0  0.10857520299E+01 -0.24600116556E+02 -0.62354767327E+02  0.67040745823E+02  0.00000000000E+00 0.  1.
</event>
<event>
 4    1  0.8931296E+003  0.4181996E+02  0.7546771E-02  0.1338139E+00
          2   -1    0    0  502    0  0.00000000000E+00  0.00000000000E+00  0.31128874148E+01  0.31128874148E+01  0.00000000000E+00 0. -1.
          2   -1    0    0  501    0 -0.00000000000E+00 -0.00000000000E+00 -0.25109837351E+04  0.25109837351E+04  0.00000000000E+00 0. -1.
          2    1    1    2  501    0 -0.23529951985E+02 -0.34572393529E+02 -0.14641121640E+03  0.15226671771E+03  0.00000000000E+00 0. -1.
          2    1    1    2  502    0  0.23529951985E+02  0.34572393529E+02 -0.23614596313E+04  0.23618299048E+04  0.00000000000E+00 0. -1.
</event>
<event>
 4    1  0.8931296E+003  0.4246543E+02  0.7546771E-02  0.1334614E+00
          2   -1    0    0  502    0  0.00000000000E+00  0.00000000000E+00  0.52849462334E+02  0.52849462334E+02  0.00000000000E+00 0. -1.
          2   -1    0    0  501    0 -0.00000000000E+00 -0.00000000000E+00 -0.47390029056E+03  0.47390029056E+03  0.00000000000E+00 0. -1.
          2    1    1    2  501    0 -0.54001821850E+01 -0.42120666137E+02  0.43190616605E+02  0.60570139889E+02  0.00000000000E+00 0. -1.
          2    1    1    2  502    0  0.54001821850E+01  0.42120666137E+02 -0.46424144483E+03  0.46617961301E+03  0.00000000000E+00 0. -1.
</event>
<event>
 4    1  0.8931296E+003  0.3024043E+02  0.7546771E-02  0.1417518E+00
          2   -1    0    0  502    0  0.00000000000E+00  0.00000000000E+00  0.33502431679E+01  0.33502431679E+01  0.00000000000E+00 0. -1.
          2   -1    0    0  501    0 -0.00000000000E+00 -0.00000000000E+00 -0.45910482288E+03  0.45910482288E+03  0.00000000000E+00 0.  1.
          2    1    1    2  501    0  0.86894487330E+01 -0.28965096505E+02 -0.80643068140E+02  0.86126579950E+02  0.00000000000E+00 0. -1.
          2    1    1    2  502    0 -0.86894487330E+01  0.28965096505E+02 -0.37511151157E+03  0.37632848609E+03  0.00000000000E+00 0.  1.
</event>
<event>
 4    1  0.8931296E+003  0.2690087E+02  0.7546771E-02  0.1448606E+00
          2   -1    0    0  502    0  0.00000000000E+00  0.00000000000E+00  0.15109523256E+04  0.15109523256E+04  0.00000000000E+00 0. -1.
          2   -1    0    0  501    0 -0.00000000000E+00 -0.00000000000E+00 -0.21828120175E+02  0.21828120175E+02  0.00000000000E+00 0. -1.
          2    1    1    2  501    0  0.11426690077E+02  0.24353390880E+02  0.15024978306E+04  0.15027386293E+04  0.00000000000E+00 0. -1.
          2    1    1    2  502    0 -0.11426690077E+02 -0.24353390880E+02 -0.13373625129E+02  0.30041816566E+02  0.00000000000E+00 0. -1.
</event>
<event>
 4    1  0.8931296E+003  0.2443195E+02  0.7546771E-02  0.1475259E+00
          2   -1    0    0  501    0  0.00000000000E+00  0.00000000000E+00  0.17213579792E+04  0.17213579792E+04  0.00000000000E+00 0. -1.
          2   -1    0    0  502    0 -0.00000000000E+00 -0.00000000000E+00 -0.64802197598E+00  0.64802197598E+00  0.00000000000E+00 0. -1.
          2    1    1    2  501    0  0.54914498607E+01  0.23806811163E+02  0.27330825620E+03  0.27439811075E+03  0.00000000000E+00 0. -1.
          2    1    1    2  502    0 -0.54914498607E+01 -0.23806811163E+02  0.14474017010E+04  0.14476078904E+04  0.00000000000E+00 0. -1.
</event>
<event>
 4    1  0.8931296E+003  0.2056869E+02  0.7546771E-02  0.1525513E+00
          2   -1    0    0  502    0  0.00000000000E+00  0.00000000000E+00  0.74069322131E+01  0.74069322131E+01  0.00000000000E+00 0.  1.
          2   -1    0    0  501    0 -0.00000000000E+00 -0.00000000000E+00 -0.64483921550E+02  0.64483921550E+02  0.00000000000E+00 0.  1.
          2    1    1    2  501    0  0.17140942938E+02  0.11369221690E+02 -0.16389967789E+02  0.26300231382E+02  0.00000000000E+00 0.  1.
          2    1    1    2  502    0 -0.17140942938E+02 -0.11369221690E+02 -0.40687021548E+02  0.45590622381E+02  0.00000000000E+00 0.  1.
</event>
<event>
 4    1  0.8931296E+003  0.2203932E+02  0.7546771E-02  0.1504927E+00
          2   -1    0    0  502    0  0.00000000000E+00  0.00000000000E+00  0.67057058051E+01  0.67057058051E+01  0.00000000000E+00 0.  1.
          2   -1    0    0  501    0 -0.00000000000E+00 -0.00000000000E+00 -0.43577115204E+03  0.43577115204E+03  0.00000000000E+00 0. -1.
          2    1    1    2  501    0  0.12721376054E+02  0.17997171121E+02 -0.12516942039E+02  0.25345717885E+02  0.00000000000E+00 0.  1.
          2    1    1    2  502    0 -0.12721376054E+02 -0.17997171121E+02 -0.41654850419E+03  0.41713113996E+03  0.00000000000E+00 0. -1.
</event>
<event>
 4    1  0.8931296E+003  0.2479794E+02  0.7546771E-02  0.1471077E+00
          2   -1    0    0  502    0  0.00000000000E+00  0.00000000000E+00  0.12252321145E+04  0.12252321145E+04  0.00000000000E+00 0.  1.
          2   -1    0    0  501    0 -0.00000000000E+00 -0.00000000000E+00 -0.63118437782E+01  0.63118437782E+01  0.00000000000E+00 0.  1.
          2    1    1    2  501    0  0.77504621740E+01  0.23555642519E+02  0.12002430823E+04  0.12004992273E+04  0.00000000000E+00 0.  1.
          2    1    1    2  502    0 -0.77504621740E+01 -0.23555642519E+02  0.18677188403E+02  0.31044731035E+02  0.00000000000E+00 0.  1.
</event>
<event>
 4    1  0.8931296E+003  0.3865248E+02  0.7546771E-02  0.1356568E+00
          2   -1    0    0  501    0  0.00000000000E+00  0.00000000000E+00  0.32618809479E+02  0.32618809479E+02  0.00000000000E+00 0. -1.
          2   -1    0    0  502    0 -0.00000000000E+00 -0.00000000000E+00 -0.33353819612E+03  0.33353819612E+03  0.00000000000E+00 0.  1.
          2    1    1    2  501    0  0.34880160741E+02  0.16654983115E+02 -0.32050382271E+03  0.32282613656E+03  0.00000000000E+00 0.  1.
          2    1    1    2  502    0 -0.34880160741E+02 -0.16654983115E+02  0.19584436065E+02  0.43330869041E+02  0.00000000000E+00 0. -1.
</event>
<event>
 4    1  0.8931296E+003  0.2093887E+02  0.7546771E-02  0.1520139E+00
          2   -1    0    0  502    0  0.00000000000E+00  0.00000000000E+00  0.36864013929E+01  0.36864013929E+01  0.00000000000E+00 0.  1.
          2   -1    0    0  501    0 -0.00000000000E+00 -0.00000000000E+00 -0.34977768772E+03  0.34977768772E+03  0.00000000000E+00 0.  1.
          2    1    1    2  501    0  0.85208438345E+01  0.19126718837E+02 -0.29470637617E+02  0.36151827543E+02  0.00000000000E+00 0.  1.
          2    1    1    2  502    0 -0.85208438345E+01 -0.19126718837E+02 -0.31662064871E+03  0.31731226157E+03  0.00000000000E+00 0.  1.
</event>
<event>
 4    1  0.8931296E+003  0.2048657E+02  0.7546771E-02  0.1526723E+00
          2   -1    0    0  501    0  0.00000000000E+00  0.00000000000E+00  0.14363180407E+04  0.14363180407E+04  0.00000000000E+00 0.  1.
          2   -1    0    0  502    0 -0.00000000000E+00 -0.00000000000E+00 -0.80812338149E+03  0.80812338149E+03  0.00000000000E+00 0. -1.
          2    1    1    2  501    0  0.14096560362E+02  0.14865618853E+02 -0.80792047410E+03  0.80818017305E+03  0.00000000000E+00 0. -1.
          2    1    1    2  502    0 -0.14096560362E+02 -0.14865618853E+02  0.14361151333E+04  0.14362612492E+04  0.00000000000E+00 0.  1.
</event>
<event>
 4    1  0.8931296E+003  0.2578616E+02  0.7546771E-02  0.1460198E+00
          2   -1    0    0  501    0  0.00000000000E+00  0.00000000000E+00  0.11702244208E+03  0.11702244208E+03  0.00000000000E+00 0. -1.
          2   -1    0    0  502    0 -0.00000000000E+00 -0.00000000000E+00 -0.53994685558E+02  0.53994685558E+02  0.00000000000E+00 0. -1.
          2    1    1    2  501    0  0.25629475625E+02 -0.28383562912E+01 -0.49370473715E+02  0.55698922450E+02  0.00000000000E+00 0. -1.
          2    1    1    2  502    0 -0.25629475625E+02  0.28383562912E+01  0.11239823024E+03  0.11531820519E+03  0.00000000000E+00 0. -1.
</event>
<event>
 4    1  0.8931296E+003  0.2546384E+02  0.7546771E-02  0.1463681E+00
          2   -1    0    0  501    0  0.00000000000E+00  0.00000000000E+00  0.93411403665E+03  0.93411403665E+03  0.00000000000E+00 0. -1.
          2   -1    0    0  502    0 -0.00000000000E+00 -0.00000000000E+00 -0.24335261427E+02  0.24335261427E+02  0.00000000000E+00 0. -1.
          2    1    1    2  501    0  0.15795862437E+02 -0.19972430479E+02 -0.17451089208E+02  0.30869852023E+02  0.00000000000E+00 0. -1.
          2    1    1    2  502    0 -0.15795862437E+02  0.19972430479E+02  0.92722986443E+03  0.92757944605E+03  0.00000000000E+00 0. -1.
</event>
<event>
 4    1  0.1398057E+004  0.2325993E+02  0.7546771E-02  0.1489260E+00
          2   -1    0    0  501    0  0.00000000000E+00  0.00000000000E+00  0.49263688196E+03  0.49263688196E+03  0.00000000000E+00 0. -1.
          2   -1    0    0  502    0 -0.00000000000E+00 -0.00000000000E+00 -0.10462831178E+04  0.10462831178E+04  0.00000000000E+00 0. -1.
          2    1    1    2  501    0 -0.21163619579E+02  0.96501505994E+01 -0.10458791836E+04  0.10461377973E+04  0.00000000000E+00 0. -1.
          2    1    1    2  502    0  0.21163619579E+02 -0.96501505994E+01  0.49223294777E+03  0.49278220247E+03  0.00000000000E+00 0. -1.
</event>
<event>
 4    1  0.8931296E+003  0.2388109E+02  0.7546771E-02  0.1481721E+00
          2   -1    0    0  501    0  0.00000000000E+00  0.00000000000E+00  0.25106611254E+03  0.25106611254E+03  0.00000000000E+00 0.  1.
          2   -1    0    0  502    0 -0.00000000000E+00 -0.00000000000E+00 -0.16895910175E+04  0.16895910175E+04  0.00000000000E+00 0. -1.
          2    1    1    2  501    0 -0.71333843467E+01 -0.22790820142E+02 -0.16889385279E+04  0.16891073553E+04  0.00000000000E+00 0. -1.
          2    1    1    2  502    0  0.71333843467E+01  0.22790820142E+02  0.25041362291E+03  0.25154977478E+03  0.00000000000E+00 0.  1.
</event>
<event>
 4    1  0.8931296E+003  0.2058779E+02  0.7546771E-02  0.1525232E+00
          2   -1    0    0  501    0  0.00000000000E+00  0.00000000000E+00  0.28961075310E+03  0.28961075310E+03  0.00000000000E+00 0.  1.
          2   -1    0    0  502    0 -0.00000000000E+00 -0.00000000000E+00 -0.20747985814E+02  0.20747985814E+02  0.00000000000E+00 0.  1.
          2    1    1    2  501    0  0.13979975884E+02 -0.15113487520E+02 -0.15174812599E+02  0.25576007666E+02  0.00000000000E+00 0.  1.
          2    1    1    2  502    0 -0.13979975884E+02  0.15113487520E+02  0.28403757989E+03  0.28478273125E+03  0.00000000000E+00 0.  1.
</event>
<event>
 4    1  0.8931296E+003  0.2137688E+02  0.7546771E-02  0.1513951E+00
          2   -1    0    0  501    0  0.00000000000E+00  0.00000000000E+00  0.88806036520E+02  0.88806036520E+02  0.00000000000E+00 0. -1.
          2   -1    0    0  502    0 -0.00000000000E+00 -0.00000000000E+00 -0.75505853649E+01  0.75505853649E+01  0.00000000000E+00 0.  1.
          2    1    1    2  501    0  0.67199974714E+01 -0.20293169069E+02  0.13437891139E+02  0.25249712773E+02  0.00000000000E+00 0.  1.
          2    1    1    2  502    0 -0.67199974714E+01  0.20293169069E+02  0.67817560016E+02  0.71106909111E+02  0.00000000000E+00 0. -1.
</event>
<event>
 4    1  0.8931296E+003  0.4011398E+02  0.7546771E-02  0.1347819E+00
          2   -1    0    0  502    0  0.00000000000E+00  0.00000000000E+00  0.64127703376E+03  0.64127703376E+03  0.00000000000E+00 0. -1.
          2   -1    0    0  501    0 -0.00000000000E+00 -0.00000000000E+00 -0.47249558075E+02  0.47249558075E+02  0.00000000000E+00 0.  1.
          2    1    1    2  501    0 -0.37621195936E+02 -0.13920384049E+02  0.63201101598E+03  0.63328276133E+03  0.00000000000E+00 0. -1.
          2    1    1    2  502    0  0.37621195936E+02  0.13920384049E+02 -0.37983540295E+02  0.55243830507E+02  0.00000000000E+00 0.  1.
</event>
<event>
 4    1  0.8931296E+003  0.2412777E+02  0.7546771E-02  0.1478802E+00
          2   -1    0    0  502    0  0.00000000000E+00  0.00000000000E+00  0.11359218663E+04  0.11359218663E+04  0.00000000000E+00 0. -1.
          2   -1    0    0  501    0 -0.00000000000E+00 -0.00000000000E+00 -0.13694534193E+03  0.13694534193E+03  0.00000000000E+00 0. -1.
          2    1    1    2  501    0 -0.22130010787E+02 -0.96131036167E+01  0.11347298875E+04  0.11349863729E+04  0.00000000000E+00 0. -1.
          2    1    1    2  502    0  0.22130010787E+02  0.96131036167E+01 -0.13575336314E+03  0.13788083529E+03  0.00000000000E+00 0. -1.
</event>
<event>
 4    1  0.8931296E+003  0.2734881E+02  0.7546771E-02  0.1444135E+00
          2   -1    0    0  501    0  0.00000000000E+00  0.00000000000E+00  0.19389251512E+04  0.19389251512E+04  0.00000000000E+00 0.  1.
          2   -1    0    0  502    0 -0.00000000000E+00 -0.00000000000E+00 -0.77702350743E+00  0.77702350743E+00  0.00000000000E+00 0.  1.
          2    1    1    2  501    0 -0.21825883332E+02 -0.16479941753E+02  0.28086046165E+03  0.28218886687E+03  0.00000000000E+00 0.  1.
          2    1    1    2  502    0  0.21825883332E+02  0.16479941753E+02  0.16572876660E+04  0.16575133078E+04  0.00000000000E+00 0.  1.
</event>
<event>
 4    1  0.8931296E+003  0.2044394E+02  0.7546771E-02  0.1527354E+00
          2   -1    0    0  501    0  0.00000000000E+00  0.00000000000E+00  0.49561429400E+00  0.49561429400E+00  0.00000000000E+00 0. -1.
          2   -1    0    0  502    0 -0.00000000000E+00 -0.00000000000E+00 -0.85752193158E+03  0.85752193158E+03  0.00000000000E+00 0.  1.
          2    1    1    2  501    0  0.16355248099E+02 -0.12266229933E+02 -0.37327612936E+03  0.37383555648E+03  0.00000000000E+00 0. -1.
          2    1    1    2  502    0 -0.16355248099E+02  0.12266229933E+02 -0.48375018793E+03  0.48418198940E+03  0.00000000000E+00 0.  1.
</event>
<event>
 4    1  0.8931296E+003  0.2186174E+02  0.7546771E-02  0.1507308E+00
          2   -1    0    0  502    0  0.00000000000E+00  0.00000000000E+00  0.29915858639E+03  0.29915858639E+03  0.00000000000E+00 0. -1.
          2   -1    0    0  501    0 -0.00000000000E+00 -0.00000000000E+00 -0.10533090577E+03  0.10533090577E+03  0.00000000000E+00 0. -1.
          2    1    1    2  501    0  0.62666043766E+01  0.20944334081E+02  0.29761895965E+03  0.29842081128E+03  0.00000000000E+00 0. -1.
          2    1    1    2  502    0 -0.62666043766E+01 -0.20944334081E+02 -0.10379127903E+03  0.10606868088E+03  0.00000000000E+00 0. -1.
</event>
<event>
 4    1  0.8931296E+003  0.3011250E+02  0.7546771E-02  0.1418621E+00
          2   -1    0    0  502    0  0.00000000000E+00  0.00000000000E+00  0.76837732773E+00  0.76837732773E+00  0.00000000000E+00 0. -1.
          2   -1    0    0  501    0 -0.00000000000E+00 -0.00000000000E+00 -0.15199701768E+04  0.15199701768E+04  0.00000000000E+00 0. -1.
          2    1    1    2  501    0 -0.28077172427E+02  0.10882797969E+02 -0.40004793400E+03  0.40117965103E+03  0.00000000000E+00 0. -1.
          2    1    1    2  502    0  0.28077172427E+02 -0.10882797969E+02 -0.11191538654E+04  0.11195589031E+04  0.00000000000E+00 0. -1.
</event>
<event>
 4    1  0.8931296E+003  0.2172343E+02  0.7546771E-02  0.1509182E+00
          2   -1    0    0  501    0  0.00000000000E+00  0.00000000000E+00  0.17300262644E+03  0.17300262644E+03  0.00000000000E+00 0.  1.
          2   -1    0    0  502    0 -0.00000000000E+00 -0.00000000000E+00 -0.11617320338E+02  0.11617320338E+02  0.00000000000E+00 0.  1.
          2    1    1    2  501    0  0.20198751801E+02 -0.79948705884E+01 -0.56148038707E-01  0.21723505303E+02  0.00000000000E+00 0.  1.
          2    1    1    2  502    0 -0.20198751801E+02  0.79948705884E+01  0.16144145414E+03  0.16289644147E+03  0.00000000000E+00 0.  1.
</event>
<event>
 4    1  0.8931296E+003  0.2184628E+02  0.7546771E-02  0.1507517E+00
          2   -1    0    0  502    0  0.00000000000E+00  0.00000000000E+00  0.87984461819E+03  0.87984461819E+03  0.00000000000E+00 0.  1.
          2   -1    0    0  501    0 -0.00000000000E+00 -0.00000000000E+00 -0.33758476212E+01  0.33758476212E+01  0.00000000000E+00 0. -1.
          2    1    1    2  501    0 -0.86049389429E+01  0.20080210785E+02  0.84281261275E+03  0.84309570041E+03  0.00000000000E+00 0.  1.
          2    1    1    2  502    0  0.86049389429E+01 -0.20080210785E+02  0.33656157818E+02  0.40124765401E+02  0.00000000000E+00 0. -1.
</event>
<event>
 4    1  0.8931296E+003  0.2587508E+02  0.7546771E-02  0.1459247E+00
          2   -1    0    0  501    0  0.00000000000E+00  0.00000000000E+00  0.28628711834E+01  0.28628711834E+01  0.00000000000E+00 0.  1.
          2   -1    0    0  502    0 -0.00000000000E+00 -0.00000000000E+00 -0.70805045688E+03  0.70805045688E+03  0.00000000000E+00 0. -1.
          2    1    1    2  501    0 -0.75494830639E+01  0.24749249036E+02 -0.64348428564E+03  0.64400430580E+03  0.00000000000E+00 0. -1.
          2    1    1    2  502    0  0.75494830639E+01 -0.24749249036E+02 -0.61703300052E+02  0.66909022259E+02  0.00000000000E+00 0.  1.
</event>
<event>
 4    1  0.8931296E+003  0.3840685E+02  0.7546771E-02  0.1358083E+00
          2   -1    0    0  502    0  0.00000000000E+00  0.00000000000E+00  0.22991008930E+03  0.22991008930E+03  0.00000000000E+00 0.  1.
          2   -1    0    0  501    0 -0.00000000000E+00 -0.00000000000E+00 -0.13292838542E+03  0.13292838542E+03  0.00000000000E+00 0. -1.
          2    1    1    2  501    0 -0.37016045217E+02 -0.10242000312E+02  0.22547775132E+03  0.22872538668E+03  0.00000000000E+00 0.  1.
          2    1    1    2  502    0  0.37016045217E+02  0.10242000312E+02 -0.12849604744E+03  0.13411308804E+03  0.00000000000E+00 0. -1.
</event>
<event>
 4    1  0.8931296E+003  0.9543411E+02  0.7546771E-02  0.1171964E+00
          2   -1    0    0  501    0  0.00000000000E+00  0.00000000000E+00  0.88378797148E+02  0.88378797148E+02  0.00000000000E+00 0. -1.
          2   -1    0    0  502    0 -0.00000000000E+00 -0.00000000000E+00 -0.70069425907E+03  0.70069425907E+03  0.00000000000E+00 0.  1.
          2    1    1    2  501    0  0.64064201753E+02  0.70735050165E+02 -0.67052835129E+03  0.67728571456E+03  0.00000000000E+00 0.  1.
          2    1    1    2  502    0 -0.64064201753E+02 -0.70735050165E+02  0.58212889361E+02  0.11178734166E+03  0.00000000000E+00 0. -1.
</event>
<event>
 4    1  0.1526984E+004  0.2569771E+02  0.7546771E-02  0.1461147E+00
          2   -1    0    0  502    0  0.00000000000E+00  0.00000000000E+00  0.62019975061E+03  0.62019975061E+03  0.00000000000E+00 0. -1.
          2   -1    0    0  501    0 -0.00000000000E+00 -0.00000000000E+00 -0.18430781131E+04  0.18430781131E+04  0.00000000000E+00 0.  1.
          2    1    1    2  501    0 -0.13395817369E+02 -0.21929993763E+02  0.61984393103E+03  0.62037639493E+03  0.00000000000E+00 0. -1.
          2    1    1    2  502    0  0.13395817369E+02  0.21929993763E+02 -0.18427222935E+04  0.18429014688E+04  0.00000000000E+00 0.  1.
</event>
<event>
 4    1  0.8931296E+003  0.2364649E+02  0.7546771E-02  0.1484536E+00
          2   -1    0    0  501    0  0.00000000000E+00  0.00000000000E+00  0.93389948638E+01  0.93389948638E+01  0.00000000000E+00 0. -1.
          2   -1    0    0  502    0 -0.00000000000E+00 -0.00000000000E+00 -0.15819157297E+03  0.15819157297E+03  0.00000000000E+00 0.  1.
          2    1    1    2  501    0  0.33122413437E+01 -0.23413362444E+02 -0.14046361867E+03  0.14244010901E+03  0.00000000000E+00 0.  1.
          2    1    1    2  502    0 -0.33122413437E+01  0.23413362444E+02 -0.83889594313E+01  0.25090458823E+02  0.00000000000E+00 0. -1.
</event>
<event>
 4    1  0.8931296E+003  0.2358747E+02  0.7546771E-02  0.1485250E+00
          2   -1    0    0  502    0  0.00000000000E+00  0.00000000000E+00  0.25637744325E+03  0.25637744325E+03  0.00000000000E+00 0. -1.
          2   -1    0    0  501    0 -0.00000000000E+00 -0.00000000000E+00 -0.19195211771E+03  0.19195211771E+03  0.00000000000E+00 0.  1.
          2    1    1    2  501    0 -0.12783444062E+02 -0.19823025309E+02  0.25510669322E+03  0.25619483543E+03  0.00000000000E+00 0. -1.
          2    1    1    2  502    0  0.12783444062E+02  0.19823025309E+02 -0.19068136768E+03  0.19213472553E+03  0.00000000000E+00 0.  1.
</event>
<event>
 4    1  0.8931296E+003  0.2021551E+02  0.7546771E-02  0.1530766E+00
          2   -1    0    0  502    0  0.00000000000E+00  0.00000000000E+00  0.85323517372E+03  0.85323517372E+03  0.00000000000E+00 0.  1.
          2   -1    0    0  501    0 -0.00000000000E+00 -0.00000000000E+00 -0.27277174215E+02  0.27277174215E+02  0.00000000000E+00 0.  1.
          2    1    1    2  501    0 -0.39038925974E+01  0.19834980432E+02  0.84935281335E+03  0.84959335472E+03  0.00000000000E+00 0.  1.
          2    1    1    2  502    0  0.39038925974E+01 -0.19834980432E+02 -0.23394813853E+02  0.30918993214E+02  0.00000000000E+00 0.  1.
</event>
<event>
 4    1  0.8931296E+003  0.2280486E+02  0.7546771E-02  0.1494963E+00
          2   -1    0    0  502    0  0.00000000000E+00  0.00000000000E+00  0.10417715650E+03  0.10417715650E+03  0.00000000000E+00 0.  1.
          2   -1    0    0  501    0 -0.00000000000E+00 -0.00000000000E+00 -0.88516715589E+03  0.88516715589E+03  0.00000000000E+00 0. -1.
          2    1    1    2  501    0 -0.14472779106E+01 -0.22758891384E+02  0.10278027934E+03  0.10527985359E+03  0.00000000000E+00 0.  1.
          2    1    1    2  502    0  0.14472779106E+01  0.22758891384E+02 -0.88377027873E+03  0.88406445880E+03  0.00000000000E+00 0. -1.
</event>
<event>
 4    1  0.8931296E+003  0.2793403E+02  0.7546771E-02  0.1438445E+00
          2   -1    0    0  502    0  0.00000000000E+00  0.00000000000E+00  0.10404783808E+02  0.10404783808E+02  0.00000000000E+00 0. -1.
          2   -1    0    0  501    0 -0.00000000000E+00 -0.00000000000E+00 -0.13724993474E+04  0.13724993474E+04  0.00000000000E+00 0. -1.
          2    1    1    2  501    0 -0.22157689745E+02  0.17010190448E+02 -0.87515298150E+01  0.29272838400E+02  0.00000000000E+00 0. -1.
          2    1    1    2  502    0  0.22157689745E+02 -0.17010190448E+02 -0.13533430338E+04  0.13536312928E+04  0.00000000000E+00 0. -1.
</event>
<event>
 4    1  0.8931296E+003  0.2010806E+02  0.7546771E-02  0.1532390E+00
          2   -1    0    0  501    0  0.00000000000E+00  0.00000000000E+00  0.12607126485E+04  0.12607126485E+04  0.00000000000E+00 0. -1.
          2   -1    0    0  502    0 -0.00000000000E+00 -0.00000000000E+00 -0.37185274394E+00  0.37185274394E+00  0.00000000000E+00 0. -1.
          2    1    1    2  501    0  0.97366639504E+01  0.17593501861E+02  0.39634891825E+03  0.39685866367E+03  0.00000000000E+00 0. -1.
          2    1    1    2  502    0 -0.97366639504E+01 -0.17593501861E+02  0.86399187748E+03  0.86422583755E+03  0.00000000000E+00 0. -1.
</event>
<event>
 4    1  0.8931296E+003  0.5072358E+02  0.7546771E-02  0.1295065E+00
          2   -1    0    0  501    0  0.00000000000E+00  0.00000000000E+00  0.20197448652E+01  0.20197448652E+01  0.00000000000E+00 0. -1.
          2   -1    0    0  502    0 -0.00000000000E+00 -0.00000000000E+00 -0.19897869025E+04  0.19897869025E+04  0.00000000000E+00 0.  1.
          2    1    1    2  501    0 -0.15353152620E+02  0.48344201582E+02 -0.15912583790E+04  0.15920666160E+04  0.00000000000E+00 0.  1.
          2    1    1    2  502    0  0.15353152620E+02 -0.48344201582E+02 -0.39650877866E+03  0.39974003136E+03  0.00000000000E+00 0. -1.
</event>
<event>
 4    1  0.8931296E+003  0.3479169E+02  0.7546771E-02  0.1382034E+00
          2   -1    0    0  502    0  0.00000000000E+00  0.00000000000E+00  0.54118501342E+03  0.54118501342E+03  0.00000000000E+00 0.  1.
          2   -1    0    0  501    0 -0.00000000000E+00 -0.00000000000E+00 -0.45029758894E+02  0.45029758894E+02  0.00000000000E+00 0. -1.
          2    1    1    2  501    0  0.14856624361E+02  0.31460175452E+02  0.53381278415E+03  0.53494537146E+03  0.00000000000E+00 0.  1.
          2    1    1    2  502    0 -0.14856624361E+02 -0.31460175452E+02 -0.37657529621E+02  0.51269400855E+02  0.00000000000E+00 0. -1.
</event>
<event>
 4    1  0.8931296E+003  0.2962221E+02  0.7546771E-02  0.1422908E+00
          2   -1    0    0  502    0  0.00000000000E+00  0.00000000000E+00  0.20525516840E+04  0.20525516840E+04  0.00000000000E+00 0.  1.
          2   -1    0    0  501    0 -0.00000000000E+00 -0.00000000000E+00 -0.26996751330E+02  0.26996751330E+02  0.00000000000E+00 0. -1.
          2    1    1    2  501    0  0.22535549492E+02 -0.19225611216E+02  0.20442862082E+04  0.20445008134E+04  0.00000000000E+00 0.  1.
          2    1    1    2  502    0 -0.22535549492E+02  0.19225611216E+02 -0.18731275527E+02  0.35047621894E+02  0.00000000000E+00 0. -1.
</event>
<event>
 4    1  0.8931296E+003  0.2240416E+02  0.7546771E-02  0.1500119E+00
          2   -1    0    0  502    0  0.00000000000E+00  0.00000000000E+00  0.20222120794E+02  0.20222120794E+02  0.00000000000E+00 0. -1.
          2   -1    0    0  501    0 -0.00000000000E+00 -0.00000000000E+00 -0.95348761822E+02  0.95348761822E+02  0.00000000000E+00 0. -1.
          2    1    1    2  501    0  0.22315630839E+02  0.19897674431E+01  0.12134681841E+02  0.25479345706E+02  0.00000000000E+00 0. -1.
          2    1    1    2  502    0 -0.22315630839E+02 -0.19897674431E+01 -0.87261322869E+02  0.90091536911E+02  0.00000000000E+00 0. -1.
</event>
<event>
 4    1  0.8931296E+003  0.2267040E+02  0.7546771E-02  0.1496679E+00
          2   -1    0    0  502    0  0.00000000000E+00  0.00000000000E+00  0.97489721006E+01  0.97489721006E+01  0.00000000000E+00 0.  1.
          2   -1    0    0  501    0 -0.00000000000E+00 -0.00000000000E+00 -0.87156638112E+03  0.87156638112E+03  0.00000000000E+00 0. -1.
          2    1    1    2  501    0  0.10337149109E+02 -0.20176476954E+02 -0.37858233354E+01  0.22984327971E+02  0.00000000000E+00 0.  1.
          2    1    1    2  502    0 -0.10337149109E+02  0.20176476954E+02 -0.85803158569E+03  0.85833102525E+03  0.00000000000E+00 0. -1.
</event>
<event>
 4    1  0.8931296E+003  0.2107843E+02  0.7546771E-02  0.1518148E+00
          2   -1    0    0  502    0  0.00000000000E+00  0.00000000000E+00  0.55307287135E+00  0.55307287135E+00  0.00000000000E+00 0.  1.
          2   -1    0    0  501    0 -0.00000000000E+00 -0.00000000000E+00 -0.90391764829E+03  0.90391764829E+03  0.00000000000E+00 0. -1.
          2    1    1    2  501    0 -0.19214632895E+02 -0.86659064426E+01 -0.30082290526E+03  0.30156047550E+03  0.00000000000E+00 0.  1.
          2    1    1    2  502    0  0.19214632895E+02  0.86659064426E+01 -0.60254167015E+03  0.60291024566E+03  0.00000000000E+00 0. -1.
</event>
<event>
 4    1  0.8931296E+003  0.2400043E+02  0.7546771E-02  0.1480304E+00
          2   -1    0    0  502    0  0.00000000000E+00  0.00000000000E+00  0.82770640941E+02  0.82770640941E+02  0.00000000000E+00 0. -1.
          2   -1    0    0  501    0 -0.00000000000E+00 -0.00000000000E+00 -0.22418989326E+02  0.22418989326E+02  0.00000000000E+00 0.  1.
          2    1    1    2  501    0 -0.23651318562E+02 -0.40787138192E+01  0.73851150082E+02  0.77653159270E+02  0.00000000000E+00 0. -1.
          2    1    1    2  502    0  0.23651318562E+02  0.40787138192E+01 -0.13499498467E+02  0.27536470998E+02  0.00000000000E+00 0.  1.
</event>
<event>
 4    1  0.8931296E+003  0.2244295E+02  0.7546771E-02  0.1499614E+00
          2   -1    0    0  501    0  0.00000000000E+00  0.00000000000E+00  0.25695774470E+03  0.25695774470E+03  0.00000000000E+00 0. -1.
          2   -1    0    0  502    0 -0.00000000000E+00 -0.00000000000E+00 -0.24123936522E+02  0.24123936522E+02  0.00000000000E+00 0. -1.
          2    1    1    2  501    0 -0.26851722501E+00  0.22441338911E+02 -0.18293163358E+02  0.28953853272E+02  0.00000000000E+00 0. -1.
          2    1    1    2  502    0  0.26851722501E+00 -0.22441338911E+02  0.25112697153E+03  0.25212782795E+03  0.00000000000E+00 0. -1.
</event>
<event>
 4    1  0.8931296E+003  0.8208949E+02  0.7546771E-02  0.1199078E+00
          2   -1    0    0  502    0  0.00000000000E+00  0.00000000000E+00  0.97803940004E+03  0.97803940004E+03  0.00000000000E+00 0. -1.
          2   -1    0    0  501    0 -0.00000000000E+00 -0.00000000000E+00 -0.37013885501E+02  0.37013885501E+02  0.00000000000E+00 0. -1.
          2    1    1    2  501    0 -0.55445127375E+02 -0.60535298721E+02  0.92837207013E+03  0.93199430532E+03  0.00000000000E+00 0. -1.
          2    1    1    2  502    0  0.55445127375E+02  0.60535298721E+02  0.12653444410E+02  0.83058980227E+02  0.00000000000E+00 0. -1.
</event>
<event>
 4    1  0.8931296E+003  0.3243330E+02  0.7546771E-02  0.1399565E+00
          2   -1    0    0  502    0  0.00000000000E+00  0.00000000000E+00  0.49137664093E+01  0.49137664093E+01  0.00000000000E+00 0. -1.
          2   -1    0    0  501    0 -0.00000000000E+00 -0.00000000000E+00 -0.26434386326E+03  0.26434386326E+03  0.00000000000E+00 0. -1.
          2    1    1    2  501    0  0.30021660168E+01  0.32294050864E+02 -0.71006780757E+02  0.78063318117E+02  0.00000000000E+00 0. -1.
          2    1    1    2  502    0 -0.30021660168E+01 -0.32294050864E+02 -0.18842331609E+03  0.19119431155E+03  0.00000000000E+00 0. -1.
</event>
<event>
 4    1  0.8931296E+003  0.2027855E+02  0.7546771E-02  0.1529819E+00
          2   -1    0    0  501    0  0.00000000000E+00  0.00000000000E+00  0.19936719507E+03  0.19936719507E+03  0.00000000000E+00 0. -1.
          2   -1    0    0  502    0 -0.00000000000E+00 -0.00000000000E+00 -0.15785389620E+02  0.15785389620E+02  0.00000000000E+00 0.  1.
          2    1    1    2  501    0  0.15874094948E+02  0.12618750927E+02 -0.85111280109E+01  0.21992250121E+02  0.00000000000E+00 0.  1.
          2    1    1    2  502    0 -0.15874094948E+02 -0.12618750927E+02  0.19209293347E+03  0.19316033457E+03  0.00000000000E+00 0. -1.
</event>
<event>
 4    1  0.8931296E+003  0.2541510E+02  0.7546771E-02  0.1464213E+00
          2   -1    0    0  501    0  0.00000000000E+00  0.00000000000E+00  0.54652828362E+00  0.54652828362E+00  0.00000000000E+00 0.  1.
          2   -1    0    0  502    0 -0.00000000000E+00 -0.00000000000E+00 -0.12410646991E+04  0.12410646991E+04  0.00000000000E+00 0.  1.
          2    1    1    2  501    0  0.19698918969E+02  0.16058634705E+02 -0.75583667890E+03  0.75626385100E+03  0.00000000000E+00 0.  1.
          2    1    1    2  502    0 -0.19698918969E+02 -0.16058634705E+02 -0.48468149188E+03  0.48534737634E+03  0.00000000000E+00 0.  1.
</event>
<event>
 4    1  0.8931296E+003  0.2859011E+02  0.7546771E-02  0.1432257E+00
          2   -1    0    0  501    0  0.00000000000E+00  0.00000000000E+00  0.61858924390E+01  0.61858924390E+01  0.00000000000E+00 0. -1.
          2   -1    0    0  502    0 -0.00000000000E+00 -0.00000000000E+00 -0.28198051239E+03  0.28198051239E+03  0.00000000000E+00 0.  1.
          2    1    1    2  501    0 -0.28510999258E+02  0.21253962014E+01 -0.32865550447E+02  0.43560748316E+02  0.00000000000E+00 0. -1.
          2    1    1    2  502    0  0.28510999258E+02 -0.21253962014E+01 -0.24292906950E+03  0.24460565651E+03  0.00000000000E+00 0.  1.
</event>
<event>
 4    1  0.8931296E+003  0.2344042E+02  0.7546771E-02  0.1487041E+00
          2   -1    0    0  502    0  0.00000000000E+00  0.00000000000E+00  0.28406746955E+01  0.28406746955E+01  0.00000000000E+00 0. -1.
          2   -1    0    0  501    0 -0.00000000000E+00 -0.00000000000E+00 -0.91841886149E+03  0.91841886149E+03  0.00000000000E+00 0.  1.
          2    1    1    2  501    0  0.17370151096E+02  0.15739473895E+02 -0.48529165569E+02  0.53893720399E+02  0.00000000000E+00 0. -1.
          2    1    1    2  502    0 -0.17370151096E+02 -0.15739473895E+02 -0.86704902123E+03  0.86736581579E+03  0.00000000000E+00 0.  1.
</event>
<event>
 4    1  0.8931296E+003  0.2080357E+02  0.7546771E-02  0.1522088E+00
          2   -1    0    0  502    0  0.00000000000E+00  0.00000000000E+00  0.23844004996E+03  0.23844004996E+03  0.00000000000E+00 0. -1.
          2   -1    0    0  501    0 -0.00000000000E+00 -0.00000000000E+00 -0.12528980845E+02  0.12528980845E+02  0.00000000000E+00 0.  1.
          2    1    1    2  501    0  0.16957950310E+02 -0.12050572689E+02  0.22899508145E+03  0.22993811278E+03  0.00000000000E+00 0. -1.
          2    1    1    2  502    0 -0.16957950310E+02  0.12050572689E+02 -0.30840123361E+01  0.21030918024E+02  0.00000000000E+00 0.  1.
</event>
<event>
 4    1  0.8931296E+003  0.2050679E+02  0.7546771E-02  0.1526424E+00
          2   -1    0    0  501    0  0.00000000000E+00  0.00000000000E+00  0.54314305500E+02  0.54314305500E+02  0.00000000000E+00 0.  1.
          2   -1    0    0  502    0 -0.00000000000E+00 -0.00000000000E+00 -0.35098921294E+03  0.35098921294E+03  0.00000000000E+00 0. -1.
          2    1    1    2  501    0  0.12387298783E+02 -0.16342686372E+02 -0.34874159245E+03  0.34934399505E+03  0.00000000000E+00 0. -1.
          2    1    1    2  502    0 -0.12387298783E+02  0.16342686372E+02  0.52066685018E+02  0.55959523388E+02  0.00000000000E+00 0.  1.
</event>
<event>
 4    1  0.8931296E+003  0.3124665E+02  0.7546771E-02  0.1409064E+00
          2   -1    0    0  502    0  0.00000000000E+00  0.00000000000E+00  0.19309574634E+03  0.19309574634E+03  0.00000000000E+00 0.  1.
          2   -1    0    0  501    0 -0.00000000000E+00 -0.00000000000E+00 -0.75164923497E+02  0.75164923497E+02  0.00000000000E+00 0. -1.
          2    1    1    2  501    0  0.51409348560E+01 -0.30820830995E+02  0.18850576382E+03  0.19107793130E+03  0.00000000000E+00 0.  1.
          2    1    1    2  502    0 -0.51409348560E+01  0.30820830995E+02 -0.70574940980E+02  0.77182738541E+02  0.00000000000E+00 0. -1.
</event>
<event>
 4    1  0.8931296E+003  0.2187805E+02  0.7546771E-02  0.1507088E+00
          2   -1    0    0  501    0  0.00000000000E+00  0.00000000000E+00  0.10397246788E+03  0.10397246788E+03  0.00000000000E+00 0.  1.
          2   -1    0    0  502    0 -0.00000000000E+00 -0.00000000000E+00 -0.70806495016E+03  0.70806495016E+03  0.00000000000E+00 0.  1.
          2    1    1    2  501    0 -0.70017655414E+01 -0.20727382069E+02 -0.70674289531E+03  0.70708144450E+03  0.00000000000E+00 0.  1.
          2    1    1    2  502    0  0.70017655414E+01  0.20727382069E+02  0.10265041302E+03  0.10495597354E+03  0.00000000000E+00 0.  1.
</event>
<event>
 4    1  0.8931296E+003  0.2516272E+02  0.7546771E-02  0.1466991E+00
          2   -1    0    0  502    0  0.00000000000E+00  0.00000000000E+00  0.16822181107E+03  0.16822181107E+03  0.00000000000E+00 0. -1.
          2   -1    0    0  501    0 -0.00000000000E+00 -0.00000000000E+00 -0.14290375170E+04  0.14290375170E+04  0.00000000000E+00 0.  1.
          2    1    1    2  501    0 -0.22587992890E+02 -0.11088058144E+02  0.16716938666E+03  0.16905255483E+03  0.00000000000E+00 0. -1.
          2    1    1    2  502    0  0.22587992890E+02  0.11088058144E+02 -0.14279850926E+04  0.14282067733E+04  0.00000000000E+00 0.  1.
</event>
<event>
 4    1  0.8931296E+003  0.5669878E+02  0.7546771E-02  0.1271481E+00
          2   -1    0    0  502    0  0.00000000000E+00  0.00000000000E+00  0.56450682200E+03  0.56450682200E+03  0.00000000000E+00 0.  1.
          2   -1    0    0  501    0 -0.00000000000E+00 -0.00000000000E+00 -0.26611747641E+02  0.26611747641E+02  0.00000000000E+00 0. -1.
          2    1    1    2  501    0  0.38466208676E+02 -0.41654567700E+02  0.53098119904E+03  0.53399979959E+03  0.00000000000E+00 0.  1.
          2    1    1    2  502    0 -0.38466208676E+02  0.41654567700E+02  0.69138753113E+01  0.57118770050E+02  0.00000000000E+00 0. -1.
</event>
<event>
 4    1  0.8931296E+003  0.2266881E+02  0.7546771E-02  0.1496699E+00
          2   -1    0    0  502    0  0.00000000000E+00  0.00000000000E+00  0.14141230937E+03  0.14141230937E+03  0.00000000000E+00 0.  1.
          2   -1    0    0  501    0 -0.00000000000E+00 -0.00000000000E+00 -0.16956621216E+03  0.16956621216E+03  0.00000000000E+00 0. -1.
          2    1    1    2  501    0 -0.22345773997E+02 -0.38133291271E+01  0.13973718467E+03  0.14156396389E+03  0.00000000000E+00 0.  1.
          2    1    1    2  502    0  0.22345773997E+02  0.38133291271E+01 -0.16789108746E+03  0.16941455764E+03  0.00000000000E+00 0. -1.
</event>
<event>
 4    1  0.8931296E+003  0.2214628E+02  0.7546771E-02  0.1503506E+00
          2   -1    0    0  502    0  0.00000000000E+00  0.00000000000E+00  0.97358951667E+03  0.97358951667E+03  0.00000000000E+00 0. -1.
          2   -1    0    0  501    0 -0.00000000000E+00 -0.00000000000E+00 -0.10782168369E+01  0.10782168369E+01  0.00000000000E+00 0.  1.
          2    1    1    2  501    0 -0.13597039511E+02  0.17480798638E+02  0.84196995250E+03  0.84226115826E+03  0.00000000000E+00 0. -1.
          2    1    1    2  502    0  0.13597039511E+02 -0.17480798638E+02  0.13054134734E+03  0.13240657525E+03  0.00000000000E+00 0.  1.
</event>
<event>
 4    1  0.8931296E+003  0.2251413E+02  0.7546771E-02  0.1498691E+00
          2   -1    0    0  502    0  0.00000000000E+00  0.00000000000E+00  0.21297532794E+01  0.21297532794E+01  0.00000000000E+00 0. -1.
          2   -1    0    0  501    0 -0.00000000000E+00 -0.00000000000E+00 -0.17019256770E+04  0.17019256770E+04  0.00000000000E+00 0.  1.
          2    1    1    2  501    0  0.21122101311E+02 -0.77937702950E+01 -0.59687799120E+02  0.63792784725E+02  0.00000000000E+00 0. -1.
          2    1    1    2  502    0 -0.21122101311E+02  0.77937702950E+01 -0.16401081246E+04  0.16402626455E+04  0.00000000000E+00 0.  1.
</event>
<event>
 4    1  0.8931296E+003  0.2001017E+02  0.7546771E-02  0.1533880E+00
          2   -1    0    0  502    0  0.00000000000E+00  0.00000000000E+00  0.96236863729E+02  0.96236863729E+02  0.00000000000E+00 0. -1.
          2   -1    0    0  501    0 -0.00000000000E+00 -0.00000000000E+00 -0.79751743911E+02  0.79751743911E+02  0.00000000000E+00 0.  1.
          2    1    1    2  501    0 -0.82985042354E+00 -0.19992950360E+02  0.93910794274E+02  0.96018977275E+02  0.00000000000E+00 0. -1.
          2    1    1    2  502    0  0.82985042354E+00  0.19992950360E+02 -0.77425674455E+02  0.79969630365E+02  0.00000000000E+00 0.  1.
</event>
<event>
 4    1  0.8931296E+003  0.2707508E+02  0.7546771E-02  0.1446855E+00
          2   -1    0    0  501    0  0.00000000000E+00  0.00000000000E+00  0.82803834671E+02  0.82803834671E+02  0.00000000000E+00 0.  1.
          2   -1    0    0  502    0 -0.00000000000E+00 -0.00000000000E+00 -0.39976039674E+02  0.39976039674E+02  0.00000000000E+00 0.  1.
          2    1    1    2  501    0  0.64012626313E+01  0.26307485199E+02 -0.32753567483E+02  0.42495365908E+02  0.00000000000E+00 0.  1.
          2    1    1    2  502    0 -0.64012626313E+01 -0.26307485199E+02  0.75581362480E+02  0.80284508438E+02  0.00000000000E+00 0.  1.
</event>
<event>
 4    1  0.8931296E+003  0.2956870E+02  0.7546771E-02  0.1423382E+00
          2   -1    0    0  501    0  0.00000000000E+00  0.00000000000E+00  0.22264775753E+02  0.22264775753E+02  0.00000000000E+00 0. -1.
          2   -1    0    0  502    0 -0.00000000000E+00 -0.00000000000E+00 -0.90310882394E+02  0.90310882394E+02  0.00000000000E+00 0. -1.
          2    1    1    2  501    0 -0.87161010183E+01 -0.28254867123E+02 -0.76339504533E+02  0.81865914064E+02  0.00000000000E+00 0. -1.
          2    1    1    2  502    0  0.87161010183E+01  0.28254867123E+02  0.82933978920E+01  0.30709744084E+02  0.00000000000E+00 0. -1.
</event>
<event>
 4    1  0.8931296E+003  0.8108607E+02  0.7546771E-02  0.1201348E+00
          2   -1    0    0  502    0  0.00000000000E+00  0.00000000000E+00  0.19874297156E+03  0.19874297156E+03  0.00000000000E+00 0.  1.
          2   -1    0    0  501    0 -0.00000000000E+00 -0.00000000000E+00 -0.10980375065E+03  0.10980375065E+03  0.00000000000E+00 0. -1.
          2    1    1    2  501    0  0.31190034955E+02 -0.74847397833E+02  0.17342504985E+03  0.19144502908E+03  0.00000000000E+00 0.  1.
          2    1    1    2  502    0 -0.31190034955E+02  0.74847397833E+02 -0.84485828944E+02  0.11710169314E+03  0.00000000000E+00 0. -1.
</event>
<event>
 4    1  0.8931296E+003  0.2083234E+02  0.7546771E-02  0.1521672E+00
          2   -1    0    0  502    0  0.00000000000E+00  0.00000000000E+00  0.64794485803E+02  0.64794485803E+02  0.00000000000E+00 0. -1.
          2   -1    0    0  501    0 -0.00000000000E+00 -0.00000000000E+00 -0.96226329468E+01  0.96226329468E+01  0.00000000000E+00 0.  1.
          2    1    1    2  501    0 -0.58617375094E+01  0.19990661365E+02  0.48099416331E+02  0.52416985413E+02  0.00000000000E+00 0. -1.
          2    1    1    2  502    0  0.58617375094E+01 -0.19990661365E+02  0.70724365255E+01  0.22000133337E+02  0.00000000000E+00 0.  1.
</event>
<event>
 4    1  0.8931296E+003  0.2178402E+02  0.7546771E-02  0.1508359E+00
          2   -1    0    0  502    0  0.00000000000E+00  0.00000000000E+00  0.19864814319E+02  0.19864814319E+02  0.00000000000E+00 0.  1.
          2   -1    0    0  501    0 -0.00000000000E+00 -0.00000000000E+00 -0.44485674813E+03  0.44485674813E+03  0.00000000000E+00 0.  1.
          2    1    1    2  501    0 -0.77963395869E+01 -0.20341103082E+02  0.13539888077E+02  0.25649014692E+02  0.00000000000E+00 0.  1.
          2    1    1    2  502    0  0.77963395869E+01  0.20341103082E+02 -0.43853182189E+03  0.43907254776E+03  0.00000000000E+00 0.  1.
</event>
<event>
 4    1  0.8931296E+003  0.2071943E+02  0.7546771E-02  0.1523309E+00
          2   -1    0    0  501    0  0.00000000000E+00  0.00000000000E+00  0.15787044013E+04  0.15787044013E+04  0.00000000000E+00 0.  1.
          2   -1    0    0  502    0 -0.00000000000E+00 -0.00000000000E+00 -0.55180039440E+00  0.55180039440E+00  0.00000000000E+00 0. -1.
          2    1    1    2  501    0 -0.20169161463E+02  0.47433807428E+01  0.22672043616E+03  0.22766521673E+03  0.00000000000E+00 0. -1.
          2    1    1    2  502    0  0.20169161463E+02 -0.47433807428E+01  0.13514321647E+04  0.13515909850E+04  0.00000000000E+00 0.  1.
</event>
<event>
 4    1  0.8931296E+003  0.2302677E+02  0.7546771E-02  0.1492162E+00
          2   -1    0    0  501    0  0.00000000000E+00  0.00000000000E+00  0.66734260013E+01  0.66734260013E+01  0.00000000000E+00 0.  1.
          2   -1    0    0  502    0 -0.00000000000E+00 -0.00000000000E+00 -0.11640002865E+03  0.11640002865E+03  0.00000000000E+00 0.  1.
          2    1    1    2  501    0  0.46746577434E+01  0.22547272914E+02 -0.20194376992E+02  0.30627517088E+02  0.00000000000E+00 0.  1.
          2    1    1    2  502    0 -0.46746577434E+01 -0.22547272914E+02 -0.89532225657E+02  0.92445937564E+02  0.00000000000E+00 0.  1.
</event>
<event>
 4    1  0.8931296E+003  0.2023212E+02  0.7546771E-02  0.1530517E+00
          2   -1    0    0  502    0  0.00000000000E+00  0.00000000000E+00  0.51385531069E+03  0.51385531069E+03  0.00000000000E+00 0. -1.
          2   -1    0    0  501    0 -0.00000000000E+00 -0.00000000000E+00 -0.29140416541E+02  0.29140416541E+02  0.00000000000E+00 0. -1.
          2    1    1    2  501    0  0.17355236246E+02 -0.10398766888E+02  0.51011866918E+03  0.51051973049E+03  0.00000000000E+00 0. -1.
          2    1    1    2  502    0 -0.17355236246E+02  0.10398766888E+02 -0.25403775033E+02  0.32475996734E+02  0.00000000000E+00 0. -1.
</event>
<event>
 4    1  0.8931296E+003  0.3068419E+02  0.7546771E-02  0.1413742E+00
          2   -1    0    0  501    0  0.00000000000E+00  0.00000000000E+00  0.57321233739E+02  0.57321233739E+02  0.00000000000E+00 0. -1.
          2   -1    0    0  502    0 -0.00000000000E+00 -0.00000000000E+00 -0.19056476490E+02  0.19056476490E+02  0.00000000000E+00 0.  1.
          2    1    1    2  501    0 -0.91606117314E+01  0.29284851710E+02  0.33322596073E+02  0.45298065699E+02  0.00000000000E+00 0. -1.
          2    1    1    2  502    0  0.91606117314E+01 -0.29284851710E+02  0.49421611754E+01  0.31079644529E+02  0.00000000000E+00 0.  1.
</event>
<event>
 4    1  0.8931296E+003  0.2043215E+02  0.7546771E-02  0.1527529E+00
          2   -1    0    0  502    0  0.00000000000E+00  0.00000000000E+00  0.25685743160E+02  0.25685743160E+02  0.00000000000E+00 0. -1.
          2   -1    0    0  501    0 -0.00000000000E+00 -0.00000000000E+00 -0.16264013793E+02  0.16264013793E+02  0.00000000000E+00 0. -1.
          2    1    1    2  501    0  0.20248402627E+02  0.27340662027E+01  0.52542313327E+01  0.21096916217E+02  0.00000000000E+00 0. -1.
          2    1    1    2  502    0 -0.20248402627E+02 -0.27340662027E+01  0.41674980343E+01  0.20852840737E+02  0.00000000000E+00 0. -1.
</event>
<event>
 4    1  0.8931296E+003  0.3811204E+02  0.7546771E-02  0.1359919E+00
          2   -1    0    0  501    0  0.00000000000E+00  0.00000000000E+00  0.13168656166E+04  0.13168656166E+04  0.00000000000E+00 0. -1.
          2   -1    0    0  502    0 -0.00000000000E+00 -0.00000000000E+00 -0.11965280600E+01  0.11965280600E+01  0.00000000000E+00 0. -1.
          2    1    1    2  501    0 -0.27369936204E+02 -0.26521961496E+02  0.47359994326E+03  0.47513096521E+03  0.00000000000E+00 0. -1.
          2    1    1    2  502    0  0.27369936204E+02  0.26521961496E+02  0.84206914524E+03  0.84293117941E+03  0.00000000000E+00 0. -1.
</event>
<event>
 4    1  0.8931296E+003  0.2371039E+02  0.7546771E-02  0.1483765E+00
          2   -1    0    0  501    0  0.00000000000E+00  0.00000000000E+00  0.57344306773E+03  0.57344306773E+03  0.00000000000E+00 0. -1.
          2   -1    0    0  502    0 -0.00000000000E+00 -0.00000000000E+00 -0.98896909080E+00  0.98896909080E+00  0.00000000000E+00 0.  1.
          2    1    1    2  501    0 -0.16232918930E+02 -0.17282216939E+02  0.25943496618E+03  0.26051618828E+03  0.00000000000E+00 0.  1.
          2    1    1    2  502    0  0.16232918930E+02  0.17282216939E+02  0.31301913247E+03  0.31391584855E+03  0.00000000000E+00 0. -1.
</event>
<event>
 4    1  0.8931296E+003  0.2064924E+02  0.7546771E-02  0.1524332E+00
          2   -1    0    0  502    0  0.00000000000E+00  0.00000000000E+00  0.37237508130E+01  0.37237508130E+01  0.00000000000E+00 0. -1.
          2   -1    0    0  501    0 -0.00000000000E+00 -0.00000000000E+00 -0.14450126503E+03  0.14450126503E+03  0.00000000000E+00 0. -1.
          2    1    1    2  501    0 -0.17347884010E+02 -0.11200094181E+02 -0.36622474973E+02  0.42042797985E+02  0.00000000000E+00 0. -1.
          2    1    1    2  502    0  0.17347884010E+02  0.11200094181E+02 -0.10415503924E+03  0.10618221785E+03  0.00000000000E+00 0. -1.
</event>
<event>
 4    1  0.8931296E+003  0.3021994E+02  0.7546771E-02  0.1417695E+00
          2   -1    0    0  501    0  0.00000000000E+00  0.00000000000E+00  0.35605528130E+03  0.35605528130E+03  0.00000000000E+00 0.  1.
          2   -1    0    0  502    0 -0.00000000000E+00 -0.00000000000E+00 -0.17331018960E+02  0.17331018960E+02  0.00000000000E+00 0.  1.
          2    1    1    2  501    0  0.19229302532E+02  0.23312623339E+02 -0.29633846211E+01  0.30364883191E+02  0.00000000000E+00 0.  1.
          2    1    1    2  502    0 -0.19229302532E+02 -0.23312623339E+02  0.34168764696E+03  0.34302141707E+03  0.00000000000E+00 0.  1.
</event>
<event>
 4    1  0.8931296E+003  0.2570339E+02  0.7546771E-02  0.1461086E+00
          2   -1    0    0  501    0  0.00000000000E+00  0.00000000000E+00  0.13581179404E+02  0.13581179404E+02  0.00000000000E+00 0.  1.
          2   -1    0    0  502    0 -0.00000000000E+00 -0.00000000000E+00 -0.12032928431E+03  0.12032928431E+03  0.00000000000E+00 0. -1.
          2    1    1    2  501    0 -0.20718848665E+02 -0.15211624154E+02 -0.10505245789E+03  0.10815120483E+03  0.00000000000E+00 0. -1.
          2    1    1    2  502    0  0.20718848665E+02  0.15211624154E+02 -0.16956470248E+01  0.25759258884E+02  0.00000000000E+00 0.  1.
</event>
<event>
 4    1  0.8931296E+003  0.2426718E+02  0.7546771E-02  0.1477171E+00
          2   -1    0    0  502    0  0.00000000000E+00  0.00000000000E+00  0.21105109300E+03  0.21105109300E+03  0.00000000000E+00 0. -1.
          2   -1    0    0  501    0 -0.00000000000E+00 -0.00000000000E+00 -0.93121874379E+01  0.93121874379E+01  0.00000000000E+00 0. -1.
          2    1    1    2  501    0  0.24236918831E+02 -0.12115603914E+01  0.19307774723E+03  0.19459679491E+03  0.00000000000E+00 0. -1.
          2    1    1    2  502    0 -0.24236918831E+02  0.12115603914E+01  0.86611583341E+01  0.25766485532E+02  0.00000000000E+00 0. -1.
</event>
<event>
 4    1  0.8931296E+003  0.4787803E+02  0.7546771E-02  0.1307644E+00
          2   -1    0    0  501    0  0.00000000000E+00  0.00000000000E+00  0.19952042039E+04  0.19952042039E+04  0.00000000000E+00 0.  1.
          2   -1    0    0  502    0 -0.00000000000E+00 -0.00000000000E+00 -0.28902963980E+01  0.28902963980E+01  0.00000000000E+00 0.  1.
          2    1    1    2  501    0  0.43185771708E+02  0.20671120779E+02  0.22069113658E+03  0.22582489649E+03  0.00000000000E+00 0.  1.
          2    1    1    2  502    0 -0.43185771708E+02 -0.20671120779E+02  0.17716227710E+04  0.17722696038E+04  0.00000000000E+00 0.  1.
</event>
<event>
 4    1  0.8931296E+003  0.3642301E+02  0.7546771E-02  0.1370826E+00
          2   -1    0    0  501    0  0.00000000000E+00  0.00000000000E+00  0.50887052715E+02  0.50887052715E+02  0.00000000000E+00 0.  1.
          2   -1    0    0  502    0 -0.00000000000E+00 -0.00000000000E+00 -0.99971517902E+02  0.99971517902E+02  0.00000000000E+00 0. -1.
          2    1    1    2  501    0  0.28399414130E+00 -0.36421899496E+02 -0.89394916577E+02  0.96530236327E+02  0.00000000000E+00 0. -1.
          2    1    1    2  502    0 -0.28399414130E+00  0.36421899496E+02  0.40310451389E+02  0.54328334290E+02  0.00000000000E+00 0.  1.
</event>
<event>
 4    1  0.8931296E+003  0.2244049E+02  0.7546771E-02  0.1499646E+00
          2   -1    0    0  502    0  0.00000000000E+00  0.00000000000E+00  0.19129479738E+03  0.19129479738E+03  0.00000000000E+00 0.  1.
          2   -1    0    0  501    0 -0.00000000000E+00 -0.00000000000E+00 -0.62749088122E+01  0.62749088122E+01  0.00000000000E+00 0.  1.
          2    1    1    2  501    0  0.24148091826E+01 -0.22310179249E+02  0.16777329230E+03  0.16926740091E+03  0.00000000000E+00 0.  1.
          2    1    1    2  502    0 -0.24148091826E+01  0.22310179249E+02  0.17246596268E+02  0.28302305283E+02  0.00000000000E+00 0.  1.
</event>
<event>
 4    1  0.8931296E+003  0.4450407E+02  0.7546771E-02  0.1323938E+00
          2   -1    0    0  501    0  0.00000000000E+00  0.00000000000E+00  0.31522616070E+03  0.31522616070E+03  0.00000000000E+00 0.  1.
          2   -1    0    0  502    0 -0.00000000000E+00 -0.00000000000E+00 -0.94600843292E+03  0.94600843292E+03  0.00000000000E+00 0.  1.
          2    1    1    2  501    0 -0.44254239210E+02  0.47089524942E+01 -0.94391074473E+03  0.94495931444E+03  0.00000000000E+00 0.  1.
          2    1    1    2  502    0  0.44254239210E+02 -0.47089524942E+01  0.31312847251E+03  0.31627527918E+03  0.00000000000E+00 0.  1.
</event>
<event>
 4    1  0.8931296E+003  0.2573202E+02  0.7546771E-02  0.1460778E+00
          2   -1    0    0  501    0  0.00000000000E+00  0.00000000000E+00  0.16849337125E+02  0.16849337125E+02  0.00000000000E+00 0. -1.
          2   -1    0    0  502    0 -0.00000000000E+00 -0.00000000000E+00 -0.55794544759E+02  0.55794544759E+02  0.00000000000E+00 0. -1.
          2    1    1    2  501    0 -0.62263643661E+01 -0.24967365819E+02  0.27780742844E+00  0.25733521836E+02  0.00000000000E+00 0. -1.
          2    1    1    2  502    0  0.62263643661E+01  0.24967365819E+02 -0.39223015063E+02  0.46910360047E+02  0.00000000000E+00 0. -1.
</event>
<event>
 4    1  0.8931296E+003  0.2398481E+02  0.7546771E-02  0.1480489E+00
          2   -1    0    0  501    0  0.00000000000E+00  0.00000000000E+00  0.68726578534E+02  0.68726578534E+02  0.00000000000E+00 0.  1.
          2   -1    0    0  502    0 -0.00000000000E+00 -0.00000000000E+00 -0.49482862512E+03  0.49482862512E+03  0.00000000000E+00 0. -1.
          2    1    1    2  501    0  0.20021556818E+02  0.13206384419E+02 -0.49243520997E+03  0.49301897260E+03  0.00000000000E+00 0. -1.
          2    1    1    2  502    0 -0.20021556818E+02 -0.13206384419E+02  0.66333163383E+02  0.70536231053E+02  0.00000000000E+00 0.  1.
</event>
<event>
 4    1  0.8931296E+003  0.4316019E+02  0.7546771E-02  0.1330900E+00
          2   -1    0    0  502    0  0.00000000000E+00  0.00000000000E+00  0.14982428996E+03  0.14982428996E+03  0.00000000000E+00 0. -1.
          2   -1    0    0  501    0 -0.00000000000E+00 -0.00000000000E+00 -0.20971466570E+03  0.20971466570E+03  0.00000000000E+00 0.  1.
          2    1    1    2  501    0  0.15873455239E+02  0.40135218232E+02  0.14441392372E+03  0.15072552434E+03  0.00000000000E+00 0. -1.
          2    1    1    2  502    0 -0.15873455239E+02 -0.40135218232E+02 -0.20430429946E+03  0.20881343132E+03  0.00000000000E+00 0.  1.
</event>
<event>
 4    1  0.8931296E+003  0.2086105E+02  0.7546771E-02  0.1521258E+00
          2   -1    0    0  502    0  0.00000000000E+00  0.00000000000E+00  0.38574762485E+03  0.38574762485E+03  0.00000000000E+00 0.  1.
          2   -1    0    0  501    0 -0.00000000000E+00 -0.00000000000E+00 -0.11660593065E+01  0.11660593065E+01  0.00000000000E+00 0. -1.
          2    1    1    2  501    0  0.14970484808E+02 -0.14528172227E+02  0.15741156898E+03  0.15878786242E+03  0.00000000000E+00 0.  1.
          2    1    1    2  502    0 -0.14970484808E+02  0.14528172227E+02  0.22716999656E+03  0.22812582173E+03  0.00000000000E+00 0. -1.
</event>
<event>
 4    1  0.8931296E+003  0.2325054E+02  0.7546771E-02  0.1489376E+00
          2   -1    0    0  502    0  0.00000000000E+00  0.00000000000E+00  0.58431982659E+03  0.58431982659E+03  0.00000000000E+00 0. -1.
          2   -1    0    0  501    0 -0.00000000000E+00 -0.00000000000E+00 -0.48533366146E+02  0.48533366146E+02  0.00000000000E+00 0. -1.
          2    1    1    2  501    0 -0.17326014771E+02 -0.15504731042E+02  0.58128940858E+03  0.58175421270E+03  0.00000000000E+00 0. -1.
          2    1    1    2  502    0  0.17326014771E+02  0.15504731042E+02 -0.45502948129E+02  0.51098980038E+02  0.00000000000E+00 0. -1.
</event>
<event>
 4    1  0.8931296E+003  0.2401731E+02  0.7546771E-02  0.1480104E+00
          2   -1    0    0  501    0  0.00000000000E+00  0.00000000000E+00  0.23365835496E+00  0.23365835496E+00  0.00000000000E+00 0. -1.
          2   -1    0    0  502    0 -0.00000000000E+00 -0.00000000000E+00 -0.26541945201E+04  0.26541945201E+04  0.00000000000E+00 0. -1.
          2    1    1    2  501    0  0.23361731440E+02 -0.55731902634E+01 -0.97610953780E+03  0.97640496759E+03  0.00000000000E+00 0. -1.
          2    1    1    2  502    0 -0.23361731440E+02  0.55731902634E+01 -0.16778513240E+04  0.16780232109E+04  0.00000000000E+00 0. -1.
</event>
<event>
 4    1  0.8931296E+003  0.2280887E+02  0.7546771E-02  0.1494912E+00
          2   -1    0    0  501    0  0.00000000000E+00  0.00000000000E+00  0.33559173739E+03  0.33559173739E+03  0.00000000000E+00 0.  1.
          2   -1    0    0  502    0 -0.00000000000E+00 -0.00000000000E+00 -0.20623038085E+03  0.20623038085E+03  0.00000000000E+00 0. -1.
          2    1    1    2  501    0  0.17064018874E+02  0.15134853400E+02 -0.20521024311E+03  0.20647394123E+03  0.00000000000E+00 0. -1.
          2    1    1    2  502    0 -0.17064018874E+02 -0.15134853400E+02  0.33457159966E+03  0.33534817701E+03  0.00000000000E+00 0.  1.
</event>
<event>
 4    1  0.8931296E+003  0.3973569E+02  0.7546771E-02  0.1350042E+00
          2   -1    0    0  501    0  0.00000000000E+00  0.00000000000E+00  0.16595668860E+03  0.16595668860E+03  0.00000000000E+00 0.  1.
          2   -1    0    0  502    0 -0.00000000000E+00 -0.00000000000E+00 -0.19457437193E+02  0.19457437193E+02  0.00000000000E+00 0. -1.
          2    1    1    2  501    0 -0.20444143220E+02  0.34072891731E+02  0.69766365475E+01  0.40343505059E+02  0.00000000000E+00 0. -1.
          2    1    1    2  502    0  0.20444143220E+02 -0.34072891731E+02  0.13952261486E+03  0.14507062073E+03  0.00000000000E+00 0.  1.
</event>
<event>
 4    1  0.8931296E+003  0.2408839E+02  0.7546771E-02  0.1479265E+00
          2   -1    0    0  501    0  0.00000000000E+00  0.00000000000E+00  0.22199305133E+02  0.22199305133E+02  0.00000000000E+00 0. -1.
          2   -1    0    0  502    0 -0.00000000000E+00 -0.00000000000E+00 -0.15356953638E+03  0.15356953638E+03  0.00000000000E+00 0. -1.
          2    1    1    2  501    0  0.49551560972E+01 -0.23573227798E+02 -0.14574176660E+03  0.14771903457E+03  0.00000000000E+00 0. -1.
          2    1    1    2  502    0 -0.49551560972E+01  0.23573227798E+02  0.14371535361E+02  0.28049806940E+02  0.00000000000E+00 0. -1.
</event>
<event>
 4    1  0.8931296E+003  0.5085173E+02  0.7546771E-02  0.1294521E+00
          2   -1    0    0  502    0  0.00000000000E+00  0.00000000000E+00  0.10088701822E+04  0.10088701822E+04  0.00000000000E+00 0.  1.
          2   -1    0    0  501    0 -0.00000000000E+00 -0.00000000000E+00 -0.77381847608E+01  0.77381847608E+01  0.00000000000E+00 0.  1.
          2    1    1    2  501    0 -0.16269706891E+02 -0.48178779469E+02  0.91624707168E+03  0.91765712252E+03  0.00000000000E+00 0.  1.
          2    1    1    2  502    0  0.16269706891E+02  0.48178779469E+02  0.84884925712E+02  0.98951244391E+02  0.00000000000E+00 0.  1.
</event>
<event>
 4    1  0.8931296E+003  0.2467304E+02  0.7546771E-02  0.1472494E+00
          2   -1    0    0  502    0  0.00000000000E+00  0.00000000000E+00  0.78525168756E+03  0.78525168756E+03  0.00000000000E+00 0.  1.
          2   -1    0    0  501    0 -0.00000000000E+00 -0.00000000000E+00 -0.79773674937E+01  0.79773674937E+01  0.00000000000E+00 0.  1.
          2    1    1    2  501    0 -0.22381412311E+02  0.10384176926E+02  0.76548776085E+03  0.76588528564E+03  0.00000000000E+00 0.  1.
          2    1    1    2  502    0  0.22381412311E+02 -0.10384176926E+02  0.11786559210E+02  0.27343769409E+02  0.00000000000E+00 0.  1.
</event>
<event>
 4    1  0.8931296E+003  0.2829037E+02  0.7546771E-02  0.1435060E+00
          2   -1    0    0  502    0  0.00000000000E+00  0.00000000000E+00  0.17243020044E+04  0.17243020044E+04  0.00000000000E+00 0. -1.
          2   -1    0    0  501    0 -0.00000000000E+00 -0.00000000000E+00 -0.86863702519E+00  0.86863702519E+00  0.00000000000E+00 0.  1.
          2    1    1    2  501    0 -0.19562626343E+02 -0.20436456942E+02  0.14503325588E+04  0.14506084504E+04  0.00000000000E+00 0. -1.
          2    1    1    2  502    0  0.19562626343E+02  0.20436456942E+02  0.27310080856E+03  0.27456219106E+03  0.00000000000E+00 0.  1.
</event>
<event>
 4    1  0.8931296E+003  0.2447572E+02  0.7546771E-02  0.1474755E+00
          2   -1    0    0  501    0  0.00000000000E+00  0.00000000000E+00  0.10653263620E+04  0.10653263620E+04  0.00000000000E+00 0.  1.
          2   -1    0    0  502    0 -0.00000000000E+00 -0.00000000000E+00 -0.34965048174E+02  0.34965048174E+02  0.00000000000E+00 0. -1.
          2    1    1    2  501    0  0.25506331982E+01  0.24342454078E+02 -0.30523252346E+02  0.39124541327E+02  0.00000000000E+00 0. -1.
          2    1    1    2  502    0 -0.25506331982E+01 -0.24342454078E+02  0.10608845662E+04  0.10611668689E+04  0.00000000000E+00 0.  1.
</event>
<event>
 4    1  0.8931296E+003  0.3615908E+02  0.7546771E-02  0.1372593E+00
          2   -1    0    0  501    0  0.00000000000E+00  0.00000000000E+00  0.84572932335E+03  0.84572932335E+03  0.00000000000E+00 0.  1.
          2   -1    0    0  502    0 -0.00000000000E+00 -0.00000000000E+00 -0.10493148255E+02  0.10493148255E+02  0.00000000000E+00 0.  1.
          2    1    1    2  501    0 -0.34266849096E+02 -0.11543923812E+02  0.22300108259E+02  0.42482631184E+02  0.00000000000E+00 0.  1.
          2    1    1    2  502    0  0.34266849096E+02  0.11543923812E+02  0.81293606684E+03  0.81373984042E+03  0.00000000000E+00 0.  1.
</event>
<event>
 4    1  0.8931296E+003  0.2247613E+02  0.7546771E-02  0.1499183E+00
          2   -1    0    0  501    0  0.00000000000E+00  0.00000000000E+00  0.16016420979E+01  0.16016420979E+01  0.00000000000E+00 0.  1.
          2   -1    0    0  502    0 -0.00000000000E+00 -0.00000000000E+00 -0.90667746445E+03  0.90667746445E+03  0.00000000000E+00 0.  1.
          2    1    1    2  501    0  0.26487372153E+01  0.22319511940E+02 -0.81927458192E+03  0.81958283108E+03  0.00000000000E+00 0.  1.
          2    1    1    2  502    0 -0.26487372153E+01 -0.22319511940E+02 -0.85801240438E+02  0.88696275473E+02  0.00000000000E+00 0.  1.
</event>
<event>
 4    1  0.8931296E+003  0.2172457E+02  0.7546771E-02  0.1509166E+00
          2   -1    0    0  501    0  0.00000000000E+00  0.00000000000E+00  0.43151649251E+02  0.43151649251E+02  0.00000000000E+00 0.  1.
          2   -1    0    0  502    0 -0.00000000000E+00 -0.00000000000E+00 -0.18736251414E+03  0.18736251414E+03  0.00000000000E+00 0. -1.
          2    1    1    2  501    0 -0.18926896893E+02 -0.10664413748E+02 -0.18394790165E+03  0.18522631472E+03  0.00000000000E+00 0. -1.
          2    1    1    2  502    0  0.18926896893E+02  0.10664413748E+02  0.39737036757E+02  0.45287848666E+02  0.00000000000E+00 0.  1.
</event>
<event>
 4    1  0.8931296E+003  0.3746539E+02  0.7546771E-02  0.1364015E+00
          2   -1    0    0  501    0  0.00000000000E+00  0.00000000000E+00  0.35584588725E+02  0.35584588725E+02  0.00000000000E+00 0.  1.
          2   -1    0    0  502    0 -0.00000000000E+00 -0.00000000000E+00 -0.18010261388E+04  0.18010261388E+04  0.00000000000E+00 0.  1.
          2    1    1    2  501    0 -0.30385676247E+02 -0.21917264014E+02 -0.17909142217E+04  0.17913060613E+04  0.00000000000E+00 0.  1.
          2    1    1    2  502    0  0.30385676247E+02  0.21917264014E+02  0.25472671616E+02  0.45304666229E+02  0.00000000000E+00 0.  1.
</event>
<event>
 4    1  0.8931296E+003  0.2777982E+02  0.7546771E-02  0.1439928E+00
          2   -1    0    0  502    0  0.00000000000E+00  0.00000000000E+00  0.21866125864E+04  0.21866125864E+04  0.00000000000E+00 0. -1.
          2   -1    0    0  501    0 -0.00000000000E+00 -0.00000000000E+00 -0.42695343728E+00  0.42695343728E+00  0.00000000000E+00 0. -1.
          2    1    1    2  501    0  0.26601207953E+02  0.80058817574E+01  0.15484212024E+04  0.15486703776E+04  0.00000000000E+00 0. -1.
          2    1    1    2  502    0 -0.26601207953E+02 -0.80058817574E+01  0.63776443061E+03  0.63836916229E+03  0.00000000000E+00 0. -1.
</event>
<event>
 4    1  0.8931296E+003  0.4524349E+02  0.7546771E-02  0.1320226E+00
          2   -1    0    0  501    0  0.00000000000E+00  0.00000000000E+00  0.18884084263E+02  0.18884084263E+02  0.00000000000E+00 0. -1.
          2   -1    0    0  502    0 -0.00000000000E+00 -0.00000000000E+00 -0.61238236008E+03  0.61238236008E+03  0.00000000000E+00 0. -1.
          2    1    1    2  501    0  0.21339553598E+02 -0.39894817978E+02 -0.58308810115E+03  0.58484075333E+03  0.00000000000E+00 0. -1.
          2    1    1    2  502    0 -0.21339553598E+02  0.39894817978E+02 -0.10410174661E+02  0.46425691009E+02  0.00000000000E+00 0. -1.
</event>
<event>
 4    1  0.8931296E+003  0.2012178E+02  0.7546771E-02  0.1532182E+00
          2   -1    0    0  501    0  0.00000000000E+00  0.00000000000E+00  0.48500103886E+02  0.48500103886E+02  0.00000000000E+00 0.  1.
          2   -1    0    0  502    0 -0.00000000000E+00 -0.00000000000E+00 -0.83512056081E+01  0.83512056081E+01  0.00000000000E+00 0. -1.
          2    1    1    2  501    0  0.13930215722E+02 -0.14520164689E+02  0.20618271862E+02  0.28809707170E+02  0.00000000000E+00 0.  1.
          2    1    1    2  502    0 -0.13930215722E+02  0.14520164689E+02  0.19530626415E+02  0.28041602323E+02  0.00000000000E+00 0. -1.
</event>
<event>
 4    1  0.8931296E+003  0.2289876E+02  0.7546771E-02  0.1493773E+00
          2   -1    0    0  502    0  0.00000000000E+00  0.00000000000E+00  0.73653931672E+03  0.73653931672E+03  0.00000000000E+00 0. -1.
          2   -1    0    0  501    0 -0.00000000000E+00 -0.00000000000E+00 -0.89329959543E+02  0.89329959543E+02  0.00000000000E+00 0. -1.
          2    1    1    2  501    0 -0.92500712898E+01  0.20947301782E+02  0.73489058459E+03  0.73524725405E+03  0.00000000000E+00 0. -1.
          2    1    1    2  502    0  0.92500712898E+01 -0.20947301782E+02 -0.87681227408E+02  0.90622022216E+02  0.00000000000E+00 0. -1.
</event>
<event>
 4    1  0.8931296E+003  0.2020004E+02  0.7546771E-02  0.1530999E+00
          2   -1    0    0  502    0  0.00000000000E+00  0.00000000000E+00  0.60065491348E+02  0.60065491348E+02  0.00000000000E+00 0. -1.
          2   -1    0    0  501    0 -0.00000000000E+00 -0.00000000000E+00 -0.14002559164E+03  0.14002559164E+03  0.00000000000E+00 0. -1.
          2    1    1    2  501    0  0.19861446211E+02  0.36830218292E+01  0.57608488072E+02  0.61047355334E+02  0.00000000000E+00 0. -1.
          2    1    1    2  502    0 -0.19861446211E+02 -0.36830218292E+01 -0.13756858837E+03  0.13904372766E+03  0.00000000000E+00 0. -1.
</event>
<event>
 4    1  0.8931296E+003  0.2563976E+02  0.7546771E-02  0.1461772E+00
          2   -1    0    0  502    0  0.00000000000E+00  0.00000000000E+00  0.14370074980E+04  0.14370074980E+04  0.00000000000E+00 0. -1.
          2   -1    0    0  501    0 -0.00000000000E+00 -0.00000000000E+00 -0.22986267637E+01  0.22986267637E+01  0.00000000000E+00 0. -1.
          2    1    1    2  501    0  0.18224451854E+02 -0.18035147353E+02  0.13614251665E+04  0.13616665822E+04  0.00000000000E+00 0. -1.
          2    1    1    2  502    0 -0.18224451854E+02  0.18035147353E+02  0.73283704808E+02  0.77639542604E+02  0.00000000000E+00 0. -1.
</event>
<event>
 4    1  0.8931296E+003  0.2172152E+02  0.7546771E-02  0.1509208E+00
          2   -1    0    0  502    0  0.00000000000E+00  0.00000000000E+00  0.64138964678E+01  0.64138964678E+01  0.00000000000E+00 0.  1.
          2   -1    0    0  501    0 -0.00000000000E+00 -0.00000000000E+00 -0.26630271991E+03  0.26630271991E+03  0.00000000000E+00 0. -1.
          2    1    1    2  501    0 -0.13920467352E+02 -0.16674681903E+02 -0.13938640074E+02  0.25809109147E+02  0.00000000000E+00 0.  1.
          2    1    1    2  502    0  0.13920467352E+02  0.16674681903E+02 -0.24595018337E+03  0.24690750723E+03  0.00000000000E+00 0. -1.
</event>
<event>
 4    1  0.8931296E+003  0.2855405E+02  0.7546771E-02  0.1432592E+00
          2   -1    0    0  501    0  0.00000000000E+00  0.00000000000E+00  0.96393527357E+03  0.96393527357E+03  0.00000000000E+00 0. -1.
          2   -1    0    0  502    0 -0.00000000000E+00 -0.00000000000E+00 -0.69106451737E+01  0.69106451737E+01  0.00000000000E+00 0.  1.
          2    1    1    2  501    0  0.20198368793E+02  0.20183147498E+02  0.23765675339E+02  0.37150247228E+02  0.00000000000E+00 0.  1.
          2    1    1    2  502    0 -0.20198368793E+02 -0.20183147498E+02  0.93325895306E+03  0.93369567152E+03  0.00000000000E+00 0. -1.
</event>
<event>
 4    1  0.8931296E+003  0.2860504E+02  0.7546771E-02  0.1432119E+00
          2   -1    0    0  501    0  0.00000000000E+00  0.00000000000E+00  0.26995714489E+02  0.26995714489E+02  0.00000000000E+00 0. -1.
          2   -1    0    0  502    0 -0.00000000000E+00 -0.00000000000E+00 -0.31074807221E+02  0.31074807221E+02  0.00000000000E+00 0. -1.
          2    1    1    2  501    0 -0.17413740770E+02 -0.22693826083E+02 -0.65937590244E+01  0.29355165950E+02  0.00000000000E+00 0. -1.
          2    1    1    2  502    0  0.17413740770E+02  0.22693826083E+02  0.25146662930E+01  0.28715355760E+02  0.00000000000E+00 0. -1.
</event>
<event>
 4    1  0.8931296E+003  0.2665267E+02  0.7546771E-02  0.1451129E+00
          2   -1    0    0  501    0  0.00000000000E+00  0.00000000000E+00  0.49215039723E+01  0.49215039723E+01  0.00000000000E+00 0. -1.
          2   -1    0    0  502    0 -0.00000000000E+00 -0.00000000000E+00 -0.12753352154E+04  0.12753352154E+04  0.00000000000E+00 0.  1.
          2    1    1    2  501    0 -0.35937480326E+01 -0.26409277416E+02 -0.12380238237E+04  0.12383106852E+04  0.00000000000E+00 0.  1.
          2    1    1    2  502    0  0.35937480326E+01  0.26409277416E+02 -0.32389887745E+02  0.41946034219E+02  0.00000000000E+00 0. -1.
</event>
<event>
 4    1  0.8931296E+003  0.2336938E+02  0.7546771E-02  0.1487911E+00
          2   -1    0    0  501    0  0.00000000000E+00  0.00000000000E+00  0.12988316522E+02  0.12988316522E+02  0.00000000000E+00 0.  1.
          2   -1    0    0  502    0 -0.00000000000E+00 -0.00000000000E+00 -0.76535943524E+02  0.76535943524E+02  0.00000000000E+00 0.  1.
          2    1    1    2  501    0 -0.21835287356E+02 -0.83275448847E+01 -0.61821710074E+02  0.66091237045E+02  0.00000000000E+00 0.  1.
          2    1    1    2  502    0  0.21835287356E+02  0.83275448847E+01 -0.17259169285E+01  0.23433023001E+02  0.00000000000E+00 0.  1.
</event>
<event>
 4    1  0.8931296E+003  0.4052551E+02  0.7546771E-02  0.1345434E+00
          2   -1    0    0  502    0  0.00000000000E+00  0.00000000000E+00  0.18949084158E+02  0.18949084158E+02  0.00000000000E+00 0.  1.
          2   -1    0    0  501    0 -0.00000000000E+00 -0.00000000000E+00 -0.18614799487E+04  0.18614799487E+04  0.00000000000E+00 0.  1.
          2    1    1    2  501    0 -0.25637993774E+02 -0.31384874393E+02 -0.31998662588E+01  0.40651644610E+02  0.00000000000E+00 0.  1.
          2    1    1    2  502    0  0.25637993774E+02  0.31384874393E+02 -0.18393309983E+04  0.18397773883E+04  0.00000000000E+00 0.  1.
</event>
<event>
 4    1  0.8931296E+003  0.2777016E+02  0.7546771E-02  0.1440021E+00
          2   -1    0    0  501    0  0.00000000000E+00  0.00000000000E+00  0.23163669624E+04  0.23163669624E+04  0.00000000000E+00 0.  1.
          2   -1    0    0  502    0 -0.00000000000E+00 -0.00000000000E+00 -0.43105498264E+00  0.43105498264E+00  0.00000000000E+00 0.  1.
          2    1    1    2  501    0  0.21707704194E+02  0.17319270443E+02  0.60527000691E+03  0.60590672781E+03  0.00000000000E+00 0.  1.
          2    1    1    2  502    0 -0.21707704194E+02 -0.17319270443E+02  0.17106659005E+04  0.17108912895E+04  0.00000000000E+00 0.  1.
</event>
<event>
 4    1  0.8931296E+003  0.2350675E+02  0.7546771E-02  0.1486231E+00
          2   -1    0    0  501    0  0.00000000000E+00  0.00000000000E+00  0.16172581002E+04  0.16172581002E+04  0.00000000000E+00 0. -1.
          2   -1    0    0  502    0 -0.00000000000E+00 -0.00000000000E+00 -0.17141825145E+01  0.17141825145E+01  0.00000000000E+00 0.  1.
          2    1    1    2  501    0  0.63245863105E+01 -0.22639939518E+02  0.83437455148E+02  0.86685501527E+02  0.00000000000E+00 0.  1.
          2    1    1    2  502    0 -0.63245863105E+01  0.22639939518E+02  0.15321064625E+04  0.15322867812E+04  0.00000000000E+00 0. -1.
</event>
<event>
 4    1  0.8931296E+003  0.2436656E+02  0.7546771E-02  0.1476016E+00
          2   -1    0    0  502    0  0.00000000000E+00  0.00000000000E+00  0.77089179001E+03  0.77089179001E+03  0.00000000000E+00 0.  1.
          2   -1    0    0  501    0 -0.00000000000E+00 -0.00000000000E+00 -0.40638877857E+01  0.40638877857E+01  0.00000000000E+00 0. -1.
          2    1    1    2  501    0  0.44326103077E+00  0.24362529891E+02  0.73224747438E+03  0.73265277798E+03  0.00000000000E+00 0.  1.
          2    1    1    2  502    0 -0.44326103077E+00 -0.24362529891E+02  0.34580427842E+02  0.42302899815E+02  0.00000000000E+00 0. -1.
</event>
<event>
 4    1  0.8931296E+003  0.2031945E+02  0.7546771E-02  0.1529207E+00
          2   -1    0    0  502    0  0.00000000000E+00  0.00000000000E+00  0.18510908967E+03  0.18510908967E+03  0.00000000000E+00 0. -1.
          2   -1    0    0  501    0 -0.00000000000E+00 -0.00000000000E+00 -0.46687831743E+02  0.46687831743E+02  0.00000000000E+00 0. -1.
          2    1    1    2  501    0 -0.17797436393E+02 -0.98046470100E+01  0.18230673962E+03  0.18343562129E+03  0.00000000000E+00 0. -1.
          2    1    1    2  502    0  0.17797436393E+02  0.98046470100E+01 -0.43885481701E+02  0.48361300120E+02  0.00000000000E+00 0. -1.
</event>
<event>
 4    1  0.8931296E+003  0.2945336E+02  0.7546771E-02  0.1424407E+00
          2   -1    0    0  502    0  0.00000000000E+00  0.00000000000E+00  0.60596467463E+02  0.60596467463E+02  0.00000000000E+00 0. -1.
          2   -1    0    0  501    0 -0.00000000000E+00 -0.00000000000E+00 -0.11615642840E+03  0.11615642840E+03  0.00000000000E+00 0. -1.
          2    1    1    2  501    0  0.28917162285E+02 -0.55944528281E+01  0.54971350115E+02  0.62364649526E+02  0.00000000000E+00 0. -1.
          2    1    1    2  502    0 -0.28917162285E+02  0.55944528281E+01 -0.11053131105E+03  0.11438824634E+03  0.00000000000E+00 0. -1.
</event>
<event>
 4    1  0.8931296E+003  0.2013646E+02  0.7546771E-02  0.1531960E+00
          2   -1    0    0  501    0  0.00000000000E+00  0.00000000000E+00  0.45811990941E+03  0.45811990941E+03  0.00000000000E+00 0. -1.
          2   -1    0    0  502    0 -0.00000000000E+00 -0.00000000000E+00 -0.25913309429E+01  0.25913309429E+01  0.00000000000E+00 0. -1.
          2    1    1    2  501    0 -0.46791501353E+01 -0.19585259862E+02  0.40843463565E+02  0.45537516026E+02  0.00000000000E+00 0. -1.
          2    1    1    2  502    0  0.46791501353E+01  0.19585259862E+02  0.41468511490E+03  0.41517372433E+03  0.00000000000E+00 0. -1.
</event>
<event>
 4    1  0.8931296E+003  0.2259664E+02  0.7546771E-02  0.1497626E+00
          2   -1    0    0  501    0  0.00000000000E+00  0.00000000000E+00  0.32100382637E+03  0.32100382637E+03  0.00000000000E+00 0. -1.
          2   -1    0    0  502    0 -0.00000000000E+00 -0.00000000000E+00 -0.19059120210E+01  0.19059120210E+01  0.00000000000E+00 0. -1.
          2    1    1    2  501    0  0.21184756145E+02 -0.78622044210E+01  0.93884822923E+02  0.96565874544E+02  0.00000000000E+00 0. -1.
          2    1    1    2  502    0 -0.21184756145E+02  0.78622044210E+01  0.22521309142E+03  0.22634386384E+03  0.00000000000E+00 0. -1.
</event>
<event>
 4    1  0.8931296E+003  0.2579852E+02  0.7546771E-02  0.1460065E+00
          2   -1    0    0  502    0  0.00000000000E+00  0.00000000000E+00  0.54161342464E+03  0.54161342464E+03  0.00000000000E+00 0.  1.
          2   -1    0    0  501    0 -0.00000000000E+00 -0.00000000000E+00 -0.10914426683E+02  0.10914426683E+02  0.00000000000E+00 0. -1.
          2    1    1    2  501    0 -0.22094066946E+01 -0.25703735595E+02  0.52559688762E+03  0.52622965688E+03  0.00000000000E+00 0.  1.
          2    1    1    2  502    0  0.22094066946E+01  0.25703735595E+02  0.51021103434E+01  0.26298194452E+02  0.00000000000E+00 0. -1.
</event>
<event>
 4    1  0.8931296E+003  0.2939385E+02  0.7546771E-02  0.1424938E+00
          2   -1    0    0  501    0  0.00000000000E+00  0.00000000000E+00  0.46996192359E+03  0.46996192359E+03  0.00000000000E+00 0.  1.
          2   -1    0    0  502    0 -0.00000000000E+00 -0.00000000000E+00 -0.11218134361E+02  0.11218134361E+02  0.00000000000E+00 0. -1.
          2    1    1    2  501    0 -0.15572508079E+01 -0.29352567848E+02  0.93775194482E+01  0.30853462372E+02  0.00000000000E+00 0. -1.
          2    1    1    2  502    0  0.15572508079E+01  0.29352567848E+02  0.44936626979E+03  0.45032659558E+03  0.00000000000E+00 0.  1.
</event>
<event>
 4    1  0.8931296E+003  0.4044505E+02  0.7546771E-02  0.1345897E+00
          2   -1    0    0  502    0  0.00000000000E+00  0.00000000000E+00  0.21433059115E+04  0.21433059115E+04  0.00000000000E+00 0.  1.
          2   -1    0    0  501    0 -0.00000000000E+00 -0.00000000000E+00 -0.82633701658E+02  0.82633701658E+02  0.00000000000E+00 0.  1.
          2    1    1    2  501    0 -0.37167880871E+02  0.15948364517E+02  0.21381542305E+04  0.21385367229E+04  0.00000000000E+00 0.  1.
          2    1    1    2  502    0  0.37167880871E+02 -0.15948364517E+02 -0.77482020672E+02  0.87402890264E+02  0.00000000000E+00 0.  1.
</event>
<event>
 4    1  0.8931296E+003  0.3350474E+02  0.7546771E-02  0.1391391E+00
          2   -1    0    0  501    0  0.00000000000E+00  0.00000000000E+00  0.23715890345E+02  0.23715890345E+02  0.00000000000E+00 0. -1.
          2   -1    0    0  502    0 -0.00000000000E+00 -0.00000000000E+00 -0.20902367013E+04  0.20902367013E+04  0.00000000000E+00 0. -1.
          2    1    1    2  501    0  0.16512426785E+02 -0.29153174354E+02 -0.20782004080E+04  0.20784704722E+04  0.00000000000E+00 0. -1.
          2    1    1    2  502    0 -0.16512426785E+02  0.29153174354E+02  0.11679597077E+02  0.35482119457E+02  0.00000000000E+00 0. -1.
</event>
<event>
 4    1  0.8931296E+003  0.3244459E+02  0.7546771E-02  0.1399477E+00
          2   -1    0    0  502    0  0.00000000000E+00  0.00000000000E+00  0.25572057639E+03  0.25572057639E+03  0.00000000000E+00 0. -1.
          2   -1    0    0  501    0 -0.00000000000E+00 -0.00000000000E+00 -0.98562229687E+01  0.98562229687E+01  0.00000000000E+00 0. -1.
          2    1    1    2  501    0  0.26628770557E+02 -0.18535378340E+02  0.22426580887E+03  0.22660053994E+03  0.00000000000E+00 0. -1.
          2    1    1    2  502    0 -0.26628770557E+02  0.18535378340E+02  0.21598544545E+02  0.38976259416E+02  0.00000000000E+00 0. -1.
</event>
<event>
 4    1  0.8931296E+003  0.2095815E+02  0.7546771E-02  0.1519863E+00
          2   -1    0    0  501    0  0.00000000000E+00  0.00000000000E+00  0.14347268406E+02  0.14347268406E+02  0.00000000000E+00 0.  1.
          2   -1    0    0  502    0 -0.00000000000E+00 -0.00000000000E+00 -0.34429603951E+03  0.34429603951E+03  0.00000000000E+00 0.  1.
          2    1    1    2  501    0  0.20298271197E+02  0.52176772020E+01 -0.33613772197E+03  0.33679045726E+03  0.00000000000E+00 0.  1.
          2    1    1    2  502    0 -0.20298271197E+02 -0.52176772020E+01  0.61889508668E+01  0.21852850656E+02  0.00000000000E+00 0.  1.
</event>
<event>
 4    1  0.8931296E+003  0.2950081E+02  0.7546771E-02  0.1423985E+00
          2   -1    0    0  501    0  0.00000000000E+00  0.00000000000E+00  0.11153521861E+04  0.11153521861E+04  0.00000000000E+00 0. -1.
          2   -1    0    0  502    0 -0.00000000000E+00 -0.00000000000E+00 -0.45752098658E+02  0.45752098658E+02  0.00000000000E+00 0.  1.
          2    1    1    2  501    0  0.17445264059E+02  0.23789928341E+02 -0.40780228328E+02  0.50332146299E+02  0.00000000000E+00 0.  1.
          2    1    1    2  502    0 -0.17445264059E+02 -0.23789928341E+02  0.11103803157E+04  0.11107721384E+04  0.00000000000E+00 0. -1.
</event>
<event>
 4    1  0.8931296E+003  0.2453149E+02  0.7546771E-02  0.1474113E+00
          2   -1    0    0  501    0  0.00000000000E+00  0.00000000000E+00  0.96063943844E+02  0.96063943844E+02  0.00000000000E+00 0. -1.
          2   -1    0    0  502    0 -0.00000000000E+00 -0.00000000000E+00 -0.37164196594E+02  0.37164196594E+02  0.00000000000E+00 0. -1.
          2    1    1    2  501    0 -0.77821141497E+01 -0.23264405946E+02 -0.31290940411E+02  0.39760744918E+02  0.00000000000E+00 0. -1.
          2    1    1    2  502    0  0.77821141497E+01  0.23264405946E+02  0.90190687660E+02  0.93467395520E+02  0.00000000000E+00 0. -1.
</event>
<event>
 4    1  0.8931296E+003  0.2988957E+02  0.7546771E-02  0.1420559E+00
          2   -1    0    0  501    0  0.00000000000E+00  0.00000000000E+00  0.27941843786E+02  0.27941843786E+02  0.00000000000E+00 0. -1.
          2   -1    0    0  502    0 -0.00000000000E+00 -0.00000000000E+00 -0.11032260466E+03  0.11032260466E+03  0.00000000000E+00 0. -1.
          2    1    1    2  501    0  0.27512963427E+02 -0.11680036382E+02 -0.99449846378E+02  0.10384439489E+03  0.00000000000E+00 0. -1.
          2    1    1    2  502    0 -0.27512963427E+02  0.11680036382E+02  0.17069085505E+02  0.34420053550E+02  0.00000000000E+00 0. -1.
</event>
<event>
 4    1  0.8931296E+003  0.2390377E+02  0.7546771E-02  0.1481451E+00
          2   -1    0    0  501    0  0.00000000000E+00  0.00000000000E+00  0.16289241544E+04  0.16289241544E+04  0.00000000000E+00 0. -1.
          2   -1    0    0  502    0 -0.00000000000E+00 -0.00000000000E+00 -0.21256710192E+01  0.21256710192E+01  0.00000000000E+00 0. -1.
          2    1    1    2  501    0  0.16597772352E+02 -0.17201870910E+02  0.68194991141E+02  0.72263041914E+02  0.00000000000E+00 0. -1.
          2    1    1    2  502    0 -0.16597772352E+02  0.17201870910E+02  0.15586034922E+04  0.15587867835E+04  0.00000000000E+00 0. -1.
</event>
<event>
 4    1  0.8931296E+003  0.3723579E+02  0.7546771E-02  0.1365492E+00
          2   -1    0    0  501    0  0.00000000000E+00  0.00000000000E+00  0.28539400954E+01  0.28539400954E+01  0.00000000000E+00 0.  1.
          2   -1    0    0  502    0 -0.00000000000E+00 -0.00000000000E+00 -0.11696643209E+04  0.11696643209E+04  0.00000000000E+00 0.  1.
          2    1    1    2  501    0  0.31184549219E+02 -0.20347685370E+02 -0.10316726985E+04  0.10323444490E+04  0.00000000000E+00 0.  1.
          2    1    1    2  502    0 -0.31184549219E+02  0.20347685370E+02 -0.13513768231E+03  0.14017381207E+03  0.00000000000E+00 0.  1.
</event>
<event>
 4    1  0.8931296E+003  0.2103241E+02  0.7546771E-02  0.1518803E+00
          2   -1    0    0  501    0  0.00000000000E+00  0.00000000000E+00  0.34752856267E+01  0.34752856267E+01  0.00000000000E+00 0. -1.
          2   -1    0    0  502    0 -0.00000000000E+00 -0.00000000000E+00 -0.10056204854E+04  0.10056204854E+04  0.00000000000E+00 0.  1.
          2    1    1    2  501    0 -0.20087858088E+02  0.62321975377E+01 -0.97260853475E+03  0.97283591844E+03  0.00000000000E+00 0.  1.
          2    1    1    2  502    0  0.20087858088E+02 -0.62321975377E+01 -0.29536664981E+02  0.36259852549E+02  0.00000000000E+00 0. -1.
</event>
<event>
 4    1  0.8931296E+003  0.3574798E+02  0.7546771E-02  0.1375380E+00
          2   -1    0    0  501    0  0.00000000000E+00  0.00000000000E+00  0.31731412719E+04  0.31731412719E+04  0.00000000000E+00 0.  1.
          2   -1    0    0  502    0 -0.00000000000E+00 -0.00000000000E+00 -0.62065952063E+00  0.62065952063E+00  0.00000000000E+00 0. -1.
          2    1    1    2  501    0  0.35287354981E+02 -0.57201790094E+01  0.64593941542E+03  0.64692785244E+03  0.00000000000E+00 0. -1.
          2    1    1    2  502    0 -0.35287354981E+02  0.57201790094E+01  0.25265811970E+04  0.25268340790E+04  0.00000000000E+00 0.  1.
</event>
<event>
 4    1  0.8931296E+003  0.2385707E+02  0.7546771E-02  0.1482007E+00
          2   -1    0    0  501    0  0.00000000000E+00  0.00000000000E+00  0.30599426793E+02  0.30599426793E+02  0.00000000000E+00 0.  1.
          2   -1    0    0  502    0 -0.00000000000E+00 -0.00000000000E+00 -0.16732824164E+03  0.16732824164E+03  0.00000000000E+00 0.  1.
          2    1    1    2  501    0  0.80493106639E+01  0.22458149530E+02 -0.16166579616E+03  0.16341661339E+03  0.00000000000E+00 0.  1.
          2    1    1    2  502    0 -0.80493106639E+01 -0.22458149530E+02  0.24936981321E+02  0.34511055039E+02  0.00000000000E+00 0.  1.
</event>
<event>
 4    1  0.8931296E+003  0.2027995E+02  0.7546771E-02  0.1529798E+00
          2   -1    0    0  502    0  0.00000000000E+00  0.00000000000E+00  0.32385928802E+01  0.32385928802E+01  0.00000000000E+00 0.  1.
          2   -1    0    0  501    0 -0.00000000000E+00 -0.00000000000E+00 -0.14231588289E+03  0.14231588289E+03  0.00000000000E+00 0.  1.
          2    1    1    2  501    0 -0.20263366038E+02 -0.82009449818E+00 -0.45657883525E+02  0.49959172192E+02  0.00000000000E+00 0.  1.
          2    1    1    2  502    0  0.20263366038E+02  0.82009449818E+00 -0.93419406487E+02  0.95595303580E+02  0.00000000000E+00 0.  1.
</event>
<event>
 4    1  0.8931296E+003  0.2653242E+02  0.7546771E-02  0.1452362E+00
          2   -1    0    0  502    0  0.00000000000E+00  0.00000000000E+00  0.49237518428E+02  0.49237518428E+02  0.00000000000E+00 0.  1.
          2   -1    0    0  501    0 -0.00000000000E+00 -0.00000000000E+00 -0.15877741197E+02  0.15877741197E+02  0.00000000000E+00 0. -1.
          2    1    1    2  501    0 -0.23648134285E+02  0.12030587794E+02  0.26951335260E+02  0.37819885908E+02  0.00000000000E+00 0.  1.
          2    1    1    2  502    0  0.23648134285E+02 -0.12030587794E+02  0.64084419714E+01  0.27295373717E+02  0.00000000000E+00 0. -1.
</event>
<event>
 4    1  0.8931296E+003  0.2515264E+02  0.7546771E-02  0.1467103E+00
          2   -1    0    0  501    0  0.00000000000E+00  0.00000000000E+00  0.14926808255E+04  0.14926808255E+04  0.00000000000E+00 0. -1.
          2   -1    0    0  502    0 -0.00000000000E+00 -0.00000000000E+00 -0.63963242682E+00  0.63963242682E+00  0.00000000000E+00 0. -1.
          2    1    1    2  501    0  0.21700181047E+02 -0.12718385130E+02  0.31233232462E+03  0.31334347955E+03  0.00000000000E+00 0. -1.
          2    1    1    2  502    0 -0.21700181047E+02  0.12718385130E+02  0.11797088685E+04  0.11799769784E+04  0.00000000000E+00 0. -1.
</event>
<event>
 4    1  0.8931296E+003  0.2265614E+02  0.7546771E-02  0.1496862E+00
          2   -1    0    0  502    0  0.00000000000E+00  0.00000000000E+00  0.16032497070E+03  0.16032497070E+03  0.00000000000E+00 0. -1.
          2   -1    0    0  501    0 -0.00000000000E+00 -0.00000000000E+00 -0.61706955805E+01  0.61706955805E+01  0.00000000000E+00 0. -1.
          2    1    1    2  501    0 -0.32318425536E+01 -0.22424451351E+02  0.13482234688E+03  0.13671271354E+03  0.00000000000E+00 0. -1.
          2    1    1    2  502    0  0.32318425536E+01  0.22424451351E+02  0.19331928244E+02  0.29782952747E+02  0.00000000000E+00 0. -1.
</event>
<event>
 4    1  0.8931296E+003  0.3315961E+02  0.7546771E-02  0.1393985E+00
          2   -1    0    0  502    0  0.00000000000E+00  0.00000000000E+00  0.43264183588E+03  0.43264183588E+03  0.00000000000E+00 0.  1.
          2   -1    0    0  501    0 -0.00000000000E+00 -0.00000000000E+00 -0.47010428382E+01  0.47010428382E+01  0.00000000000E+00 0. -1.
          2    1    1    2  501    0 -0.26343610959E+02  0.20138859799E+02  0.65760977658E+02  0.73648256564E+02  0.00000000000E+00 0. -1.
          2    1    1    2  502    0  0.26343610959E+02 -0.20138859799E+02  0.36217981538E+03  0.36369462215E+03  0.00000000000E+00 0.  1.
</event>
<event>
 4    1  0.8931296E+003  0.2237029E+02  0.7546771E-02  0.1500561E+00
          2   -1    0    0  502    0  0.00000000000E+00  0.00000000000E+00  0.14967956520E+01  0.14967956520E+01  0.00000000000E+00 0. -1.
          2   -1    0    0  501    0 -0.00000000000E+00 -0.00000000000E+00 -0.47633887469E+03  0.47633887469E+03  0.00000000000E+00 0. -1.
          2    1    1    2  501    0  0.18524131035E+02  0.12541384483E+02 -0.10697163387E+03  0.10928568162E+03  0.00000000000E+00 0. -1.
          2    1    1    2  502    0 -0.18524131035E+02 -0.12541384483E+02 -0.36787044517E+03  0.36854998872E+03  0.00000000000E+00 0. -1.
</event>
<event>
 4    1  0.8931296E+003  0.2169290E+02  0.7546771E-02  0.1509598E+00
          2   -1    0    0  502    0  0.00000000000E+00  0.00000000000E+00  0.20463065802E+01  0.20463065802E+01  0.00000000000E+00 0.  1.
          2   -1    0    0  501    0 -0.00000000000E+00 -0.00000000000E+00 -0.24620345235E+03  0.24620345235E+03  0.00000000000E+00 0.  1.
          2    1    1    2  501    0 -0.20285449087E+02 -0.76865189592E+01 -0.90202584393E+02  0.92774394364E+02  0.00000000000E+00 0.  1.
          2    1    1    2  502    0  0.20285449087E+02  0.76865189592E+01 -0.15395456138E+03  0.15547536457E+03  0.00000000000E+00 0.  1.
</event>
<event>
 4    1  0.8931296E+003  0.2148657E+02  0.7546771E-02  0.1512430E+00
          2   -1    0    0  502    0  0.00000000000E+00  0.00000000000E+00  0.57851858756E+03  0.57851858756E+03  0.00000000000E+00 0. -1.
          2   -1    0    0  501    0 -0.00000000000E+00 -0.00000000000E+00 -0.27939204631E+02  0.27939204631E+02  0.00000000000E+00 0.  1.
          2    1    1    2  501    0  0.11366676375E+02 -0.18233792312E+02  0.57415666263E+03  0.57455856599E+03  0.00000000000E+00 0. -1.
          2    1    1    2  502    0 -0.11366676375E+02  0.18233792312E+02 -0.23577279701E+02  0.31899226197E+02  0.00000000000E+00 0.  1.
</event>
<event>
 4    1  0.8931296E+003  0.2685949E+02  0.7546771E-02  0.1449025E+00
          2   -1    0    0  501    0  0.00000000000E+00  0.00000000000E+00  0.48421653379E+03  0.48421653379E+03  0.00000000000E+00 0.  1.
          2   -1    0    0  502    0 -0.00000000000E+00 -0.00000000000E+00 -0.25841578942E+02  0.25841578942E+02  0.00000000000E+00 0. -1.
          2    1    1    2  501    0  0.26449850326E+02 -0.46730754664E+01 -0.18380593406E+02  0.32546557890E+02  0.00000000000E+00 0. -1.
          2    1    1    2  502    0 -0.26449850326E+02  0.46730754664E+01  0.47675554825E+03  0.47751155484E+03  0.00000000000E+00 0.  1.
</event>
<event>
 4    1  0.8931296E+003  0.2106689E+02  0.7546771E-02  0.1518312E+00
          2   -1    0    0  501    0  0.00000000000E+00  0.00000000000E+00  0.55314308904E+03  0.55314308904E+03  0.00000000000E+00 0. -1.
          2   -1    0    0  502    0 -0.00000000000E+00 -0.00000000000E+00 -0.32737685904E+01  0.32737685904E+01  0.00000000000E+00 0. -1.
          2    1    1    2  501    0  0.10795067286E+02 -0.18090891202E+02  0.33210792620E+02  0.39329004165E+02  0.00000000000E+00 0. -1.
          2    1    1    2  502    0 -0.10795067286E+02  0.18090891202E+02  0.51665852783E+03  0.51708785347E+03  0.00000000000E+00 0. -1.
</event>
<event>
 4    1  0.8931296E+003  0.2019327E+02  0.7546771E-02  0.1531101E+00
          2   -1    0    0  501    0  0.00000000000E+00  0.00000000000E+00  0.60203781566E+01  0.60203781566E+01  0.00000000000E+00 0. -1.
          2   -1    0    0  502    0 -0.00000000000E+00 -0.00000000000E+00 -0.10284321311E+04  0.10284321311E+04  0.00000000000E+00 0. -1.
          2    1    1    2  501    0  0.16862584517E+01  0.20122741135E+02 -0.10111101177E+04  0.10113117414E+04  0.00000000000E+00 0. -1.
          2    1    1    2  502    0 -0.16862584517E+01 -0.20122741135E+02 -0.11301635267E+02  0.23140767880E+02  0.00000000000E+00 0. -1.
</event>
<event>
 4    1  0.8931296E+003  0.2158954E+02  0.7546771E-02  0.1511012E+00
          2   -1    0    0  502    0  0.00000000000E+00  0.00000000000E+00  0.83190976354E+00  0.83190976354E+00  0.00000000000E+00 0. -1.
          2   -1    0    0  501    0 -0.00000000000E+00 -0.00000000000E+00 -0.84184279824E+03  0.84184279824E+03  0.00000000000E+00 0. -1.
          2    1    1    2  501    0 -0.15956689641E+02 -0.14542769687E+02 -0.17683838470E+03  0.17815140302E+03  0.00000000000E+00 0. -1.
          2    1    1    2  502    0  0.15956689641E+02  0.14542769687E+02 -0.66417250378E+03  0.66452330499E+03  0.00000000000E+00 0. -1.
</event>
<event>
 4    1  0.8931296E+003  0.2863198E+02  0.7546771E-02  0.1431869E+00
          2   -1    0    0  502    0  0.00000000000E+00  0.00000000000E+00  0.19611099533E+04  0.19611099533E+04  0.00000000000E+00 0. -1.
          2   -1    0    0  501    0 -0.00000000000E+00 -0.00000000000E+00 -0.43754046328E+00  0.43754046328E+00  0.00000000000E+00 0. -1.
          2    1    1    2  501    0  0.21837319529E+02 -0.18518148334E+02  0.11874762999E+04  0.11878214315E+04  0.00000000000E+00 0. -1.
          2    1    1    2  502    0 -0.21837319529E+02  0.18518148334E+02  0.77319611297E+03  0.77372606229E+03  0.00000000000E+00 0. -1.
</event>
<event>
 4    1  0.8931296E+003  0.3642270E+02  0.7546771E-02  0.1370828E+00
          2   -1    0    0  502    0  0.00000000000E+00  0.00000000000E+00  0.28624555411E+01  0.28624555411E+01  0.00000000000E+00 0.  1.
          2   -1    0    0  501    0 -0.00000000000E+00 -0.00000000000E+00 -0.11223487310E+04  0.11223487310E+04  0.00000000000E+00 0. -1.
          2    1    1    2  501    0 -0.23119433283E+02  0.28144356366E+02 -0.12867238932E+03  0.13372807021E+03  0.00000000000E+00 0.  1.
          2    1    1    2  502    0  0.23119433283E+02 -0.28144356366E+02 -0.99081388612E+03  0.99148311630E+03  0.00000000000E+00 0. -1.
</event>
<event>
 4    1  0.8931296E+003  0.2577039E+02  0.7546771E-02  0.1460367E+00
          2   -1    0    0  501    0  0.00000000000E+00  0.00000000000E+00  0.38126637131E+03  0.38126637131E+03  0.00000000000E+00 0. -1.
          2   -1    0    0  502    0 -0.00000000000E+00 -0.00000000000E+00 -0.59211716463E+03  0.59211716463E+03  0.00000000000E+00 0.  1.
          2    1    1    2  501    0 -0.18942295978E+02  0.17472902051E+02 -0.59140077464E+03  0.59196198284E+03  0.00000000000E+00 0.  1.
          2    1    1    2  502    0  0.18942295978E+02 -0.17472902051E+02  0.38054998132E+03  0.38142155310E+03  0.00000000000E+00 0. -1.
</event>
<event>
 4    1  0.8931296E+003  0.2109953E+02  0.7546771E-02  0.1517849E+00
          2   -1    0    0  501    0  0.00000000000E+00  0.00000000000E+00  0.56089626100E+03  0.56089626100E+03  0.00000000000E+00 0. -1.
          2   -1    0    0  502    0 -0.00000000000E+00 -0.00000000000E+00 -0.19477143145E+01  0.19477143145E+01  0.00000000000E+00 0. -1.
          2    1    1    2  501    0  0.10147383911E+02  0.18499204998E+02  0.62854162367E+02  0.66301098879E+02  0.00000000000E+00 0. -1.
          2    1    1    2  502    0 -0.10147383911E+02 -0.18499204998E+02  0.49609438432E+03  0.49654287644E+03  0.00000000000E+00 0. -1.
</event>
<event>
 4    1  0.8931296E+003  0.2410134E+02  0.7546771E-02  0.1479113E+00
          2   -1    0    0  501    0  0.00000000000E+00  0.00000000000E+00  0.23517009107E+02  0.23517009107E+02  0.00000000000E+00 0. -1.
          2   -1    0    0  502    0 -0.00000000000E+00 -0.00000000000E+00 -0.29057142662E+03  0.29057142662E+03  0.00000000000E+00 0. -1.
          2    1    1    2  501    0 -0.15706615196E+02 -0.18280502948E+02 -0.28374839165E+03  0.28477012539E+03  0.00000000000E+00 0. -1.
          2    1    1    2  502    0  0.15706615196E+02  0.18280502948E+02  0.16693974134E+02  0.29318310342E+02  0.00000000000E+00 0. -1.
</event>
<event>
 4    1  0.8931296E+003  0.2114391E+02  0.7546771E-02  0.1517220E+00
          2   -1    0    0  501    0  0.00000000000E+00  0.00000000000E+00  0.93809276414E+02  0.93809276414E+02  0.00000000000E+00 0. -1.
          2   -1    0    0  502    0 -0.00000000000E+00 -0.00000000000E+00 -0.69686493424E+01  0.69686493424E+01  0.00000000000E+00 0.  1.
          2    1    1    2  501    0  0.19001539991E+02 -0.92739562484E+01  0.15089075251E+02  0.25975853759E+02  0.00000000000E+00 0.  1.
          2    1    1    2  502    0 -0.19001539991E+02  0.92739562484E+01  0.71751551821E+02  0.74802071998E+02  0.00000000000E+00 0. -1.
</event>
<event>
 4    1  0.8931296E+003  0.3470103E+02  0.7546771E-02  0.1382677E+00
          2   -1    0    0  502    0  0.00000000000E+00  0.00000000000E+00  0.22025808602E+01  0.22025808602E+01  0.00000000000E+00 0. -1.
          2   -1    0    0  501    0 -0.00000000000E+00 -0.00000000000E+00 -0.57059130926E+03  0.57059130926E+03  0.00000000000E+00 0. -1.
          2    1    1    2  501    0  0.34540268157E+02  0.33363949204E+01 -0.22559652182E+03  0.22824975863E+03  0.00000000000E+00 0. -1.
          2    1    1    2  502    0 -0.34540268157E+02 -0.33363949204E+01 -0.34279220658E+03  0.34454413150E+03  0.00000000000E+00 0. -1.
</event>
<event>
 4    1  0.8931296E+003  0.4139713E+02  0.7546771E-02  0.1340488E+00
          2   -1    0    0  501    0  0.00000000000E+00  0.00000000000E+00  0.34049454218E+02  0.34049454218E+02  0.00000000000E+00 0.  1.
          2   -1    0    0  502    0 -0.00000000000E+00 -0.00000000000E+00 -0.76073694036E+02  0.76073694036E+02  0.00000000000E+00 0.  1.
          2    1    1    2  501    0  0.12894910410E+02  0.39337558861E+02 -0.53042605867E+02  0.67284770110E+02  0.00000000000E+00 0.  1.
          2    1    1    2  502    0 -0.12894910410E+02 -0.39337558861E+02  0.11018366050E+02  0.42838378144E+02  0.00000000000E+00 0.  1.
</event>
<event>
 4    1  0.8931296E+003  0.4895965E+02  0.7546771E-02  0.1302747E+00
          2   -1    0    0  501    0  0.00000000000E+00  0.00000000000E+00  0.49513292470E+03  0.49513292470E+03  0.00000000000E+00 0. -1.
          2   -1    0    0  502    0 -0.00000000000E+00 -0.00000000000E+00 -0.80512419522E+03  0.80512419522E+03  0.00000000000E+00 0.  1.
          2    1    1    2  501    0  0.36689193703E+02  0.32418368225E+02 -0.80316663314E+03  0.80465749740E+03  0.00000000000E+00 0.  1.
          2    1    1    2  502    0 -0.36689193703E+02 -0.32418368225E+02  0.49317536263E+03  0.49559962252E+03  0.00000000000E+00 0. -1.
</event>
<event>
 4    1  0.8931296E+003  0.2005955E+02  0.7546771E-02  0.1533127E+00
          2   -1    0    0  501    0  0.00000000000E+00  0.00000000000E+00  0.10702978251E+02  0.10702978251E+02  0.00000000000E+00 0. -1.
          2   -1    0    0  502    0 -0.00000000000E+00 -0.00000000000E+00 -0.47732208744E+02  0.47732208744E+02  0.00000000000E+00 0. -1.
          2    1    1    2  501    0  0.35386646949E+01 -0.19744959215E+02 -0.31978911895E+02  0.37749653882E+02  0.00000000000E+00 0. -1.
          2    1    1    2  502    0 -0.35386646949E+01  0.19744959215E+02 -0.50503185982E+01  0.20685533113E+02  0.00000000000E+00 0. -1.
</event>
<event>
 4    1  0.8931296E+003  0.2037996E+02  0.7546771E-02  0.1528304E+00
          2   -1    0    0  502    0  0.00000000000E+00  0.00000000000E+00  0.12488379771E+04  0.12488379771E+04  0.00000000000E+00 0. -1.
          2   -1    0    0  501    0 -0.00000000000E+00 -0.00000000000E+00 -0.42131896978E+01  0.42131896978E+01  0.00000000000E+00 0. -1.
          2    1    1    2  501    0  0.12178379064E+02  0.16341049200E+02  0.12236011650E+04  0.12237708747E+04  0.00000000000E+00 0. -1.
          2    1    1    2  502    0 -0.12178379064E+02 -0.16341049200E+02  0.21023622395E+02  0.29280292078E+02  0.00000000000E+00 0. -1.
</event>
<event>
 4    1  0.8931296E+003  0.2469378E+02  0.7546771E-02  0.1472258E+00
          2   -1    0    0  502    0  0.00000000000E+00  0.00000000000E+00  0.35288009221E+03  0.35288009221E+03  0.00000000000E+00 0.  1.
          2   -1    0    0  501    0 -0.00000000000E+00 -0.00000000000E+00 -0.53732739563E+01  0.53732739563E+01  0.00000000000E+00 0. -1.
          2    1    1    2  501    0 -0.74717233636E+01  0.23536276315E+02  0.32129173116E+03  0.32223928914E+03  0.00000000000E+00 0.  1.
          2    1    1    2  502    0  0.74717233636E+01 -0.23536276315E+02  0.26215087091E+02  0.36014077025E+02  0.00000000000E+00 0. -1.
</event>
<event>
 4    1  0.8931296E+003  0.2236790E+02  0.7546771E-02  0.1500592E+00
          2   -1    0    0  502    0  0.00000000000E+00  0.00000000000E+00  0.43814979338E+02  0.43814979338E+02  0.00000000000E+00 0. -1.
          2   -1    0    0  501    0 -0.00000000000E+00 -0.00000000000E+00 -0.17869380277E+02  0.17869380277E+02  0.00000000000E+00 0. -1.
          2    1    1    2  501    0  0.47457605490E+01  0.21858653835E+02  0.31503130535E+02  0.38636384719E+02  0.00000000000E+00 0. -1.
          2    1    1    2  502    0 -0.47457605490E+01 -0.21858653835E+02 -0.55575314742E+01  0.23047974895E+02  0.00000000000E+00 0. -1.
</event>
<event>
 4    1  0.8931296E+003  0.3787263E+02  0.7546771E-02  0.1361424E+00
          2   -1    0    0  502    0  0.00000000000E+00  0.00000000000E+00  0.98211392002E+03  0.98211392002E+03  0.00000000000E+00 0.  1.
          2   -1    0    0  501    0 -0.00000000000E+00 -0.00000000000E+00 -0.54909837950E+02  0.54909837950E+02  0.00000000000E+00 0. -1.
          2    1    1    2  501    0  0.31593629426E+02 -0.20884887000E+02  0.97517192061E+03  0.97590707072E+03  0.00000000000E+00 0.  1.
          2    1    1    2  502    0 -0.31593629426E+02  0.20884887000E+02 -0.47967838547E+02  0.61116687248E+02  0.00000000000E+00 0. -1.
</event>
<event>
 4    1  0.8931296E+003  0.2287968E+02  0.7546771E-02  0.1494015E+00
          2   -1    0    0  501    0  0.00000000000E+00  0.00000000000E+00  0.64781643642E+02  0.64781643642E+02  0.00000000000E+00 0.  1.
          2   -1    0    0  502    0 -0.00000000000E+00 -0.00000000000E+00 -0.14313442269E+02  0.14313442269E+02  0.00000000000E+00 0. -1.
          2    1    1    2  501    0 -0.14312454369E+02 -0.17850305133E+02 -0.86272809305E+00  0.22895939447E+02  0.00000000000E+00 0. -1.
          2    1    1    2  502    0  0.14312454369E+02  0.17850305133E+02  0.51330929466E+02  0.56199146464E+02  0.00000000000E+00 0.  1.
</event>
<event>
 4    1  0.8931296E+003  0.2011560E+02  0.7546771E-02  0.1532276E+00
          2   -1    0    0  502    0  0.00000000000E+00  0.00000000000E+00  0.37472626253E+03  0.37472626253E+03  0.00000000000E+00 0. -1.
          2   -1    0    0  501    0 -0.00000000000E+00 -0.00000000000E+00 -0.49728458060E+03  0.49728458060E+03  0.00000000000E+00 0.  1.
          2    1    1    2  501    0  0.20085542065E+02  0.10992310273E+01  0.37425262659E+03  0.37479283053E+03  0.00000000000E+00 0. -1.
          2    1    1    2  502    0 -0.20085542065E+02 -0.10992310273E+01 -0.49681094467E+03  0.49721801260E+03  0.00000000000E+00 0.  1.
</event>
<event>
 4    1  0.1163651E+004  0.2508487E+02  0.7546771E-02  0.1467856E+00
          2   -1    0    0  502    0  0.00000000000E+00  0.00000000000E+00  0.12038264131E+04  0.12038264131E+04  0.00000000000E+00 0.  1.
          2   -1    0    0  501    0 -0.00000000000E+00 -0.00000000000E+00 -0.40830258824E+03  0.40830258824E+03  0.00000000000E+00 0. -1.
          2    1    1    2  501    0  0.14175795164E+02 -0.20695350267E+02  0.12033102861E+04  0.12035717242E+04  0.00000000000E+00 0.  1.
          2    1    1    2  502    0 -0.14175795164E+02  0.20695350267E+02 -0.40778646126E+03  0.40855727711E+03  0.00000000000E+00 0. -1.
</event>
<event>
 4    1  0.8931296E+003  0.2093866E+02  0.7546771E-02  0.1520142E+00
          2   -1    0    0  501    0  0.00000000000E+00  0.00000000000E+00  0.65939130759E+03  0.65939130759E+03  0.00000000000E+00 0.  1.
          2   -1    0    0  502    0 -0.00000000000E+00 -0.00000000000E+00 -0.38923608208E+01  0.38923608208E+01  0.00000000000E+00 0. -1.
          2    1    1    2  501    0 -0.45862719936E+01 -0.20430214254E+02  0.25758870784E+02  0.33195586595E+02  0.00000000000E+00 0. -1.
          2    1    1    2  502    0  0.45862719936E+01  0.20430214254E+02  0.62974007598E+03  0.63008808181E+03  0.00000000000E+00 0.  1.
</event>
<event>
 4    1  0.8931296E+003  0.2288532E+02  0.7546771E-02  0.1493943E+00
          2   -1    0    0  502    0  0.00000000000E+00  0.00000000000E+00  0.10703547668E+04  0.10703547668E+04  0.00000000000E+00 0.  1.
          2   -1    0    0  501    0 -0.00000000000E+00 -0.00000000000E+00 -0.45356101554E+02  0.45356101554E+02  0.00000000000E+00 0. -1.
          2    1    1    2  501    0  0.82969256339E+01  0.21328362091E+02  0.10673374676E+04  0.10675827873E+04  0.00000000000E+00 0.  1.
          2    1    1    2  502    0 -0.82969256339E+01 -0.21328362091E+02 -0.42338802334E+02  0.48128081071E+02  0.00000000000E+00 0. -1.
</event>
<event>
 4    1  0.1399921E+004  0.3410803E+02  0.7546771E-02  0.1386945E+00
          2   -1    0    0  501    0  0.00000000000E+00  0.00000000000E+00  0.98012582801E+03  0.98012582801E+03  0.00000000000E+00 0.  1.
          2   -1    0    0  502    0 -0.00000000000E+00 -0.00000000000E+00 -0.17639468157E+04  0.17639468157E+04  0.00000000000E+00 0.  1.
          2    1    1    2  501    0  0.23701873183E+02 -0.24527101738E+02 -0.17634851214E+04  0.17638149367E+04  0.00000000000E+00 0.  1.
          2    1    1    2  502    0 -0.23701873183E+02  0.24527101738E+02  0.97966413365E+03  0.98025770708E+03  0.00000000000E+00 0.  1.
</event>
<event>
 4    1  0.8931296E+003  0.2207485E+02  0.7546771E-02  0.1504454E+00
          2   -1    0    0  502    0  0.00000000000E+00  0.00000000000E+00  0.47106161485E+03  0.47106161485E+03  0.00000000000E+00 0.  1.
          2   -1    0    0  501    0 -0.00000000000E+00 -0.00000000000E+00 -0.14658922788E+01  0.14658922788E+01  0.00000000000E+00 0.  1.
          2    1    1    2  501    0  0.13468491731E+02 -0.17489955832E+02  0.36297118863E+03  0.36364183285E+03  0.00000000000E+00 0.  1.
          2    1    1    2  502    0 -0.13468491731E+02  0.17489955832E+02  0.10662453394E+03  0.10888567428E+03  0.00000000000E+00 0.  1.
</event>
<event>
 4    1  0.8931296E+003  0.5104092E+02  0.7546771E-02  0.1293721E+00
          2   -1    0    0  502    0  0.00000000000E+00  0.00000000000E+00  0.41604177742E+02  0.41604177742E+02  0.00000000000E+00 0. -1.
          2   -1    0    0  501    0 -0.00000000000E+00 -0.00000000000E+00 -0.31022814239E+03  0.31022814239E+03  0.00000000000E+00 0. -1.
          2    1    1    2  501    0  0.30197494133E+02 -0.41149567957E+02  0.22850632514E+02  0.55922508896E+02  0.00000000000E+00 0. -1.
          2    1    1    2  502    0 -0.30197494133E+02  0.41149567957E+02 -0.29147459717E+03  0.29590981124E+03  0.00000000000E+00 0. -1.
</event>
<event>
 4    1  0.8931296E+003  0.2403590E+02  0.7546771E-02  0.1479884E+00
          2   -1    0    0  501    0  0.00000000000E+00  0.00000000000E+00  0.20066826058E+02  0.20066826058E+02  0.00000000000E+00 0. -1.
          2   -1    0    0  502    0 -0.00000000000E+00 -0.00000000000E+00 -0.14269223606E+03  0.14269223606E+03  0.00000000000E+00 0.  1.
          2    1    1    2  501    0 -0.18702692175E+02 -0.15097470256E+02 -0.13402052108E+03  0.13615882040E+03  0.00000000000E+00 0.  1.
          2    1    1    2  502    0  0.18702692175E+02  0.15097470256E+02  0.11395111081E+02  0.26600241714E+02  0.00000000000E+00 0. -1.
</event>
<event>
 4    1  0.8931296E+003  0.2042002E+02  0.7546771E-02  0.1527709E+00
          2   -1    0    0  501    0  0.00000000000E+00  0.00000000000E+00  0.24039500395E+03  0.24039500395E+03  0.00000000000E+00 0. -1.
          2   -1    0    0  502    0 -0.00000000000E+00 -0.00000000000E+00 -0.10480598653E+02  0.10480598653E+02  0.00000000000E+00 0. -1.
          2    1    1    2  501    0  0.15656519917E+00 -0.20419419875E+02  0.36862585874E+00  0.20423347074E+02  0.00000000000E+00 0. -1.
          2    1    1    2  502    0 -0.15656519917E+00  0.20419419875E+02  0.22954577943E+03  0.23045225552E+03  0.00000000000E+00 0. -1.
</event>
<event>
 4    1  0.8931296E+003  0.2392162E+02  0.7546771E-02  0.1481239E+00
          2   -1    0    0  501    0  0.00000000000E+00  0.00000000000E+00  0.25351386416E+03  0.25351386416E+03  0.00000000000E+00 0.  1.
          2   -1    0    0  502    0 -0.00000000000E+00 -0.00000000000E+00 -0.21244536179E+03  0.21244536179E+03  0.00000000000E+00 0.  1.
          2    1    1    2  501    0 -0.20307110574E+01 -0.23835268197E+02 -0.21120434323E+03  0.21255474212E+03  0.00000000000E+00 0.  1.
          2    1    1    2  502    0  0.20307110574E+01  0.23835268197E+02  0.25227284560E+03  0.25340448383E+03  0.00000000000E+00 0.  1.
</event>
<event>
 4    1  0.8931296E+003  0.4116116E+02  0.7546771E-02  0.1341813E+00
          2   -1    0    0  502    0  0.00000000000E+00  0.00000000000E+00  0.56341626529E+03  0.56341626529E+03  0.00000000000E+00 0. -1.
          2   -1    0    0  501    0 -0.00000000000E+00 -0.00000000000E+00 -0.71598728729E+02  0.71598728729E+02  0.00000000000E+00 0.  1.
          2    1    1    2  501    0 -0.39948532993E+02  0.99174591820E+01  0.55667722427E+03  0.55819689475E+03  0.00000000000E+00 0. -1.
          2    1    1    2  502    0  0.39948532993E+02 -0.99174591820E+01 -0.64859687713E+02  0.76818099268E+02  0.00000000000E+00 0.  1.
</event>
<event>
 4    1  0.8931296E+003  0.3976312E+02  0.7546771E-02  0.1349879E+00
          2   -1    0    0  502    0  0.00000000000E+00  0.00000000000E+00  0.15477246823E+03  0.15477246823E+03  0.00000000000E+00 0. -1.
          2   -1    0    0  501    0 -0.00000000000E+00 -0.00000000000E+00 -0.16789212986E+03  0.16789212986E+03  0.00000000000E+00 0.  1.
          2    1    1    2  501    0 -0.25115583552E+00 -0.39762331595E+02  0.14978717525E+03  0.15497517208E+03  0.00000000000E+00 0. -1.
          2    1    1    2  502    0  0.25115583552E+00  0.39762331595E+02 -0.16290683688E+03  0.16768942601E+03  0.00000000000E+00 0.  1.
</event>
<event>
 4    1  0.8931296E+003  0.2826502E+02  0.7546771E-02  0.1435298E+00
          2   -1    0    0  502    0  0.00000000000E+00  0.00000000000E+00  0.16045177468E+03  0.16045177468E+03  0.00000000000E+00 0. -1.
          2   -1    0    0  501    0 -0.00000000000E+00 -0.00000000000E+00 -0.11422425474E+03  0.11422425474E+03  0.00000000000E+00 0.  1.
          2    1    1    2  501    0  0.10524164203E+02 -0.26232673725E+02  0.15742508054E+03  0.15994238708E+03  0.00000000000E+00 0. -1.
          2    1    1    2  502    0 -0.10524164203E+02  0.26232673725E+02 -0.11119756060E+03  0.11473364234E+03  0.00000000000E+00 0.  1.
</event>
<event>
 4    1  0.8931296E+003  0.2308297E+02  0.7546771E-02  0.1491459E+00
          2   -1    0    0  501    0  0.00000000000E+00  0.00000000000E+00  0.31883920674E+03  0.31883920674E+03  0.00000000000E+00 0.  1.
          2   -1    0    0  502    0 -0.00000000000E+00 -0.00000000000E+00 -0.57526562492E+01  0.57526562492E+01  0.00000000000E+00 0. -1.
          2    1    1    2  501    0  0.13473471980E+02  0.18742710712E+02  0.19838274066E+02  0.30436503905E+02  0.00000000000E+00 0. -1.
          2    1    1    2  502    0 -0.13473471980E+02 -0.18742710712E+02  0.29324827643E+03  0.29415535909E+03  0.00000000000E+00 0.  1.
</event>
<event>
 4    1  0.8931296E+003  0.2732397E+02  0.7546771E-02  0.1444381E+00
          2   -1    0    0  502    0  0.00000000000E+00  0.00000000000E+00  0.65641056520E+03  0.65641056520E+03  0.00000000000E+00 0.  1.
          2   -1    0    0  501    0 -0.00000000000E+00 -0.00000000000E+00 -0.12889870785E+01  0.12889870785E+01  0.00000000000E+00 0.  1.
          2    1    1    2  501    0 -0.58901797520E+01  0.26681550488E+02  0.44033473454E+03  0.44118168343E+03  0.00000000000E+00 0.  1.
          2    1    1    2  502    0  0.58901797520E+01 -0.26681550488E+02  0.21478684358E+03  0.21651786885E+03  0.00000000000E+00 0.  1.
</event>
<event>
 4    1  0.8931296E+003  0.3848354E+02  0.7546771E-02  0.1357609E+00
          2   -1    0    0  501    0  0.00000000000E+00  0.00000000000E+00  0.10147472585E+04  0.10147472585E+04  0.00000000000E+00 0. -1.
          2   -1    0    0  502    0 -0.00000000000E+00 -0.00000000000E+00 -0.25554424190E+01  0.25554424190E+01  0.00000000000E+00 0.  1.
          2    1    1    2  501    0  0.38365980461E+02 -0.30057818867E+01  0.17298495189E+03  0.17721392937E+03  0.00000000000E+00 0.  1.
          2    1    1    2  502    0 -0.38365980461E+02  0.30057818867E+01  0.83920686420E+03  0.84008877156E+03  0.00000000000E+00 0. -1.
</event>
<event>
 4    1  0.8931296E+003  0.2115027E+02  0.7546771E-02  0.1517130E+00
          2   -1    0    0  502    0  0.00000000000E+00  0.00000000000E+00  0.30809716908E+03  0.30809716908E+03  0.00000000000E+00 0.  1.
          2   -1    0    0  501    0 -0.00000000000E+00 -0.00000000000E+00 -0.25257307310E+02  0.25257307310E+02  0.00000000000E+00 0.  1.
          2    1    1    2  501    0 -0.20300859268E+02  0.59337331212E+01  0.30323551638E+03  0.30397222319E+03  0.00000000000E+00 0.  1.
          2    1    1    2  502    0  0.20300859268E+02 -0.59337331212E+01 -0.20395654614E+02  0.29382253197E+02  0.00000000000E+00 0.  1.
</event>
<event>
 4    1  0.8931296E+003  0.2238218E+02  0.7546771E-02  0.1500405E+00
          2   -1    0    0  501    0  0.00000000000E+00  0.00000000000E+00  0.99253672986E+01  0.99253672986E+01  0.00000000000E+00 0.  1.
          2   -1    0    0  502    0 -0.00000000000E+00 -0.00000000000E+00 -0.57188785957E+02  0.57188785957E+02  0.00000000000E+00 0.  1.
          2    1    1    2  501    0  0.51245269789E+01  0.21787635245E+02 -0.35131266982E+02  0.41655344748E+02  0.00000000000E+00 0.  1.
          2    1    1    2  502    0 -0.51245269789E+01 -0.21787635245E+02 -0.12132151676E+02  0.25458808507E+02  0.00000000000E+00 0.  1.
</event>
<event>
 4    1  0.8931296E+003  0.2613144E+02  0.7546771E-02  0.1456534E+00
          2   -1    0    0  502    0  0.00000000000E+00  0.00000000000E+00  0.29976274511E+01  0.29976274511E+01  0.00000000000E+00 0. -1.
          2   -1    0    0  501    0 -0.00000000000E+00 -0.00000000000E+00 -0.32618140821E+03  0.32618140821E+03  0.00000000000E+00 0.  1.
          2    1    1    2  501    0  0.24962463933E+02 -0.77283440664E+01 -0.71198910506E+02  0.75842842542E+02  0.00000000000E+00 0. -1.
          2    1    1    2  502    0 -0.24962463933E+02  0.77283440664E+01 -0.25198487026E+03  0.25333619312E+03  0.00000000000E+00 0.  1.
</event>
<event>
 4    1  0.8931296E+003  0.2490142E+02  0.7546771E-02  0.1469909E+00
          2   -1    0    0  502    0  0.00000000000E+00  0.00000000000E+00  0.63795208778E+02  0.63795208778E+02  0.00000000000E+00 0.  1.
          2   -1    0    0  501    0 -0.00000000000E+00 -0.00000000000E+00 -0.17530810929E+04  0.17530810929E+04  0.00000000000E+00 0.  1.
          2    1    1    2  501    0 -0.16555625746E+02  0.18600865029E+02  0.61273314321E+02  0.66140002809E+02  0.00000000000E+00 0.  1.
          2    1    1    2  502    0  0.16555625746E+02 -0.18600865029E+02 -0.17505591985E+04  0.17507362989E+04  0.00000000000E+00 0.  1.
</event>
<event>
 4    1  0.8931296E+003  0.2305212E+02  0.7546771E-02  0.1491845E+00
          2   -1    0    0  501    0  0.00000000000E+00  0.00000000000E+00  0.16364704547E+04  0.16364704547E+04  0.00000000000E+00 0. -1.
          2   -1    0    0  502    0 -0.00000000000E+00 -0.00000000000E+00 -0.23225573429E+01  0.23225573429E+01  0.00000000000E+00 0. -1.
          2    1    1    2  501    0 -0.10505408839E+02 -0.20519173402E+02  0.57114201997E+02  0.61590844789E+02  0.00000000000E+00 0. -1.
          2    1    1    2  502    0  0.10505408839E+02  0.20519173402E+02  0.15770336954E+04  0.15772021673E+04  0.00000000000E+00 0. -1.
</event>
<event>
 4    1  0.8931296E+003  0.3582863E+02  0.7546771E-02  0.1374829E+00
          2   -1    0    0  502    0  0.00000000000E+00  0.00000000000E+00  0.66055621439E+02  0.66055621439E+02  0.00000000000E+00 0. -1.
          2   -1    0    0  501    0 -0.00000000000E+00 -0.00000000000E+00 -0.72211492507E+02  0.72211492507E+02  0.00000000000E+00 0. -1.
          2    1    1    2  501    0  0.25196995930E+02  0.25471590884E+02  0.56025436665E+02  0.66502181164E+02  0.00000000000E+00 0. -1.
          2    1    1    2  502    0 -0.25196995930E+02 -0.25471590884E+02 -0.62181307732E+02  0.71764932783E+02  0.00000000000E+00 0. -1.
</event>
<event>
 4    1  0.8931296E+003  0.2325046E+02  0.7546771E-02  0.1489377E+00
          2   -1    0    0  502    0  0.00000000000E+00  0.00000000000E+00  0.37234933803E+02  0.37234933803E+02  0.00000000000E+00 0.  1.
          2   -1    0    0  501    0 -0.00000000000E+00 -0.00000000000E+00 -0.64611561846E+02  0.64611561846E+02  0.00000000000E+00 0.  1.
          2    1    1    2  501    0 -0.66247816210E+01 -0.22286684464E+02  0.31150186996E+02  0.38870531072E+02  0.00000000000E+00 0.  1.
          2    1    1    2  502    0  0.66247816210E+01  0.22286684464E+02 -0.58526815038E+02  0.62975964577E+02  0.00000000000E+00 0.  1.
</event>
<event>
 4    1  0.8931296E+003  0.2825282E+02  0.7546771E-02  0.1435414E+00
          2   -1    0    0  501    0  0.00000000000E+00  0.00000000000E+00  0.54109642312E+03  0.54109642312E+03  0.00000000000E+00 0. -1.
          2   -1    0    0  502    0 -0.00000000000E+00 -0.00000000000E+00 -0.43626918981E+03  0.43626918981E+03  0.00000000000E+00 0. -1.
          2    1    1    2  501    0  0.27672940263E+02  0.56947594575E+01 -0.43544227819E+03  0.43635788012E+03  0.00000000000E+00 0. -1.
          2    1    1    2  502    0 -0.27672940263E+02 -0.56947594575E+01  0.54026951149E+03  0.54100773281E+03  0.00000000000E+00 0. -1.
</event>
<event>
 4    1  0.8931296E+003  0.2188212E+02  0.7546771E-02  0.1507034E+00
          2   -1    0    0  502    0  0.00000000000E+00  0.00000000000E+00  0.24780352722E+03  0.24780352722E+03  0.00000000000E+00 0.  1.
          2   -1    0    0  501    0 -0.00000000000E+00 -0.00000000000E+00 -0.23816744253E+01  0.23816744253E+01  0.00000000000E+00 0.  1.
          2    1    1    2  501    0 -0.82744225303E+01  0.20257366434E+02  0.17704871967E+03  0.17839584104E+03  0.00000000000E+00 0.  1.
          2    1    1    2  502    0  0.82744225303E+01 -0.20257366434E+02  0.68373133125E+02  0.71789360607E+02  0.00000000000E+00 0.  1.
</event>
<event>
 4    1  0.8931296E+003  0.3400745E+02  0.7546771E-02  0.1387679E+00
          2   -1    0    0  502    0  0.00000000000E+00  0.00000000000E+00  0.80557386107E+03  0.80557386107E+03  0.00000000000E+00 0. -1.
          2   -1    0    0  501    0 -0.00000000000E+00 -0.00000000000E+00 -0.20863387176E+02  0.20863387176E+02  0.00000000000E+00 0. -1.
          2    1    1    2  501    0 -0.14923201919E+02 -0.30558213931E+02  0.79110350194E+03  0.79183410963E+03  0.00000000000E+00 0. -1.
          2    1    1    2  502    0  0.14923201919E+02  0.30558213931E+02 -0.63930280489E+01  0.34603138612E+02  0.00000000000E+00 0. -1.
</event>
<event>
 4    1  0.8931296E+003  0.2244719E+02  0.7546771E-02  0.1499559E+00
          2   -1    0    0  502    0  0.00000000000E+00  0.00000000000E+00  0.36853127381E+01  0.36853127381E+01  0.00000000000E+00 0.  1.
          2   -1    0    0  501    0 -0.00000000000E+00 -0.00000000000E+00 -0.73151861646E+03  0.73151861646E+03  0.00000000000E+00 0. -1.
          2    1    1    2  501    0  0.16211734611E+02 -0.15525984136E+02 -0.32443719821E+02  0.39452141619E+02  0.00000000000E+00 0.  1.
          2    1    1    2  502    0 -0.16211734611E+02  0.15525984136E+02 -0.69538958390E+03  0.69575178758E+03  0.00000000000E+00 0. -1.
</event>
<event>
 4    1  0.8931296E+003  0.2088172E+02  0.7546771E-02  0.1520960E+00
          2   -1    0    0  502    0  0.00000000000E+00  0.00000000000E+00  0.11259522607E+03  0.11259522607E+03  0.00000000000E+00 0. -1.
          2   -1    0    0  501    0 -0.00000000000E+00 -0.00000000000E+00 -0.56198020489E+01  0.56198020489E+01  0.00000000000E+00 0. -1.
          2    1    1    2  501    0  0.48745380744E+01 -0.20304800383E+02  0.86444355083E+02  0.88930717785E+02  0.00000000000E+00 0. -1.
          2    1    1    2  502    0 -0.48745380744E+01  0.20304800383E+02  0.20531068942E+02  0.29284310337E+02  0.00000000000E+00 0. -1.
</event>
<event>
 4    1  0.8931296E+003  0.4072827E+02  0.7546771E-02  0.1344270E+00
          2   -1    0    0  502    0  0.00000000000E+00  0.00000000000E+00  0.68326366500E+00  0.68326366500E+00  0.00000000000E+00 0.  1.
          2   -1    0    0  501    0 -0.00000000000E+00 -0.00000000000E+00 -0.32613189891E+04  0.32613189891E+04  0.00000000000E+00 0.  1.
          2    1    1    2  501    0  0.13141629986E+02 -0.38549833472E+02 -0.80574530383E+03  0.80677399980E+03  0.00000000000E+00 0.  1.
          2    1    1    2  502    0 -0.13141629986E+02  0.38549833472E+02 -0.24548904216E+04  0.24552282530E+04  0.00000000000E+00 0.  1.
</event>
<event>
 4    1  0.8931296E+003  0.3840605E+02  0.7546771E-02  0.1358088E+00
          2   -1    0    0  501    0  0.00000000000E+00  0.00000000000E+00  0.24846101553E+02  0.24846101553E+02  0.00000000000E+00 0. -1.
          2   -1    0    0  502    0 -0.00000000000E+00 -0.00000000000E+00 -0.46984031183E+03  0.46984031183E+03  0.00000000000E+00 0. -1.
          2    1    1    2  501    0 -0.38038001744E+02  0.53042521103E+01 -0.45368633930E+03  0.45530903696E+03  0.00000000000E+00 0. -1.
          2    1    1    2  502    0  0.38038001744E+02 -0.53042521103E+01  0.86921290242E+01  0.39377376425E+02  0.00000000000E+00 0. -1.
</event>
<event>
 4    1  0.8931296E+003  0.7941032E+02  0.7546771E-02  0.1205223E+00
          2   -1    0    0  501    0  0.00000000000E+00  0.00000000000E+00  0.14620544518E+04  0.14620544518E+04  0.00000000000E+00 0. -1.
          2   -1    0    0  502    0 -0.00000000000E+00 -0.00000000000E+00 -0.14826622100E+04  0.14826622100E+04  0.00000000000E+00 0. -1.
          2    1    1    2  501    0  0.68857070087E+02  0.39556323889E+02 -0.14805190833E+04  0.14826472119E+04  0.00000000000E+00 0. -1.
          2    1    1    2  502    0 -0.68857070087E+02 -0.39556323889E+02  0.14599113252E+04  0.14620694499E+04  0.00000000000E+00 0. -1.
</event>
<event>
 4    1  0.8931296E+003  0.2221611E+02  0.7546771E-02  0.1502583E+00
          2   -1    0    0  501    0  0.00000000000E+00  0.00000000000E+00  0.49270260427E+01  0.49270260427E+01  0.00000000000E+00 0. -1.
          2   -1    0    0  502    0 -0.00000000000E+00 -0.00000000000E+00 -0.10804483433E+03  0.10804483433E+03  0.00000000000E+00 0. -1.
          2    1    1    2  501    0  0.18304220890E+02 -0.12590123876E+02 -0.36312335964E+02  0.42569254924E+02  0.00000000000E+00 0. -1.
          2    1    1    2  502    0 -0.18304220890E+02  0.12590123876E+02 -0.66805472323E+02  0.70402605448E+02  0.00000000000E+00 0. -1.
</event>
<event>
 4    1  0.8931296E+003  0.2197220E+02  0.7546771E-02  0.1505824E+00
          2   -1    0    0  501    0  0.00000000000E+00  0.00000000000E+00  0.10690386255E+02  0.10690386255E+02  0.00000000000E+00 0. -1.
          2   -1    0    0  502    0 -0.00000000000E+00 -0.00000000000E+00 -0.11395485052E+04  0.11395485052E+04  0.00000000000E+00 0. -1.
          2    1    1    2  501    0 -0.73408325188E+01  0.20709654091E+02 -0.11280373985E+04  0.11282513683E+04  0.00000000000E+00 0. -1.
          2    1    1    2  502    0  0.73408325188E+01 -0.20709654091E+02 -0.82072046919E+00  0.21987523206E+02  0.00000000000E+00 0. -1.
</event>
<event>
 4    1  0.8931296E+003  0.2476450E+02  0.7546771E-02  0.1471455E+00
          2   -1    0    0  502    0  0.00000000000E+00  0.00000000000E+00  0.85338536889E+01  0.85338536889E+01  0.00000000000E+00 0.  1.
          2   -1    0    0  501    0 -0.00000000000E+00 -0.00000000000E+00 -0.17673128377E+03  0.17673128377E+03  0.00000000000E+00 0.  1.
          2    1    1    2  501    0  0.16621463426E+02  0.18357767550E+02 -0.12743441502E+02  0.27850960076E+02  0.00000000000E+00 0.  1.
          2    1    1    2  502    0 -0.16621463426E+02 -0.18357767550E+02 -0.15545398858E+03  0.15741417738E+03  0.00000000000E+00 0.  1.
</event>
<event>
 4    1  0.8931296E+003  0.3238832E+02  0.7546771E-02  0.1399917E+00
          2   -1    0    0  502    0  0.00000000000E+00  0.00000000000E+00  0.70358447455E+02  0.70358447455E+02  0.00000000000E+00 0.  1.
          2   -1    0    0  501    0 -0.00000000000E+00 -0.00000000000E+00 -0.53050492202E+02  0.53050492202E+02  0.00000000000E+00 0.  1.
          2    1    1    2  501    0  0.26436398052E+02  0.18711493574E+02  0.60974058470E+02  0.69042298195E+02  0.00000000000E+00 0.  1.
          2    1    1    2  502    0 -0.26436398052E+02 -0.18711493574E+02 -0.43666103217E+02  0.54366641462E+02  0.00000000000E+00 0.  1.
</event>
<event>
 4    1  0.8931296E+003  0.8431109E+02  0.7546771E-02  0.1194178E+00
          2   -1    0    0  502    0  0.00000000000E+00  0.00000000000E+00  0.12067977385E+03  0.12067977385E+03  0.00000000000E+00 0. -1.
          2   -1    0    0  501    0 -0.00000000000E+00 -0.00000000000E+00 -0.30618711733E+03  0.30618711733E+03  0.00000000000E+00 0. -1.
          2    1    1    2  501    0 -0.29034508885E+02 -0.79154007722E+02  0.99054642743E+02  0.13007759951E+03  0.00000000000E+00 0. -1.
          2    1    1    2  502    0  0.29034508885E+02  0.79154007722E+02 -0.28456198623E+03  0.29678929167E+03  0.00000000000E+00 0. -1.
</event>
<event>
 4    1  0.8931296E+003  0.2576010E+02  0.7546771E-02  0.1460477E+00
          2   -1    0    0  501    0  0.00000000000E+00  0.00000000000E+00  0.22530728684E+03  0.22530728684E+03  0.00000000000E+00 0. -1.
          2   -1    0    0  502    0 -0.00000000000E+00 -0.00000000000E+00 -0.29275101196E+02  0.29275101196E+02  0.00000000000E+00 0.  1.
          2    1    1    2  501    0 -0.22379177758E+02 -0.12757551091E+02 -0.22702312872E+02  0.34336244942E+02  0.00000000000E+00 0.  1.
          2    1    1    2  502    0  0.22379177758E+02  0.12757551091E+02  0.21873449852E+03  0.22024614310E+03  0.00000000000E+00 0. -1.
</event>
<event>
 4    1  0.8931296E+003  0.2304219E+02  0.7546771E-02  0.1491969E+00
          2   -1    0    0  501    0  0.00000000000E+00  0.00000000000E+00  0.13086156785E+03  0.13086156785E+03  0.00000000000E+00 0. -1.
          2   -1    0    0  502    0 -0.00000000000E+00 -0.00000000000E+00 -0.12367398522E+04  0.12367398522E+04  0.00000000000E+00 0.  1.
          2    1    1    2  501    0 -0.21186907778E+02 -0.90585467145E+01 -0.12356172832E+04  0.12358321135E+04  0.00000000000E+00 0.  1.
          2    1    1    2  502    0  0.21186907778E+02  0.90585467145E+01  0.12973899882E+03  0.13176930653E+03  0.00000000000E+00 0. -1.
</event>
<event>
 4    1  0.8931296E+003  0.2024549E+02  0.7546771E-02  0.1530316E+00
          2   -1    0    0  501    0  0.00000000000E+00  0.00000000000E+00  0.12168583827E+04  0.12168583827E+04  0.00000000000E+00 0. -1.
          2   -1    0    0  502    0 -0.00000000000E+00 -0.00000000000E+00 -0.23076083095E+02  0.23076083095E+02  0.00000000000E+00 0. -1.
          2    1    1    2  501    0  0.53861736096E+01 -0.19515860285E+02 -0.18534716660E+02  0.27448413260E+02  0.00000000000E+00 0. -1.
          2    1    1    2  502    0 -0.53861736096E+01  0.19515860285E+02  0.12123170163E+04  0.12124860525E+04  0.00000000000E+00 0. -1.
</event>
<event>
 4    1  0.8931296E+003  0.8215292E+02  0.7546771E-02  0.1198936E+00
          2   -1    0    0  501    0  0.00000000000E+00  0.00000000000E+00  0.70462975998E+03  0.70462975998E+03  0.00000000000E+00 0.  1.
          2   -1    0    0  502    0 -0.00000000000E+00 -0.00000000000E+00 -0.50721059887E+02  0.50721059887E+02  0.00000000000E+00 0.  1.
          2    1    1    2  501    0  0.82111228525E+02 -0.26169159988E+01 -0.13196576062E+02  0.83206079820E+02  0.00000000000E+00 0.  1.
          2    1    1    2  502    0 -0.82111228525E+02  0.26169159988E+01  0.66710527615E+03  0.67214474004E+03  0.00000000000E+00 0.  1.
</event>
<event>
 4    1  0.8931296E+003  0.6392291E+02  0.7546771E-02  0.1247056E+00
          2   -1    0    0  501    0  0.00000000000E+00  0.00000000000E+00  0.75065768334E+01  0.75065768334E+01  0.00000000000E+00 0.  1.
          2   -1    0    0  502    0 -0.00000000000E+00 -0.00000000000E+00 -0.10676051867E+04  0.10676051867E+04  0.00000000000E+00 0. -1.
          2    1    1    2  501    0 -0.60569005679E+02  0.20433655787E+02 -0.90638786622E+03  0.90863914882E+03  0.00000000000E+00 0. -1.
          2    1    1    2  502    0  0.60569005679E+02 -0.20433655787E+02 -0.15371074367E+03  0.16647261474E+03  0.00000000000E+00 0.  1.
</event>
<event>
 4    1  0.8931296E+003  0.2658630E+02  0.7546771E-02  0.1451809E+00
          2   -1    0    0  501    0  0.00000000000E+00  0.00000000000E+00  0.11144017248E+02  0.11144017248E+02  0.00000000000E+00 0.  1.
          2   -1    0    0  502    0 -0.00000000000E+00 -0.00000000000E+00 -0.18161435979E+03  0.18161435979E+03  0.00000000000E+00 0. -1.
          2    1    1    2  501    0 -0.26103260600E+02 -0.50449069641E+01 -0.16298397853E+03  0.16513814991E+03  0.00000000000E+00 0. -1.
          2    1    1    2  502    0  0.26103260600E+02  0.50449069641E+01 -0.74863640151E+01  0.27620227124E+02  0.00000000000E+00 0.  1.
</event>
<event>
 4    1  0.8931296E+003  0.2259299E+02  0.7546771E-02  0.1497673E+00
          2   -1    0    0  502    0  0.00000000000E+00  0.00000000000E+00  0.40118762181E+00  0.40118762181E+00  0.00000000000E+00 0.  1.
          2   -1    0    0  501    0 -0.00000000000E+00 -0.00000000000E+00 -0.17117873675E+04  0.17117873675E+04  0.00000000000E+00 0.  1.
          2    1    1    2  501    0  0.14417947432E+02 -0.17394425968E+02 -0.42192780230E+03  0.42253226340E+03  0.00000000000E+00 0.  1.
          2    1    1    2  502    0 -0.14417947432E+02  0.17394425968E+02 -0.12894583775E+04  0.12896562917E+04  0.00000000000E+00 0.  1.
</event>
<event>
 4    1  0.8931296E+003  0.2251158E+02  0.7546771E-02  0.1498724E+00
          2   -1    0    0  501    0  0.00000000000E+00  0.00000000000E+00  0.27159307647E+03  0.27159307647E+03  0.00000000000E+00 0.  1.
          2   -1    0    0  502    0 -0.00000000000E+00 -0.00000000000E+00 -0.14686034072E+02  0.14686034072E+02  0.00000000000E+00 0. -1.
          2    1    1    2  501    0 -0.21933803654E+02 -0.50674924324E+01 -0.52840173762E+01  0.23123409392E+02  0.00000000000E+00 0. -1.
          2    1    1    2  502    0  0.21933803654E+02  0.50674924324E+01  0.26219105977E+03  0.26315570115E+03  0.00000000000E+00 0.  1.
</event>
<event>
 4    1  0.8931296E+003  0.2034301E+02  0.7546771E-02  0.1528855E+00
          2   -1    0    0  501    0  0.00000000000E+00  0.00000000000E+00  0.49400705371E+03  0.49400705371E+03  0.00000000000E+00 0. -1.
          2   -1    0    0  502    0 -0.00000000000E+00 -0.00000000000E+00 -0.16184302362E+03  0.16184302362E+03  0.00000000000E+00 0. -1.
          2    1    1    2  501    0  0.48202270310E+01 -0.19763689817E+02 -0.16099323498E+03  0.16227341043E+03  0.00000000000E+00 0. -1.
          2    1    1    2  502    0 -0.48202270310E+01  0.19763689817E+02  0.49315726506E+03  0.49357666690E+03  0.00000000000E+00 0. -1.
</event>
<event>
 4    1  0.8931296E+003  0.2798172E+02  0.7546771E-02  0.1437988E+00
          2   -1    0    0  501    0  0.00000000000E+00  0.00000000000E+00  0.98016767156E+03  0.98016767156E+03  0.00000000000E+00 0. -1.
          2   -1    0    0  502    0 -0.00000000000E+00 -0.00000000000E+00 -0.22717618728E+01  0.22717618728E+01  0.00000000000E+00 0. -1.
          2    1    1    2  501    0  0.22503773942E+02 -0.16629995151E+02  0.93410754188E+02  0.97511771486E+02  0.00000000000E+00 0. -1.
          2    1    1    2  502    0 -0.22503773942E+02  0.16629995151E+02  0.88448515550E+03  0.88492766195E+03  0.00000000000E+00 0. -1.
</event>
<event>
 4    1  0.1194265E+004  0.2580348E+02  0.7546771E-02  0.1460012E+00
          2   -1    0    0  502    0  0.00000000000E+00  0.00000000000E+00  0.54214759625E+03  0.54214759625E+03  0.00000000000E+00 0.  1.
          2   -1    0    0  501    0 -0.00000000000E+00 -0.00000000000E+00 -0.78035145679E+03  0.78035145679E+03  0.00000000000E+00 0. -1.
          2    1    1    2  501    0  0.20842262720E+02 -0.15212488723E+02  0.54162705490E+03  0.54224135431E+03  0.00000000000E+00 0.  1.
          2    1    1    2  502    0 -0.20842262720E+02  0.15212488723E+02 -0.77983091544E+03  0.78025769872E+03  0.00000000000E+00 0. -1.
</event>
<event>
 4    1  0.8931296E+003  0.2117031E+02  0.7546771E-02  0.1516847E+00
          2   -1    0    0  501    0  0.00000000000E+00  0.00000000000E+00  0.76923977528E+00  0.76923977528E+00  0.00000000000E+00 0.  1.
          2   -1    0    0  502    0 -0.00000000000E+00 -0.00000000000E+00 -0.16034612014E+04  0.16034612014E+04  0.00000000000E+00 0. -1.
          2    1    1    2  501    0  0.17853119071E+02 -0.11377525764E+02 -0.14413527352E+04  0.14415081995E+04  0.00000000000E+00 0. -1.
          2    1    1    2  502    0 -0.17853119071E+02  0.11377525764E+02 -0.16133922646E+03  0.16272224172E+03  0.00000000000E+00 0.  1.
</event>
<event>
 4    1  0.8931296E+003  0.2570716E+02  0.7546771E-02  0.1461046E+00
          2   -1    0    0  502    0  0.00000000000E+00  0.00000000000E+00  0.12373769111E+01  0.12373769111E+01  0.00000000000E+00 0.  1.
          2   -1    0    0  501    0 -0.00000000000E+00 -0.00000000000E+00 -0.17551350255E+04  0.17551350255E+04  0.00000000000E+00 0.  1.
          2    1    1    2  501    0  0.61166968299E+01  0.24968857579E+02 -0.14446334108E+03  0.14673280051E+03  0.00000000000E+00 0.  1.
          2    1    1    2  502    0 -0.61166968299E+01 -0.24968857579E+02 -0.16094343075E+04  0.16096396019E+04  0.00000000000E+00 0.  1.
</event>
<event>
 4    1  0.8931296E+003  0.2688738E+02  0.7546771E-02  0.1448743E+00
          2   -1    0    0  502    0  0.00000000000E+00  0.00000000000E+00  0.91015942470E+01  0.91015942470E+01  0.00000000000E+00 0.  1.
          2   -1    0    0  501    0 -0.00000000000E+00 -0.00000000000E+00 -0.10426326396E+03  0.10426326396E+03  0.00000000000E+00 0. -1.
          2    1    1    2  501    0 -0.24703714851E+02 -0.10614039938E+02 -0.19917302585E+02  0.33460877357E+02  0.00000000000E+00 0.  1.
          2    1    1    2  502    0  0.24703714851E+02  0.10614039938E+02 -0.75244367130E+02  0.79903980852E+02  0.00000000000E+00 0. -1.
</event>
<event>
 4    1  0.8931296E+003  0.2225365E+02  0.7546771E-02  0.1502089E+00
          2   -1    0    0  501    0  0.00000000000E+00  0.00000000000E+00  0.32974291521E+01  0.32974291521E+01  0.00000000000E+00 0.  1.
          2   -1    0    0  502    0 -0.00000000000E+00 -0.00000000000E+00 -0.31237841673E+03  0.31237841673E+03  0.00000000000E+00 0. -1.
          2    1    1    2  501    0  0.15255505008E+02 -0.16201687965E+02 -0.26827366874E+03  0.26919507139E+03  0.00000000000E+00 0. -1.
          2    1    1    2  502    0 -0.15255505008E+02  0.16201687965E+02 -0.40807318847E+02  0.46480774493E+02  0.00000000000E+00 0.  1.
</event>
<event>
 4    1  0.8931296E+003  0.2127237E+02  0.7546771E-02  0.1515411E+00
          2   -1    0    0  502    0  0.00000000000E+00  0.00000000000E+00  0.13718676312E+04  0.13718676312E+04  0.00000000000E+00 0. -1.
          2   -1    0    0  501    0 -0.00000000000E+00 -0.00000000000E+00 -0.23322454882E+02  0.23322454882E+02  0.00000000000E+00 0. -1.
          2    1    1    2  501    0 -0.12176333905E+02  0.17442783796E+02  0.13669169776E+04  0.13670824911E+04  0.00000000000E+00 0. -1.
          2    1    1    2  502    0  0.12176333905E+02 -0.17442783796E+02 -0.18371801277E+02  0.28107594990E+02  0.00000000000E+00 0. -1.
</event>
<event>
 4    1  0.8931296E+003  0.2161619E+02  0.7546771E-02  0.1510646E+00
          2   -1    0    0  501    0  0.00000000000E+00  0.00000000000E+00  0.33260509075E+03  0.33260509075E+03  0.00000000000E+00 0.  1.
          2   -1    0    0  502    0 -0.00000000000E+00 -0.00000000000E+00 -0.14250497098E+01  0.14250497098E+01  0.00000000000E+00 0.  1.
          2    1    1    2  501    0 -0.21400235796E+02 -0.30478624177E+01  0.14570454499E+03  0.14729926676E+03  0.00000000000E+00 0.  1.
          2    1    1    2  502    0  0.21400235796E+02  0.30478624177E+01  0.18547549605E+03  0.18673087370E+03  0.00000000000E+00 0.  1.
</event>
<event>
 4    1  0.8931296E+003  0.2107225E+02  0.7546771E-02  0.1518236E+00
          2   -1    0    0  501    0  0.00000000000E+00  0.00000000000E+00  0.97763679212E+00  0.97763679212E+00  0.00000000000E+00 0.  1.
          2   -1    0    0  502    0 -0.00000000000E+00 -0.00000000000E+00 -0.11101036539E+04  0.11101036539E+04  0.00000000000E+00 0.  1.
          2    1    1    2  501    0  0.19849766284E+02 -0.70729524768E+01 -0.98158970846E+03  0.98181586646E+03  0.00000000000E+00 0.  1.
          2    1    1    2  502    0 -0.19849766284E+02  0.70729524768E+01 -0.12753630862E+03  0.12926542420E+03  0.00000000000E+00 0.  1.
</event>
<event>
 4    1  0.1347482E+004  0.2301181E+02  0.7546771E-02  0.1492350E+00
          2   -1    0    0  502    0  0.00000000000E+00  0.00000000000E+00  0.85511213088E+03  0.85511213088E+03  0.00000000000E+00 0.  1.
          2   -1    0    0  501    0 -0.00000000000E+00 -0.00000000000E+00 -0.11828540432E+04  0.11828540432E+04  0.00000000000E+00 0.  1.
          2    1    1    2  501    0 -0.13101403621E+02 -0.18918159313E+02  0.85484535825E+03  0.85515503276E+03  0.00000000000E+00 0.  1.
          2    1    1    2  502    0  0.13101403621E+02  0.18918159313E+02 -0.11825872705E+04  0.11828111413E+04  0.00000000000E+00 0.  1.
</event>
<event>
 4    1  0.8931296E+003  0.3225097E+02  0.7546771E-02  0.1400993E+00
          2   -1    0    0  502    0  0.00000000000E+00  0.00000000000E+00  0.73559537280E+03  0.73559537280E+03  0.00000000000E+00 0.  1.
          2   -1    0    0  501    0 -0.00000000000E+00 -0.00000000000E+00 -0.20971126223E+02  0.20971126223E+02  0.00000000000E+00 0. -1.
          2    1    1    2  501    0  0.19038468877E+02  0.26031941775E+02  0.72261984515E+03  0.72333917763E+03  0.00000000000E+00 0.  1.
          2    1    1    2  502    0 -0.19038468877E+02 -0.26031941775E+02 -0.79955985811E+01  0.33227321385E+02  0.00000000000E+00 0. -1.
</event>
<event>
 4    1  0.8931296E+003  0.2199305E+02  0.7546771E-02  0.1505545E+00
          2   -1    0    0  501    0  0.00000000000E+00  0.00000000000E+00  0.16535663376E+01  0.16535663376E+01  0.00000000000E+00 0.  1.
          2   -1    0    0  502    0 -0.00000000000E+00 -0.00000000000E+00 -0.95446676613E+03  0.95446676613E+03  0.00000000000E+00 0.  1.
          2    1    1    2  501    0 -0.21795084124E+02 -0.29442763213E+01 -0.87452754654E+03  0.87480404898E+03  0.00000000000E+00 0.  1.
          2    1    1    2  502    0  0.21795084124E+02  0.29442763213E+01 -0.78285653248E+02  0.81316283483E+02  0.00000000000E+00 0.  1.
</event>
<event>
 4    1  0.8931296E+003  0.2613950E+02  0.7546771E-02  0.1456449E+00
          2   -1    0    0  501    0  0.00000000000E+00  0.00000000000E+00  0.38552883517E+01  0.38552883517E+01  0.00000000000E+00 0. -1.
          2   -1    0    0  502    0 -0.00000000000E+00 -0.00000000000E+00 -0.50299513598E+03  0.50299513598E+03  0.00000000000E+00 0.  1.
          2    1    1    2  501    0  0.26126564549E+02 -0.82234095647E+00 -0.45351821843E+03  0.45427089723E+03  0.00000000000E+00 0.  1.
          2    1    1    2  502    0 -0.26126564549E+02  0.82234095647E+00 -0.45621629197E+02  0.52579527103E+02  0.00000000000E+00 0. -1.
</event>
<event>
 4    1  0.8931296E+003  0.3872853E+02  0.7546771E-02  0.1356102E+00
          2   -1    0    0  502    0  0.00000000000E+00  0.00000000000E+00  0.37801091230E+03  0.37801091230E+03  0.00000000000E+00 0. -1.
          2   -1    0    0  501    0 -0.00000000000E+00 -0.00000000000E+00 -0.19730100209E+04  0.19730100209E+04  0.00000000000E+00 0. -1.
          2    1    1    2  501    0  0.37188734535E+02  0.10811909808E+02  0.37682829694E+03  0.37881323201E+03  0.00000000000E+00 0. -1.
          2    1    1    2  502    0 -0.37188734535E+02 -0.10811909808E+02 -0.19718274055E+04  0.19722077012E+04  0.00000000000E+00 0. -1.
</event>
<event>
 4    1  0.8931296E+003  0.6105932E+02  0.7546771E-02  0.1256275E+00
          2   -1    0    0  502    0  0.00000000000E+00  0.00000000000E+00  0.17421459174E+04  0.17421459174E+04  0.00000000000E+00 0. -1.
          2   -1    0    0  501    0 -0.00000000000E+00 -0.00000000000E+00 -0.24513749970E+04  0.24513749970E+04  0.00000000000E+00 0. -1.
          2    1    1    2  501    0 -0.51908284164E+02  0.32152304668E+02  0.17412304913E+04  0.17423007389E+04  0.00000000000E+00 0. -1.
          2    1    1    2  502    0  0.51908284164E+02 -0.32152304668E+02 -0.24504595709E+04  0.24512201756E+04  0.00000000000E+00 0. -1.
</event>
<event>
 4    1  0.8931296E+003  0.6868699E+02  0.7546771E-02  0.1232868E+00
          2   -1    0    0  502    0  0.00000000000E+00  0.00000000000E+00  0.60560782196E+02  0.60560782196E+02  0.00000000000E+00 0.  1.
          2   -1    0    0  501    0 -0.00000000000E+00 -0.00000000000E+00 -0.32838660566E+03  0.32838660566E+03  0.00000000000E+00 0.  1.
          2    1    1    2  501    0  0.49111244861E+02 -0.48020708050E+02  0.35933854132E+02  0.77518672888E+02  0.00000000000E+00 0.  1.
          2    1    1    2  502    0 -0.49111244861E+02  0.48020708050E+02 -0.30375967760E+03  0.31142871497E+03  0.00000000000E+00 0.  1.
</event>
<event>
 4    1  0.8931296E+003  0.2840884E+02  0.7546771E-02  0.1433947E+00
          2   -1    0    0  502    0  0.00000000000E+00  0.00000000000E+00  0.27706109361E+01  0.27706109361E+01  0.00000000000E+00 0.  1.
          2   -1    0    0  501    0 -0.00000000000E+00 -0.00000000000E+00 -0.46036117439E+03  0.46036117439E+03  0.00000000000E+00 0.  1.
          2    1    1    2  501    0 -0.15029941413E+02 -0.24107324264E+02 -0.88463851748E+02  0.92913482811E+02  0.00000000000E+00 0.  1.
          2    1    1    2  502    0  0.15029941413E+02  0.24107324264E+02 -0.36912671171E+03  0.37021830252E+03  0.00000000000E+00 0.  1.
</event>
<event>
 4    1  0.1713033E+004  0.3235202E+02  0.7546771E-02  0.1400201E+00
          2   -1    0    0  502    0  0.00000000000E+00  0.00000000000E+00  0.10461872501E+04  0.10461872501E+04  0.00000000000E+00 0.  1.
          2   -1    0    0  501    0 -0.00000000000E+00 -0.00000000000E+00 -0.13685865038E+04  0.13685865038E+04  0.00000000000E+00 0.  1.
          2    1    1    2  501    0 -0.32349917839E+02 -0.36860900062E+00  0.10457458657E+04  0.10462461798E+04  0.00000000000E+00 0.  1.
          2    1    1    2  502    0  0.32349917839E+02  0.36860900062E+00 -0.13681451194E+04  0.13685275740E+04  0.00000000000E+00 0.  1.
</event>
<event>
 4    1  0.8931296E+003  0.2064533E+02  0.7546771E-02  0.1524389E+00
          2   -1    0    0  502    0  0.00000000000E+00  0.00000000000E+00  0.27248967519E+02  0.27248967519E+02  0.00000000000E+00 0.  1.
          2   -1    0    0  501    0 -0.00000000000E+00 -0.00000000000E+00 -0.52364268304E+02  0.52364268304E+02  0.00000000000E+00 0. -1.
          2    1    1    2  501    0 -0.20264610597E+02  0.39465522345E+01  0.20777484239E+02  0.29290503042E+02  0.00000000000E+00 0.  1.
          2    1    1    2  502    0  0.20264610597E+02 -0.39465522345E+01 -0.45892785024E+02  0.50322732780E+02  0.00000000000E+00 0. -1.
</event>
<event>
 4    1  0.8931296E+003  0.2040449E+02  0.7546771E-02  0.1527940E+00
          2   -1    0    0  501    0  0.00000000000E+00  0.00000000000E+00  0.23954245599E+01  0.23954245599E+01  0.00000000000E+00 0.  1.
          2   -1    0    0  502    0 -0.00000000000E+00 -0.00000000000E+00 -0.86948022485E+03  0.86948022485E+03  0.00000000000E+00 0. -1.
          2    1    1    2  501    0  0.15224050952E+02 -0.13585702254E+02 -0.82348182798E+03  0.82373458349E+03  0.00000000000E+00 0. -1.
          2    1    1    2  502    0 -0.15224050952E+02  0.13585702254E+02 -0.43602972313E+02  0.48141065917E+02  0.00000000000E+00 0.  1.
</event>
<event>
 4    1  0.8931296E+003  0.4201620E+02  0.7546771E-02  0.1337059E+00
          2   -1    0    0  501    0  0.00000000000E+00  0.00000000000E+00  0.46446587455E+03  0.46446587455E+03  0.00000000000E+00 0.  1.
          2   -1    0    0  502    0 -0.00000000000E+00 -0.00000000000E+00 -0.47739812455E+03  0.47739812455E+03  0.00000000000E+00 0.  1.
          2    1    1    2  501    0  0.31996303915E+02  0.27232290034E+02 -0.47551969789E+03  0.47737233284E+03  0.00000000000E+00 0.  1.
          2    1    1    2  502    0 -0.31996303915E+02 -0.27232290034E+02  0.46258744789E+03  0.46449166626E+03  0.00000000000E+00 0.  1.
</event>
<event>
 4    1  0.8931296E+003  0.5660016E+02  0.7546771E-02  0.1271843E+00
          2   -1    0    0  501    0  0.00000000000E+00  0.00000000000E+00  0.64298831632E+02  0.64298831632E+02  0.00000000000E+00 0.  1.
          2   -1    0    0  502    0 -0.00000000000E+00 -0.00000000000E+00 -0.10160924384E+03  0.10160924384E+03  0.00000000000E+00 0.  1.
          2    1    1    2  501    0  0.42086013399E+02 -0.37846345623E+02 -0.77876374434E+02  0.96272052517E+02  0.00000000000E+00 0.  1.
          2    1    1    2  502    0 -0.42086013399E+02  0.37846345623E+02  0.40565962230E+02  0.69636022951E+02  0.00000000000E+00 0.  1.
</event>
<event>
 4    1  0.8931296E+003  0.2923286E+02  0.7546771E-02  0.1426382E+00
          2   -1    0    0  501    0  0.00000000000E+00  0.00000000000E+00  0.10167044647E+02  0.10167044647E+02  0.00000000000E+00 0. -1.
          2   -1    0    0  502    0 -0.00000000000E+00 -0.00000000000E+00 -0.13922972459E+03  0.13922972459E+03  0.00000000000E+00 0.  1.
          2    1    1    2  501    0 -0.27245238794E+02  0.10595140440E+02 -0.11155617450E+03  0.11532276491E+03  0.00000000000E+00 0.  1.
          2    1    1    2  502    0  0.27245238794E+02 -0.10595140440E+02 -0.17506505443E+02  0.34074004325E+02  0.00000000000E+00 0. -1.
</event>
<event>
 4    1  0.8931296E+003  0.2527132E+02  0.7546771E-02  0.1465791E+00
          2   -1    0    0  501    0  0.00000000000E+00  0.00000000000E+00  0.20445435638E+01  0.20445435638E+01  0.00000000000E+00 0.  1.
          2   -1    0    0  502    0 -0.00000000000E+00 -0.00000000000E+00 -0.31457492894E+03  0.31457492894E+03  0.00000000000E+00 0. -1.
          2    1    1    2  501    0  0.11485248967E+02  0.22510637910E+02 -0.16954008703E+03  0.17141318757E+03  0.00000000000E+00 0. -1.
          2    1    1    2  502    0 -0.11485248967E+02 -0.22510637910E+02 -0.14299029835E+03  0.14520628493E+03  0.00000000000E+00 0.  1.
</event>
<event>
 4    1  0.8931296E+003  0.3173773E+02  0.7546771E-02  0.1405073E+00
          2   -1    0    0  501    0  0.00000000000E+00  0.00000000000E+00  0.37273042699E+02  0.37273042699E+02  0.00000000000E+00 0. -1.
          2   -1    0    0  502    0 -0.00000000000E+00 -0.00000000000E+00 -0.72950964738E+03  0.72950964738E+03  0.00000000000E+00 0.  1.
          2    1    1    2  501    0  0.31735279023E+02  0.39454992688E+00 -0.72234132852E+03  0.72303822755E+03  0.00000000000E+00 0.  1.
          2    1    1    2  502    0 -0.31735279023E+02 -0.39454992688E+00  0.30104723842E+02  0.43744462529E+02  0.00000000000E+00 0. -1.
</event>
<event>
 4    1  0.8931296E+003  0.2388162E+02  0.7546771E-02  0.1481715E+00
          2   -1    0    0  502    0  0.00000000000E+00  0.00000000000E+00  0.38278479058E+01  0.38278479058E+01  0.00000000000E+00 0.  1.
          2   -1    0    0  501    0 -0.00000000000E+00 -0.00000000000E+00 -0.90462969612E+03  0.90462969612E+03  0.00000000000E+00 0.  1.
          2    1    1    2  501    0 -0.15662844628E+02  0.18027946434E+02 -0.35260462662E+02  0.42586755942E+02  0.00000000000E+00 0.  1.
          2    1    1    2  502    0  0.15662844628E+02 -0.18027946434E+02 -0.86554138555E+03  0.86587078808E+03  0.00000000000E+00 0.  1.
</event>
<event>
 4    1  0.8931296E+003  0.2401196E+02  0.7546771E-02  0.1480167E+00
          2   -1    0    0  502    0  0.00000000000E+00  0.00000000000E+00  0.15064744707E+02  0.15064744707E+02  0.00000000000E+00 0. -1.
          2   -1    0    0  501    0 -0.00000000000E+00 -0.00000000000E+00 -0.46057170845E+03  0.46057170845E+03  0.00000000000E+00 0. -1.
          2    1    1    2  501    0  0.22633611207E+02 -0.80183375096E+01  0.49692295298E+01  0.24520753145E+02  0.00000000000E+00 0. -1.
          2    1    1    2  502    0 -0.22633611207E+02  0.80183375096E+01 -0.45047619327E+03  0.45111570001E+03  0.00000000000E+00 0. -1.
</event>
<event>
 4    1  0.8931296E+003  0.2358508E+02  0.7546771E-02  0.1485279E+00
          2   -1    0    0  501    0  0.00000000000E+00  0.00000000000E+00  0.27325717216E+03  0.27325717216E+03  0.00000000000E+00 0.  1.
          2   -1    0    0  502    0 -0.00000000000E+00 -0.00000000000E+00 -0.30559069141E+01  0.30559069141E+01  0.00000000000E+00 0.  1.
          2    1    1    2  501    0  0.85227910071E+01 -0.21991322343E+02  0.55272502767E+02  0.60094141038E+02  0.00000000000E+00 0.  1.
          2    1    1    2  502    0 -0.85227910071E+01  0.21991322343E+02  0.21492876248E+03  0.21621893804E+03  0.00000000000E+00 0.  1.
</event>
<event>
 4    1  0.8931296E+003  0.3042582E+02  0.7546771E-02  0.1415931E+00
          2   -1    0    0  501    0  0.00000000000E+00  0.00000000000E+00  0.32870167451E+03  0.32870167451E+03  0.00000000000E+00 0. -1.
          2   -1    0    0  502    0 -0.00000000000E+00 -0.00000000000E+00 -0.76859704821E+01  0.76859704821E+01  0.00000000000E+00 0.  1.
          2    1    1    2  501    0  0.29073667048E+02 -0.89695397728E+01  0.26629809102E+02  0.40433618341E+02  0.00000000000E+00 0.  1.
          2    1    1    2  502    0 -0.29073667048E+02  0.89695397728E+01  0.29438589493E+03  0.29595402665E+03  0.00000000000E+00 0. -1.
</event>
<event>
 4    1  0.8931296E+003  0.3120175E+02  0.7546771E-02  0.1409433E+00
          2   -1    0    0  501    0  0.00000000000E+00  0.00000000000E+00  0.29050301240E+03  0.29050301240E+03  0.00000000000E+00 0.  1.
          2   -1    0    0  502    0 -0.00000000000E+00 -0.00000000000E+00 -0.36017577605E+01  0.36017577605E+01  0.00000000000E+00 0.  1.
          2    1    1    2  501    0 -0.27823636799E+02  0.14120707128E+02  0.10466929841E+03  0.10922092823E+03  0.00000000000E+00 0.  1.
          2    1    1    2  502    0  0.27823636799E+02 -0.14120707128E+02  0.18223195623E+03  0.18488384193E+03  0.00000000000E+00 0.  1.
</event>
<event>
 4    1  0.8931296E+003  0.2152406E+02  0.7546771E-02  0.1511913E+00
          2   -1    0    0  502    0  0.00000000000E+00  0.00000000000E+00  0.94690286819E+01  0.94690286819E+01  0.00000000000E+00 0. -1.
          2   -1    0    0  501    0 -0.00000000000E+00 -0.00000000000E+00 -0.10697772827E+03  0.10697772827E+03  0.00000000000E+00 0. -1.
          2    1    1    2  501    0 -0.43157845238E+00 -0.21519731392E+02 -0.58642605721E+01  0.22308622799E+02  0.00000000000E+00 0. -1.
          2    1    1    2  502    0  0.43157845238E+00  0.21519731392E+02 -0.91644439014E+02  0.94138134150E+02  0.00000000000E+00 0. -1.
</event>
<event>
 4    1  0.8931296E+003  0.4138502E+02  0.7546771E-02  0.1340555E+00
          2   -1    0    0  502    0  0.00000000000E+00  0.00000000000E+00  0.24965785749E+01  0.24965785749E+01  0.00000000000E+00 0. -1.
          2   -1    0    0  501    0 -0.00000000000E+00 -0.00000000000E+00 -0.70944247109E+03  0.70944247109E+03  0.00000000000E+00 0. -1.
          2    1    1    2  501    0 -0.30343912670E+02 -0.28141901184E+02 -0.28880215547E+03  0.29175230015E+03  0.00000000000E+00 0. -1.
          2    1    1    2  502    0  0.30343912670E+02  0.28141901184E+02 -0.41814373705E+03  0.42018674952E+03  0.00000000000E+00 0. -1.
</event>
<event>
 4    1  0.9364035E+003  0.2244859E+02  0.7546771E-02  0.1499541E+00
          2   -1    0    0  501    0  0.00000000000E+00  0.00000000000E+00  0.11991067880E+04  0.11991067880E+04  0.00000000000E+00 0. -1.
          2   -1    0    0  502    0 -0.00000000000E+00 -0.00000000000E+00 -0.45137222542E+03  0.45137222542E+03  0.00000000000E+00 0. -1.
          2    1    1    2  501    0 -0.21992071534E+02  0.45042348124E+01 -0.45098795522E+03  0.45154631556E+03  0.00000000000E+00 0. -1.
          2    1    1    2  502    0  0.21992071534E+02 -0.45042348124E+01  0.11987225178E+04  0.11989326979E+04  0.00000000000E+00 0. -1.
</event>
<event>
 4    1  0.8931296E+003  0.3013264E+02  0.7546771E-02  0.1418447E+00
          2   -1    0    0  501    0  0.00000000000E+00  0.00000000000E+00  0.46710747037E+03  0.46710747037E+03  0.00000000000E+00 0. -1.
          2   -1    0    0  502    0 -0.00000000000E+00 -0.00000000000E+00 -0.26523220007E+02  0.26523220007E+02  0.00000000000E+00 0.  1.
          2    1    1    2  501    0 -0.19684713953E+02  0.22814209190E+02 -0.17306876000E+02  0.34749159145E+02  0.00000000000E+00 0.  1.
          2    1    1    2  502    0  0.19684713953E+02 -0.22814209190E+02  0.45789112636E+03  0.45888153123E+03  0.00000000000E+00 0. -1.
</event>
<event>
 4    1  0.8931296E+003  0.5026732E+02  0.7546771E-02  0.1297018E+00
          2   -1    0    0  502    0  0.00000000000E+00  0.00000000000E+00  0.41970220270E+03  0.41970220270E+03  0.00000000000E+00 0. -1.
          2   -1    0    0  501    0 -0.00000000000E+00 -0.00000000000E+00 -0.15029443094E+02  0.15029443094E+02  0.00000000000E+00 0. -1.
          2    1    1    2  501    0  0.44922905890E+02  0.22555167257E+02  0.37062608327E+03  0.37401938004E+03  0.00000000000E+00 0. -1.
          2    1    1    2  502    0 -0.44922905890E+02 -0.22555167257E+02  0.34046676335E+02  0.60712265755E+02  0.00000000000E+00 0. -1.
</event>
<event>
 4    1  0.8931296E+003  0.2323721E+02  0.7546771E-02  0.1489541E+00
          2   -1    0    0  501    0  0.00000000000E+00  0.00000000000E+00  0.12437977569E+03  0.12437977569E+03  0.00000000000E+00 0. -1.
          2   -1    0    0  502    0 -0.00000000000E+00 -0.00000000000E+00 -0.10427916197E+04  0.10427916197E+04  0.00000000000E+00 0. -1.
          2    1    1    2  501    0 -0.95161254565E+01 -0.21199327522E+02 -0.10415755788E+04  0.10418347539E+04  0.00000000000E+00 0. -1.
          2    1    1    2  502    0  0.95161254565E+01  0.21199327522E+02  0.12316373478E+03  0.12533664147E+03  0.00000000000E+00 0. -1.
</event>
<event>
 4    1  0.8931296E+003  0.2099819E+02  0.7546771E-02  0.1519291E+00
          2   -1    0    0  501    0  0.00000000000E+00  0.00000000000E+00  0.14357788406E+01  0.14357788406E+01  0.00000000000E+00 0. -1.
          2   -1    0    0  502    0 -0.00000000000E+00 -0.00000000000E+00 -0.47710940378E+03  0.47710940378E+03  0.00000000000E+00 0. -1.
          2    1    1    2  501    0  0.20827774292E+02  0.26698142945E+01 -0.38066819238E+03  0.38124689740E+03  0.00000000000E+00 0. -1.
          2    1    1    2  502    0 -0.20827774292E+02 -0.26698142945E+01 -0.95005432560E+02  0.97298285218E+02  0.00000000000E+00 0. -1.
</event>
<event>
 4    1  0.8931296E+003  0.4847310E+02  0.7546771E-02  0.1304932E+00
          2   -1    0    0  502    0  0.00000000000E+00  0.00000000000E+00  0.34601062627E+03  0.34601062627E+03  0.00000000000E+00 0. -1.
          2   -1    0    0  501    0 -0.00000000000E+00 -0.00000000000E+00 -0.11579890567E+02  0.11579890567E+02  0.00000000000E+00 0. -1.
          2    1    1    2  501    0  0.44215100704E+02  0.19866204458E+02  0.28219914002E+03  0.28633196790E+03  0.00000000000E+00 0. -1.
          2    1    1    2  502    0 -0.44215100704E+02 -0.19866204458E+02  0.52231595679E+02  0.71258548940E+02  0.00000000000E+00 0. -1.
</event>
<event>
 4    1  0.8931296E+003  0.2420882E+02  0.7546771E-02  0.1477852E+00
          2   -1    0    0  502    0  0.00000000000E+00  0.00000000000E+00  0.33850270050E+02  0.33850270050E+02  0.00000000000E+00 0.  1.
          2   -1    0    0  501    0 -0.00000000000E+00 -0.00000000000E+00 -0.17323652719E+02  0.17323652719E+02  0.00000000000E+00 0.  1.
          2    1    1    2  501    0 -0.13924325414E+02  0.19803538988E+02  0.76441918840E+01  0.25387017632E+02  0.00000000000E+00 0.  1.
          2    1    1    2  502    0  0.13924325414E+02 -0.19803538988E+02  0.88824254470E+01  0.25786905136E+02  0.00000000000E+00 0.  1.
</event>
<event>
 4    1  0.8931296E+003  0.2813279E+02  0.7546771E-02  0.1436549E+00
          2   -1    0    0  502    0  0.00000000000E+00  0.00000000000E+00  0.12047909950E+03  0.12047909950E+03  0.00000000000E+00 0.  1.
          2   -1    0    0  501    0 -0.00000000000E+00 -0.00000000000E+00 -0.16068721358E+02  0.16068721358E+02  0.00000000000E+00 0.  1.
          2    1    1    2  501    0 -0.20631185230E+02 -0.19126104969E+02  0.10469977634E+03  0.10841354556E+03  0.00000000000E+00 0.  1.
          2    1    1    2  502    0  0.20631185230E+02  0.19126104969E+02 -0.28939819765E+00  0.28134275299E+02  0.00000000000E+00 0.  1.
</event>
<event>
 4    1  0.8931296E+003  0.3594492E+02  0.7546771E-02  0.1374039E+00
          2   -1    0    0  502    0  0.00000000000E+00  0.00000000000E+00  0.61719541818E+01  0.61719541818E+01  0.00000000000E+00 0. -1.
          2   -1    0    0  501    0 -0.00000000000E+00 -0.00000000000E+00 -0.32998368191E+03  0.32998368191E+03  0.00000000000E+00 0.  1.
          2    1    1    2  501    0  0.35100470355E+02 -0.77456005407E+01 -0.60277173932E+02  0.70181016266E+02  0.00000000000E+00 0. -1.
          2    1    1    2  502    0 -0.35100470355E+02  0.77456005407E+01 -0.26353455379E+03  0.26597461982E+03  0.00000000000E+00 0.  1.
</event>
<event>
 4    1  0.8931296E+003  0.2686154E+02  0.7546771E-02  0.1449004E+00
          2   -1    0    0  502    0  0.00000000000E+00  0.00000000000E+00  0.13731917938E+03  0.13731917938E+03  0.00000000000E+00 0.  1.
          2   -1    0    0  501    0 -0.00000000000E+00 -0.00000000000E+00 -0.43538656054E+02  0.43538656054E+02  0.00000000000E+00 0. -1.
          2    1    1    2  501    0  0.17972345211E+02 -0.19963398795E+02  0.13168705116E+03  0.13439874229E+03  0.00000000000E+00 0.  1.
          2    1    1    2  502    0 -0.17972345211E+02  0.19963398795E+02 -0.37906527835E+02  0.46459093150E+02  0.00000000000E+00 0. -1.
</event>
<event>
 4    1  0.8931296E+003  0.3105457E+02  0.7546771E-02  0.1410648E+00
          2   -1    0    0  501    0  0.00000000000E+00  0.00000000000E+00  0.11782074428E+03  0.11782074428E+03  0.00000000000E+00 0.  1.
          2   -1    0    0  502    0 -0.00000000000E+00 -0.00000000000E+00 -0.12724342302E+04  0.12724342302E+04  0.00000000000E+00 0.  1.
          2    1    1    2  501    0  0.36881254457E+01 -0.30834785449E+02 -0.12701948466E+04  0.12705744113E+04  0.00000000000E+00 0.  1.
          2    1    1    2  502    0 -0.36881254457E+01  0.30834785449E+02  0.11558136070E+03  0.11968056319E+03  0.00000000000E+00 0.  1.
</event>
<event>
 4    1  0.8931296E+003  0.3404188E+02  0.7546771E-02  0.1387427E+00
          2   -1    0    0  502    0  0.00000000000E+00  0.00000000000E+00  0.11563906761E+04  0.11563906761E+04  0.00000000000E+00 0.  1.
          2   -1    0    0  501    0 -0.00000000000E+00 -0.00000000000E+00 -0.43556510417E+01  0.43556510417E+01  0.00000000000E+00 0.  1.
          2    1    1    2  501    0  0.41918425833E+01 -0.33782804700E+02  0.10852681071E+04  0.10858018759E+04  0.00000000000E+00 0.  1.
          2    1    1    2  502    0 -0.41918425833E+01  0.33782804700E+02  0.66766917994E+02  0.74944451269E+02  0.00000000000E+00 0.  1.
</event>
<event>
 4    1  0.8931296E+003  0.2112306E+02  0.7546771E-02  0.1517515E+00
          2   -1    0    0  501    0  0.00000000000E+00  0.00000000000E+00  0.67873998497E+02  0.67873998497E+02  0.00000000000E+00 0.  1.
          2   -1    0    0  502    0 -0.00000000000E+00 -0.00000000000E+00 -0.86057706435E+01  0.86057706435E+01  0.00000000000E+00 0.  1.
          2    1    1    2  501    0 -0.17730348003E+02  0.11481219817E+02  0.11052195596E+02  0.23839770894E+02  0.00000000000E+00 0.  1.
          2    1    1    2  502    0  0.17730348003E+02 -0.11481219817E+02  0.48216032258E+02  0.52639998247E+02  0.00000000000E+00 0.  1.
</event>
<event>
 4    1  0.8931296E+003  0.3041419E+02  0.7546771E-02  0.1416031E+00
          2   -1    0    0  502    0  0.00000000000E+00  0.00000000000E+00  0.17646503128E+04  0.17646503128E+04  0.00000000000E+00 0.  1.
          2   -1    0    0  501    0 -0.00000000000E+00 -0.00000000000E+00 -0.10784577167E+02  0.10784577167E+02  0.00000000000E+00 0. -1.
          2    1    1    2  501    0  0.13064317692E+02 -0.27465365512E+02  0.17428073482E+04  0.17430727109E+04  0.00000000000E+00 0.  1.
          2    1    1    2  502    0 -0.13064317692E+02  0.27465365512E+02  0.11058387458E+02  0.32362179046E+02  0.00000000000E+00 0. -1.
</event>
<event>
 4    1  0.8931296E+003  0.2107415E+02  0.7546771E-02  0.1518209E+00
          2   -1    0    0  501    0  0.00000000000E+00  0.00000000000E+00  0.22584965890E+03  0.22584965890E+03  0.00000000000E+00 0.  1.
          2   -1    0    0  502    0 -0.00000000000E+00 -0.00000000000E+00 -0.68337483069E+01  0.68337483069E+01  0.00000000000E+00 0.  1.
          2    1    1    2  501    0 -0.13612549996E+02  0.16087824206E+02  0.11321767888E+02  0.23922834974E+02  0.00000000000E+00 0.  1.
          2    1    1    2  502    0  0.13612549996E+02 -0.16087824206E+02  0.20769414271E+03  0.20876057223E+03  0.00000000000E+00 0.  1.
</event>
<event>
 4    1  0.8931296E+003  0.2487182E+02  0.7546771E-02  0.1470243E+00
          2   -1    0    0  501    0  0.00000000000E+00  0.00000000000E+00  0.18464193375E+04  0.18464193375E+04  0.00000000000E+00 0. -1.
          2   -1    0    0  502    0 -0.00000000000E+00 -0.00000000000E+00 -0.42828873881E+00  0.42828873881E+00  0.00000000000E+00 0. -1.
          2    1    1    2  501    0 -0.23386032132E+02  0.84676299775E+01  0.49209624907E+03  0.49272439112E+03  0.00000000000E+00 0. -1.
          2    1    1    2  502    0  0.23386032132E+02 -0.84676299775E+01  0.13538947997E+04  0.13541232351E+04  0.00000000000E+00 0. -1.
</event>
<event>
 4    1  0.8931296E+003  0.2155050E+02  0.7546771E-02  0.1511548E+00
          2   -1    0    0  501    0  0.00000000000E+00  0.00000000000E+00  0.60037662340E+02  0.60037662340E+02  0.00000000000E+00 0. -1.
          2   -1    0    0  502    0 -0.00000000000E+00 -0.00000000000E+00 -0.38248224180E+02  0.38248224180E+02  0.00000000000E+00 0.  1.
          2    1    1    2  501    0 -0.50989519280E+01 -0.20938592650E+02 -0.32998325355E+02  0.39412097752E+02  0.00000000000E+00 0.  1.
          2    1    1    2  502    0  0.50989519280E+01  0.20938592650E+02  0.54787763515E+02  0.58873788768E+02  0.00000000000E+00 0. -1.
</event>
<event>
 4    1  0.8931296E+003  0.2068341E+02  0.7546771E-02  0.1523833E+00
          2   -1    0    0  502    0  0.00000000000E+00  0.00000000000E+00  0.94450957803E+01  0.94450957803E+01  0.00000000000E+00 0.  1.
          2   -1    0    0  501    0 -0.00000000000E+00 -0.00000000000E+00 -0.12723854825E+04  0.12723854825E+04  0.00000000000E+00 0.  1.
          2    1    1    2  501    0  0.39245259035E+01  0.20307674905E+02 -0.20657583022E+01  0.20786315714E+02  0.00000000000E+00 0.  1.
          2    1    1    2  502    0 -0.39245259035E+01 -0.20307674905E+02 -0.12608746284E+04  0.12610442625E+04  0.00000000000E+00 0.  1.
</event>
<event>
 4    1  0.8931296E+003  0.3404380E+02  0.7546771E-02  0.1387413E+00
          2   -1    0    0  501    0  0.00000000000E+00  0.00000000000E+00  0.10700522894E+03  0.10700522894E+03  0.00000000000E+00 0. -1.
          2   -1    0    0  502    0 -0.00000000000E+00 -0.00000000000E+00 -0.32280264158E+03  0.32280264158E+03  0.00000000000E+00 0. -1.
          2    1    1    2  501    0 -0.22345463469E+02 -0.25683858859E+02 -0.31916652276E+03  0.32097702347E+03  0.00000000000E+00 0. -1.
          2    1    1    2  502    0  0.22345463469E+02  0.25683858859E+02  0.10336911012E+03  0.10883084705E+03  0.00000000000E+00 0. -1.
</event>
<event>
 4    1  0.8931296E+003  0.2128292E+02  0.7546771E-02  0.1515264E+00
          2   -1    0    0  502    0  0.00000000000E+00  0.00000000000E+00  0.20513235046E+03  0.20513235046E+03  0.00000000000E+00 0.  1.
          2   -1    0    0  501    0 -0.00000000000E+00 -0.00000000000E+00 -0.42425764572E+01  0.42425764572E+01  0.00000000000E+00 0.  1.
          2    1    1    2  501    0 -0.81777895501E+01 -0.19649083540E+02  0.17293870586E+03  0.17424338929E+03  0.00000000000E+00 0.  1.
          2    1    1    2  502    0  0.81777895501E+01  0.19649083540E+02  0.27951068140E+02  0.35131537627E+02  0.00000000000E+00 0.  1.
</event>
<event>
 4    1  0.8931296E+003  0.2053500E+02  0.7546771E-02  0.1526009E+00
          2   -1    0    0  501    0  0.00000000000E+00  0.00000000000E+00  0.71371803884E+02  0.71371803884E+02  0.00000000000E+00 0.  1.
          2   -1    0    0  502    0 -0.00000000000E+00 -0.00000000000E+00 -0.21394792747E+03  0.21394792747E+03  0.00000000000E+00 0. -1.
          2    1    1    2  501    0 -0.20106447738E+02  0.41733656844E+01 -0.21196431728E+03  0.21295670457E+03  0.00000000000E+00 0. -1.
          2    1    1    2  502    0  0.20106447738E+02 -0.41733656844E+01  0.69388193691E+02  0.72363026785E+02  0.00000000000E+00 0.  1.
</event>
<event>
 4    1  0.8931296E+003  0.2654116E+02  0.7546771E-02  0.1452272E+00
          2   -1    0    0  502    0  0.00000000000E+00  0.00000000000E+00  0.46680283351E+01  0.46680283351E+01  0.00000000000E+00 0. -1.
          2   -1    0    0  501    0 -0.00000000000E+00 -0.00000000000E+00 -0.79706402829E+03  0.79706402829E+03  0.00000000000E+00 0. -1.
          2    1    1    2  501    0  0.49571257943E+01 -0.26074131282E+02 -0.35268794589E+02  0.44139792591E+02  0.00000000000E+00 0. -1.
          2    1    1    2  502    0 -0.49571257943E+01  0.26074131282E+02 -0.75712720537E+03  0.75759226404E+03  0.00000000000E+00 0. -1.
</event>
<event>
 4    1  0.8931296E+003  0.2195823E+02  0.7546771E-02  0.1506011E+00
          2   -1    0    0  501    0  0.00000000000E+00  0.00000000000E+00  0.26149035998E+02  0.26149035998E+02  0.00000000000E+00 0. -1.
          2   -1    0    0  502    0 -0.00000000000E+00 -0.00000000000E+00 -0.43244328720E+02  0.43244328720E+02  0.00000000000E+00 0.  1.
          2    1    1    2  501    0 -0.20419547657E+02 -0.80750245564E+01 -0.34825823536E+02  0.41170401177E+02  0.00000000000E+00 0.  1.
          2    1    1    2  502    0  0.20419547657E+02  0.80750245564E+01  0.17730530814E+02  0.28222963541E+02  0.00000000000E+00 0. -1.
</event>
<event>
 4    1  0.8931296E+003  0.2493175E+02  0.7546771E-02  0.1469568E+00
          2   -1    0    0  501    0  0.00000000000E+00  0.00000000000E+00  0.19313071683E+03  0.19313071683E+03  0.00000000000E+00 0.  1.
          2   -1    0    0  502    0 -0.00000000000E+00 -0.00000000000E+00 -0.37576299348E+03  0.37576299348E+03  0.00000000000E+00 0. -1.
          2    1    1    2  501    0  0.11563808150E+02  0.22087795020E+02 -0.37454219381E+03  0.37537107945E+03  0.00000000000E+00 0. -1.
          2    1    1    2  502    0 -0.11563808150E+02 -0.22087795020E+02  0.19190991716E+03  0.19352263085E+03  0.00000000000E+00 0.  1.
</event>
<event>
 4    1  0.8931296E+003  0.2228530E+02  0.7546771E-02  0.1501673E+00
          2   -1    0    0  501    0  0.00000000000E+00  0.00000000000E+00  0.60775272333E+03  0.60775272333E+03  0.00000000000E+00 0. -1.
          2   -1    0    0  502    0 -0.00000000000E+00 -0.00000000000E+00 -0.26828904591E+03  0.26828904591E+03  0.00000000000E+00 0.  1.
          2    1    1    2  501    0 -0.22280495487E+02 -0.46295128374E+00 -0.26762146610E+03  0.26854773118E+03  0.00000000000E+00 0.  1.
          2    1    1    2  502    0  0.22280495487E+02  0.46295128374E+00  0.60708514351E+03  0.60749403806E+03  0.00000000000E+00 0. -1.
</event>
<event>
 4    1  0.8931296E+003  0.2166414E+02  0.7546771E-02  0.1509990E+00
          2   -1    0    0  501    0  0.00000000000E+00  0.00000000000E+00  0.13050605641E+04  0.13050605641E+04  0.00000000000E+00 0. -1.
          2   -1    0    0  502    0 -0.00000000000E+00 -0.00000000000E+00 -0.15958086961E+02  0.15958086961E+02  0.00000000000E+00 0.  1.
          2    1    1    2  501    0  0.25765174648E+01  0.21510385463E+02 -0.84731482618E+01  0.23262187483E+02  0.00000000000E+00 0.  1.
          2    1    1    2  502    0 -0.25765174648E+01 -0.21510385463E+02  0.12975756254E+04  0.12977564636E+04  0.00000000000E+00 0. -1.
</event>
<event>
 4    1  0.8931296E+003  0.2247291E+02  0.7546771E-02  0.1499225E+00
          2   -1    0    0  502    0  0.00000000000E+00  0.00000000000E+00  0.83883138191E+01  0.83883138191E+01  0.00000000000E+00 0. -1.
          2   -1    0    0  501    0 -0.00000000000E+00 -0.00000000000E+00 -0.14032397320E+03  0.14032397320E+03  0.00000000000E+00 0. -1.
          2    1    1    2  501    0 -0.35488381339E+01  0.22190927738E+02 -0.97836069020E+01  0.24510211953E+02  0.00000000000E+00 0. -1.
          2    1    1    2  502    0  0.35488381339E+01 -0.22190927738E+02 -0.12215205248E+03  0.12420207506E+03  0.00000000000E+00 0. -1.
</event>
<event>
 4    1  0.8931296E+003  0.2255937E+02  0.7546771E-02  0.1498107E+00
          2   -1    0    0  501    0  0.00000000000E+00  0.00000000000E+00  0.86940907363E+03  0.86940907363E+03  0.00000000000E+00 0.  1.
          2   -1    0    0  502    0 -0.00000000000E+00 -0.00000000000E+00 -0.10734972847E+02  0.10734972847E+02  0.00000000000E+00 0. -1.
          2    1    1    2  501    0 -0.21838427285E+02 -0.56575682834E+01  0.14315846270E+01  0.22604743301E+02  0.00000000000E+00 0. -1.
          2    1    1    2  502    0  0.21838427285E+02  0.56575682834E+01  0.85724251616E+03  0.85753930318E+03  0.00000000000E+00 0.  1.
</event>
<event>
 4    1  0.8931296E+003  0.3351931E+02  0.7546771E-02  0.1391283E+00
          2   -1    0    0  502    0  0.00000000000E+00  0.00000000000E+00  0.15903875545E+04  0.15903875545E+04  0.00000000000E+00 0.  1.
          2   -1    0    0  501    0 -0.00000000000E+00 -0.00000000000E+00 -0.34876050672E+01  0.34876050672E+01  0.00000000000E+00 0. -1.
          2    1    1    2  501    0 -0.16444725311E+02 -0.29208137656E+02  0.15051099183E+04  0.15054831153E+04  0.00000000000E+00 0.  1.
          2    1    1    2  502    0  0.16444725311E+02  0.29208137656E+02  0.81790031082E+02  0.88392044214E+02  0.00000000000E+00 0. -1.
</event>
<event>
 4    1  0.8931296E+003  0.3782854E+02  0.7546771E-02  0.1361703E+00
          2   -1    0    0  501    0  0.00000000000E+00  0.00000000000E+00  0.28321157091E+01  0.28321157091E+01  0.00000000000E+00 0. -1.
          2   -1    0    0  502    0 -0.00000000000E+00 -0.00000000000E+00 -0.18612999649E+04  0.18612999649E+04  0.00000000000E+00 0.  1.
          2    1    1    2  501    0 -0.33419739960E+02  0.17723418243E+02 -0.17247926968E+04  0.17252074789E+04  0.00000000000E+00 0.  1.
          2    1    1    2  502    0  0.33419739960E+02 -0.17723418243E+02 -0.13367515243E+03  0.13892460168E+03  0.00000000000E+00 0. -1.
</event>
<event>
 4    1  0.8931296E+003  0.6631416E+02  0.7546771E-02  0.1239767E+00
          2   -1    0    0  502    0  0.00000000000E+00  0.00000000000E+00  0.33360949122E+04  0.33360949122E+04  0.00000000000E+00 0.  1.
          2   -1    0    0  501    0 -0.00000000000E+00 -0.00000000000E+00 -0.77774650579E+01  0.77774650579E+01  0.00000000000E+00 0.  1.
          2    1    1    2  501    0  0.12594087454E+02  0.65107270898E+02  0.31878358503E+04  0.31885255176E+04  0.00000000000E+00 0.  1.
          2    1    1    2  502    0 -0.12594087454E+02 -0.65107270898E+02  0.14048159685E+03  0.15534685969E+03  0.00000000000E+00 0.  1.
</event>
<event>
 4    1  0.8931296E+003  0.3222631E+02  0.7546771E-02  0.1401187E+00
          2   -1    0    0  501    0  0.00000000000E+00  0.00000000000E+00  0.69998248274E+02  0.69998248274E+02  0.00000000000E+00 0. -1.
          2   -1    0    0  502    0 -0.00000000000E+00 -0.00000000000E+00 -0.51462381781E+03  0.51462381781E+03  0.00000000000E+00 0. -1.
          2    1    1    2  501    0 -0.34128464154E+01 -0.32045089558E+02 -0.51037934278E+03  0.51139574580E+03  0.00000000000E+00 0. -1.
          2    1    1    2  502    0  0.34128464154E+01  0.32045089558E+02  0.65753773247E+02  0.73226320280E+02  0.00000000000E+00 0. -1.
</event>
<event>
 4    1  0.8931296E+003  0.4121806E+02  0.7546771E-02  0.1341492E+00
          2   -1    0    0  501    0  0.00000000000E+00  0.00000000000E+00  0.93498557526E+03  0.93498557526E+03  0.00000000000E+00 0. -1.
          2   -1    0    0  502    0 -0.00000000000E+00 -0.00000000000E+00 -0.82538135672E+01  0.82538135672E+01  0.00000000000E+00 0. -1.
          2    1    1    2  501    0 -0.40873879366E+02  0.53155193486E+01  0.46882279112E+02  0.62424969804E+02  0.00000000000E+00 0. -1.
          2    1    1    2  502    0  0.40873879366E+02 -0.53155193486E+01  0.87984948258E+03  0.88081441903E+03  0.00000000000E+00 0. -1.
</event>
<event>
 4    1  0.8931296E+003  0.4044814E+02  0.7546771E-02  0.1345880E+00
          2   -1    0    0  501    0  0.00000000000E+00  0.00000000000E+00  0.77223585635E+01  0.77223585635E+01  0.00000000000E+00 0. -1.
          2   -1    0    0  502    0 -0.00000000000E+00 -0.00000000000E+00 -0.10500090537E+04  0.10500090537E+04  0.00000000000E+00 0. -1.
          2    1    1    2  501    0  0.36173754083E+02 -0.18097281225E+02 -0.99365197508E+03  0.99447488638E+03  0.00000000000E+00 0. -1.
          2    1    1    2  502    0 -0.36173754083E+02  0.18097281225E+02 -0.48634720095E+02  0.63256525916E+02  0.00000000000E+00 0. -1.
</event>
<event>
 4    1  0.8931296E+003  0.2027791E+02  0.7546771E-02  0.1529829E+00
          2   -1    0    0  502    0  0.00000000000E+00  0.00000000000E+00  0.27668569041E+02  0.27668569041E+02  0.00000000000E+00 0.  1.
          2   -1    0    0  501    0 -0.00000000000E+00 -0.00000000000E+00 -0.83608725481E+03  0.83608725481E+03  0.00000000000E+00 0. -1.
          2    1    1    2  501    0  0.25546408731E+01 -0.20116346214E+02  0.23813058484E+02  0.31277073542E+02  0.00000000000E+00 0.  1.
          2    1    1    2  502    0 -0.25546408731E+01  0.20116346214E+02 -0.83223174425E+03  0.83247875031E+03  0.00000000000E+00 0. -1.
</event>
<event>
 4    1  0.8931296E+003  0.2044625E+02  0.7546771E-02  0.1527320E+00
          2   -1    0    0  501    0  0.00000000000E+00  0.00000000000E+00  0.80585437754E+02  0.80585437754E+02  0.00000000000E+00 0.  1.
          2   -1    0    0  502    0 -0.00000000000E+00 -0.00000000000E+00 -0.58803905717E+03  0.58803905717E+03  0.00000000000E+00 0.  1.
          2    1    1    2  501    0  0.10518322623E+02 -0.17533222093E+02 -0.58656114801E+03  0.58691739567E+03  0.00000000000E+00 0.  1.
          2    1    1    2  502    0 -0.10518322623E+02  0.17533222093E+02  0.79107528595E+02  0.81707099252E+02  0.00000000000E+00 0.  1.
</event>
<event>
 4    1  0.8931296E+003  0.3436633E+02  0.7546771E-02  0.1385074E+00
          2   -1    0    0  501    0  0.00000000000E+00  0.00000000000E+00  0.47046126545E+01  0.47046126545E+01  0.00000000000E+00 0.  1.
          2   -1    0    0  502    0 -0.00000000000E+00 -0.00000000000E+00 -0.58505183002E+03  0.58505183002E+03  0.00000000000E+00 0. -1.
          2    1    1    2  501    0  0.15956686923E+02 -0.30437295706E+02 -0.51297946831E+03  0.51412934145E+03  0.00000000000E+00 0. -1.
          2    1    1    2  502    0 -0.15956686923E+02  0.30437295706E+02 -0.67367749050E+02  0.75627101223E+02  0.00000000000E+00 0.  1.
</event>
<event>
 4    1  0.8931296E+003  0.3273454E+02  0.7546771E-02  0.1397230E+00
          2   -1    0    0  502    0  0.00000000000E+00  0.00000000000E+00  0.38750231746E+03  0.38750231746E+03  0.00000000000E+00 0.  1.
          2   -1    0    0  501    0 -0.00000000000E+00 -0.00000000000E+00 -0.47107321443E+03  0.47107321443E+03  0.00000000000E+00 0.  1.
          2    1    1    2  501    0 -0.18928812217E+02 -0.26706749715E+02  0.38624046912E+03  0.38762514160E+03  0.00000000000E+00 0.  1.
          2    1    1    2  502    0  0.18928812217E+02  0.26706749715E+02 -0.46981136609E+03  0.47095039029E+03  0.00000000000E+00 0.  1.
</event>
<event>
 4    1  0.8931296E+003  0.2341645E+02  0.7546771E-02  0.1487334E+00
          2   -1    0    0  502    0  0.00000000000E+00  0.00000000000E+00  0.13769559833E+03  0.13769559833E+03  0.00000000000E+00 0.  1.
          2   -1    0    0  501    0 -0.00000000000E+00 -0.00000000000E+00 -0.47699498012E+01  0.47699498012E+01  0.00000000000E+00 0. -1.
          2    1    1    2  501    0  0.14497977136E+02  0.18388547518E+02  0.95410912576E+02  0.98242415786E+02  0.00000000000E+00 0.  1.
          2    1    1    2  502    0 -0.14497977136E+02 -0.18388547518E+02  0.37514735956E+02  0.44223132349E+02  0.00000000000E+00 0. -1.
</event>
<event>
 4    1  0.8931296E+003  0.2611415E+02  0.7546771E-02  0.1456715E+00
          2   -1    0    0  501    0  0.00000000000E+00  0.00000000000E+00  0.27353993903E+02  0.27353993903E+02  0.00000000000E+00 0.  1.
          2   -1    0    0  502    0 -0.00000000000E+00 -0.00000000000E+00 -0.98347539843E+03  0.98347539843E+03  0.00000000000E+00 0.  1.
          2    1    1    2  501    0 -0.14853103902E+02 -0.21478685009E+02 -0.97702830325E+03  0.97737723217E+03  0.00000000000E+00 0.  1.
          2    1    1    2  502    0  0.14853103902E+02  0.21478685009E+02  0.20906898726E+02  0.33452160163E+02  0.00000000000E+00 0.  1.
</event>
<event>
 4    1  0.8931296E+003  0.4736518E+02  0.7546771E-02  0.1310019E+00
          2   -1    0    0  501    0  0.00000000000E+00  0.00000000000E+00  0.34129061372E+02  0.34129061372E+02  0.00000000000E+00 0. -1.
          2   -1    0    0  502    0 -0.00000000000E+00 -0.00000000000E+00 -0.14369166105E+04  0.14369166105E+04  0.00000000000E+00 0. -1.
          2    1    1    2  501    0 -0.46891050297E+02  0.66850074745E+01 -0.14198956945E+04  0.14206854836E+04  0.00000000000E+00 0. -1.
          2    1    1    2  502    0  0.46891050297E+02 -0.66850074745E+01  0.17108145419E+02  0.50360188270E+02  0.00000000000E+00 0. -1.
</event>
<event>
 4    1  0.8931296E+003  0.2491687E+02  0.7546771E-02  0.1469736E+00
          2   -1    0    0  501    0  0.00000000000E+00  0.00000000000E+00  0.74847737947E+03  0.74847737947E+03  0.00000000000E+00 0. -1.
          2   -1    0    0  502    0 -0.00000000000E+00 -0.00000000000E+00 -0.20044085813E+01  0.20044085813E+01  0.00000000000E+00 0.  1.
          2    1    1    2  501    0  0.83046362457E+01 -0.23492200722E+02  0.85945555605E+02  0.89484574124E+02  0.00000000000E+00 0.  1.
          2    1    1    2  502    0 -0.83046362457E+01  0.23492200722E+02  0.66052741528E+03  0.66099721392E+03  0.00000000000E+00 0. -1.
</event>
<event>
 4    1  0.8931296E+003  0.2294252E+02  0.7546771E-02  0.1493221E+00
          2   -1    0    0  501    0  0.00000000000E+00  0.00000000000E+00  0.54789660163E+03  0.54789660163E+03  0.00000000000E+00 0. -1.
          2   -1    0    0  502    0 -0.00000000000E+00 -0.00000000000E+00 -0.18038706144E+03  0.18038706144E+03  0.00000000000E+00 0.  1.
          2    1    1    2  501    0  0.93273315740E+01 -0.20960922111E+02 -0.17941610815E+03  0.18087702794E+03  0.00000000000E+00 0.  1.
          2    1    1    2  502    0 -0.93273315740E+01  0.20960922111E+02  0.54692564834E+03  0.54740663513E+03  0.00000000000E+00 0. -1.
</event>
<event>
 4    1  0.8931296E+003  0.2301861E+02  0.7546771E-02  0.1492265E+00
          2   -1    0    0  501    0  0.00000000000E+00  0.00000000000E+00  0.18835886493E+04  0.18835886493E+04  0.00000000000E+00 0.  1.
          2   -1    0    0  502    0 -0.00000000000E+00 -0.00000000000E+00 -0.28332637358E+00  0.28332637358E+00  0.00000000000E+00 0.  1.
          2    1    1    2  501    0 -0.22899815949E+02  0.23355138183E+01  0.86202141480E+03  0.86232869358E+03  0.00000000000E+00 0.  1.
          2    1    1    2  502    0  0.22899815949E+02 -0.23355138183E+01  0.10212839082E+04  0.10215432821E+04  0.00000000000E+00 0.  1.
</event>
<event>
 4    1  0.8931296E+003  0.2835591E+02  0.7546771E-02  0.1434443E+00
          2   -1    0    0  502    0  0.00000000000E+00  0.00000000000E+00  0.13366279265E+03  0.13366279265E+03  0.00000000000E+00 0. -1.
          2   -1    0    0  501    0 -0.00000000000E+00 -0.00000000000E+00 -0.15901694357E+02  0.15901694357E+02  0.00000000000E+00 0. -1.
          2    1    1    2  501    0 -0.41461178521E+01  0.28051154246E+02  0.11784494855E+03  0.12120845452E+03  0.00000000000E+00 0. -1.
          2    1    1    2  502    0  0.41461178521E+01 -0.28051154246E+02 -0.83850256304E-01  0.28356032491E+02  0.00000000000E+00 0. -1.
</event>
<event>
 4    1  0.8931296E+003  0.2092894E+02  0.7546771E-02  0.1520282E+00
          2   -1    0    0  502    0  0.00000000000E+00  0.00000000000E+00  0.52122352235E+03  0.52122352235E+03  0.00000000000E+00 0. -1.
          2   -1    0    0  501    0 -0.00000000000E+00 -0.00000000000E+00 -0.23125980146E+03  0.23125980146E+03  0.00000000000E+00 0.  1.
          2    1    1    2  501    0  0.17800284795E+02 -0.11007745801E+02  0.52053929196E+03  0.52095985938E+03  0.00000000000E+00 0. -1.
          2    1    1    2  502    0 -0.17800284795E+02  0.11007745801E+02 -0.23057557107E+03  0.23152346443E+03  0.00000000000E+00 0.  1.
</event>
<event>
 4    1  0.8931296E+003  0.2290065E+02  0.7546771E-02  0.1493750E+00
          2   -1    0    0  502    0  0.00000000000E+00  0.00000000000E+00  0.75786791572E+01  0.75786791572E+01  0.00000000000E+00 0.  1.
          2   -1    0    0  501    0 -0.00000000000E+00 -0.00000000000E+00 -0.77459643514E+02  0.77459643514E+02  0.00000000000E+00 0.  1.
          2    1    1    2  501    0  0.18353392394E+02 -0.13696445407E+02 -0.48825448464E+02  0.53929250382E+02  0.00000000000E+00 0.  1.
          2    1    1    2  502    0 -0.18353392394E+02  0.13696445407E+02 -0.21055515894E+02  0.31109072289E+02  0.00000000000E+00 0.  1.
</event>
<event>
 4    1  0.8931296E+003  0.2385137E+02  0.7546771E-02  0.1482075E+00
          2   -1    0    0  502    0  0.00000000000E+00  0.00000000000E+00  0.25844142026E+03  0.25844142026E+03  0.00000000000E+00 0.  1.
          2   -1    0    0  501    0 -0.00000000000E+00 -0.00000000000E+00 -0.94993959467E+03  0.94993959467E+03  0.00000000000E+00 0. -1.
          2    1    1    2  501    0  0.74197419199E+01 -0.22667933600E+02  0.25774099111E+03  0.25884224208E+03  0.00000000000E+00 0.  1.
          2    1    1    2  502    0 -0.74197419199E+01  0.22667933600E+02 -0.94923916552E+03  0.94953877285E+03  0.00000000000E+00 0. -1.
</event>
<event>
 4    1  0.8931296E+003  0.2709453E+02  0.7546771E-02  0.1446661E+00
          2   -1    0    0  501    0  0.00000000000E+00  0.00000000000E+00  0.25106784935E+03  0.25106784935E+03  0.00000000000E+00 0.  1.
          2   -1    0    0  502    0 -0.00000000000E+00 -0.00000000000E+00 -0.55569778583E+03  0.55569778583E+03  0.00000000000E+00 0. -1.
          2    1    1    2  501    0  0.41474691151E+01  0.26775212193E+02 -0.55463512847E+03  0.55529653269E+03  0.00000000000E+00 0. -1.
          2    1    1    2  502    0 -0.41474691151E+01 -0.26775212193E+02  0.25000519198E+03  0.25146910249E+03  0.00000000000E+00 0.  1.
</event>
<event>
 4    1  0.1107447E+004  0.2472056E+02  0.7546771E-02  0.1471954E+00
          2   -1    0    0  501    0  0.00000000000E+00  0.00000000000E+00  0.77324669828E+03  0.77324669828E+03  0.00000000000E+00 0. -1.
          2   -1    0    0  502    0 -0.00000000000E+00 -0.00000000000E+00 -0.54024016093E+03  0.54024016093E+03  0.00000000000E+00 0. -1.
          2    1    1    2  501    0  0.21274833026E+01 -0.24628842857E+02 -0.53975961343E+03  0.54032540786E+03  0.00000000000E+00 0. -1.
          2    1    1    2  502    0 -0.21274833026E+01  0.24628842857E+02  0.77276615077E+03  0.77316145136E+03  0.00000000000E+00 0. -1.
</event>
<event>
 4    1  0.8931296E+003  0.4785417E+02  0.7546771E-02  0.1307754E+00
          2   -1    0    0  501    0  0.00000000000E+00  0.00000000000E+00  0.41661234742E+03  0.41661234742E+03  0.00000000000E+00 0.  1.
          2   -1    0    0  502    0 -0.00000000000E+00 -0.00000000000E+00 -0.28509824785E+03  0.28509824785E+03  0.00000000000E+00 0. -1.
          2    1    1    2  501    0 -0.43601667913E+02  0.19720960717E+02 -0.28169949497E+03  0.28573523969E+03  0.00000000000E+00 0. -1.
          2    1    1    2  502    0  0.43601667913E+02 -0.19720960717E+02  0.41321359454E+03  0.41597535558E+03  0.00000000000E+00 0.  1.
</event>
<event>
 4    1  0.8931296E+003  0.2045790E+02  0.7546771E-02  0.1527147E+00
          2   -1    0    0  501    0  0.00000000000E+00  0.00000000000E+00  0.20399776357E+02  0.20399776357E+02  0.00000000000E+00 0.  1.
          2   -1    0    0  502    0 -0.00000000000E+00 -0.00000000000E+00 -0.27167248281E+02  0.27167248281E+02  0.00000000000E+00 0. -1.
          2    1    1    2  501    0 -0.20387551192E+02 -0.16951125157E+01 -0.15151626016E+02  0.25457757579E+02  0.00000000000E+00 0. -1.
          2    1    1    2  502    0  0.20387551192E+02  0.16951125157E+01  0.83841540921E+01  0.22109267059E+02  0.00000000000E+00 0.  1.
</event>
<event>
 4    1  0.8931296E+003  0.2161441E+02  0.7546771E-02  0.1510671E+00
          2   -1    0    0  501    0  0.00000000000E+00  0.00000000000E+00  0.11754025469E+03  0.11754025469E+03  0.00000000000E+00 0. -1.
          2   -1    0    0  502    0 -0.00000000000E+00 -0.00000000000E+00 -0.18458328455E+03  0.18458328455E+03  0.00000000000E+00 0. -1.
          2    1    1    2  501    0 -0.11401951604E+02  0.18362415758E+02 -0.18294801453E+03  0.18422040830E+03  0.00000000000E+00 0. -1.
          2    1    1    2  502    0  0.11401951604E+02 -0.18362415758E+02  0.11590498467E+03  0.11790313094E+03  0.00000000000E+00 0. -1.
</event>
<event>
 4    1  0.8931296E+003  0.2890587E+02  0.7546771E-02  0.1429349E+00
          2   -1    0    0  502    0  0.00000000000E+00  0.00000000000E+00  0.12229559889E+03  0.12229559889E+03  0.00000000000E+00 0.  1.
          2   -1    0    0  501    0 -0.00000000000E+00 -0.00000000000E+00 -0.18412377326E+02  0.18412377326E+02  0.00000000000E+00 0.  1.
          2    1    1    2  501    0 -0.19228291456E+02  0.21582918258E+02  0.10773608036E+03  0.11154645922E+03  0.00000000000E+00 0.  1.
          2    1    1    2  502    0  0.19228291456E+02 -0.21582918258E+02 -0.38528587945E+01  0.29161517000E+02  0.00000000000E+00 0.  1.
</event>
<event>
 4    1  0.8931296E+003  0.2320831E+02  0.7546771E-02  0.1489899E+00
          2   -1    0    0  501    0  0.00000000000E+00  0.00000000000E+00  0.79695033475E+02  0.79695033475E+02  0.00000000000E+00 0. -1.
          2   -1    0    0  502    0 -0.00000000000E+00 -0.00000000000E+00 -0.12154076818E+02  0.12154076818E+02  0.00000000000E+00 0. -1.
          2    1    1    2  501    0 -0.11776116217E+02  0.19998714574E+02  0.31720183016E+01  0.23424073042E+02  0.00000000000E+00 0. -1.
          2    1    1    2  502    0  0.11776116217E+02 -0.19998714574E+02  0.64368938355E+02  0.68425037251E+02  0.00000000000E+00 0. -1.
</event>
<event>
 4    1  0.8931296E+003  0.2431858E+02  0.7546771E-02  0.1476573E+00
          2   -1    0    0  501    0  0.00000000000E+00  0.00000000000E+00  0.10359567403E+03  0.10359567403E+03  0.00000000000E+00 0. -1.
          2   -1    0    0  502    0 -0.00000000000E+00 -0.00000000000E+00 -0.50868988969E+03  0.50868988969E+03  0.00000000000E+00 0. -1.
          2    1    1    2  501    0 -0.18669692567E+02  0.15583190770E+02 -0.50696723086E+03  0.50755016148E+03  0.00000000000E+00 0. -1.
          2    1    1    2  502    0  0.18669692567E+02 -0.15583190770E+02  0.10187301520E+03  0.10473540223E+03  0.00000000000E+00 0. -1.
</event>
<event>
 4    1  0.8931296E+003  0.2755714E+02  0.7546771E-02  0.1442090E+00
          2   -1    0    0  501    0  0.00000000000E+00  0.00000000000E+00  0.15847431437E+04  0.15847431437E+04  0.00000000000E+00 0.  1.
          2   -1    0    0  502    0 -0.00000000000E+00 -0.00000000000E+00 -0.12631086673E+01  0.12631086673E+01  0.00000000000E+00 0. -1.
          2    1    1    2  501    0 -0.25897883635E+02 -0.94178393252E+01  0.16701410612E+03  0.16927228869E+03  0.00000000000E+00 0. -1.
          2    1    1    2  502    0  0.25897883635E+02  0.94178393252E+01  0.14164659289E+04  0.14167339637E+04  0.00000000000E+00 0.  1.
</event>
<event>
 4    1  0.8931296E+003  0.3096371E+02  0.7546771E-02  0.1411402E+00
          2   -1    0    0  501    0  0.00000000000E+00  0.00000000000E+00  0.18263607514E+03  0.18263607514E+03  0.00000000000E+00 0. -1.
          2   -1    0    0  502    0 -0.00000000000E+00 -0.00000000000E+00 -0.57808366901E+02  0.57808366901E+02  0.00000000000E+00 0. -1.
          2    1    1    2  501    0 -0.28069489849E+02  0.13071145022E+02 -0.52219849874E+02  0.60709668204E+02  0.00000000000E+00 0. -1.
          2    1    1    2  502    0  0.28069489849E+02 -0.13071145022E+02  0.17704755811E+03  0.17973477383E+03  0.00000000000E+00 0. -1.
</event>
<event>
 4    1  0.8931296E+003  0.3701514E+02  0.7546771E-02  0.1366924E+00
          2   -1    0    0  501    0  0.00000000000E+00  0.00000000000E+00  0.17259718460E+04  0.17259718460E+04  0.00000000000E+00 0.  1.
          2   -1    0    0  502    0 -0.00000000000E+00 -0.00000000000E+00 -0.25055422408E+03  0.25055422408E+03  0.00000000000E+00 0.  1.
          2    1    1    2  501    0  0.81151942311E+01 -0.36114598749E+02 -0.24898743577E+03  0.25172378472E+03  0.00000000000E+00 0.  1.
          2    1    1    2  502    0 -0.81151942311E+01  0.36114598749E+02  0.17244050577E+04  0.17248022854E+04  0.00000000000E+00 0.  1.
</event>
<event>
 4    1  0.8931296E+003  0.3010288E+02  0.7546771E-02  0.1418704E+00
          2   -1    0    0  501    0  0.00000000000E+00  0.00000000000E+00  0.19786259522E+03  0.19786259522E+03  0.00000000000E+00 0.  1.
          2   -1    0    0  502    0 -0.00000000000E+00 -0.00000000000E+00 -0.76051696572E+03  0.76051696572E+03  0.00000000000E+00 0. -1.
          2    1    1    2  501    0  0.26080421876E+02  0.15033127023E+02 -0.75907193753E+03  0.75966860515E+03  0.00000000000E+00 0. -1.
          2    1    1    2  502    0 -0.26080421876E+02 -0.15033127023E+02  0.19641756703E+03  0.19871095579E+03  0.00000000000E+00 0.  1.
</event>
<event>
 4    1  0.8931296E+003  0.2069691E+02  0.7546771E-02  0.1523637E+00
          2   -1    0    0  502    0  0.00000000000E+00  0.00000000000E+00  0.62409362060E+03  0.62409362060E+03  0.00000000000E+00 0. -1.
          2   -1    0    0  501    0 -0.00000000000E+00 -0.00000000000E+00 -0.49308839408E+01  0.49308839408E+01  0.00000000000E+00 0.  1.
          2    1    1    2  501    0 -0.20588301511E+02  0.21175084515E+01  0.60138381290E+03  0.60173985444E+03  0.00000000000E+00 0. -1.
          2    1    1    2  502    0  0.20588301511E+02 -0.21175084515E+01  0.17778923758E+02  0.27284650101E+02  0.00000000000E+00 0.  1.
</event>
<event>
 4    1  0.8931296E+003  0.2056936E+02  0.7546771E-02  0.1525503E+00
          2   -1    0    0  502    0  0.00000000000E+00  0.00000000000E+00  0.50153038212E+03  0.50153038212E+03  0.00000000000E+00 0.  1.
          2   -1    0    0  501    0 -0.00000000000E+00 -0.00000000000E+00 -0.15482666149E+01  0.15482666149E+01  0.00000000000E+00 0. -1.
          2    1    1    2  501    0 -0.17494337402E+02 -0.10818813920E+02  0.41968651931E+03  0.42019028198E+03  0.00000000000E+00 0.  1.
          2    1    1    2  502    0  0.17494337402E+02  0.10818813920E+02  0.80295596198E+02  0.82888366763E+02  0.00000000000E+00 0. -1.
</event>
<event>
 4    1  0.8931296E+003  0.3043435E+02  0.7546771E-02  0.1415859E+00
          2   -1    0    0  501    0  0.00000000000E+00  0.00000000000E+00  0.56350435988E+01  0.56350435988E+01  0.00000000000E+00 0. -1.
          2   -1    0    0  502    0 -0.00000000000E+00 -0.00000000000E+00 -0.25528593482E+03  0.25528593482E+03  0.00000000000E+00 0. -1.
          2    1    1    2  501    0  0.66600072165E+00  0.30427060770E+02 -0.20267894879E+03  0.20495122802E+03  0.00000000000E+00 0. -1.
          2    1    1    2  502    0 -0.66600072165E+00 -0.30427060770E+02 -0.46971942432E+02  0.55969750401E+02  0.00000000000E+00 0. -1.
</event>
<event>
 4    1  0.8931296E+003  0.2369208E+02  0.7546771E-02  0.1483986E+00
          2   -1    0    0  502    0  0.00000000000E+00  0.00000000000E+00  0.64491884321E+02  0.64491884321E+02  0.00000000000E+00 0.  1.
          2   -1    0    0  501    0 -0.00000000000E+00 -0.00000000000E+00 -0.11167410076E+02  0.11167410076E+02  0.00000000000E+00 0.  1.
          2    1    1    2  501    0  0.19161584413E+02  0.13933711667E+02  0.44430929638E+02  0.50352975548E+02  0.00000000000E+00 0.  1.
          2    1    1    2  502    0 -0.19161584413E+02 -0.13933711667E+02  0.88935446071E+01  0.25306318849E+02  0.00000000000E+00 0.  1.
</event>
<event>
 4    1  0.8931296E+003  0.2657340E+02  0.7546771E-02  0.1451941E+00
          2   -1    0    0  502    0  0.00000000000E+00  0.00000000000E+00  0.54519417184E+03  0.54519417184E+03  0.00000000000E+00 0.  1.
          2   -1    0    0  501    0 -0.00000000000E+00 -0.00000000000E+00 -0.17188661958E+03  0.17188661958E+03  0.00000000000E+00 0. -1.
          2    1    1    2  501    0  0.15491786368E+02 -0.21590513255E+02  0.54384076115E+03  0.54448959512E+03  0.00000000000E+00 0.  1.
          2    1    1    2  502    0 -0.15491786368E+02  0.21590513255E+02 -0.17053320889E+03  0.17259119631E+03  0.00000000000E+00 0. -1.
</event>
<event>
 4    1  0.8931296E+003  0.8026748E+02  0.7546771E-02  0.1203228E+00
          2   -1    0    0  501    0  0.00000000000E+00  0.00000000000E+00  0.43761154259E+01  0.43761154259E+01  0.00000000000E+00 0. -1.
          2   -1    0    0  502    0 -0.00000000000E+00 -0.00000000000E+00 -0.23438498509E+04  0.23438498509E+04  0.00000000000E+00 0. -1.
          2    1    1    2  501    0  0.68512565516E+02  0.41819819194E+02 -0.18857088046E+04  0.18874163729E+04  0.00000000000E+00 0. -1.
          2    1    1    2  502    0 -0.68512565516E+02 -0.41819819194E+02 -0.45376493091E+03  0.46080959347E+03  0.00000000000E+00 0. -1.
</event>
<event>
 4    1  0.8931296E+003  0.2012296E+02  0.7546771E-02  0.1532164E+00
          2   -1    0    0  502    0  0.00000000000E+00  0.00000000000E+00  0.22691900185E+02  0.22691900185E+02  0.00000000000E+00 0.  1.
          2   -1    0    0  501    0 -0.00000000000E+00 -0.00000000000E+00 -0.77453901416E+03  0.77453901416E+03  0.00000000000E+00 0.  1.
          2    1    1    2  501    0  0.20122830836E+02 -0.70903183385E-01  0.18073230808E+02  0.27047643520E+02  0.00000000000E+00 0.  1.
          2    1    1    2  502    0 -0.20122830836E+02  0.70903183385E-01 -0.76992034479E+03  0.77018327083E+03  0.00000000000E+00 0.  1.
</event>
<event>
 4    1  0.8931296E+003  0.3945464E+02  0.7546771E-02  0.1351712E+00
          2   -1    0    0  501    0  0.00000000000E+00  0.00000000000E+00  0.36863479815E+01  0.36863479815E+01  0.00000000000E+00 0. -1.
          2   -1    0    0  502    0 -0.00000000000E+00 -0.00000000000E+00 -0.46232147164E+03  0.46232147164E+03  0.00000000000E+00 0. -1.
          2    1    1    2  501    0  0.36473318491E+02  0.15045449673E+02 -0.29789004578E+03  0.30049151052E+03  0.00000000000E+00 0. -1.
          2    1    1    2  502    0 -0.36473318491E+02 -0.15045449673E+02 -0.16074507788E+03  0.16551630910E+03  0.00000000000E+00 0. -1.
</event>
<event>
 4    1  0.8931296E+003  0.3111778E+02  0.7546771E-02  0.1410125E+00
          2   -1    0    0  501    0  0.00000000000E+00  0.00000000000E+00  0.93351433003E+01  0.93351433003E+01  0.00000000000E+00 0. -1.
          2   -1    0    0  502    0 -0.00000000000E+00 -0.00000000000E+00 -0.22670447774E+03  0.22670447774E+03  0.00000000000E+00 0.  1.
          2    1    1    2  501    0 -0.20605765019E+02 -0.23317779672E+02 -0.19560787896E+03  0.19806756098E+03  0.00000000000E+00 0.  1.
          2    1    1    2  502    0  0.20605765019E+02  0.23317779672E+02 -0.21761455484E+02  0.37972060066E+02  0.00000000000E+00 0. -1.
</event>
<event>
 4    1  0.8931296E+003  0.4520259E+02  0.7546771E-02  0.1320429E+00
          2   -1    0    0  502    0  0.00000000000E+00  0.00000000000E+00  0.25116046525E+04  0.25116046525E+04  0.00000000000E+00 0. -1.
          2   -1    0    0  501    0 -0.00000000000E+00 -0.00000000000E+00 -0.86149033803E+01  0.86149033803E+01  0.00000000000E+00 0.  1.
          2    1    1    2  501    0 -0.36879023525E+02 -0.26138326948E+02  0.24506313422E+04  0.24510481941E+04  0.00000000000E+00 0. -1.
          2    1    1    2  502    0  0.36879023525E+02  0.26138326948E+02  0.52358406883E+02  0.69171361726E+02  0.00000000000E+00 0.  1.
</event>
<event>
 4    1  0.8931296E+003  0.2399435E+02  0.7546771E-02  0.1480376E+00
          2   -1    0    0  501    0  0.00000000000E+00  0.00000000000E+00  0.50871263141E+03  0.50871263141E+03  0.00000000000E+00 0. -1.
          2   -1    0    0  502    0 -0.00000000000E+00 -0.00000000000E+00 -0.27026615314E+01  0.27026615314E+01  0.00000000000E+00 0.  1.
          2    1    1    2  501    0  0.33880737522E+01 -0.23753943807E+02  0.58053947585E+02  0.62817113276E+02  0.00000000000E+00 0.  1.
          2    1    1    2  502    0 -0.33880737522E+01  0.23753943807E+02  0.44795602229E+03  0.44859817967E+03  0.00000000000E+00 0. -1.
</event>
<event>
 4    1  0.8931296E+003  0.2188090E+02  0.7546771E-02  0.1507050E+00
          2   -1    0    0  501    0  0.00000000000E+00  0.00000000000E+00  0.18967783532E+02  0.18967783532E+02  0.00000000000E+00 0. -1.
          2   -1    0    0  502    0 -0.00000000000E+00 -0.00000000000E+00 -0.19837215959E+03  0.19837215959E+03  0.00000000000E+00 0. -1.
          2    1    1    2  501    0  0.11332474434E+02  0.18717609908E+02 -0.19122327939E+03  0.19247107959E+03  0.00000000000E+00 0. -1.
          2    1    1    2  502    0 -0.11332474434E+02 -0.18717609908E+02  0.11818903332E+02  0.24868863533E+02  0.00000000000E+00 0. -1.
</event>
<event>
 4    1  0.8931296E+003  0.2083688E+02  0.7546771E-02  0.1521607E+00
          2   -1    0    0  501    0  0.00000000000E+00  0.00000000000E+00  0.80985269415E+02  0.80985269415E+02  0.00000000000E+00 0.  1.
          2   -1    0    0  502    0 -0.00000000000E+00 -0.00000000000E+00 -0.74653773033E+01  0.74653773033E+01  0.00000000000E+00 0. -1.
          2    1    1    2  501    0 -0.10089654117E+02  0.18231136596E+02  0.13280393050E+02  0.24709194672E+02  0.00000000000E+00 0. -1.
          2    1    1    2  502    0  0.10089654117E+02 -0.18231136596E+02  0.60239499062E+02  0.63741452047E+02  0.00000000000E+00 0.  1.
</event>
<event>
 4    1  0.8931296E+003  0.3668428E+02  0.7546771E-02  0.1369094E+00
          2   -1    0    0  501    0  0.00000000000E+00  0.00000000000E+00  0.11525847076E+01  0.11525847076E+01  0.00000000000E+00 0.  1.
          2   -1    0    0  502    0 -0.00000000000E+00 -0.00000000000E+00 -0.25737038235E+04  0.25737038235E+04  0.00000000000E+00 0. -1.
          2    1    1    2  501    0 -0.21239151056E+02 -0.29910444105E+02 -0.22378776004E+04  0.22381782526E+04  0.00000000000E+00 0. -1.
          2    1    1    2  502    0  0.21239151056E+02  0.29910444105E+02 -0.33467363848E+03  0.33667815566E+03  0.00000000000E+00 0.  1.
</event>
<event>
 4    1  0.8931296E+003  0.2310149E+02  0.7546771E-02  0.1491228E+00
          2   -1    0    0  501    0  0.00000000000E+00  0.00000000000E+00  0.42664798622E+00  0.42664798622E+00  0.00000000000E+00 0. -1.
          2   -1    0    0  502    0 -0.00000000000E+00 -0.00000000000E+00 -0.16484533705E+04  0.16484533705E+04  0.00000000000E+00 0.  1.
          2    1    1    2  501    0 -0.14301423155E+02  0.18142433901E+02 -0.12289043410E+04  0.12291214578E+04  0.00000000000E+00 0.  1.
          2    1    1    2  502    0  0.14301423155E+02 -0.18142433901E+02 -0.41912238148E+03  0.41975856068E+03  0.00000000000E+00 0. -1.
</event>
<event>
 4    1  0.8931296E+003  0.2984676E+02  0.7546771E-02  0.1420933E+00
          2   -1    0    0  501    0  0.00000000000E+00  0.00000000000E+00  0.41955096298E+03  0.41955096298E+03  0.00000000000E+00 0. -1.
          2   -1    0    0  502    0 -0.00000000000E+00 -0.00000000000E+00 -0.10960418825E+02  0.10960418825E+02  0.00000000000E+00 0.  1.
          2    1    1    2  501    0 -0.19343284925E+02  0.22730302912E+02  0.11010961366E+02  0.31813057263E+02  0.00000000000E+00 0.  1.
          2    1    1    2  502    0  0.19343284925E+02 -0.22730302912E+02  0.39757958279E+03  0.39869832454E+03  0.00000000000E+00 0. -1.
</event>
<event>
 4    1  0.8931296E+003  0.2113592E+02  0.7546771E-02  0.1517333E+00
          2   -1    0    0  501    0  0.00000000000E+00  0.00000000000E+00  0.43273389259E+02  0.43273389259E+02  0.00000000000E+00 0.  1.
          2   -1    0    0  502    0 -0.00000000000E+00 -0.00000000000E+00 -0.12791682509E+02  0.12791682509E+02  0.00000000000E+00 0. -1.
          2    1    1    2  501    0  0.15873674334E+02  0.13955414759E+02  0.27554842520E+02  0.34727460089E+02  0.00000000000E+00 0.  1.
          2    1    1    2  502    0 -0.15873674334E+02 -0.13955414759E+02  0.29268642303E+01  0.21337611679E+02  0.00000000000E+00 0. -1.
</event>
<event>
 4    1  0.8931296E+003  0.2045577E+02  0.7546771E-02  0.1527179E+00
          2   -1    0    0  501    0  0.00000000000E+00  0.00000000000E+00  0.10702638110E+02  0.10702638110E+02  0.00000000000E+00 0.  1.
          2   -1    0    0  502    0 -0.00000000000E+00 -0.00000000000E+00 -0.63006006946E+02  0.63006006946E+02  0.00000000000E+00 0. -1.
          2    1    1    2  501    0 -0.66762042392E+01 -0.19335640692E+02 -0.48854525394E+02  0.52964170488E+02  0.00000000000E+00 0. -1.
          2    1    1    2  502    0  0.66762042392E+01  0.19335640692E+02 -0.34488434414E+01  0.20744474568E+02  0.00000000000E+00 0.  1.
</event>
<event>
 4    1  0.8931296E+003  0.2363851E+02  0.7546771E-02  0.1484632E+00
          2   -1    0    0  501    0  0.00000000000E+00  0.00000000000E+00  0.12273203338E+03  0.12273203338E+03  0.00000000000E+00 0.  1.
          2   -1    0    0  502    0 -0.00000000000E+00 -0.00000000000E+00 -0.33502175492E+03  0.33502175492E+03  0.00000000000E+00 0.  1.
          2    1    1    2  501    0 -0.20333254727E+02  0.12055625211E+02 -0.33346125260E+03  0.33429805014E+03  0.00000000000E+00 0.  1.
          2    1    1    2  502    0  0.20333254727E+02 -0.12055625211E+02  0.12117153105E+03  0.12345573816E+03  0.00000000000E+00 0.  1.
</event>
<event>
 4    1  0.8931296E+003  0.2252696E+02  0.7546771E-02  0.1498525E+00
          2   -1    0    0  502    0  0.00000000000E+00  0.00000000000E+00  0.10960478779E+01  0.10960478779E+01  0.00000000000E+00 0. -1.
          2   -1    0    0  501    0 -0.00000000000E+00 -0.00000000000E+00 -0.76788919992E+03  0.76788919992E+03  0.00000000000E+00 0. -1.
          2    1    1    2  501    0 -0.20704526514E+02 -0.88761768633E+01 -0.14111867421E+03  0.14290536780E+03  0.00000000000E+00 0. -1.
          2    1    1    2  502    0  0.20704526514E+02  0.88761768633E+01 -0.62567447783E+03  0.62607988000E+03  0.00000000000E+00 0. -1.
</event>
<event>
 4    1  0.8931296E+003  0.3301730E+02  0.7546771E-02  0.1395065E+00
          2   -1    0    0  502    0  0.00000000000E+00  0.00000000000E+00  0.23134421675E+02  0.23134421675E+02  0.00000000000E+00 0.  1.
          2   -1    0    0  501    0 -0.00000000000E+00 -0.00000000000E+00 -0.20125639332E+03  0.20125639332E+03  0.00000000000E+00 0. -1.
          2    1    1    2  501    0  0.24438196557E+01  0.32926730452E+02  0.91250933555E+01  0.34255060378E+02  0.00000000000E+00 0.  1.
          2    1    1    2  502    0 -0.24438196557E+01 -0.32926730452E+02 -0.18724706500E+03  0.19013575462E+03  0.00000000000E+00 0. -1.
</event>
<event>
 4    1  0.8931296E+003  0.1439046E+03  0.7546771E-02  0.1104033E+00
          2   -1    0    0  501    0  0.00000000000E+00  0.00000000000E+00  0.19507234176E+04  0.19507234176E+04  0.00000000000E+00 0. -1.
          2   -1    0    0  502    0 -0.00000000000E+00 -0.00000000000E+00 -0.16972250937E+04  0.16972250937E+04  0.00000000000E+00 0. -1.
          2    1    1    2  501    0  0.14302562570E+03  0.15880518329E+02 -0.16915118422E+04  0.16976221113E+04  0.00000000000E+00 0. -1.
          2    1    1    2  502    0 -0.14302562570E+03 -0.15880518329E+02  0.19450101661E+04  0.19503264000E+04  0.00000000000E+00 0. -1.
</event>
<event>
 4    1  0.8931296E+003  0.4364238E+02  0.7546771E-02  0.1328369E+00
          2   -1    0    0  502    0  0.00000000000E+00  0.00000000000E+00  0.14826160421E+02  0.14826160421E+02  0.00000000000E+00 0. -1.
          2   -1    0    0  501    0 -0.00000000000E+00 -0.00000000000E+00 -0.47989536612E+03  0.47989536612E+03  0.00000000000E+00 0.  1.
          2    1    1    2  501    0  0.41238028652E+02 -0.14285751194E+02 -0.20856199214E+02  0.48369812279E+02  0.00000000000E+00 0. -1.
          2    1    1    2  502    0 -0.41238028652E+02  0.14285751194E+02 -0.44421300648E+03  0.44635171426E+03  0.00000000000E+00 0.  1.
</event>
<event>
 4    1  0.8931296E+003  0.2186205E+02  0.7546771E-02  0.1507304E+00
          2   -1    0    0  502    0  0.00000000000E+00  0.00000000000E+00  0.46105719956E+03  0.46105719956E+03  0.00000000000E+00 0. -1.
          2   -1    0    0  501    0 -0.00000000000E+00 -0.00000000000E+00 -0.13320651553E+01  0.13320651553E+01  0.00000000000E+00 0. -1.
          2    1    1    2  501    0 -0.20893648459E+02  0.64346337207E+01  0.33874073076E+03  0.33944547682E+03  0.00000000000E+00 0. -1.
          2    1    1    2  502    0  0.20893648459E+02 -0.64346337207E+01  0.12098440364E+03  0.12294378790E+03  0.00000000000E+00 0. -1.
</event>
<event>
 4    1  0.8931296E+003  0.2825745E+02  0.7546771E-02  0.1435370E+00
          2   -1    0    0  501    0  0.00000000000E+00  0.00000000000E+00  0.18114398945E+03  0.18114398945E+03  0.00000000000E+00 0.  1.
          2   -1    0    0  502    0 -0.00000000000E+00 -0.00000000000E+00 -0.19725443373E+03  0.19725443373E+03  0.00000000000E+00 0. -1.
          2    1    1    2  501    0  0.35453159596E+01 -0.28034161754E+02 -0.19512849166E+03  0.19716392101E+03  0.00000000000E+00 0. -1.
          2    1    1    2  502    0 -0.35453159596E+01  0.28034161754E+02  0.17901804738E+03  0.18123450217E+03  0.00000000000E+00 0.  1.
</event>
<event>
 4    1  0.8931296E+003  0.2212149E+02  0.7546771E-02  0.1503834E+00
          2   -1    0    0  502    0  0.00000000000E+00  0.00000000000E+00  0.59294588560E+01  0.59294588560E+01  0.00000000000E+00 0. -1.
          2   -1    0    0  501    0 -0.00000000000E+00 -0.00000000000E+00 -0.50684741291E+03  0.50684741291E+03  0.00000000000E+00 0.  1.
          2    1    1    2  501    0 -0.12297336404E+02  0.18388468513E+02 -0.15871367923E+02  0.27226101018E+02  0.00000000000E+00 0. -1.
          2    1    1    2  502    0  0.12297336404E+02 -0.18388468513E+02 -0.48504658613E+03  0.48555077075E+03  0.00000000000E+00 0.  1.
</event>
<event>
 4    1  0.8931296E+003  0.2038449E+02  0.7546771E-02  0.1528237E+00
          2   -1    0    0  501    0  0.00000000000E+00  0.00000000000E+00  0.25150614773E+03  0.25150614773E+03  0.00000000000E+00 0. -1.
          2   -1    0    0  502    0 -0.00000000000E+00 -0.00000000000E+00 -0.35087437732E+02  0.35087437732E+02  0.00000000000E+00 0.  1.
          2    1    1    2  501    0  0.20002216701E+02 -0.39291955573E+01 -0.31673065866E+02  0.37665771624E+02  0.00000000000E+00 0.  1.
          2    1    1    2  502    0 -0.20002216701E+02  0.39291955573E+01  0.24809177587E+03  0.24892781384E+03  0.00000000000E+00 0. -1.
</event>
<event>
 4    1  0.1559059E+004  0.3125267E+02  0.7546771E-02  0.1409014E+00
          2   -1    0    0  501    0  0.00000000000E+00  0.00000000000E+00  0.18916222370E+04  0.18916222370E+04  0.00000000000E+00 0.  1.
          2   -1    0    0  502    0 -0.00000000000E+00 -0.00000000000E+00 -0.77969736031E+03  0.77969736031E+03  0.00000000000E+00 0.  1.
          2    1    1    2  501    0  0.84903170090E+01 -0.30077298061E+02 -0.77925502507E+03  0.77988148038E+03  0.00000000000E+00 0.  1.
          2    1    1    2  502    0 -0.84903170090E+01  0.30077298061E+02  0.18911799018E+04  0.18914381169E+04  0.00000000000E+00 0.  1.
</event>
<event>
 4    1  0.8931296E+003  0.2109694E+02  0.7546771E-02  0.1517885E+00
          2   -1    0    0  501    0  0.00000000000E+00  0.00000000000E+00  0.90098539058E+02  0.90098539058E+02  0.00000000000E+00 0.  1.
          2   -1    0    0  502    0 -0.00000000000E+00 -0.00000000000E+00 -0.11489409002E+04  0.11489409002E+04  0.00000000000E+00 0.  1.
          2    1    1    2  501    0  0.64516147810E+01 -0.20086252392E+02 -0.11476076361E+04  0.11478015365E+04  0.00000000000E+00 0.  1.
          2    1    1    2  502    0 -0.64516147810E+01  0.20086252392E+02  0.88765274914E+02  0.91237902754E+02  0.00000000000E+00 0.  1.
</event>
<event>
 4    1  0.8931296E+003  0.2549911E+02  0.7546771E-02  0.1463297E+00
          2   -1    0    0  502    0  0.00000000000E+00  0.00000000000E+00  0.15873227505E+02  0.15873227505E+02  0.00000000000E+00 0. -1.
          2   -1    0    0  501    0 -0.00000000000E+00 -0.00000000000E+00 -0.69509395486E+03  0.69509395486E+03  0.00000000000E+00 0. -1.
          2    1    1    2  501    0 -0.25475245508E+02 -0.11028654689E+01  0.52397511104E+01  0.26031892702E+02  0.00000000000E+00 0. -1.
          2    1    1    2  502    0  0.25475245508E+02  0.11028654689E+01 -0.68446047846E+03  0.68493528966E+03  0.00000000000E+00 0. -1.
</event>
<event>
 4    1  0.8931296E+003  0.2551295E+02  0.7546771E-02  0.1463146E+00
          2   -1    0    0  501    0  0.00000000000E+00  0.00000000000E+00  0.99313727888E+03  0.99313727888E+03  0.00000000000E+00 0. -1.
          2   -1    0    0  502    0 -0.00000000000E+00 -0.00000000000E+00 -0.65899484716E+00  0.65899484716E+00  0.00000000000E+00 0. -1.
          2    1    1    2  501    0  0.18607100474E+01  0.25445004545E+02  0.53289636826E+03  0.53350674766E+03  0.00000000000E+00 0. -1.
          2    1    1    2  502    0 -0.18607100474E+01 -0.25445004545E+02  0.45958191577E+03  0.46028952606E+03  0.00000000000E+00 0. -1.
</event>
<event>
 4    1  0.8931296E+003  0.2244322E+02  0.7546771E-02  0.1499611E+00
          2   -1    0    0  501    0  0.00000000000E+00  0.00000000000E+00  0.92938430360E+01  0.92938430360E+01  0.00000000000E+00 0.  1.
          2   -1    0    0  502    0 -0.00000000000E+00 -0.00000000000E+00 -0.49479488417E+03  0.49479488417E+03  0.00000000000E+00 0. -1.
          2    1    1    2  501    0  0.15888936590E+02  0.15850547435E+02 -0.48059090955E+03  0.48111466461E+03  0.00000000000E+00 0. -1.
          2    1    1    2  502    0 -0.15888936590E+02 -0.15850547435E+02 -0.49101315815E+01  0.22974062594E+02  0.00000000000E+00 0.  1.
</event>
<event>
 4    1  0.8931296E+003  0.2385178E+02  0.7546771E-02  0.1482071E+00
          2   -1    0    0  501    0  0.00000000000E+00  0.00000000000E+00  0.73395920699E+01  0.73395920699E+01  0.00000000000E+00 0.  1.
          2   -1    0    0  502    0 -0.00000000000E+00 -0.00000000000E+00 -0.16978513095E+03  0.16978513095E+03  0.00000000000E+00 0.  1.
          2    1    1    2  501    0  0.67558450677E+01 -0.22875007591E+02 -0.14651126842E+03  0.14844008619E+03  0.00000000000E+00 0.  1.
          2    1    1    2  502    0 -0.67558450677E+01  0.22875007591E+02 -0.15934270461E+02  0.28684636829E+02  0.00000000000E+00 0.  1.
</event>
<event>
 4    1  0.8931296E+003  0.3468047E+02  0.7546771E-02  0.1382824E+00
          2   -1    0    0  502    0  0.00000000000E+00  0.00000000000E+00  0.34191810447E+02  0.34191810447E+02  0.00000000000E+00 0.  1.
          2   -1    0    0  501    0 -0.00000000000E+00 -0.00000000000E+00 -0.43411427973E+03  0.43411427973E+03  0.00000000000E+00 0.  1.
          2    1    1    2  501    0 -0.91714739439E+01  0.33445763850E+02  0.24504765064E+02  0.42464321078E+02  0.00000000000E+00 0.  1.
          2    1    1    2  502    0  0.91714739439E+01 -0.33445763850E+02 -0.42442723435E+03  0.42584176910E+03  0.00000000000E+00 0.  1.
</event>
<event>
 4    1  0.8931296E+003  0.3297147E+02  0.7546771E-02  0.1395414E+00
          2   -1    0    0  501    0  0.00000000000E+00  0.00000000000E+00  0.21755839477E+03  0.21755839477E+03  0.00000000000E+00 0. -1.
          2   -1    0    0  502    0 -0.00000000000E+00 -0.00000000000E+00 -0.40997642666E+02  0.40997642666E+02  0.00000000000E+00 0.  1.
          2    1    1    2  501    0  0.32815780709E+02  0.32003789309E+01 -0.32863360555E+02  0.46552318479E+02  0.00000000000E+00 0.  1.
          2    1    1    2  502    0 -0.32815780709E+02 -0.32003789309E+01  0.20942411265E+03  0.21200371895E+03  0.00000000000E+00 0. -1.
</event>
<event>
 4    1  0.8931296E+003  0.2804499E+02  0.7546771E-02  0.1437384E+00
          2   -1    0    0  501    0  0.00000000000E+00  0.00000000000E+00  0.11914022139E+03  0.11914022139E+03  0.00000000000E+00 0. -1.
          2   -1    0    0  502    0 -0.00000000000E+00 -0.00000000000E+00 -0.22769724089E+02  0.22769724089E+02  0.00000000000E+00 0.  1.
          2    1    1    2  501    0 -0.15523567733E+02  0.23356805504E+02 -0.11605385256E+02  0.30351383583E+02  0.00000000000E+00 0.  1.
          2    1    1    2  502    0  0.15523567733E+02 -0.23356805504E+02  0.10797588256E+03  0.11155856190E+03  0.00000000000E+00 0. -1.
</event>
<event>
 4    1  0.8931296E+003  0.4284481E+02  0.7546771E-02  0.1332576E+00
          2   -1    0    0  502    0  0.00000000000E+00  0.00000000000E+00  0.13486646311E+04  0.13486646311E+04  0.00000000000E+00 0.  1.
          2   -1    0    0  501    0 -0.00000000000E+00 -0.00000000000E+00 -0.54278597139E+02  0.54278597139E+02  0.00000000000E+00 0.  1.
          2    1    1    2  501    0  0.40813759513E+02  0.13035120364E+02  0.13398136287E+04  0.13404985032E+04  0.00000000000E+00 0.  1.
          2    1    1    2  502    0 -0.40813759513E+02 -0.13035120364E+02 -0.45427594729E+02  0.62444725088E+02  0.00000000000E+00 0.  1.
</event>
<event>
 4    1  0.8931296E+003  0.2012746E+02  0.7546771E-02  0.1532096E+00
          2   -1    0    0  501    0  0.00000000000E+00  0.00000000000E+00  0.91921901837E+02  0.91921901837E+02  0.00000000000E+00 0. -1.
          2   -1    0    0  502    0 -0.00000000000E+00 -0.00000000000E+00 -0.43101256703E+03  0.43101256703E+03  0.00000000000E+00 0.  1.
          2    1    1    2  501    0 -0.18837543542E+02 -0.70895315071E+01 -0.42967236400E+03  0.43014352824E+03  0.00000000000E+00 0.  1.
          2    1    1    2  502    0  0.18837543542E+02  0.70895315071E+01  0.90581698806E+02  0.92790940626E+02  0.00000000000E+00 0. -1.
</event>
<event>
 4    1  0.8931296E+003  0.2983205E+02  0.7546771E-02  0.1421062E+00
          2   -1    0    0  501    0  0.00000000000E+00  0.00000000000E+00  0.93301097429E+03  0.93301097429E+03  0.00000000000E+00 0. -1.
          2   -1    0    0  502    0 -0.00000000000E+00 -0.00000000000E+00 -0.29431442318E+01  0.29431442318E+01  0.00000000000E+00 0.  1.
          2    1    1    2  501    0 -0.11478478033E+02  0.27535352152E+02  0.80292913184E+02  0.85655723589E+02  0.00000000000E+00 0.  1.
          2    1    1    2  502    0  0.11478478033E+02 -0.27535352152E+02  0.84977491688E+03  0.85029839494E+03  0.00000000000E+00 0. -1.
</event>
<event>
 4    1  0.8931296E+003  0.2165794E+02  0.7546771E-02  0.1510075E+00
          2   -1    0    0  501    0  0.00000000000E+00  0.00000000000E+00  0.67806113431E+01  0.67806113431E+01  0.00000000000E+00 0. -1.
          2   -1    0    0  502    0 -0.00000000000E+00 -0.00000000000E+00 -0.82566636574E+03  0.82566636574E+03  0.00000000000E+00 0. -1.
          2    1    1    2  501    0 -0.17113250209E+02 -0.13274150831E+02 -0.80784856488E+03  0.80813883101E+03  0.00000000000E+00 0. -1.
          2    1    1    2  502    0  0.17113250209E+02  0.13274150831E+02 -0.11037189521E+02  0.24308146073E+02  0.00000000000E+00 0. -1.
</event>
<event>
 4    1  0.8931296E+003  0.5607511E+02  0.7546771E-02  0.1273784E+00
          2   -1    0    0  501    0  0.00000000000E+00  0.00000000000E+00  0.10734933383E+04  0.10734933383E+04  0.00000000000E+00 0. -1.
          2   -1    0    0  502    0 -0.00000000000E+00 -0.00000000000E+00 -0.42347031150E+03  0.42347031150E+03  0.00000000000E+00 0. -1.
          2    1    1    2  501    0  0.53796116241E+02 -0.15823913416E+02 -0.42087719383E+03  0.42459631493E+03  0.00000000000E+00 0. -1.
          2    1    1    2  502    0 -0.53796116241E+02  0.15823913416E+02  0.10709002207E+04  0.10723673349E+04  0.00000000000E+00 0. -1.
</event>
<event>
 4    1  0.8931296E+003  0.2550262E+02  0.7546771E-02  0.1463258E+00
          2   -1    0    0  501    0  0.00000000000E+00  0.00000000000E+00  0.66521660227E+01  0.66521660227E+01  0.00000000000E+00 0. -1.
          2   -1    0    0  502    0 -0.00000000000E+00 -0.00000000000E+00 -0.59485746209E+03  0.59485746209E+03  0.00000000000E+00 0.  1.
          2    1    1    2  501    0  0.25312831899E+02 -0.31054812094E+01 -0.56903285339E+03  0.56960404818E+03  0.00000000000E+00 0.  1.
          2    1    1    2  502    0 -0.25312831899E+02  0.31054812094E+01 -0.19172442679E+02  0.31905579929E+02  0.00000000000E+00 0. -1.
</event>
<event>
 4    1  0.8931296E+003  0.2216930E+02  0.7546771E-02  0.1503201E+00
          2   -1    0    0  501    0  0.00000000000E+00  0.00000000000E+00  0.83705245095E+02  0.83705245095E+02  0.00000000000E+00 0. -1.
          2   -1    0    0  502    0 -0.00000000000E+00 -0.00000000000E+00 -0.42513405507E+03  0.42513405507E+03  0.00000000000E+00 0.  1.
          2    1    1    2  501    0 -0.22099516270E+02  0.17576664973E+01 -0.42337105017E+03  0.42395108696E+03  0.00000000000E+00 0.  1.
          2    1    1    2  502    0  0.22099516270E+02 -0.17576664973E+01  0.81942240202E+02  0.84888213199E+02  0.00000000000E+00 0. -1.
</event>
<event>
 4    1  0.8931296E+003  0.2278214E+02  0.7546771E-02  0.1495252E+00
          2   -1    0    0  502    0  0.00000000000E+00  0.00000000000E+00  0.16523081508E+02  0.16523081508E+02  0.00000000000E+00 0. -1.
          2   -1    0    0  501    0 -0.00000000000E+00 -0.00000000000E+00 -0.12481794719E+04  0.12481794719E+04  0.00000000000E+00 0. -1.
          2    1    1    2  501    0 -0.22747358803E+02  0.12583297781E+01  0.85153820189E+01  0.24321543069E+02  0.00000000000E+00 0. -1.
          2    1    1    2  502    0  0.22747358803E+02 -0.12583297781E+01 -0.12401717724E+04  0.12403810103E+04  0.00000000000E+00 0. -1.
</event>
<event>
 4    1  0.8931296E+003  0.3285374E+02  0.7546771E-02  0.1396314E+00
          2   -1    0    0  502    0  0.00000000000E+00  0.00000000000E+00  0.20712097700E+01  0.20712097700E+01  0.00000000000E+00 0. -1.
          2   -1    0    0  501    0 -0.00000000000E+00 -0.00000000000E+00 -0.13422816230E+04  0.13422816230E+04  0.00000000000E+00 0. -1.
          2    1    1    2  501    0  0.11698298582E+02 -0.30700454817E+02 -0.14436243612E+03  0.14805364257E+03  0.00000000000E+00 0. -1.
          2    1    1    2  502    0 -0.11698298582E+02  0.30700454817E+02 -0.11958479771E+04  0.11962991902E+04  0.00000000000E+00 0. -1.
</event>
<event>
 4    1  0.8931296E+003  0.2639849E+02  0.7546771E-02  0.1453746E+00
          2   -1    0    0  502    0  0.00000000000E+00  0.00000000000E+00  0.19110018103E+04  0.19110018103E+04  0.00000000000E+00 0.  1.
          2   -1    0    0  501    0 -0.00000000000E+00 -0.00000000000E+00 -0.67209381693E+02  0.67209381693E+02  0.00000000000E+00 0. -1.
          2    1    1    2  501    0  0.26381142332E+02 -0.95679708245E+00  0.19083147956E+04  0.19084973773E+04  0.00000000000E+00 0.  1.
          2    1    1    2  502    0 -0.26381142332E+02  0.95679708245E+00 -0.64522366928E+02  0.69713814738E+02  0.00000000000E+00 0. -1.
</event>
<event>
 4    1  0.8931296E+003  0.2715258E+02  0.7546771E-02  0.1446081E+00
          2   -1    0    0  501    0  0.00000000000E+00  0.00000000000E+00  0.41271719670E+03  0.41271719670E+03  0.00000000000E+00 0.  1.
          2   -1    0    0  502    0 -0.00000000000E+00 -0.00000000000E+00 -0.89695934801E+03  0.89695934801E+03  0.00000000000E+00 0. -1.
          2    1    1    2  501    0  0.17398941214E+02  0.20845612039E+02 -0.89630694285E+03  0.89671812656E+03  0.00000000000E+00 0. -1.
          2    1    1    2  502    0 -0.17398941214E+02 -0.20845612039E+02  0.41206479154E+03  0.41295841815E+03  0.00000000000E+00 0.  1.
</event>
<event>
 4    1  0.8931296E+003  0.3374991E+02  0.7546771E-02  0.1389571E+00
          2   -1    0    0  502    0  0.00000000000E+00  0.00000000000E+00  0.13905692196E+02  0.13905692196E+02  0.00000000000E+00 0. -1.
          2   -1    0    0  501    0 -0.00000000000E+00 -0.00000000000E+00 -0.87645307315E+03  0.87645307315E+03  0.00000000000E+00 0.  1.
          2    1    1    2  501    0 -0.12840603145E+02  0.31211786361E+02 -0.74076556823E+01  0.34553293037E+02  0.00000000000E+00 0. -1.
          2    1    1    2  502    0  0.12840603145E+02 -0.31211786361E+02 -0.85513972528E+03  0.85580547231E+03  0.00000000000E+00 0.  1.
</event>
<event>
 4    1  0.8931296E+003  0.2643400E+02  0.7546771E-02  0.1453378E+00
          2   -1    0    0  501    0  0.00000000000E+00  0.00000000000E+00  0.16828412262E+03  0.16828412262E+03  0.00000000000E+00 0.  1.
          2   -1    0    0  502    0 -0.00000000000E+00 -0.00000000000E+00 -0.10544015455E+03  0.10544015455E+03  0.00000000000E+00 0.  1.
          2    1    1    2  501    0  0.14483144573E+02  0.22113227029E+02 -0.10271826766E+03  0.10606506869E+03  0.00000000000E+00 0.  1.
          2    1    1    2  502    0 -0.14483144573E+02 -0.22113227029E+02  0.16556223573E+03  0.16765920847E+03  0.00000000000E+00 0.  1.
</event>
<event>
 4    1  0.8931296E+003  0.3685750E+02  0.7546771E-02  0.1367955E+00
          2   -1    0    0  502    0  0.00000000000E+00  0.00000000000E+00  0.17501475379E+04  0.17501475379E+04  0.00000000000E+00 0.  1.
          2   -1    0    0  501    0 -0.00000000000E+00 -0.00000000000E+00 -0.24629464662E+02  0.24629464662E+02  0.00000000000E+00 0.  1.
          2    1    1    2  501    0 -0.20232342441E+02  0.30807914751E+02  0.17360524169E+04  0.17364436269E+04  0.00000000000E+00 0.  1.
          2    1    1    2  502    0  0.20232342441E+02 -0.30807914751E+02 -0.10534343649E+02  0.38333375641E+02  0.00000000000E+00 0.  1.
</event>
<event>
 4    1  0.8931296E+003  0.3905579E+02  0.7546771E-02  0.1354109E+00
          2   -1    0    0  502    0  0.00000000000E+00  0.00000000000E+00  0.15130168980E+03  0.15130168980E+03  0.00000000000E+00 0. -1.
          2   -1    0    0  501    0 -0.00000000000E+00 -0.00000000000E+00 -0.12487239289E+03  0.12487239289E+03  0.00000000000E+00 0. -1.
          2    1    1    2  501    0  0.35946718602E+02  0.15270499664E+02  0.14561018382E+03  0.15075702428E+03  0.00000000000E+00 0. -1.
          2    1    1    2  502    0 -0.35946718602E+02 -0.15270499664E+02 -0.11918088690E+03  0.12541705841E+03  0.00000000000E+00 0. -1.
</event>
<event>
 4    1  0.8931296E+003  0.2405049E+02  0.7546771E-02  0.1479712E+00
          2   -1    0    0  502    0  0.00000000000E+00  0.00000000000E+00  0.19725176123E+03  0.19725176123E+03  0.00000000000E+00 0. -1.
          2   -1    0    0  501    0 -0.00000000000E+00 -0.00000000000E+00 -0.50647082648E+01  0.50647082648E+01  0.00000000000E+00 0. -1.
          2    1    1    2  501    0 -0.18678977797E+02  0.15149979488E+02  0.16173017925E+03  0.16350864494E+03  0.00000000000E+00 0. -1.
          2    1    1    2  502    0  0.18678977797E+02 -0.15149979488E+02  0.30456873709E+02  0.38807824549E+02  0.00000000000E+00 0. -1.
</event>
<event>
 4    1  0.8931296E+003  0.3342573E+02  0.7546771E-02  0.1391982E+00
          2   -1    0    0  502    0  0.00000000000E+00  0.00000000000E+00  0.44834860770E+02  0.44834860770E+02  0.00000000000E+00 0. -1.
          2   -1    0    0  501    0 -0.00000000000E+00 -0.00000000000E+00 -0.12877500531E+03  0.12877500531E+03  0.00000000000E+00 0. -1.
          2    1    1    2  501    0  0.22052575437E+02  0.25118985421E+02  0.35984676756E+02  0.49113913235E+02  0.00000000000E+00 0. -1.
          2    1    1    2  502    0 -0.22052575437E+02 -0.25118985421E+02 -0.11992482130E+03  0.12449595285E+03  0.00000000000E+00 0. -1.
</event>
<event>
 4    1  0.8931296E+003  0.2700465E+02  0.7546771E-02  0.1447561E+00
          2   -1    0    0  502    0  0.00000000000E+00  0.00000000000E+00  0.37711551456E+02  0.37711551456E+02  0.00000000000E+00 0.  1.
          2   -1    0    0  501    0 -0.00000000000E+00 -0.00000000000E+00 -0.17442149412E+03  0.17442149412E+03  0.00000000000E+00 0. -1.
          2    1    1    2  501    0  0.15582645521E+02  0.22055210458E+02  0.31659229639E+02  0.41611993117E+02  0.00000000000E+00 0.  1.
          2    1    1    2  502    0 -0.15582645521E+02 -0.22055210458E+02 -0.16836917230E+03  0.17052105246E+03  0.00000000000E+00 0. -1.
</event>
<event>
 4    1  0.8931296E+003  0.2139043E+02  0.7546771E-02  0.1513763E+00
          2   -1    0    0  502    0  0.00000000000E+00  0.00000000000E+00  0.88563587642E+00  0.88563587642E+00  0.00000000000E+00 0.  1.
          2   -1    0    0  501    0 -0.00000000000E+00 -0.00000000000E+00 -0.52796604669E+03  0.52796604669E+03  0.00000000000E+00 0.  1.
          2    1    1    2  501    0  0.21037642220E+02  0.38688780319E+01 -0.22480254447E+03  0.22581792357E+03  0.00000000000E+00 0.  1.
          2    1    1    2  502    0 -0.21037642220E+02 -0.38688780319E+01 -0.30227786635E+03  0.30303375900E+03  0.00000000000E+00 0.  1.
</event>
<event>
 4    1  0.8931296E+003  0.2742006E+02  0.7546771E-02  0.1443434E+00
          2   -1    0    0  501    0  0.00000000000E+00  0.00000000000E+00  0.26084546137E+03  0.26084546137E+03  0.00000000000E+00 0. -1.
          2   -1    0    0  502    0 -0.00000000000E+00 -0.00000000000E+00 -0.42417564346E+03  0.42417564346E+03  0.00000000000E+00 0.  1.
          2    1    1    2  501    0  0.27417721195E+02  0.35845874204E+00 -0.42300993067E+03  0.42389770154E+03  0.00000000000E+00 0.  1.
          2    1    1    2  502    0 -0.27417721195E+02 -0.35845874204E+00  0.25967974858E+03  0.26112340330E+03  0.00000000000E+00 0. -1.
</event>
<event>
 4    1  0.8931296E+003  0.2061733E+02  0.7546771E-02  0.1524799E+00
          2   -1    0    0  501    0  0.00000000000E+00  0.00000000000E+00  0.23520228255E+01  0.23520228255E+01  0.00000000000E+00 0.  1.
          2   -1    0    0  502    0 -0.00000000000E+00 -0.00000000000E+00 -0.72700622984E+03  0.72700622984E+03  0.00000000000E+00 0. -1.
          2    1    1    2  501    0  0.14530444759E+02  0.14626705261E+02 -0.67844503579E+03  0.67875823452E+03  0.00000000000E+00 0. -1.
          2    1    1    2  502    0 -0.14530444759E+02 -0.14626705261E+02 -0.46209171221E+02  0.50600018148E+02  0.00000000000E+00 0.  1.
</event>
<event>
 4    1  0.8931296E+003  0.2483088E+02  0.7546771E-02  0.1470704E+00
          2   -1    0    0  501    0  0.00000000000E+00  0.00000000000E+00  0.20437525139E+02  0.20437525139E+02  0.00000000000E+00 0. -1.
          2   -1    0    0  502    0 -0.00000000000E+00 -0.00000000000E+00 -0.62940597128E+03  0.62940597128E+03  0.00000000000E+00 0.  1.
          2    1    1    2  501    0 -0.38071703262E+01 -0.24537280881E+02 -0.62152328626E+03  0.62201910587E+03  0.00000000000E+00 0.  1.
          2    1    1    2  502    0  0.38071703262E+01  0.24537280881E+02  0.12554840123E+02  0.27824390549E+02  0.00000000000E+00 0. -1.
</event>
<event>
 4    1  0.8931296E+003  0.4405770E+02  0.7546771E-02  0.1326219E+00
          2   -1    0    0  502    0  0.00000000000E+00  0.00000000000E+00  0.20958514567E+02  0.20958514567E+02  0.00000000000E+00 0. -1.
          2   -1    0    0  501    0 -0.00000000000E+00 -0.00000000000E+00 -0.74584563561E+03  0.74584563561E+03  0.00000000000E+00 0. -1.
          2    1    1    2  501    0 -0.36676742125E+02  0.24411005322E+02 -0.36347226393E+01  0.44207372716E+02  0.00000000000E+00 0. -1.
          2    1    1    2  502    0  0.36676742125E+02 -0.24411005322E+02 -0.72125239840E+03  0.72259677746E+03  0.00000000000E+00 0. -1.
</event>
<event>
 4    1  0.8931296E+003  0.1063043E+03  0.7546771E-02  0.1153310E+00
          2   -1    0    0  502    0  0.00000000000E+00  0.00000000000E+00  0.89802749789E+03  0.89802749789E+03  0.00000000000E+00 0.  1.
          2   -1    0    0  501    0 -0.00000000000E+00 -0.00000000000E+00 -0.15364553259E+02  0.15364553259E+02  0.00000000000E+00 0.  1.
          2    1    1    2  501    0 -0.58082201198E+01 -0.10614547589E+03  0.63562063386E+03  0.64444874712E+03  0.00000000000E+00 0.  1.
          2    1    1    2  502    0  0.58082201198E+01  0.10614547589E+03  0.24704231077E+03  0.26894330403E+03  0.00000000000E+00 0.  1.
</event>
<event>
 4    1  0.8931296E+003  0.2017018E+02  0.7546771E-02  0.1531450E+00
          2   -1    0    0  501    0  0.00000000000E+00  0.00000000000E+00  0.15220577892E+01  0.15220577892E+01  0.00000000000E+00 0.  1.
          2   -1    0    0  502    0 -0.00000000000E+00 -0.00000000000E+00 -0.47926399076E+03  0.47926399076E+03  0.00000000000E+00 0. -1.
          2    1    1    2  501    0 -0.14727113800E+02 -0.13782172054E+02 -0.39874287819E+03  0.39925270074E+03  0.00000000000E+00 0. -1.
          2    1    1    2  502    0  0.14727113800E+02  0.13782172054E+02 -0.78999054782E+02  0.81533347802E+02  0.00000000000E+00 0.  1.
</event>
<event>
 4    1  0.8931296E+003  0.2973729E+02  0.7546771E-02  0.1421893E+00
          2   -1    0    0  501    0  0.00000000000E+00  0.00000000000E+00  0.12898361802E+02  0.12898361802E+02  0.00000000000E+00 0. -1.
          2   -1    0    0  502    0 -0.00000000000E+00 -0.00000000000E+00 -0.73563162158E+02  0.73563162158E+02  0.00000000000E+00 0. -1.
          2    1    1    2  501    0 -0.14625488072E+02 -0.25892116878E+02 -0.41607023362E+02  0.51141480334E+02  0.00000000000E+00 0. -1.
          2    1    1    2  502    0  0.14625488072E+02  0.25892116878E+02 -0.19057776994E+02  0.35320043626E+02  0.00000000000E+00 0. -1.
</event>
<event>
 4    1  0.8931296E+003  0.2000033E+02  0.7546771E-02  0.1534030E+00
          2   -1    0    0  502    0  0.00000000000E+00  0.00000000000E+00  0.62695360656E+03  0.62695360656E+03  0.00000000000E+00 0.  1.
          2   -1    0    0  501    0 -0.00000000000E+00 -0.00000000000E+00 -0.36992648884E+01  0.36992648884E+01  0.00000000000E+00 0.  1.
          2    1    1    2  501    0 -0.16947558730E+02  0.10620432207E+02  0.59847476170E+03  0.59880886242E+03  0.00000000000E+00 0.  1.
          2    1    1    2  502    0  0.16947558730E+02 -0.10620432207E+02  0.24779579978E+02  0.31844009029E+02  0.00000000000E+00 0.  1.
</event>
<event>
 4    1  0.8931296E+003  0.2041415E+02  0.7546771E-02  0.1527796E+00
          2   -1    0    0  501    0  0.00000000000E+00  0.00000000000E+00  0.26676254393E+01  0.26676254393E+01  0.00000000000E+00 0. -1.
          2   -1    0    0  502    0 -0.00000000000E+00 -0.00000000000E+00 -0.23174220896E+03  0.23174220896E+03  0.00000000000E+00 0. -1.
          2    1    1    2  501    0  0.16430378089E+02  0.12115293198E+02 -0.18144548492E+03  0.18259025618E+03  0.00000000000E+00 0. -1.
          2    1    1    2  502    0 -0.16430378089E+02 -0.12115293198E+02 -0.47629098594E+02  0.51819578214E+02  0.00000000000E+00 0. -1.
</event>
<event>
 4    1  0.8931296E+003  0.3582707E+02  0.7546771E-02  0.1374840E+00
          2   -1    0    0  501    0  0.00000000000E+00  0.00000000000E+00  0.24586823394E+04  0.24586823394E+04  0.00000000000E+00 0. -1.
          2   -1    0    0  502    0 -0.00000000000E+00 -0.00000000000E+00 -0.32979075505E+03  0.32979075505E+03  0.00000000000E+00 0. -1.
          2    1    1    2  501    0  0.27989799524E+02 -0.22364041670E+02 -0.32868677754E+03  0.33063359927E+03  0.00000000000E+00 0. -1.
          2    1    1    2  502    0 -0.27989799524E+02  0.22364041670E+02  0.24575783619E+04  0.24578394952E+04  0.00000000000E+00 0. -1.
</event>
<event>
 4    1  0.8931296E+003  0.2102558E+02  0.7546771E-02  0.1518900E+00
          2   -1    0    0  501    0  0.00000000000E+00  0.00000000000E+00  0.28197661716E+02  0.28197661716E+02  0.00000000000E+00 0. -1.
          2   -1    0    0  502    0 -0.00000000000E+00 -0.00000000000E+00 -0.43046144419E+03  0.43046144419E+03  0.00000000000E+00 0.  1.
          2    1    1    2  501    0 -0.11085871808E+02  0.17865568165E+02 -0.42624653555E+03  0.42676478785E+03  0.00000000000E+00 0.  1.
          2    1    1    2  502    0  0.11085871808E+02 -0.17865568165E+02  0.23982753073E+02  0.31894318060E+02  0.00000000000E+00 0. -1.
</event>
<event>
 4    1  0.8931296E+003  0.2164595E+02  0.7546771E-02  0.1510239E+00
          2   -1    0    0  501    0  0.00000000000E+00  0.00000000000E+00  0.69469447175E+02  0.69469447175E+02  0.00000000000E+00 0. -1.
          2   -1    0    0  502    0 -0.00000000000E+00 -0.00000000000E+00 -0.10007924952E+04  0.10007924952E+04  0.00000000000E+00 0.  1.
          2    1    1    2  501    0  0.33608353630E+01 -0.21383448502E+02 -0.99898624035E+03  0.99922072411E+03  0.00000000000E+00 0.  1.
          2    1    1    2  502    0 -0.33608353630E+01  0.21383448502E+02  0.67663192370E+02  0.71041218218E+02  0.00000000000E+00 0. -1.
</event>
<event>
 4    1  0.8931296E+003  0.2674789E+02  0.7546771E-02  0.1450157E+00
          2   -1    0    0  502    0  0.00000000000E+00  0.00000000000E+00  0.44987788313E+02  0.44987788313E+02  0.00000000000E+00 0. -1.
          2   -1    0    0  501    0 -0.00000000000E+00 -0.00000000000E+00 -0.19743376109E+02  0.19743376109E+02  0.00000000000E+00 0. -1.
          2    1    1    2  501    0  0.22167409642E+02  0.14968487946E+02  0.26896296001E+02  0.37932313668E+02  0.00000000000E+00 0. -1.
          2    1    1    2  502    0 -0.22167409642E+02 -0.14968487946E+02 -0.16518837968E+01  0.26798850754E+02  0.00000000000E+00 0. -1.
</event>
<event>
 4    1  0.8931296E+003  0.5143188E+02  0.7546771E-02  0.1292081E+00
          2   -1    0    0  502    0  0.00000000000E+00  0.00000000000E+00  0.22070065031E+04  0.22070065031E+04  0.00000000000E+00 0. -1.
          2   -1    0    0  501    0 -0.00000000000E+00 -0.00000000000E+00 -0.97968950714E+01  0.97968950714E+01  0.00000000000E+00 0. -1.
          2    1    1    2  501    0  0.45519627053E+02  0.23941630189E+02  0.21369937140E+04  0.21376125401E+04  0.00000000000E+00 0. -1.
          2    1    1    2  502    0 -0.45519627053E+02 -0.23941630189E+02  0.60215894073E+02  0.79190858072E+02  0.00000000000E+00 0. -1.
</event>
<event>
 4    1  0.8931296E+003  0.3117141E+02  0.7546771E-02  0.1409683E+00
          2   -1    0    0  501    0  0.00000000000E+00  0.00000000000E+00  0.38708416251E+00  0.38708416251E+00  0.00000000000E+00 0. -1.
          2   -1    0    0  502    0 -0.00000000000E+00 -0.00000000000E+00 -0.27503043439E+04  0.27503043439E+04  0.00000000000E+00 0. -1.
          2    1    1    2  501    0  0.29918286846E+01 -0.31027503322E+02 -0.96858511424E+03  0.96908657019E+03  0.00000000000E+00 0. -1.
          2    1    1    2  502    0 -0.29918286846E+01  0.31027503322E+02 -0.17813321455E+04  0.17816048578E+04  0.00000000000E+00 0. -1.
</event>
<event>
 4    1  0.8931296E+003  0.4145296E+02  0.7546771E-02  0.1340176E+00
          2   -1    0    0  501    0  0.00000000000E+00  0.00000000000E+00  0.82300204769E+02  0.82300204769E+02  0.00000000000E+00 0. -1.
          2   -1    0    0  502    0 -0.00000000000E+00 -0.00000000000E+00 -0.68352406743E+03  0.68352406743E+03  0.00000000000E+00 0.  1.
          2    1    1    2  501    0 -0.16806786720E+02  0.37893006452E+02 -0.67763046701E+03  0.67889719239E+03  0.00000000000E+00 0.  1.
          2    1    1    2  502    0  0.16806786720E+02 -0.37893006452E+02  0.76406604342E+02  0.86927079813E+02  0.00000000000E+00 0. -1.
</event>
<event>
 4    1  0.8931296E+003  0.2773716E+02  0.7546771E-02  0.1440340E+00
          2   -1    0    0  502    0  0.00000000000E+00  0.00000000000E+00  0.44069725363E+01  0.44069725363E+01  0.00000000000E+00 0. -1.
          2   -1    0    0  501    0 -0.00000000000E+00 -0.00000000000E+00 -0.74020263511E+03  0.74020263511E+03  0.00000000000E+00 0.  1.
          2    1    1    2  501    0 -0.59848263536E+00  0.27730706004E+02 -0.42444759852E+02  0.50704120896E+02  0.00000000000E+00 0. -1.
          2    1    1    2  502    0  0.59848263536E+00 -0.27730706004E+02 -0.69335090272E+03  0.69390548675E+03  0.00000000000E+00 0.  1.
</event>
<event>
 4    1  0.8931296E+003  0.2008456E+02  0.7546771E-02  0.1532747E+00
          2   -1    0    0  502    0  0.00000000000E+00  0.00000000000E+00  0.49623964027E+03  0.49623964027E+03  0.00000000000E+00 0.  1.
          2   -1    0    0  501    0 -0.00000000000E+00 -0.00000000000E+00 -0.71085760587E+02  0.71085760587E+02  0.00000000000E+00 0. -1.
          2    1    1    2  501    0  0.75263642698E+00 -0.20070449159E+02  0.49461308217E+03  0.49502069699E+03  0.00000000000E+00 0.  1.
          2    1    1    2  502    0 -0.75263642698E+00  0.20070449159E+02 -0.69459202489E+02  0.72304703868E+02  0.00000000000E+00 0. -1.
</event>
<event>
 4    1  0.8931296E+003  0.3560692E+02  0.7546771E-02  0.1376346E+00
          2   -1    0    0  501    0  0.00000000000E+00  0.00000000000E+00  0.17344971687E+04  0.17344971687E+04  0.00000000000E+00 0. -1.
          2   -1    0    0  502    0 -0.00000000000E+00 -0.00000000000E+00 -0.29484108283E+01  0.29484108283E+01  0.00000000000E+00 0.  1.
          2    1    1    2  501    0 -0.61146307044E+01 -0.35077975653E+02  0.11239464936E+03  0.11790000122E+03  0.00000000000E+00 0.  1.
          2    1    1    2  502    0  0.61146307044E+01  0.35077975653E+02  0.16191541085E+04  0.16195455783E+04  0.00000000000E+00 0. -1.
</event>
<event>
 4    1  0.8931296E+003  0.2067147E+02  0.7546771E-02  0.1524007E+00
          2   -1    0    0  502    0  0.00000000000E+00  0.00000000000E+00  0.78325188176E+03  0.78325188176E+03  0.00000000000E+00 0. -1.
          2   -1    0    0  501    0 -0.00000000000E+00 -0.00000000000E+00 -0.10648849692E+02  0.10648849692E+02  0.00000000000E+00 0. -1.
          2    1    1    2  501    0 -0.76474825205E+01  0.19204837927E+02  0.77294998174E+03  0.77322634723E+03  0.00000000000E+00 0. -1.
          2    1    1    2  502    0  0.76474825205E+01 -0.19204837927E+02 -0.34694966967E+00  0.20674384217E+02  0.00000000000E+00 0. -1.
</event>
<event>
 4    1  0.8931296E+003  0.1582454E+03  0.7546771E-02  0.1089454E+00
          2   -1    0    0  501    0  0.00000000000E+00  0.00000000000E+00  0.47978265932E+03  0.47978265932E+03  0.00000000000E+00 0. -1.
          2   -1    0    0  502    0 -0.00000000000E+00 -0.00000000000E+00 -0.27188902008E+03  0.27188902008E+03  0.00000000000E+00 0.  1.
          2    1    1    2  501    0  0.12971668247E+03 -0.90637627441E+02 -0.23389455246E+03  0.28239734221E+03  0.00000000000E+00 0.  1.
          2    1    1    2  502    0 -0.12971668247E+03  0.90637627441E+02  0.44178819169E+03  0.46927433718E+03  0.00000000000E+00 0. -1.
</event>
<event>
 4    1  0.8931296E+003  0.2721831E+02  0.7546771E-02  0.1445427E+00
          2   -1    0    0  501    0  0.00000000000E+00  0.00000000000E+00  0.13140400846E+03  0.13140400846E+03  0.00000000000E+00 0. -1.
          2   -1    0    0  502    0 -0.00000000000E+00 -0.00000000000E+00 -0.87642548974E+03  0.87642548974E+03  0.00000000000E+00 0.  1.
          2    1    1    2  501    0 -0.26792270182E+02 -0.47969437568E+01 -0.87480208839E+03  0.87522541683E+03  0.00000000000E+00 0.  1.
          2    1    1    2  502    0  0.26792270182E+02  0.47969437568E+01  0.12978060711E+03  0.13260408136E+03  0.00000000000E+00 0. -1.
</event>
<event>
 4    1  0.8931296E+003  0.2331487E+02  0.7546771E-02  0.1488582E+00
          2   -1    0    0  501    0  0.00000000000E+00  0.00000000000E+00  0.32359427559E+03  0.32359427559E+03  0.00000000000E+00 0.  1.
          2   -1    0    0  502    0 -0.00000000000E+00 -0.00000000000E+00 -0.23230394279E+01  0.23230394279E+01  0.00000000000E+00 0.  1.
          2    1    1    2  501    0  0.69069059832E+01  0.22268319025E+02  0.74887353852E+02  0.78432768339E+02  0.00000000000E+00 0.  1.
          2    1    1    2  502    0 -0.69069059832E+01 -0.22268319025E+02  0.24638388231E+03  0.24748454668E+03  0.00000000000E+00 0.  1.
</event>
<event>
 4    1  0.8931296E+003  0.3409445E+02  0.7546771E-02  0.1387044E+00
          2   -1    0    0  501    0  0.00000000000E+00  0.00000000000E+00  0.39252797451E+03  0.39252797451E+03  0.00000000000E+00 0.  1.
          2   -1    0    0  502    0 -0.00000000000E+00 -0.00000000000E+00 -0.29666608759E+01  0.29666608759E+01  0.00000000000E+00 0.  1.
          2    1    1    2  501    0  0.12002893917E+02 -0.31911785617E+02  0.18645167532E+03  0.18954328992E+03  0.00000000000E+00 0.  1.
          2    1    1    2  502    0 -0.12002893917E+02  0.31911785617E+02  0.20310963832E+03  0.20595134547E+03  0.00000000000E+00 0.  1.
</event>
<event>
 4    1  0.8931296E+003  0.2431916E+02  0.7546771E-02  0.1476566E+00
          2   -1    0    0  502    0  0.00000000000E+00  0.00000000000E+00  0.20501364577E+01  0.20501364577E+01  0.00000000000E+00 0. -1.
          2   -1    0    0  501    0 -0.00000000000E+00 -0.00000000000E+00 -0.13304305236E+04  0.13304305236E+04  0.00000000000E+00 0.  1.
          2    1    1    2  501    0 -0.20258891432E+02 -0.13453586565E+02 -0.74588748705E+02  0.78453190546E+02  0.00000000000E+00 0. -1.
          2    1    1    2  502    0  0.20258891432E+02  0.13453586565E+02 -0.12537916384E+04  0.12540274695E+04  0.00000000000E+00 0.  1.
</event>
<event>
 4    1  0.8931296E+003  0.3058120E+02  0.7546771E-02  0.1414612E+00
          2   -1    0    0  502    0  0.00000000000E+00  0.00000000000E+00  0.30992863343E+03  0.30992863343E+03  0.00000000000E+00 0. -1.
          2   -1    0    0  501    0 -0.00000000000E+00 -0.00000000000E+00 -0.85874918168E+02  0.85874918168E+02  0.00000000000E+00 0.  1.
          2    1    1    2  501    0 -0.66846905549E+00  0.30573896677E+02  0.30642057212E+03  0.30794281454E+03  0.00000000000E+00 0. -1.
          2    1    1    2  502    0  0.66846905549E+00 -0.30573896677E+02 -0.82366856854E+02  0.87860737061E+02  0.00000000000E+00 0.  1.
</event>
<event>
 4    1  0.8931296E+003  0.2552613E+02  0.7546771E-02  0.1463003E+00
          2   -1    0    0  502    0  0.00000000000E+00  0.00000000000E+00  0.16741878545E+03  0.16741878545E+03  0.00000000000E+00 0. -1.
          2   -1    0    0  501    0 -0.00000000000E+00 -0.00000000000E+00 -0.40032445535E+02  0.40032445535E+02  0.00000000000E+00 0.  1.
          2    1    1    2  501    0 -0.98403271764E+01 -0.23553159652E+02  0.16224781301E+03  0.16424352710E+03  0.00000000000E+00 0. -1.
          2    1    1    2  502    0  0.98403271764E+01  0.23553159652E+02 -0.34861473094E+02  0.43207703883E+02  0.00000000000E+00 0.  1.
</event>
<event>
 4    1  0.8931296E+003  0.3359844E+02  0.7546771E-02  0.1390694E+00
          2   -1    0    0  502    0  0.00000000000E+00  0.00000000000E+00  0.11737044985E+04  0.11737044985E+04  0.00000000000E+00 0.  1.
          2   -1    0    0  501    0 -0.00000000000E+00 -0.00000000000E+00 -0.30685392337E+03  0.30685392337E+03  0.00000000000E+00 0. -1.
          2    1    1    2  501    0  0.32025646893E+02 -0.10159376869E+02  0.11725434403E+04  0.11730247118E+04  0.00000000000E+00 0.  1.
          2    1    1    2  502    0 -0.32025646893E+02  0.10159376869E+02 -0.30569286521E+03  0.30753371008E+03  0.00000000000E+00 0. -1.
</event>
<event>
 4    1  0.8931296E+003  0.2303557E+02  0.7546771E-02  0.1492052E+00
          2   -1    0    0  501    0  0.00000000000E+00  0.00000000000E+00  0.19001568147E+04  0.19001568147E+04  0.00000000000E+00 0. -1.
          2   -1    0    0  502    0 -0.00000000000E+00 -0.00000000000E+00 -0.30944870641E+00  0.30944870641E+00  0.00000000000E+00 0. -1.
          2    1    1    2  501    0  0.11030602016E+02 -0.20222837013E+02  0.12467209385E+04  0.12469337336E+04  0.00000000000E+00 0. -1.
          2    1    1    2  502    0 -0.11030602016E+02  0.20222837013E+02  0.65312642746E+03  0.65353252985E+03  0.00000000000E+00 0. -1.
</event>
<event>
 4    1  0.8931296E+003  0.9830667E+02  0.7546771E-02  0.1166775E+00
          2   -1    0    0  502    0  0.00000000000E+00  0.00000000000E+00  0.21729726817E+04  0.21729726817E+04  0.00000000000E+00 0.  1.
          2   -1    0    0  501    0 -0.00000000000E+00 -0.00000000000E+00 -0.83803240990E+01  0.83803240990E+01  0.00000000000E+00 0. -1.
          2    1    1    2  501    0  0.19251367824E+02 -0.96403245327E+02  0.18294675585E+04  0.18321069152E+04  0.00000000000E+00 0.  1.
          2    1    1    2  502    0 -0.19251367824E+02  0.96403245327E+02  0.33512479908E+03  0.34924609064E+03  0.00000000000E+00 0. -1.
</event>
<event>
 4    1  0.8931296E+003  0.2085661E+02  0.7546771E-02  0.1521322E+00
          2   -1    0    0  501    0  0.00000000000E+00  0.00000000000E+00  0.82687918886E+03  0.82687918886E+03  0.00000000000E+00 0.  1.
          2   -1    0    0  502    0 -0.00000000000E+00 -0.00000000000E+00 -0.13197362078E+01  0.13197362078E+01  0.00000000000E+00 0.  1.
          2    1    1    2  501    0  0.17498408257E+02 -0.11349182796E+02  0.91650809294E+02  0.93993984307E+02  0.00000000000E+00 0.  1.
          2    1    1    2  502    0 -0.17498408257E+02  0.11349182796E+02  0.73390864335E+03  0.73420494076E+03  0.00000000000E+00 0.  1.
</event>
<event>
 4    1  0.8931296E+003  0.2687833E+02  0.7546771E-02  0.1448834E+00
          2   -1    0    0  502    0  0.00000000000E+00  0.00000000000E+00  0.17221613410E+03  0.17221613410E+03  0.00000000000E+00 0. -1.
          2   -1    0    0  501    0 -0.00000000000E+00 -0.00000000000E+00 -0.14352306764E+03  0.14352306764E+03  0.00000000000E+00 0.  1.
          2    1    1    2  501    0  0.16658675439E+02  0.21093443959E+02  0.16989186457E+03  0.17200491415E+03  0.00000000000E+00 0. -1.
          2    1    1    2  502    0 -0.16658675439E+02 -0.21093443959E+02 -0.14119879810E+03  0.14373428760E+03  0.00000000000E+00 0.  1.
</event>
<event>
 4    1  0.8931296E+003  0.2623059E+02  0.7546771E-02  0.1455494E+00
          2   -1    0    0  501    0  0.00000000000E+00  0.00000000000E+00  0.52315266641E+03  0.52315266641E+03  0.00000000000E+00 0.  1.
          2   -1    0    0  502    0 -0.00000000000E+00 -0.00000000000E+00 -0.52081464594E+03  0.52081464594E+03  0.00000000000E+00 0.  1.
          2    1    1    2  501    0  0.22645428609E+02  0.13237379789E+02 -0.52015515974E+03  0.52081612289E+03  0.00000000000E+00 0.  1.
          2    1    1    2  502    0 -0.22645428609E+02 -0.13237379789E+02  0.52249318021E+03  0.52315118945E+03  0.00000000000E+00 0.  1.
</event>
<event>
 4    1  0.8931296E+003  0.4277183E+02  0.7546771E-02  0.1332966E+00
          2   -1    0    0  502    0  0.00000000000E+00  0.00000000000E+00  0.29993667714E+01  0.29993667714E+01  0.00000000000E+00 0. -1.
          2   -1    0    0  501    0 -0.00000000000E+00 -0.00000000000E+00 -0.64977206717E+03  0.64977206717E+03  0.00000000000E+00 0.  1.
          2    1    1    2  501    0  0.37449337405E+02 -0.20663420540E+02 -0.24257465353E+03  0.24631665059E+03  0.00000000000E+00 0. -1.
          2    1    1    2  502    0 -0.37449337405E+02  0.20663420540E+02 -0.40419804687E+03  0.40645478336E+03  0.00000000000E+00 0.  1.
</event>
<event>
 4    1  0.8931296E+003  0.2279456E+02  0.7546771E-02  0.1495094E+00
          2   -1    0    0  502    0  0.00000000000E+00  0.00000000000E+00  0.33164305570E+02  0.33164305570E+02  0.00000000000E+00 0.  1.
          2   -1    0    0  501    0 -0.00000000000E+00 -0.00000000000E+00 -0.15377830622E+03  0.15377830622E+03  0.00000000000E+00 0.  1.
          2    1    1    2  501    0 -0.19672931639E+02  0.11513798984E+02  0.28274916908E+02  0.36318903239E+02  0.00000000000E+00 0.  1.
          2    1    1    2  502    0  0.19672931639E+02 -0.11513798984E+02 -0.14888891755E+03  0.15062370855E+03  0.00000000000E+00 0.  1.
</event>
<event>
 4    1  0.8931296E+003  0.1113710E+03  0.7546771E-02  0.1145440E+00
          2   -1    0    0  502    0  0.00000000000E+00  0.00000000000E+00  0.57785993656E+02  0.57785993656E+02  0.00000000000E+00 0. -1.
          2   -1    0    0  501    0 -0.00000000000E+00 -0.00000000000E+00 -0.35937574185E+03  0.35937574185E+03  0.00000000000E+00 0.  1.
          2    1    1    2  501    0  0.47472933487E+02 -0.10074631386E+03 -0.18427837224E+02  0.11288527077E+03  0.00000000000E+00 0. -1.
          2    1    1    2  502    0 -0.47472933487E+02  0.10074631386E+03 -0.28316191097E+03  0.30427646474E+03  0.00000000000E+00 0.  1.
</event>
<event>
 4    1  0.8931296E+003  0.5618823E+02  0.7546771E-02  0.1273364E+00
          2   -1    0    0  501    0  0.00000000000E+00  0.00000000000E+00  0.12183512021E+04  0.12183512021E+04  0.00000000000E+00 0.  1.
          2   -1    0    0  502    0 -0.00000000000E+00 -0.00000000000E+00 -0.70951551510E+03  0.70951551510E+03  0.00000000000E+00 0. -1.
          2    1    1    2  501    0 -0.37097420539E+02 -0.42200700413E+02 -0.70775365883E+03  0.70998053446E+03  0.00000000000E+00 0. -1.
          2    1    1    2  502    0  0.37097420539E+02  0.42200700413E+02  0.12165893459E+04  0.12178861828E+04  0.00000000000E+00 0.  1.
</event>
<event>
 4    1  0.8931296E+003  0.2319771E+02  0.7546771E-02  0.1490030E+00
          2   -1    0    0  501    0  0.00000000000E+00  0.00000000000E+00  0.37498559665E+03  0.37498559665E+03  0.00000000000E+00 0. -1.
          2   -1    0    0  502    0 -0.00000000000E+00 -0.00000000000E+00 -0.17499001907E+01  0.17499001907E+01  0.00000000000E+00 0.  1.
          2    1    1    2  501    0 -0.15351014725E+02  0.17391960332E+02  0.10672058219E+03  0.10921271263E+03  0.00000000000E+00 0.  1.
          2    1    1    2  502    0  0.15351014725E+02 -0.17391960332E+02  0.26651511427E+03  0.26752278421E+03  0.00000000000E+00 0. -1.
</event>
<event>
 4    1  0.8931296E+003  0.2296177E+02  0.7546771E-02  0.1492979E+00
          2   -1    0    0  501    0  0.00000000000E+00  0.00000000000E+00  0.71597176955E+03  0.71597176955E+03  0.00000000000E+00 0.  1.
          2   -1    0    0  502    0 -0.00000000000E+00 -0.00000000000E+00 -0.12859625465E+01  0.12859625465E+01  0.00000000000E+00 0. -1.
          2    1    1    2  501    0 -0.82168869467E+01 -0.21441209826E+02  0.12289894794E+03  0.12502557384E+03  0.00000000000E+00 0. -1.
          2    1    1    2  502    0  0.82168869467E+01  0.21441209826E+02  0.59178685906E+03  0.59223215826E+03  0.00000000000E+00 0.  1.
</event>
<event>
 4    1  0.8931296E+003  0.2444964E+02  0.7546771E-02  0.1475055E+00
          2   -1    0    0  502    0  0.00000000000E+00  0.00000000000E+00  0.48081087977E+01  0.48081087977E+01  0.00000000000E+00 0. -1.
          2   -1    0    0  501    0 -0.00000000000E+00 -0.00000000000E+00 -0.65206501556E+03  0.65206501556E+03  0.00000000000E+00 0.  1.
          2    1    1    2  501    0 -0.18093812641E+02  0.16443805508E+02 -0.28157608647E+02  0.37291228461E+02  0.00000000000E+00 0. -1.
          2    1    1    2  502    0  0.18093812641E+02 -0.16443805508E+02 -0.61909929812E+03  0.61958189590E+03  0.00000000000E+00 0.  1.
</event>
<event>
 4    1  0.8931296E+003  0.3604147E+02  0.7546771E-02  0.1373386E+00
          2   -1    0    0  501    0  0.00000000000E+00  0.00000000000E+00  0.20555149381E+03  0.20555149381E+03  0.00000000000E+00 0.  1.
          2   -1    0    0  502    0 -0.00000000000E+00 -0.00000000000E+00 -0.46418400651E+02  0.46418400651E+02  0.00000000000E+00 0. -1.
          2    1    1    2  501    0 -0.10756434746E+01  0.36025418662E+02 -0.37528809042E+02  0.52032675376E+02  0.00000000000E+00 0. -1.
          2    1    1    2  502    0  0.10756434746E+01 -0.36025418662E+02  0.19666190220E+03  0.19993721908E+03  0.00000000000E+00 0.  1.
</event>
<event>
 4    1  0.8931296E+003  0.2457107E+02  0.7546771E-02  0.1473659E+00
          2   -1    0    0  501    0  0.00000000000E+00  0.00000000000E+00  0.98801079802E+02  0.98801079802E+02  0.00000000000E+00 0. -1.
          2   -1    0    0  502    0 -0.00000000000E+00 -0.00000000000E+00 -0.14279979065E+02  0.14279979065E+02  0.00000000000E+00 0. -1.
          2    1    1    2  501    0  0.17716839613E+02 -0.17025013859E+02  0.85025664397E+02  0.88504808395E+02  0.00000000000E+00 0. -1.
          2    1    1    2  502    0 -0.17716839613E+02  0.17025013859E+02 -0.50456366110E+00  0.24576250472E+02  0.00000000000E+00 0. -1.
</event>
<event>
 4    1  0.8931296E+003  0.2120117E+02  0.7546771E-02  0.1516412E+00
          2   -1    0    0  502    0  0.00000000000E+00  0.00000000000E+00  0.19794935331E+02  0.19794935331E+02  0.00000000000E+00 0. -1.
          2   -1    0    0  501    0 -0.00000000000E+00 -0.00000000000E+00 -0.23180058785E+02  0.23180058785E+02  0.00000000000E+00 0. -1.
          2    1    1    2  501    0  0.20881764017E+02 -0.36662693951E+01  0.13760848027E+01  0.21245780972E+02  0.00000000000E+00 0. -1.
          2    1    1    2  502    0 -0.20881764017E+02  0.36662693951E+01 -0.47612082565E+01  0.21729213143E+02  0.00000000000E+00 0. -1.
</event>
<event>
 4    1  0.8931296E+003  0.5368883E+02  0.7546771E-02  0.1282925E+00
          2   -1    0    0  501    0  0.00000000000E+00  0.00000000000E+00  0.34731852471E+03  0.34731852471E+03  0.00000000000E+00 0.  1.
          2   -1    0    0  502    0 -0.00000000000E+00 -0.00000000000E+00 -0.17341027580E+02  0.17341027580E+02  0.00000000000E+00 0. -1.
          2    1    1    2  501    0  0.28896107072E+01  0.53611011018E+02  0.33330945439E+02  0.63193688579E+02  0.00000000000E+00 0. -1.
          2    1    1    2  502    0 -0.28896107072E+01 -0.53611011018E+02  0.29664655170E+03  0.30146586372E+03  0.00000000000E+00 0.  1.
</event>
<event>
 4    1  0.8931296E+003  0.2373212E+02  0.7546771E-02  0.1483504E+00
          2   -1    0    0  501    0  0.00000000000E+00  0.00000000000E+00  0.22448511421E+01  0.22448511421E+01  0.00000000000E+00 0. -1.
          2   -1    0    0  502    0 -0.00000000000E+00 -0.00000000000E+00 -0.13638422117E+04  0.13638422117E+04  0.00000000000E+00 0.  1.
          2    1    1    2  501    0  0.66544283057E+01 -0.22780076117E+02 -0.12978259425E+04  0.12980429077E+04  0.00000000000E+00 0.  1.
          2    1    1    2  502    0 -0.66544283057E+01  0.22780076117E+02 -0.63771418090E+02  0.68044155143E+02  0.00000000000E+00 0. -1.
</event>
<event>
 4    1  0.8931296E+003  0.2091168E+02  0.7546771E-02  0.1520530E+00
          2   -1    0    0  502    0  0.00000000000E+00  0.00000000000E+00  0.12919605459E+04  0.12919605459E+04  0.00000000000E+00 0. -1.
          2   -1    0    0  501    0 -0.00000000000E+00 -0.00000000000E+00 -0.18964220335E+01  0.18964220335E+01  0.00000000000E+00 0. -1.
          2    1    1    2  501    0  0.12677730906E+02  0.16630503363E+02  0.12313928079E+04  0.12315703576E+04  0.00000000000E+00 0. -1.
          2    1    1    2  502    0 -0.12677730906E+02 -0.16630503363E+02  0.58671315983E+02  0.62286610296E+02  0.00000000000E+00 0. -1.
</event>
<event>
 4    1  0.8931296E+003  0.2255930E+02  0.7546771E-02  0.1498107E+00
          2   -1    0    0  502    0  0.00000000000E+00  0.00000000000E+00  0.24369340543E+01  0.24369340543E+01  0.00000000000E+00 0. -1.
          2   -1    0    0  501    0 -0.00000000000E+00 -0.00000000000E+00 -0.75844279075E+03  0.75844279075E+03  0.00000000000E+00 0.  1.
          2    1    1    2  501    0 -0.12335936021E+02  0.18887734144E+02 -0.54148171075E+02  0.58659579349E+02  0.00000000000E+00 0. -1.
          2    1    1    2  502    0  0.12335936021E+02 -0.18887734144E+02 -0.70185768562E+03  0.70222014545E+03  0.00000000000E+00 0.  1.
</event>
<event>
 4    1  0.8931296E+003  0.2398529E+02  0.7546771E-02  0.1480483E+00
          2   -1    0    0  502    0  0.00000000000E+00  0.00000000000E+00  0.76640767827E+01  0.76640767827E+01  0.00000000000E+00 0.  1.
          2   -1    0    0  501    0 -0.00000000000E+00 -0.00000000000E+00 -0.38518679059E+03  0.38518679059E+03  0.00000000000E+00 0.  1.
          2    1    1    2  501    0 -0.57937317043E+01 -0.23275022087E+02 -0.12511376265E+02  0.27052329220E+02  0.00000000000E+00 0.  1.
          2    1    1    2  502    0  0.57937317043E+01  0.23275022087E+02 -0.36501133754E+03  0.36579853815E+03  0.00000000000E+00 0.  1.
</event>
<event>
 4    1  0.8931296E+003  0.3027960E+02  0.7546771E-02  0.1417182E+00
          2   -1    0    0  501    0  0.00000000000E+00  0.00000000000E+00  0.35282508584E+03  0.35282508584E+03  0.00000000000E+00 0. -1.
          2   -1    0    0  502    0 -0.00000000000E+00 -0.00000000000E+00 -0.10727697537E+03  0.10727697537E+03  0.00000000000E+00 0. -1.
          2    1    1    2  501    0 -0.17506656897E+02 -0.24705691041E+02 -0.10447359049E+03  0.10877309095E+03  0.00000000000E+00 0. -1.
          2    1    1    2  502    0  0.17506656897E+02  0.24705691041E+02  0.35002170096E+03  0.35132897027E+03  0.00000000000E+00 0. -1.
</event>
<event>
 4    1  0.8931296E+003  0.8524054E+02  0.7546771E-02  0.1192177E+00
          2   -1    0    0  501    0  0.00000000000E+00  0.00000000000E+00  0.41215153871E+02  0.41215153871E+02  0.00000000000E+00 0.  1.
          2   -1    0    0  502    0 -0.00000000000E+00 -0.00000000000E+00 -0.35407142083E+03  0.35407142083E+03  0.00000000000E+00 0.  1.
          2    1    1    2  501    0  0.51419348260E+02 -0.67985293716E+02 -0.29647582801E+03  0.30848641158E+03  0.00000000000E+00 0.  1.
          2    1    1    2  502    0 -0.51419348260E+02  0.67985293716E+02 -0.16380438949E+02  0.86800163118E+02  0.00000000000E+00 0.  1.
</event>
<event>
 4    1  0.8931296E+003  0.4241645E+02  0.7546771E-02  0.1334879E+00
          2   -1    0    0  502    0  0.00000000000E+00  0.00000000000E+00  0.78585047226E+02  0.78585047226E+02  0.00000000000E+00 0.  1.
          2   -1    0    0  501    0 -0.00000000000E+00 -0.00000000000E+00 -0.31266017893E+03  0.31266017893E+03  0.00000000000E+00 0. -1.
          2    1    1    2  501    0 -0.39742115252E+02  0.14822947599E+02  0.71286722976E+02  0.82951506152E+02  0.00000000000E+00 0.  1.
          2    1    1    2  502    0  0.39742115252E+02 -0.14822947599E+02 -0.30536185468E+03  0.30829372000E+03  0.00000000000E+00 0. -1.
</event>
<event>
 4    1  0.9562353E+003  0.4255723E+02  0.7546771E-02  0.1334119E+00
          2   -1    0    0  501    0  0.00000000000E+00  0.00000000000E+00  0.10702865053E+04  0.10702865053E+04  0.00000000000E+00 0. -1.
          2   -1    0    0  502    0 -0.00000000000E+00 -0.00000000000E+00 -0.10055268555E+04  0.10055268555E+04  0.00000000000E+00 0.  1.
          2    1    1    2  501    0 -0.42541952775E+02  0.11403561112E+01 -0.10046531517E+04  0.10055541126E+04  0.00000000000E+00 0.  1.
          2    1    1    2  502    0  0.42541952775E+02 -0.11403561112E+01  0.10694128015E+04  0.10702592481E+04  0.00000000000E+00 0. -1.
</event>
<event>
 4    1  0.8931296E+003  0.2539045E+02  0.7546771E-02  0.1464483E+00
          2   -1    0    0  501    0  0.00000000000E+00  0.00000000000E+00  0.25531413592E+03  0.25531413592E+03  0.00000000000E+00 0.  1.
          2   -1    0    0  502    0 -0.00000000000E+00 -0.00000000000E+00 -0.30581581533E+01  0.30581581533E+01  0.00000000000E+00 0. -1.
          2    1    1    2  501    0  0.20695624204E+02  0.14709385605E+02  0.72188934866E+02  0.76523964895E+02  0.00000000000E+00 0. -1.
          2    1    1    2  502    0 -0.20695624204E+02 -0.14709385605E+02  0.18006704290E+03  0.18184832918E+03  0.00000000000E+00 0.  1.
</event>
<event>
 4    1  0.8931296E+003  0.2582135E+02  0.7546771E-02  0.1459821E+00
          2   -1    0    0  502    0  0.00000000000E+00  0.00000000000E+00  0.11657951863E+02  0.11657951863E+02  0.00000000000E+00 0.  1.
          2   -1    0    0  501    0 -0.00000000000E+00 -0.00000000000E+00 -0.17464276616E+03  0.17464276616E+03  0.00000000000E+00 0.  1.
          2    1    1    2  501    0 -0.25545436590E+02 -0.37646439959E+01 -0.51023010823E+01  0.26320625968E+02  0.00000000000E+00 0.  1.
          2    1    1    2  502    0  0.25545436590E+02  0.37646439959E+01 -0.15788251322E+03  0.15998009206E+03  0.00000000000E+00 0.  1.
</event>
<event>
 4    1  0.8931296E+003  0.2659459E+02  0.7546771E-02  0.1451724E+00
          2   -1    0    0  501    0  0.00000000000E+00  0.00000000000E+00  0.26656108447E+02  0.26656108447E+02  0.00000000000E+00 0.  1.
          2   -1    0    0  502    0 -0.00000000000E+00 -0.00000000000E+00 -0.39473076902E+02  0.39473076902E+02  0.00000000000E+00 0.  1.
          2    1    1    2  501    0  0.22713266966E+02 -0.13834013118E+02 -0.25339652134E+02  0.36733777174E+02  0.00000000000E+00 0.  1.
          2    1    1    2  502    0 -0.22713266966E+02  0.13834013118E+02  0.12522683679E+02  0.29395408175E+02  0.00000000000E+00 0.  1.
</event>
<event>
 4    1  0.8931296E+003  0.3078378E+02  0.7546771E-02  0.1412905E+00
          2   -1    0    0  502    0  0.00000000000E+00  0.00000000000E+00  0.25233438081E+04  0.25233438081E+04  0.00000000000E+00 0.  1.
          2   -1    0    0  501    0 -0.00000000000E+00 -0.00000000000E+00 -0.40578414060E+00  0.40578414060E+00  0.00000000000E+00 0.  1.
          2    1    1    2  501    0 -0.17621031668E+02  0.25241639008E+02  0.16059136699E+04  0.16062086901E+04  0.00000000000E+00 0.  1.
          2    1    1    2  502    0  0.17621031668E+02 -0.25241639008E+02  0.91702435415E+03  0.91754090219E+03  0.00000000000E+00 0.  1.
</event>
<event>
 4    1  0.8931296E+003  0.2629944E+02  0.7546771E-02  0.1454775E+00
          2   -1    0    0  502    0  0.00000000000E+00  0.00000000000E+00  0.12336916017E+03  0.12336916017E+03  0.00000000000E+00 0.  1.
          2   -1    0    0  501    0 -0.00000000000E+00 -0.00000000000E+00 -0.89730708979E+02  0.89730708979E+02  0.00000000000E+00 0.  1.
          2    1    1    2  501    0  0.40071152636E+01  0.25992379007E+02  0.11998682178E+03  0.12283524795E+03  0.00000000000E+00 0.  1.
          2    1    1    2  502    0 -0.40071152636E+01 -0.25992379007E+02 -0.86348370580E+02  0.90264621203E+02  0.00000000000E+00 0.  1.
</event>
<event>
 4    1  0.8931296E+003  0.2067419E+02  0.7546771E-02  0.1523968E+00
          2   -1    0    0  501    0  0.00000000000E+00  0.00000000000E+00  0.12197173477E+04  0.12197173477E+04  0.00000000000E+00 0.  1.
          2   -1    0    0  502    0 -0.00000000000E+00 -0.00000000000E+00 -0.28591782221E+02  0.28591782221E+02  0.00000000000E+00 0. -1.
          2    1    1    2  501    0 -0.20633727649E+02 -0.12928206003E+01 -0.24755102352E+02  0.32252708325E+02  0.00000000000E+00 0. -1.
          2    1    1    2  502    0  0.20633727649E+02  0.12928206003E+01  0.12158806678E+04  0.12160564216E+04  0.00000000000E+00 0.  1.
</event>
<event>
 4    1  0.8931296E+003  0.3073147E+02  0.7546771E-02  0.1413344E+00
          2   -1    0    0  502    0  0.00000000000E+00  0.00000000000E+00  0.16818318525E+04  0.16818318525E+04  0.00000000000E+00 0.  1.
          2   -1    0    0  501    0 -0.00000000000E+00 -0.00000000000E+00 -0.32259113259E+01  0.32259113259E+01  0.00000000000E+00 0. -1.
          2    1    1    2  501    0 -0.29586101396E+02 -0.83117790315E+01  0.16049976178E+04  0.16052918041E+04  0.00000000000E+00 0.  1.
          2    1    1    2  502    0  0.29586101396E+02  0.83117790315E+01  0.73608323411E+02  0.79765959794E+02  0.00000000000E+00 0. -1.
</event>
<event>
 4    1  0.8931296E+003  0.3072147E+02  0.7546771E-02  0.1413428E+00
          2   -1    0    0  501    0  0.00000000000E+00  0.00000000000E+00  0.11080891133E+04  0.11080891133E+04  0.00000000000E+00 0.  1.
          2   -1    0    0  502    0 -0.00000000000E+00 -0.00000000000E+00 -0.14028436248E+01  0.14028436248E+01  0.00000000000E+00 0. -1.
          2    1    1    2  501    0  0.29081651420E+02  0.99028288335E+01  0.20564327746E+03  0.20792538573E+03  0.00000000000E+00 0. -1.
          2    1    1    2  502    0 -0.29081651420E+02 -0.99028288335E+01  0.90104299221E+03  0.90156657119E+03  0.00000000000E+00 0.  1.
</event>
<event>
 4    1  0.8931296E+003  0.2047804E+02  0.7546771E-02  0.1526849E+00
          2   -1    0    0  501    0  0.00000000000E+00  0.00000000000E+00  0.16716486175E+03  0.16716486175E+03  0.00000000000E+00 0.  1.
          2   -1    0    0  502    0 -0.00000000000E+00 -0.00000000000E+00 -0.31170800642E+02  0.31170800642E+02  0.00000000000E+00 0. -1.
          2    1    1    2  501    0 -0.18669248695E+02 -0.84148182190E+01 -0.27096635697E+02  0.33964358945E+02  0.00000000000E+00 0. -1.
          2    1    1    2  502    0  0.18669248695E+02  0.84148182190E+01  0.16309069680E+03  0.16437130345E+03  0.00000000000E+00 0.  1.
</event>
<event>
 4    1  0.8931296E+003  0.2195617E+02  0.7546771E-02  0.1506039E+00
          2   -1    0    0  501    0  0.00000000000E+00  0.00000000000E+00  0.29351078049E+03  0.29351078049E+03  0.00000000000E+00 0.  1.
          2   -1    0    0  502    0 -0.00000000000E+00 -0.00000000000E+00 -0.36908582845E+02  0.36908582845E+02  0.00000000000E+00 0.  1.
          2    1    1    2  501    0 -0.15035014852E+01  0.21904631546E+02 -0.33190821863E+02  0.39795779372E+02  0.00000000000E+00 0.  1.
          2    1    1    2  502    0  0.15035014852E+01 -0.21904631546E+02  0.28979301951E+03  0.29062358397E+03  0.00000000000E+00 0.  1.
</event>
<event>
 4    1  0.8931296E+003  0.3745823E+02  0.7546771E-02  0.1364061E+00
          2   -1    0    0  502    0  0.00000000000E+00  0.00000000000E+00  0.13413234460E+04  0.13413234460E+04  0.00000000000E+00 0. -1.
          2   -1    0    0  501    0 -0.00000000000E+00 -0.00000000000E+00 -0.10460797057E+01  0.10460797057E+01  0.00000000000E+00 0. -1.
          2    1    1    2  501    0 -0.88465679759E+01  0.36398586817E+02  0.66814755262E+03  0.66919673561E+03  0.00000000000E+00 0. -1.
          2    1    1    2  502    0  0.88465679759E+01 -0.36398586817E+02  0.67212981368E+03  0.67317279010E+03  0.00000000000E+00 0. -1.
</event>
<event>
 4    1  0.8931296E+003  0.2869321E+02  0.7546771E-02  0.1431303E+00
          2   -1    0    0  501    0  0.00000000000E+00  0.00000000000E+00  0.25490724983E+03  0.25490724983E+03  0.00000000000E+00 0. -1.
          2   -1    0    0  502    0 -0.00000000000E+00 -0.00000000000E+00 -0.17346657639E+02  0.17346657639E+02  0.00000000000E+00 0. -1.
          2    1    1    2  501    0 -0.13992800871E+02 -0.25049989186E+02 -0.40216302961E+01  0.28973676755E+02  0.00000000000E+00 0. -1.
          2    1    1    2  502    0  0.13992800871E+02  0.25049989186E+02  0.24158222248E+03  0.24328023071E+03  0.00000000000E+00 0. -1.
</event>
<event>
 4    1  0.8931296E+003  0.2223066E+02  0.7546771E-02  0.1502392E+00
          2   -1    0    0  502    0  0.00000000000E+00  0.00000000000E+00  0.16809766675E+01  0.16809766675E+01  0.00000000000E+00 0. -1.
          2   -1    0    0  501    0 -0.00000000000E+00 -0.00000000000E+00 -0.31638233703E+03  0.31638233703E+03  0.00000000000E+00 0. -1.
          2    1    1    2  501    0  0.12388890379E+02 -0.18458534212E+02 -0.11504883328E+03  0.11717694367E+03  0.00000000000E+00 0. -1.
          2    1    1    2  502    0 -0.12388890379E+02  0.18458534212E+02 -0.19965252709E+03  0.20088637002E+03  0.00000000000E+00 0. -1.
</event>
<event>
 4    1  0.8931296E+003  0.2748857E+02  0.7546771E-02  0.1442761E+00
          2   -1    0    0  501    0  0.00000000000E+00  0.00000000000E+00  0.16025370632E+03  0.16025370632E+03  0.00000000000E+00 0.  1.
          2   -1    0    0  502    0 -0.00000000000E+00 -0.00000000000E+00 -0.39021851742E+02  0.39021851742E+02  0.00000000000E+00 0.  1.
          2    1    1    2  501    0  0.73623710596E+01  0.26484278735E+02 -0.32808304319E+02  0.42801943414E+02  0.00000000000E+00 0.  1.
          2    1    1    2  502    0 -0.73623710596E+01 -0.26484278735E+02  0.15404015889E+03  0.15647361464E+03  0.00000000000E+00 0.  1.
</event>
<event>
 4    1  0.8931296E+003  0.2046764E+02  0.7546771E-02  0.1527003E+00
          2   -1    0    0  501    0  0.00000000000E+00  0.00000000000E+00  0.28822509569E+02  0.28822509569E+02  0.00000000000E+00 0. -1.
          2   -1    0    0  502    0 -0.00000000000E+00 -0.00000000000E+00 -0.18012043171E+03  0.18012043171E+03  0.00000000000E+00 0. -1.
          2    1    1    2  501    0  0.16567898163E+02  0.12017860124E+02 -0.17581667908E+03  0.17700403627E+03  0.00000000000E+00 0. -1.
          2    1    1    2  502    0 -0.16567898163E+02 -0.12017860124E+02  0.24518756940E+02  0.31938905013E+02  0.00000000000E+00 0. -1.
</event>
<event>
 4    1  0.8931296E+003  0.2048224E+02  0.7546771E-02  0.1526787E+00
          2   -1    0    0  502    0  0.00000000000E+00  0.00000000000E+00  0.90140791021E+00  0.90140791021E+00  0.00000000000E+00 0. -1.
          2   -1    0    0  501    0 -0.00000000000E+00 -0.00000000000E+00 -0.72218369767E+03  0.72218369767E+03  0.00000000000E+00 0. -1.
          2    1    1    2  501    0  0.10571794137E+02  0.17543072417E+02 -0.14505901610E+03  0.14649791934E+03  0.00000000000E+00 0. -1.
          2    1    1    2  502    0 -0.10571794137E+02 -0.17543072417E+02 -0.57622327366E+03  0.57658718623E+03  0.00000000000E+00 0. -1.
</event>
<event>
 4    1  0.8931296E+003  0.2215541E+02  0.7546771E-02  0.1503385E+00
          2   -1    0    0  502    0  0.00000000000E+00  0.00000000000E+00  0.25397607239E+03  0.25397607239E+03  0.00000000000E+00 0. -1.
          2   -1    0    0  501    0 -0.00000000000E+00 -0.00000000000E+00 -0.83345113664E+03  0.83345113664E+03  0.00000000000E+00 0. -1.
          2    1    1    2  501    0 -0.66812307386E+01 -0.21124001131E+02  0.25334529096E+03  0.25431220718E+03  0.00000000000E+00 0. -1.
          2    1    1    2  502    0  0.66812307386E+01  0.21124001131E+02 -0.83282035521E+03  0.83311500186E+03  0.00000000000E+00 0. -1.
</event>
<event>
 4    1  0.8931296E+003  0.2652551E+02  0.7546771E-02  0.1452434E+00
          2   -1    0    0  501    0  0.00000000000E+00  0.00000000000E+00  0.23969538752E+02  0.23969538752E+02  0.00000000000E+00 0. -1.
          2   -1    0    0  502    0 -0.00000000000E+00 -0.00000000000E+00 -0.63804491896E+02  0.63804491896E+02  0.00000000000E+00 0. -1.
          2    1    1    2  501    0  0.11659327968E+02  0.23825671450E+02 -0.52165859819E+02  0.58522469867E+02  0.00000000000E+00 0. -1.
          2    1    1    2  502    0 -0.11659327968E+02 -0.23825671450E+02  0.12330906674E+02  0.29251560781E+02  0.00000000000E+00 0. -1.
</event>
<event>
 4    1  0.8931296E+003  0.2373056E+02  0.7546771E-02  0.1483523E+00
          2   -1    0    0  501    0  0.00000000000E+00  0.00000000000E+00  0.14722277012E+03  0.14722277012E+03  0.00000000000E+00 0. -1.
          2   -1    0    0  502    0 -0.00000000000E+00 -0.00000000000E+00 -0.60239099080E+01  0.60239099080E+01  0.00000000000E+00 0.  1.
          2    1    1    2  501    0  0.18194288488E+02 -0.15235069687E+02  0.24306224529E+02  0.33969575104E+02  0.00000000000E+00 0.  1.
          2    1    1    2  502    0 -0.18194288488E+02  0.15235069687E+02  0.11689263568E+03  0.11927710492E+03  0.00000000000E+00 0. -1.
</event>
<event>
 4    1  0.8931296E+003  0.2198003E+02  0.7546771E-02  0.1505719E+00
          2   -1    0    0  502    0  0.00000000000E+00  0.00000000000E+00  0.33974532316E+03  0.33974532316E+03  0.00000000000E+00 0.  1.
          2   -1    0    0  501    0 -0.00000000000E+00 -0.00000000000E+00 -0.15487422836E+02  0.15487422836E+02  0.00000000000E+00 0. -1.
          2    1    1    2  501    0  0.11962304744E+02 -0.18439771822E+02  0.33139491101E+03  0.33212303287E+03  0.00000000000E+00 0.  1.
          2    1    1    2  502    0 -0.11962304744E+02  0.18439771822E+02 -0.71370106787E+01  0.23109713132E+02  0.00000000000E+00 0. -1.
</event>
<event>
 4    1  0.8931296E+003  0.2442267E+02  0.7546771E-02  0.1475367E+00
          2   -1    0    0  502    0  0.00000000000E+00  0.00000000000E+00  0.11017424871E+02  0.11017424871E+02  0.00000000000E+00 0.  1.
          2   -1    0    0  501    0 -0.00000000000E+00 -0.00000000000E+00 -0.68642888890E+03  0.68642888890E+03  0.00000000000E+00 0.  1.
          2    1    1    2  501    0 -0.44352210146E+01 -0.24016570809E+02 -0.30168381085E+01  0.24608294761E+02  0.00000000000E+00 0.  1.
          2    1    1    2  502    0  0.44352210146E+01  0.24016570809E+02 -0.67239462592E+03  0.67283801901E+03  0.00000000000E+00 0.  1.
</event>
<event>
 4    1  0.8931296E+003  0.4879366E+02  0.7546771E-02  0.1303489E+00
          2   -1    0    0  502    0  0.00000000000E+00  0.00000000000E+00  0.29607694912E+03  0.29607694912E+03  0.00000000000E+00 0.  1.
          2   -1    0    0  501    0 -0.00000000000E+00 -0.00000000000E+00 -0.41046464770E+02  0.41046464770E+02  0.00000000000E+00 0. -1.
          2    1    1    2  501    0 -0.35485705361E+02 -0.33490089406E+02  0.27866675115E+03  0.28290630882E+03  0.00000000000E+00 0.  1.
          2    1    1    2  502    0  0.35485705361E+02  0.33490089406E+02 -0.23636266804E+02  0.54217105067E+02  0.00000000000E+00 0. -1.
</event>
<event>
 4    1  0.8931296E+003  0.2256597E+02  0.7546771E-02  0.1498021E+00
          2   -1    0    0  502    0  0.00000000000E+00  0.00000000000E+00  0.18723744525E+01  0.18723744525E+01  0.00000000000E+00 0. -1.
          2   -1    0    0  501    0 -0.00000000000E+00 -0.00000000000E+00 -0.11706436177E+04  0.11706436177E+04  0.00000000000E+00 0. -1.
          2    1    1    2  501    0  0.16489727134E+02 -0.15404924263E+02 -0.70722586848E+02  0.74235483988E+02  0.00000000000E+00 0. -1.
          2    1    1    2  502    0 -0.16489727134E+02  0.15404924263E+02 -0.10980486564E+04  0.10982805081E+04  0.00000000000E+00 0. -1.
</event>
<event>
 4    1  0.8931296E+003  0.2843878E+02  0.7546771E-02  0.1433667E+00
          2   -1    0    0  502    0  0.00000000000E+00  0.00000000000E+00  0.31356661242E+02  0.31356661242E+02  0.00000000000E+00 0. -1.
          2   -1    0    0  501    0 -0.00000000000E+00 -0.00000000000E+00 -0.28635200862E+03  0.28635200862E+03  0.00000000000E+00 0.  1.
          2    1    1    2  501    0  0.25061287543E+01  0.28328137322E+02  0.24033674487E+02  0.37234145013E+02  0.00000000000E+00 0. -1.
          2    1    1    2  502    0 -0.25061287543E+01 -0.28328137322E+02 -0.27902902187E+03  0.28047452485E+03  0.00000000000E+00 0.  1.
</event>
<event>
 4    1  0.8931296E+003  0.2918730E+02  0.7546771E-02  0.1426793E+00
          2   -1    0    0  501    0  0.00000000000E+00  0.00000000000E+00  0.10159390635E+01  0.10159390635E+01  0.00000000000E+00 0. -1.
          2   -1    0    0  502    0 -0.00000000000E+00 -0.00000000000E+00 -0.84004612695E+03  0.84004612695E+03  0.00000000000E+00 0. -1.
          2    1    1    2  501    0 -0.27911016763E+02  0.85366106665E+01 -0.43736201535E+03  0.43833483896E+03  0.00000000000E+00 0. -1.
          2    1    1    2  502    0  0.27911016763E+02 -0.85366106665E+01 -0.40166817254E+03  0.40272722705E+03  0.00000000000E+00 0. -1.
</event>
<event>
 4    1  0.8931296E+003  0.2132664E+02  0.7546771E-02  0.1514652E+00
          2   -1    0    0  502    0  0.00000000000E+00  0.00000000000E+00  0.76497036949E+01  0.76497036949E+01  0.00000000000E+00 0.  1.
          2   -1    0    0  501    0 -0.00000000000E+00 -0.00000000000E+00 -0.16668203281E+03  0.16668203281E+03  0.00000000000E+00 0. -1.
          2    1    1    2  501    0  0.11678252740E+02 -0.17845001252E+02 -0.96042983731E+01  0.23389489178E+02  0.00000000000E+00 0.  1.
          2    1    1    2  502    0 -0.11678252740E+02  0.17845001252E+02 -0.14942803074E+03  0.15094224732E+03  0.00000000000E+00 0. -1.
</event>
<event>
 4    1  0.8931296E+003  0.2468702E+02  0.7546771E-02  0.1472335E+00
          2   -1    0    0  501    0  0.00000000000E+00  0.00000000000E+00  0.47116792646E+03  0.47116792646E+03  0.00000000000E+00 0. -1.
          2   -1    0    0  502    0 -0.00000000000E+00 -0.00000000000E+00 -0.14248611734E+01  0.14248611734E+01  0.00000000000E+00 0. -1.
          2    1    1    2  501    0  0.71938250165E+01 -0.23615627709E+02  0.16312054044E+03  0.16497805825E+03  0.00000000000E+00 0. -1.
          2    1    1    2  502    0 -0.71938250165E+01  0.23615627709E+02  0.30662252485E+03  0.30761472939E+03  0.00000000000E+00 0. -1.
</event>
<event>
 4    1  0.8931296E+003  0.2469406E+02  0.7546771E-02  0.1472255E+00
          2   -1    0    0  501    0  0.00000000000E+00  0.00000000000E+00  0.87274292875E+03  0.87274292875E+03  0.00000000000E+00 0. -1.
          2   -1    0    0  502    0 -0.00000000000E+00 -0.00000000000E+00 -0.88034321036E+01  0.88034321036E+01  0.00000000000E+00 0.  1.
          2    1    1    2  501    0  0.18947214695E+02  0.15836656699E+02  0.90498283866E+01  0.26300114713E+02  0.00000000000E+00 0.  1.
          2    1    1    2  502    0 -0.18947214695E+02 -0.15836656699E+02  0.85488966826E+03  0.85524624614E+03  0.00000000000E+00 0. -1.
</event>
<event>
 4    1  0.8931296E+003  0.2466405E+02  0.7546771E-02  0.1472597E+00
          2   -1    0    0  502    0  0.00000000000E+00  0.00000000000E+00  0.39091733497E+02  0.39091733497E+02  0.00000000000E+00 0. -1.
          2   -1    0    0  501    0 -0.00000000000E+00 -0.00000000000E+00 -0.26094067634E+02  0.26094067634E+02  0.00000000000E+00 0. -1.
          2    1    1    2  501    0 -0.22685043948E+02 -0.96800793814E+01  0.27206204333E+02  0.36721828794E+02  0.00000000000E+00 0. -1.
          2    1    1    2  502    0  0.22685043948E+02  0.96800793814E+01 -0.14208538470E+02  0.28463972337E+02  0.00000000000E+00 0. -1.
</event>
<event>
 4    1  0.8931296E+003  0.2753970E+02  0.7546771E-02  0.1442261E+00
          2   -1    0    0  501    0  0.00000000000E+00  0.00000000000E+00  0.55643662870E+03  0.55643662870E+03  0.00000000000E+00 0. -1.
          2   -1    0    0  502    0 -0.00000000000E+00 -0.00000000000E+00 -0.38241762623E+01  0.38241762623E+01  0.00000000000E+00 0.  1.
          2    1    1    2  501    0  0.21761787457E+02 -0.16877779344E+02  0.51576357742E+02  0.58468414609E+02  0.00000000000E+00 0.  1.
          2    1    1    2  502    0 -0.21761787457E+02  0.16877779344E+02  0.50103609469E+03  0.50179239035E+03  0.00000000000E+00 0. -1.
</event>
<event>
 4    1  0.8931296E+003  0.2000524E+02  0.7546771E-02  0.1533956E+00
          2   -1    0    0  501    0  0.00000000000E+00  0.00000000000E+00  0.40562543474E+03  0.40562543474E+03  0.00000000000E+00 0. -1.
          2   -1    0    0  502    0 -0.00000000000E+00 -0.00000000000E+00 -0.16355207135E+01  0.16355207135E+01  0.00000000000E+00 0.  1.
          2    1    1    2  501    0  0.19383884129E+01  0.19911108134E+02  0.73734002401E+02  0.76399690358E+02  0.00000000000E+00 0.  1.
          2    1    1    2  502    0 -0.19383884129E+01 -0.19911108134E+02  0.33025591163E+03  0.33086126510E+03  0.00000000000E+00 0. -1.
</event>
<event>
 4    1  0.8931296E+003  0.4698119E+02  0.7546771E-02  0.1311820E+00
          2   -1    0    0  501    0  0.00000000000E+00  0.00000000000E+00  0.95094468052E+01  0.95094468052E+01  0.00000000000E+00 0. -1.
          2   -1    0    0  502    0 -0.00000000000E+00 -0.00000000000E+00 -0.71823291035E+03  0.71823291035E+03  0.00000000000E+00 0.  1.
          2    1    1    2  501    0  0.36610033933E+02 -0.29443807836E+02 -0.65371796133E+03  0.65540400164E+03  0.00000000000E+00 0.  1.
          2    1    1    2  502    0 -0.36610033933E+02  0.29443807836E+02 -0.55005502222E+02  0.72338355519E+02  0.00000000000E+00 0. -1.
</event>
<event>
 4    1  0.8931296E+003  0.7236801E+02  0.7546771E-02  0.1222768E+00
          2   -1    0    0  501    0  0.00000000000E+00  0.00000000000E+00  0.48896332515E+03  0.48896332515E+03  0.00000000000E+00 0. -1.
          2   -1    0    0  502    0 -0.00000000000E+00 -0.00000000000E+00 -0.15050686985E+04  0.15050686985E+04  0.00000000000E+00 0.  1.
          2    1    1    2  501    0  0.71517491951E+02  0.11062392229E+02 -0.15015147801E+04  0.15032577168E+04  0.00000000000E+00 0.  1.
          2    1    1    2  502    0 -0.71517491951E+02 -0.11062392229E+02  0.48540940673E+03  0.49077430690E+03  0.00000000000E+00 0. -1.
</event>
<event>
 4    1  0.1138426E+004  0.2108387E+02  0.7546771E-02  0.1518071E+00
          2   -1    0    0  501    0  0.00000000000E+00  0.00000000000E+00  0.86146566773E+03  0.86146566773E+03  0.00000000000E+00 0. -1.
          2   -1    0    0  502    0 -0.00000000000E+00 -0.00000000000E+00 -0.79764402420E+03  0.79764402420E+03  0.00000000000E+00 0.  1.
          2    1    1    2  501    0 -0.20040200232E+02 -0.65513337986E+01 -0.79737565111E+03  0.79765434781E+03  0.00000000000E+00 0.  1.
          2    1    1    2  502    0  0.20040200232E+02  0.65513337986E+01  0.86119729465E+03  0.86145534412E+03  0.00000000000E+00 0. -1.
</event>
<event>
 4    1  0.8931296E+003  0.2876699E+02  0.7546771E-02  0.1430623E+00
          2   -1    0    0  502    0  0.00000000000E+00  0.00000000000E+00  0.56915681382E+03  0.56915681382E+03  0.00000000000E+00 0.  1.
          2   -1    0    0  501    0 -0.00000000000E+00 -0.00000000000E+00 -0.87306095616E+01  0.87306095616E+01  0.00000000000E+00 0.  1.
          2    1    1    2  501    0  0.28764810434E+02  0.35373124895E+00  0.54400184845E+03  0.54476192099E+03  0.00000000000E+00 0.  1.
          2    1    1    2  502    0 -0.28764810434E+02 -0.35373124895E+00  0.16424355814E+02  0.33125502396E+02  0.00000000000E+00 0.  1.
</event>
<event>
 4    1  0.8931296E+003  0.2760436E+02  0.7546771E-02  0.1441630E+00
          2   -1    0    0  501    0  0.00000000000E+00  0.00000000000E+00  0.72802579915E+02  0.72802579915E+02  0.00000000000E+00 0. -1.
          2   -1    0    0  502    0 -0.00000000000E+00 -0.00000000000E+00 -0.16046339783E+04  0.16046339783E+04  0.00000000000E+00 0. -1.
          2    1    1    2  501    0  0.24312433682E+02  0.13073107583E+02 -0.16018941169E+04  0.16021319429E+04  0.00000000000E+00 0. -1.
          2    1    1    2  502    0 -0.24312433682E+02 -0.13073107583E+02  0.70062718497E+02  0.75304615374E+02  0.00000000000E+00 0. -1.
</event>
<event>
 4    1  0.8931296E+003  0.2476922E+02  0.7546771E-02  0.1471402E+00
          2   -1    0    0  501    0  0.00000000000E+00  0.00000000000E+00  0.13639392982E+02  0.13639392982E+02  0.00000000000E+00 0. -1.
          2   -1    0    0  502    0 -0.00000000000E+00 -0.00000000000E+00 -0.21891980221E+03  0.21891980221E+03  0.00000000000E+00 0. -1.
          2    1    1    2  501    0 -0.21275231651E+02  0.12683807188E+02 -0.20628778086E+03  0.20776949482E+03  0.00000000000E+00 0. -1.
          2    1    1    2  502    0  0.21275231651E+02 -0.12683807188E+02  0.10073716358E+01  0.24789700365E+02  0.00000000000E+00 0. -1.
</event>
<event>
 4    1  0.8931296E+003  0.4722042E+02  0.7546771E-02  0.1310695E+00
          2   -1    0    0  502    0  0.00000000000E+00  0.00000000000E+00  0.17365852489E+04  0.17365852489E+04  0.00000000000E+00 0. -1.
          2   -1    0    0  501    0 -0.00000000000E+00 -0.00000000000E+00 -0.53328708729E+01  0.53328708729E+01  0.00000000000E+00 0.  1.
          2    1    1    2  501    0  0.39089867761E+02  0.26490569737E+02  0.16245259207E+04  0.16252120585E+04  0.00000000000E+00 0. -1.
          2    1    1    2  502    0 -0.39089867761E+02 -0.26490569737E+02  0.10672645736E+03  0.11670606132E+03  0.00000000000E+00 0.  1.
</event>
<event>
 4    1  0.8931296E+003  0.3346610E+02  0.7546771E-02  0.1391680E+00
          2   -1    0    0  501    0  0.00000000000E+00  0.00000000000E+00  0.36537282924E+02  0.36537282924E+02  0.00000000000E+00 0.  1.
          2   -1    0    0  502    0 -0.00000000000E+00 -0.00000000000E+00 -0.38109680386E+03  0.38109680386E+03  0.00000000000E+00 0.  1.
          2    1    1    2  501    0  0.33310571215E+02 -0.32226508146E+01 -0.37252280649E+03  0.37402302200E+03  0.00000000000E+00 0.  1.
          2    1    1    2  502    0 -0.33310571215E+02  0.32226508146E+01  0.27963285550E+02  0.43611064785E+02  0.00000000000E+00 0.  1.
</event>
<event>
 4    1  0.8931296E+003  0.2376482E+02  0.7546771E-02  0.1483111E+00
          2   -1    0    0  502    0  0.00000000000E+00  0.00000000000E+00  0.12550105037E+04  0.12550105037E+04  0.00000000000E+00 0.  1.
          2   -1    0    0  501    0 -0.00000000000E+00 -0.00000000000E+00 -0.20059865718E+01  0.20059865718E+01  0.00000000000E+00 0.  1.
          2    1    1    2  501    0 -0.64490634996E+01 -0.22873050955E+02  0.11800416597E+04  0.11802809350E+04  0.00000000000E+00 0.  1.
          2    1    1    2  502    0  0.64490634996E+01  0.22873050955E+02  0.72962857447E+02  0.76735555298E+02  0.00000000000E+00 0.  1.
</event>
<event>
 4    1  0.8931296E+003  0.3665933E+02  0.7546771E-02  0.1369258E+00
          2   -1    0    0  502    0  0.00000000000E+00  0.00000000000E+00  0.77394748227E+03  0.77394748227E+03  0.00000000000E+00 0. -1.
          2   -1    0    0  501    0 -0.00000000000E+00 -0.00000000000E+00 -0.48125950227E+02  0.48125950227E+02  0.00000000000E+00 0. -1.
          2    1    1    2  501    0 -0.33780031213E+02  0.14241358581E+02  0.76646405572E+03  0.76734024756E+03  0.00000000000E+00 0. -1.
          2    1    1    2  502    0  0.33780031213E+02 -0.14241358581E+02 -0.40642523679E+02  0.54733184943E+02  0.00000000000E+00 0. -1.
</event>
<event>
 4    1  0.8931296E+003  0.2070356E+02  0.7546771E-02  0.1523540E+00
          2   -1    0    0  501    0  0.00000000000E+00  0.00000000000E+00  0.69780659327E+02  0.69780659327E+02  0.00000000000E+00 0. -1.
          2   -1    0    0  502    0 -0.00000000000E+00 -0.00000000000E+00 -0.13679485680E+02  0.13679485680E+02  0.00000000000E+00 0.  1.
          2    1    1    2  501    0 -0.71709596651E+01  0.19422012157E+02 -0.29242601591E+01  0.20909053451E+02  0.00000000000E+00 0.  1.
          2    1    1    2  502    0  0.71709596651E+01 -0.19422012157E+02  0.59025433806E+02  0.62551091555E+02  0.00000000000E+00 0. -1.
</event>
<event>
 4    1  0.8931296E+003  0.2743286E+02  0.7546771E-02  0.1443308E+00
          2   -1    0    0  501    0  0.00000000000E+00  0.00000000000E+00  0.23283773926E+03  0.23283773926E+03  0.00000000000E+00 0.  1.
          2   -1    0    0  502    0 -0.00000000000E+00 -0.00000000000E+00 -0.25581723559E+03  0.25581723559E+03  0.00000000000E+00 0. -1.
          2    1    1    2  501    0  0.18571337729E+02 -0.20190764701E+02 -0.25426884861E+03  0.25574442112E+03  0.00000000000E+00 0. -1.
          2    1    1    2  502    0 -0.18571337729E+02  0.20190764701E+02  0.23128935228E+03  0.23291055373E+03  0.00000000000E+00 0.  1.
</event>
<event>
 4    1  0.8931296E+003  0.2824269E+02  0.7546771E-02  0.1435509E+00
          2   -1    0    0  502    0  0.00000000000E+00  0.00000000000E+00  0.19430506516E+04  0.19430506516E+04  0.00000000000E+00 0. -1.
          2   -1    0    0  501    0 -0.00000000000E+00 -0.00000000000E+00 -0.21384916191E+01  0.21384916191E+01  0.00000000000E+00 0. -1.
          2    1    1    2  501    0 -0.20784658508E+02  0.19121912525E+02  0.18447291817E+04  0.18449453660E+04  0.00000000000E+00 0. -1.
          2    1    1    2  502    0  0.20784658508E+02 -0.19121912525E+02  0.96182978286E+02  0.10024377726E+03  0.00000000000E+00 0. -1.
</event>
<event>
 4    1  0.8931296E+003  0.2782512E+02  0.7546771E-02  0.1439491E+00
          2   -1    0    0  501    0  0.00000000000E+00  0.00000000000E+00  0.93987427466E+03  0.93987427466E+03  0.00000000000E+00 0.  1.
          2   -1    0    0  502    0 -0.00000000000E+00 -0.00000000000E+00 -0.96559917572E+02  0.96559917572E+02  0.00000000000E+00 0.  1.
          2    1    1    2  501    0 -0.11285716440E+02  0.25433636823E+02 -0.94344689714E+02  0.98362379774E+02  0.00000000000E+00 0.  1.
          2    1    1    2  502    0  0.11285716440E+02 -0.25433636823E+02  0.93765904680E+03  0.93807181246E+03  0.00000000000E+00 0.  1.
</event>
<event>
 4    1  0.8931296E+003  0.3494145E+02  0.7546771E-02  0.1380975E+00
          2   -1    0    0  501    0  0.00000000000E+00  0.00000000000E+00  0.85809274924E+03  0.85809274924E+03  0.00000000000E+00 0.  1.
          2   -1    0    0  502    0 -0.00000000000E+00 -0.00000000000E+00 -0.29339434676E+02  0.29339434676E+02  0.00000000000E+00 0.  1.
          2    1    1    2  501    0 -0.11785012194E+02 -0.32894053609E+02 -0.18446751728E+02  0.39511870679E+02  0.00000000000E+00 0.  1.
          2    1    1    2  502    0  0.11785012194E+02  0.32894053609E+02  0.84720006629E+03  0.84792031324E+03  0.00000000000E+00 0.  1.
</event>
<event>
 4    1  0.8931296E+003  0.2171134E+02  0.7546771E-02  0.1509346E+00
          2   -1    0    0  502    0  0.00000000000E+00  0.00000000000E+00  0.66404179433E+03  0.66404179433E+03  0.00000000000E+00 0.  1.
          2   -1    0    0  501    0 -0.00000000000E+00 -0.00000000000E+00 -0.24838952996E+03  0.24838952996E+03  0.00000000000E+00 0.  1.
          2    1    1    2  501    0 -0.76398617736E+01 -0.20322765838E+02  0.66338942221E+03  0.66374461037E+03  0.00000000000E+00 0.  1.
          2    1    1    2  502    0  0.76398617736E+01  0.20322765838E+02 -0.24773715785E+03  0.24868671392E+03  0.00000000000E+00 0.  1.
</event>
<event>
 4    1  0.8931296E+003  0.2341442E+02  0.7546771E-02  0.1487359E+00
          2   -1    0    0  501    0  0.00000000000E+00  0.00000000000E+00  0.14273098656E+03  0.14273098656E+03  0.00000000000E+00 0. -1.
          2   -1    0    0  502    0 -0.00000000000E+00 -0.00000000000E+00 -0.58841033116E+03  0.58841033116E+03  0.00000000000E+00 0.  1.
          2    1    1    2  501    0  0.23263733080E+02 -0.26521635813E+01 -0.58721518719E+03  0.58768181129E+03  0.00000000000E+00 0.  1.
          2    1    1    2  502    0 -0.23263733080E+02  0.26521635813E+01  0.14153584259E+03  0.14345950643E+03  0.00000000000E+00 0. -1.
</event>
<event>
 4    1  0.8931296E+003  0.2212321E+02  0.7546771E-02  0.1503812E+00
          2   -1    0    0  501    0  0.00000000000E+00  0.00000000000E+00  0.19852738249E+03  0.19852738249E+03  0.00000000000E+00 0. -1.
          2   -1    0    0  502    0 -0.00000000000E+00 -0.00000000000E+00 -0.24677731824E+03  0.24677731824E+03  0.00000000000E+00 0. -1.
          2    1    1    2  501    0 -0.48816889290E+01  0.21577899140E+02 -0.24566236452E+03  0.24665651007E+03  0.00000000000E+00 0. -1.
          2    1    1    2  502    0  0.48816889290E+01 -0.21577899140E+02  0.19741242877E+03  0.19864819065E+03  0.00000000000E+00 0. -1.
</event>
<event>
 4    1  0.8931296E+003  0.2570071E+02  0.7546771E-02  0.1461115E+00
          2   -1    0    0  502    0  0.00000000000E+00  0.00000000000E+00  0.11880829668E+04  0.11880829668E+04  0.00000000000E+00 0.  1.
          2   -1    0    0  501    0 -0.00000000000E+00 -0.00000000000E+00 -0.28620949508E+03  0.28620949508E+03  0.00000000000E+00 0.  1.
          2    1    1    2  501    0 -0.16516063609E+01  0.25647591335E+02  0.11873666678E+04  0.11876447830E+04  0.00000000000E+00 0.  1.
          2    1    1    2  502    0  0.16516063609E+01 -0.25647591335E+02 -0.28549319613E+03  0.28664767884E+03  0.00000000000E+00 0.  1.
</event>
<event>
 4    1  0.8931296E+003  0.2100922E+02  0.7546771E-02  0.1519133E+00
          2   -1    0    0  502    0  0.00000000000E+00  0.00000000000E+00  0.34225438998E+03  0.34225438998E+03  0.00000000000E+00 0.  1.
          2   -1    0    0  501    0 -0.00000000000E+00 -0.00000000000E+00 -0.17565507474E+01  0.17565507474E+01  0.00000000000E+00 0.  1.
          2    1    1    2  501    0 -0.13655316826E+02 -0.15966206138E+02  0.25892888091E+03  0.25977981597E+03  0.00000000000E+00 0.  1.
          2    1    1    2  502    0  0.13655316826E+02  0.15966206138E+02  0.81568958317E+02  0.84231124752E+02  0.00000000000E+00 0.  1.
</event>
<event>
 4    1  0.8931296E+003  0.2045055E+02  0.7546771E-02  0.1527256E+00
          2   -1    0    0  501    0  0.00000000000E+00  0.00000000000E+00  0.62441860743E+03  0.62441860743E+03  0.00000000000E+00 0. -1.
          2   -1    0    0  502    0 -0.00000000000E+00 -0.00000000000E+00 -0.19333369104E+01  0.19333369104E+01  0.00000000000E+00 0. -1.
          2    1    1    2  501    0  0.52023708695E+01  0.19777769964E+02  0.58061359244E+02  0.61557666336E+02  0.00000000000E+00 0. -1.
          2    1    1    2  502    0 -0.52023708695E+01 -0.19777769964E+02  0.56442391128E+03  0.56479427801E+03  0.00000000000E+00 0. -1.
</event>
<event>
 4    1  0.8931296E+003  0.2106662E+02  0.7546771E-02  0.1518316E+00
          2   -1    0    0  501    0  0.00000000000E+00  0.00000000000E+00  0.12645380353E+01  0.12645380353E+01  0.00000000000E+00 0. -1.
          2   -1    0    0  502    0 -0.00000000000E+00 -0.00000000000E+00 -0.68495158160E+03  0.68495158160E+03  0.00000000000E+00 0.  1.
          2    1    1    2  501    0  0.22132105601E+01  0.20950039401E+02 -0.58143350091E+03  0.58181502080E+03  0.00000000000E+00 0.  1.
          2    1    1    2  502    0 -0.22132105601E+01 -0.20950039401E+02 -0.10225354265E+03  0.10440109883E+03  0.00000000000E+00 0. -1.
</event>
<event>
 4    1  0.8931296E+003  0.2147564E+02  0.7546771E-02  0.1512581E+00
          2   -1    0    0  501    0  0.00000000000E+00  0.00000000000E+00  0.98269643920E+01  0.98269643920E+01  0.00000000000E+00 0.  1.
          2   -1    0    0  502    0 -0.00000000000E+00 -0.00000000000E+00 -0.24570623305E+03  0.24570623305E+03  0.00000000000E+00 0.  1.
          2    1    1    2  501    0 -0.11086615928E+02  0.18392660675E+02 -0.23285784453E+03  0.23384605786E+03  0.00000000000E+00 0.  1.
          2    1    1    2  502    0  0.11086615928E+02 -0.18392660675E+02 -0.30214241317E+01  0.21687139582E+02  0.00000000000E+00 0.  1.
</event>
<event>
 4    1  0.8931296E+003  0.2033430E+02  0.7546771E-02  0.1528985E+00
          2   -1    0    0  502    0  0.00000000000E+00  0.00000000000E+00  0.76243917510E+03  0.76243917510E+03  0.00000000000E+00 0. -1.
          2   -1    0    0  501    0 -0.00000000000E+00 -0.00000000000E+00 -0.89346341536E+00  0.89346341536E+00  0.00000000000E+00 0.  1.
          2    1    1    2  501    0 -0.20163842391E+02  0.26273744641E+01  0.62004362292E+03  0.62037696440E+03  0.00000000000E+00 0. -1.
          2    1    1    2  502    0  0.20163842391E+02 -0.26273744641E+01  0.14150208877E+03  0.14295567411E+03  0.00000000000E+00 0.  1.
</event>
<event>
 4    1  0.8931296E+003  0.2227779E+02  0.7546771E-02  0.1501772E+00
          2   -1    0    0  502    0  0.00000000000E+00  0.00000000000E+00  0.84402012353E+02  0.84402012353E+02  0.00000000000E+00 0.  1.
          2   -1    0    0  501    0 -0.00000000000E+00 -0.00000000000E+00 -0.67938119221E+01  0.67938119221E+01  0.00000000000E+00 0. -1.
          2    1    1    2  501    0 -0.16132924899E+02 -0.15363223174E+02  0.55525452185E+02  0.59827884239E+02  0.00000000000E+00 0.  1.
          2    1    1    2  502    0  0.16132924899E+02  0.15363223174E+02  0.22082748245E+02  0.31367940036E+02  0.00000000000E+00 0. -1.
</event>
<event>
 4    1  0.8931296E+003  0.3509557E+02  0.7546771E-02  0.1379893E+00
          2   -1    0    0  501    0  0.00000000000E+00  0.00000000000E+00  0.27998339798E+03  0.27998339798E+03  0.00000000000E+00 0.  1.
          2   -1    0    0  502    0 -0.00000000000E+00 -0.00000000000E+00 -0.12214047655E+04  0.12214047655E+04  0.00000000000E+00 0.  1.
          2    1    1    2  501    0 -0.64450130476E+00 -0.35089650465E+02 -0.12200516426E+04  0.12205563115E+04  0.00000000000E+00 0.  1.
          2    1    1    2  502    0  0.64450130476E+00  0.35089650465E+02  0.27863027502E+03  0.28083185202E+03  0.00000000000E+00 0.  1.
</event>
<event>
 4    1  0.8931296E+003  0.2173263E+02  0.7546771E-02  0.1509057E+00
          2   -1    0    0  501    0  0.00000000000E+00  0.00000000000E+00  0.21588675837E+01  0.21588675837E+01  0.00000000000E+00 0.  1.
          2   -1    0    0  502    0 -0.00000000000E+00 -0.00000000000E+00 -0.30027264247E+03  0.30027264247E+03  0.00000000000E+00 0.  1.
          2    1    1    2  501    0 -0.20743361897E+02  0.64823109180E+01 -0.22783584834E+03  0.22887000940E+03  0.00000000000E+00 0.  1.
          2    1    1    2  502    0  0.20743361897E+02 -0.64823109180E+01 -0.70277926548E+02  0.73561500648E+02  0.00000000000E+00 0.  1.
</event>
<event>
 4    1  0.8931296E+003  0.2648453E+02  0.7546771E-02  0.1452856E+00
          2   -1    0    0  501    0  0.00000000000E+00  0.00000000000E+00  0.24655037790E+02  0.24655037790E+02  0.00000000000E+00 0.  1.
          2   -1    0    0  502    0 -0.00000000000E+00 -0.00000000000E+00 -0.99022120462E+03  0.99022120462E+03  0.00000000000E+00 0.  1.
          2    1    1    2  501    0  0.25836448081E+02  0.58230819510E+01 -0.98287854667E+03  0.98323530645E+03  0.00000000000E+00 0.  1.
          2    1    1    2  502    0 -0.25836448081E+02 -0.58230819510E+01  0.17312379842E+02  0.31640935964E+02  0.00000000000E+00 0.  1.
</event>
<event>
 4    1  0.8931296E+003  0.2357984E+02  0.7546771E-02  0.1485343E+00
          2   -1    0    0  501    0  0.00000000000E+00  0.00000000000E+00  0.48340187631E+00  0.48340187631E+00  0.00000000000E+00 0.  1.
          2   -1    0    0  502    0 -0.00000000000E+00 -0.00000000000E+00 -0.13655952343E+04  0.13655952343E+04  0.00000000000E+00 0.  1.
          2    1    1    2  501    0 -0.24826875670E+01  0.23448772779E+02 -0.95382673450E+03  0.95411815208E+03  0.00000000000E+00 0.  1.
          2    1    1    2  502    0  0.24826875670E+01 -0.23448772779E+02 -0.41128509791E+03  0.41196048408E+03  0.00000000000E+00 0.  1.
</event>
<event>
 4    1  0.8931296E+003  0.2144194E+02  0.7546771E-02  0.1513048E+00
          2   -1    0    0  502    0  0.00000000000E+00  0.00000000000E+00  0.12232207124E+04  0.12232207124E+04  0.00000000000E+00 0.  1.
          2   -1    0    0  501    0 -0.00000000000E+00 -0.00000000000E+00 -0.19102719091E+02  0.19102719091E+02  0.00000000000E+00 0.  1.
          2    1    1    2  501    0  0.60344208948E+01 -0.20575287798E+02  0.12170794886E+04  0.12172683509E+04  0.00000000000E+00 0.  1.
          2    1    1    2  502    0 -0.60344208948E+01  0.20575287798E+02 -0.12961495240E+02  0.25055080570E+02  0.00000000000E+00 0.  1.
</event>
<event>
 4    1  0.8931296E+003  0.2050481E+02  0.7546771E-02  0.1526454E+00
          2   -1    0    0  502    0  0.00000000000E+00  0.00000000000E+00  0.66151007513E+03  0.66151007513E+03  0.00000000000E+00 0.  1.
          2   -1    0    0  501    0 -0.00000000000E+00 -0.00000000000E+00 -0.15302072790E+03  0.15302072790E+03  0.00000000000E+00 0.  1.
          2    1    1    2  501    0  0.14353450516E+01  0.20454511251E+02  0.66066338600E+03  0.66098151022E+03  0.00000000000E+00 0.  1.
          2    1    1    2  502    0 -0.14353450516E+01 -0.20454511251E+02 -0.15217403877E+03  0.15354929281E+03  0.00000000000E+00 0.  1.
</event>
<event>
 4    1  0.8931296E+003  0.2656062E+02  0.7546771E-02  0.1452072E+00
          2   -1    0    0  501    0  0.00000000000E+00  0.00000000000E+00  0.10484637573E+04  0.10484637573E+04  0.00000000000E+00 0. -1.
          2   -1    0    0  502    0 -0.00000000000E+00 -0.00000000000E+00 -0.62666359355E+01  0.62666359355E+01  0.00000000000E+00 0. -1.
          2    1    1    2  501    0 -0.19910472938E+02  0.17579528314E+02  0.22849072448E+02  0.35036364824E+02  0.00000000000E+00 0. -1.
          2    1    1    2  502    0  0.19910472938E+02 -0.17579528314E+02  0.10193480489E+04  0.10196940284E+04  0.00000000000E+00 0. -1.
</event>
<event>
 4    1  0.8931296E+003  0.2250904E+02  0.7546771E-02  0.1498757E+00
          2   -1    0    0  501    0  0.00000000000E+00  0.00000000000E+00  0.31815671677E+03  0.31815671677E+03  0.00000000000E+00 0. -1.
          2   -1    0    0  502    0 -0.00000000000E+00 -0.00000000000E+00 -0.19492333027E+01  0.19492333027E+01  0.00000000000E+00 0. -1.
          2    1    1    2  501    0  0.19380709391E+02  0.11447490917E+02  0.89630914806E+02  0.92414056473E+02  0.00000000000E+00 0. -1.
          2    1    1    2  502    0 -0.19380709391E+02 -0.11447490917E+02  0.22657656866E+03  0.22769189360E+03  0.00000000000E+00 0. -1.
</event>
<event>
 4    1  0.8931296E+003  0.2946072E+02  0.7546771E-02  0.1424341E+00
          2   -1    0    0  501    0  0.00000000000E+00  0.00000000000E+00  0.14957886083E+03  0.14957886083E+03  0.00000000000E+00 0. -1.
          2   -1    0    0  502    0 -0.00000000000E+00 -0.00000000000E+00 -0.15470227833E+03  0.15470227833E+03  0.00000000000E+00 0. -1.
          2    1    1    2  501    0  0.24252129769E+02  0.16726273836E+02 -0.15182179296E+03  0.15465377737E+03  0.00000000000E+00 0. -1.
          2    1    1    2  502    0 -0.24252129769E+02 -0.16726273836E+02  0.14669837546E+03  0.14962736180E+03  0.00000000000E+00 0. -1.
</event>
<event>
 4    1  0.8931296E+003  0.2069499E+02  0.7546771E-02  0.1523664E+00
          2   -1    0    0  502    0  0.00000000000E+00  0.00000000000E+00  0.89668754704E+00  0.89668754704E+00  0.00000000000E+00 0.  1.
          2   -1    0    0  501    0 -0.00000000000E+00 -0.00000000000E+00 -0.60475964322E+03  0.60475964322E+03  0.00000000000E+00 0.  1.
          2    1    1    2  501    0 -0.57945863718E+01  0.19867196274E+02 -0.16308579466E+03  0.16439361040E+03  0.00000000000E+00 0.  1.
          2    1    1    2  502    0  0.57945863718E+01 -0.19867196274E+02 -0.44077716101E+03  0.44126272037E+03  0.00000000000E+00 0.  1.
</event>
<event>
 4    1  0.8931296E+003  0.3029365E+02  0.7546771E-02  0.1417061E+00
          2   -1    0    0  502    0  0.00000000000E+00  0.00000000000E+00  0.13704071176E+01  0.13704071176E+01  0.00000000000E+00 0. -1.
          2   -1    0    0  501    0 -0.00000000000E+00 -0.00000000000E+00 -0.12587142670E+04  0.12587142670E+04  0.00000000000E+00 0.  1.
          2    1    1    2  501    0 -0.12971318027E+02 -0.27376082440E+02 -0.19766494643E+03  0.19997283823E+03  0.00000000000E+00 0. -1.
          2    1    1    2  502    0  0.12971318027E+02  0.27376082440E+02 -0.10596789134E+04  0.10601118358E+04  0.00000000000E+00 0.  1.
</event>
<event>
 4    1  0.8931296E+003  0.2497689E+02  0.7546771E-02  0.1469062E+00
          2   -1    0    0  501    0  0.00000000000E+00  0.00000000000E+00  0.28152250853E+02  0.28152250853E+02  0.00000000000E+00 0.  1.
          2   -1    0    0  502    0 -0.00000000000E+00 -0.00000000000E+00 -0.59554646037E+02  0.59554646037E+02  0.00000000000E+00 0.  1.
          2    1    1    2  501    0  0.46026933669E+01  0.24549139911E+02 -0.50451009589E+02  0.56295198953E+02  0.00000000000E+00 0.  1.
          2    1    1    2  502    0 -0.46026933669E+01 -0.24549139911E+02  0.19048614404E+02  0.31411697938E+02  0.00000000000E+00 0.  1.
</event>
<event>
 4    1  0.8931296E+003  0.4451062E+02  0.7546771E-02  0.1323905E+00
          2   -1    0    0  502    0  0.00000000000E+00  0.00000000000E+00  0.13096779062E+01  0.13096779062E+01  0.00000000000E+00 0.  1.
          2   -1    0    0  501    0 -0.00000000000E+00 -0.00000000000E+00 -0.23279377029E+04  0.23279377029E+04  0.00000000000E+00 0.  1.
          2    1    1    2  501    0 -0.44120589319E+02  0.58795016326E+01 -0.47413366608E+03  0.47621836194E+03  0.00000000000E+00 0.  1.
          2    1    1    2  502    0  0.44120589319E+02 -0.58795016326E+01 -0.18524943589E+04  0.18530290188E+04  0.00000000000E+00 0.  1.
</event>
