<event>
 4    1  0.6935156E+001  0.2005393E+02  0.7546771E-02  0.1533213E+00
          2   -1    0    0  502    0  0.00000000000E+00  0.00000000000E+00  0.56996410129E+03  0.56996410129E+03  0.00000000000E+00 0. -1.
         -2   -1    0    0    0  501 -0.00000000000E+00 -0.00000000000E+00 -0.70558936244E+00  0.70558936244E+00  0.00000000000E+00 0.  1.
          1    1    1    2  502    0  0.19811447715E+02  0.31091527255E+01  0.28488203426E+03  0.28558699854E+03  0.00000000000E+00 0. -1.
         -1    1    1    2    0  501 -0.19811447715E+02 -0.31091527255E+01  0.28437647767E+03  0.28508269211E+03  0.00000000000E+00 0.  1.
</event>
<event>
 4    1  0.6935156E+001  0.2308795E+02  0.7546771E-02  0.1491397E+00
          2   -1    0    0  502    0  0.00000000000E+00  0.00000000000E+00  0.10635798045E+03  0.10635798045E+03  0.00000000000E+00 0. -1.
         -2   -1    0    0    0  501 -0.00000000000E+00 -0.00000000000E+00 -0.53565584359E+01  0.53565584359E+01  0.00000000000E+00 0.  1.
          1    1    1    2  502    0  0.12729116814E+02  0.19261959590E+02  0.36331572762E+02  0.43046912566E+02  0.00000000000E+00 0.  1.
         -1    1    1    2    0  501 -0.12729116814E+02 -0.19261959590E+02  0.64669849251E+02  0.68667626319E+02  0.00000000000E+00 0. -1.
</event>
<event>
 4    1  0.6935156E+001  0.2619020E+02  0.7546771E-02  0.1455917E+00
          2   -1    0    0  502    0  0.00000000000E+00  0.00000000000E+00  0.53425997086E+02  0.53425997086E+02  0.00000000000E+00 0. -1.
         -2   -1    0    0    0  501 -0.00000000000E+00 -0.00000000000E+00 -0.16719747429E+02  0.16719747429E+02  0.00000000000E+00 0.  1.
          1    1    1    2  502    0  0.37966072164E+01  0.25913559058E+02  0.35250693811E+02  0.43915124770E+02  0.00000000000E+00 0. -1.
         -1    1    1    2    0  501 -0.37966072164E+01 -0.25913559058E+02  0.14555558454E+01  0.26230619745E+02  0.00000000000E+00 0.  1.
</event>
<event>
 4    1  0.6935156E+001  0.2093003E+02  0.7546771E-02  0.1520266E+00
          2   -1    0    0  502    0  0.00000000000E+00  0.00000000000E+00  0.19405345769E+03  0.19405345769E+03  0.00000000000E+00 0.  1.
         -2   -1    0    0    0  501 -0.00000000000E+00 -0.00000000000E+00 -0.29550673198E+01  0.29550673198E+01  0.00000000000E+00 0. -1.
          1    1    1    2  502    0  0.20928541463E+02  0.24984051810E+00  0.14340994479E+03  0.14492921905E+03  0.00000000000E+00 0.  1.
         -1    1    1    2    0  501 -0.20928541463E+02 -0.24984051810E+00  0.47688445582E+02  0.52079305968E+02  0.00000000000E+00 0. -1.
</event>
<event>
 4    1  0.6935156E+001  0.2555827E+02  0.7546771E-02  0.1462654E+00
          2   -1    0    0  502    0  0.00000000000E+00  0.00000000000E+00  0.16593518481E+04  0.16593518481E+04  0.00000000000E+00 0. -1.
         -2   -1    0    0    0  501 -0.00000000000E+00 -0.00000000000E+00 -0.49093570031E+00  0.49093570031E+00  0.00000000000E+00 0.  1.
          1    1    1    2  502    0 -0.25458717641E+01 -0.25431151512E+02  0.11988507977E+04  0.11991232047E+04  0.00000000000E+00 0. -1.
         -1    1    1    2    0  501  0.25458717641E+01  0.25431151512E+02  0.46001011470E+03  0.46071957909E+03  0.00000000000E+00 0.  1.
</event>
<event>
 4    1  0.6935156E+001  0.5819693E+02  0.7546771E-02  0.1266085E+00
          2   -1    0    0  502    0  0.00000000000E+00  0.00000000000E+00  0.77923862891E+01  0.77923862891E+01  0.00000000000E+00 0.  1.
         -2   -1    0    0    0  501 -0.00000000000E+00 -0.00000000000E+00 -0.46318714623E+03  0.46318714623E+03  0.00000000000E+00 0. -1.
          1    1    1    2  502    0  0.41875233076E+02  0.40414688591E+02 -0.16923510614E+03  0.17896201650E+03  0.00000000000E+00 0.  1.
         -1    1    1    2    0  501 -0.41875233076E+02 -0.40414688591E+02 -0.28615965380E+03  0.29201751602E+03  0.00000000000E+00 0. -1.
</event>
<event>
 4    1  0.6935156E+001  0.2043648E+02  0.7546771E-02  0.1527465E+00
          2   -1    0    0  502    0  0.00000000000E+00  0.00000000000E+00  0.12859209071E+02  0.12859209071E+02  0.00000000000E+00 0. -1.
         -2   -1    0    0    0  501 -0.00000000000E+00 -0.00000000000E+00 -0.80242616209E+02  0.80242616209E+02  0.00000000000E+00 0.  1.
          1    1    1    2  502    0 -0.14157707311E+02 -0.14738017928E+02  0.22232919388E+01  0.20557063890E+02  0.00000000000E+00 0. -1.
         -1    1    1    2    0  501  0.14157707311E+02  0.14738017928E+02 -0.69606699077E+02  0.72544761390E+02  0.00000000000E+00 0.  1.
</event>
<event>
 4    1  0.6935156E+001  0.2104666E+02  0.7546771E-02  0.1518600E+00
          2   -1    0    0  502    0  0.00000000000E+00  0.00000000000E+00  0.55639738874E+01  0.55639738874E+01  0.00000000000E+00 0. -1.
         -2   -1    0    0    0  501 -0.00000000000E+00 -0.00000000000E+00 -0.97660119165E+02  0.97660119165E+02  0.00000000000E+00 0.  1.
          1    1    1    2  502    0  0.14821773569E+02 -0.14942450566E+02 -0.23860869144E+02  0.31816707513E+02  0.00000000000E+00 0. -1.
         -1    1    1    2    0  501 -0.14821773569E+02  0.14942450566E+02 -0.68235276134E+02  0.71407385540E+02  0.00000000000E+00 0.  1.
</event>
<event>
 4    1  0.6935156E+001  0.4390823E+02  0.7546771E-02  0.1326990E+00
          2   -1    0    0  502    0  0.00000000000E+00  0.00000000000E+00  0.67457296043E+02  0.67457296043E+02  0.00000000000E+00 0. -1.
         -2   -1    0    0    0  501 -0.00000000000E+00 -0.00000000000E+00 -0.31206236415E+02  0.31206236415E+02  0.00000000000E+00 0.  1.
          1    1    1    2  502    0  0.39789021633E+02 -0.18567892886E+02  0.38145704345E+01  0.44073618372E+02  0.00000000000E+00 0.  1.
         -1    1    1    2    0  501 -0.39789021633E+02  0.18567892886E+02  0.32436489193E+02  0.54589914086E+02  0.00000000000E+00 0. -1.
</event>
<event>
 4    1  0.6935156E+001  0.3319492E+02  0.7546771E-02  0.1393718E+00
          2   -1    0    0  502    0  0.00000000000E+00  0.00000000000E+00  0.26830127867E+01  0.26830127867E+01  0.00000000000E+00 0. -1.
         -2   -1    0    0    0  501 -0.00000000000E+00 -0.00000000000E+00 -0.41175847162E+03  0.41175847162E+03  0.00000000000E+00 0.  1.
          1    1    1    2  502    0 -0.31548596821E+02  0.10324166835E+02 -0.21506434331E+03  0.21761106164E+03  0.00000000000E+00 0. -1.
         -1    1    1    2    0  501  0.31548596821E+02 -0.10324166835E+02 -0.19401111552E+03  0.19683042277E+03  0.00000000000E+00 0.  1.
</event>
<event>
 4    1  0.6935156E+001  0.2309705E+02  0.7546771E-02  0.1491283E+00
          2   -1    0    0  502    0  0.00000000000E+00  0.00000000000E+00  0.10538236338E+04  0.10538236338E+04  0.00000000000E+00 0.  1.
         -2   -1    0    0    0  501 -0.00000000000E+00 -0.00000000000E+00 -0.55318096664E+00  0.55318096664E+00  0.00000000000E+00 0. -1.
          1    1    1    2  502    0  0.16789282963E+02 -0.15861700062E+02  0.37304264212E+03  0.37375698842E+03  0.00000000000E+00 0. -1.
         -1    1    1    2    0  501 -0.16789282963E+02  0.15861700062E+02  0.68022781071E+03  0.68061982634E+03  0.00000000000E+00 0.  1.
</event>
<event>
 4    1  0.6935156E+001  0.2822185E+02  0.7546771E-02  0.1435706E+00
          2   -1    0    0  502    0  0.00000000000E+00  0.00000000000E+00  0.36440822620E+03  0.36440822620E+03  0.00000000000E+00 0. -1.
         -2   -1    0    0    0  501 -0.00000000000E+00 -0.00000000000E+00 -0.28924017277E+01  0.28924017277E+01  0.00000000000E+00 0.  1.
          1    1    1    2  502    0  0.20915826707E+02  0.18947326290E+02  0.89977465180E+02  0.94299614106E+02  0.00000000000E+00 0.  1.
         -1    1    1    2    0  501 -0.20915826707E+02 -0.18947326290E+02  0.27153835929E+03  0.27300101382E+03  0.00000000000E+00 0. -1.
</event>
<event>
 4    1  0.6935156E+001  0.2563156E+02  0.7546771E-02  0.1461861E+00
          2   -1    0    0  502    0  0.00000000000E+00  0.00000000000E+00  0.16375830743E+04  0.16375830743E+04  0.00000000000E+00 0.  1.
         -2   -1    0    0    0  501 -0.00000000000E+00 -0.00000000000E+00 -0.74677038212E+00  0.74677038212E+00  0.00000000000E+00 0. -1.
          1    1    1    2  502    0  0.20379703749E+02  0.15544926892E+02  0.13756734626E+04  0.13759122257E+04  0.00000000000E+00 0.  1.
         -1    1    1    2    0  501 -0.20379703749E+02 -0.15544926892E+02  0.26116284133E+03  0.26241761901E+03  0.00000000000E+00 0. -1.
</event>
<event>
 4    1  0.6935156E+001  0.7209391E+02  0.7546771E-02  0.1223496E+00
          2   -1    0    0  502    0  0.00000000000E+00  0.00000000000E+00  0.58203847570E+02  0.58203847570E+02  0.00000000000E+00 0.  1.
         -2   -1    0    0    0  501 -0.00000000000E+00 -0.00000000000E+00 -0.10963412626E+03  0.10963412626E+03  0.00000000000E+00 0. -1.
          1    1    1    2  502    0  0.19266914236E+01  0.72068160595E+02 -0.61857229159E+02  0.94993940389E+02  0.00000000000E+00 0. -1.
         -1    1    1    2    0  501 -0.19266914236E+01 -0.72068160595E+02  0.10426950472E+02  0.72844033438E+02  0.00000000000E+00 0.  1.
</event>
<event>
 4    1  0.6935156E+001  0.3308612E+02  0.7546771E-02  0.1394542E+00
          2   -1    0    0  502    0  0.00000000000E+00  0.00000000000E+00  0.18410921304E+04  0.18410921304E+04  0.00000000000E+00 0.  1.
         -2   -1    0    0    0  501 -0.00000000000E+00 -0.00000000000E+00 -0.59463841092E+00  0.59463841092E+00  0.00000000000E+00 0. -1.
          1    1    1    2  502    0 -0.28181767932E+02 -0.17334341267E+02  0.92872074940E+03  0.92930991698E+03  0.00000000000E+00 0. -1.
         -1    1    1    2    0  501  0.28181767932E+02  0.17334341267E+02  0.91177674261E+03  0.91237685185E+03  0.00000000000E+00 0.  1.
</event>
<event>
 4    1  0.6935156E+001  0.7456166E+02  0.7546771E-02  0.1217069E+00
          2   -1    0    0  502    0  0.00000000000E+00  0.00000000000E+00  0.44211298430E+03  0.44211298430E+03  0.00000000000E+00 0. -1.
         -2   -1    0    0    0  501 -0.00000000000E+00 -0.00000000000E+00 -0.24917710770E+02  0.24917710770E+02  0.00000000000E+00 0.  1.
          1    1    1    2  502    0 -0.11908188389E+02  0.73604598334E+02  0.37294841532E+03  0.38032875560E+03  0.00000000000E+00 0. -1.
         -1    1    1    2    0  501  0.11908188389E+02 -0.73604598334E+02  0.44246858213E+02  0.86701939473E+02  0.00000000000E+00 0.  1.
</event>
<event>
 4    1  0.6935156E+001  0.2259763E+02  0.7546771E-02  0.1497613E+00
          2   -1    0    0  502    0  0.00000000000E+00  0.00000000000E+00  0.12487277213E+02  0.12487277213E+02  0.00000000000E+00 0.  1.
         -2   -1    0    0    0  501 -0.00000000000E+00 -0.00000000000E+00 -0.13090135709E+03  0.13090135709E+03  0.00000000000E+00 0. -1.
          1    1    1    2  502    0 -0.16010029782E+02 -0.15947788803E+02  0.24297800917E+00  0.22598939348E+02  0.00000000000E+00 0.  1.
         -1    1    1    2    0  501  0.16010029782E+02  0.15947788803E+02 -0.11865705789E+03  0.12078969496E+03  0.00000000000E+00 0. -1.
</event>
<event>
 4    1  0.6935156E+001  0.2158648E+02  0.7546771E-02  0.1511054E+00
          2   -1    0    0  502    0  0.00000000000E+00  0.00000000000E+00  0.57077328231E+03  0.57077328231E+03  0.00000000000E+00 0.  1.
         -2   -1    0    0    0  501 -0.00000000000E+00 -0.00000000000E+00 -0.10322318383E+01  0.10322318383E+01  0.00000000000E+00 0. -1.
          1    1    1    2  502    0 -0.36441406258E+01  0.21276657740E+02  0.41560599591E+03  0.41616621650E+03  0.00000000000E+00 0.  1.
         -1    1    1    2    0  501  0.36441406258E+01 -0.21276657740E+02  0.15413505456E+03  0.15563929764E+03  0.00000000000E+00 0. -1.
</event>
<event>
 4    1  0.6935156E+001  0.2064165E+02  0.7546771E-02  0.1524443E+00
          2   -1    0    0  502    0  0.00000000000E+00  0.00000000000E+00  0.16594870217E+04  0.16594870217E+04  0.00000000000E+00 0.  1.
         -2   -1    0    0    0  501 -0.00000000000E+00 -0.00000000000E+00 -0.33865402398E+00  0.33865402398E+00  0.00000000000E+00 0. -1.
          1    1    1    2  502    0  0.10381510204E+02  0.17841023155E+02  0.42144308988E+03  0.42194828577E+03  0.00000000000E+00 0.  1.
         -1    1    1    2    0  501 -0.10381510204E+02 -0.17841023155E+02  0.12377052778E+04  0.12378773900E+04  0.00000000000E+00 0. -1.
</event>
<event>
 4    1  0.6935156E+001  0.2365808E+02  0.7546771E-02  0.1484396E+00
          2   -1    0    0  502    0  0.00000000000E+00  0.00000000000E+00  0.78535495659E+01  0.78535495659E+01  0.00000000000E+00 0.  1.
         -2   -1    0    0    0  501 -0.00000000000E+00 -0.00000000000E+00 -0.72547003418E+02  0.72547003418E+02  0.00000000000E+00 0. -1.
          1    1    1    2  502    0 -0.11758737781E+02  0.20528926542E+02 -0.37684978807E+02  0.44495644358E+02  0.00000000000E+00 0. -1.
         -1    1    1    2    0  501  0.11758737781E+02 -0.20528926542E+02 -0.27008475045E+02  0.35904908625E+02  0.00000000000E+00 0.  1.
</event>
<event>
 4    1  0.6935156E+001  0.3941166E+02  0.7546771E-02  0.1351968E+00
          2   -1    0    0  502    0  0.00000000000E+00  0.00000000000E+00  0.20258690058E+03  0.20258690058E+03  0.00000000000E+00 0.  1.
         -2   -1    0    0    0  501 -0.00000000000E+00 -0.00000000000E+00 -0.16441170205E+02  0.16441170205E+02  0.00000000000E+00 0. -1.
          1    1    1    2  502    0  0.28116695350E+02 -0.27617579132E+02  0.17307487406E+03  0.17750546827E+03  0.00000000000E+00 0.  1.
         -1    1    1    2    0  501 -0.28116695350E+02  0.27617579132E+02  0.13070856309E+02  0.41522602510E+02  0.00000000000E+00 0. -1.
</event>
<event>
 4    1  0.6935156E+001  0.2044439E+02  0.7546771E-02  0.1527347E+00
          2   -1    0    0  502    0  0.00000000000E+00  0.00000000000E+00  0.20541312742E+04  0.20541312742E+04  0.00000000000E+00 0. -1.
         -2   -1    0    0    0  501 -0.00000000000E+00 -0.00000000000E+00 -0.25420850618E+00  0.25420850618E+00  0.00000000000E+00 0.  1.
          1    1    1    2  502    0  0.19325699630E+02  0.66701082125E+01  0.56807206830E+03  0.56843983656E+03  0.00000000000E+00 0.  1.
         -1    1    1    2    0  501 -0.19325699630E+02 -0.66701082125E+01  0.14858049974E+04  0.14859456461E+04  0.00000000000E+00 0. -1.
</event>
<event>
 4    1  0.6935156E+001  0.2195842E+02  0.7546771E-02  0.1506008E+00
          2   -1    0    0  502    0  0.00000000000E+00  0.00000000000E+00  0.87261481669E+03  0.87261481669E+03  0.00000000000E+00 0. -1.
         -2   -1    0    0    0  501 -0.00000000000E+00 -0.00000000000E+00 -0.55281583574E+00  0.55281583574E+00  0.00000000000E+00 0.  1.
          1    1    1    2  502    0  0.16375405894E+02  0.14629369168E+02  0.44541632131E+03  0.44595725317E+03  0.00000000000E+00 0.  1.
         -1    1    1    2    0  501 -0.16375405894E+02 -0.14629369168E+02  0.42664567954E+03  0.42721037935E+03  0.00000000000E+00 0. -1.
</event>
<event>
 4    1  0.6935156E+001  0.2120095E+02  0.7546771E-02  0.1516415E+00
          2   -1    0    0  502    0  0.00000000000E+00  0.00000000000E+00  0.21196487086E+03  0.21196487086E+03  0.00000000000E+00 0. -1.
         -2   -1    0    0    0  501 -0.00000000000E+00 -0.00000000000E+00 -0.21442202000E+01  0.21442202000E+01  0.00000000000E+00 0.  1.
          1    1    1    2  502    0  0.99248234437E+01 -0.18734406447E+02  0.93660183503E+02  0.96029735390E+02  0.00000000000E+00 0.  1.
         -1    1    1    2    0  501 -0.99248234437E+01  0.18734406447E+02  0.11616046716E+03  0.11807935567E+03  0.00000000000E+00 0. -1.
</event>
<event>
 4    1  0.6935156E+001  0.2407025E+02  0.7546771E-02  0.1479479E+00
          2   -1    0    0  502    0  0.00000000000E+00  0.00000000000E+00  0.30277868220E+03  0.30277868220E+03  0.00000000000E+00 0.  1.
         -2   -1    0    0    0  501 -0.00000000000E+00 -0.00000000000E+00 -0.22564903033E+01  0.22564903033E+01  0.00000000000E+00 0. -1.
          1    1    1    2  502    0 -0.23743740253E+02  0.39511530183E+01  0.20972091868E+03  0.21109770379E+03  0.00000000000E+00 0.  1.
         -1    1    1    2    0  501  0.23743740253E+02 -0.39511530183E+01  0.90801273213E+02  0.93937468714E+02  0.00000000000E+00 0. -1.
</event>
<event>
 4    1  0.6935156E+001  0.3221808E+02  0.7546771E-02  0.1401252E+00
          2   -1    0    0  502    0  0.00000000000E+00  0.00000000000E+00  0.22958077292E+04  0.22958077292E+04  0.00000000000E+00 0. -1.
         -2   -1    0    0    0  501 -0.00000000000E+00 -0.00000000000E+00 -0.68873995999E+00  0.68873995999E+00  0.00000000000E+00 0.  1.
          1    1    1    2  502    0  0.94411068837E+01 -0.30803739323E+02  0.47454543882E+03  0.47563786473E+03  0.00000000000E+00 0.  1.
         -1    1    1    2    0  501 -0.94411068837E+01  0.30803739323E+02  0.18205735504E+04  0.18208586044E+04  0.00000000000E+00 0. -1.
</event>
<event>
 4    1  0.6935156E+001  0.2384425E+02  0.7546771E-02  0.1482160E+00
          2   -1    0    0  502    0  0.00000000000E+00  0.00000000000E+00  0.75561503928E+01  0.75561503928E+01  0.00000000000E+00 0.  1.
         -2   -1    0    0    0  501 -0.00000000000E+00 -0.00000000000E+00 -0.76810386440E+02  0.76810386440E+02  0.00000000000E+00 0. -1.
          1    1    1    2  502    0 -0.12193615438E+02  0.20490584417E+02 -0.28601493026E+02  0.37236993844E+02  0.00000000000E+00 0.  1.
         -1    1    1    2    0  501  0.12193615438E+02 -0.20490584417E+02 -0.40652743021E+02  0.47129542989E+02  0.00000000000E+00 0. -1.
</event>
<event>
 4    1  0.6935156E+001  0.2060052E+02  0.7546771E-02  0.1525045E+00
          2   -1    0    0  502    0  0.00000000000E+00  0.00000000000E+00  0.41383507724E+03  0.41383507724E+03  0.00000000000E+00 0. -1.
         -2   -1    0    0    0  501 -0.00000000000E+00 -0.00000000000E+00 -0.10307725023E+01  0.10307725023E+01  0.00000000000E+00 0.  1.
          1    1    1    2  502    0  0.10767859181E+02 -0.17562311231E+02  0.22125915489E+03  0.22221610020E+03  0.00000000000E+00 0.  1.
         -1    1    1    2    0  501 -0.10767859181E+02  0.17562311231E+02  0.19154514985E+03  0.19264974954E+03  0.00000000000E+00 0. -1.
</event>
<event>
 4    1  0.6935156E+001  0.3460460E+02  0.7546771E-02  0.1383364E+00
          2   -1    0    0  502    0  0.00000000000E+00  0.00000000000E+00  0.22785727557E+03  0.22785727557E+03  0.00000000000E+00 0.  1.
         -2   -1    0    0    0  501 -0.00000000000E+00 -0.00000000000E+00 -0.52619858954E+01  0.52619858954E+01  0.00000000000E+00 0. -1.
          1    1    1    2  502    0  0.85824465915E+00  0.34593959900E+02  0.10717059817E+03  0.11261889609E+03  0.00000000000E+00 0. -1.
         -1    1    1    2    0  501 -0.85824465915E+00 -0.34593959900E+02  0.11542469151E+03  0.12050036537E+03  0.00000000000E+00 0.  1.
</event>
<event>
 4    1  0.6935156E+001  0.2032681E+02  0.7546771E-02  0.1529097E+00
          2   -1    0    0  502    0  0.00000000000E+00  0.00000000000E+00  0.55140661193E+03  0.55140661193E+03  0.00000000000E+00 0. -1.
         -2   -1    0    0    0  501 -0.00000000000E+00 -0.00000000000E+00 -0.82012081851E+00  0.82012081851E+00  0.00000000000E+00 0.  1.
          1    1    1    2  502    0  0.41393210496E+01 -0.19900884892E+02  0.35642149872E+03  0.35700064979E+03  0.00000000000E+00 0.  1.
         -1    1    1    2    0  501 -0.41393210496E+01  0.19900884892E+02  0.19416499239E+03  0.19522608296E+03  0.00000000000E+00 0. -1.
</event>
<event>
 4    1  0.6935156E+001  0.2139297E+02  0.7546771E-02  0.1513728E+00
          2   -1    0    0  502    0  0.00000000000E+00  0.00000000000E+00  0.30769924575E+02  0.30769924575E+02  0.00000000000E+00 0.  1.
         -2   -1    0    0    0  501 -0.00000000000E+00 -0.00000000000E+00 -0.21692920950E+02  0.21692920950E+02  0.00000000000E+00 0. -1.
          1    1    1    2  502    0 -0.12596637058E+02  0.17291157042E+02  0.19245822924E+02  0.28776050407E+02  0.00000000000E+00 0.  1.
         -1    1    1    2    0  501  0.12596637058E+02 -0.17291157042E+02 -0.10168819299E+02  0.23686795118E+02  0.00000000000E+00 0. -1.
</event>
<event>
 4    1  0.6935156E+001  0.2157147E+02  0.7546771E-02  0.1511260E+00
          2   -1    0    0  502    0  0.00000000000E+00  0.00000000000E+00  0.77760380093E+03  0.77760380093E+03  0.00000000000E+00 0. -1.
         -2   -1    0    0    0  501 -0.00000000000E+00 -0.00000000000E+00 -0.69024990524E+00  0.69024990524E+00  0.00000000000E+00 0.  1.
          1    1    1    2  502    0  0.74862424137E+01 -0.20230780893E+02  0.53040137063E+03  0.53083984618E+03  0.00000000000E+00 0. -1.
         -1    1    1    2    0  501 -0.74862424137E+01  0.20230780893E+02  0.24651218039E+03  0.24745420466E+03  0.00000000000E+00 0.  1.
</event>
<event>
 4    1  0.6935156E+001  0.2195480E+02  0.7546771E-02  0.1506057E+00
          2   -1    0    0  502    0  0.00000000000E+00  0.00000000000E+00  0.10987924701E+03  0.10987924701E+03  0.00000000000E+00 0.  1.
         -2   -1    0    0    0  501 -0.00000000000E+00 -0.00000000000E+00 -0.44212280224E+01  0.44212280224E+01  0.00000000000E+00 0. -1.
          1    1    1    2  502    0  0.95541740239E+01 -0.19766915420E+02  0.57775562568E+02  0.61806381682E+02  0.00000000000E+00 0.  1.
         -1    1    1    2    0  501 -0.95541740239E+01  0.19766915420E+02  0.47682456418E+02  0.52494093349E+02  0.00000000000E+00 0. -1.
</event>
<event>
 4    1  0.6935156E+001  0.2158636E+02  0.7546771E-02  0.1511055E+00
          2   -1    0    0  502    0  0.00000000000E+00  0.00000000000E+00  0.77865807860E+01  0.77865807860E+01  0.00000000000E+00 0.  1.
         -2   -1    0    0    0  501 -0.00000000000E+00 -0.00000000000E+00 -0.20501881843E+03  0.20501881843E+03  0.00000000000E+00 0. -1.
          1    1    1    2  502    0 -0.74426148191E+01  0.20262738563E+02 -0.18815324855E+03  0.18938747590E+03  0.00000000000E+00 0. -1.
         -1    1    1    2    0  501  0.74426148191E+01 -0.20262738563E+02 -0.90789890990E+01  0.23417923317E+02  0.00000000000E+00 0.  1.
</event>
<event>
 4    1  0.6935156E+001  0.3446353E+02  0.7546771E-02  0.1384374E+00
          2   -1    0    0  502    0  0.00000000000E+00  0.00000000000E+00  0.49815794885E+02  0.49815794885E+02  0.00000000000E+00 0.  1.
         -2   -1    0    0    0  501 -0.00000000000E+00 -0.00000000000E+00 -0.26955347405E+02  0.26955347405E+02  0.00000000000E+00 0. -1.
          1    1    1    2  502    0 -0.31037438400E+02  0.14980393548E+02  0.24474563381E+02  0.42269835888E+02  0.00000000000E+00 0.  1.
         -1    1    1    2    0  501  0.31037438400E+02 -0.14980393548E+02 -0.16141159012E+01  0.34501306402E+02  0.00000000000E+00 0. -1.
</event>
<event>
 4    1  0.6935156E+001  0.2112691E+02  0.7546771E-02  0.1517461E+00
          2   -1    0    0  502    0  0.00000000000E+00  0.00000000000E+00  0.16829046313E+04  0.16829046313E+04  0.00000000000E+00 0.  1.
         -2   -1    0    0    0  501 -0.00000000000E+00 -0.00000000000E+00 -0.28389793239E+00  0.28389793239E+00  0.00000000000E+00 0. -1.
          1    1    1    2  502    0  0.17158337848E+02  0.12326295930E+02  0.62546463045E+03  0.62582134038E+03  0.00000000000E+00 0. -1.
         -1    1    1    2    0  501 -0.17158337848E+02 -0.12326295930E+02  0.10571561030E+04  0.10573671889E+04  0.00000000000E+00 0.  1.
</event>
<event>
 4    1  0.6935156E+001  0.3396575E+02  0.7546771E-02  0.1387984E+00
          2   -1    0    0  502    0  0.00000000000E+00  0.00000000000E+00  0.34732988654E+02  0.34732988654E+02  0.00000000000E+00 0. -1.
         -2   -1    0    0    0  501 -0.00000000000E+00 -0.00000000000E+00 -0.40054498657E+02  0.40054498657E+02  0.00000000000E+00 0.  1.
          1    1    1    2  502    0 -0.15738084138E+02 -0.30099587149E+02  0.12790743462E+02  0.36294290972E+02  0.00000000000E+00 0. -1.
         -1    1    1    2    0  501  0.15738084138E+02  0.30099587149E+02 -0.18112253464E+02  0.38493196339E+02  0.00000000000E+00 0.  1.
</event>
<event>
 4    1  0.6935156E+001  0.3924511E+02  0.7546771E-02  0.1352967E+00
          2   -1    0    0  502    0  0.00000000000E+00  0.00000000000E+00  0.15630212870E+04  0.15630212870E+04  0.00000000000E+00 0. -1.
         -2   -1    0    0    0  501 -0.00000000000E+00 -0.00000000000E+00 -0.10094728748E+01  0.10094728748E+01  0.00000000000E+00 0.  1.
          1    1    1    2  502    0  0.34874862036E+01  0.39089841844E+02  0.66020673582E+03  0.66137214359E+03  0.00000000000E+00 0. -1.
         -1    1    1    2    0  501 -0.34874862036E+01 -0.39089841844E+02  0.90180507834E+03  0.90265861632E+03  0.00000000000E+00 0.  1.
</event>
<event>
 4    1  0.6935156E+001  0.2670538E+02  0.7546771E-02  0.1450590E+00
          2   -1    0    0  502    0  0.00000000000E+00  0.00000000000E+00  0.19359001696E+04  0.19359001696E+04  0.00000000000E+00 0.  1.
         -2   -1    0    0    0  501 -0.00000000000E+00 -0.00000000000E+00 -0.36853390248E+00  0.36853390248E+00  0.00000000000E+00 0. -1.
          1    1    1    2  502    0  0.73859689710E+01  0.25663682628E+02  0.98651922254E+03  0.98688061769E+03  0.00000000000E+00 0.  1.
         -1    1    1    2    0  501 -0.73859689710E+01 -0.25663682628E+02  0.94901241317E+03  0.94938808582E+03  0.00000000000E+00 0. -1.
</event>
<event>
 4    1  0.6935156E+001  0.2241566E+02  0.7546771E-02  0.1499969E+00
          2   -1    0    0  502    0  0.00000000000E+00  0.00000000000E+00  0.58057017190E+03  0.58057017190E+03  0.00000000000E+00 0.  1.
         -2   -1    0    0    0  501 -0.00000000000E+00 -0.00000000000E+00 -0.10616464726E+01  0.10616464726E+01  0.00000000000E+00 0. -1.
          1    1    1    2  502    0 -0.94764313027E+01  0.20314013758E+02  0.16473999102E+03  0.16625801197E+03  0.00000000000E+00 0. -1.
         -1    1    1    2    0  501  0.94764313027E+01 -0.20314013758E+02  0.41476853441E+03  0.41537380640E+03  0.00000000000E+00 0.  1.
</event>
<event>
 4    1  0.6935156E+001  0.2197158E+02  0.7546771E-02  0.1505832E+00
          2   -1    0    0  502    0  0.00000000000E+00  0.00000000000E+00  0.12249806506E+04  0.12249806506E+04  0.00000000000E+00 0. -1.
         -2   -1    0    0    0  501 -0.00000000000E+00 -0.00000000000E+00 -0.40306651542E+00  0.40306651542E+00  0.00000000000E+00 0.  1.
          1    1    1    2  502    0  0.19389451778E+02 -0.10334378419E+02  0.52084480195E+03  0.52130802596E+03  0.00000000000E+00 0.  1.
         -1    1    1    2    0  501 -0.19389451778E+02  0.10334378419E+02  0.70373278209E+03  0.70407569111E+03  0.00000000000E+00 0. -1.
</event>
<event>
 4    1  0.6935156E+001  0.2045464E+02  0.7546771E-02  0.1527196E+00
          2   -1    0    0  502    0  0.00000000000E+00  0.00000000000E+00  0.72371721612E+03  0.72371721612E+03  0.00000000000E+00 0. -1.
         -2   -1    0    0    0  501 -0.00000000000E+00 -0.00000000000E+00 -0.58799663179E+00  0.58799663179E+00  0.00000000000E+00 0.  1.
          1    1    1    2  502    0 -0.18915003262E+02  0.77855513226E+01  0.31461770016E+03  0.31528192052E+03  0.00000000000E+00 0.  1.
         -1    1    1    2    0  501  0.18915003262E+02 -0.77855513226E+01  0.40851151933E+03  0.40902329222E+03  0.00000000000E+00 0. -1.
</event>
<event>
 4    1  0.6935156E+001  0.2259370E+02  0.7546771E-02  0.1497664E+00
          2   -1    0    0  502    0  0.00000000000E+00  0.00000000000E+00  0.10971335247E+03  0.10971335247E+03  0.00000000000E+00 0.  1.
         -2   -1    0    0    0  501 -0.00000000000E+00 -0.00000000000E+00 -0.54388663770E+01  0.54388663770E+01  0.00000000000E+00 0. -1.
          1    1    1    2  502    0 -0.22489516480E+02 -0.21672415267E+01  0.30248782885E+02  0.37755319537E+02  0.00000000000E+00 0.  1.
         -1    1    1    2    0  501  0.22489516480E+02  0.21672415267E+01  0.74025703206E+02  0.77396899308E+02  0.00000000000E+00 0. -1.
</event>
<event>
 4    1  0.6935156E+001  0.2341436E+02  0.7546771E-02  0.1487360E+00
          2   -1    0    0  502    0  0.00000000000E+00  0.00000000000E+00  0.13466604968E+04  0.13466604968E+04  0.00000000000E+00 0.  1.
         -2   -1    0    0    0  501 -0.00000000000E+00 -0.00000000000E+00 -0.47081869442E+00  0.47081869442E+00  0.00000000000E+00 0. -1.
          1    1    1    2  502    0  0.21091376958E+02 -0.10167899161E+02  0.92087649012E+03  0.92117411080E+03  0.00000000000E+00 0.  1.
         -1    1    1    2    0  501 -0.21091376958E+02  0.10167899161E+02  0.42531318800E+03  0.42595720471E+03  0.00000000000E+00 0. -1.
</event>
<event>
 4    1  0.6935156E+001  0.3706705E+02  0.7546771E-02  0.1366586E+00
          2   -1    0    0  502    0  0.00000000000E+00  0.00000000000E+00  0.79042260902E+02  0.79042260902E+02  0.00000000000E+00 0. -1.
         -2   -1    0    0    0  501 -0.00000000000E+00 -0.00000000000E+00 -0.26765897267E+02  0.26765897267E+02  0.00000000000E+00 0.  1.
          1    1    1    2  502    0 -0.32571626025E+02  0.17693372071E+02 -0.51855984154E+01  0.37428019826E+02  0.00000000000E+00 0.  1.
         -1    1    1    2    0  501  0.32571626025E+02 -0.17693372071E+02  0.57461962051E+02  0.68380138343E+02  0.00000000000E+00 0. -1.
</event>
<event>
 4    1  0.6935156E+001  0.3792618E+02  0.7546771E-02  0.1361086E+00
          2   -1    0    0  502    0  0.00000000000E+00  0.00000000000E+00  0.27518799531E+02  0.27518799531E+02  0.00000000000E+00 0. -1.
         -2   -1    0    0    0  501 -0.00000000000E+00 -0.00000000000E+00 -0.56447141169E+02  0.56447141169E+02  0.00000000000E+00 0.  1.
          1    1    1    2  502    0 -0.24032201659E+02  0.29340224503E+02 -0.25885449657E+02  0.45917883166E+02  0.00000000000E+00 0. -1.
         -1    1    1    2    0  501  0.24032201659E+02 -0.29340224503E+02 -0.30428919815E+01  0.38048057534E+02  0.00000000000E+00 0.  1.
</event>
<event>
 4    1  0.6935156E+001  0.2753470E+02  0.7546771E-02  0.1442310E+00
          2   -1    0    0  502    0  0.00000000000E+00  0.00000000000E+00  0.74402181868E+02  0.74402181868E+02  0.00000000000E+00 0.  1.
         -2   -1    0    0    0  501 -0.00000000000E+00 -0.00000000000E+00 -0.14830760023E+02  0.14830760023E+02  0.00000000000E+00 0. -1.
          1    1    1    2  502    0  0.20859921746E+02 -0.17972858502E+02  0.48278724142E+01  0.27954755053E+02  0.00000000000E+00 0. -1.
         -1    1    1    2    0  501 -0.20859921746E+02  0.17972858502E+02  0.54743549430E+02  0.61278186839E+02  0.00000000000E+00 0.  1.
</event>
<event>
 4    1  0.6935156E+001  0.2048135E+02  0.7546771E-02  0.1526800E+00
          2   -1    0    0  502    0  0.00000000000E+00  0.00000000000E+00  0.47839388037E+02  0.47839388037E+02  0.00000000000E+00 0. -1.
         -2   -1    0    0    0  501 -0.00000000000E+00 -0.00000000000E+00 -0.98736253173E+01  0.98736253173E+01  0.00000000000E+00 0.  1.
          1    1    1    2  502    0 -0.20111948784E+02  0.38723904842E+01  0.28636400393E+02  0.35206949874E+02  0.00000000000E+00 0. -1.
         -1    1    1    2    0  501  0.20111948784E+02 -0.38723904842E+01  0.93293623267E+01  0.22506063480E+02  0.00000000000E+00 0.  1.
</event>
<event>
 4    1  0.6935156E+001  0.2161659E+02  0.7546771E-02  0.1510641E+00
          2   -1    0    0  502    0  0.00000000000E+00  0.00000000000E+00  0.20983339780E+04  0.20983339780E+04  0.00000000000E+00 0. -1.
         -2   -1    0    0    0  501 -0.00000000000E+00 -0.00000000000E+00 -0.28408143949E+00  0.28408143949E+00  0.00000000000E+00 0.  1.
          1    1    1    2  502    0  0.21106983322E+02  0.46660873314E+01  0.56122992183E+03  0.56164606495E+03  0.00000000000E+00 0.  1.
         -1    1    1    2    0  501 -0.21106983322E+02 -0.46660873314E+01  0.15368199748E+04  0.15369719945E+04  0.00000000000E+00 0. -1.
</event>
<event>
 4    1  0.6935156E+001  0.8092009E+02  0.7546771E-02  0.1201728E+00
          2   -1    0    0  502    0  0.00000000000E+00  0.00000000000E+00  0.15573726763E+04  0.15573726763E+04  0.00000000000E+00 0. -1.
         -2   -1    0    0    0  501 -0.00000000000E+00 -0.00000000000E+00 -0.13555026802E+02  0.13555026802E+02  0.00000000000E+00 0.  1.
          1    1    1    2  502    0  0.54912954726E+02 -0.59435913177E+02  0.11954066594E+03  0.14435384021E+03  0.00000000000E+00 0.  1.
         -1    1    1    2    0  501 -0.54912954726E+02  0.59435913177E+02  0.14242769836E+04  0.14265738629E+04  0.00000000000E+00 0. -1.
</event>
<event>
 4    1  0.6935156E+001  0.9057373E+02  0.7546771E-02  0.1181227E+00
          2   -1    0    0  502    0  0.00000000000E+00  0.00000000000E+00  0.12453231096E+04  0.12453231096E+04  0.00000000000E+00 0. -1.
         -2   -1    0    0    0  501 -0.00000000000E+00 -0.00000000000E+00 -0.66635183996E+01  0.66635183996E+01  0.00000000000E+00 0.  1.
          1    1    1    2  502    0  0.84305923998E+02 -0.33107591526E+02  0.68617894993E+03  0.69213087835E+03  0.00000000000E+00 0. -1.
         -1    1    1    2    0  501 -0.84305923998E+02  0.33107591526E+02  0.55248064127E+03  0.55985574965E+03  0.00000000000E+00 0.  1.
</event>
<event>
 4    1  0.6935156E+001  0.3404395E+02  0.7546771E-02  0.1387412E+00
          2   -1    0    0  502    0  0.00000000000E+00  0.00000000000E+00  0.48273307856E+03  0.48273307856E+03  0.00000000000E+00 0.  1.
         -2   -1    0    0    0  501 -0.00000000000E+00 -0.00000000000E+00 -0.25807803833E+01  0.25807803833E+01  0.00000000000E+00 0. -1.
          1    1    1    2  502    0  0.33848539294E+02  0.36423911738E+01  0.17601169439E+03  0.17927383297E+03  0.00000000000E+00 0. -1.
         -1    1    1    2    0  501 -0.33848539294E+02 -0.36423911738E+01  0.30414060380E+03  0.30604002598E+03  0.00000000000E+00 0.  1.
</event>
<event>
 4    1  0.6935156E+001  0.4315078E+02  0.7546771E-02  0.1330950E+00
          2   -1    0    0  502    0  0.00000000000E+00  0.00000000000E+00  0.12638427038E+03  0.12638427038E+03  0.00000000000E+00 0.  1.
         -2   -1    0    0    0  501 -0.00000000000E+00 -0.00000000000E+00 -0.20222646087E+02  0.20222646087E+02  0.00000000000E+00 0. -1.
          1    1    1    2  502    0 -0.36232826358E+02 -0.23434421076E+02  0.91274089685E+02  0.10096013691E+03  0.00000000000E+00 0.  1.
         -1    1    1    2    0  501  0.36232826358E+02  0.23434421076E+02  0.14887534606E+02  0.45646779555E+02  0.00000000000E+00 0. -1.
</event>
<event>
 4    1  0.6935156E+001  0.3118719E+02  0.7546771E-02  0.1409553E+00
          2   -1    0    0  502    0  0.00000000000E+00  0.00000000000E+00  0.17863887474E+01  0.17863887474E+01  0.00000000000E+00 0. -1.
         -2   -1    0    0    0  501 -0.00000000000E+00 -0.00000000000E+00 -0.57317042661E+03  0.57317042661E+03  0.00000000000E+00 0.  1.
          1    1    1    2  502    0  0.31139761001E+02 -0.17192717535E+01 -0.22136638132E+03  0.22355248911E+03  0.00000000000E+00 0. -1.
         -1    1    1    2    0  501 -0.31139761001E+02  0.17192717535E+01 -0.35001765654E+03  0.35140432624E+03  0.00000000000E+00 0.  1.
</event>
<event>
 4    1  0.6935156E+001  0.2712547E+02  0.7546771E-02  0.1446352E+00
          2   -1    0    0  502    0  0.00000000000E+00  0.00000000000E+00  0.83028555381E+03  0.83028555381E+03  0.00000000000E+00 0.  1.
         -2   -1    0    0    0  501 -0.00000000000E+00 -0.00000000000E+00 -0.11580025454E+01  0.11580025454E+01  0.00000000000E+00 0. -1.
          1    1    1    2  502    0  0.14676474551E+02  0.22812104534E+02  0.21315308698E+03  0.21487212361E+03  0.00000000000E+00 0. -1.
         -1    1    1    2    0  501 -0.14676474551E+02 -0.22812104534E+02  0.61597446429E+03  0.61657143274E+03  0.00000000000E+00 0.  1.
</event>
<event>
 4    1  0.6935156E+001  0.3762283E+02  0.7546771E-02  0.1363009E+00
          2   -1    0    0  502    0  0.00000000000E+00  0.00000000000E+00  0.36665367211E+03  0.36665367211E+03  0.00000000000E+00 0.  1.
         -2   -1    0    0    0  501 -0.00000000000E+00 -0.00000000000E+00 -0.39485174951E+01  0.39485174951E+01  0.00000000000E+00 0. -1.
          1    1    1    2  502    0 -0.21349690224E+02  0.30978515393E+02  0.20901372305E+03  0.21237281868E+03  0.00000000000E+00 0.  1.
         -1    1    1    2    0  501  0.21349690224E+02 -0.30978515393E+02  0.15369143157E+03  0.15822937093E+03  0.00000000000E+00 0. -1.
</event>
<event>
 4    1  0.6935156E+001  0.7351139E+02  0.7546771E-02  0.1219769E+00
          2   -1    0    0  502    0  0.00000000000E+00  0.00000000000E+00  0.51656476090E+03  0.51656476090E+03  0.00000000000E+00 0. -1.
         -2   -1    0    0    0  501 -0.00000000000E+00 -0.00000000000E+00 -0.10465997049E+02  0.10465997049E+02  0.00000000000E+00 0.  1.
          1    1    1    2  502    0  0.35423238641E+02 -0.64413656894E+02  0.24745091734E+03  0.25813926769E+03  0.00000000000E+00 0. -1.
         -1    1    1    2    0  501 -0.35423238641E+02  0.64413656894E+02  0.25864784650E+03  0.26889149026E+03  0.00000000000E+00 0.  1.
</event>
<event>
 4    1  0.6935156E+001  0.2534295E+02  0.7546771E-02  0.1465003E+00
          2   -1    0    0  502    0  0.00000000000E+00  0.00000000000E+00  0.36192729155E+03  0.36192729155E+03  0.00000000000E+00 0. -1.
         -2   -1    0    0    0  501 -0.00000000000E+00 -0.00000000000E+00 -0.16193867864E+02  0.16193867864E+02  0.00000000000E+00 0.  1.
          1    1    1    2  502    0 -0.24056033544E+02 -0.79732166733E+01 -0.55344843491E+01  0.25940228430E+02  0.00000000000E+00 0.  1.
         -1    1    1    2    0  501  0.24056033544E+02  0.79732166733E+01  0.35126790803E+03  0.35218093098E+03  0.00000000000E+00 0. -1.
</event>
<event>
 4    1  0.6935156E+001  0.3784723E+02  0.7546771E-02  0.1361585E+00
          2   -1    0    0  502    0  0.00000000000E+00  0.00000000000E+00  0.21882578544E+02  0.21882578544E+02  0.00000000000E+00 0.  1.
         -2   -1    0    0    0  501 -0.00000000000E+00 -0.00000000000E+00 -0.22618970107E+03  0.22618970107E+03  0.00000000000E+00 0. -1.
          1    1    1    2  502    0  0.36830652946E+02 -0.87129583217E+01  0.24053832704E+01  0.37923587750E+02  0.00000000000E+00 0.  1.
         -1    1    1    2    0  501 -0.36830652946E+02  0.87129583217E+01 -0.20671250579E+03  0.21014869186E+03  0.00000000000E+00 0. -1.
</event>
<event>
 4    1  0.6935156E+001  0.2636381E+02  0.7546771E-02  0.1454106E+00
          2   -1    0    0  502    0  0.00000000000E+00  0.00000000000E+00  0.12705896832E+04  0.12705896832E+04  0.00000000000E+00 0. -1.
         -2   -1    0    0    0  501 -0.00000000000E+00 -0.00000000000E+00 -0.59048046276E+00  0.59048046276E+00  0.00000000000E+00 0.  1.
          1    1    1    2  502    0  0.23754320128E+02  0.11436019858E+02  0.46258536641E+03  0.46333602438E+03  0.00000000000E+00 0.  1.
         -1    1    1    2    0  501 -0.23754320128E+02 -0.11436019858E+02  0.80741383630E+03  0.80784413925E+03  0.00000000000E+00 0. -1.
</event>
<event>
 4    1  0.6935156E+001  0.2143382E+02  0.7546771E-02  0.1513160E+00
          2   -1    0    0  502    0  0.00000000000E+00  0.00000000000E+00  0.18660805092E+04  0.18660805092E+04  0.00000000000E+00 0. -1.
         -2   -1    0    0    0  501 -0.00000000000E+00 -0.00000000000E+00 -0.28870830195E+00  0.28870830195E+00  0.00000000000E+00 0.  1.
          1    1    1    2  502    0  0.12908823244E+02 -0.17110556290E+02  0.12910170829E+04  0.12911949958E+04  0.00000000000E+00 0. -1.
         -1    1    1    2    0  501 -0.12908823244E+02  0.17110556290E+02  0.57477471798E+03  0.57517422168E+03  0.00000000000E+00 0.  1.
</event>
<event>
 4    1  0.6935156E+001  0.2683344E+02  0.7546771E-02  0.1449288E+00
          2   -1    0    0  502    0  0.00000000000E+00  0.00000000000E+00  0.24226473165E+04  0.24226473165E+04  0.00000000000E+00 0.  1.
         -2   -1    0    0    0  501 -0.00000000000E+00 -0.00000000000E+00 -0.31595520167E+00  0.31595520167E+00  0.00000000000E+00 0. -1.
          1    1    1    2  502    0 -0.25763700228E+02  0.75010116774E+01  0.15062571873E+04  0.15064961824E+04  0.00000000000E+00 0. -1.
         -1    1    1    2    0  501  0.25763700228E+02 -0.75010116774E+01  0.91607417406E+03  0.91646708932E+03  0.00000000000E+00 0.  1.
</event>
<event>
 4    1  0.6935156E+001  0.2070123E+02  0.7546771E-02  0.1523574E+00
          2   -1    0    0  502    0  0.00000000000E+00  0.00000000000E+00  0.97598681468E+03  0.97598681468E+03  0.00000000000E+00 0. -1.
         -2   -1    0    0    0  501 -0.00000000000E+00 -0.00000000000E+00 -0.23293331372E+01  0.23293331372E+01  0.00000000000E+00 0.  1.
          1    1    1    2  502    0  0.16932868283E+02 -0.11908767255E+02  0.92747783400E+03  0.92770883004E+03  0.00000000000E+00 0. -1.
         -1    1    1    2    0  501 -0.16932868283E+02  0.11908767255E+02  0.46179647545E+02  0.50607317783E+02  0.00000000000E+00 0.  1.
</event>
<event>
 4    1  0.6935156E+001  0.2631224E+02  0.7546771E-02  0.1454642E+00
          2   -1    0    0  502    0  0.00000000000E+00  0.00000000000E+00  0.16754854735E+04  0.16754854735E+04  0.00000000000E+00 0.  1.
         -2   -1    0    0    0  501 -0.00000000000E+00 -0.00000000000E+00 -0.41321405955E+00  0.41321405955E+00  0.00000000000E+00 0. -1.
          1    1    1    2  502    0 -0.20211169155E+02  0.16847628697E+02  0.83708249965E+03  0.83749593741E+03  0.00000000000E+00 0.  1.
         -1    1    1    2    0  501  0.20211169155E+02 -0.16847628697E+02  0.83798975978E+03  0.83840275014E+03  0.00000000000E+00 0. -1.
</event>
<event>
 4    1  0.6935156E+001  0.2917559E+02  0.7546771E-02  0.1426898E+00
          2   -1    0    0  502    0  0.00000000000E+00  0.00000000000E+00  0.11403034139E+04  0.11403034139E+04  0.00000000000E+00 0.  1.
         -2   -1    0    0    0  501 -0.00000000000E+00 -0.00000000000E+00 -0.15471301624E+01  0.15471301624E+01  0.00000000000E+00 0. -1.
          1    1    1    2  502    0 -0.28500210853E+02 -0.62412362025E+01  0.15866659155E+03  0.16132669438E+03  0.00000000000E+00 0. -1.
         -1    1    1    2    0  501  0.28500210853E+02  0.62412362025E+01  0.98008969220E+03  0.98052384969E+03  0.00000000000E+00 0.  1.
</event>
<event>
 4    1  0.6935156E+001  0.2125714E+02  0.7546771E-02  0.1515625E+00
          2   -1    0    0  502    0  0.00000000000E+00  0.00000000000E+00  0.22103552602E+03  0.22103552602E+03  0.00000000000E+00 0.  1.
         -2   -1    0    0    0  501 -0.00000000000E+00 -0.00000000000E+00 -0.22074038683E+01  0.22074038683E+01  0.00000000000E+00 0. -1.
          1    1    1    2  502    0  0.18237972100E+02 -0.10919809878E+02  0.13975445327E+03  0.14136185158E+03  0.00000000000E+00 0.  1.
         -1    1    1    2    0  501 -0.18237972100E+02  0.10919809878E+02  0.79073668879E+02  0.81881078303E+02  0.00000000000E+00 0. -1.
</event>
<event>
 4    1  0.6935156E+001  0.2256538E+02  0.7546771E-02  0.1498029E+00
          2   -1    0    0  502    0  0.00000000000E+00  0.00000000000E+00  0.96556276121E+03  0.96556276121E+03  0.00000000000E+00 0. -1.
         -2   -1    0    0    0  501 -0.00000000000E+00 -0.00000000000E+00 -0.92180725349E+00  0.92180725349E+00  0.00000000000E+00 0.  1.
          1    1    1    2  502    0  0.18829368314E+02 -0.12435888434E+02  0.79843241800E+03  0.79875122695E+03  0.00000000000E+00 0. -1.
         -1    1    1    2    0  501 -0.18829368314E+02  0.12435888434E+02  0.16620853596E+03  0.16773334152E+03  0.00000000000E+00 0.  1.
</event>
<event>
 4    1  0.6935156E+001  0.3300332E+02  0.7546771E-02  0.1395171E+00
          2   -1    0    0  502    0  0.00000000000E+00  0.00000000000E+00  0.48989374856E+01  0.48989374856E+01  0.00000000000E+00 0.  1.
         -2   -1    0    0    0  501 -0.00000000000E+00 -0.00000000000E+00 -0.26141025141E+03  0.26141025141E+03  0.00000000000E+00 0. -1.
          1    1    1    2  502    0  0.32636124417E+02 -0.49094230380E+01 -0.76776657099E+02  0.83569576563E+02  0.00000000000E+00 0. -1.
         -1    1    1    2    0  501 -0.32636124417E+02  0.49094230380E+01 -0.17973465682E+03  0.18273961233E+03  0.00000000000E+00 0.  1.
</event>
<event>
 4    1  0.6935156E+001  0.3431257E+02  0.7546771E-02  0.1385461E+00
          2   -1    0    0  502    0  0.00000000000E+00  0.00000000000E+00  0.44501351506E+02  0.44501351506E+02  0.00000000000E+00 0.  1.
         -2   -1    0    0    0  501 -0.00000000000E+00 -0.00000000000E+00 -0.26912206445E+02  0.26912206445E+02  0.00000000000E+00 0. -1.
          1    1    1    2  502    0 -0.16068858624E+01 -0.34274924691E+02  0.13440703237E+02  0.36851120041E+02  0.00000000000E+00 0.  1.
         -1    1    1    2    0  501  0.16068858624E+01  0.34274924691E+02  0.41484418236E+01  0.34562437910E+02  0.00000000000E+00 0. -1.
</event>
<event>
 4    1  0.6935156E+001  0.3279341E+02  0.7546771E-02  0.1396777E+00
          2   -1    0    0  502    0  0.00000000000E+00  0.00000000000E+00  0.32476484126E+02  0.32476484126E+02  0.00000000000E+00 0. -1.
         -2   -1    0    0    0  501 -0.00000000000E+00 -0.00000000000E+00 -0.40652083108E+02  0.40652083108E+02  0.00000000000E+00 0.  1.
          1    1    1    2  502    0 -0.18249763936E+01  0.32742587534E+02  0.11657927952E+02  0.34803948934E+02  0.00000000000E+00 0.  1.
         -1    1    1    2    0  501  0.18249763936E+01 -0.32742587534E+02 -0.19833526933E+02  0.38324618301E+02  0.00000000000E+00 0. -1.
</event>
<event>
 4    1  0.6935156E+001  0.2154297E+02  0.7546771E-02  0.1511652E+00
          2   -1    0    0  502    0  0.00000000000E+00  0.00000000000E+00  0.52488975227E+03  0.52488975227E+03  0.00000000000E+00 0.  1.
         -2   -1    0    0    0  501 -0.00000000000E+00 -0.00000000000E+00 -0.98552512842E+00  0.98552512842E+00  0.00000000000E+00 0. -1.
          1    1    1    2  502    0  0.20897295378E+02  0.52347359350E+01  0.34626822639E+03  0.34693772355E+03  0.00000000000E+00 0.  1.
         -1    1    1    2    0  501 -0.20897295378E+02 -0.52347359350E+01  0.17763600075E+03  0.17893755385E+03  0.00000000000E+00 0. -1.
</event>
<event>
 4    1  0.6935156E+001  0.6421388E+02  0.7546771E-02  0.1246150E+00
          2   -1    0    0  502    0  0.00000000000E+00  0.00000000000E+00  0.45880516481E+03  0.45880516481E+03  0.00000000000E+00 0. -1.
         -2   -1    0    0    0  501 -0.00000000000E+00 -0.00000000000E+00 -0.89890398802E+01  0.89890398802E+01  0.00000000000E+00 0.  1.
          1    1    1    2  502    0  0.55793127743E+02 -0.31789137639E+02  0.22165952876E+03  0.23077341499E+03  0.00000000000E+00 0.  1.
         -1    1    1    2    0  501 -0.55793127743E+02  0.31789137639E+02  0.22815659617E+03  0.23702078970E+03  0.00000000000E+00 0. -1.
</event>
<event>
 4    1  0.6935156E+001  0.8003348E+02  0.7546771E-02  0.1203770E+00
          2   -1    0    0  502    0  0.00000000000E+00  0.00000000000E+00  0.10884749097E+04  0.10884749097E+04  0.00000000000E+00 0. -1.
         -2   -1    0    0    0  501 -0.00000000000E+00 -0.00000000000E+00 -0.98964057134E+01  0.98964057134E+01  0.00000000000E+00 0.  1.
          1    1    1    2  502    0 -0.76763515029E+02 -0.22643351619E+02  0.88894805135E+03  0.89254355446E+03  0.00000000000E+00 0. -1.
         -1    1    1    2    0  501  0.76763515029E+02  0.22643351619E+02  0.18963045267E+03  0.20582776098E+03  0.00000000000E+00 0.  1.
</event>
<event>
 4    1  0.6935156E+001  0.4356975E+02  0.7546771E-02  0.1328748E+00
          2   -1    0    0  502    0  0.00000000000E+00  0.00000000000E+00  0.20918318709E+03  0.20918318709E+03  0.00000000000E+00 0.  1.
         -2   -1    0    0    0  501 -0.00000000000E+00 -0.00000000000E+00 -0.97498752611E+01  0.97498752611E+01  0.00000000000E+00 0. -1.
          1    1    1    2  502    0 -0.15014286180E+02  0.40901031908E+02  0.70915132762E+02  0.83230278477E+02  0.00000000000E+00 0.  1.
         -1    1    1    2    0  501  0.15014286180E+02 -0.40901031908E+02  0.12851817907E+03  0.13570278388E+03  0.00000000000E+00 0. -1.
</event>
<event>
 4    1  0.6935156E+001  0.2227675E+02  0.7546771E-02  0.1501785E+00
          2   -1    0    0  502    0  0.00000000000E+00  0.00000000000E+00  0.11501981683E+04  0.11501981683E+04  0.00000000000E+00 0.  1.
         -2   -1    0    0    0  501 -0.00000000000E+00 -0.00000000000E+00 -0.55948910418E+00  0.55948910418E+00  0.00000000000E+00 0. -1.
          1    1    1    2  502    0 -0.20375932523E+02 -0.90041592426E+01  0.85007016021E+03  0.85036199985E+03  0.00000000000E+00 0.  1.
         -1    1    1    2    0  501  0.20375932523E+02  0.90041592426E+01  0.29956851896E+03  0.30039565753E+03  0.00000000000E+00 0. -1.
</event>
<event>
 4    1  0.6935156E+001  0.2437078E+02  0.7546771E-02  0.1475967E+00
          2   -1    0    0  502    0  0.00000000000E+00  0.00000000000E+00  0.16728292857E+03  0.16728292857E+03  0.00000000000E+00 0.  1.
         -2   -1    0    0    0  501 -0.00000000000E+00 -0.00000000000E+00 -0.40441613854E+01  0.40441613854E+01  0.00000000000E+00 0. -1.
          1    1    1    2  502    0 -0.20170013103E+02 -0.13678647398E+02  0.51689513264E+02  0.57146658736E+02  0.00000000000E+00 0. -1.
         -1    1    1    2    0  501  0.20170013103E+02  0.13678647398E+02  0.11154925393E+03  0.11418043122E+03  0.00000000000E+00 0.  1.
</event>
<event>
 4    1  0.6935156E+001  0.2022658E+02  0.7546771E-02  0.1530600E+00
          2   -1    0    0  502    0  0.00000000000E+00  0.00000000000E+00  0.60573188743E+03  0.60573188743E+03  0.00000000000E+00 0.  1.
         -2   -1    0    0    0  501 -0.00000000000E+00 -0.00000000000E+00 -0.67541962170E+00  0.67541962170E+00  0.00000000000E+00 0. -1.
          1    1    1    2  502    0  0.34750523186E+01 -0.19925827860E+02  0.30113828412E+03  0.30181680001E+03  0.00000000000E+00 0. -1.
         -1    1    1    2    0  501 -0.34750523186E+01  0.19925827860E+02  0.30391818369E+03  0.30459050705E+03  0.00000000000E+00 0.  1.
</event>
<event>
 4    1  0.6935156E+001  0.5402855E+02  0.7546771E-02  0.1281591E+00
          2   -1    0    0  502    0  0.00000000000E+00  0.00000000000E+00  0.23167108981E+04  0.23167108981E+04  0.00000000000E+00 0. -1.
         -2   -1    0    0    0  501 -0.00000000000E+00 -0.00000000000E+00 -0.12861414388E+01  0.12861414388E+01  0.00000000000E+00 0.  1.
          1    1    1    2  502    0  0.22099938133E+00 -0.54028100101E+02  0.13229086705E+04  0.13240114935E+04  0.00000000000E+00 0.  1.
         -1    1    1    2    0  501 -0.22099938133E+00  0.54028100101E+02  0.99251608618E+03  0.99398554605E+03  0.00000000000E+00 0. -1.
</event>
<event>
 4    1  0.6935156E+001  0.2223023E+02  0.7546771E-02  0.1502397E+00
          2   -1    0    0  502    0  0.00000000000E+00  0.00000000000E+00  0.21818565670E+02  0.21818565670E+02  0.00000000000E+00 0. -1.
         -2   -1    0    0    0  501 -0.00000000000E+00 -0.00000000000E+00 -0.30621146164E+02  0.30621146164E+02  0.00000000000E+00 0.  1.
          1    1    1    2  502    0  0.19518136209E+02 -0.10640740978E+02 -0.17779233006E+02  0.28465490263E+02  0.00000000000E+00 0.  1.
         -1    1    1    2    0  501 -0.19518136209E+02  0.10640740978E+02  0.89766525114E+01  0.23974221571E+02  0.00000000000E+00 0. -1.
</event>
<event>
 4    1  0.6935156E+001  0.2068688E+02  0.7546771E-02  0.1523783E+00
          2   -1    0    0  502    0  0.00000000000E+00  0.00000000000E+00  0.62651545781E+02  0.62651545781E+02  0.00000000000E+00 0. -1.
         -2   -1    0    0    0  501 -0.00000000000E+00 -0.00000000000E+00 -0.91871088945E+01  0.91871088945E+01  0.00000000000E+00 0.  1.
          1    1    1    2  502    0 -0.83255152118E+01  0.18937601645E+02  0.85404751906E+01  0.22380497673E+02  0.00000000000E+00 0.  1.
         -1    1    1    2    0  501  0.83255152118E+01 -0.18937601645E+02  0.44923961696E+02  0.49458157002E+02  0.00000000000E+00 0. -1.
</event>
<event>
 4    1  0.6935156E+001  0.2295765E+02  0.7546771E-02  0.1493031E+00
          2   -1    0    0  502    0  0.00000000000E+00  0.00000000000E+00  0.22114779548E+04  0.22114779548E+04  0.00000000000E+00 0.  1.
         -2   -1    0    0    0  501 -0.00000000000E+00 -0.00000000000E+00 -0.26700551781E+00  0.26700551781E+00  0.00000000000E+00 0. -1.
          1    1    1    2  502    0 -0.88914933919E+01 -0.21165896049E+02  0.74317305644E+03  0.74352756884E+03  0.00000000000E+00 0. -1.
         -1    1    1    2    0  501  0.88914933919E+01  0.21165896049E+02  0.14680378928E+04  0.14682173914E+04  0.00000000000E+00 0.  1.
</event>
<event>
 4    1  0.6935156E+001  0.3019738E+02  0.7546771E-02  0.1417889E+00
          2   -1    0    0  502    0  0.00000000000E+00  0.00000000000E+00  0.65332027971E+03  0.65332027971E+03  0.00000000000E+00 0.  1.
         -2   -1    0    0    0  501 -0.00000000000E+00 -0.00000000000E+00 -0.14359689212E+01  0.14359689212E+01  0.00000000000E+00 0. -1.
          1    1    1    2  502    0 -0.23903536178E+02  0.18452711820E+02  0.27116353980E+03  0.27283978254E+03  0.00000000000E+00 0.  1.
         -1    1    1    2    0  501  0.23903536178E+02 -0.18452711820E+02  0.38072077099E+03  0.38191646610E+03  0.00000000000E+00 0. -1.
</event>
<event>
 4    1  0.6935156E+001  0.4059584E+02  0.7546771E-02  0.1345029E+00
          2   -1    0    0  502    0  0.00000000000E+00  0.00000000000E+00  0.10170490020E+04  0.10170490020E+04  0.00000000000E+00 0.  1.
         -2   -1    0    0    0  501 -0.00000000000E+00 -0.00000000000E+00 -0.16204052861E+01  0.16204052861E+01  0.00000000000E+00 0. -1.
          1    1    1    2  502    0 -0.37696902297E+02  0.15065387495E+02  0.50650853362E+03  0.50813277495E+03  0.00000000000E+00 0. -1.
         -1    1    1    2    0  501  0.37696902297E+02 -0.15065387495E+02  0.50892006314E+03  0.51053663239E+03  0.00000000000E+00 0.  1.
</event>
<event>
 4    1  0.6935156E+001  0.2228797E+02  0.7546771E-02  0.1501638E+00
          2   -1    0    0  502    0  0.00000000000E+00  0.00000000000E+00  0.51593065120E+02  0.51593065120E+02  0.00000000000E+00 0.  1.
         -2   -1    0    0    0  501 -0.00000000000E+00 -0.00000000000E+00 -0.10372482583E+02  0.10372482583E+02  0.00000000000E+00 0. -1.
          1    1    1    2  502    0  0.22096477878E+02 -0.29153576707E+01  0.12311441152E+02  0.25462231407E+02  0.00000000000E+00 0. -1.
         -1    1    1    2    0  501 -0.22096477878E+02  0.29153576707E+01  0.28909141386E+02  0.36503316296E+02  0.00000000000E+00 0.  1.
</event>
<event>
 4    1  0.6935156E+001  0.2922279E+02  0.7546771E-02  0.1426473E+00
          2   -1    0    0  502    0  0.00000000000E+00  0.00000000000E+00  0.13507353363E+01  0.13507353363E+01  0.00000000000E+00 0. -1.
         -2   -1    0    0    0  501 -0.00000000000E+00 -0.00000000000E+00 -0.63608321353E+03  0.63608321353E+03  0.00000000000E+00 0.  1.
          1    1    1    2  502    0 -0.23086599698E+02 -0.17915919954E+02 -0.29255023033E+03  0.29400613691E+03  0.00000000000E+00 0. -1.
         -1    1    1    2    0  501  0.23086599698E+02  0.17915919954E+02 -0.34218224787E+03  0.34342781196E+03  0.00000000000E+00 0.  1.
</event>
<event>
 4    1  0.6935156E+001  0.2285963E+02  0.7546771E-02  0.1494268E+00
          2   -1    0    0  502    0  0.00000000000E+00  0.00000000000E+00  0.29440018972E+03  0.29440018972E+03  0.00000000000E+00 0. -1.
         -2   -1    0    0    0  501 -0.00000000000E+00 -0.00000000000E+00 -0.17873312858E+01  0.17873312858E+01  0.00000000000E+00 0.  1.
          1    1    1    2  502    0 -0.21158804601E+02  0.86526106621E+01  0.13400946232E+03  0.13594520467E+03  0.00000000000E+00 0. -1.
         -1    1    1    2    0  501  0.21158804601E+02 -0.86526106621E+01  0.15860339612E+03  0.16024231633E+03  0.00000000000E+00 0.  1.
</event>
<event>
 4    1  0.6935156E+001  0.2790985E+02  0.7546771E-02  0.1438676E+00
          2   -1    0    0  502    0  0.00000000000E+00  0.00000000000E+00  0.10742148621E+04  0.10742148621E+04  0.00000000000E+00 0. -1.
         -2   -1    0    0    0  501 -0.00000000000E+00 -0.00000000000E+00 -0.87957010798E+00  0.87957010798E+00  0.00000000000E+00 0.  1.
          1    1    1    2  502    0  0.11811492531E+02  0.25287319263E+02  0.76190609201E+03  0.76241711216E+03  0.00000000000E+00 0. -1.
         -1    1    1    2    0  501 -0.11811492531E+02 -0.25287319263E+02  0.31142919996E+03  0.31267732003E+03  0.00000000000E+00 0.  1.
</event>
<event>
 4    1  0.6935156E+001  0.2146117E+02  0.7546771E-02  0.1512781E+00
          2   -1    0    0  502    0  0.00000000000E+00  0.00000000000E+00  0.61067755190E+03  0.61067755190E+03  0.00000000000E+00 0. -1.
         -2   -1    0    0    0  501 -0.00000000000E+00 -0.00000000000E+00 -0.87254427687E+00  0.87254427687E+00  0.00000000000E+00 0.  1.
          1    1    1    2  502    0 -0.21041386518E+02 -0.42239523088E+01  0.41750700828E+03  0.41805823001E+03  0.00000000000E+00 0. -1.
         -1    1    1    2    0  501  0.21041386518E+02  0.42239523088E+01  0.19229799934E+03  0.19349186616E+03  0.00000000000E+00 0.  1.
</event>
<event>
 4    1  0.6935156E+001  0.2080246E+02  0.7546771E-02  0.1522104E+00
          2   -1    0    0  502    0  0.00000000000E+00  0.00000000000E+00  0.38829922747E+01  0.38829922747E+01  0.00000000000E+00 0. -1.
         -2   -1    0    0    0  501 -0.00000000000E+00 -0.00000000000E+00 -0.17725595460E+03  0.17725595460E+03  0.00000000000E+00 0.  1.
          1    1    1    2  502    0 -0.20744406268E+02  0.15530583568E+01 -0.14187243589E+03  0.14338943632E+03  0.00000000000E+00 0.  1.
         -1    1    1    2    0  501  0.20744406268E+02 -0.15530583568E+01 -0.31500526432E+02  0.37749510555E+02  0.00000000000E+00 0. -1.
</event>
<event>
 4    1  0.6935156E+001  0.2134136E+02  0.7546771E-02  0.1514446E+00
          2   -1    0    0  502    0  0.00000000000E+00  0.00000000000E+00  0.34350721591E+03  0.34350721591E+03  0.00000000000E+00 0.  1.
         -2   -1    0    0    0  501 -0.00000000000E+00 -0.00000000000E+00 -0.13272995112E+01  0.13272995112E+01  0.00000000000E+00 0. -1.
          1    1    1    2  502    0 -0.15954878761E+02 -0.14173766804E+02  0.17670255665E+03  0.17798664935E+03  0.00000000000E+00 0. -1.
         -1    1    1    2    0  501  0.15954878761E+02  0.14173766804E+02  0.16547735975E+03  0.16684786607E+03  0.00000000000E+00 0.  1.
</event>
<event>
 4    1  0.6935156E+001  0.4668918E+02  0.7546771E-02  0.1313203E+00
          2   -1    0    0  502    0  0.00000000000E+00  0.00000000000E+00  0.13648926753E+03  0.13648926753E+03  0.00000000000E+00 0. -1.
         -2   -1    0    0    0  501 -0.00000000000E+00 -0.00000000000E+00 -0.18765610671E+02  0.18765610671E+02  0.00000000000E+00 0.  1.
          1    1    1    2  502    0 -0.54221817379E+00  0.46686030695E+02  0.28905455397E+02  0.54912701757E+02  0.00000000000E+00 0.  1.
         -1    1    1    2    0  501  0.54221817379E+00 -0.46686030695E+02  0.88818201467E+02  0.10034217645E+03  0.00000000000E+00 0. -1.
</event>
<event>
 4    1  0.6935156E+001  0.2000931E+02  0.7546771E-02  0.1533893E+00
          2   -1    0    0  502    0  0.00000000000E+00  0.00000000000E+00  0.79584371300E+03  0.79584371300E+03  0.00000000000E+00 0. -1.
         -2   -1    0    0    0  501 -0.00000000000E+00 -0.00000000000E+00 -0.54261711335E+00  0.54261711335E+00  0.00000000000E+00 0.  1.
          1    1    1    2  502    0 -0.12535936132E+02  0.15595601183E+02  0.50513696047E+03  0.50553310604E+03  0.00000000000E+00 0.  1.
         -1    1    1    2    0  501  0.12535936132E+02 -0.15595601183E+02  0.29016413542E+03  0.29085322408E+03  0.00000000000E+00 0. -1.
</event>
<event>
 4    1  0.6935156E+001  0.2566454E+02  0.7546771E-02  0.1461505E+00
          2   -1    0    0  502    0  0.00000000000E+00  0.00000000000E+00  0.58367492647E+03  0.58367492647E+03  0.00000000000E+00 0. -1.
         -2   -1    0    0    0  501 -0.00000000000E+00 -0.00000000000E+00 -0.11300673069E+01  0.11300673069E+01  0.00000000000E+00 0.  1.
          1    1    1    2  502    0 -0.24946057074E+02 -0.60301696326E+01  0.30221202850E+03  0.30329981681E+03  0.00000000000E+00 0.  1.
         -1    1    1    2    0  501  0.24946057074E+02  0.60301696326E+01  0.28033283067E+03  0.28150517697E+03  0.00000000000E+00 0. -1.
</event>
<event>
 4    1  0.6935156E+001  0.2743579E+02  0.7546771E-02  0.1443279E+00
          2   -1    0    0  502    0  0.00000000000E+00  0.00000000000E+00  0.27964662761E+02  0.27964662761E+02  0.00000000000E+00 0.  1.
         -2   -1    0    0    0  501 -0.00000000000E+00 -0.00000000000E+00 -0.59596415033E+02  0.59596415033E+02  0.00000000000E+00 0. -1.
          1    1    1    2  502    0 -0.25143758236E+02 -0.10977898145E+02 -0.48235550450E+02  0.55492262102E+02  0.00000000000E+00 0. -1.
         -1    1    1    2    0  501  0.25143758236E+02  0.10977898145E+02  0.16603798179E+02  0.32068815692E+02  0.00000000000E+00 0.  1.
</event>
<event>
 4    1  0.6935156E+001  0.4714901E+02  0.7546771E-02  0.1311030E+00
          2   -1    0    0  502    0  0.00000000000E+00  0.00000000000E+00  0.10939130336E+04  0.10939130336E+04  0.00000000000E+00 0. -1.
         -2   -1    0    0    0  501 -0.00000000000E+00 -0.00000000000E+00 -0.20323278248E+01  0.20323278248E+01  0.00000000000E+00 0.  1.
          1    1    1    2  502    0  0.22429671028E+02  0.41472142133E+02  0.54127454435E+03  0.54332417678E+03  0.00000000000E+00 0.  1.
         -1    1    1    2    0  501 -0.22429671028E+02 -0.41472142133E+02  0.55060616143E+03  0.55262118465E+03  0.00000000000E+00 0. -1.
</event>
<event>
 4    1  0.6935156E+001  0.2589117E+02  0.7546771E-02  0.1459076E+00
          2   -1    0    0  502    0  0.00000000000E+00  0.00000000000E+00  0.11518662050E+04  0.11518662050E+04  0.00000000000E+00 0.  1.
         -2   -1    0    0    0  501 -0.00000000000E+00 -0.00000000000E+00 -0.10008550591E+01  0.10008550591E+01  0.00000000000E+00 0. -1.
          1    1    1    2  502    0  0.22470078846E+02 -0.12862658665E+02  0.94834839437E+03  0.94870176006E+03  0.00000000000E+00 0.  1.
         -1    1    1    2    0  501 -0.22470078846E+02  0.12862658665E+02  0.20251695560E+03  0.20416530003E+03  0.00000000000E+00 0. -1.
</event>
<event>
 4    1  0.6935156E+001  0.2385137E+02  0.7546771E-02  0.1482075E+00
          2   -1    0    0  502    0  0.00000000000E+00  0.00000000000E+00  0.22745072986E+03  0.22745072986E+03  0.00000000000E+00 0. -1.
         -2   -1    0    0    0  501 -0.00000000000E+00 -0.00000000000E+00 -0.26810783365E+01  0.26810783365E+01  0.00000000000E+00 0.  1.
          1    1    1    2  502    0  0.14885039889E+02  0.18636615602E+02  0.14219362944E+03  0.14418015157E+03  0.00000000000E+00 0.  1.
         -1    1    1    2    0  501 -0.14885039889E+02 -0.18636615602E+02  0.82576022082E+02  0.85951656624E+02  0.00000000000E+00 0. -1.
</event>
<event>
 4    1  0.6935156E+001  0.2249449E+02  0.7546771E-02  0.1498945E+00
          2   -1    0    0  502    0  0.00000000000E+00  0.00000000000E+00  0.10065833795E+04  0.10065833795E+04  0.00000000000E+00 0.  1.
         -2   -1    0    0    0  501 -0.00000000000E+00 -0.00000000000E+00 -0.84231563338E+00  0.84231563338E+00  0.00000000000E+00 0. -1.
          1    1    1    2  502    0 -0.22471022453E+02 -0.10273385247E+01  0.82271879863E+03  0.82302625954E+03  0.00000000000E+00 0.  1.
         -1    1    1    2    0  501  0.22471022453E+02  0.10273385247E+01  0.18302226524E+03  0.18439943560E+03  0.00000000000E+00 0. -1.
</event>
<event>
 4    1  0.6935156E+001  0.2149413E+02  0.7546771E-02  0.1512326E+00
          2   -1    0    0  502    0  0.00000000000E+00  0.00000000000E+00  0.35663822645E+02  0.35663822645E+02  0.00000000000E+00 0. -1.
         -2   -1    0    0    0  501 -0.00000000000E+00 -0.00000000000E+00 -0.12997765803E+02  0.12997765803E+02  0.00000000000E+00 0.  1.
          1    1    1    2  502    0 -0.19860634374E+02  0.82190405101E+01  0.99249191994E+01  0.23674911737E+02  0.00000000000E+00 0.  1.
         -1    1    1    2    0  501  0.19860634374E+02 -0.82190405101E+01  0.12741137643E+02  0.24986676711E+02  0.00000000000E+00 0. -1.
</event>
<event>
 4    1  0.6935156E+001  0.2703799E+02  0.7546771E-02  0.1447227E+00
          2   -1    0    0  502    0  0.00000000000E+00  0.00000000000E+00  0.15786361660E+03  0.15786361660E+03  0.00000000000E+00 0. -1.
         -2   -1    0    0    0  501 -0.00000000000E+00 -0.00000000000E+00 -0.46795907215E+01  0.46795907215E+01  0.00000000000E+00 0.  1.
          1    1    1    2  502    0  0.26880961401E+02 -0.29097790833E+01  0.68303175292E+02  0.73460034407E+02  0.00000000000E+00 0.  1.
         -1    1    1    2    0  501 -0.26880961401E+02  0.29097790833E+01  0.84880850587E+02  0.89083172914E+02  0.00000000000E+00 0. -1.
</event>
<event>
 4    1  0.6935156E+001  0.2049847E+02  0.7546771E-02  0.1526547E+00
          2   -1    0    0  502    0  0.00000000000E+00  0.00000000000E+00  0.19570575835E+02  0.19570575835E+02  0.00000000000E+00 0.  1.
         -2   -1    0    0    0  501 -0.00000000000E+00 -0.00000000000E+00 -0.25459696869E+02  0.25459696869E+02  0.00000000000E+00 0. -1.
          1    1    1    2  502    0  0.85442039420E+01 -0.18632869421E+02  0.59679181345E+01  0.21349550129E+02  0.00000000000E+00 0.  1.
         -1    1    1    2    0  501 -0.85442039420E+01  0.18632869421E+02 -0.11857039168E+02  0.23680722575E+02  0.00000000000E+00 0. -1.
</event>
<event>
 4    1  0.6935156E+001  0.4292638E+02  0.7546771E-02  0.1332141E+00
          2   -1    0    0  502    0  0.00000000000E+00  0.00000000000E+00  0.45533340761E+03  0.45533340761E+03  0.00000000000E+00 0. -1.
         -2   -1    0    0    0  501 -0.00000000000E+00 -0.00000000000E+00 -0.60132989528E+01  0.60132989528E+01  0.00000000000E+00 0.  1.
          1    1    1    2  502    0  0.42849095679E+02  0.25747509995E+01  0.92749256667E+02  0.10220126690E+03  0.00000000000E+00 0.  1.
         -1    1    1    2    0  501 -0.42849095679E+02 -0.25747509995E+01  0.35657085199E+03  0.35914543966E+03  0.00000000000E+00 0. -1.
</event>
<event>
 4    1  0.6935156E+001  0.2063921E+02  0.7546771E-02  0.1524479E+00
          2   -1    0    0  502    0  0.00000000000E+00  0.00000000000E+00  0.76449075516E+03  0.76449075516E+03  0.00000000000E+00 0. -1.
         -2   -1    0    0    0  501 -0.00000000000E+00 -0.00000000000E+00 -0.55735567193E+00  0.55735567193E+00  0.00000000000E+00 0.  1.
          1    1    1    2  502    0  0.44713512654E+01  0.20149047078E+02  0.37565031138E+03  0.37621687032E+03  0.00000000000E+00 0. -1.
         -1    1    1    2    0  501 -0.44713512654E+01 -0.20149047078E+02  0.38828308811E+03  0.38883124051E+03  0.00000000000E+00 0.  1.
</event>
<event>
 4    1  0.6935156E+001  0.3336061E+02  0.7546771E-02  0.1392470E+00
          2   -1    0    0  502    0  0.00000000000E+00  0.00000000000E+00  0.41730676759E+03  0.41730676759E+03  0.00000000000E+00 0.  1.
         -2   -1    0    0    0  501 -0.00000000000E+00 -0.00000000000E+00 -0.27118607175E+01  0.27118607175E+01  0.00000000000E+00 0. -1.
          1    1    1    2  502    0  0.99883987328E+01  0.31830208770E+02  0.18026725785E+03  0.18332816083E+03  0.00000000000E+00 0.  1.
         -1    1    1    2    0  501 -0.99883987328E+01 -0.31830208770E+02  0.23432764903E+03  0.23669046748E+03  0.00000000000E+00 0. -1.
</event>
<event>
 4    1  0.6935156E+001  0.4583133E+02  0.7546771E-02  0.1317334E+00
          2   -1    0    0  502    0  0.00000000000E+00  0.00000000000E+00  0.34963068157E+02  0.34963068157E+02  0.00000000000E+00 0. -1.
         -2   -1    0    0    0  501 -0.00000000000E+00 -0.00000000000E+00 -0.93743355323E+02  0.93743355323E+02  0.00000000000E+00 0.  1.
          1    1    1    2  502    0  0.92451817372E+01 -0.44889166012E+02 -0.67954997554E+02  0.81965799594E+02  0.00000000000E+00 0.  1.
         -1    1    1    2    0  501 -0.92451817372E+01  0.44889166012E+02  0.91747103881E+01  0.46740623886E+02  0.00000000000E+00 0. -1.
</event>
<event>
 4    1  0.6935156E+001  0.3400483E+02  0.7546771E-02  0.1387698E+00
          2   -1    0    0  502    0  0.00000000000E+00  0.00000000000E+00  0.37474405351E+03  0.37474405351E+03  0.00000000000E+00 0.  1.
         -2   -1    0    0    0  501 -0.00000000000E+00 -0.00000000000E+00 -0.33076583658E+01  0.33076583658E+01  0.00000000000E+00 0. -1.
          1    1    1    2  502    0  0.19265676692E+02 -0.28020739577E+02  0.13674620641E+03  0.14091079842E+03  0.00000000000E+00 0. -1.
         -1    1    1    2    0  501 -0.19265676692E+02  0.28020739577E+02  0.23469018874E+03  0.23714091346E+03  0.00000000000E+00 0.  1.
</event>
<event>
 4    1  0.6935156E+001  0.2336097E+02  0.7546771E-02  0.1488015E+00
          2   -1    0    0  502    0  0.00000000000E+00  0.00000000000E+00  0.75821785610E+02  0.75821785610E+02  0.00000000000E+00 0. -1.
         -2   -1    0    0    0  501 -0.00000000000E+00 -0.00000000000E+00 -0.11964878687E+02  0.11964878687E+02  0.00000000000E+00 0.  1.
          1    1    1    2  502    0  0.22499814808E+02  0.62843534222E+01  0.59634830754E+02  0.64047231036E+02  0.00000000000E+00 0. -1.
         -1    1    1    2    0  501 -0.22499814808E+02 -0.62843534222E+01  0.42220761692E+01  0.23739433260E+02  0.00000000000E+00 0.  1.
</event>
<event>
 4    1  0.6935156E+001  0.2659821E+02  0.7546771E-02  0.1451686E+00
          2   -1    0    0  502    0  0.00000000000E+00  0.00000000000E+00  0.59726668658E+02  0.59726668658E+02  0.00000000000E+00 0.  1.
         -2   -1    0    0    0  501 -0.00000000000E+00 -0.00000000000E+00 -0.14576770683E+02  0.14576770683E+02  0.00000000000E+00 0. -1.
          1    1    1    2  502    0 -0.50773337138E+01 -0.26109104660E+02  0.64919381582E+01  0.27379005183E+02  0.00000000000E+00 0. -1.
         -1    1    1    2    0  501  0.50773337138E+01  0.26109104660E+02  0.38657959818E+02  0.46924434158E+02  0.00000000000E+00 0.  1.
</event>
<event>
 4    1  0.6935156E+001  0.2180939E+02  0.7546771E-02  0.1508015E+00
          2   -1    0    0  502    0  0.00000000000E+00  0.00000000000E+00  0.45453912616E+01  0.45453912616E+01  0.00000000000E+00 0.  1.
         -2   -1    0    0    0  501 -0.00000000000E+00 -0.00000000000E+00 -0.13099108922E+03  0.13099108922E+03  0.00000000000E+00 0. -1.
          1    1    1    2  502    0  0.12443396102E+02 -0.17911213593E+02 -0.32830205955E+02  0.39414110443E+02  0.00000000000E+00 0.  1.
         -1    1    1    2    0  501 -0.12443396102E+02  0.17911213593E+02 -0.93615492004E+02  0.96122370040E+02  0.00000000000E+00 0. -1.
</event>
<event>
 4    1  0.6935156E+001  0.6736052E+02  0.7546771E-02  0.1236686E+00
          2   -1    0    0  502    0  0.00000000000E+00  0.00000000000E+00  0.17220336127E+04  0.17220336127E+04  0.00000000000E+00 0. -1.
         -2   -1    0    0    0  501 -0.00000000000E+00 -0.00000000000E+00 -0.28321167472E+01  0.28321167472E+01  0.00000000000E+00 0.  1.
          1    1    1    2  502    0  0.42837012806E+02 -0.51984903166E+02  0.63203471725E+03  0.63561413109E+03  0.00000000000E+00 0.  1.
         -1    1    1    2    0  501 -0.42837012806E+02  0.51984903166E+02  0.10871667787E+04  0.10892515983E+04  0.00000000000E+00 0. -1.
</event>
<event>
 4    1  0.6935156E+001  0.2724396E+02  0.7546771E-02  0.1445173E+00
          2   -1    0    0  502    0  0.00000000000E+00  0.00000000000E+00  0.32129712932E+03  0.32129712932E+03  0.00000000000E+00 0. -1.
         -2   -1    0    0    0  501 -0.00000000000E+00 -0.00000000000E+00 -0.27429146817E+01  0.27429146817E+01  0.00000000000E+00 0.  1.
          1    1    1    2  502    0  0.87354902321E+01  0.25805516665E+02  0.22363558319E+03  0.22528894235E+03  0.00000000000E+00 0.  1.
         -1    1    1    2    0  501 -0.87354902321E+01 -0.25805516665E+02  0.94918631455E+02  0.98751101651E+02  0.00000000000E+00 0. -1.
</event>
<event>
 4    1  0.6935156E+001  0.2520373E+02  0.7546771E-02  0.1466537E+00
          2   -1    0    0  502    0  0.00000000000E+00  0.00000000000E+00  0.80993728918E+03  0.80993728918E+03  0.00000000000E+00 0.  1.
         -2   -1    0    0    0  501 -0.00000000000E+00 -0.00000000000E+00 -0.12911321295E+01  0.12911321295E+01  0.00000000000E+00 0. -1.
          1    1    1    2  502    0  0.18334614396E+02 -0.17293639159E+02  0.15018897918E+03  0.15228905906E+03  0.00000000000E+00 0. -1.
         -1    1    1    2    0  501 -0.18334614396E+02  0.17293639159E+02  0.65845717787E+03  0.65893936225E+03  0.00000000000E+00 0.  1.
</event>
<event>
 4    1  0.6935156E+001  0.3565136E+02  0.7546771E-02  0.1376041E+00
          2   -1    0    0  502    0  0.00000000000E+00  0.00000000000E+00  0.17054158701E+04  0.17054158701E+04  0.00000000000E+00 0. -1.
         -2   -1    0    0    0  501 -0.00000000000E+00 -0.00000000000E+00 -0.79847363130E+00  0.79847363130E+00  0.00000000000E+00 0.  1.
          1    1    1    2  502    0  0.24125329125E+02 -0.26248574961E+02  0.63212421108E+03  0.63312876844E+03  0.00000000000E+00 0. -1.
         -1    1    1    2    0  501 -0.24125329125E+02  0.26248574961E+02  0.10724931854E+04  0.10730855753E+04  0.00000000000E+00 0.  1.
</event>
<event>
 4    1  0.6935156E+001  0.2221115E+02  0.7546771E-02  0.1502649E+00
          2   -1    0    0  502    0  0.00000000000E+00  0.00000000000E+00  0.52861326983E+01  0.52861326983E+01  0.00000000000E+00 0. -1.
         -2   -1    0    0    0  501 -0.00000000000E+00 -0.00000000000E+00 -0.20167469952E+03  0.20167469952E+03  0.00000000000E+00 0.  1.
          1    1    1    2  502    0 -0.63801221863E+01 -0.21275083983E+02 -0.22346354637E+02  0.31507058307E+02  0.00000000000E+00 0. -1.
         -1    1    1    2    0  501  0.63801221863E+01  0.21275083983E+02 -0.17404221219E+03  0.17545377391E+03  0.00000000000E+00 0.  1.
</event>
<event>
 4    1  0.6935156E+001  0.3472480E+02  0.7546771E-02  0.1382508E+00
          2   -1    0    0  502    0  0.00000000000E+00  0.00000000000E+00  0.15274800779E+04  0.15274800779E+04  0.00000000000E+00 0. -1.
         -2   -1    0    0    0  501 -0.00000000000E+00 -0.00000000000E+00 -0.10297008466E+01  0.10297008466E+01  0.00000000000E+00 0.  1.
          1    1    1    2  502    0 -0.80576791985E+01 -0.33776994852E+02  0.39403579299E+03  0.39556291249E+03  0.00000000000E+00 0.  1.
         -1    1    1    2    0  501  0.80576791985E+01  0.33776994852E+02  0.11324145840E+04  0.11329468662E+04  0.00000000000E+00 0. -1.
</event>
<event>
 4    1  0.6935156E+001  0.2006408E+02  0.7546771E-02  0.1533058E+00
          2   -1    0    0  502    0  0.00000000000E+00  0.00000000000E+00  0.44242809803E+03  0.44242809803E+03  0.00000000000E+00 0.  1.
         -2   -1    0    0    0  501 -0.00000000000E+00 -0.00000000000E+00 -0.10207934339E+01  0.10207934339E+01  0.00000000000E+00 0. -1.
          1    1    1    2  502    0  0.13223430810E+02  0.15090007913E+02  0.14762540694E+03  0.14898264408E+03  0.00000000000E+00 0. -1.
         -1    1    1    2    0  501 -0.13223430810E+02 -0.15090007913E+02  0.29378189765E+03  0.29446624738E+03  0.00000000000E+00 0.  1.
</event>
<event>
 4    1  0.6935156E+001  0.2276221E+02  0.7546771E-02  0.1495506E+00
          2   -1    0    0  502    0  0.00000000000E+00  0.00000000000E+00  0.69854035751E+03  0.69854035751E+03  0.00000000000E+00 0. -1.
         -2   -1    0    0    0  501 -0.00000000000E+00 -0.00000000000E+00 -0.17029281883E+01  0.17029281883E+01  0.00000000000E+00 0.  1.
          1    1    1    2  502    0  0.20832593885E+02  0.91717590821E+01  0.85373404529E+02  0.88355737412E+02  0.00000000000E+00 0.  1.
         -1    1    1    2    0  501 -0.20832593885E+02 -0.91717590821E+01  0.61146402479E+03  0.61188754828E+03  0.00000000000E+00 0. -1.
</event>
<event>
 4    1  0.6935156E+001  0.2203091E+02  0.7546771E-02  0.1505039E+00
          2   -1    0    0  502    0  0.00000000000E+00  0.00000000000E+00  0.15493940106E+03  0.15493940106E+03  0.00000000000E+00 0.  1.
         -2   -1    0    0    0  501 -0.00000000000E+00 -0.00000000000E+00 -0.31660284010E+01  0.31660284010E+01  0.00000000000E+00 0. -1.
          1    1    1    2  502    0 -0.92797932478E+01  0.19981156481E+02  0.67762111716E+02  0.71253525957E+02  0.00000000000E+00 0. -1.
         -1    1    1    2    0  501  0.92797932478E+01 -0.19981156481E+02  0.84011260940E+02  0.86851903501E+02  0.00000000000E+00 0.  1.
</event>
<event>
 4    1  0.6935156E+001  0.2292864E+02  0.7546771E-02  0.1493396E+00
          2   -1    0    0  502    0  0.00000000000E+00  0.00000000000E+00  0.22283526730E+02  0.22283526730E+02  0.00000000000E+00 0. -1.
         -2   -1    0    0    0  501 -0.00000000000E+00 -0.00000000000E+00 -0.23786225245E+02  0.23786225245E+02  0.00000000000E+00 0.  1.
          1    1    1    2  502    0 -0.87770971444E+00  0.22911835883E+02  0.13278302750E+01  0.22967057520E+02  0.00000000000E+00 0.  1.
         -1    1    1    2    0  501  0.87770971444E+00 -0.22911835883E+02 -0.28305287895E+01  0.23102694455E+02  0.00000000000E+00 0. -1.
</event>
<event>
 4    1  0.6935156E+001  0.3118146E+02  0.7546771E-02  0.1409600E+00
          2   -1    0    0  502    0  0.00000000000E+00  0.00000000000E+00  0.71065899793E+01  0.71065899793E+01  0.00000000000E+00 0.  1.
         -2   -1    0    0    0  501 -0.00000000000E+00 -0.00000000000E+00 -0.13694748820E+03  0.13694748820E+03  0.00000000000E+00 0. -1.
          1    1    1    2  502    0  0.36184431157E+00  0.31179359178E+02 -0.62674514523E+02  0.70002700954E+02  0.00000000000E+00 0.  1.
         -1    1    1    2    0  501 -0.36184431157E+00 -0.31179359178E+02 -0.67166383696E+02  0.74051377225E+02  0.00000000000E+00 0. -1.
</event>
<event>
 4    1  0.6935156E+001  0.2384552E+02  0.7546771E-02  0.1482145E+00
          2   -1    0    0  502    0  0.00000000000E+00  0.00000000000E+00  0.62998491338E+03  0.62998491338E+03  0.00000000000E+00 0. -1.
         -2   -1    0    0    0  501 -0.00000000000E+00 -0.00000000000E+00 -0.14576137902E+01  0.14576137902E+01  0.00000000000E+00 0.  1.
          1    1    1    2  502    0 -0.23479536966E+02  0.41617524842E+01  0.50908840430E+03  0.50964655618E+03  0.00000000000E+00 0. -1.
         -1    1    1    2    0  501  0.23479536966E+02 -0.41617524842E+01  0.11943889529E+03  0.12179597099E+03  0.00000000000E+00 0.  1.
</event>
<event>
 4    1  0.6935156E+001  0.4058094E+02  0.7546771E-02  0.1345115E+00
          2   -1    0    0  502    0  0.00000000000E+00  0.00000000000E+00  0.75584775696E+02  0.75584775696E+02  0.00000000000E+00 0.  1.
         -2   -1    0    0    0  501 -0.00000000000E+00 -0.00000000000E+00 -0.22409143078E+02  0.22409143078E+02  0.00000000000E+00 0. -1.
          1    1    1    2  502    0 -0.37828502134E+02  0.14690715773E+02  0.18427939624E+02  0.44569066205E+02  0.00000000000E+00 0. -1.
         -1    1    1    2    0  501  0.37828502134E+02 -0.14690715773E+02  0.34747692993E+02  0.53424852569E+02  0.00000000000E+00 0.  1.
</event>
<event>
 4    1  0.6935156E+001  0.4048716E+02  0.7546771E-02  0.1345654E+00
          2   -1    0    0  502    0  0.00000000000E+00  0.00000000000E+00  0.32533422788E+03  0.32533422788E+03  0.00000000000E+00 0. -1.
         -2   -1    0    0    0  501 -0.00000000000E+00 -0.00000000000E+00 -0.83520970480E+01  0.83520970480E+01  0.00000000000E+00 0.  1.
          1    1    1    2  502    0  0.30015511601E+01 -0.40375743050E+02  0.53401937160E+02  0.67014750829E+02  0.00000000000E+00 0.  1.
         -1    1    1    2    0  501 -0.30015511601E+01  0.40375743050E+02  0.26358019367E+03  0.26667157410E+03  0.00000000000E+00 0. -1.
</event>
<event>
 4    1  0.6935156E+001  0.2080383E+02  0.7546771E-02  0.1522084E+00
          2   -1    0    0  502    0  0.00000000000E+00  0.00000000000E+00  0.81929850276E+03  0.81929850276E+03  0.00000000000E+00 0.  1.
         -2   -1    0    0    0  501 -0.00000000000E+00 -0.00000000000E+00 -0.83328720016E+00  0.83328720016E+00  0.00000000000E+00 0. -1.
          1    1    1    2  502    0  0.10015293432E+02 -0.18234393553E+02  0.65733362671E+03  0.65766275249E+03  0.00000000000E+00 0. -1.
         -1    1    1    2    0  501 -0.10015293432E+02  0.18234393553E+02  0.16113158885E+03  0.16246903747E+03  0.00000000000E+00 0.  1.
</event>
<event>
 4    1  0.6935156E+001  0.2314873E+02  0.7546771E-02  0.1490639E+00
          2   -1    0    0  502    0  0.00000000000E+00  0.00000000000E+00  0.12901600560E+04  0.12901600560E+04  0.00000000000E+00 0. -1.
         -2   -1    0    0    0  501 -0.00000000000E+00 -0.00000000000E+00 -0.10271288724E+01  0.10271288724E+01  0.00000000000E+00 0.  1.
          1    1    1    2  502    0 -0.50295254364E+01 -0.22595746061E+02  0.14631898271E+03  0.14813881520E+03  0.00000000000E+00 0.  1.
         -1    1    1    2    0  501  0.50295254364E+01  0.22595746061E+02  0.11428139445E+04  0.11430483697E+04  0.00000000000E+00 0. -1.
</event>
<event>
 4    1  0.6935156E+001  0.2866452E+02  0.7546771E-02  0.1431568E+00
          2   -1    0    0  502    0  0.00000000000E+00  0.00000000000E+00  0.65600875367E+03  0.65600875367E+03  0.00000000000E+00 0.  1.
         -2   -1    0    0    0  501 -0.00000000000E+00 -0.00000000000E+00 -0.13304431566E+01  0.13304431566E+01  0.00000000000E+00 0. -1.
          1    1    1    2  502    0  0.63737113526E+01 -0.27946927430E+02  0.24779039020E+03  0.24944284400E+03  0.00000000000E+00 0. -1.
         -1    1    1    2    0  501 -0.63737113526E+01  0.27946927430E+02  0.40688792032E+03  0.40789635283E+03  0.00000000000E+00 0.  1.
</event>
<event>
 4    1  0.6935156E+001  0.4555502E+02  0.7546771E-02  0.1318687E+00
          2   -1    0    0  502    0  0.00000000000E+00  0.00000000000E+00  0.12529244526E+04  0.12529244526E+04  0.00000000000E+00 0. -1.
         -2   -1    0    0    0  501 -0.00000000000E+00 -0.00000000000E+00 -0.44083971840E+01  0.44083971840E+01  0.00000000000E+00 0.  1.
          1    1    1    2  502    0 -0.38094817162E+02  0.24980890712E+02  0.11209752239E+04  0.11219004914E+04  0.00000000000E+00 0. -1.
         -1    1    1    2    0  501  0.38094817162E+02 -0.24980890712E+02  0.12754083154E+03  0.13543235842E+03  0.00000000000E+00 0.  1.
</event>
<event>
 4    1  0.6935156E+001  0.3358439E+02  0.7546771E-02  0.1390798E+00
          2   -1    0    0  502    0  0.00000000000E+00  0.00000000000E+00  0.44397087916E+03  0.44397087916E+03  0.00000000000E+00 0.  1.
         -2   -1    0    0    0  501 -0.00000000000E+00 -0.00000000000E+00 -0.29518012905E+01  0.29518012905E+01  0.00000000000E+00 0. -1.
          1    1    1    2  502    0 -0.19409515599E+02 -0.27407702749E+02  0.30392273783E+03  0.30577269668E+03  0.00000000000E+00 0. -1.
         -1    1    1    2    0  501  0.19409515599E+02  0.27407702749E+02  0.13709634004E+03  0.14114998377E+03  0.00000000000E+00 0.  1.
</event>
<event>
 4    1  0.6935156E+001  0.2380832E+02  0.7546771E-02  0.1482590E+00
          2   -1    0    0  502    0  0.00000000000E+00  0.00000000000E+00  0.15339780890E+03  0.15339780890E+03  0.00000000000E+00 0. -1.
         -2   -1    0    0    0  501 -0.00000000000E+00 -0.00000000000E+00 -0.43608809278E+01  0.43608809278E+01  0.00000000000E+00 0.  1.
          1    1    1    2  502    0  0.19833221031E+02  0.13171159121E+02  0.10533672740E+03  0.10799380644E+03  0.00000000000E+00 0. -1.
         -1    1    1    2    0  501 -0.19833221031E+02 -0.13171159121E+02  0.43700200575E+02  0.49764883396E+02  0.00000000000E+00 0.  1.
</event>
<event>
 4    1  0.6935156E+001  0.3073443E+02  0.7546771E-02  0.1413319E+00
          2   -1    0    0  502    0  0.00000000000E+00  0.00000000000E+00  0.31208003149E+04  0.31208003149E+04  0.00000000000E+00 0. -1.
         -2   -1    0    0    0  501 -0.00000000000E+00 -0.00000000000E+00 -0.30268188428E+00  0.30268188428E+00  0.00000000000E+00 0.  1.
          1    1    1    2  502    0 -0.23105017038E+02  0.20267304130E+02  0.15569228373E+04  0.15572261643E+04  0.00000000000E+00 0.  1.
         -1    1    1    2    0  501  0.23105017038E+02 -0.20267304130E+02  0.15635747958E+04  0.15638768325E+04  0.00000000000E+00 0. -1.
</event>
<event>
 4    1  0.6935156E+001  0.2885887E+02  0.7546771E-02  0.1429779E+00
          2   -1    0    0  502    0  0.00000000000E+00  0.00000000000E+00  0.41657984510E+02  0.41657984510E+02  0.00000000000E+00 0.  1.
         -2   -1    0    0    0  501 -0.00000000000E+00 -0.00000000000E+00 -0.23761132756E+02  0.23761132756E+02  0.00000000000E+00 0. -1.
          1    1    1    2  502    0  0.15643509483E+01 -0.28816440631E+02  0.21975615703E+02  0.36273435598E+02  0.00000000000E+00 0. -1.
         -1    1    1    2    0  501 -0.15643509483E+01  0.28816440631E+02 -0.40787639490E+01  0.29145681668E+02  0.00000000000E+00 0.  1.
</event>
<event>
 4    1  0.6935156E+001  0.2091360E+02  0.7546771E-02  0.1520502E+00
          2   -1    0    0  502    0  0.00000000000E+00  0.00000000000E+00  0.14254737819E+04  0.14254737819E+04  0.00000000000E+00 0. -1.
         -2   -1    0    0    0  501 -0.00000000000E+00 -0.00000000000E+00 -0.30965179411E+00  0.30965179411E+00  0.00000000000E+00 0.  1.
          1    1    1    2  502    0  0.19636197527E+02 -0.71971144516E+01  0.64453371239E+03  0.64487292168E+03  0.00000000000E+00 0. -1.
         -1    1    1    2    0  501 -0.19636197527E+02  0.71971144516E+01  0.78063041772E+03  0.78091051202E+03  0.00000000000E+00 0.  1.
</event>
<event>
 4    1  0.6935156E+001  0.2990318E+02  0.7546771E-02  0.1420440E+00
          2   -1    0    0  502    0  0.00000000000E+00  0.00000000000E+00  0.10731354992E+04  0.10731354992E+04  0.00000000000E+00 0.  1.
         -2   -1    0    0    0  501 -0.00000000000E+00 -0.00000000000E+00 -0.83411513069E+00  0.83411513069E+00  0.00000000000E+00 0. -1.
          1    1    1    2  502    0 -0.24786195737E+02 -0.16728556378E+02  0.55335161464E+03  0.55415901105E+03  0.00000000000E+00 0. -1.
         -1    1    1    2    0  501  0.24786195737E+02  0.16728556378E+02  0.51894976945E+03  0.51981060331E+03  0.00000000000E+00 0.  1.
</event>
<event>
 4    1  0.6935156E+001  0.2105354E+02  0.7546771E-02  0.1518502E+00
          2   -1    0    0  502    0  0.00000000000E+00  0.00000000000E+00  0.11361072079E+03  0.11361072079E+03  0.00000000000E+00 0. -1.
         -2   -1    0    0    0  501 -0.00000000000E+00 -0.00000000000E+00 -0.67482240251E+01  0.67482240251E+01  0.00000000000E+00 0.  1.
          1    1    1    2  502    0 -0.20625059022E+02  0.42259299602E+01  0.92517747391E+02  0.94883007573E+02  0.00000000000E+00 0. -1.
         -1    1    1    2    0  501  0.20625059022E+02 -0.42259299602E+01  0.14344749370E+02  0.25475937238E+02  0.00000000000E+00 0.  1.
</event>
<event>
 4    1  0.6935156E+001  0.2041189E+02  0.7546771E-02  0.1527830E+00
          2   -1    0    0  502    0  0.00000000000E+00  0.00000000000E+00  0.11974491945E+02  0.11974491945E+02  0.00000000000E+00 0. -1.
         -2   -1    0    0    0  501 -0.00000000000E+00 -0.00000000000E+00 -0.44724513130E+02  0.44724513130E+02  0.00000000000E+00 0.  1.
          1    1    1    2  502    0  0.13550324960E+02 -0.15265451231E+02 -0.29733263058E+02  0.36065388392E+02  0.00000000000E+00 0.  1.
         -1    1    1    2    0  501 -0.13550324960E+02  0.15265451231E+02 -0.30167581277E+01  0.20633616683E+02  0.00000000000E+00 0. -1.
</event>
<event>
 4    1  0.6935156E+001  0.2032828E+02  0.7546771E-02  0.1529075E+00
          2   -1    0    0  502    0  0.00000000000E+00  0.00000000000E+00  0.14172666653E+04  0.14172666653E+04  0.00000000000E+00 0.  1.
         -2   -1    0    0    0  501 -0.00000000000E+00 -0.00000000000E+00 -0.13905263833E+01  0.13905263833E+01  0.00000000000E+00 0. -1.
          1    1    1    2  502    0  0.15509849696E+01  0.20269022405E+02  0.77347909051E+02  0.79974607584E+02  0.00000000000E+00 0. -1.
         -1    1    1    2    0  501 -0.15509849696E+01 -0.20269022405E+02  0.13385282298E+04  0.13386825841E+04  0.00000000000E+00 0.  1.
</event>
<event>
 4    1  0.6935156E+001  0.3386575E+02  0.7546771E-02  0.1388717E+00
          2   -1    0    0  502    0  0.00000000000E+00  0.00000000000E+00  0.39137758736E+01  0.39137758736E+01  0.00000000000E+00 0.  1.
         -2   -1    0    0    0  501 -0.00000000000E+00 -0.00000000000E+00 -0.30529361235E+03  0.30529361235E+03  0.00000000000E+00 0. -1.
          1    1    1    2  502    0 -0.29709872440E+02  0.16254622612E+02 -0.18166478169E+03  0.18479443223E+03  0.00000000000E+00 0. -1.
         -1    1    1    2    0  501  0.29709872440E+02 -0.16254622612E+02 -0.11971505479E+03  0.12441295600E+03  0.00000000000E+00 0.  1.
</event>
<event>
 4    1  0.6935156E+001  0.4580563E+02  0.7546771E-02  0.1317459E+00
          2   -1    0    0  502    0  0.00000000000E+00  0.00000000000E+00  0.24770035089E+04  0.24770035089E+04  0.00000000000E+00 0. -1.
         -2   -1    0    0    0  501 -0.00000000000E+00 -0.00000000000E+00 -0.99958472872E+00  0.99958472872E+00  0.00000000000E+00 0.  1.
          1    1    1    2  502    0 -0.89925396609E+01  0.44914247043E+02  0.17219970225E+04  0.17226061363E+04  0.00000000000E+00 0. -1.
         -1    1    1    2    0  501  0.89925396609E+01 -0.44914247043E+02  0.75400690162E+03  0.75539695726E+03  0.00000000000E+00 0.  1.
</event>
<event>
 4    1  0.6935156E+001  0.3098640E+02  0.7546771E-02  0.1411214E+00
          2   -1    0    0  502    0  0.00000000000E+00  0.00000000000E+00  0.15936633855E+04  0.15936633855E+04  0.00000000000E+00 0.  1.
         -2   -1    0    0    0  501 -0.00000000000E+00 -0.00000000000E+00 -0.65132422147E+00  0.65132422147E+00  0.00000000000E+00 0. -1.
          1    1    1    2  502    0  0.24031697093E+02  0.19561042490E+02  0.10147960183E+04  0.10152689868E+04  0.00000000000E+00 0.  1.
         -1    1    1    2    0  501 -0.24031697093E+02 -0.19561042490E+02  0.57821604299E+03  0.57904572291E+03  0.00000000000E+00 0. -1.
</event>
<event>
 4    1  0.6935156E+001  0.2727349E+02  0.7546771E-02  0.1444880E+00
          2   -1    0    0  502    0  0.00000000000E+00  0.00000000000E+00  0.47074531796E+03  0.47074531796E+03  0.00000000000E+00 0. -1.
         -2   -1    0    0    0  501 -0.00000000000E+00 -0.00000000000E+00 -0.15866512700E+01  0.15866512700E+01  0.00000000000E+00 0.  1.
          1    1    1    2  502    0 -0.19996649361E+02 -0.18546619026E+02  0.21944926500E+03  0.22113756572E+03  0.00000000000E+00 0.  1.
         -1    1    1    2    0  501  0.19996649361E+02  0.18546619026E+02  0.24970940169E+03  0.25119440351E+03  0.00000000000E+00 0. -1.
</event>
<event>
 4    1  0.6935156E+001  0.5418545E+02  0.7546771E-02  0.1280979E+00
          2   -1    0    0  502    0  0.00000000000E+00  0.00000000000E+00  0.17533641300E+03  0.17533641300E+03  0.00000000000E+00 0.  1.
         -2   -1    0    0    0  501 -0.00000000000E+00 -0.00000000000E+00 -0.19057539622E+02  0.19057539622E+02  0.00000000000E+00 0. -1.
          1    1    1    2  502    0  0.51889281172E+02 -0.15606583652E+02  0.11199535706E+03  0.12441472162E+03  0.00000000000E+00 0.  1.
         -1    1    1    2    0  501 -0.51889281172E+02  0.15606583652E+02  0.44283516323E+02  0.69979231003E+02  0.00000000000E+00 0. -1.
</event>
<event>
 4    1  0.6935156E+001  0.2398677E+02  0.7546771E-02  0.1480466E+00
          2   -1    0    0  502    0  0.00000000000E+00  0.00000000000E+00  0.16825003096E+04  0.16825003096E+04  0.00000000000E+00 0. -1.
         -2   -1    0    0    0  501 -0.00000000000E+00 -0.00000000000E+00 -0.34319958488E+00  0.34319958488E+00  0.00000000000E+00 0.  1.
          1    1    1    2  502    0  0.23943835718E+02 -0.14344746302E+01  0.79071895185E+03  0.79108269214E+03  0.00000000000E+00 0. -1.
         -1    1    1    2    0  501 -0.23943835718E+02  0.14344746302E+01  0.89143815816E+03  0.89176081704E+03  0.00000000000E+00 0.  1.
</event>
<event>
 4    1  0.6935156E+001  0.6341487E+02  0.7546771E-02  0.1248651E+00
          2   -1    0    0  502    0  0.00000000000E+00  0.00000000000E+00  0.83545723533E+03  0.83545723533E+03  0.00000000000E+00 0.  1.
         -2   -1    0    0    0  501 -0.00000000000E+00 -0.00000000000E+00 -0.49318016164E+01  0.49318016164E+01  0.00000000000E+00 0. -1.
          1    1    1    2  502    0  0.54228077024E+02 -0.32874930164E+02  0.35017418136E+03  0.35586992380E+03  0.00000000000E+00 0. -1.
         -1    1    1    2    0  501 -0.54228077024E+02  0.32874930164E+02  0.48035125235E+03  0.48451911315E+03  0.00000000000E+00 0.  1.
</event>
<event>
 4    1  0.6935156E+001  0.4193803E+02  0.7546771E-02  0.1337488E+00
          2   -1    0    0  502    0  0.00000000000E+00  0.00000000000E+00  0.81940405127E+03  0.81940405127E+03  0.00000000000E+00 0.  1.
         -2   -1    0    0    0  501 -0.00000000000E+00 -0.00000000000E+00 -0.33554286837E+01  0.33554286837E+01  0.00000000000E+00 0. -1.
          1    1    1    2  502    0  0.41821381749E+02 -0.31258265234E+01  0.16109045441E+03  0.16646000500E+03  0.00000000000E+00 0. -1.
         -1    1    1    2    0  501 -0.41821381749E+02  0.31258265234E+01  0.65495816817E+03  0.65629947495E+03  0.00000000000E+00 0.  1.
</event>
<event>
 4    1  0.6935156E+001  0.2096168E+02  0.7546771E-02  0.1519813E+00
          2   -1    0    0  502    0  0.00000000000E+00  0.00000000000E+00  0.23855785412E+03  0.23855785412E+03  0.00000000000E+00 0.  1.
         -2   -1    0    0    0  501 -0.00000000000E+00 -0.00000000000E+00 -0.20062817820E+01  0.20062817820E+01  0.00000000000E+00 0. -1.
          1    1    1    2  502    0  0.12967410164E+02 -0.16469311035E+02  0.83842788309E+02  0.86423405879E+02  0.00000000000E+00 0. -1.
         -1    1    1    2    0  501 -0.12967410164E+02  0.16469311035E+02  0.15270878403E+03  0.15414073002E+03  0.00000000000E+00 0.  1.
</event>
<event>
 4    1  0.6935156E+001  0.3451893E+02  0.7546771E-02  0.1383977E+00
          2   -1    0    0  502    0  0.00000000000E+00  0.00000000000E+00  0.95381924190E+03  0.95381924190E+03  0.00000000000E+00 0. -1.
         -2   -1    0    0    0  501 -0.00000000000E+00 -0.00000000000E+00 -0.18667486453E+01  0.18667486453E+01  0.00000000000E+00 0.  1.
          1    1    1    2  502    0 -0.26496931650E+02 -0.22123946106E+02  0.75080436077E+03  0.75159746176E+03  0.00000000000E+00 0. -1.
         -1    1    1    2    0  501  0.26496931650E+02  0.22123946106E+02  0.20114813248E+03  0.20408852878E+03  0.00000000000E+00 0.  1.
</event>
<event>
 4    1  0.6935156E+001  0.4006539E+02  0.7546771E-02  0.1348103E+00
          2   -1    0    0  502    0  0.00000000000E+00  0.00000000000E+00  0.53520598658E+03  0.53520598658E+03  0.00000000000E+00 0.  1.
         -2   -1    0    0    0  501 -0.00000000000E+00 -0.00000000000E+00 -0.31276060520E+01  0.31276060520E+01  0.00000000000E+00 0. -1.
          1    1    1    2  502    0 -0.39704402226E+02 -0.53662105211E+01  0.21151830631E+03  0.21527942232E+03  0.00000000000E+00 0. -1.
         -1    1    1    2    0  501  0.39704402226E+02  0.53662105211E+01  0.32056007423E+03  0.32305417032E+03  0.00000000000E+00 0.  1.
</event>
<event>
 4    1  0.6935156E+001  0.2545535E+02  0.7546771E-02  0.1463773E+00
          2   -1    0    0  502    0  0.00000000000E+00  0.00000000000E+00  0.80352140693E+03  0.80352140693E+03  0.00000000000E+00 0. -1.
         -2   -1    0    0    0  501 -0.00000000000E+00 -0.00000000000E+00 -0.82459555387E+00  0.82459555387E+00  0.00000000000E+00 0.  1.
          1    1    1    2  502    0  0.16173494270E+02  0.19656873525E+02  0.46105924614E+03  0.46176141355E+03  0.00000000000E+00 0.  1.
         -1    1    1    2    0  501 -0.16173494270E+02 -0.19656873525E+02  0.34163756524E+03  0.34258458893E+03  0.00000000000E+00 0. -1.
</event>
<event>
 4    1  0.6935156E+001  0.2659406E+02  0.7546771E-02  0.1451729E+00
          2   -1    0    0  502    0  0.00000000000E+00  0.00000000000E+00  0.55022818277E+01  0.55022818277E+01  0.00000000000E+00 0. -1.
         -2   -1    0    0    0  501 -0.00000000000E+00 -0.00000000000E+00 -0.20279449914E+03  0.20279449914E+03  0.00000000000E+00 0.  1.
          1    1    1    2  502    0  0.17934297541E+02 -0.19636831743E+02 -0.16166866629E+03  0.16384139235E+03  0.00000000000E+00 0.  1.
         -1    1    1    2    0  501 -0.17934297541E+02  0.19636831743E+02 -0.35623551023E+02  0.44455388612E+02  0.00000000000E+00 0. -1.
</event>
<event>
 4    1  0.6935156E+001  0.2414558E+02  0.7546771E-02  0.1478593E+00
          2   -1    0    0  502    0  0.00000000000E+00  0.00000000000E+00  0.35981576390E+03  0.35981576390E+03  0.00000000000E+00 0. -1.
         -2   -1    0    0    0  501 -0.00000000000E+00 -0.00000000000E+00 -0.21383697297E+01  0.21383697297E+01  0.00000000000E+00 0.  1.
          1    1    1    2  502    0  0.19195787363E+02 -0.14646873161E+02  0.89759427619E+02  0.92950330782E+02  0.00000000000E+00 0.  1.
         -1    1    1    2    0  501 -0.19195787363E+02  0.14646873161E+02  0.26791796655E+03  0.26900380284E+03  0.00000000000E+00 0. -1.
</event>
<event>
 4    1  0.6935156E+001  0.2081025E+02  0.7546771E-02  0.1521991E+00
          2   -1    0    0  502    0  0.00000000000E+00  0.00000000000E+00  0.50842007809E+03  0.50842007809E+03  0.00000000000E+00 0. -1.
         -2   -1    0    0    0  501 -0.00000000000E+00 -0.00000000000E+00 -0.11759664571E+01  0.11759664571E+01  0.00000000000E+00 0.  1.
          1    1    1    2  502    0 -0.74704441440E+01 -0.19423159241E+02  0.38740167763E+03  0.38796021250E+03  0.00000000000E+00 0. -1.
         -1    1    1    2    0  501  0.74704441440E+01  0.19423159241E+02  0.11984243400E+03  0.12163583204E+03  0.00000000000E+00 0.  1.
</event>
<event>
 4    1  0.6935156E+001  0.3757545E+02  0.7546771E-02  0.1363311E+00
          2   -1    0    0  502    0  0.00000000000E+00  0.00000000000E+00  0.21570901768E+02  0.21570901768E+02  0.00000000000E+00 0.  1.
         -2   -1    0    0    0  501 -0.00000000000E+00 -0.00000000000E+00 -0.86747116801E+02  0.86747116801E+02  0.00000000000E+00 0. -1.
          1    1    1    2  502    0 -0.35402953865E+02 -0.12591471671E+02 -0.59420345474E+02  0.70304279795E+02  0.00000000000E+00 0. -1.
         -1    1    1    2    0  501  0.35402953865E+02  0.12591471671E+02 -0.57558695602E+01  0.38013738774E+02  0.00000000000E+00 0.  1.
</event>
<event>
 4    1  0.6935156E+001  0.2258037E+02  0.7546771E-02  0.1497836E+00
          2   -1    0    0  502    0  0.00000000000E+00  0.00000000000E+00  0.10294698813E+03  0.10294698813E+03  0.00000000000E+00 0.  1.
         -2   -1    0    0    0  501 -0.00000000000E+00 -0.00000000000E+00 -0.53354941621E+01  0.53354941621E+01  0.00000000000E+00 0. -1.
          1    1    1    2  502    0 -0.22511963718E+02 -0.17562420154E+01  0.63306249080E+02  0.67212752280E+02  0.00000000000E+00 0.  1.
         -1    1    1    2    0  501  0.22511963718E+02  0.17562420154E+01  0.34305244891E+02  0.41069730015E+02  0.00000000000E+00 0. -1.
</event>
<event>
 4    1  0.6935156E+001  0.5036846E+02  0.7546771E-02  0.1296583E+00
          2   -1    0    0  502    0  0.00000000000E+00  0.00000000000E+00  0.10942255153E+04  0.10942255153E+04  0.00000000000E+00 0.  1.
         -2   -1    0    0    0  501 -0.00000000000E+00 -0.00000000000E+00 -0.23213106658E+01  0.23213106658E+01  0.00000000000E+00 0. -1.
          1    1    1    2  502    0  0.50205517966E+02  0.40481699698E+01  0.56496851501E+03  0.56720931292E+03  0.00000000000E+00 0. -1.
         -1    1    1    2    0  501 -0.50205517966E+02 -0.40481699698E+01  0.52693568966E+03  0.52933751308E+03  0.00000000000E+00 0.  1.
</event>
<event>
 4    1  0.6935156E+001  0.3228684E+02  0.7546771E-02  0.1400712E+00
          2   -1    0    0  502    0  0.00000000000E+00  0.00000000000E+00  0.33157926572E+03  0.33157926572E+03  0.00000000000E+00 0. -1.
         -2   -1    0    0    0  501 -0.00000000000E+00 -0.00000000000E+00 -0.51686881286E+01  0.51686881286E+01  0.00000000000E+00 0.  1.
          1    1    1    2  502    0  0.31267668332E+02  0.80481522459E+01  0.57820349489E+02  0.66224109300E+02  0.00000000000E+00 0.  1.
         -1    1    1    2    0  501 -0.31267668332E+02 -0.80481522459E+01  0.26859022810E+03  0.27052384454E+03  0.00000000000E+00 0. -1.
</event>
<event>
 4    1  0.6935156E+001  0.2388354E+02  0.7546771E-02  0.1481692E+00
          2   -1    0    0  502    0  0.00000000000E+00  0.00000000000E+00  0.23345606049E+02  0.23345606049E+02  0.00000000000E+00 0. -1.
         -2   -1    0    0    0  501 -0.00000000000E+00 -0.00000000000E+00 -0.16816136720E+03  0.16816136720E+03  0.00000000000E+00 0.  1.
          1    1    1    2  502    0  0.15383545143E+02 -0.18269374456E+02 -0.16093195881E+03  0.16269455698E+03  0.00000000000E+00 0.  1.
         -1    1    1    2    0  501 -0.15383545143E+02  0.18269374456E+02  0.16116197660E+02  0.28812416268E+02  0.00000000000E+00 0. -1.
</event>
<event>
 4    1  0.6935156E+001  0.2305034E+02  0.7546771E-02  0.1491867E+00
          2   -1    0    0  502    0  0.00000000000E+00  0.00000000000E+00  0.63248704908E+03  0.63248704908E+03  0.00000000000E+00 0. -1.
         -2   -1    0    0    0  501 -0.00000000000E+00 -0.00000000000E+00 -0.89743771682E+00  0.89743771682E+00  0.00000000000E+00 0.  1.
          1    1    1    2  502    0  0.15497699252E+02 -0.17062810881E+02  0.39588142950E+03  0.39655191895E+03  0.00000000000E+00 0.  1.
         -1    1    1    2    0  501 -0.15497699252E+02  0.17062810881E+02  0.23570818186E+03  0.23683256785E+03  0.00000000000E+00 0. -1.
</event>
<event>
 4    1  0.6935156E+001  0.2905726E+02  0.7546771E-02  0.1427969E+00
          2   -1    0    0  502    0  0.00000000000E+00  0.00000000000E+00  0.24919253989E+01  0.24919253989E+01  0.00000000000E+00 0.  1.
         -2   -1    0    0    0  501 -0.00000000000E+00 -0.00000000000E+00 -0.33985900837E+03  0.33985900837E+03  0.00000000000E+00 0. -1.
          1    1    1    2  502    0 -0.57939317233E+01  0.28473755600E+02 -0.15923768791E+03  0.16186712345E+03  0.00000000000E+00 0. -1.
         -1    1    1    2    0  501  0.57939317233E+01 -0.28473755600E+02 -0.17812939506E+03  0.18048381032E+03  0.00000000000E+00 0.  1.
</event>
<event>
 4    1  0.6935156E+001  0.2776129E+02  0.7546771E-02  0.1440107E+00
          2   -1    0    0  502    0  0.00000000000E+00  0.00000000000E+00  0.83586297508E+01  0.83586297508E+01  0.00000000000E+00 0. -1.
         -2   -1    0    0    0  501 -0.00000000000E+00 -0.00000000000E+00 -0.93772222449E+02  0.93772222449E+02  0.00000000000E+00 0.  1.
          1    1    1    2  502    0  0.26490656443E+02  0.83026714657E+01 -0.36100515187E+02  0.45540492191E+02  0.00000000000E+00 0. -1.
         -1    1    1    2    0  501 -0.26490656443E+02 -0.83026714657E+01 -0.49313077511E+02  0.56590360009E+02  0.00000000000E+00 0.  1.
</event>
<event>
 4    1  0.6935156E+001  0.2291165E+02  0.7546771E-02  0.1493611E+00
          2   -1    0    0  502    0  0.00000000000E+00  0.00000000000E+00  0.90224859781E+03  0.90224859781E+03  0.00000000000E+00 0.  1.
         -2   -1    0    0    0  501 -0.00000000000E+00 -0.00000000000E+00 -0.63419501837E+00  0.63419501837E+00  0.00000000000E+00 0. -1.
          1    1    1    2  502    0  0.16643000021E+02 -0.15746565907E+02  0.32107030310E+03  0.32188675542E+03  0.00000000000E+00 0. -1.
         -1    1    1    2    0  501 -0.16643000021E+02  0.15746565907E+02  0.58054409969E+03  0.58099603740E+03  0.00000000000E+00 0.  1.
</event>
<event>
 4    1  0.6935156E+001  0.2607078E+02  0.7546771E-02  0.1457172E+00
          2   -1    0    0  502    0  0.00000000000E+00  0.00000000000E+00  0.13284843145E+04  0.13284843145E+04  0.00000000000E+00 0.  1.
         -2   -1    0    0    0  501 -0.00000000000E+00 -0.00000000000E+00 -0.55392907721E+00  0.55392907721E+00  0.00000000000E+00 0. -1.
          1    1    1    2  502    0 -0.23923556677E+02  0.10360937492E+02  0.48032308130E+03  0.48103009055E+03  0.00000000000E+00 0. -1.
         -1    1    1    2    0  501  0.23923556677E+02 -0.10360937492E+02  0.84760730409E+03  0.84800815299E+03  0.00000000000E+00 0.  1.
</event>
<event>
 4    1  0.6935156E+001  0.2933816E+02  0.7546771E-02  0.1425436E+00
          2   -1    0    0  502    0  0.00000000000E+00  0.00000000000E+00  0.77549494912E+03  0.77549494912E+03  0.00000000000E+00 0.  1.
         -2   -1    0    0    0  501 -0.00000000000E+00 -0.00000000000E+00 -0.15289367935E+01  0.15289367935E+01  0.00000000000E+00 0. -1.
          1    1    1    2  502    0 -0.18768029753E+02 -0.22549687962E+02  0.18359188264E+03  0.18592123800E+03  0.00000000000E+00 0. -1.
         -1    1    1    2    0  501  0.18768029753E+02  0.22549687962E+02  0.59037412969E+03  0.59110264792E+03  0.00000000000E+00 0.  1.
</event>
<event>
 4    1  0.6935156E+001  0.2208824E+02  0.7546771E-02  0.1504276E+00
          2   -1    0    0  502    0  0.00000000000E+00  0.00000000000E+00  0.70682805096E+01  0.70682805096E+01  0.00000000000E+00 0.  1.
         -2   -1    0    0    0  501 -0.00000000000E+00 -0.00000000000E+00 -0.72227722479E+02  0.72227722479E+02  0.00000000000E+00 0. -1.
          1    1    1    2  502    0  0.20164904133E+02  0.90148313897E+01 -0.40928158293E+02  0.46508114184E+02  0.00000000000E+00 0. -1.
         -1    1    1    2    0  501 -0.20164904133E+02 -0.90148313897E+01 -0.24231283677E+02  0.32787888805E+02  0.00000000000E+00 0.  1.
</event>
<event>
 4    1  0.6935156E+001  0.2277996E+02  0.7546771E-02  0.1495280E+00
          2   -1    0    0  502    0  0.00000000000E+00  0.00000000000E+00  0.14811409791E+03  0.14811409791E+03  0.00000000000E+00 0. -1.
         -2   -1    0    0    0  501 -0.00000000000E+00 -0.00000000000E+00 -0.43928954445E+01  0.43928954445E+01  0.00000000000E+00 0.  1.
          1    1    1    2  502    0  0.13532627417E+02  0.18324700181E+02  0.10617031619E+03  0.10858665978E+03  0.00000000000E+00 0. -1.
         -1    1    1    2    0  501 -0.13532627417E+02 -0.18324700181E+02  0.37550886276E+02  0.43920333579E+02  0.00000000000E+00 0.  1.
</event>
<event>
 4    1  0.6935156E+001  0.2407812E+02  0.7546771E-02  0.1479386E+00
          2   -1    0    0  502    0  0.00000000000E+00  0.00000000000E+00  0.43967058938E+03  0.43967058938E+03  0.00000000000E+00 0. -1.
         -2   -1    0    0    0  501 -0.00000000000E+00 -0.00000000000E+00 -0.13621971889E+01  0.13621971889E+01  0.00000000000E+00 0.  1.
          1    1    1    2  502    0  0.18540910219E+01 -0.24006624835E+02  0.25859825358E+03  0.25971679276E+03  0.00000000000E+00 0. -1.
         -1    1    1    2    0  501 -0.18540910219E+01  0.24006624835E+02  0.17971013862E+03  0.18131599381E+03  0.00000000000E+00 0.  1.
</event>
<event>
 4    1  0.6935156E+001  0.2331323E+02  0.7546771E-02  0.1488602E+00
          2   -1    0    0  502    0  0.00000000000E+00  0.00000000000E+00  0.10878114575E+03  0.10878114575E+03  0.00000000000E+00 0.  1.
         -2   -1    0    0    0  501 -0.00000000000E+00 -0.00000000000E+00 -0.72146387496E+01  0.72146387496E+01  0.00000000000E+00 0. -1.
          1    1    1    2  502    0  0.33676777911E+01  0.23068709602E+02  0.82943236374E+02  0.86157339075E+02  0.00000000000E+00 0.  1.
         -1    1    1    2    0  501 -0.33676777911E+01 -0.23068709602E+02  0.18623270623E+02  0.29838445420E+02  0.00000000000E+00 0. -1.
</event>
<event>
 4    1  0.6935156E+001  0.3447390E+02  0.7546771E-02  0.1384300E+00
          2   -1    0    0  502    0  0.00000000000E+00  0.00000000000E+00  0.13530531046E+04  0.13530531046E+04  0.00000000000E+00 0.  1.
         -2   -1    0    0    0  501 -0.00000000000E+00 -0.00000000000E+00 -0.95610176634E+00  0.95610176634E+00  0.00000000000E+00 0. -1.
          1    1    1    2  502    0 -0.33540999977E+02 -0.79656046414E+01  0.48298316462E+03  0.48421192349E+03  0.00000000000E+00 0.  1.
         -1    1    1    2    0  501  0.33540999977E+02  0.79656046414E+01  0.86911383822E+03  0.86979728289E+03  0.00000000000E+00 0. -1.
</event>
<event>
 4    1  0.6935156E+001  0.2457657E+02  0.7546771E-02  0.1473596E+00
          2   -1    0    0  502    0  0.00000000000E+00  0.00000000000E+00  0.17651668516E+04  0.17651668516E+04  0.00000000000E+00 0.  1.
         -2   -1    0    0    0  501 -0.00000000000E+00 -0.00000000000E+00 -0.35259950946E+00  0.35259950946E+00  0.00000000000E+00 0. -1.
          1    1    1    2  502    0 -0.12716598141E+02  0.21030835793E+02  0.10341430272E+04  0.10344350191E+04  0.00000000000E+00 0.  1.
         -1    1    1    2    0  501  0.12716598141E+02 -0.21030835793E+02  0.73067122489E+03  0.73108443206E+03  0.00000000000E+00 0. -1.
</event>
<event>
 4    1  0.6935156E+001  0.2361672E+02  0.7546771E-02  0.1484896E+00
          2   -1    0    0  502    0  0.00000000000E+00  0.00000000000E+00  0.19769094479E+03  0.19769094479E+03  0.00000000000E+00 0.  1.
         -2   -1    0    0    0  501 -0.00000000000E+00 -0.00000000000E+00 -0.29099238301E+01  0.29099238301E+01  0.00000000000E+00 0. -1.
          1    1    1    2  502    0  0.12711228566E+02 -0.19904121833E+02  0.11489254287E+03  0.11729469641E+03  0.00000000000E+00 0.  1.
         -1    1    1    2    0  501 -0.12711228566E+02  0.19904121833E+02  0.79888478090E+02  0.83306172215E+02  0.00000000000E+00 0. -1.
</event>
<event>
 4    1  0.6935156E+001  0.4425846E+02  0.7546771E-02  0.1325189E+00
          2   -1    0    0  502    0  0.00000000000E+00  0.00000000000E+00  0.12516867061E+04  0.12516867061E+04  0.00000000000E+00 0. -1.
         -2   -1    0    0    0  501 -0.00000000000E+00 -0.00000000000E+00 -0.21555494229E+01  0.21555494229E+01  0.00000000000E+00 0.  1.
          1    1    1    2  502    0 -0.27549017932E+02 -0.34639033157E+02  0.95292520816E+03  0.95395244292E+03  0.00000000000E+00 0. -1.
         -1    1    1    2    0  501  0.27549017932E+02  0.34639033157E+02  0.29660594853E+03  0.29988981261E+03  0.00000000000E+00 0.  1.
</event>
<event>
 4    1  0.6935156E+001  0.2001664E+02  0.7546771E-02  0.1533781E+00
          2   -1    0    0  502    0  0.00000000000E+00  0.00000000000E+00  0.62329091401E+02  0.62329091401E+02  0.00000000000E+00 0.  1.
         -2   -1    0    0    0  501 -0.00000000000E+00 -0.00000000000E+00 -0.90862221642E+01  0.90862221642E+01  0.00000000000E+00 0. -1.
          1    1    1    2  502    0  0.17476242791E+02 -0.97594504126E+01  0.45934279978E+02  0.50106127485E+02  0.00000000000E+00 0.  1.
         -1    1    1    2    0  501 -0.17476242791E+02  0.97594504126E+01  0.73085892585E+01  0.21309186080E+02  0.00000000000E+00 0. -1.
</event>
<event>
 4    1  0.6935156E+001  0.2081661E+02  0.7546771E-02  0.1521899E+00
          2   -1    0    0  502    0  0.00000000000E+00  0.00000000000E+00  0.41309867099E+03  0.41309867099E+03  0.00000000000E+00 0.  1.
         -2   -1    0    0    0  501 -0.00000000000E+00 -0.00000000000E+00 -0.18054577519E+01  0.18054577519E+01  0.00000000000E+00 0. -1.
          1    1    1    2  502    0 -0.20367833466E+02 -0.42991283498E+01  0.33993019542E+03  0.34056698153E+03  0.00000000000E+00 0.  1.
         -1    1    1    2    0  501  0.20367833466E+02  0.42991283498E+01  0.71363017814E+02  0.74337147215E+02  0.00000000000E+00 0. -1.
</event>
<event>
 4    1  0.6935156E+001  0.2208034E+02  0.7546771E-02  0.1504381E+00
          2   -1    0    0  502    0  0.00000000000E+00  0.00000000000E+00  0.43476179115E+03  0.43476179115E+03  0.00000000000E+00 0.  1.
         -2   -1    0    0    0  501 -0.00000000000E+00 -0.00000000000E+00 -0.12980367696E+01  0.12980367696E+01  0.00000000000E+00 0. -1.
          1    1    1    2  502    0  0.21946833270E+02  0.24244614908E+01  0.29716115790E+03  0.29798036054E+03  0.00000000000E+00 0.  1.
         -1    1    1    2    0  501 -0.21946833270E+02 -0.24244614908E+01  0.13630259649E+03  0.13807946738E+03  0.00000000000E+00 0. -1.
</event>
<event>
 4    1  0.6935156E+001  0.3787782E+02  0.7546771E-02  0.1361391E+00
          2   -1    0    0  502    0  0.00000000000E+00  0.00000000000E+00  0.14955093847E+04  0.14955093847E+04  0.00000000000E+00 0.  1.
         -2   -1    0    0    0  501 -0.00000000000E+00 -0.00000000000E+00 -0.42352289536E+01  0.42352289536E+01  0.00000000000E+00 0. -1.
          1    1    1    2  502    0 -0.27355250173E+02 -0.26199605486E+02  0.86140942722E+02  0.94100962018E+02  0.00000000000E+00 0. -1.
         -1    1    1    2    0  501  0.27355250173E+02  0.26199605486E+02  0.14051332130E+04  0.14056436516E+04  0.00000000000E+00 0.  1.
</event>
<event>
 4    1  0.6935156E+001  0.2103996E+02  0.7546771E-02  0.1518695E+00
          2   -1    0    0  502    0  0.00000000000E+00  0.00000000000E+00  0.62022287714E+03  0.62022287714E+03  0.00000000000E+00 0. -1.
         -2   -1    0    0    0  501 -0.00000000000E+00 -0.00000000000E+00 -0.77413367172E+00  0.77413367172E+00  0.00000000000E+00 0.  1.
          1    1    1    2  502    0 -0.31515983042E+01 -0.20802576612E+02  0.39644777241E+03  0.39700568763E+03  0.00000000000E+00 0. -1.
         -1    1    1    2    0  501  0.31515983042E+01  0.20802576612E+02  0.22300097106E+03  0.22399132318E+03  0.00000000000E+00 0.  1.
</event>
<event>
 4    1  0.6935156E+001  0.3230508E+02  0.7546771E-02  0.1400568E+00
          2   -1    0    0  502    0  0.00000000000E+00  0.00000000000E+00  0.94123153932E+02  0.94123153932E+02  0.00000000000E+00 0. -1.
         -2   -1    0    0    0  501 -0.00000000000E+00 -0.00000000000E+00 -0.11752100540E+02  0.11752100540E+02  0.00000000000E+00 0.  1.
          1    1    1    2  502    0  0.35108024418E+01  0.32113738155E+02  0.53771644223E+02  0.62729639203E+02  0.00000000000E+00 0.  1.
         -1    1    1    2    0  501 -0.35108024418E+01 -0.32113738155E+02  0.28599409169E+02  0.43145615268E+02  0.00000000000E+00 0. -1.
</event>
<event>
 4    1  0.6935156E+001  0.2757438E+02  0.7546771E-02  0.1441922E+00
          2   -1    0    0  502    0  0.00000000000E+00  0.00000000000E+00  0.83175518228E+03  0.83175518228E+03  0.00000000000E+00 0. -1.
         -2   -1    0    0    0  501 -0.00000000000E+00 -0.00000000000E+00 -0.12191485627E+01  0.12191485627E+01  0.00000000000E+00 0.  1.
          1    1    1    2  502    0  0.22565525010E+02  0.15847503585E+02  0.20695110729E+03  0.20878004478E+03  0.00000000000E+00 0.  1.
         -1    1    1    2    0  501 -0.22565525010E+02 -0.15847503585E+02  0.62358492643E+03  0.62419428607E+03  0.00000000000E+00 0. -1.
</event>
<event>
 4    1  0.6935156E+001  0.2790516E+02  0.7546771E-02  0.1438721E+00
          2   -1    0    0  502    0  0.00000000000E+00  0.00000000000E+00  0.67280749802E+03  0.67280749802E+03  0.00000000000E+00 0. -1.
         -2   -1    0    0    0  501 -0.00000000000E+00 -0.00000000000E+00 -0.14520990278E+01  0.14520990278E+01  0.00000000000E+00 0.  1.
          1    1    1    2  502    0 -0.12449983298E+02 -0.24973907094E+02  0.18379841705E+03  0.18590469663E+03  0.00000000000E+00 0.  1.
         -1    1    1    2    0  501  0.12449983298E+02  0.24973907094E+02  0.48755698194E+03  0.48835490042E+03  0.00000000000E+00 0. -1.
</event>
<event>
 4    1  0.6935156E+001  0.4342108E+02  0.7546771E-02  0.1329526E+00
          2   -1    0    0  502    0  0.00000000000E+00  0.00000000000E+00  0.10226242009E+03  0.10226242009E+03  0.00000000000E+00 0.  1.
         -2   -1    0    0    0  501 -0.00000000000E+00 -0.00000000000E+00 -0.22170308629E+02  0.22170308629E+02  0.00000000000E+00 0. -1.
          1    1    1    2  502    0  0.26843163830E+02  0.34129679779E+02  0.65577658514E+02  0.78649982724E+02  0.00000000000E+00 0.  1.
         -1    1    1    2    0  501 -0.26843163830E+02 -0.34129679779E+02  0.14514452942E+02  0.45782745991E+02  0.00000000000E+00 0. -1.
</event>
<event>
 4    1  0.6935156E+001  0.2020404E+02  0.7546771E-02  0.1530939E+00
          2   -1    0    0  502    0  0.00000000000E+00  0.00000000000E+00  0.37207972973E+02  0.37207972973E+02  0.00000000000E+00 0.  1.
         -2   -1    0    0    0  501 -0.00000000000E+00 -0.00000000000E+00 -0.25087204234E+02  0.25087204234E+02  0.00000000000E+00 0. -1.
          1    1    1    2  502    0 -0.17480488111E+02  0.10130928326E+02 -0.17304279464E+02  0.26601527420E+02  0.00000000000E+00 0. -1.
         -1    1    1    2    0  501  0.17480488111E+02 -0.10130928326E+02  0.29425048203E+02  0.35693649787E+02  0.00000000000E+00 0.  1.
</event>
<event>
 4    1  0.6935156E+001  0.2754950E+02  0.7546771E-02  0.1442165E+00
          2   -1    0    0  502    0  0.00000000000E+00  0.00000000000E+00  0.47720821923E+01  0.47720821923E+01  0.00000000000E+00 0.  1.
         -2   -1    0    0    0  501 -0.00000000000E+00 -0.00000000000E+00 -0.16385467573E+03  0.16385467573E+03  0.00000000000E+00 0. -1.
          1    1    1    2  502    0  0.18667164297E+02  0.20261093309E+02 -0.93986823021E+02  0.97941297860E+02  0.00000000000E+00 0. -1.
         -1    1    1    2    0  501 -0.18667164297E+02 -0.20261093309E+02 -0.65095770515E+02  0.70685460061E+02  0.00000000000E+00 0.  1.
</event>
<event>
 4    1  0.6935156E+001  0.2014181E+02  0.7546771E-02  0.1531879E+00
          2   -1    0    0  502    0  0.00000000000E+00  0.00000000000E+00  0.61679291750E+03  0.61679291750E+03  0.00000000000E+00 0.  1.
         -2   -1    0    0    0  501 -0.00000000000E+00 -0.00000000000E+00 -0.84181467242E+00  0.84181467242E+00  0.00000000000E+00 0. -1.
          1    1    1    2  502    0 -0.16100331999E+02  0.12102562502E+02  0.16356992773E+03  0.16480538210E+03  0.00000000000E+00 0. -1.
         -1    1    1    2    0  501  0.16100331999E+02 -0.12102562502E+02  0.45238117509E+03  0.45282935007E+03  0.00000000000E+00 0.  1.
</event>
<event>
 4    1  0.6935156E+001  0.2135916E+02  0.7546771E-02  0.1514198E+00
          2   -1    0    0  502    0  0.00000000000E+00  0.00000000000E+00  0.53756241946E+02  0.53756241946E+02  0.00000000000E+00 0.  1.
         -2   -1    0    0    0  501 -0.00000000000E+00 -0.00000000000E+00 -0.84867408207E+01  0.84867408207E+01  0.00000000000E+00 0. -1.
          1    1    1    2  502    0  0.11002388103E+02  0.18307408085E+02  0.22692264819E+02  0.31163321668E+02  0.00000000000E+00 0.  1.
         -1    1    1    2    0  501 -0.11002388103E+02 -0.18307408085E+02  0.22577236305E+02  0.31079661098E+02  0.00000000000E+00 0. -1.
</event>
<event>
 4    1  0.6935156E+001  0.2437960E+02  0.7546771E-02  0.1475865E+00
          2   -1    0    0  502    0  0.00000000000E+00  0.00000000000E+00  0.35866551649E+03  0.35866551649E+03  0.00000000000E+00 0. -1.
         -2   -1    0    0    0  501 -0.00000000000E+00 -0.00000000000E+00 -0.24846857140E+01  0.24846857140E+01  0.00000000000E+00 0.  1.
          1    1    1    2  502    0  0.18916648722E+02  0.15379373401E+02  0.73879328724E+02  0.77797943017E+02  0.00000000000E+00 0.  1.
         -1    1    1    2    0  501 -0.18916648722E+02 -0.15379373401E+02  0.28230150206E+03  0.28335225919E+03  0.00000000000E+00 0. -1.
</event>
<event>
 4    1  0.6935156E+001  0.2837722E+02  0.7546771E-02  0.1434243E+00
          2   -1    0    0  502    0  0.00000000000E+00  0.00000000000E+00  0.45383299636E+02  0.45383299636E+02  0.00000000000E+00 0. -1.
         -2   -1    0    0    0  501 -0.00000000000E+00 -0.00000000000E+00 -0.17750316362E+02  0.17750316362E+02  0.00000000000E+00 0.  1.
          1    1    1    2  502    0 -0.23289610250E+02  0.16212979942E+02  0.14426943872E+02  0.31833997136E+02  0.00000000000E+00 0. -1.
         -1    1    1    2    0  501  0.23289610250E+02 -0.16212979942E+02  0.13206039402E+02  0.31299618862E+02  0.00000000000E+00 0.  1.
</event>
<event>
 4    1  0.6935156E+001  0.2326315E+02  0.7546771E-02  0.1489220E+00
          2   -1    0    0  502    0  0.00000000000E+00  0.00000000000E+00  0.41517344233E+02  0.41517344233E+02  0.00000000000E+00 0. -1.
         -2   -1    0    0    0  501 -0.00000000000E+00 -0.00000000000E+00 -0.13828434674E+02  0.13828434674E+02  0.00000000000E+00 0.  1.
          1    1    1    2  502    0 -0.22839352393E+02 -0.44201857079E+01  0.20473536853E+02  0.30989349311E+02  0.00000000000E+00 0. -1.
         -1    1    1    2    0  501  0.22839352393E+02  0.44201857079E+01  0.72153727059E+01  0.24356429597E+02  0.00000000000E+00 0.  1.
</event>
<event>
 4    1  0.6935156E+001  0.2378971E+02  0.7546771E-02  0.1482813E+00
          2   -1    0    0  502    0  0.00000000000E+00  0.00000000000E+00  0.64690299500E+03  0.64690299500E+03  0.00000000000E+00 0.  1.
         -2   -1    0    0    0  501 -0.00000000000E+00 -0.00000000000E+00 -0.87614343197E+00  0.87614343197E+00  0.00000000000E+00 0. -1.
          1    1    1    2  502    0  0.23732349490E+02 -0.16510201804E+01  0.31062243929E+03  0.31153210119E+03  0.00000000000E+00 0.  1.
         -1    1    1    2    0  501 -0.23732349490E+02  0.16510201804E+01  0.33540441227E+03  0.33624703724E+03  0.00000000000E+00 0. -1.
</event>
<event>
 4    1  0.6935156E+001  0.2320752E+02  0.7546771E-02  0.1489909E+00
          2   -1    0    0  502    0  0.00000000000E+00  0.00000000000E+00  0.27504664683E+02  0.27504664683E+02  0.00000000000E+00 0.  1.
         -2   -1    0    0    0  501 -0.00000000000E+00 -0.00000000000E+00 -0.38714692278E+02  0.38714692278E+02  0.00000000000E+00 0. -1.
          1    1    1    2  502    0  0.10951552636E+02  0.20461003720E+02  0.17670970613E+02  0.29169374021E+02  0.00000000000E+00 0.  1.
         -1    1    1    2    0  501 -0.10951552636E+02 -0.20461003720E+02 -0.28880998208E+02  0.37049982940E+02  0.00000000000E+00 0. -1.
</event>
<event>
 4    1  0.6935156E+001  0.2243263E+02  0.7546771E-02  0.1499748E+00
          2   -1    0    0  502    0  0.00000000000E+00  0.00000000000E+00  0.13471141137E+02  0.13471141137E+02  0.00000000000E+00 0. -1.
         -2   -1    0    0    0  501 -0.00000000000E+00 -0.00000000000E+00 -0.41444153355E+02  0.41444153355E+02  0.00000000000E+00 0.  1.
          1    1    1    2  502    0 -0.82420567178E+01 -0.20863638149E+02 -0.53623780720E+01  0.23064648152E+02  0.00000000000E+00 0. -1.
         -1    1    1    2    0  501  0.82420567178E+01  0.20863638149E+02 -0.22610634146E+02  0.31850646340E+02  0.00000000000E+00 0.  1.
</event>
<event>
 4    1  0.6935156E+001  0.2192052E+02  0.7546771E-02  0.1506517E+00
          2   -1    0    0  502    0  0.00000000000E+00  0.00000000000E+00  0.43001343667E+03  0.43001343667E+03  0.00000000000E+00 0. -1.
         -2   -1    0    0    0  501 -0.00000000000E+00 -0.00000000000E+00 -0.11775023673E+01  0.11775023673E+01  0.00000000000E+00 0.  1.
          1    1    1    2  502    0 -0.21457181487E+02  0.44831357776E+01  0.16572092437E+03  0.16716439189E+03  0.00000000000E+00 0.  1.
         -1    1    1    2    0  501  0.21457181487E+02 -0.44831357776E+01  0.26311500994E+03  0.26402654715E+03  0.00000000000E+00 0. -1.
</event>
<event>
 4    1  0.6935156E+001  0.3255500E+02  0.7546771E-02  0.1398618E+00
          2   -1    0    0  502    0  0.00000000000E+00  0.00000000000E+00  0.61114612603E+03  0.61114612603E+03  0.00000000000E+00 0.  1.
         -2   -1    0    0    0  501 -0.00000000000E+00 -0.00000000000E+00 -0.23649580991E+01  0.23649580991E+01  0.00000000000E+00 0. -1.
          1    1    1    2  502    0  0.72591232024E+01 -0.31735356158E+02  0.14596531506E+03  0.14955166633E+03  0.00000000000E+00 0. -1.
         -1    1    1    2    0  501 -0.72591232024E+01  0.31735356158E+02  0.46281585287E+03  0.46395941780E+03  0.00000000000E+00 0.  1.
</event>
<event>
 4    1  0.6935156E+001  0.2046581E+02  0.7546771E-02  0.1527030E+00
          2   -1    0    0  502    0  0.00000000000E+00  0.00000000000E+00  0.95955984133E+02  0.95955984133E+02  0.00000000000E+00 0. -1.
         -2   -1    0    0    0  501 -0.00000000000E+00 -0.00000000000E+00 -0.20738894885E+02  0.20738894885E+02  0.00000000000E+00 0.  1.
          1    1    1    2  502    0 -0.19988411706E+02  0.43946422918E+01 -0.14236204035E+02  0.24930282564E+02  0.00000000000E+00 0.  1.
         -1    1    1    2    0  501  0.19988411706E+02 -0.43946422918E+01  0.89453293282E+02  0.91764596454E+02  0.00000000000E+00 0. -1.
</event>
<event>
 4    1  0.6935156E+001  0.2793576E+02  0.7546771E-02  0.1438428E+00
          2   -1    0    0  502    0  0.00000000000E+00  0.00000000000E+00  0.39700543714E+01  0.39700543714E+01  0.00000000000E+00 0.  1.
         -2   -1    0    0    0  501 -0.00000000000E+00 -0.00000000000E+00 -0.19833073135E+03  0.19833073135E+03  0.00000000000E+00 0. -1.
          1    1    1    2  502    0  0.20870407596E+02 -0.18569668038E+02 -0.87658558965E+02  0.92002333906E+02  0.00000000000E+00 0.  1.
         -1    1    1    2    0  501 -0.20870407596E+02  0.18569668038E+02 -0.10670211801E+03  0.11029845181E+03  0.00000000000E+00 0. -1.
</event>
<event>
 4    1  0.6935156E+001  0.2402633E+02  0.7546771E-02  0.1479997E+00
          2   -1    0    0  502    0  0.00000000000E+00  0.00000000000E+00  0.54260178314E+03  0.54260178314E+03  0.00000000000E+00 0. -1.
         -2   -1    0    0    0  501 -0.00000000000E+00 -0.00000000000E+00 -0.11871530887E+01  0.11871530887E+01  0.00000000000E+00 0.  1.
          1    1    1    2  502    0 -0.32629318323E+01  0.23803735139E+02  0.35832197475E+03  0.35912658231E+03  0.00000000000E+00 0. -1.
         -1    1    1    2    0  501  0.32629318323E+01 -0.23803735139E+02  0.18309265530E+03  0.18466235392E+03  0.00000000000E+00 0.  1.
</event>
<event>
 4    1  0.6935156E+001  0.2408373E+02  0.7546771E-02  0.1479320E+00
          2   -1    0    0  502    0  0.00000000000E+00  0.00000000000E+00  0.50376258580E+01  0.50376258580E+01  0.00000000000E+00 0. -1.
         -2   -1    0    0    0  501 -0.00000000000E+00 -0.00000000000E+00 -0.24416538325E+03  0.24416538325E+03  0.00000000000E+00 0.  1.
          1    1    1    2  502    0 -0.67596088157E+01 -0.23115659232E+02 -0.21014149769E+03  0.21151707985E+03  0.00000000000E+00 0.  1.
         -1    1    1    2    0  501  0.67596088157E+01  0.23115659232E+02 -0.28986259693E+02  0.37685929258E+02  0.00000000000E+00 0. -1.
</event>
<event>
 4    1  0.6935156E+001  0.2987225E+02  0.7546771E-02  0.1420710E+00
          2   -1    0    0  502    0  0.00000000000E+00  0.00000000000E+00  0.18759019095E+02  0.18759019095E+02  0.00000000000E+00 0.  1.
         -2   -1    0    0    0  501 -0.00000000000E+00 -0.00000000000E+00 -0.17076642273E+03  0.17076642273E+03  0.00000000000E+00 0. -1.
          1    1    1    2  502    0  0.23192212030E+02 -0.18827446502E+02  0.44853384426E+01  0.30207113427E+02  0.00000000000E+00 0.  1.
         -1    1    1    2    0  501 -0.23192212030E+02  0.18827446502E+02 -0.15649274207E+03  0.15931832839E+03  0.00000000000E+00 0. -1.
</event>
<event>
 4    1  0.6935156E+001  0.2596432E+02  0.7546771E-02  0.1458298E+00
          2   -1    0    0  502    0  0.00000000000E+00  0.00000000000E+00  0.64004761985E+03  0.64004761985E+03  0.00000000000E+00 0.  1.
         -2   -1    0    0    0  501 -0.00000000000E+00 -0.00000000000E+00 -0.10653481617E+01  0.10653481617E+01  0.00000000000E+00 0. -1.
          1    1    1    2  502    0 -0.24845618454E+02  0.75393223268E+01  0.28536635777E+03  0.28654511737E+03  0.00000000000E+00 0. -1.
         -1    1    1    2    0  501  0.24845618454E+02 -0.75393223268E+01  0.35361591391E+03  0.35456785064E+03  0.00000000000E+00 0.  1.
</event>
<event>
 4    1  0.6935156E+001  0.2235807E+02  0.7546771E-02  0.1500720E+00
          2   -1    0    0  502    0  0.00000000000E+00  0.00000000000E+00  0.75357903487E+02  0.75357903487E+02  0.00000000000E+00 0. -1.
         -2   -1    0    0    0  501 -0.00000000000E+00 -0.00000000000E+00 -0.83544668686E+01  0.83544668686E+01  0.00000000000E+00 0.  1.
          1    1    1    2  502    0  0.12247140190E+02 -0.18705369001E+02  0.52499031741E+02  0.57061647418E+02  0.00000000000E+00 0. -1.
         -1    1    1    2    0  501 -0.12247140190E+02  0.18705369001E+02  0.14504404877E+02  0.26650722938E+02  0.00000000000E+00 0.  1.
</event>
<event>
 4    1  0.6935156E+001  0.2575555E+02  0.7546771E-02  0.1460526E+00
          2   -1    0    0  502    0  0.00000000000E+00  0.00000000000E+00  0.17447560455E+04  0.17447560455E+04  0.00000000000E+00 0. -1.
         -2   -1    0    0    0  501 -0.00000000000E+00 -0.00000000000E+00 -0.46667600421E+00  0.46667600421E+00  0.00000000000E+00 0.  1.
          1    1    1    2  502    0  0.11678644897E+02  0.22955552920E+02  0.12477853321E+04  0.12480511140E+04  0.00000000000E+00 0. -1.
         -1    1    1    2    0  501 -0.11678644897E+02 -0.22955552920E+02  0.49650403738E+03  0.49717160749E+03  0.00000000000E+00 0.  1.
</event>
<event>
 4    1  0.6935156E+001  0.2666491E+02  0.7546771E-02  0.1451004E+00
          2   -1    0    0  502    0  0.00000000000E+00  0.00000000000E+00  0.17833286856E+02  0.17833286856E+02  0.00000000000E+00 0.  1.
         -2   -1    0    0    0  501 -0.00000000000E+00 -0.00000000000E+00 -0.42287151024E+02  0.42287151024E+02  0.00000000000E+00 0. -1.
          1    1    1    2  502    0  0.34105594525E+01  0.26445893976E+02 -0.50404014722E+01  0.27137112429E+02  0.00000000000E+00 0.  1.
         -1    1    1    2    0  501 -0.34105594525E+01 -0.26445893976E+02 -0.19413462696E+02  0.32983325451E+02  0.00000000000E+00 0. -1.
</event>
<event>
 4    1  0.6935156E+001  0.2224491E+02  0.7546771E-02  0.1502204E+00
          2   -1    0    0  502    0  0.00000000000E+00  0.00000000000E+00  0.14448716104E+03  0.14448716104E+03  0.00000000000E+00 0. -1.
         -2   -1    0    0    0  501 -0.00000000000E+00 -0.00000000000E+00 -0.40675883571E+01  0.40675883571E+01  0.00000000000E+00 0.  1.
          1    1    1    2  502    0  0.77745811499E+01  0.20842068807E+02  0.40682015355E+02  0.46366607786E+02  0.00000000000E+00 0.  1.
         -1    1    1    2    0  501 -0.77745811499E+01 -0.20842068807E+02  0.99737557327E+02  0.10218814161E+03  0.00000000000E+00 0. -1.
</event>
<event>
 4    1  0.6935156E+001  0.1611142E+03  0.7546771E-02  0.1086741E+00
          2   -1    0    0  502    0  0.00000000000E+00  0.00000000000E+00  0.73004774396E+03  0.73004774396E+03  0.00000000000E+00 0.  1.
         -2   -1    0    0    0  501 -0.00000000000E+00 -0.00000000000E+00 -0.54304833770E+02  0.54304833770E+02  0.00000000000E+00 0. -1.
          1    1    1    2  502    0 -0.44036038258E+02  0.15497939599E+03  0.10743779741E+03  0.19365088732E+03  0.00000000000E+00 0. -1.
         -1    1    1    2    0  501  0.44036038258E+02 -0.15497939599E+03  0.56830511278E+03  0.59070169041E+03  0.00000000000E+00 0.  1.
</event>
<event>
 4    1  0.6935156E+001  0.2090707E+02  0.7546771E-02  0.1520596E+00
          2   -1    0    0  502    0  0.00000000000E+00  0.00000000000E+00  0.87114378776E+03  0.87114378776E+03  0.00000000000E+00 0.  1.
         -2   -1    0    0    0  501 -0.00000000000E+00 -0.00000000000E+00 -0.51584052367E+00  0.51584052367E+00  0.00000000000E+00 0. -1.
          1    1    1    2  502    0  0.89018588720E+01 -0.18917257959E+02  0.50731810287E+03  0.50774872057E+03  0.00000000000E+00 0.  1.
         -1    1    1    2    0  501 -0.89018588720E+01  0.18917257959E+02  0.36330984436E+03  0.36391090771E+03  0.00000000000E+00 0. -1.
</event>
<event>
 4    1  0.6935156E+001  0.2174302E+02  0.7546771E-02  0.1508915E+00
          2   -1    0    0  502    0  0.00000000000E+00  0.00000000000E+00  0.50061538029E+03  0.50061538029E+03  0.00000000000E+00 0. -1.
         -2   -1    0    0    0  501 -0.00000000000E+00 -0.00000000000E+00 -0.24164451727E+01  0.24164451727E+01  0.00000000000E+00 0.  1.
          1    1    1    2  502    0 -0.12197192584E+02 -0.17999653502E+02  0.52788716704E+02  0.57091222131E+02  0.00000000000E+00 0.  1.
         -1    1    1    2    0  501  0.12197192584E+02  0.17999653502E+02  0.44541021841E+03  0.44594060333E+03  0.00000000000E+00 0. -1.
</event>
<event>
 4    1  0.6935156E+001  0.3067562E+02  0.7546771E-02  0.1413814E+00
          2   -1    0    0  502    0  0.00000000000E+00  0.00000000000E+00  0.19387581562E+02  0.19387581562E+02  0.00000000000E+00 0.  1.
         -2   -1    0    0    0  501 -0.00000000000E+00 -0.00000000000E+00 -0.14840698710E+03  0.14840698710E+03  0.00000000000E+00 0. -1.
          1    1    1    2  502    0 -0.29877025603E+02 -0.69539418702E+01  0.43144050420E+01  0.30977541176E+02  0.00000000000E+00 0.  1.
         -1    1    1    2    0  501  0.29877025603E+02  0.69539418702E+01 -0.13333381058E+03  0.13681702749E+03  0.00000000000E+00 0. -1.
</event>
<event>
 4    1  0.6935156E+001  0.4099359E+02  0.7546771E-02  0.1342760E+00
          2   -1    0    0  502    0  0.00000000000E+00  0.00000000000E+00  0.51452231723E+02  0.51452231723E+02  0.00000000000E+00 0. -1.
         -2   -1    0    0    0  501 -0.00000000000E+00 -0.00000000000E+00 -0.56248178585E+02  0.56248178585E+02  0.00000000000E+00 0.  1.
          1    1    1    2  502    0  0.22430670082E+01 -0.40932176278E+02  0.32473666275E+02  0.52297355629E+02  0.00000000000E+00 0. -1.
         -1    1    1    2    0  501 -0.22430670082E+01  0.40932176278E+02 -0.37269613136E+02  0.55403054679E+02  0.00000000000E+00 0.  1.
</event>
<event>
 4    1  0.6935156E+001  0.2002010E+02  0.7546771E-02  0.1533729E+00
          2   -1    0    0  502    0  0.00000000000E+00  0.00000000000E+00  0.43164671950E+01  0.43164671950E+01  0.00000000000E+00 0.  1.
         -2   -1    0    0    0  501 -0.00000000000E+00 -0.00000000000E+00 -0.13399947711E+03  0.13399947711E+03  0.00000000000E+00 0. -1.
          1    1    1    2  502    0  0.15461837533E+02 -0.12717546623E+02 -0.10316347946E+03  0.10508809594E+03  0.00000000000E+00 0. -1.
         -1    1    1    2    0  501 -0.15461837533E+02  0.12717546623E+02 -0.26519530449E+02  0.33227848369E+02  0.00000000000E+00 0.  1.
</event>
<event>
 4    1  0.6935156E+001  0.4163185E+02  0.7546771E-02  0.1339180E+00
          2   -1    0    0  502    0  0.00000000000E+00  0.00000000000E+00  0.94890161490E+03  0.94890161490E+03  0.00000000000E+00 0. -1.
         -2   -1    0    0    0  501 -0.00000000000E+00 -0.00000000000E+00 -0.18482307413E+01  0.18482307413E+01  0.00000000000E+00 0.  1.
          1    1    1    2  502    0  0.12047353267E+02  0.39850620555E+02  0.52502037694E+03  0.52666840316E+03  0.00000000000E+00 0. -1.
         -1    1    1    2    0  501 -0.12047353267E+02 -0.39850620555E+02  0.42203300722E+03  0.42408144249E+03  0.00000000000E+00 0.  1.
</event>
<event>
 4    1  0.6935156E+001  0.2097707E+02  0.7546771E-02  0.1519592E+00
          2   -1    0    0  502    0  0.00000000000E+00  0.00000000000E+00  0.54602020440E+03  0.54602020440E+03  0.00000000000E+00 0.  1.
         -2   -1    0    0    0  501 -0.00000000000E+00 -0.00000000000E+00 -0.90545282886E+00  0.90545282886E+00  0.00000000000E+00 0. -1.
          1    1    1    2  502    0 -0.16988309090E+02  0.12305885759E+02  0.36323351886E+03  0.36383873721E+03  0.00000000000E+00 0.  1.
         -1    1    1    2    0  501  0.16988309090E+02 -0.12305885759E+02  0.18188123271E+03  0.18308692002E+03  0.00000000000E+00 0. -1.
</event>
<event>
 4    1  0.6935156E+001  0.2516605E+02  0.7546771E-02  0.1466954E+00
          2   -1    0    0  502    0  0.00000000000E+00  0.00000000000E+00  0.26254330616E+03  0.26254330616E+03  0.00000000000E+00 0.  1.
         -2   -1    0    0    0  501 -0.00000000000E+00 -0.00000000000E+00 -0.66830358558E+01  0.66830358558E+01  0.00000000000E+00 0. -1.
          1    1    1    2  502    0 -0.23990898188E+02  0.76004374419E+01  0.20320126106E+02  0.32345592747E+02  0.00000000000E+00 0. -1.
         -1    1    1    2    0  501  0.23990898188E+02 -0.76004374419E+01  0.23554014420E+03  0.23688074927E+03  0.00000000000E+00 0.  1.
</event>
<event>
 4    1  0.6935156E+001  0.2667412E+02  0.7546771E-02  0.1450909E+00
          2   -1    0    0  502    0  0.00000000000E+00  0.00000000000E+00  0.28916530836E+03  0.28916530836E+03  0.00000000000E+00 0. -1.
         -2   -1    0    0    0  501 -0.00000000000E+00 -0.00000000000E+00 -0.32377642523E+01  0.32377642523E+01  0.00000000000E+00 0.  1.
          1    1    1    2  502    0 -0.23824876762E+02 -0.11995173305E+02  0.71333504087E+02  0.76157584919E+02  0.00000000000E+00 0.  1.
         -1    1    1    2    0  501  0.23824876762E+02  0.11995173305E+02  0.21459404002E+03  0.21624548769E+03  0.00000000000E+00 0. -1.
</event>
<event>
 4    1  0.6935156E+001  0.2626157E+02  0.7546771E-02  0.1455170E+00
          2   -1    0    0  502    0  0.00000000000E+00  0.00000000000E+00  0.70678740736E+01  0.70678740736E+01  0.00000000000E+00 0. -1.
         -2   -1    0    0    0  501 -0.00000000000E+00 -0.00000000000E+00 -0.98193883092E+02  0.98193883092E+02  0.00000000000E+00 0.  1.
          1    1    1    2  502    0 -0.11206980464E+02 -0.23750234222E+02 -0.41395302716E+02  0.49022863275E+02  0.00000000000E+00 0. -1.
         -1    1    1    2    0  501  0.11206980464E+02  0.23750234222E+02 -0.49730706302E+02  0.56238893890E+02  0.00000000000E+00 0.  1.
</event>
<event>
 4    1  0.6935156E+001  0.4360997E+02  0.7546771E-02  0.1328538E+00
          2   -1    0    0  502    0  0.00000000000E+00  0.00000000000E+00  0.21879674418E+03  0.21879674418E+03  0.00000000000E+00 0. -1.
         -2   -1    0    0    0  501 -0.00000000000E+00 -0.00000000000E+00 -0.11802631534E+02  0.11802631534E+02  0.00000000000E+00 0.  1.
          1    1    1    2  502    0  0.41201737651E+02  0.14291486923E+02  0.44307167706E+02  0.62168761401E+02  0.00000000000E+00 0.  1.
         -1    1    1    2    0  501 -0.41201737651E+02 -0.14291486923E+02  0.16268694494E+03  0.16843061431E+03  0.00000000000E+00 0. -1.
</event>
<event>
 4    1  0.6935156E+001  0.9476681E+02  0.7546771E-02  0.1173199E+00
          2   -1    0    0  502    0  0.00000000000E+00  0.00000000000E+00  0.61001212302E+03  0.61001212302E+03  0.00000000000E+00 0. -1.
         -2   -1    0    0    0  501 -0.00000000000E+00 -0.00000000000E+00 -0.15218933975E+02  0.15218933975E+02  0.00000000000E+00 0.  1.
          1    1    1    2  502    0  0.24081395968E+02  0.91656062450E+02  0.24092096799E+03  0.25888928180E+03  0.00000000000E+00 0. -1.
         -1    1    1    2    0  501 -0.24081395968E+02 -0.91656062450E+02  0.35387222106E+03  0.36634177520E+03  0.00000000000E+00 0.  1.
</event>
<event>
 4    1  0.6935156E+001  0.2355186E+02  0.7546771E-02  0.1485682E+00
          2   -1    0    0  502    0  0.00000000000E+00  0.00000000000E+00  0.96236959803E+01  0.96236959803E+01  0.00000000000E+00 0. -1.
         -2   -1    0    0    0  501 -0.00000000000E+00 -0.00000000000E+00 -0.58061221655E+02  0.58061221655E+02  0.00000000000E+00 0.  1.
          1    1    1    2  502    0 -0.22111949541E+02 -0.81087341549E+01 -0.21329144758E+02  0.31774554257E+02  0.00000000000E+00 0. -1.
         -1    1    1    2    0  501  0.22111949541E+02  0.81087341549E+01 -0.27108380917E+02  0.35910363379E+02  0.00000000000E+00 0.  1.
</event>
<event>
 4    1  0.6935156E+001  0.3401004E+02  0.7546771E-02  0.1387660E+00
          2   -1    0    0  502    0  0.00000000000E+00  0.00000000000E+00  0.14057631617E+04  0.14057631617E+04  0.00000000000E+00 0.  1.
         -2   -1    0    0    0  501 -0.00000000000E+00 -0.00000000000E+00 -0.96882669356E+00  0.96882669356E+00  0.00000000000E+00 0. -1.
          1    1    1    2  502    0  0.17071130455E+02 -0.29415295855E+02  0.42934097953E+03  0.43068591784E+03  0.00000000000E+00 0. -1.
         -1    1    1    2    0  501 -0.17071130455E+02  0.29415295855E+02  0.97545335549E+03  0.97604607056E+03  0.00000000000E+00 0.  1.
</event>
<event>
 4    1  0.6935156E+001  0.2001754E+02  0.7546771E-02  0.1533768E+00
          2   -1    0    0  502    0  0.00000000000E+00  0.00000000000E+00  0.11319337739E+04  0.11319337739E+04  0.00000000000E+00 0. -1.
         -2   -1    0    0    0  501 -0.00000000000E+00 -0.00000000000E+00 -0.35430888787E+00  0.35430888787E+00  0.00000000000E+00 0.  1.
          1    1    1    2  502    0  0.39331928637E+01 -0.19627325531E+02  0.54901053331E+03  0.54937534309E+03  0.00000000000E+00 0. -1.
         -1    1    1    2    0  501 -0.39331928637E+01  0.19627325531E+02  0.58256893169E+03  0.58291273968E+03  0.00000000000E+00 0.  1.
</event>
<event>
 4    1  0.6935156E+001  0.3343952E+02  0.7546771E-02  0.1391879E+00
          2   -1    0    0  502    0  0.00000000000E+00  0.00000000000E+00  0.26500333847E+03  0.26500333847E+03  0.00000000000E+00 0. -1.
         -2   -1    0    0    0  501 -0.00000000000E+00 -0.00000000000E+00 -0.44823349062E+01  0.44823349062E+01  0.00000000000E+00 0.  1.
          1    1    1    2  502    0  0.16401086970E+02 -0.29141131834E+02  0.97636754550E+02  0.10320434612E+03  0.00000000000E+00 0.  1.
         -1    1    1    2    0  501 -0.16401086970E+02  0.29141131834E+02  0.16288424901E+03  0.16628132726E+03  0.00000000000E+00 0. -1.
</event>
<event>
 4    1  0.6935156E+001  0.2317171E+02  0.7546771E-02  0.1490353E+00
          2   -1    0    0  502    0  0.00000000000E+00  0.00000000000E+00  0.68849042685E+03  0.68849042685E+03  0.00000000000E+00 0.  1.
         -2   -1    0    0    0  501 -0.00000000000E+00 -0.00000000000E+00 -0.78253684304E+00  0.78253684304E+00  0.00000000000E+00 0. -1.
          1    1    1    2  502    0 -0.13014193270E+02  0.19171821223E+02  0.36400077856E+03  0.36473756970E+03  0.00000000000E+00 0. -1.
         -1    1    1    2    0  501  0.13014193270E+02 -0.19171821223E+02  0.32370711144E+03  0.32453539399E+03  0.00000000000E+00 0.  1.
</event>
<event>
 4    1  0.6935156E+001  0.3092042E+02  0.7546771E-02  0.1411763E+00
          2   -1    0    0  502    0  0.00000000000E+00  0.00000000000E+00  0.32726620642E+03  0.32726620642E+03  0.00000000000E+00 0. -1.
         -2   -1    0    0    0  501 -0.00000000000E+00 -0.00000000000E+00 -0.29213922181E+01  0.29213922181E+01  0.00000000000E+00 0.  1.
          1    1    1    2  502    0  0.29909677191E+02 -0.78411647979E+01  0.16208091280E+03  0.16500392405E+03  0.00000000000E+00 0.  1.
         -1    1    1    2    0  501 -0.29909677191E+02  0.78411647979E+01  0.16226390140E+03  0.16518367459E+03  0.00000000000E+00 0. -1.
</event>
<event>
 4    1  0.6935156E+001  0.1068669E+03  0.7546771E-02  0.1152413E+00
          2   -1    0    0  502    0  0.00000000000E+00  0.00000000000E+00  0.15488767431E+04  0.15488767431E+04  0.00000000000E+00 0. -1.
         -2   -1    0    0    0  501 -0.00000000000E+00 -0.00000000000E+00 -0.12384043030E+02  0.12384043030E+02  0.00000000000E+00 0.  1.
          1    1    1    2  502    0  0.74759680150E+02 -0.76364382675E+02  0.12647927257E+04  0.12692994791E+04  0.00000000000E+00 0. -1.
         -1    1    1    2    0  501 -0.74759680150E+02  0.76364382675E+02  0.27169997440E+03  0.29196130703E+03  0.00000000000E+00 0.  1.
</event>
<event>
 4    1  0.6935156E+001  0.2629968E+02  0.7546771E-02  0.1454773E+00
          2   -1    0    0  502    0  0.00000000000E+00  0.00000000000E+00  0.79489061103E+01  0.79489061103E+01  0.00000000000E+00 0. -1.
         -2   -1    0    0    0  501 -0.00000000000E+00 -0.00000000000E+00 -0.96105824061E+02  0.96105824061E+02  0.00000000000E+00 0.  1.
          1    1    1    2  502    0  0.32507199666E+01  0.26098005818E+02 -0.28076927830E+02  0.38470598700E+02  0.00000000000E+00 0.  1.
         -1    1    1    2    0  501 -0.32507199666E+01 -0.26098005818E+02 -0.60079990121E+02  0.65584131472E+02  0.00000000000E+00 0. -1.
</event>
<event>
 4    1  0.6935156E+001  0.2640969E+02  0.7546771E-02  0.1453630E+00
          2   -1    0    0  502    0  0.00000000000E+00  0.00000000000E+00  0.21273711606E+03  0.21273711606E+03  0.00000000000E+00 0.  1.
         -2   -1    0    0    0  501 -0.00000000000E+00 -0.00000000000E+00 -0.64023542553E+01  0.64023542553E+01  0.00000000000E+00 0. -1.
          1    1    1    2  502    0 -0.26297472681E+02 -0.24320522430E+01  0.17970268168E+03  0.18163294236E+03  0.00000000000E+00 0.  1.
         -1    1    1    2    0  501  0.26297472681E+02  0.24320522430E+01  0.26632080126E+02  0.37506527957E+02  0.00000000000E+00 0. -1.
</event>
<event>
 4    1  0.6935156E+001  0.2246922E+02  0.7546771E-02  0.1499273E+00
          2   -1    0    0  502    0  0.00000000000E+00  0.00000000000E+00  0.11188498801E+04  0.11188498801E+04  0.00000000000E+00 0.  1.
         -2   -1    0    0    0  501 -0.00000000000E+00 -0.00000000000E+00 -0.45276920566E+00  0.45276920566E+00  0.00000000000E+00 0. -1.
          1    1    1    2  502    0  0.22369248676E+02 -0.21171836812E+01  0.59176179262E+03  0.59218821751E+03  0.00000000000E+00 0.  1.
         -1    1    1    2    0  501 -0.22369248676E+02  0.21171836812E+01  0.52663531824E+03  0.52711443176E+03  0.00000000000E+00 0. -1.
</event>
<event>
 4    1  0.6935156E+001  0.3368364E+02  0.7546771E-02  0.1390061E+00
          2   -1    0    0  502    0  0.00000000000E+00  0.00000000000E+00  0.23264305908E+03  0.23264305908E+03  0.00000000000E+00 0. -1.
         -2   -1    0    0    0  501 -0.00000000000E+00 -0.00000000000E+00 -0.49666742169E+01  0.49666742169E+01  0.00000000000E+00 0.  1.
          1    1    1    2  502    0 -0.51958102638E+00  0.33679632894E+02  0.97869626553E+02  0.10350387161E+03  0.00000000000E+00 0.  1.
         -1    1    1    2    0  501  0.51958102638E+00 -0.33679632894E+02  0.12980675831E+03  0.13410586169E+03  0.00000000000E+00 0. -1.
</event>
<event>
 4    1  0.6935156E+001  0.2324589E+02  0.7546771E-02  0.1489433E+00
          2   -1    0    0  502    0  0.00000000000E+00  0.00000000000E+00  0.15276913387E+03  0.15276913387E+03  0.00000000000E+00 0. -1.
         -2   -1    0    0    0  501 -0.00000000000E+00 -0.00000000000E+00 -0.93448837554E+01  0.93448837554E+01  0.00000000000E+00 0.  1.
          1    1    1    2  502    0 -0.22950177363E+02  0.36960323044E+01  0.13561288208E+03  0.13759078851E+03  0.00000000000E+00 0. -1.
         -1    1    1    2    0  501  0.22950177363E+02 -0.36960323044E+01  0.78113680332E+01  0.24523229118E+02  0.00000000000E+00 0.  1.
</event>
<event>
 4    1  0.6935156E+001  0.2732946E+02  0.7546771E-02  0.1444326E+00
          2   -1    0    0  502    0  0.00000000000E+00  0.00000000000E+00  0.96033822394E+03  0.96033822394E+03  0.00000000000E+00 0. -1.
         -2   -1    0    0    0  501 -0.00000000000E+00 -0.00000000000E+00 -0.78400616642E+00  0.78400616642E+00  0.00000000000E+00 0.  1.
          1    1    1    2  502    0 -0.13960396776E+02 -0.23494825214E+02  0.43683614413E+03  0.43769020586E+03  0.00000000000E+00 0.  1.
         -1    1    1    2    0  501  0.13960396776E+02  0.23494825214E+02  0.52271807364E+03  0.52343202424E+03  0.00000000000E+00 0. -1.
</event>
<event>
 4    1  0.6935156E+001  0.2173801E+02  0.7546771E-02  0.1508984E+00
          2   -1    0    0  502    0  0.00000000000E+00  0.00000000000E+00  0.10373699691E+04  0.10373699691E+04  0.00000000000E+00 0. -1.
         -2   -1    0    0    0  501 -0.00000000000E+00 -0.00000000000E+00 -0.66438638884E+00  0.66438638884E+00  0.00000000000E+00 0.  1.
          1    1    1    2  502    0 -0.82913017097E+01 -0.20094662172E+02  0.22734321036E+03  0.22838011391E+03  0.00000000000E+00 0.  1.
         -1    1    1    2    0  501  0.82913017097E+01  0.20094662172E+02  0.80936237237E+03  0.80965424160E+03  0.00000000000E+00 0. -1.
</event>
<event>
 4    1  0.6935156E+001  0.3230610E+02  0.7546771E-02  0.1400560E+00
          2   -1    0    0  502    0  0.00000000000E+00  0.00000000000E+00  0.14703626649E+02  0.14703626649E+02  0.00000000000E+00 0.  1.
         -2   -1    0    0    0  501 -0.00000000000E+00 -0.00000000000E+00 -0.80286277525E+02  0.80286277525E+02  0.00000000000E+00 0. -1.
          1    1    1    2  502    0  0.17634487839E+02  0.27068594242E+02 -0.48960289702E+02  0.58658280944E+02  0.00000000000E+00 0.  1.
         -1    1    1    2    0  501 -0.17634487839E+02 -0.27068594242E+02 -0.16622361174E+02  0.36331623230E+02  0.00000000000E+00 0. -1.
</event>
<event>
 4    1  0.6935156E+001  0.3340988E+02  0.7546771E-02  0.1392100E+00
          2   -1    0    0  502    0  0.00000000000E+00  0.00000000000E+00  0.16724746481E+03  0.16724746481E+03  0.00000000000E+00 0.  1.
         -2   -1    0    0    0  501 -0.00000000000E+00 -0.00000000000E+00 -0.82392898736E+01  0.82392898736E+01  0.00000000000E+00 0. -1.
          1    1    1    2  502    0 -0.27498965654E+02 -0.18974375375E+02  0.41260539781E+02  0.53090980174E+02  0.00000000000E+00 0.  1.
         -1    1    1    2    0  501  0.27498965654E+02  0.18974375375E+02  0.11774763516E+03  0.12239577451E+03  0.00000000000E+00 0. -1.
</event>
<event>
 4    1  0.6935156E+001  0.2764291E+02  0.7546771E-02  0.1441255E+00
          2   -1    0    0  502    0  0.00000000000E+00  0.00000000000E+00  0.31563755165E+03  0.31563755165E+03  0.00000000000E+00 0. -1.
         -2   -1    0    0    0  501 -0.00000000000E+00 -0.00000000000E+00 -0.28396023428E+01  0.28396023428E+01  0.00000000000E+00 0.  1.
          1    1    1    2  502    0  0.27622656362E+02 -0.10580965110E+01  0.21754469081E+03  0.21929391969E+03  0.00000000000E+00 0.  1.
         -1    1    1    2    0  501 -0.27622656362E+02  0.10580965110E+01  0.95253258496E+02  0.99183234303E+02  0.00000000000E+00 0. -1.
</event>
<event>
 4    1  0.6935156E+001  0.4357857E+02  0.7546771E-02  0.1328702E+00
          2   -1    0    0  502    0  0.00000000000E+00  0.00000000000E+00  0.21764505452E+04  0.21764505452E+04  0.00000000000E+00 0. -1.
         -2   -1    0    0    0  501 -0.00000000000E+00 -0.00000000000E+00 -0.90434361121E+00  0.90434361121E+00  0.00000000000E+00 0.  1.
          1    1    1    2  502    0 -0.41582528930E+02  0.13037841350E+02  0.88368957322E+03  0.88476344513E+03  0.00000000000E+00 0.  1.
         -1    1    1    2    0  501  0.41582528930E+02 -0.13037841350E+02  0.12918566283E+04  0.12925914436E+04  0.00000000000E+00 0. -1.
</event>
<event>
 4    1  0.6935156E+001  0.2138395E+02  0.7546771E-02  0.1513853E+00
          2   -1    0    0  502    0  0.00000000000E+00  0.00000000000E+00  0.10606953859E+03  0.10606953859E+03  0.00000000000E+00 0.  1.
         -2   -1    0    0    0  501 -0.00000000000E+00 -0.00000000000E+00 -0.12428393767E+02  0.12428393767E+02  0.00000000000E+00 0. -1.
          1    1    1    2  502    0  0.26062409140E+01  0.21224530283E+02 -0.10622471777E+01  0.21410314022E+02  0.00000000000E+00 0. -1.
         -1    1    1    2    0  501 -0.26062409140E+01 -0.21224530283E+02  0.94703392000E+02  0.97087618333E+02  0.00000000000E+00 0.  1.
</event>
<event>
 4    1  0.6935156E+001  0.2144283E+02  0.7546771E-02  0.1513035E+00
          2   -1    0    0  502    0  0.00000000000E+00  0.00000000000E+00  0.89895043173E+01  0.89895043173E+01  0.00000000000E+00 0.  1.
         -2   -1    0    0    0  501 -0.00000000000E+00 -0.00000000000E+00 -0.51924335864E+02  0.51924335864E+02  0.00000000000E+00 0. -1.
          1    1    1    2  502    0  0.21175630186E+02 -0.33745331265E+01 -0.17743180302E+02  0.27831910370E+02  0.00000000000E+00 0. -1.
         -1    1    1    2    0  501 -0.21175630186E+02  0.33745331265E+01 -0.25191651246E+02  0.33081929812E+02  0.00000000000E+00 0.  1.
</event>
<event>
 4    1  0.6935156E+001  0.1168246E+03  0.7546771E-02  0.1137476E+00
          2   -1    0    0  502    0  0.00000000000E+00  0.00000000000E+00  0.32614085249E+03  0.32614085249E+03  0.00000000000E+00 0.  1.
         -2   -1    0    0    0  501 -0.00000000000E+00 -0.00000000000E+00 -0.42745660638E+02  0.42745660638E+02  0.00000000000E+00 0. -1.
          1    1    1    2  502    0 -0.45827008463E+02  0.10746105921E+03  0.11495330132E+03  0.16389708794E+03  0.00000000000E+00 0.  1.
         -1    1    1    2    0  501  0.45827008463E+02 -0.10746105921E+03  0.16844189053E+03  0.20498942518E+03  0.00000000000E+00 0. -1.
</event>
<event>
 4    1  0.6935156E+001  0.2401876E+02  0.7546771E-02  0.1480087E+00
          2   -1    0    0  502    0  0.00000000000E+00  0.00000000000E+00  0.16900379526E+04  0.16900379526E+04  0.00000000000E+00 0. -1.
         -2   -1    0    0    0  501 -0.00000000000E+00 -0.00000000000E+00 -0.34367666717E+00  0.34367666717E+00  0.00000000000E+00 0.  1.
          1    1    1    2  502    0  0.23928143320E+02 -0.20843791933E+01  0.91433402834E+03  0.91464944982E+03  0.00000000000E+00 0.  1.
         -1    1    1    2    0  501 -0.23928143320E+02  0.20843791933E+01  0.77536024756E+03  0.77573217941E+03  0.00000000000E+00 0. -1.
</event>
<event>
 4    1  0.6935156E+001  0.3834064E+02  0.7546771E-02  0.1358494E+00
          2   -1    0    0  502    0  0.00000000000E+00  0.00000000000E+00  0.52698646797E+02  0.52698646797E+02  0.00000000000E+00 0. -1.
         -2   -1    0    0    0  501 -0.00000000000E+00 -0.00000000000E+00 -0.28037525002E+02  0.28037525002E+02  0.00000000000E+00 0.  1.
          1    1    1    2  502    0 -0.27240510950E+02 -0.26980717369E+02  0.94477739965E+01  0.39487529424E+02  0.00000000000E+00 0.  1.
         -1    1    1    2    0  501  0.27240510950E+02  0.26980717369E+02  0.15213347799E+02  0.41248642375E+02  0.00000000000E+00 0. -1.
</event>
<event>
 4    1  0.6935156E+001  0.2786723E+02  0.7546771E-02  0.1439086E+00
          2   -1    0    0  502    0  0.00000000000E+00  0.00000000000E+00  0.38810206405E+02  0.38810206405E+02  0.00000000000E+00 0.  1.
         -2   -1    0    0    0  501 -0.00000000000E+00 -0.00000000000E+00 -0.20872044550E+02  0.20872044550E+02  0.00000000000E+00 0. -1.
          1    1    1    2  502    0  0.26554971388E+02 -0.84508007873E+01  0.15034494892E+02  0.31664152855E+02  0.00000000000E+00 0.  1.
         -1    1    1    2    0  501 -0.26554971388E+02  0.84508007873E+01  0.29036669629E+01  0.28018098101E+02  0.00000000000E+00 0. -1.
</event>
<event>
 4    1  0.6935156E+001  0.2481403E+02  0.7546771E-02  0.1470895E+00
          2   -1    0    0  502    0  0.00000000000E+00  0.00000000000E+00  0.23618419788E+02  0.23618419788E+02  0.00000000000E+00 0.  1.
         -2   -1    0    0    0  501 -0.00000000000E+00 -0.00000000000E+00 -0.40326592389E+02  0.40326592389E+02  0.00000000000E+00 0. -1.
          1    1    1    2  502    0 -0.24812744243E+02 -0.25302340333E+00 -0.27364262503E+02  0.36939669192E+02  0.00000000000E+00 0.  1.
         -1    1    1    2    0  501  0.24812744243E+02  0.25302340333E+00  0.10656089902E+02  0.27005342984E+02  0.00000000000E+00 0. -1.
</event>
<event>
 4    1  0.6935156E+001  0.2356359E+02  0.7546771E-02  0.1485540E+00
          2   -1    0    0  502    0  0.00000000000E+00  0.00000000000E+00  0.24012957180E+02  0.24012957180E+02  0.00000000000E+00 0. -1.
         -2   -1    0    0    0  501 -0.00000000000E+00 -0.00000000000E+00 -0.76778104644E+02  0.76778104644E+02  0.00000000000E+00 0.  1.
          1    1    1    2  502    0  0.19760746586E+02  0.12835715995E+02 -0.68511496476E+02  0.72450451069E+02  0.00000000000E+00 0.  1.
         -1    1    1    2    0  501 -0.19760746586E+02 -0.12835715995E+02  0.15746349012E+02  0.28340610754E+02  0.00000000000E+00 0. -1.
</event>
<event>
 4    1  0.6935156E+001  0.4642485E+02  0.7546771E-02  0.1314465E+00
          2   -1    0    0  502    0  0.00000000000E+00  0.00000000000E+00  0.13816173859E+02  0.13816173859E+02  0.00000000000E+00 0. -1.
         -2   -1    0    0    0  501 -0.00000000000E+00 -0.00000000000E+00 -0.28236954306E+03  0.28236954306E+03  0.00000000000E+00 0.  1.
          1    1    1    2  502    0 -0.27030353727E+01  0.46346089976E+02 -0.23334925835E+03  0.23792255637E+03  0.00000000000E+00 0.  1.
         -1    1    1    2    0  501  0.27030353727E+01 -0.46346089976E+02 -0.35204110848E+02  0.58263160547E+02  0.00000000000E+00 0. -1.
</event>
<event>
 4    1  0.6935156E+001  0.2185329E+02  0.7546771E-02  0.1507422E+00
          2   -1    0    0  502    0  0.00000000000E+00  0.00000000000E+00  0.16814133253E+02  0.16814133253E+02  0.00000000000E+00 0.  1.
         -2   -1    0    0    0  501 -0.00000000000E+00 -0.00000000000E+00 -0.28846080293E+02  0.28846080293E+02  0.00000000000E+00 0. -1.
          1    1    1    2  502    0 -0.20257220836E+02 -0.81982569870E+01 -0.31854714434E+01  0.22084239673E+02  0.00000000000E+00 0.  1.
         -1    1    1    2    0  501  0.20257220836E+02  0.81982569870E+01 -0.88464755968E+01  0.23575973874E+02  0.00000000000E+00 0. -1.
</event>
<event>
 4    1  0.6935156E+001  0.2231656E+02  0.7546771E-02  0.1501263E+00
          2   -1    0    0  502    0  0.00000000000E+00  0.00000000000E+00  0.54228596616E+02  0.54228596616E+02  0.00000000000E+00 0.  1.
         -2   -1    0    0    0  501 -0.00000000000E+00 -0.00000000000E+00 -0.10923460832E+02  0.10923460832E+02  0.00000000000E+00 0. -1.
          1    1    1    2  502    0  0.19827026772E+02  0.10242948302E+02  0.86526626161E+01  0.23935278375E+02  0.00000000000E+00 0. -1.
         -1    1    1    2    0  501 -0.19827026772E+02 -0.10242948302E+02  0.34652473168E+02  0.41216779073E+02  0.00000000000E+00 0.  1.
</event>
<event>
 4    1  0.6935156E+001  0.8759065E+02  0.7546771E-02  0.1187244E+00
          2   -1    0    0  502    0  0.00000000000E+00  0.00000000000E+00  0.10293212755E+04  0.10293212755E+04  0.00000000000E+00 0.  1.
         -2   -1    0    0    0  501 -0.00000000000E+00 -0.00000000000E+00 -0.74874904801E+01  0.74874904801E+01  0.00000000000E+00 0. -1.
          1    1    1    2  502    0 -0.85772432322E+02  0.17754207155E+02  0.54580742888E+03  0.55279098350E+03  0.00000000000E+00 0.  1.
         -1    1    1    2    0  501  0.85772432322E+02 -0.17754207155E+02  0.47602635619E+03  0.48401778253E+03  0.00000000000E+00 0. -1.
</event>
<event>
 4    1  0.6935156E+001  0.2288431E+02  0.7546771E-02  0.1493956E+00
          2   -1    0    0  502    0  0.00000000000E+00  0.00000000000E+00  0.25732155425E+03  0.25732155425E+03  0.00000000000E+00 0. -1.
         -2   -1    0    0    0  501 -0.00000000000E+00 -0.00000000000E+00 -0.24990248408E+01  0.24990248408E+01  0.00000000000E+00 0.  1.
          1    1    1    2  502    0  0.22883327281E+02 -0.21193892763E+00  0.18338084880E+03  0.18480321234E+03  0.00000000000E+00 0.  1.
         -1    1    1    2    0  501 -0.22883327281E+02  0.21193892763E+00  0.71441680612E+02  0.75017366751E+02  0.00000000000E+00 0. -1.
</event>
<event>
 4    1  0.6935156E+001  0.2558985E+02  0.7546771E-02  0.1462312E+00
          2   -1    0    0  502    0  0.00000000000E+00  0.00000000000E+00  0.57460887178E+02  0.57460887178E+02  0.00000000000E+00 0. -1.
         -2   -1    0    0    0  501 -0.00000000000E+00 -0.00000000000E+00 -0.22603762915E+02  0.22603762915E+02  0.00000000000E+00 0.  1.
          1    1    1    2  502    0  0.10363164715E+02 -0.23397546422E+02 -0.10760101324E+02  0.27760045785E+02  0.00000000000E+00 0.  1.
         -1    1    1    2    0  501 -0.10363164715E+02  0.23397546422E+02  0.45617225588E+02  0.52304604308E+02  0.00000000000E+00 0. -1.
</event>
<event>
 4    1  0.6935156E+001  0.2649680E+02  0.7546771E-02  0.1452729E+00
          2   -1    0    0  502    0  0.00000000000E+00  0.00000000000E+00  0.10998237506E+01  0.10998237506E+01  0.00000000000E+00 0. -1.
         -2   -1    0    0    0  501 -0.00000000000E+00 -0.00000000000E+00 -0.65612709794E+03  0.65612709794E+03  0.00000000000E+00 0.  1.
          1    1    1    2  502    0 -0.23185747717E+02 -0.12825806812E+02 -0.38159354776E+03  0.38251237354E+03  0.00000000000E+00 0. -1.
         -1    1    1    2    0  501  0.23185747717E+02  0.12825806812E+02 -0.27343372642E+03  0.27471454814E+03  0.00000000000E+00 0.  1.
</event>
<event>
 4    1  0.6935156E+001  0.2264060E+02  0.7546771E-02  0.1497061E+00
          2   -1    0    0  502    0  0.00000000000E+00  0.00000000000E+00  0.31741358911E+01  0.31741358911E+01  0.00000000000E+00 0.  1.
         -2   -1    0    0    0  501 -0.00000000000E+00 -0.00000000000E+00 -0.16232238424E+03  0.16232238424E+03  0.00000000000E+00 0. -1.
          1    1    1    2  502    0 -0.22591025733E+02  0.14974691025E+01 -0.85493372245E+02  0.88440452030E+02  0.00000000000E+00 0. -1.
         -1    1    1    2    0  501  0.22591025733E+02 -0.14974691025E+01 -0.73654876105E+02  0.77056068103E+02  0.00000000000E+00 0.  1.
</event>
<event>
 4    1  0.6935156E+001  0.3795967E+02  0.7546771E-02  0.1360875E+00
          2   -1    0    0  502    0  0.00000000000E+00  0.00000000000E+00  0.53940095464E+03  0.53940095464E+03  0.00000000000E+00 0.  1.
         -2   -1    0    0    0  501 -0.00000000000E+00 -0.00000000000E+00 -0.53505533401E+01  0.53505533401E+01  0.00000000000E+00 0. -1.
          1    1    1    2  502    0  0.18664168963E+01  0.37913754971E+02  0.45976473009E+03  0.46132910526E+03  0.00000000000E+00 0.  1.
         -1    1    1    2    0  501 -0.18664168963E+01 -0.37913754971E+02  0.74285671213E+02  0.83422402720E+02  0.00000000000E+00 0. -1.
</event>
<event>
 4    1  0.6935156E+001  0.4687193E+02  0.7546771E-02  0.1312336E+00
          2   -1    0    0  502    0  0.00000000000E+00  0.00000000000E+00  0.29801696046E+02  0.29801696046E+02  0.00000000000E+00 0. -1.
         -2   -1    0    0    0  501 -0.00000000000E+00 -0.00000000000E+00 -0.11051187164E+03  0.11051187164E+03  0.00000000000E+00 0.  1.
          1    1    1    2  502    0 -0.40690130147E+02  0.23265663459E+02 -0.80835207489E+02  0.93441471293E+02  0.00000000000E+00 0.  1.
         -1    1    1    2    0  501  0.40690130147E+02 -0.23265663459E+02  0.12503189365E+00  0.46872096396E+02  0.00000000000E+00 0. -1.
</event>
<event>
 4    1  0.6935156E+001  0.1019964E+03  0.7546771E-02  0.1160393E+00
          2   -1    0    0  502    0  0.00000000000E+00  0.00000000000E+00  0.12955360228E+02  0.12955360228E+02  0.00000000000E+00 0. -1.
         -2   -1    0    0    0  501 -0.00000000000E+00 -0.00000000000E+00 -0.90949086661E+03  0.90949086661E+03  0.00000000000E+00 0.  1.
          1    1    1    2  502    0 -0.70448628741E+02  0.73758032200E+02 -0.29045141439E+03  0.30783969972E+03  0.00000000000E+00 0. -1.
         -1    1    1    2    0  501  0.70448628741E+02 -0.73758032200E+02 -0.60608409200E+03  0.61460652712E+03  0.00000000000E+00 0.  1.
</event>
<event>
 4    1  0.6935156E+001  0.2246237E+02  0.7546771E-02  0.1499362E+00
          2   -1    0    0  502    0  0.00000000000E+00  0.00000000000E+00  0.17563180656E+02  0.17563180656E+02  0.00000000000E+00 0. -1.
         -2   -1    0    0    0  501 -0.00000000000E+00 -0.00000000000E+00 -0.33044676489E+02  0.33044676489E+02  0.00000000000E+00 0.  1.
          1    1    1    2  502    0  0.10352038725E+02  0.19934728467E+02 -0.16886158608E+02  0.28101609515E+02  0.00000000000E+00 0.  1.
         -1    1    1    2    0  501 -0.10352038725E+02 -0.19934728467E+02  0.14046627748E+01  0.22506247629E+02  0.00000000000E+00 0. -1.
</event>
<event>
 4    1  0.6935156E+001  0.2603740E+02  0.7546771E-02  0.1457525E+00
          2   -1    0    0  502    0  0.00000000000E+00  0.00000000000E+00  0.57128521826E+02  0.57128521826E+02  0.00000000000E+00 0.  1.
         -2   -1    0    0    0  501 -0.00000000000E+00 -0.00000000000E+00 -0.12063570956E+02  0.12063570956E+02  0.00000000000E+00 0. -1.
          1    1    1    2  502    0 -0.26037372531E+02 -0.40729037198E-01  0.26948225923E+02  0.37472033673E+02  0.00000000000E+00 0.  1.
         -1    1    1    2    0  501  0.26037372531E+02  0.40729037198E-01  0.18116724946E+02  0.31720059110E+02  0.00000000000E+00 0. -1.
</event>
<event>
 4    1  0.6935156E+001  0.2140098E+02  0.7546771E-02  0.1513616E+00
          2   -1    0    0  502    0  0.00000000000E+00  0.00000000000E+00  0.36809388095E+02  0.36809388095E+02  0.00000000000E+00 0.  1.
         -2   -1    0    0    0  501 -0.00000000000E+00 -0.00000000000E+00 -0.12546668108E+02  0.12546668108E+02  0.00000000000E+00 0. -1.
          1    1    1    2  502    0 -0.69156411377E+01  0.20252796357E+02  0.98830579210E+01  0.23572795475E+02  0.00000000000E+00 0. -1.
         -1    1    1    2    0  501  0.69156411377E+01 -0.20252796357E+02  0.14379662066E+02  0.25783260728E+02  0.00000000000E+00 0.  1.
</event>
<event>
 4    1  0.6935156E+001  0.3217137E+02  0.7546771E-02  0.1401620E+00
          2   -1    0    0  502    0  0.00000000000E+00  0.00000000000E+00  0.18258645670E+03  0.18258645670E+03  0.00000000000E+00 0.  1.
         -2   -1    0    0    0  501 -0.00000000000E+00 -0.00000000000E+00 -0.95123443971E+01  0.95123443971E+01  0.00000000000E+00 0. -1.
          1    1    1    2  502    0  0.14190875973E+02  0.28872410715E+02  0.25480542559E+02  0.41039677271E+02  0.00000000000E+00 0. -1.
         -1    1    1    2    0  501 -0.14190875973E+02 -0.28872410715E+02  0.14759356975E+03  0.15105912383E+03  0.00000000000E+00 0.  1.
</event>
<event>
 4    1  0.6935156E+001  0.2105998E+02  0.7546771E-02  0.1518410E+00
          2   -1    0    0  502    0  0.00000000000E+00  0.00000000000E+00  0.12823453063E+02  0.12823453063E+02  0.00000000000E+00 0.  1.
         -2   -1    0    0    0  501 -0.00000000000E+00 -0.00000000000E+00 -0.34702540252E+02  0.34702540252E+02  0.00000000000E+00 0. -1.
          1    1    1    2  502    0  0.18022793196E+02 -0.10895038440E+02 -0.12311549052E+02  0.24394613693E+02  0.00000000000E+00 0. -1.
         -1    1    1    2    0  501 -0.18022793196E+02  0.10895038440E+02 -0.95675381372E+01  0.23131379621E+02  0.00000000000E+00 0.  1.
</event>
<event>
 4    1  0.6935156E+001  0.6169552E+02  0.7546771E-02  0.1254178E+00
          2   -1    0    0  502    0  0.00000000000E+00  0.00000000000E+00  0.10148881238E+04  0.10148881238E+04  0.00000000000E+00 0. -1.
         -2   -1    0    0    0  501 -0.00000000000E+00 -0.00000000000E+00 -0.38139860802E+01  0.38139860802E+01  0.00000000000E+00 0.  1.
          1    1    1    2  502    0  0.36618613055E+02  0.49652940259E+02  0.57125274335E+03  0.57457465493E+03  0.00000000000E+00 0. -1.
         -1    1    1    2    0  501 -0.36618613055E+02 -0.49652940259E+02  0.43982139433E+03  0.44412745492E+03  0.00000000000E+00 0.  1.
</event>
<event>
 4    1  0.6935156E+001  0.4913722E+02  0.7546771E-02  0.1301957E+00
          2   -1    0    0  502    0  0.00000000000E+00  0.00000000000E+00  0.11200540309E+04  0.11200540309E+04  0.00000000000E+00 0.  1.
         -2   -1    0    0    0  501 -0.00000000000E+00 -0.00000000000E+00 -0.31975479551E+01  0.31975479551E+01  0.00000000000E+00 0. -1.
          1    1    1    2  502    0 -0.40905650944E+02  0.27224884006E+02  0.23784044516E+03  0.24286322065E+03  0.00000000000E+00 0. -1.
         -1    1    1    2    0  501  0.40905650944E+02 -0.27224884006E+02  0.87901603778E+03  0.88038835821E+03  0.00000000000E+00 0.  1.
</event>
<event>
 4    1  0.6935156E+001  0.2041868E+02  0.7546771E-02  0.1527729E+00
          2   -1    0    0  502    0  0.00000000000E+00  0.00000000000E+00  0.81499244238E+02  0.81499244238E+02  0.00000000000E+00 0. -1.
         -2   -1    0    0    0  501 -0.00000000000E+00 -0.00000000000E+00 -0.51320856577E+01  0.51320856577E+01  0.00000000000E+00 0.  1.
          1    1    1    2  502    0 -0.17983489830E+02  0.96704004142E+01  0.35733168816E+02  0.41155581690E+02  0.00000000000E+00 0.  1.
         -1    1    1    2    0  501  0.17983489830E+02 -0.96704004142E+01  0.40633989764E+02  0.45475748205E+02  0.00000000000E+00 0. -1.
</event>
<event>
 4    1  0.6935156E+001  0.3068032E+02  0.7546771E-02  0.1413775E+00
          2   -1    0    0  502    0  0.00000000000E+00  0.00000000000E+00  0.21044730655E+04  0.21044730655E+04  0.00000000000E+00 0. -1.
         -2   -1    0    0    0  501 -0.00000000000E+00 -0.00000000000E+00 -0.60024817449E+00  0.60024817449E+00  0.00000000000E+00 0.  1.
          1    1    1    2  502    0  0.26166335951E+02  0.16018887174E+02  0.15832818447E+04  0.15835790734E+04  0.00000000000E+00 0. -1.
         -1    1    1    2    0  501 -0.26166335951E+02 -0.16018887174E+02  0.52059097260E+03  0.52149424027E+03  0.00000000000E+00 0.  1.
</event>
<event>
 4    1  0.6935156E+001  0.3610147E+02  0.7546771E-02  0.1372981E+00
          2   -1    0    0  502    0  0.00000000000E+00  0.00000000000E+00  0.34741791840E+03  0.34741791840E+03  0.00000000000E+00 0.  1.
         -2   -1    0    0    0  501 -0.00000000000E+00 -0.00000000000E+00 -0.47259665395E+01  0.47259665395E+01  0.00000000000E+00 0. -1.
          1    1    1    2  502    0  0.31995866841E+02 -0.16720675093E+02  0.91391585888E+02  0.98263617080E+02  0.00000000000E+00 0. -1.
         -1    1    1    2    0  501 -0.31995866841E+02  0.16720675093E+02  0.25130036597E+03  0.25388026786E+03  0.00000000000E+00 0.  1.
</event>
<event>
 4    1  0.6935156E+001  0.2154019E+02  0.7546771E-02  0.1511690E+00
          2   -1    0    0  502    0  0.00000000000E+00  0.00000000000E+00  0.19097721312E+03  0.19097721312E+03  0.00000000000E+00 0. -1.
         -2   -1    0    0    0  501 -0.00000000000E+00 -0.00000000000E+00 -0.28102292733E+01  0.28102292733E+01  0.00000000000E+00 0.  1.
          1    1    1    2  502    0 -0.38966627123E+01  0.21184798786E+02  0.12974759274E+03  0.13152344849E+03  0.00000000000E+00 0. -1.
         -1    1    1    2    0  501  0.38966627123E+01 -0.21184798786E+02  0.58419391100E+02  0.62263993900E+02  0.00000000000E+00 0.  1.
</event>
<event>
 4    1  0.6935156E+001  0.2040892E+02  0.7546771E-02  0.1527874E+00
          2   -1    0    0  502    0  0.00000000000E+00  0.00000000000E+00  0.13825534790E+03  0.13825534790E+03  0.00000000000E+00 0.  1.
         -2   -1    0    0    0  501 -0.00000000000E+00 -0.00000000000E+00 -0.31298669338E+01  0.31298669338E+01  0.00000000000E+00 0. -1.
          1    1    1    2  502    0 -0.89699912714E+00  0.20389196851E+02  0.53885897579E+02  0.57621297396E+02  0.00000000000E+00 0. -1.
         -1    1    1    2    0  501  0.89699912714E+00 -0.20389196851E+02  0.81239583384E+02  0.83763917435E+02  0.00000000000E+00 0.  1.
</event>
<event>
 4    1  0.6935156E+001  0.2319858E+02  0.7546771E-02  0.1490019E+00
          2   -1    0    0  502    0  0.00000000000E+00  0.00000000000E+00  0.10408353282E+03  0.10408353282E+03  0.00000000000E+00 0.  1.
         -2   -1    0    0    0  501 -0.00000000000E+00 -0.00000000000E+00 -0.52500928282E+01  0.52500928282E+01  0.00000000000E+00 0. -1.
          1    1    1    2  502    0  0.23138032965E+02  0.16750389680E+01  0.56143449576E+02  0.60747520570E+02  0.00000000000E+00 0.  1.
         -1    1    1    2    0  501 -0.23138032965E+02 -0.16750389680E+01  0.42689990416E+02  0.48586105079E+02  0.00000000000E+00 0. -1.
</event>
<event>
 4    1  0.6935156E+001  0.2417876E+02  0.7546771E-02  0.1478204E+00
          2   -1    0    0  502    0  0.00000000000E+00  0.00000000000E+00  0.22844917863E+02  0.22844917863E+02  0.00000000000E+00 0. -1.
         -2   -1    0    0    0  501 -0.00000000000E+00 -0.00000000000E+00 -0.26296583534E+02  0.26296583534E+02  0.00000000000E+00 0.  1.
          1    1    1    2  502    0  0.21372923446E+02  0.11305329259E+02  0.23004486176E+01  0.24287947425E+02  0.00000000000E+00 0. -1.
         -1    1    1    2    0  501 -0.21372923446E+02 -0.11305329259E+02 -0.57521142880E+01  0.24853553972E+02  0.00000000000E+00 0.  1.
</event>
<event>
 4    1  0.6935156E+001  0.2003789E+02  0.7546771E-02  0.1533457E+00
          2   -1    0    0  502    0  0.00000000000E+00  0.00000000000E+00  0.22599366259E+03  0.22599366259E+03  0.00000000000E+00 0.  1.
         -2   -1    0    0    0  501 -0.00000000000E+00 -0.00000000000E+00 -0.18299791198E+01  0.18299791198E+01  0.00000000000E+00 0. -1.
          1    1    1    2  502    0 -0.18573971620E+02  0.75182771374E+01  0.13152348285E+03  0.13304113445E+03  0.00000000000E+00 0.  1.
         -1    1    1    2    0  501  0.18573971620E+02 -0.75182771374E+01  0.92640200614E+02  0.94782507261E+02  0.00000000000E+00 0. -1.
</event>
<event>
 4    1  0.6935156E+001  0.2003066E+02  0.7546771E-02  0.1533567E+00
          2   -1    0    0  502    0  0.00000000000E+00  0.00000000000E+00  0.26124073448E+00  0.26124073448E+00  0.00000000000E+00 0.  1.
         -2   -1    0    0    0  501 -0.00000000000E+00 -0.00000000000E+00 -0.16142259072E+04  0.16142259072E+04  0.00000000000E+00 0. -1.
          1    1    1    2  502    0 -0.11934847375E+02 -0.16086852736E+02 -0.98485324020E+03  0.98505691822E+03  0.00000000000E+00 0. -1.
         -1    1    1    2    0  501  0.11934847375E+02  0.16086852736E+02 -0.62911142631E+03  0.62943022975E+03  0.00000000000E+00 0.  1.
</event>
<event>
 4    1  0.6935156E+001  0.3217912E+02  0.7546771E-02  0.1401559E+00
          2   -1    0    0  502    0  0.00000000000E+00  0.00000000000E+00  0.12556466522E+04  0.12556466522E+04  0.00000000000E+00 0. -1.
         -2   -1    0    0    0  501 -0.00000000000E+00 -0.00000000000E+00 -0.32871355454E+01  0.32871355454E+01  0.00000000000E+00 0.  1.
          1    1    1    2  502    0  0.30066189273E+02  0.11468228847E+02  0.81364783201E+02  0.87496993980E+02  0.00000000000E+00 0.  1.
         -1    1    1    2    0  501 -0.30066189273E+02 -0.11468228847E+02  0.11709947334E+04  0.11714367938E+04  0.00000000000E+00 0. -1.
</event>
<event>
 4    1  0.6935156E+001  0.2940263E+02  0.7546771E-02  0.1424860E+00
          2   -1    0    0  502    0  0.00000000000E+00  0.00000000000E+00  0.16051889370E+03  0.16051889370E+03  0.00000000000E+00 0.  1.
         -2   -1    0    0    0  501 -0.00000000000E+00 -0.00000000000E+00 -0.15691880765E+02  0.15691880765E+02  0.00000000000E+00 0. -1.
          1    1    1    2  502    0  0.29392257397E+02  0.78101635073E+00  0.14381589981E+03  0.14679076204E+03  0.00000000000E+00 0.  1.
         -1    1    1    2    0  501 -0.29392257397E+02 -0.78101635073E+00  0.10111131230E+01  0.29420012426E+02  0.00000000000E+00 0. -1.
</event>
<event>
 4    1  0.6935156E+001  0.2997020E+02  0.7546771E-02  0.1419856E+00
          2   -1    0    0  502    0  0.00000000000E+00  0.00000000000E+00  0.17242493505E+04  0.17242493505E+04  0.00000000000E+00 0.  1.
         -2   -1    0    0    0  501 -0.00000000000E+00 -0.00000000000E+00 -0.52543837891E+00  0.52543837891E+00  0.00000000000E+00 0. -1.
          1    1    1    2  502    0  0.27738763836E+02  0.11347865518E+02  0.94174520300E+03  0.94222196984E+03  0.00000000000E+00 0.  1.
         -1    1    1    2    0  501 -0.27738763836E+02 -0.11347865518E+02  0.78197870913E+03  0.78255281905E+03  0.00000000000E+00 0. -1.
</event>
<event>
 4    1  0.6935156E+001  0.2103290E+02  0.7546771E-02  0.1518796E+00
          2   -1    0    0  502    0  0.00000000000E+00  0.00000000000E+00  0.22404833275E+03  0.22404833275E+03  0.00000000000E+00 0.  1.
         -2   -1    0    0    0  501 -0.00000000000E+00 -0.00000000000E+00 -0.21533122694E+01  0.21533122694E+01  0.00000000000E+00 0. -1.
          1    1    1    2  502    0  0.18344524385E+01  0.20952747068E+02  0.14353975000E+03  0.14507254273E+03  0.00000000000E+00 0.  1.
         -1    1    1    2    0  501 -0.18344524385E+01 -0.20952747068E+02  0.78355270485E+02  0.81129102289E+02  0.00000000000E+00 0. -1.
</event>
<event>
 4    1  0.6935156E+001  0.2022944E+02  0.7546771E-02  0.1530557E+00
          2   -1    0    0  502    0  0.00000000000E+00  0.00000000000E+00  0.24941876678E+03  0.24941876678E+03  0.00000000000E+00 0.  1.
         -2   -1    0    0    0  501 -0.00000000000E+00 -0.00000000000E+00 -0.18863095478E+01  0.18863095478E+01  0.00000000000E+00 0. -1.
          1    1    1    2  502    0 -0.19486355211E+02 -0.54325225355E+01  0.16910352407E+03  0.17030922522E+03  0.00000000000E+00 0.  1.
         -1    1    1    2    0  501  0.19486355211E+02  0.54325225355E+01  0.78428933165E+02  0.80995851115E+02  0.00000000000E+00 0. -1.
</event>
<event>
 4    1  0.6935156E+001  0.1027885E+03  0.7546771E-02  0.1159062E+00
          2   -1    0    0  502    0  0.00000000000E+00  0.00000000000E+00  0.77342595336E+03  0.77342595336E+03  0.00000000000E+00 0.  1.
         -2   -1    0    0    0  501 -0.00000000000E+00 -0.00000000000E+00 -0.14406665744E+02  0.14406665744E+02  0.00000000000E+00 0. -1.
          1    1    1    2  502    0  0.10113283915E+03 -0.18374501249E+02  0.46915064140E+03  0.48027887500E+03  0.00000000000E+00 0.  1.
         -1    1    1    2    0  501 -0.10113283915E+03  0.18374501249E+02  0.28986864622E+03  0.30755374410E+03  0.00000000000E+00 0. -1.
</event>
<event>
 4    1  0.6935156E+001  0.6455104E+02  0.7546771E-02  0.1245107E+00
          2   -1    0    0  502    0  0.00000000000E+00  0.00000000000E+00  0.48161956904E+01  0.48161956904E+01  0.00000000000E+00 0. -1.
         -2   -1    0    0    0  501 -0.00000000000E+00 -0.00000000000E+00 -0.96297075967E+03  0.96297075967E+03  0.00000000000E+00 0.  1.
          1    1    1    2  502    0 -0.59857949024E+02 -0.24163261895E+02 -0.63328640339E+03  0.63656775445E+03  0.00000000000E+00 0. -1.
         -1    1    1    2    0  501  0.59857949024E+02  0.24163261895E+02 -0.32486816058E+03  0.33121920090E+03  0.00000000000E+00 0.  1.
</event>
<event>
 4    1  0.6935156E+001  0.3138292E+02  0.7546771E-02  0.1407948E+00
          2   -1    0    0  502    0  0.00000000000E+00  0.00000000000E+00  0.20575752941E+03  0.20575752941E+03  0.00000000000E+00 0.  1.
         -2   -1    0    0    0  501 -0.00000000000E+00 -0.00000000000E+00 -0.51239701919E+01  0.51239701919E+01  0.00000000000E+00 0. -1.
          1    1    1    2  502    0 -0.15936571742E+02  0.27035412796E+02  0.73262823427E+02  0.79701500365E+02  0.00000000000E+00 0.  1.
         -1    1    1    2    0  501  0.15936571742E+02 -0.27035412796E+02  0.12737073579E+03  0.13117999924E+03  0.00000000000E+00 0. -1.
</event>
<event>
 4    1  0.6935156E+001  0.2189271E+02  0.7546771E-02  0.1506891E+00
          2   -1    0    0  502    0  0.00000000000E+00  0.00000000000E+00  0.25302004418E+02  0.25302004418E+02  0.00000000000E+00 0.  1.
         -2   -1    0    0    0  501 -0.00000000000E+00 -0.00000000000E+00 -0.21310787994E+02  0.21310787994E+02  0.00000000000E+00 0. -1.
          1    1    1    2  502    0 -0.10671159153E+02  0.19115885227E+02 -0.57733984590E+01  0.22641175664E+02  0.00000000000E+00 0. -1.
         -1    1    1    2    0  501  0.10671159153E+02 -0.19115885227E+02  0.97646148835E+01  0.23971616748E+02  0.00000000000E+00 0.  1.
</event>
<event>
 4    1  0.6935156E+001  0.2866448E+02  0.7546771E-02  0.1431568E+00
          2   -1    0    0  502    0  0.00000000000E+00  0.00000000000E+00  0.11299699880E+04  0.11299699880E+04  0.00000000000E+00 0. -1.
         -2   -1    0    0    0  501 -0.00000000000E+00 -0.00000000000E+00 -0.82059658388E+00  0.82059658388E+00  0.00000000000E+00 0.  1.
          1    1    1    2  502    0 -0.11232650962E+01 -0.28642462087E+02  0.37377398577E+03  0.37487150438E+03  0.00000000000E+00 0.  1.
         -1    1    1    2    0  501  0.11232650962E+01  0.28642462087E+02  0.75537540568E+03  0.75591908024E+03  0.00000000000E+00 0. -1.
</event>
<event>
 4    1  0.6935156E+001  0.2262582E+02  0.7546771E-02  0.1497251E+00
          2   -1    0    0  502    0  0.00000000000E+00  0.00000000000E+00  0.43618513880E+01  0.43618513880E+01  0.00000000000E+00 0. -1.
         -2   -1    0    0    0  501 -0.00000000000E+00 -0.00000000000E+00 -0.11993359563E+03  0.11993359563E+03  0.00000000000E+00 0.  1.
          1    1    1    2  502    0 -0.16738477900E+02  0.15223380217E+02 -0.48690572310E+02  0.53690779279E+02  0.00000000000E+00 0. -1.
         -1    1    1    2    0  501  0.16738477900E+02 -0.15223380217E+02 -0.66881171936E+02  0.70604667744E+02  0.00000000000E+00 0.  1.
</event>
<event>
 4    1  0.6935156E+001  0.3894268E+02  0.7546771E-02  0.1354796E+00
          2   -1    0    0  502    0  0.00000000000E+00  0.00000000000E+00  0.32214693911E+01  0.32214693911E+01  0.00000000000E+00 0. -1.
         -2   -1    0    0    0  501 -0.00000000000E+00 -0.00000000000E+00 -0.72904249409E+03  0.72904249409E+03  0.00000000000E+00 0.  1.
          1    1    1    2  502    0 -0.37815399356E+02 -0.93020475312E+01 -0.58083719323E+03  0.58214120071E+03  0.00000000000E+00 0.  1.
         -1    1    1    2    0  501  0.37815399356E+02  0.93020475312E+01 -0.14498383147E+03  0.15012276278E+03  0.00000000000E+00 0. -1.
</event>
<event>
 4    1  0.6935156E+001  0.2100740E+02  0.7546771E-02  0.1519159E+00
          2   -1    0    0  502    0  0.00000000000E+00  0.00000000000E+00  0.39419823199E+03  0.39419823199E+03  0.00000000000E+00 0. -1.
         -2   -1    0    0    0  501 -0.00000000000E+00 -0.00000000000E+00 -0.11302539679E+01  0.11302539679E+01  0.00000000000E+00 0.  1.
          1    1    1    2  502    0  0.16071715956E+01 -0.20945826705E+02  0.21580171378E+03  0.21682179394E+03  0.00000000000E+00 0.  1.
         -1    1    1    2    0  501 -0.16071715956E+01  0.20945826705E+02  0.17726626424E+03  0.17850669201E+03  0.00000000000E+00 0. -1.
</event>
<event>
 4    1  0.6935156E+001  0.2516782E+02  0.7546771E-02  0.1466935E+00
          2   -1    0    0  502    0  0.00000000000E+00  0.00000000000E+00  0.69959045309E+01  0.69959045309E+01  0.00000000000E+00 0.  1.
         -2   -1    0    0    0  501 -0.00000000000E+00 -0.00000000000E+00 -0.90606136818E+02  0.90606136818E+02  0.00000000000E+00 0. -1.
          1    1    1    2  502    0 -0.22469368073E+02  0.11337834356E+02 -0.40500669707E+02  0.47683574071E+02  0.00000000000E+00 0.  1.
         -1    1    1    2    0  501  0.22469368073E+02 -0.11337834356E+02 -0.43109562580E+02  0.49918467278E+02  0.00000000000E+00 0. -1.
</event>
<event>
 4    1  0.6935156E+001  0.2107712E+02  0.7546771E-02  0.1518166E+00
          2   -1    0    0  502    0  0.00000000000E+00  0.00000000000E+00  0.31075327067E+02  0.31075327067E+02  0.00000000000E+00 0. -1.
         -2   -1    0    0    0  501 -0.00000000000E+00 -0.00000000000E+00 -0.14315321039E+02  0.14315321039E+02  0.00000000000E+00 0.  1.
          1    1    1    2  502    0 -0.20840629606E+02 -0.31485398246E+01  0.92191326271E+01  0.23005163590E+02  0.00000000000E+00 0.  1.
         -1    1    1    2    0  501  0.20840629606E+02  0.31485398246E+01  0.75408734014E+01  0.22385484517E+02  0.00000000000E+00 0. -1.
</event>
<event>
 4    1  0.6935156E+001  0.2308499E+02  0.7546771E-02  0.1491434E+00
          2   -1    0    0  502    0  0.00000000000E+00  0.00000000000E+00  0.62690302976E+03  0.62690302976E+03  0.00000000000E+00 0.  1.
         -2   -1    0    0    0  501 -0.00000000000E+00 -0.00000000000E+00 -0.13668934453E+01  0.13668934453E+01  0.00000000000E+00 0. -1.
          1    1    1    2  502    0  0.96054921129E+01 -0.20991696923E+02  0.11960839829E+03  0.12181578617E+03  0.00000000000E+00 0. -1.
         -1    1    1    2    0  501 -0.96054921129E+01  0.20991696923E+02  0.50592773802E+03  0.50645413703E+03  0.00000000000E+00 0.  1.
</event>
<event>
 4    1  0.6935156E+001  0.2185648E+02  0.7546771E-02  0.1507379E+00
          2   -1    0    0  502    0  0.00000000000E+00  0.00000000000E+00  0.21444602818E+01  0.21444602818E+01  0.00000000000E+00 0.  1.
         -2   -1    0    0    0  501 -0.00000000000E+00 -0.00000000000E+00 -0.25582911653E+03  0.25582911653E+03  0.00000000000E+00 0. -1.
          1    1    1    2  502    0  0.21622414841E+02 -0.31900925470E+01 -0.80469394505E+02  0.83384824554E+02  0.00000000000E+00 0.  1.
         -1    1    1    2    0  501 -0.21622414841E+02  0.31900925470E+01 -0.17321526175E+03  0.17458875226E+03  0.00000000000E+00 0. -1.
</event>
<event>
 4    1  0.6935156E+001  0.3216698E+02  0.7546771E-02  0.1401655E+00
          2   -1    0    0  502    0  0.00000000000E+00  0.00000000000E+00  0.14657182720E+04  0.14657182720E+04  0.00000000000E+00 0.  1.
         -2   -1    0    0    0  501 -0.00000000000E+00 -0.00000000000E+00 -0.91074497134E+00  0.91074497134E+00  0.00000000000E+00 0. -1.
          1    1    1    2  502    0 -0.98377541901E+01  0.30625694696E+02  0.38466091407E+03  0.38600354065E+03  0.00000000000E+00 0. -1.
         -1    1    1    2    0  501  0.98377541901E+01 -0.30625694696E+02  0.10801466130E+04  0.10806254763E+04  0.00000000000E+00 0.  1.
</event>
<event>
 4    1  0.6935156E+001  0.2096320E+02  0.7546771E-02  0.1519791E+00
          2   -1    0    0  502    0  0.00000000000E+00  0.00000000000E+00  0.10491244585E+04  0.10491244585E+04  0.00000000000E+00 0.  1.
         -2   -1    0    0    0  501 -0.00000000000E+00 -0.00000000000E+00 -0.67946690553E+00  0.67946690553E+00  0.00000000000E+00 0. -1.
          1    1    1    2  502    0 -0.20857078981E+02  0.21066159922E+01  0.84928858768E+03  0.84954726810E+03  0.00000000000E+00 0.  1.
         -1    1    1    2    0  501  0.20857078981E+02 -0.21066159922E+01  0.19915640390E+03  0.20025665729E+03  0.00000000000E+00 0. -1.
</event>
<event>
 4    1  0.6935156E+001  0.2071023E+02  0.7546771E-02  0.1523443E+00
          2   -1    0    0  502    0  0.00000000000E+00  0.00000000000E+00  0.18745405461E+02  0.18745405461E+02  0.00000000000E+00 0.  1.
         -2   -1    0    0    0  501 -0.00000000000E+00 -0.00000000000E+00 -0.22884616369E+02  0.22884616369E+02  0.00000000000E+00 0. -1.
          1    1    1    2  502    0  0.20458556040E+02  0.32188508010E+01 -0.23314735028E+01  0.20841048064E+02  0.00000000000E+00 0.  1.
         -1    1    1    2    0  501 -0.20458556040E+02 -0.32188508010E+01 -0.18077374056E+01  0.20788973766E+02  0.00000000000E+00 0. -1.
</event>
<event>
 4    1  0.6935156E+001  0.2179684E+02  0.7546771E-02  0.1508185E+00
          2   -1    0    0  502    0  0.00000000000E+00  0.00000000000E+00  0.15960221484E+01  0.15960221484E+01  0.00000000000E+00 0.  1.
         -2   -1    0    0    0  501 -0.00000000000E+00 -0.00000000000E+00 -0.40065262959E+03  0.40065262959E+03  0.00000000000E+00 0. -1.
          1    1    1    2  502    0  0.19785043208E+02 -0.91462617137E+01 -0.97564992884E+02  0.99970144916E+02  0.00000000000E+00 0.  1.
         -1    1    1    2    0  501 -0.19785043208E+02  0.91462617137E+01 -0.30149161456E+03  0.30227850682E+03  0.00000000000E+00 0. -1.
</event>
<event>
 4    1  0.6935156E+001  0.2485501E+02  0.7546771E-02  0.1470432E+00
          2   -1    0    0  502    0  0.00000000000E+00  0.00000000000E+00  0.47983772759E+03  0.47983772759E+03  0.00000000000E+00 0. -1.
         -2   -1    0    0    0  501 -0.00000000000E+00 -0.00000000000E+00 -0.13323583243E+01  0.13323583243E+01  0.00000000000E+00 0.  1.
          1    1    1    2  502    0 -0.10404880098E+02 -0.22572331374E+02  0.19508798719E+03  0.19666492930E+03  0.00000000000E+00 0. -1.
         -1    1    1    2    0  501  0.10404880098E+02  0.22572331374E+02  0.28341738208E+03  0.28450515661E+03  0.00000000000E+00 0.  1.
</event>
<event>
 4    1  0.6935156E+001  0.2134835E+02  0.7546771E-02  0.1514349E+00
          2   -1    0    0  502    0  0.00000000000E+00  0.00000000000E+00  0.26292698689E+03  0.26292698689E+03  0.00000000000E+00 0. -1.
         -2   -1    0    0    0  501 -0.00000000000E+00 -0.00000000000E+00 -0.18632184281E+01  0.18632184281E+01  0.00000000000E+00 0.  1.
          1    1    1    2  502    0 -0.51769378761E+01 -0.20711136535E+02  0.16548170524E+03  0.16685306899E+03  0.00000000000E+00 0. -1.
         -1    1    1    2    0  501  0.51769378761E+01  0.20711136535E+02  0.95582063219E+02  0.97937136324E+02  0.00000000000E+00 0.  1.
</event>
<event>
 4    1  0.6935156E+001  0.2067337E+02  0.7546771E-02  0.1523980E+00
          2   -1    0    0  502    0  0.00000000000E+00  0.00000000000E+00  0.18765156918E+02  0.18765156918E+02  0.00000000000E+00 0. -1.
         -2   -1    0    0    0  501 -0.00000000000E+00 -0.00000000000E+00 -0.23308231552E+02  0.23308231552E+02  0.00000000000E+00 0.  1.
          1    1    1    2  502    0  0.98853901128E+01 -0.18156741264E+02 -0.54515275153E+01  0.21380068832E+02  0.00000000000E+00 0.  1.
         -1    1    1    2    0  501 -0.98853901128E+01  0.18156741264E+02  0.90845288073E+00  0.20693319638E+02  0.00000000000E+00 0. -1.
</event>
<event>
 4    1  0.6935156E+001  0.2455770E+02  0.7546771E-02  0.1473813E+00
          2   -1    0    0  502    0  0.00000000000E+00  0.00000000000E+00  0.30406030282E+03  0.30406030282E+03  0.00000000000E+00 0.  1.
         -2   -1    0    0    0  501 -0.00000000000E+00 -0.00000000000E+00 -0.19917169011E+01  0.19917169011E+01  0.00000000000E+00 0. -1.
          1    1    1    2  502    0 -0.98544911250E+01  0.22493763334E+02  0.14115979919E+03  0.14328003800E+03  0.00000000000E+00 0.  1.
         -1    1    1    2    0  501  0.98544911250E+01 -0.22493763334E+02  0.16090878674E+03  0.16277198172E+03  0.00000000000E+00 0. -1.
</event>
<event>
 4    1  0.6935156E+001  0.2219557E+02  0.7546771E-02  0.1502854E+00
          2   -1    0    0  502    0  0.00000000000E+00  0.00000000000E+00  0.36416643302E+03  0.36416643302E+03  0.00000000000E+00 0. -1.
         -2   -1    0    0    0  501 -0.00000000000E+00 -0.00000000000E+00 -0.13545628681E+01  0.13545628681E+01  0.00000000000E+00 0.  1.
          1    1    1    2  502    0  0.68720279384E+01 -0.21104942390E+02  0.18800415885E+03  0.18930981778E+03  0.00000000000E+00 0. -1.
         -1    1    1    2    0  501 -0.68720279384E+01  0.21104942390E+02  0.17480771130E+03  0.17621117811E+03  0.00000000000E+00 0.  1.
</event>
<event>
 4    1  0.6935156E+001  0.3625648E+02  0.7546771E-02  0.1371939E+00
          2   -1    0    0  502    0  0.00000000000E+00  0.00000000000E+00  0.10582770949E+04  0.10582770949E+04  0.00000000000E+00 0.  1.
         -2   -1    0    0    0  501 -0.00000000000E+00 -0.00000000000E+00 -0.13325995525E+01  0.13325995525E+01  0.00000000000E+00 0. -1.
          1    1    1    2  502    0 -0.36107318508E+02 -0.32854090642E+01  0.66650562758E+03  0.66749103661E+03  0.00000000000E+00 0. -1.
         -1    1    1    2    0  501  0.36107318508E+02  0.32854090642E+01  0.39043886779E+03  0.39211865786E+03  0.00000000000E+00 0.  1.
</event>
<event>
 4    1  0.6935156E+001  0.2035137E+02  0.7546771E-02  0.1528730E+00
          2   -1    0    0  502    0  0.00000000000E+00  0.00000000000E+00  0.79229548489E+01  0.79229548489E+01  0.00000000000E+00 0. -1.
         -2   -1    0    0    0  501 -0.00000000000E+00 -0.00000000000E+00 -0.53693442545E+02  0.53693442545E+02  0.00000000000E+00 0.  1.
          1    1    1    2  502    0 -0.20114863620E+02  0.30936276804E+01 -0.27891341815E+02  0.34526876761E+02  0.00000000000E+00 0.  1.
         -1    1    1    2    0  501  0.20114863620E+02 -0.30936276804E+01 -0.17879145881E+02  0.27089520632E+02  0.00000000000E+00 0. -1.
</event>
<event>
 4    1  0.6935156E+001  0.2487899E+02  0.7546771E-02  0.1470162E+00
          2   -1    0    0  502    0  0.00000000000E+00  0.00000000000E+00  0.24770115894E+04  0.24770115894E+04  0.00000000000E+00 0.  1.
         -2   -1    0    0    0  501 -0.00000000000E+00 -0.00000000000E+00 -0.25174831255E+00  0.25174831255E+00  0.00000000000E+00 0. -1.
          1    1    1    2  502    0 -0.16874031040E+02 -0.18281986703E+02  0.13449888558E+04  0.13452189362E+04  0.00000000000E+00 0. -1.
         -1    1    1    2    0  501  0.16874031040E+02  0.18281986703E+02  0.11317709852E+04  0.11320444015E+04  0.00000000000E+00 0.  1.
</event>
<event>
 4    1  0.6935156E+001  0.2801870E+02  0.7546771E-02  0.1437635E+00
          2   -1    0    0  502    0  0.00000000000E+00  0.00000000000E+00  0.23593519070E+04  0.23593519070E+04  0.00000000000E+00 0.  1.
         -2   -1    0    0    0  501 -0.00000000000E+00 -0.00000000000E+00 -0.33351566108E+00  0.33351566108E+00  0.00000000000E+00 0. -1.
          1    1    1    2  502    0 -0.19493763952E+02  0.20125620748E+02  0.11225591082E+04  0.11229087224E+04  0.00000000000E+00 0. -1.
         -1    1    1    2    0  501  0.19493763952E+02 -0.20125620748E+02  0.12364592830E+04  0.12367767002E+04  0.00000000000E+00 0.  1.
</event>
<event>
 4    1  0.6935156E+001  0.3250667E+02  0.7546771E-02  0.1398994E+00
          2   -1    0    0  502    0  0.00000000000E+00  0.00000000000E+00  0.36175479695E+02  0.36175479695E+02  0.00000000000E+00 0. -1.
         -2   -1    0    0    0  501 -0.00000000000E+00 -0.00000000000E+00 -0.74061725388E+02  0.74061725388E+02  0.00000000000E+00 0.  1.
          1    1    1    2  502    0  0.23756181254E+02 -0.22188454652E+02 -0.61836589056E+02  0.69860199067E+02  0.00000000000E+00 0.  1.
         -1    1    1    2    0  501 -0.23756181254E+02  0.22188454652E+02  0.23950343363E+02  0.40377006016E+02  0.00000000000E+00 0. -1.
</event>
<event>
 4    1  0.6935156E+001  0.3285885E+02  0.7546771E-02  0.1396275E+00
          2   -1    0    0  502    0  0.00000000000E+00  0.00000000000E+00  0.39672060753E+02  0.39672060753E+02  0.00000000000E+00 0.  1.
         -2   -1    0    0    0  501 -0.00000000000E+00 -0.00000000000E+00 -0.34659293723E+02  0.34659293723E+02  0.00000000000E+00 0. -1.
          1    1    1    2  502    0  0.28681928853E+02  0.16032811315E+02 -0.14717166135E+02  0.36004153378E+02  0.00000000000E+00 0. -1.
         -1    1    1    2    0  501 -0.28681928853E+02 -0.16032811315E+02  0.19729933165E+02  0.38327201099E+02  0.00000000000E+00 0.  1.
</event>
<event>
 4    1  0.6935156E+001  0.4981047E+02  0.7546771E-02  0.1298996E+00
          2   -1    0    0  502    0  0.00000000000E+00  0.00000000000E+00  0.33048838351E+02  0.33048838351E+02  0.00000000000E+00 0.  1.
         -2   -1    0    0    0  501 -0.00000000000E+00 -0.00000000000E+00 -0.86020864983E+02  0.86020864983E+02  0.00000000000E+00 0. -1.
          1    1    1    2  502    0 -0.42773101266E+02 -0.25525371400E+02 -0.52472274099E+01  0.50086087614E+02  0.00000000000E+00 0.  1.
         -1    1    1    2    0  501  0.42773101266E+02  0.25525371400E+02 -0.47724799222E+02  0.68983615719E+02  0.00000000000E+00 0. -1.
</event>
<event>
 4    1  0.6935156E+001  0.1319704E+03  0.7546771E-02  0.1117678E+00
          2   -1    0    0  502    0  0.00000000000E+00  0.00000000000E+00  0.42444443770E+02  0.42444443770E+02  0.00000000000E+00 0.  1.
         -2   -1    0    0    0  501 -0.00000000000E+00 -0.00000000000E+00 -0.57353241722E+03  0.57353241722E+03  0.00000000000E+00 0. -1.
          1    1    1    2  502    0  0.11092527216E+02 -0.13150343209E+03 -0.10125074160E+03  0.16633673523E+03  0.00000000000E+00 0.  1.
         -1    1    1    2    0  501 -0.11092527216E+02  0.13150343209E+03 -0.42983723184E+03  0.44964012576E+03  0.00000000000E+00 0. -1.
</event>
<event>
 4    1  0.6935156E+001  0.2864468E+02  0.7546771E-02  0.1431751E+00
          2   -1    0    0  502    0  0.00000000000E+00  0.00000000000E+00  0.51762287760E+03  0.51762287760E+03  0.00000000000E+00 0. -1.
         -2   -1    0    0    0  501 -0.00000000000E+00 -0.00000000000E+00 -0.17456958959E+01  0.17456958959E+01  0.00000000000E+00 0.  1.
          1    1    1    2  502    0  0.12952973150E+02  0.25548745824E+02  0.33668667871E+03  0.33790300020E+03  0.00000000000E+00 0.  1.
         -1    1    1    2    0  501 -0.12952973150E+02 -0.25548745824E+02  0.17919050300E+03  0.18146557329E+03  0.00000000000E+00 0. -1.
</event>
<event>
 4    1  0.6935156E+001  0.2866723E+02  0.7546771E-02  0.1431543E+00
          2   -1    0    0  502    0  0.00000000000E+00  0.00000000000E+00  0.68591119917E+02  0.68591119917E+02  0.00000000000E+00 0. -1.
         -2   -1    0    0    0  501 -0.00000000000E+00 -0.00000000000E+00 -0.21753454770E+02  0.21753454770E+02  0.00000000000E+00 0.  1.
          1    1    1    2  502    0  0.25929446471E+02  0.12225954255E+02 -0.68575047986E+01  0.29476016077E+02  0.00000000000E+00 0.  1.
         -1    1    1    2    0  501 -0.25929446471E+02 -0.12225954255E+02  0.53695169946E+02  0.60868558610E+02  0.00000000000E+00 0. -1.
</event>
<event>
 4    1  0.6935156E+001  0.3037433E+02  0.7546771E-02  0.1416371E+00
          2   -1    0    0  502    0  0.00000000000E+00  0.00000000000E+00  0.83123310990E+03  0.83123310990E+03  0.00000000000E+00 0.  1.
         -2   -1    0    0    0  501 -0.00000000000E+00 -0.00000000000E+00 -0.11156206021E+01  0.11156206021E+01  0.00000000000E+00 0. -1.
          1    1    1    2  502    0 -0.20028307901E+02  0.22835644544E+02  0.44481585673E+03  0.44585170873E+03  0.00000000000E+00 0.  1.
         -1    1    1    2    0  501  0.20028307901E+02 -0.22835644544E+02  0.38530163258E+03  0.38649702178E+03  0.00000000000E+00 0. -1.
</event>
<event>
 4    1  0.6935156E+001  0.2032431E+02  0.7546771E-02  0.1529134E+00
          2   -1    0    0  502    0  0.00000000000E+00  0.00000000000E+00  0.14527474716E+04  0.14527474716E+04  0.00000000000E+00 0. -1.
         -2   -1    0    0    0  501 -0.00000000000E+00 -0.00000000000E+00 -0.31268018014E+00  0.31268018014E+00  0.00000000000E+00 0.  1.
          1    1    1    2  502    0 -0.15111364220E+02  0.13591325859E+02  0.50749785969E+03  0.50790467123E+03  0.00000000000E+00 0.  1.
         -1    1    1    2    0  501  0.15111364220E+02 -0.13591325859E+02  0.94493693177E+03  0.94515548059E+03  0.00000000000E+00 0. -1.
</event>
<event>
 4    1  0.6935156E+001  0.2330193E+02  0.7546771E-02  0.1488741E+00
          2   -1    0    0  502    0  0.00000000000E+00  0.00000000000E+00  0.12484825863E+04  0.12484825863E+04  0.00000000000E+00 0.  1.
         -2   -1    0    0    0  501 -0.00000000000E+00 -0.00000000000E+00 -0.44161719052E+00  0.44161719052E+00  0.00000000000E+00 0. -1.
          1    1    1    2  502    0  0.16544471680E+02 -0.16409151896E+02  0.54707287486E+03  0.54756890911E+03  0.00000000000E+00 0. -1.
         -1    1    1    2    0  501 -0.16544471680E+02  0.16409151896E+02  0.70096809425E+03  0.70135529439E+03  0.00000000000E+00 0.  1.
</event>
<event>
 4    1  0.6935156E+001  0.2103068E+02  0.7546771E-02  0.1518827E+00
          2   -1    0    0  502    0  0.00000000000E+00  0.00000000000E+00  0.27065870112E+03  0.27065870112E+03  0.00000000000E+00 0.  1.
         -2   -1    0    0    0  501 -0.00000000000E+00 -0.00000000000E+00 -0.30130805010E+01  0.30130805010E+01  0.00000000000E+00 0. -1.
          1    1    1    2  502    0 -0.20664345057E+02 -0.39082312981E+01  0.22639279714E+03  0.22736751753E+03  0.00000000000E+00 0.  1.
         -1    1    1    2    0  501  0.20664345057E+02  0.39082312981E+01  0.41252823478E+02  0.46304264095E+02  0.00000000000E+00 0. -1.
</event>
<event>
 4    1  0.6935156E+001  0.2962931E+02  0.7546771E-02  0.1422845E+00
          2   -1    0    0  502    0  0.00000000000E+00  0.00000000000E+00  0.76377934034E+02  0.76377934034E+02  0.00000000000E+00 0.  1.
         -2   -1    0    0    0  501 -0.00000000000E+00 -0.00000000000E+00 -0.23548212175E+02  0.23548212175E+02  0.00000000000E+00 0. -1.
          1    1    1    2  502    0 -0.19909388352E+02  0.21943390865E+02 -0.93319794256E+01  0.31064159207E+02  0.00000000000E+00 0. -1.
         -1    1    1    2    0  501  0.19909388352E+02 -0.21943390865E+02  0.62161701284E+02  0.68861987002E+02  0.00000000000E+00 0.  1.
</event>
<event>
 4    1  0.6935156E+001  0.3150039E+02  0.7546771E-02  0.1406991E+00
          2   -1    0    0  502    0  0.00000000000E+00  0.00000000000E+00  0.92405530367E+02  0.92405530367E+02  0.00000000000E+00 0.  1.
         -2   -1    0    0    0  501 -0.00000000000E+00 -0.00000000000E+00 -0.17290882646E+02  0.17290882646E+02  0.00000000000E+00 0. -1.
          1    1    1    2  502    0 -0.27201869952E+02  0.15884994273E+02  0.71321905329E+02  0.77968512565E+02  0.00000000000E+00 0.  1.
         -1    1    1    2    0  501  0.27201869952E+02 -0.15884994273E+02  0.37927423925E+01  0.31727900447E+02  0.00000000000E+00 0. -1.
</event>
<event>
 4    1  0.6935156E+001  0.3561765E+02  0.7546771E-02  0.1376272E+00
          2   -1    0    0  502    0  0.00000000000E+00  0.00000000000E+00  0.84350388323E+03  0.84350388323E+03  0.00000000000E+00 0.  1.
         -2   -1    0    0    0  501 -0.00000000000E+00 -0.00000000000E+00 -0.42469323611E+01  0.42469323611E+01  0.00000000000E+00 0. -1.
          1    1    1    2  502    0 -0.79130515696E+00 -0.35608859493E+02  0.78977764870E+02  0.86637776877E+02  0.00000000000E+00 0. -1.
         -1    1    1    2    0  501  0.79130515696E+00  0.35608859493E+02  0.76027918600E+03  0.76111303871E+03  0.00000000000E+00 0.  1.
</event>
<event>
 4    1  0.6935156E+001  0.2217061E+02  0.7546771E-02  0.1503184E+00
          2   -1    0    0  502    0  0.00000000000E+00  0.00000000000E+00  0.42401873020E+02  0.42401873020E+02  0.00000000000E+00 0.  1.
         -2   -1    0    0    0  501 -0.00000000000E+00 -0.00000000000E+00 -0.12649524052E+02  0.12649524052E+02  0.00000000000E+00 0. -1.
          1    1    1    2  502    0  0.15284424210E+02  0.16059955542E+02  0.22833773434E+02  0.31826357075E+02  0.00000000000E+00 0. -1.
         -1    1    1    2    0  501 -0.15284424210E+02 -0.16059955542E+02  0.69185755348E+01  0.23225039997E+02  0.00000000000E+00 0.  1.
</event>
<event>
 4    1  0.6935156E+001  0.2223571E+02  0.7546771E-02  0.1502325E+00
          2   -1    0    0  502    0  0.00000000000E+00  0.00000000000E+00  0.14248482471E+04  0.14248482471E+04  0.00000000000E+00 0.  1.
         -2   -1    0    0    0  501 -0.00000000000E+00 -0.00000000000E+00 -0.42508633450E+00  0.42508633450E+00  0.00000000000E+00 0. -1.
          1    1    1    2  502    0  0.15492765033E+02 -0.15949949882E+02  0.40678371020E+03  0.40739098364E+03  0.00000000000E+00 0. -1.
         -1    1    1    2    0  501 -0.15492765033E+02  0.15949949882E+02  0.10176394505E+04  0.10178823498E+04  0.00000000000E+00 0.  1.
</event>
<event>
 4    1  0.6935156E+001  0.2236273E+02  0.7546771E-02  0.1500659E+00
          2   -1    0    0  502    0  0.00000000000E+00  0.00000000000E+00  0.44154194759E+01  0.44154194759E+01  0.00000000000E+00 0. -1.
         -2   -1    0    0    0  501 -0.00000000000E+00 -0.00000000000E+00 -0.12455341715E+03  0.12455341715E+03  0.00000000000E+00 0.  1.
          1    1    1    2  502    0 -0.13929194087E+02  0.17494837099E+02 -0.79486069528E+02  0.82571950577E+02  0.00000000000E+00 0.  1.
         -1    1    1    2    0  501  0.13929194087E+02 -0.17494837099E+02 -0.40651928144E+02  0.46396886047E+02  0.00000000000E+00 0. -1.
</event>
<event>
 4    1  0.6935156E+001  0.2719623E+02  0.7546771E-02  0.1445647E+00
          2   -1    0    0  502    0  0.00000000000E+00  0.00000000000E+00  0.10241959575E+03  0.10241959575E+03  0.00000000000E+00 0. -1.
         -2   -1    0    0    0  501 -0.00000000000E+00 -0.00000000000E+00 -0.81640433420E+01  0.81640433420E+01  0.00000000000E+00 0.  1.
          1    1    1    2  502    0 -0.13836231643E+02 -0.23413532766E+02  0.65913699702E+02  0.71303931386E+02  0.00000000000E+00 0. -1.
         -1    1    1    2    0  501  0.13836231643E+02  0.23413532766E+02  0.28341852705E+02  0.39279707705E+02  0.00000000000E+00 0.  1.
</event>
<event>
 4    1  0.6935156E+001  0.2564808E+02  0.7546771E-02  0.1461682E+00
          2   -1    0    0  502    0  0.00000000000E+00  0.00000000000E+00  0.41474176817E+03  0.41474176817E+03  0.00000000000E+00 0. -1.
         -2   -1    0    0    0  501 -0.00000000000E+00 -0.00000000000E+00 -0.16071712543E+01  0.16071712543E+01  0.00000000000E+00 0.  1.
          1    1    1    2  502    0  0.18198424950E+02  0.18073224217E+02  0.18273382916E+03  0.18452500217E+03  0.00000000000E+00 0. -1.
         -1    1    1    2    0  501 -0.18198424950E+02 -0.18073224217E+02  0.23040076776E+03  0.23182393726E+03  0.00000000000E+00 0.  1.
</event>
<event>
 4    1  0.6935156E+001  0.3874421E+02  0.7546771E-02  0.1356006E+00
          2   -1    0    0  502    0  0.00000000000E+00  0.00000000000E+00  0.13813949344E+03  0.13813949344E+03  0.00000000000E+00 0. -1.
         -2   -1    0    0    0  501 -0.00000000000E+00 -0.00000000000E+00 -0.11186494090E+02  0.11186494090E+02  0.00000000000E+00 0.  1.
          1    1    1    2  502    0  0.15248586375E+02  0.35617333972E+02  0.76101340137E+02  0.85396298727E+02  0.00000000000E+00 0. -1.
         -1    1    1    2    0  501 -0.15248586375E+02 -0.35617333972E+02  0.50851659210E+02  0.63929688800E+02  0.00000000000E+00 0.  1.
</event>
<event>
 4    1  0.6935156E+001  0.2033402E+02  0.7546771E-02  0.1528989E+00
          2   -1    0    0  502    0  0.00000000000E+00  0.00000000000E+00  0.56839832081E+01  0.56839832081E+01  0.00000000000E+00 0. -1.
         -2   -1    0    0    0  501 -0.00000000000E+00 -0.00000000000E+00 -0.73555896508E+02  0.73555896508E+02  0.00000000000E+00 0.  1.
          1    1    1    2  502    0 -0.20084311806E+02 -0.31769113307E+01 -0.29771944864E+02  0.36053308410E+02  0.00000000000E+00 0. -1.
         -1    1    1    2    0  501  0.20084311806E+02  0.31769113307E+01 -0.38099968436E+02  0.43186571306E+02  0.00000000000E+00 0.  1.
</event>
<event>
 4    1  0.6935156E+001  0.2362844E+02  0.7546771E-02  0.1484754E+00
          2   -1    0    0  502    0  0.00000000000E+00  0.00000000000E+00  0.71946054817E+02  0.71946054817E+02  0.00000000000E+00 0.  1.
         -2   -1    0    0    0  501 -0.00000000000E+00 -0.00000000000E+00 -0.79090332452E+01  0.79090332452E+01  0.00000000000E+00 0. -1.
          1    1    1    2  502    0 -0.11985587125E+02 -0.20362927439E+02  0.26538044714E+02  0.35532674116E+02  0.00000000000E+00 0.  1.
         -1    1    1    2    0  501  0.11985587125E+02  0.20362927439E+02  0.37498976858E+02  0.44322413946E+02  0.00000000000E+00 0. -1.
</event>
<event>
 4    1  0.6935156E+001  0.3135722E+02  0.7546771E-02  0.1408158E+00
          2   -1    0    0  502    0  0.00000000000E+00  0.00000000000E+00  0.26728392973E+03  0.26728392973E+03  0.00000000000E+00 0.  1.
         -2   -1    0    0    0  501 -0.00000000000E+00 -0.00000000000E+00 -0.38279820310E+01  0.38279820310E+01  0.00000000000E+00 0. -1.
          1    1    1    2  502    0 -0.27945343634E+02 -0.14224389260E+02  0.10496471692E+03  0.10954846999E+03  0.00000000000E+00 0. -1.
         -1    1    1    2    0  501  0.27945343634E+02  0.14224389260E+02  0.15849123078E+03  0.16156344177E+03  0.00000000000E+00 0.  1.
</event>
<event>
 4    1  0.6935156E+001  0.3390682E+02  0.7546771E-02  0.1388416E+00
          2   -1    0    0  502    0  0.00000000000E+00  0.00000000000E+00  0.18433561261E+04  0.18433561261E+04  0.00000000000E+00 0.  1.
         -2   -1    0    0    0  501 -0.00000000000E+00 -0.00000000000E+00 -0.62423007216E+00  0.62423007216E+00  0.00000000000E+00 0. -1.
          1    1    1    2  502    0  0.10870749997E+02  0.32116961209E+02  0.89410555732E+03  0.89474824393E+03  0.00000000000E+00 0. -1.
         -1    1    1    2    0  501 -0.10870749997E+02 -0.32116961209E+02  0.94862633868E+03  0.94923211220E+03  0.00000000000E+00 0.  1.
</event>
<event>
 4    1  0.6935156E+001  0.2432808E+02  0.7546771E-02  0.1476462E+00
          2   -1    0    0  502    0  0.00000000000E+00  0.00000000000E+00  0.73265717679E+03  0.73265717679E+03  0.00000000000E+00 0. -1.
         -2   -1    0    0    0  501 -0.00000000000E+00 -0.00000000000E+00 -0.81182709254E+00  0.81182709254E+00  0.00000000000E+00 0.  1.
          1    1    1    2  502    0 -0.21506648223E+02 -0.11371885917E+02  0.34015997947E+03  0.34102883652E+03  0.00000000000E+00 0.  1.
         -1    1    1    2    0  501  0.21506648223E+02  0.11371885917E+02  0.39168537023E+03  0.39244016736E+03  0.00000000000E+00 0. -1.
</event>
<event>
 4    1  0.6935156E+001  0.2580982E+02  0.7546771E-02  0.1459944E+00
          2   -1    0    0  502    0  0.00000000000E+00  0.00000000000E+00  0.94195881123E+03  0.94195881123E+03  0.00000000000E+00 0.  1.
         -2   -1    0    0    0  501 -0.00000000000E+00 -0.00000000000E+00 -0.13150497481E+01  0.13150497481E+01  0.00000000000E+00 0. -1.
          1    1    1    2  502    0  0.76761550685E+01 -0.24641906658E+02  0.14966745234E+03  0.15187657229E+03  0.00000000000E+00 0. -1.
         -1    1    1    2    0  501 -0.76761550685E+01  0.24641906658E+02  0.79097630914E+03  0.79139728869E+03  0.00000000000E+00 0.  1.
</event>
<event>
 4    1  0.6935156E+001  0.2368963E+02  0.7546771E-02  0.1484015E+00
          2   -1    0    0  502    0  0.00000000000E+00  0.00000000000E+00  0.51734665224E+03  0.51734665224E+03  0.00000000000E+00 0. -1.
         -2   -1    0    0    0  501 -0.00000000000E+00 -0.00000000000E+00 -0.11385409072E+01  0.11385409072E+01  0.00000000000E+00 0.  1.
          1    1    1    2  502    0 -0.17063582830E+02  0.16432667732E+02  0.20176175115E+03  0.20314773603E+03  0.00000000000E+00 0.  1.
         -1    1    1    2    0  501  0.17063582830E+02 -0.16432667732E+02  0.31444636018E+03  0.31533745712E+03  0.00000000000E+00 0. -1.
</event>
<event>
 4    1  0.6935156E+001  0.2637037E+02  0.7546771E-02  0.1454037E+00
          2   -1    0    0  502    0  0.00000000000E+00  0.00000000000E+00  0.22060687043E+02  0.22060687043E+02  0.00000000000E+00 0. -1.
         -2   -1    0    0    0  501 -0.00000000000E+00 -0.00000000000E+00 -0.40413112644E+02  0.40413112644E+02  0.00000000000E+00 0.  1.
          1    1    1    2  502    0 -0.46971252084E+01  0.25948672743E+02 -0.23827819272E+02  0.35540984421E+02  0.00000000000E+00 0.  1.
         -1    1    1    2    0  501  0.46971252084E+01 -0.25948672743E+02  0.54753936708E+01  0.26932815266E+02  0.00000000000E+00 0. -1.
</event>
<event>
 4    1  0.6935156E+001  0.2012455E+02  0.7546771E-02  0.1532140E+00
          2   -1    0    0  502    0  0.00000000000E+00  0.00000000000E+00  0.42418787141E+00  0.42418787141E+00  0.00000000000E+00 0. -1.
         -2   -1    0    0    0  501 -0.00000000000E+00 -0.00000000000E+00 -0.14773809357E+04  0.14773809357E+04  0.00000000000E+00 0.  1.
          1    1    1    2  502    0  0.20117840916E+02 -0.51975701236E+00 -0.29900327618E+03  0.29967975713E+03  0.00000000000E+00 0. -1.
         -1    1    1    2    0  501 -0.20117840916E+02  0.51975701236E+00 -0.11779534717E+04  0.11781253665E+04  0.00000000000E+00 0.  1.
</event>
<event>
 4    1  0.6935156E+001  0.4115860E+02  0.7546771E-02  0.1341827E+00
          2   -1    0    0  502    0  0.00000000000E+00  0.00000000000E+00  0.70220119379E+03  0.70220119379E+03  0.00000000000E+00 0. -1.
         -2   -1    0    0    0  501 -0.00000000000E+00 -0.00000000000E+00 -0.24639478201E+01  0.24639478201E+01  0.00000000000E+00 0.  1.
          1    1    1    2  502    0 -0.36282262059E+02  0.19432657734E+02  0.40080155680E+03  0.40290931816E+03  0.00000000000E+00 0. -1.
         -1    1    1    2    0  501  0.36282262059E+02 -0.19432657734E+02  0.29893568917E+03  0.30175582345E+03  0.00000000000E+00 0.  1.
</event>
<event>
 4    1  0.6935156E+001  0.2220549E+02  0.7546771E-02  0.1502723E+00
          2   -1    0    0  502    0  0.00000000000E+00  0.00000000000E+00  0.35852502224E+01  0.35852502224E+01  0.00000000000E+00 0. -1.
         -2   -1    0    0    0  501 -0.00000000000E+00 -0.00000000000E+00 -0.14865053520E+03  0.14865053520E+03  0.00000000000E+00 0.  1.
          1    1    1    2  502    0  0.22121117588E+02 -0.19339320080E+01 -0.93350785998E+02  0.95955475002E+02  0.00000000000E+00 0.  1.
         -1    1    1    2    0  501 -0.22121117588E+02  0.19339320080E+01 -0.51714498980E+02  0.56280310421E+02  0.00000000000E+00 0. -1.
</event>
<event>
 4    1  0.6935156E+001  0.2625252E+02  0.7546771E-02  0.1455265E+00
          2   -1    0    0  502    0  0.00000000000E+00  0.00000000000E+00  0.27819182378E+03  0.27819182378E+03  0.00000000000E+00 0.  1.
         -2   -1    0    0    0  501 -0.00000000000E+00 -0.00000000000E+00 -0.25110566024E+01  0.25110566024E+01  0.00000000000E+00 0. -1.
          1    1    1    2  502    0 -0.14303174403E+02  0.22013954496E+02  0.12159371837E+03  0.12439544742E+03  0.00000000000E+00 0. -1.
         -1    1    1    2    0  501  0.14303174403E+02 -0.22013954496E+02  0.15408704881E+03  0.15630743297E+03  0.00000000000E+00 0.  1.
</event>
<event>
 4    1  0.6935156E+001  0.3128147E+02  0.7546771E-02  0.1408778E+00
          2   -1    0    0  502    0  0.00000000000E+00  0.00000000000E+00  0.48212680767E+03  0.48212680767E+03  0.00000000000E+00 0.  1.
         -2   -1    0    0    0  501 -0.00000000000E+00 -0.00000000000E+00 -0.72733752844E+01  0.72733752844E+01  0.00000000000E+00 0. -1.
          1    1    1    2  502    0 -0.13911162368E+02 -0.28018028412E+02  0.44519902830E+03  0.44629665600E+03  0.00000000000E+00 0.  1.
         -1    1    1    2    0  501  0.13911162368E+02  0.28018028412E+02  0.29654404085E+02  0.43103526957E+02  0.00000000000E+00 0. -1.
</event>
<event>
 4    1  0.6935156E+001  0.2031294E+02  0.7546771E-02  0.1529304E+00
          2   -1    0    0  502    0  0.00000000000E+00  0.00000000000E+00  0.40374402662E+03  0.40374402662E+03  0.00000000000E+00 0. -1.
         -2   -1    0    0    0  501 -0.00000000000E+00 -0.00000000000E+00 -0.10753769111E+01  0.10753769111E+01  0.00000000000E+00 0.  1.
          1    1    1    2  502    0  0.14023645919E+02  0.14695331176E+02  0.15622789875E+03  0.15754292034E+03  0.00000000000E+00 0. -1.
         -1    1    1    2    0  501 -0.14023645919E+02 -0.14695331176E+02  0.24644075097E+03  0.24727648319E+03  0.00000000000E+00 0.  1.
</event>
<event>
 4    1  0.6935156E+001  0.2763843E+02  0.7546771E-02  0.1441298E+00
          2   -1    0    0  502    0  0.00000000000E+00  0.00000000000E+00  0.57506968639E+03  0.57506968639E+03  0.00000000000E+00 0.  1.
         -2   -1    0    0    0  501 -0.00000000000E+00 -0.00000000000E+00 -0.35339930474E+01  0.35339930474E+01  0.00000000000E+00 0. -1.
          1    1    1    2  502    0  0.22204285094E+02  0.16457603111E+02  0.51432131736E+03  0.51506339461E+03  0.00000000000E+00 0.  1.
         -1    1    1    2    0  501 -0.22204285094E+02 -0.16457603111E+02  0.57214375974E+02  0.63540284819E+02  0.00000000000E+00 0. -1.
</event>
<event>
 4    1  0.6935156E+001  0.2030607E+02  0.7546771E-02  0.1529407E+00
          2   -1    0    0  502    0  0.00000000000E+00  0.00000000000E+00  0.21448565888E+04  0.21448565888E+04  0.00000000000E+00 0.  1.
         -2   -1    0    0    0  501 -0.00000000000E+00 -0.00000000000E+00 -0.19774160418E+00  0.19774160418E+00  0.00000000000E+00 0. -1.
          1    1    1    2  502    0  0.15211613326E+02  0.13451520198E+02  0.12511559373E+04  0.12513207087E+04  0.00000000000E+00 0.  1.
         -1    1    1    2    0  501 -0.15211613326E+02 -0.13451520198E+02  0.89350290987E+03  0.89373362168E+03  0.00000000000E+00 0. -1.
</event>
<event>
 4    1  0.6935156E+001  0.2001922E+02  0.7546771E-02  0.1533742E+00
          2   -1    0    0  502    0  0.00000000000E+00  0.00000000000E+00  0.32760617286E+02  0.32760617286E+02  0.00000000000E+00 0. -1.
         -2   -1    0    0    0  501 -0.00000000000E+00 -0.00000000000E+00 -0.14978080137E+02  0.14978080137E+02  0.00000000000E+00 0.  1.
          1    1    1    2  502    0 -0.16713839976E+02 -0.11018919042E+02  0.19109359024E+02  0.27675560083E+02  0.00000000000E+00 0. -1.
         -1    1    1    2    0  501  0.16713839976E+02  0.11018919042E+02 -0.13268218757E+01  0.20063137339E+02  0.00000000000E+00 0.  1.
</event>
<event>
 4    1  0.6935156E+001  0.2527478E+02  0.7546771E-02  0.1465753E+00
          2   -1    0    0  502    0  0.00000000000E+00  0.00000000000E+00  0.64310456640E+03  0.64310456640E+03  0.00000000000E+00 0.  1.
         -2   -1    0    0    0  501 -0.00000000000E+00 -0.00000000000E+00 -0.99467322455E+00  0.99467322455E+00  0.00000000000E+00 0. -1.
          1    1    1    2  502    0  0.19044345229E+02  0.16617078227E+02  0.33289432756E+03  0.33385243402E+03  0.00000000000E+00 0. -1.
         -1    1    1    2    0  501 -0.19044345229E+02 -0.16617078227E+02  0.30921556561E+03  0.31024680561E+03  0.00000000000E+00 0.  1.
</event>
<event>
 4    1  0.6935156E+001  0.4410895E+02  0.7546771E-02  0.1325955E+00
          2   -1    0    0  502    0  0.00000000000E+00  0.00000000000E+00  0.22569363491E+03  0.22569363491E+03  0.00000000000E+00 0. -1.
         -2   -1    0    0    0  501 -0.00000000000E+00 -0.00000000000E+00 -0.86770102935E+01  0.86770102935E+01  0.00000000000E+00 0.  1.
          1    1    1    2  502    0 -0.39158021928E+01  0.43934792430E+02  0.11796249506E+03  0.12593946853E+03  0.00000000000E+00 0. -1.
         -1    1    1    2    0  501  0.39158021928E+01 -0.43934792430E+02  0.99054129551E+02  0.10843117667E+03  0.00000000000E+00 0.  1.
</event>
<event>
 4    1  0.6935156E+001  0.2611636E+02  0.7546771E-02  0.1456692E+00
          2   -1    0    0  502    0  0.00000000000E+00  0.00000000000E+00  0.20777843334E+03  0.20777843334E+03  0.00000000000E+00 0.  1.
         -2   -1    0    0    0  501 -0.00000000000E+00 -0.00000000000E+00 -0.33900314684E+01  0.33900314684E+01  0.00000000000E+00 0. -1.
          1    1    1    2  502    0 -0.25699111090E+02 -0.46497298991E+01  0.83402861509E+02  0.87396233368E+02  0.00000000000E+00 0. -1.
         -1    1    1    2    0  501  0.25699111090E+02  0.46497298991E+01  0.12098554036E+03  0.12377223144E+03  0.00000000000E+00 0.  1.
</event>
<event>
 4    1  0.6935156E+001  0.2387974E+02  0.7546771E-02  0.1481737E+00
          2   -1    0    0  502    0  0.00000000000E+00  0.00000000000E+00  0.28351883850E+01  0.28351883850E+01  0.00000000000E+00 0.  1.
         -2   -1    0    0    0  501 -0.00000000000E+00 -0.00000000000E+00 -0.21773038828E+03  0.21773038828E+03  0.00000000000E+00 0. -1.
          1    1    1    2  502    0  0.42543086057E+01  0.23497720547E+02 -0.76996380070E+02  0.80614419036E+02  0.00000000000E+00 0. -1.
         -1    1    1    2    0  501 -0.42543086057E+01 -0.23497720547E+02 -0.13789881983E+03  0.13995115763E+03  0.00000000000E+00 0.  1.
</event>
<event>
 4    1  0.6935156E+001  0.2147659E+02  0.7546771E-02  0.1512568E+00
          2   -1    0    0  502    0  0.00000000000E+00  0.00000000000E+00  0.17801731391E+02  0.17801731391E+02  0.00000000000E+00 0.  1.
         -2   -1    0    0    0  501 -0.00000000000E+00 -0.00000000000E+00 -0.26890491427E+02  0.26890491427E+02  0.00000000000E+00 0. -1.
          1    1    1    2  502    0  0.21408619906E+02  0.17073234794E+01 -0.27749625124E+00  0.21478383643E+02  0.00000000000E+00 0.  1.
         -1    1    1    2    0  501 -0.21408619906E+02 -0.17073234794E+01 -0.88112637847E+01  0.23213839175E+02  0.00000000000E+00 0. -1.
</event>
<event>
 4    1  0.6935156E+001  0.2466459E+02  0.7546771E-02  0.1472591E+00
          2   -1    0    0  502    0  0.00000000000E+00  0.00000000000E+00  0.30475640032E+01  0.30475640032E+01  0.00000000000E+00 0.  1.
         -2   -1    0    0    0  501 -0.00000000000E+00 -0.00000000000E+00 -0.33116018745E+03  0.33116018745E+03  0.00000000000E+00 0. -1.
          1    1    1    2  502    0 -0.21929925329E+02 -0.11288073833E+02 -0.58738104697E+02  0.63706413956E+02  0.00000000000E+00 0.  1.
         -1    1    1    2    0  501  0.21929925329E+02  0.11288073833E+02 -0.26937451875E+03  0.27050133750E+03  0.00000000000E+00 0. -1.
</event>
<event>
 4    1  0.6935156E+001  0.3252947E+02  0.7546771E-02  0.1398817E+00
          2   -1    0    0  502    0  0.00000000000E+00  0.00000000000E+00  0.28266015485E+01  0.28266015485E+01  0.00000000000E+00 0.  1.
         -2   -1    0    0    0  501 -0.00000000000E+00 -0.00000000000E+00 -0.41045577872E+03  0.41045577872E+03  0.00000000000E+00 0. -1.
          1    1    1    2  502    0  0.32456000592E+02 -0.21849833248E+01 -0.26509375211E+03  0.26708212882E+03  0.00000000000E+00 0. -1.
         -1    1    1    2    0  501 -0.32456000592E+02  0.21849833248E+01 -0.14253542507E+03  0.14620025145E+03  0.00000000000E+00 0.  1.
</event>
<event>
 4    1  0.6935156E+001  0.2039051E+02  0.7546771E-02  0.1528147E+00
          2   -1    0    0  502    0  0.00000000000E+00  0.00000000000E+00  0.77063749651E+03  0.77063749651E+03  0.00000000000E+00 0. -1.
         -2   -1    0    0    0  501 -0.00000000000E+00 -0.00000000000E+00 -0.84715356906E+00  0.84715356906E+00  0.00000000000E+00 0.  1.
          1    1    1    2  502    0  0.58479915891E+00  0.20382125753E+02  0.61734770066E+03  0.61768435026E+03  0.00000000000E+00 0.  1.
         -1    1    1    2    0  501 -0.58479915891E+00 -0.20382125753E+02  0.15244264228E+03  0.15380029982E+03  0.00000000000E+00 0. -1.
</event>
<event>
 4    1  0.6935156E+001  0.2175511E+02  0.7546771E-02  0.1508751E+00
          2   -1    0    0  502    0  0.00000000000E+00  0.00000000000E+00  0.98158370631E+02  0.98158370631E+02  0.00000000000E+00 0. -1.
         -2   -1    0    0    0  501 -0.00000000000E+00 -0.00000000000E+00 -0.49421924434E+01  0.49421924434E+01  0.00000000000E+00 0.  1.
          1    1    1    2  502    0 -0.15676586377E+02 -0.15084079253E+02  0.54659099609E+02  0.58829431218E+02  0.00000000000E+00 0.  1.
         -1    1    1    2    0  501  0.15676586377E+02  0.15084079253E+02  0.38557078578E+02  0.44271131856E+02  0.00000000000E+00 0. -1.
</event>
<event>
 4    1  0.6935156E+001  0.2026378E+02  0.7546771E-02  0.1530041E+00
          2   -1    0    0  502    0  0.00000000000E+00  0.00000000000E+00  0.24953440881E+04  0.24953440881E+04  0.00000000000E+00 0. -1.
         -2   -1    0    0    0  501 -0.00000000000E+00 -0.00000000000E+00 -0.17080847878E+00  0.17080847878E+00  0.00000000000E+00 0.  1.
          1    1    1    2  502    0  0.17916355162E+02  0.94670531351E+01  0.14863363352E+04  0.14864744606E+04  0.00000000000E+00 0. -1.
         -1    1    1    2    0  501 -0.17916355162E+02 -0.94670531351E+01  0.10088369444E+04  0.10090404359E+04  0.00000000000E+00 0.  1.
</event>
<event>
 4    1  0.6935156E+001  0.2026759E+02  0.7546771E-02  0.1529984E+00
          2   -1    0    0  502    0  0.00000000000E+00  0.00000000000E+00  0.48306126937E+03  0.48306126937E+03  0.00000000000E+00 0. -1.
         -2   -1    0    0    0  501 -0.00000000000E+00 -0.00000000000E+00 -0.92154062421E+00  0.92154062421E+00  0.00000000000E+00 0.  1.
          1    1    1    2  502    0  0.93668890597E+01  0.17973221383E+02  0.30832538065E+03  0.30899080189E+03  0.00000000000E+00 0. -1.
         -1    1    1    2    0  501 -0.93668890597E+01 -0.17973221383E+02  0.17381434809E+03  0.17499200810E+03  0.00000000000E+00 0.  1.
</event>
<event>
 4    1  0.6935156E+001  0.2386771E+02  0.7546771E-02  0.1481880E+00
          2   -1    0    0  502    0  0.00000000000E+00  0.00000000000E+00  0.49470661469E+03  0.49470661469E+03  0.00000000000E+00 0.  1.
         -2   -1    0    0    0  501 -0.00000000000E+00 -0.00000000000E+00 -0.13626653536E+01  0.13626653536E+01  0.00000000000E+00 0. -1.
          1    1    1    2  502    0 -0.17877208930E+02  0.15813698923E+02  0.14903776252E+03  0.15093681568E+03  0.00000000000E+00 0. -1.
         -1    1    1    2    0  501  0.17877208930E+02 -0.15813698923E+02  0.34430618682E+03  0.34513246436E+03  0.00000000000E+00 0.  1.
</event>
<event>
 4    1  0.6935156E+001  0.2250559E+02  0.7546771E-02  0.1498802E+00
          2   -1    0    0  502    0  0.00000000000E+00  0.00000000000E+00  0.67554396159E+01  0.67554396159E+01  0.00000000000E+00 0. -1.
         -2   -1    0    0    0  501 -0.00000000000E+00 -0.00000000000E+00 -0.75223091690E+02  0.75223091690E+02  0.00000000000E+00 0.  1.
          1    1    1    2  502    0  0.53043697164E+00  0.22499335270E+02 -0.36579094378E+02  0.42948010390E+02  0.00000000000E+00 0. -1.
         -1    1    1    2    0  501 -0.53043697164E+00 -0.22499335270E+02 -0.31888557696E+02  0.39030520915E+02  0.00000000000E+00 0.  1.
</event>
<event>
 4    1  0.6935156E+001  0.2958470E+02  0.7546771E-02  0.1423240E+00
          2   -1    0    0  502    0  0.00000000000E+00  0.00000000000E+00  0.12536885225E+04  0.12536885225E+04  0.00000000000E+00 0.  1.
         -2   -1    0    0    0  501 -0.00000000000E+00 -0.00000000000E+00 -0.69883627043E+00  0.69883627043E+00  0.00000000000E+00 0. -1.
          1    1    1    2  502    0  0.10556153324E+02 -0.27637335185E+02  0.64624018197E+03  0.64691701745E+03  0.00000000000E+00 0. -1.
         -1    1    1    2    0  501 -0.10556153324E+02  0.27637335185E+02  0.60674950429E+03  0.60747034136E+03  0.00000000000E+00 0.  1.
</event>
<event>
 4    1  0.6935156E+001  0.2585407E+02  0.7546771E-02  0.1459472E+00
          2   -1    0    0  502    0  0.00000000000E+00  0.00000000000E+00  0.26646697724E+01  0.26646697724E+01  0.00000000000E+00 0. -1.
         -2   -1    0    0    0  501 -0.00000000000E+00 -0.00000000000E+00 -0.25265369551E+03  0.25265369551E+03  0.00000000000E+00 0.  1.
          1    1    1    2  502    0  0.21360644439E+02 -0.14565576897E+02 -0.13577993161E+03  0.13821947399E+03  0.00000000000E+00 0. -1.
         -1    1    1    2    0  501 -0.21360644439E+02  0.14565576897E+02 -0.11420909413E+03  0.11709889129E+03  0.00000000000E+00 0.  1.
</event>
<event>
 4    1  0.6935156E+001  0.3159899E+02  0.7546771E-02  0.1406192E+00
          2   -1    0    0  502    0  0.00000000000E+00  0.00000000000E+00  0.52550739186E+03  0.52550739186E+03  0.00000000000E+00 0.  1.
         -2   -1    0    0    0  501 -0.00000000000E+00 -0.00000000000E+00 -0.19510548682E+01  0.19510548682E+01  0.00000000000E+00 0. -1.
          1    1    1    2  502    0 -0.30969253569E+02 -0.62770488628E+01  0.21914150281E+03  0.22140798148E+03  0.00000000000E+00 0. -1.
         -1    1    1    2    0  501  0.30969253569E+02  0.62770488628E+01  0.30441483418E+03  0.30605046524E+03  0.00000000000E+00 0.  1.
</event>
<event>
 4    1  0.6935156E+001  0.2367785E+02  0.7546771E-02  0.1484157E+00
          2   -1    0    0  502    0  0.00000000000E+00  0.00000000000E+00  0.19402053336E+04  0.19402053336E+04  0.00000000000E+00 0. -1.
         -2   -1    0    0    0  501 -0.00000000000E+00 -0.00000000000E+00 -0.28917613081E+00  0.28917613081E+00  0.00000000000E+00 0.  1.
          1    1    1    2  502    0  0.18444685752E+02  0.14847032136E+02  0.94340319274E+03  0.94370028339E+03  0.00000000000E+00 0.  1.
         -1    1    1    2    0  501 -0.18444685752E+02 -0.14847032136E+02  0.99651296474E+03  0.99679422636E+03  0.00000000000E+00 0. -1.
</event>
<event>
 4    1  0.6935156E+001  0.2232043E+02  0.7546771E-02  0.1501212E+00
          2   -1    0    0  502    0  0.00000000000E+00  0.00000000000E+00  0.10173119914E+04  0.10173119914E+04  0.00000000000E+00 0.  1.
         -2   -1    0    0    0  501 -0.00000000000E+00 -0.00000000000E+00 -0.12231034067E+01  0.12231034067E+01  0.00000000000E+00 0. -1.
          1    1    1    2  502    0  0.19561074227E+02 -0.10750168593E+02  0.11369714476E+03  0.11586734862E+03  0.00000000000E+00 0. -1.
         -1    1    1    2    0  501 -0.19561074227E+02  0.10750168593E+02  0.90239174328E+03  0.90266774623E+03  0.00000000000E+00 0.  1.
</event>
<event>
 4    1  0.6935156E+001  0.2281635E+02  0.7546771E-02  0.1494817E+00
          2   -1    0    0  502    0  0.00000000000E+00  0.00000000000E+00  0.27738946244E+03  0.27738946244E+03  0.00000000000E+00 0.  1.
         -2   -1    0    0    0  501 -0.00000000000E+00 -0.00000000000E+00 -0.22420559872E+01  0.22420559872E+01  0.00000000000E+00 0. -1.
          1    1    1    2  502    0  0.13662089925E+02 -0.18273831453E+02  0.19401177002E+03  0.19534879709E+03  0.00000000000E+00 0.  1.
         -1    1    1    2    0  501 -0.13662089925E+02  0.18273831453E+02  0.81135636429E+02  0.84282721336E+02  0.00000000000E+00 0. -1.
</event>
<event>
 4    1  0.6935156E+001  0.3938186E+02  0.7546771E-02  0.1352147E+00
          2   -1    0    0  502    0  0.00000000000E+00  0.00000000000E+00  0.26683407584E+04  0.26683407584E+04  0.00000000000E+00 0. -1.
         -2   -1    0    0    0  501 -0.00000000000E+00 -0.00000000000E+00 -0.60013019069E+00  0.60013019069E+00  0.00000000000E+00 0.  1.
          1    1    1    2  502    0 -0.13497122536E+02  0.36996738828E+02  0.15706642888E+04  0.15711579294E+04  0.00000000000E+00 0. -1.
         -1    1    1    2    0  501  0.13497122536E+02 -0.36996738828E+02  0.10970763394E+04  0.10977829592E+04  0.00000000000E+00 0.  1.
</event>
<event>
 4    1  0.6935156E+001  0.4434454E+02  0.7546771E-02  0.1324750E+00
          2   -1    0    0  502    0  0.00000000000E+00  0.00000000000E+00  0.75515180813E+03  0.75515180813E+03  0.00000000000E+00 0.  1.
         -2   -1    0    0    0  501 -0.00000000000E+00 -0.00000000000E+00 -0.29272421673E+01  0.29272421673E+01  0.00000000000E+00 0. -1.
          1    1    1    2  502    0 -0.37461781243E+02  0.23728733577E+02  0.25016200706E+03  0.25406193659E+03  0.00000000000E+00 0. -1.
         -1    1    1    2    0  501  0.37461781243E+02 -0.23728733577E+02  0.50206255890E+03  0.50401711370E+03  0.00000000000E+00 0.  1.
</event>
<event>
 4    1  0.6935156E+001  0.2230941E+02  0.7546771E-02  0.1501357E+00
          2   -1    0    0  502    0  0.00000000000E+00  0.00000000000E+00  0.11581360278E+03  0.11581360278E+03  0.00000000000E+00 0. -1.
         -2   -1    0    0    0  501 -0.00000000000E+00 -0.00000000000E+00 -0.52613018397E+01  0.52613018397E+01  0.00000000000E+00 0.  1.
          1    1    1    2  502    0  0.15593713516E+02  0.15954489304E+02  0.29365990239E+02  0.36879140620E+02  0.00000000000E+00 0. -1.
         -1    1    1    2    0  501 -0.15593713516E+02 -0.15954489304E+02  0.81186310703E+02  0.84195764001E+02  0.00000000000E+00 0.  1.
</event>
<event>
 4    1  0.6935156E+001  0.2722034E+02  0.7546771E-02  0.1445407E+00
          2   -1    0    0  502    0  0.00000000000E+00  0.00000000000E+00  0.66121103606E+03  0.66121103606E+03  0.00000000000E+00 0.  1.
         -2   -1    0    0    0  501 -0.00000000000E+00 -0.00000000000E+00 -0.15125615476E+01  0.15125615476E+01  0.00000000000E+00 0. -1.
          1    1    1    2  502    0  0.27081795617E+02  0.27428432237E+01  0.16116563186E+03  0.16344818058E+03  0.00000000000E+00 0. -1.
         -1    1    1    2    0  501 -0.27081795617E+02 -0.27428432237E+01  0.49853284265E+03  0.49927541702E+03  0.00000000000E+00 0.  1.
</event>
<event>
 4    1  0.6935156E+001  0.2109273E+02  0.7546771E-02  0.1517945E+00
          2   -1    0    0  502    0  0.00000000000E+00  0.00000000000E+00  0.40928670836E+03  0.40928670836E+03  0.00000000000E+00 0.  1.
         -2   -1    0    0    0  501 -0.00000000000E+00 -0.00000000000E+00 -0.13999260645E+01  0.13999260645E+01  0.00000000000E+00 0. -1.
          1    1    1    2  502    0 -0.20425542149E+02 -0.52631435864E+01  0.30102433088E+03  0.30176240858E+03  0.00000000000E+00 0.  1.
         -1    1    1    2    0  501  0.20425542149E+02  0.52631435864E+01  0.10686245142E+03  0.10892422584E+03  0.00000000000E+00 0. -1.
</event>
<event>
 4    1  0.6935156E+001  0.2306462E+02  0.7546771E-02  0.1491688E+00
          2   -1    0    0  502    0  0.00000000000E+00  0.00000000000E+00  0.13835173791E+02  0.13835173791E+02  0.00000000000E+00 0.  1.
         -2   -1    0    0    0  501 -0.00000000000E+00 -0.00000000000E+00 -0.42323053913E+02  0.42323053913E+02  0.00000000000E+00 0. -1.
          1    1    1    2  502    0 -0.24451636675E+01  0.22934640193E+02 -0.22737005434E+02  0.32387466129E+02  0.00000000000E+00 0. -1.
         -1    1    1    2    0  501  0.24451636675E+01 -0.22934640193E+02 -0.57508746881E+01  0.23770761575E+02  0.00000000000E+00 0.  1.
</event>
<event>
 4    1  0.6935156E+001  0.4806924E+02  0.7546771E-02  0.1306768E+00
          2   -1    0    0  502    0  0.00000000000E+00  0.00000000000E+00  0.32280183495E+03  0.32280183495E+03  0.00000000000E+00 0.  1.
         -2   -1    0    0    0  501 -0.00000000000E+00 -0.00000000000E+00 -0.74270009266E+01  0.74270009266E+01  0.00000000000E+00 0. -1.
          1    1    1    2  502    0  0.40668275986E+02  0.25627001155E+02  0.18910438639E+03  0.19511822265E+03  0.00000000000E+00 0.  1.
         -1    1    1    2    0  501 -0.40668275986E+02 -0.25627001155E+02  0.12627044764E+03  0.13511061323E+03  0.00000000000E+00 0. -1.
</event>
<event>
 4    1  0.6935156E+001  0.2696248E+02  0.7546771E-02  0.1447985E+00
          2   -1    0    0  502    0  0.00000000000E+00  0.00000000000E+00  0.13882178219E+04  0.13882178219E+04  0.00000000000E+00 0. -1.
         -2   -1    0    0    0  501 -0.00000000000E+00 -0.00000000000E+00 -0.56388385469E+00  0.56388385469E+00  0.00000000000E+00 0.  1.
          1    1    1    2  502    0  0.15456640240E+02  0.22092253532E+02  0.87925199838E+03  0.87966530683E+03  0.00000000000E+00 0. -1.
         -1    1    1    2    0  501 -0.15456640240E+02 -0.22092253532E+02  0.50840193963E+03  0.50911639888E+03  0.00000000000E+00 0.  1.
</event>
<event>
 4    1  0.6935156E+001  0.2527667E+02  0.7546771E-02  0.1465732E+00
          2   -1    0    0  502    0  0.00000000000E+00  0.00000000000E+00  0.21903876474E+01  0.21903876474E+01  0.00000000000E+00 0.  1.
         -2   -1    0    0    0  501 -0.00000000000E+00 -0.00000000000E+00 -0.30475866188E+03  0.30475866188E+03  0.00000000000E+00 0. -1.
          1    1    1    2  502    0  0.23396511026E+02  0.95662474547E+01 -0.11950026112E+03  0.12214426809E+03  0.00000000000E+00 0. -1.
         -1    1    1    2    0  501 -0.23396511026E+02 -0.95662474547E+01 -0.18306801311E+03  0.18480478144E+03  0.00000000000E+00 0.  1.
</event>
<event>
 4    1  0.6935156E+001  0.2338330E+02  0.7546771E-02  0.1487740E+00
          2   -1    0    0  502    0  0.00000000000E+00  0.00000000000E+00  0.19363009014E+03  0.19363009014E+03  0.00000000000E+00 0. -1.
         -2   -1    0    0    0  501 -0.00000000000E+00 -0.00000000000E+00 -0.51221029074E+01  0.51221029074E+01  0.00000000000E+00 0.  1.
          1    1    1    2  502    0  0.23259415445E+02 -0.24038412322E+01  0.27687085332E+02  0.36240220111E+02  0.00000000000E+00 0.  1.
         -1    1    1    2    0  501 -0.23259415445E+02  0.24038412322E+01  0.16082090191E+03  0.16251197294E+03  0.00000000000E+00 0. -1.
</event>
<event>
 4    1  0.6935156E+001  0.2246674E+02  0.7546771E-02  0.1499305E+00
          2   -1    0    0  502    0  0.00000000000E+00  0.00000000000E+00  0.47057490968E+03  0.47057490968E+03  0.00000000000E+00 0.  1.
         -2   -1    0    0    0  501 -0.00000000000E+00 -0.00000000000E+00 -0.20027805051E+01  0.20027805051E+01  0.00000000000E+00 0. -1.
          1    1    1    2  502    0  0.19299372964E+02 -0.11501685694E+02  0.39531438366E+03  0.39595229068E+03  0.00000000000E+00 0.  1.
         -1    1    1    2    0  501 -0.19299372964E+02  0.11501685694E+02  0.73257745521E+02  0.76625399506E+02  0.00000000000E+00 0. -1.
</event>
<event>
 4    1  0.6935156E+001  0.2292476E+02  0.7546771E-02  0.1493445E+00
          2   -1    0    0  502    0  0.00000000000E+00  0.00000000000E+00  0.10794060647E+04  0.10794060647E+04  0.00000000000E+00 0. -1.
         -2   -1    0    0    0  501 -0.00000000000E+00 -0.00000000000E+00 -0.49012433693E+00  0.49012433693E+00  0.00000000000E+00 0.  1.
          1    1    1    2  502    0  0.22371232474E+02 -0.50072739910E+01  0.58336538478E+03  0.58381565326E+03  0.00000000000E+00 0. -1.
         -1    1    1    2    0  501 -0.22371232474E+02  0.50072739910E+01  0.49555055563E+03  0.49608053582E+03  0.00000000000E+00 0.  1.
</event>
<event>
 4    1  0.6935156E+001  0.2650626E+02  0.7546771E-02  0.1452632E+00
          2   -1    0    0  502    0  0.00000000000E+00  0.00000000000E+00  0.12935481842E+04  0.12935481842E+04  0.00000000000E+00 0. -1.
         -2   -1    0    0    0  501 -0.00000000000E+00 -0.00000000000E+00 -0.66194972993E+00  0.66194972993E+00  0.00000000000E+00 0.  1.
          1    1    1    2  502    0  0.12734098156E+02 -0.23247037093E+02  0.37229685739E+03  0.37323924232E+03  0.00000000000E+00 0.  1.
         -1    1    1    2    0  501 -0.12734098156E+02  0.23247037093E+02  0.92058937704E+03  0.92097089156E+03  0.00000000000E+00 0. -1.
</event>
<event>
 4    1  0.6935156E+001  0.2190235E+02  0.7546771E-02  0.1506761E+00
          2   -1    0    0  502    0  0.00000000000E+00  0.00000000000E+00  0.32133792669E+02  0.32133792669E+02  0.00000000000E+00 0.  1.
         -2   -1    0    0    0  501 -0.00000000000E+00 -0.00000000000E+00 -0.16240334414E+02  0.16240334414E+02  0.00000000000E+00 0. -1.
          1    1    1    2  502    0 -0.94307021967E+01  0.19768024845E+02  0.14820681054E+02  0.26445520170E+02  0.00000000000E+00 0.  1.
         -1    1    1    2    0  501  0.94307021967E+01 -0.19768024845E+02  0.10727772012E+01  0.21928606912E+02  0.00000000000E+00 0. -1.
</event>
<event>
 4    1  0.6935156E+001  0.2805954E+02  0.7546771E-02  0.1437246E+00
          2   -1    0    0  502    0  0.00000000000E+00  0.00000000000E+00  0.68338701408E+02  0.68338701408E+02  0.00000000000E+00 0.  1.
         -2   -1    0    0    0  501 -0.00000000000E+00 -0.00000000000E+00 -0.12348777369E+02  0.12348777369E+02  0.00000000000E+00 0. -1.
          1    1    1    2  502    0 -0.27508542968E+02  0.55333577555E+01  0.17550382040E+02  0.33096131103E+02  0.00000000000E+00 0.  1.
         -1    1    1    2    0  501  0.27508542968E+02 -0.55333577555E+01  0.38439541999E+02  0.47591347673E+02  0.00000000000E+00 0. -1.
</event>
<event>
 4    1  0.6935156E+001  0.2033772E+02  0.7546771E-02  0.1528934E+00
          2   -1    0    0  502    0  0.00000000000E+00  0.00000000000E+00  0.75205506225E+01  0.75205506225E+01  0.00000000000E+00 0. -1.
         -2   -1    0    0    0  501 -0.00000000000E+00 -0.00000000000E+00 -0.12029622928E+03  0.12029622928E+03  0.00000000000E+00 0.  1.
          1    1    1    2  502    0 -0.15583126026E+02 -0.13068635371E+02 -0.93032138150E+01  0.22364544138E+02  0.00000000000E+00 0. -1.
         -1    1    1    2    0  501  0.15583126026E+02  0.13068635371E+02 -0.10347246484E+03  0.10545223576E+03  0.00000000000E+00 0.  1.
</event>
<event>
 4    1  0.6935156E+001  0.2491999E+02  0.7546771E-02  0.1469700E+00
          2   -1    0    0  502    0  0.00000000000E+00  0.00000000000E+00  0.79872690530E+03  0.79872690530E+03  0.00000000000E+00 0. -1.
         -2   -1    0    0    0  501 -0.00000000000E+00 -0.00000000000E+00 -0.82384523485E+00  0.82384523485E+00  0.00000000000E+00 0.  1.
          1    1    1    2  502    0 -0.71107261006E+01  0.23883963375E+02  0.30412727389E+03  0.30514653014E+03  0.00000000000E+00 0.  1.
         -1    1    1    2    0  501  0.71107261006E+01 -0.23883963375E+02  0.49377578617E+03  0.49440422039E+03  0.00000000000E+00 0. -1.
</event>
<event>
 4    1  0.6935156E+001  0.3914854E+02  0.7546771E-02  0.1353549E+00
          2   -1    0    0  502    0  0.00000000000E+00  0.00000000000E+00  0.98873436063E+03  0.98873436063E+03  0.00000000000E+00 0. -1.
         -2   -1    0    0    0  501 -0.00000000000E+00 -0.00000000000E+00 -0.18575334072E+01  0.18575334072E+01  0.00000000000E+00 0.  1.
          1    1    1    2  502    0  0.29454136180E+02  0.25788789660E+02  0.29193011664E+03  0.29454337679E+03  0.00000000000E+00 0. -1.
         -1    1    1    2    0  501 -0.29454136180E+02 -0.25788789660E+02  0.69494671059E+03  0.69604851725E+03  0.00000000000E+00 0.  1.
</event>
<event>
 4    1  0.6935156E+001  0.2547174E+02  0.7546771E-02  0.1463595E+00
          2   -1    0    0  502    0  0.00000000000E+00  0.00000000000E+00  0.23911680274E+01  0.23911680274E+01  0.00000000000E+00 0. -1.
         -2   -1    0    0    0  501 -0.00000000000E+00 -0.00000000000E+00 -0.33437085104E+03  0.33437085104E+03  0.00000000000E+00 0.  1.
          1    1    1    2  502    0  0.18795833649E+02  0.17190869447E+02 -0.23909872513E+03  0.24045167854E+03  0.00000000000E+00 0. -1.
         -1    1    1    2    0  501 -0.18795833649E+02 -0.17190869447E+02 -0.92880957882E+02  0.96310340525E+02  0.00000000000E+00 0.  1.
</event>
<event>
 4    1  0.6935156E+001  0.6310001E+02  0.7546771E-02  0.1249649E+00
          2   -1    0    0  502    0  0.00000000000E+00  0.00000000000E+00  0.85469560829E+03  0.85469560829E+03  0.00000000000E+00 0.  1.
         -2   -1    0    0    0  501 -0.00000000000E+00 -0.00000000000E+00 -0.48219996521E+01  0.48219996521E+01  0.00000000000E+00 0. -1.
          1    1    1    2  502    0 -0.10171966243E+02 -0.62274728633E+02  0.50406880693E+03  0.50800292602E+03  0.00000000000E+00 0.  1.
         -1    1    1    2    0  501  0.10171966243E+02  0.62274728633E+02  0.34580480171E+03  0.35151468193E+03  0.00000000000E+00 0. -1.
</event>
<event>
 4    1  0.6935156E+001  0.2273337E+02  0.7546771E-02  0.1495874E+00
          2   -1    0    0  502    0  0.00000000000E+00  0.00000000000E+00  0.78143650156E+03  0.78143650156E+03  0.00000000000E+00 0.  1.
         -2   -1    0    0    0  501 -0.00000000000E+00 -0.00000000000E+00 -0.10702134592E+01  0.10702134592E+01  0.00000000000E+00 0. -1.
          1    1    1    2  502    0 -0.23150857410E+01  0.22615186629E+02  0.14835334873E+03  0.15008505045E+03  0.00000000000E+00 0. -1.
         -1    1    1    2    0  501  0.23150857410E+01 -0.22615186629E+02  0.63201293937E+03  0.63242166457E+03  0.00000000000E+00 0.  1.
</event>
<event>
 4    1  0.6935156E+001  0.2400410E+02  0.7546771E-02  0.1480260E+00
          2   -1    0    0  502    0  0.00000000000E+00  0.00000000000E+00  0.62359773583E+01  0.62359773583E+01  0.00000000000E+00 0. -1.
         -2   -1    0    0    0  501 -0.00000000000E+00 -0.00000000000E+00 -0.97038226414E+02  0.97038226414E+02  0.00000000000E+00 0.  1.
          1    1    1    2  502    0  0.18462143007E+02  0.15340987179E+02 -0.34110338523E+02  0.41709852628E+02  0.00000000000E+00 0. -1.
         -1    1    1    2    0  501 -0.18462143007E+02 -0.15340987179E+02 -0.56691910532E+02  0.61564351144E+02  0.00000000000E+00 0.  1.
</event>
<event>
 4    1  0.6935156E+001  0.2580260E+02  0.7546771E-02  0.1460022E+00
          2   -1    0    0  502    0  0.00000000000E+00  0.00000000000E+00  0.34664726357E+03  0.34664726357E+03  0.00000000000E+00 0. -1.
         -2   -1    0    0    0  501 -0.00000000000E+00 -0.00000000000E+00 -0.19723096841E+01  0.19723096841E+01  0.00000000000E+00 0.  1.
          1    1    1    2  502    0  0.25728011865E+02  0.19605216089E+01  0.14411613281E+03  0.14640776611E+03  0.00000000000E+00 0.  1.
         -1    1    1    2    0  501 -0.25728011865E+02 -0.19605216089E+01  0.20055882107E+03  0.20221180714E+03  0.00000000000E+00 0. -1.
</event>
<event>
 4    1  0.6935156E+001  0.2848929E+02  0.7546771E-02  0.1433195E+00
          2   -1    0    0  502    0  0.00000000000E+00  0.00000000000E+00  0.38518789880E+03  0.38518789880E+03  0.00000000000E+00 0. -1.
         -2   -1    0    0    0  501 -0.00000000000E+00 -0.00000000000E+00 -0.42127728273E+01  0.42127728273E+01  0.00000000000E+00 0.  1.
          1    1    1    2  502    0 -0.22542559366E+02  0.17420467699E+02  0.32813729838E+03  0.32937171443E+03  0.00000000000E+00 0. -1.
         -1    1    1    2    0  501  0.22542559366E+02 -0.17420467699E+02  0.52837827594E+02  0.60028957200E+02  0.00000000000E+00 0.  1.
</event>
<event>
 4    1  0.6935156E+001  0.2594869E+02  0.7546771E-02  0.1458464E+00
          2   -1    0    0  502    0  0.00000000000E+00  0.00000000000E+00  0.57380093661E+03  0.57380093661E+03  0.00000000000E+00 0.  1.
         -2   -1    0    0    0  501 -0.00000000000E+00 -0.00000000000E+00 -0.11903762173E+01  0.11903762173E+01  0.00000000000E+00 0. -1.
          1    1    1    2  502    0 -0.18145753705E+02 -0.18549013537E+02  0.25203641125E+03  0.25336867777E+03  0.00000000000E+00 0.  1.
         -1    1    1    2    0  501  0.18145753705E+02  0.18549013537E+02  0.32057414915E+03  0.32162263506E+03  0.00000000000E+00 0. -1.
</event>
<event>
 4    1  0.6935156E+001  0.2253452E+02  0.7546771E-02  0.1498427E+00
          2   -1    0    0  502    0  0.00000000000E+00  0.00000000000E+00  0.29328493109E+01  0.29328493109E+01  0.00000000000E+00 0. -1.
         -2   -1    0    0    0  501 -0.00000000000E+00 -0.00000000000E+00 -0.17368885775E+03  0.17368885775E+03  0.00000000000E+00 0.  1.
          1    1    1    2  502    0  0.17815427572E+02 -0.13799097918E+02 -0.80430746710E+02  0.83527897013E+02  0.00000000000E+00 0. -1.
         -1    1    1    2    0  501 -0.17815427572E+02  0.13799097918E+02 -0.90325261727E+02  0.93093810046E+02  0.00000000000E+00 0.  1.
</event>
<event>
 4    1  0.6935156E+001  0.2470072E+02  0.7546771E-02  0.1472179E+00
          2   -1    0    0  502    0  0.00000000000E+00  0.00000000000E+00  0.10811959486E+03  0.10811959486E+03  0.00000000000E+00 0. -1.
         -2   -1    0    0    0  501 -0.00000000000E+00 -0.00000000000E+00 -0.73693462873E+01  0.73693462873E+01  0.00000000000E+00 0.  1.
          1    1    1    2  502    0 -0.10364563260E+02  0.22420998541E+02  0.22427020453E+02  0.33363102277E+02  0.00000000000E+00 0.  1.
         -1    1    1    2    0  501  0.10364563260E+02 -0.22420998541E+02  0.78323228122E+02  0.82125838873E+02  0.00000000000E+00 0. -1.
</event>
<event>
 4    1  0.6935156E+001  0.3443872E+02  0.7546771E-02  0.1384553E+00
          2   -1    0    0  502    0  0.00000000000E+00  0.00000000000E+00  0.15871422711E+02  0.15871422711E+02  0.00000000000E+00 0.  1.
         -2   -1    0    0    0  501 -0.00000000000E+00 -0.00000000000E+00 -0.97409420869E+02  0.97409420869E+02  0.00000000000E+00 0. -1.
          1    1    1    2  502    0  0.21572078417E+01 -0.34371094527E+02 -0.13437115227E+02  0.36967306506E+02  0.00000000000E+00 0.  1.
         -1    1    1    2    0  501 -0.21572078417E+01  0.34371094527E+02 -0.68100882931E+02  0.76313537074E+02  0.00000000000E+00 0. -1.
</event>
<event>
 4    1  0.6935156E+001  0.2319883E+02  0.7546771E-02  0.1490016E+00
          2   -1    0    0  502    0  0.00000000000E+00  0.00000000000E+00  0.38856882847E+02  0.38856882847E+02  0.00000000000E+00 0.  1.
         -2   -1    0    0    0  501 -0.00000000000E+00 -0.00000000000E+00 -0.15194733490E+02  0.15194733490E+02  0.00000000000E+00 0. -1.
          1    1    1    2  502    0  0.33274334494E+01  0.22958961163E+02  0.19869591485E+02  0.30544825696E+02  0.00000000000E+00 0.  1.
         -1    1    1    2    0  501 -0.33274334494E+01 -0.22958961163E+02  0.37925578720E+01  0.23506790641E+02  0.00000000000E+00 0. -1.
</event>
<event>
 4    1  0.6935156E+001  0.3776101E+02  0.7546771E-02  0.1362130E+00
          2   -1    0    0  502    0  0.00000000000E+00  0.00000000000E+00  0.26330515356E+02  0.26330515356E+02  0.00000000000E+00 0. -1.
         -2   -1    0    0    0  501 -0.00000000000E+00 -0.00000000000E+00 -0.65908144164E+02  0.65908144164E+02  0.00000000000E+00 0.  1.
          1    1    1    2  502    0  0.14309091234E+02 -0.34944864896E+02 -0.39265511255E+02  0.54476362293E+02  0.00000000000E+00 0.  1.
         -1    1    1    2    0  501 -0.14309091234E+02  0.34944864896E+02 -0.31211755377E+00  0.37762297227E+02  0.00000000000E+00 0. -1.
</event>
<event>
 4    1  0.6935156E+001  0.6313949E+02  0.7546771E-02  0.1249523E+00
          2   -1    0    0  502    0  0.00000000000E+00  0.00000000000E+00  0.64564797137E+02  0.64564797137E+02  0.00000000000E+00 0. -1.
         -2   -1    0    0    0  501 -0.00000000000E+00 -0.00000000000E+00 -0.24709871653E+03  0.24709871653E+03  0.00000000000E+00 0.  1.
          1    1    1    2  502    0  0.21969997386E+02  0.59193873614E+02 -0.22623178851E+03  0.23487745228E+03  0.00000000000E+00 0.  1.
         -1    1    1    2    0  501 -0.21969997386E+02 -0.59193873614E+02  0.43697869113E+02  0.76786061388E+02  0.00000000000E+00 0. -1.
</event>
<event>
 4    1  0.6935156E+001  0.3550063E+02  0.7546771E-02  0.1377077E+00
          2   -1    0    0  502    0  0.00000000000E+00  0.00000000000E+00  0.11865247436E+04  0.11865247436E+04  0.00000000000E+00 0. -1.
         -2   -1    0    0    0  501 -0.00000000000E+00 -0.00000000000E+00 -0.12934305126E+01  0.12934305126E+01  0.00000000000E+00 0.  1.
          1    1    1    2  502    0  0.10216053126E+02 -0.33998924011E+02  0.84374434088E+03  0.84449085687E+03  0.00000000000E+00 0. -1.
         -1    1    1    2    0  501 -0.10216053126E+02  0.33998924011E+02  0.34148697219E+03  0.34332731722E+03  0.00000000000E+00 0.  1.
</event>
<event>
 4    1  0.6935156E+001  0.2359008E+02  0.7546771E-02  0.1485218E+00
          2   -1    0    0  502    0  0.00000000000E+00  0.00000000000E+00  0.81247700569E+02  0.81247700569E+02  0.00000000000E+00 0. -1.
         -2   -1    0    0    0  501 -0.00000000000E+00 -0.00000000000E+00 -0.11037783291E+02  0.11037783291E+02  0.00000000000E+00 0.  1.
          1    1    1    2  502    0  0.19890008329E+02  0.12683827613E+02  0.66806729799E+01  0.24517816087E+02  0.00000000000E+00 0.  1.
         -1    1    1    2    0  501 -0.19890008329E+02 -0.12683827613E+02  0.63529244298E+02  0.67767667772E+02  0.00000000000E+00 0. -1.
</event>
<event>
 4    1  0.6935156E+001  0.2235443E+02  0.7546771E-02  0.1500768E+00
          2   -1    0    0  502    0  0.00000000000E+00  0.00000000000E+00  0.83667672754E+03  0.83667672754E+03  0.00000000000E+00 0. -1.
         -2   -1    0    0    0  501 -0.00000000000E+00 -0.00000000000E+00 -0.67063388984E+00  0.67063388984E+00  0.00000000000E+00 0.  1.
          1    1    1    2  502    0 -0.10571149440E+02  0.19696982986E+02  0.55648068277E+03  0.55692950239E+03  0.00000000000E+00 0. -1.
         -1    1    1    2    0  501  0.10571149440E+02 -0.19696982986E+02  0.27952541088E+03  0.28041785904E+03  0.00000000000E+00 0.  1.
</event>
<event>
 4    1  0.6935156E+001  0.2235416E+02  0.7546771E-02  0.1500771E+00
          2   -1    0    0  502    0  0.00000000000E+00  0.00000000000E+00  0.12121183358E+03  0.12121183358E+03  0.00000000000E+00 0.  1.
         -2   -1    0    0    0  501 -0.00000000000E+00 -0.00000000000E+00 -0.42235771632E+01  0.42235771632E+01  0.00000000000E+00 0. -1.
          1    1    1    2  502    0  0.13327186904E+02  0.17946989544E+02  0.68191492989E+02  0.71762023805E+02  0.00000000000E+00 0.  1.
         -1    1    1    2    0  501 -0.13327186904E+02 -0.17946989544E+02  0.48796763432E+02  0.53673386942E+02  0.00000000000E+00 0. -1.
</event>
<event>
 4    1  0.6935156E+001  0.2798369E+02  0.7546771E-02  0.1437969E+00
          2   -1    0    0  502    0  0.00000000000E+00  0.00000000000E+00  0.65894490313E+01  0.65894490313E+01  0.00000000000E+00 0. -1.
         -2   -1    0    0    0  501 -0.00000000000E+00 -0.00000000000E+00 -0.28859426925E+03  0.28859426925E+03  0.00000000000E+00 0.  1.
          1    1    1    2  502    0 -0.27979679412E+02 -0.47347689349E+00 -0.27806801020E+02  0.39450029447E+02  0.00000000000E+00 0. -1.
         -1    1    1    2    0  501  0.27979679412E+02  0.47347689349E+00 -0.25419801920E+03  0.25573368884E+03  0.00000000000E+00 0.  1.
</event>
<event>
 4    1  0.6935156E+001  0.3260704E+02  0.7546771E-02  0.1398215E+00
          2   -1    0    0  502    0  0.00000000000E+00  0.00000000000E+00  0.21707917420E+03  0.21707917420E+03  0.00000000000E+00 0.  1.
         -2   -1    0    0    0  501 -0.00000000000E+00 -0.00000000000E+00 -0.49192179440E+01  0.49192179440E+01  0.00000000000E+00 0. -1.
          1    1    1    2  502    0  0.22684409255E+01  0.32528040012E+02  0.98762729554E+02  0.10400623039E+03  0.00000000000E+00 0. -1.
         -1    1    1    2    0  501 -0.22684409255E+01 -0.32528040012E+02  0.11339722670E+03  0.11799216175E+03  0.00000000000E+00 0.  1.
</event>
<event>
 4    1  0.6935156E+001  0.3543977E+02  0.7546771E-02  0.1377498E+00
          2   -1    0    0  502    0  0.00000000000E+00  0.00000000000E+00  0.20222976650E+04  0.20222976650E+04  0.00000000000E+00 0. -1.
         -2   -1    0    0    0  501 -0.00000000000E+00 -0.00000000000E+00 -0.17471581389E+01  0.17471581389E+01  0.00000000000E+00 0.  1.
          1    1    1    2  502    0  0.15574305591E+02 -0.31834234177E+02  0.19779791112E+03  0.20094773227E+03  0.00000000000E+00 0.  1.
         -1    1    1    2    0  501 -0.15574305591E+02  0.31834234177E+02  0.18227525958E+04  0.18230970909E+04  0.00000000000E+00 0. -1.
</event>
<event>
 4    1  0.6935156E+001  0.2891506E+02  0.7546771E-02  0.1429265E+00
          2   -1    0    0  502    0  0.00000000000E+00  0.00000000000E+00  0.49293064255E+03  0.49293064255E+03  0.00000000000E+00 0. -1.
         -2   -1    0    0    0  501 -0.00000000000E+00 -0.00000000000E+00 -0.16961499802E+01  0.16961499802E+01  0.00000000000E+00 0.  1.
          1    1    1    2  502    0  0.22760288030E+02  0.17833960953E+02  0.24611780891E+03  0.24781052588E+03  0.00000000000E+00 0.  1.
         -1    1    1    2    0  501 -0.22760288030E+02 -0.17833960953E+02  0.24511668366E+03  0.24681626665E+03  0.00000000000E+00 0. -1.
</event>
<event>
 4    1  0.6935156E+001  0.2290396E+02  0.7546771E-02  0.1493708E+00
          2   -1    0    0  502    0  0.00000000000E+00  0.00000000000E+00  0.28023462988E+04  0.28023462988E+04  0.00000000000E+00 0.  1.
         -2   -1    0    0    0  501 -0.00000000000E+00 -0.00000000000E+00 -0.18719816677E+00  0.18719816677E+00  0.00000000000E+00 0. -1.
          1    1    1    2  502    0 -0.17517937721E+02  0.14755106702E+02  0.13978572882E+04  0.13980449168E+04  0.00000000000E+00 0. -1.
         -1    1    1    2    0  501  0.17517937721E+02 -0.14755106702E+02  0.14043018124E+04  0.14044885801E+04  0.00000000000E+00 0.  1.
</event>
<event>
 4    1  0.6935156E+001  0.2191579E+02  0.7546771E-02  0.1506581E+00
          2   -1    0    0  502    0  0.00000000000E+00  0.00000000000E+00  0.14733441949E+04  0.14733441949E+04  0.00000000000E+00 0. -1.
         -2   -1    0    0    0  501 -0.00000000000E+00 -0.00000000000E+00 -0.33713174966E+00  0.33713174966E+00  0.00000000000E+00 0.  1.
          1    1    1    2  502    0 -0.83468895362E+01  0.20264036924E+02  0.87043027978E+03  0.87070613511E+03  0.00000000000E+00 0. -1.
         -1    1    1    2    0  501  0.83468895362E+01 -0.20264036924E+02  0.60257678341E+03  0.60297519158E+03  0.00000000000E+00 0.  1.
</event>
<event>
 4    1  0.6935156E+001  0.2923956E+02  0.7546771E-02  0.1426322E+00
          2   -1    0    0  502    0  0.00000000000E+00  0.00000000000E+00  0.19598645467E+03  0.19598645467E+03  0.00000000000E+00 0. -1.
         -2   -1    0    0    0  501 -0.00000000000E+00 -0.00000000000E+00 -0.51547394696E+01  0.51547394696E+01  0.00000000000E+00 0.  1.
          1    1    1    2  502    0 -0.52972517681E+01  0.28755711254E+02  0.55983695984E+02  0.63159528355E+02  0.00000000000E+00 0. -1.
         -1    1    1    2    0  501  0.52972517681E+01 -0.28755711254E+02  0.13484801921E+03  0.13798166578E+03  0.00000000000E+00 0.  1.
</event>
<event>
 4    1  0.6935156E+001  0.2281786E+02  0.7546771E-02  0.1494798E+00
          2   -1    0    0  502    0  0.00000000000E+00  0.00000000000E+00  0.18391160753E+03  0.18391160753E+03  0.00000000000E+00 0. -1.
         -2   -1    0    0    0  501 -0.00000000000E+00 -0.00000000000E+00 -0.30960116108E+01  0.30960116108E+01  0.00000000000E+00 0.  1.
          1    1    1    2  502    0 -0.13129084499E+01 -0.22780055284E+02  0.63051550935E+02  0.67053357280E+02  0.00000000000E+00 0.  1.
         -1    1    1    2    0  501  0.13129084499E+01  0.22780055284E+02  0.11776404499E+03  0.11995426186E+03  0.00000000000E+00 0. -1.
</event>
<event>
 4    1  0.6935156E+001  0.2624881E+02  0.7546771E-02  0.1455303E+00
          2   -1    0    0  502    0  0.00000000000E+00  0.00000000000E+00  0.44835163773E+02  0.44835163773E+02  0.00000000000E+00 0.  1.
         -2   -1    0    0    0  501 -0.00000000000E+00 -0.00000000000E+00 -0.21385214132E+02  0.21385214132E+02  0.00000000000E+00 0. -1.
          1    1    1    2  502    0 -0.11869935883E+02  0.23411637617E+02  0.29288999345E+02  0.39329958510E+02  0.00000000000E+00 0.  1.
         -1    1    1    2    0  501  0.11869935883E+02 -0.23411637617E+02 -0.58390497042E+01  0.26890419395E+02  0.00000000000E+00 0. -1.
</event>
<event>
 4    1  0.6935156E+001  0.2436362E+02  0.7546771E-02  0.1476050E+00
          2   -1    0    0  502    0  0.00000000000E+00  0.00000000000E+00  0.27946959352E+03  0.27946959352E+03  0.00000000000E+00 0.  1.
         -2   -1    0    0    0  501 -0.00000000000E+00 -0.00000000000E+00 -0.23032427715E+01  0.23032427715E+01  0.00000000000E+00 0. -1.
          1    1    1    2  502    0 -0.14675669718E+02  0.19447637673E+02  0.99277731275E+02  0.10222354827E+03  0.00000000000E+00 0. -1.
         -1    1    1    2    0  501  0.14675669718E+02 -0.19447637673E+02  0.17788861948E+03  0.17954928803E+03  0.00000000000E+00 0.  1.
</event>
<event>
 4    1  0.6935156E+001  0.2007178E+02  0.7546771E-02  0.1532941E+00
          2   -1    0    0  502    0  0.00000000000E+00  0.00000000000E+00  0.62547333622E+02  0.62547333622E+02  0.00000000000E+00 0. -1.
         -2   -1    0    0    0  501 -0.00000000000E+00 -0.00000000000E+00 -0.22314422400E+02  0.22314422400E+02  0.00000000000E+00 0.  1.
          1    1    1    2  502    0  0.17930282516E+02  0.90211562646E+01  0.55903227937E+02  0.59397366820E+02  0.00000000000E+00 0. -1.
         -1    1    1    2    0  501 -0.17930282516E+02 -0.90211562646E+01 -0.15670316715E+02  0.25464389201E+02  0.00000000000E+00 0.  1.
</event>
<event>
 4    1  0.6935156E+001  0.5988038E+02  0.7546771E-02  0.1260240E+00
          2   -1    0    0  502    0  0.00000000000E+00  0.00000000000E+00  0.25642038775E+02  0.25642038775E+02  0.00000000000E+00 0.  1.
         -2   -1    0    0    0  501 -0.00000000000E+00 -0.00000000000E+00 -0.14367443885E+03  0.14367443885E+03  0.00000000000E+00 0. -1.
          1    1    1    2  502    0 -0.43532743216E+02 -0.41116427101E+02 -0.45177333511E+02  0.75011011009E+02  0.00000000000E+00 0.  1.
         -1    1    1    2    0  501  0.43532743216E+02  0.41116427101E+02 -0.72855066559E+02  0.94305466612E+02  0.00000000000E+00 0. -1.
</event>
<event>
 4    1  0.6935156E+001  0.2577972E+02  0.7546771E-02  0.1460267E+00
          2   -1    0    0  502    0  0.00000000000E+00  0.00000000000E+00  0.79204005829E+02  0.79204005829E+02  0.00000000000E+00 0. -1.
         -2   -1    0    0    0  501 -0.00000000000E+00 -0.00000000000E+00 -0.10184297008E+02  0.10184297008E+02  0.00000000000E+00 0.  1.
          1    1    1    2  502    0  0.40271337796E+01 -0.25463228267E+02  0.53265067405E+02  0.59175680865E+02  0.00000000000E+00 0. -1.
         -1    1    1    2    0  501 -0.40271337796E+01  0.25463228267E+02  0.15754641416E+02  0.30212621971E+02  0.00000000000E+00 0.  1.
</event>
<event>
 4    1  0.6935156E+001  0.4557220E+02  0.7546771E-02  0.1318603E+00
          2   -1    0    0  502    0  0.00000000000E+00  0.00000000000E+00  0.18832847278E+04  0.18832847278E+04  0.00000000000E+00 0. -1.
         -2   -1    0    0    0  501 -0.00000000000E+00 -0.00000000000E+00 -0.15670046401E+01  0.15670046401E+01  0.00000000000E+00 0.  1.
          1    1    1    2  502    0 -0.21876484010E+02 -0.39978049162E+02  0.42790057173E+03  0.43032049017E+03  0.00000000000E+00 0.  1.
         -1    1    1    2    0  501  0.21876484010E+02  0.39978049162E+02  0.14538171514E+04  0.14545312422E+04  0.00000000000E+00 0. -1.
</event>
<event>
 4    1  0.6935156E+001  0.2501318E+02  0.7546771E-02  0.1468656E+00
          2   -1    0    0  502    0  0.00000000000E+00  0.00000000000E+00  0.86583373800E+02  0.86583373800E+02  0.00000000000E+00 0. -1.
         -2   -1    0    0    0  501 -0.00000000000E+00 -0.00000000000E+00 -0.95284764674E+01  0.95284764674E+01  0.00000000000E+00 0.  1.
          1    1    1    2  502    0 -0.24879536944E+02  0.25821778550E+01  0.14905017378E+02  0.29117323779E+02  0.00000000000E+00 0.  1.
         -1    1    1    2    0  501  0.24879536944E+02 -0.25821778550E+01  0.62149879955E+02  0.66994526488E+02  0.00000000000E+00 0. -1.
</event>
<event>
 4    1  0.6935156E+001  0.2034546E+02  0.7546771E-02  0.1528819E+00
          2   -1    0    0  502    0  0.00000000000E+00  0.00000000000E+00  0.12857655694E+02  0.12857655694E+02  0.00000000000E+00 0.  1.
         -2   -1    0    0    0  501 -0.00000000000E+00 -0.00000000000E+00 -0.25885460341E+03  0.25885460341E+03  0.00000000000E+00 0. -1.
          1    1    1    2  502    0 -0.72234003005E+01 -0.19019993843E+02 -0.25012595365E+03  0.25095204794E+03  0.00000000000E+00 0. -1.
         -1    1    1    2    0  501  0.72234003005E+01  0.19019993843E+02  0.41290059278E+01  0.20760211166E+02  0.00000000000E+00 0.  1.
</event>
<event>
 4    1  0.6935156E+001  0.2387457E+02  0.7546771E-02  0.1481799E+00
          2   -1    0    0  502    0  0.00000000000E+00  0.00000000000E+00  0.61958909526E+03  0.61958909526E+03  0.00000000000E+00 0.  1.
         -2   -1    0    0    0  501 -0.00000000000E+00 -0.00000000000E+00 -0.10775311856E+01  0.10775311856E+01  0.00000000000E+00 0. -1.
          1    1    1    2  502    0  0.20891591779E+02  0.11555802403E+02  0.42792998978E+03  0.42859546350E+03  0.00000000000E+00 0.  1.
         -1    1    1    2    0  501 -0.20891591779E+02 -0.11555802403E+02  0.19058157429E+03  0.19207116294E+03  0.00000000000E+00 0. -1.
</event>
<event>
 4    1  0.6935156E+001  0.3378982E+02  0.7546771E-02  0.1389277E+00
          2   -1    0    0  502    0  0.00000000000E+00  0.00000000000E+00  0.42038546428E+03  0.42038546428E+03  0.00000000000E+00 0.  1.
         -2   -1    0    0    0  501 -0.00000000000E+00 -0.00000000000E+00 -0.35121860540E+01  0.35121860540E+01  0.00000000000E+00 0. -1.
          1    1    1    2  502    0  0.41430603941E+00 -0.33787277213E+02  0.10752078940E+03  0.11270524346E+03  0.00000000000E+00 0.  1.
         -1    1    1    2    0  501 -0.41430603941E+00  0.33787277213E+02  0.30935248882E+03  0.31119240687E+03  0.00000000000E+00 0. -1.
</event>
<event>
 4    1  0.6935156E+001  0.2800205E+02  0.7546771E-02  0.1437794E+00
          2   -1    0    0  502    0  0.00000000000E+00  0.00000000000E+00  0.11298137283E+04  0.11298137283E+04  0.00000000000E+00 0. -1.
         -2   -1    0    0    0  501 -0.00000000000E+00 -0.00000000000E+00 -0.69408817476E+00  0.69408817476E+00  0.00000000000E+00 0.  1.
          1    1    1    2  502    0  0.59198439448E+01  0.27369150596E+02  0.55901745770E+03  0.55971835147E+03  0.00000000000E+00 0.  1.
         -1    1    1    2    0  501 -0.59198439448E+01 -0.27369150596E+02  0.57010218244E+03  0.57078946502E+03  0.00000000000E+00 0. -1.
</event>
<event>
 4    1  0.6935156E+001  0.2506933E+02  0.7546771E-02  0.1468029E+00
          2   -1    0    0  502    0  0.00000000000E+00  0.00000000000E+00  0.94655614186E+01  0.94655614186E+01  0.00000000000E+00 0. -1.
         -2   -1    0    0    0  501 -0.00000000000E+00 -0.00000000000E+00 -0.67947202820E+02  0.67947202820E+02  0.00000000000E+00 0.  1.
          1    1    1    2  502    0  0.14416369405E+01  0.25027842752E+02 -0.35089973683E+02  0.43125137483E+02  0.00000000000E+00 0.  1.
         -1    1    1    2    0  501 -0.14416369405E+01 -0.25027842752E+02 -0.23391667718E+02  0.34287626755E+02  0.00000000000E+00 0. -1.
</event>
<event>
 4    1  0.6935156E+001  0.2532323E+02  0.7546771E-02  0.1465220E+00
          2   -1    0    0  502    0  0.00000000000E+00  0.00000000000E+00  0.12332979639E+04  0.12332979639E+04  0.00000000000E+00 0.  1.
         -2   -1    0    0    0  501 -0.00000000000E+00 -0.00000000000E+00 -0.60289356852E+00  0.60289356852E+00  0.00000000000E+00 0. -1.
          1    1    1    2  502    0 -0.23069427969E+02 -0.10443545448E+02  0.84516753285E+03  0.84554681995E+03  0.00000000000E+00 0.  1.
         -1    1    1    2    0  501  0.23069427969E+02  0.10443545448E+02  0.38752753746E+03  0.38835403750E+03  0.00000000000E+00 0. -1.
</event>
<event>
 4    1  0.6935156E+001  0.2591087E+02  0.7546771E-02  0.1458866E+00
          2   -1    0    0  502    0  0.00000000000E+00  0.00000000000E+00  0.14654816470E+01  0.14654816470E+01  0.00000000000E+00 0. -1.
         -2   -1    0    0    0  501 -0.00000000000E+00 -0.00000000000E+00 -0.55830790746E+03  0.55830790746E+03  0.00000000000E+00 0.  1.
          1    1    1    2  502    0  0.12136657054E+02 -0.22892677047E+02 -0.39698257346E+03  0.39782726998E+03  0.00000000000E+00 0.  1.
         -1    1    1    2    0  501 -0.12136657054E+02  0.22892677047E+02 -0.15985985236E+03  0.16194611913E+03  0.00000000000E+00 0. -1.
</event>
<event>
 4    1  0.6935156E+001  0.4132765E+02  0.7546771E-02  0.1340877E+00
          2   -1    0    0  502    0  0.00000000000E+00  0.00000000000E+00  0.33388193358E+02  0.33388193358E+02  0.00000000000E+00 0. -1.
         -2   -1    0    0    0  501 -0.00000000000E+00 -0.00000000000E+00 -0.89593377555E+02  0.89593377555E+02  0.00000000000E+00 0.  1.
          1    1    1    2  502    0 -0.41122149356E+01 -0.41122549534E+02 -0.68379338438E+02  0.79898112099E+02  0.00000000000E+00 0.  1.
         -1    1    1    2    0  501  0.41122149356E+01  0.41122549534E+02  0.12174154242E+02  0.43083458813E+02  0.00000000000E+00 0. -1.
</event>
<event>
 4    1  0.6935156E+001  0.2448982E+02  0.7546771E-02  0.1474592E+00
          2   -1    0    0  502    0  0.00000000000E+00  0.00000000000E+00  0.33118333113E+03  0.33118333113E+03  0.00000000000E+00 0. -1.
         -2   -1    0    0    0  501 -0.00000000000E+00 -0.00000000000E+00 -0.20154113274E+01  0.20154113274E+01  0.00000000000E+00 0.  1.
          1    1    1    2  502    0 -0.13958827192E+02 -0.20122193348E+02  0.21764953963E+03  0.21902299793E+03  0.00000000000E+00 0. -1.
         -1    1    1    2    0  501  0.13958827192E+02  0.20122193348E+02  0.11151838017E+03  0.11417574452E+03  0.00000000000E+00 0.  1.
</event>
<event>
 4    1  0.6935156E+001  0.2278371E+02  0.7546771E-02  0.1495232E+00
          2   -1    0    0  502    0  0.00000000000E+00  0.00000000000E+00  0.32461097203E+02  0.32461097203E+02  0.00000000000E+00 0. -1.
         -2   -1    0    0    0  501 -0.00000000000E+00 -0.00000000000E+00 -0.21059269482E+02  0.21059269482E+02  0.00000000000E+00 0.  1.
          1    1    1    2  502    0  0.91418480562E+01  0.20869214778E+02 -0.74265642843E+01  0.23963542485E+02  0.00000000000E+00 0.  1.
         -1    1    1    2    0  501 -0.91418480562E+01 -0.20869214778E+02  0.18828392005E+02  0.29556824201E+02  0.00000000000E+00 0. -1.
</event>
<event>
 4    1  0.6935156E+001  0.2188214E+02  0.7546771E-02  0.1507033E+00
          2   -1    0    0  502    0  0.00000000000E+00  0.00000000000E+00  0.29172122794E+01  0.29172122794E+01  0.00000000000E+00 0. -1.
         -2   -1    0    0    0  501 -0.00000000000E+00 -0.00000000000E+00 -0.16879609185E+03  0.16879609185E+03  0.00000000000E+00 0.  1.
          1    1    1    2  502    0  0.49008559023E+01  0.21326270238E+02 -0.97200506217E+02  0.99633160141E+02  0.00000000000E+00 0. -1.
         -1    1    1    2    0  501 -0.49008559023E+01 -0.21326270238E+02 -0.68678373349E+02  0.72080143983E+02  0.00000000000E+00 0.  1.
</event>
<event>
 4    1  0.6935156E+001  0.2367493E+02  0.7546771E-02  0.1484193E+00
          2   -1    0    0  502    0  0.00000000000E+00  0.00000000000E+00  0.45148627327E+03  0.45148627327E+03  0.00000000000E+00 0.  1.
         -2   -1    0    0    0  501 -0.00000000000E+00 -0.00000000000E+00 -0.12648496911E+01  0.12648496911E+01  0.00000000000E+00 0. -1.
          1    1    1    2  502    0 -0.13443444050E+02  0.19487843779E+02  0.19432704239E+03  0.19576389260E+03  0.00000000000E+00 0.  1.
         -1    1    1    2    0  501  0.13443444050E+02 -0.19487843779E+02  0.25589438119E+03  0.25698723036E+03  0.00000000000E+00 0. -1.
</event>
<event>
 4    1  0.6935156E+001  0.2005603E+02  0.7546771E-02  0.1533181E+00
          2   -1    0    0  502    0  0.00000000000E+00  0.00000000000E+00  0.17877166210E+02  0.17877166210E+02  0.00000000000E+00 0.  1.
         -2   -1    0    0    0  501 -0.00000000000E+00 -0.00000000000E+00 -0.22519769189E+02  0.22519769189E+02  0.00000000000E+00 0. -1.
          1    1    1    2  502    0 -0.17595266464E+02  0.96255320587E+01 -0.29129181302E+01  0.20266459025E+02  0.00000000000E+00 0.  1.
         -1    1    1    2    0  501  0.17595266464E+02 -0.96255320587E+01 -0.17296848492E+01  0.20130476374E+02  0.00000000000E+00 0. -1.
</event>
<event>
 4    1  0.6935156E+001  0.2241297E+02  0.7546771E-02  0.1500004E+00
          2   -1    0    0  502    0  0.00000000000E+00  0.00000000000E+00  0.59387825221E+02  0.59387825221E+02  0.00000000000E+00 0.  1.
         -2   -1    0    0    0  501 -0.00000000000E+00 -0.00000000000E+00 -0.85401817061E+01  0.85401817061E+01  0.00000000000E+00 0. -1.
          1    1    1    2  502    0  0.21198034974E+02  0.72790434987E+01  0.28742259261E+02  0.36448026400E+02  0.00000000000E+00 0. -1.
         -1    1    1    2    0  501 -0.21198034974E+02 -0.72790434987E+01  0.22105384254E+02  0.31479980528E+02  0.00000000000E+00 0.  1.
</event>
<event>
 4    1  0.6935156E+001  0.2074896E+02  0.7546771E-02  0.1522879E+00
          2   -1    0    0  502    0  0.00000000000E+00  0.00000000000E+00  0.36224272211E+02  0.36224272211E+02  0.00000000000E+00 0.  1.
         -2   -1    0    0    0  501 -0.00000000000E+00 -0.00000000000E+00 -0.12107564513E+02  0.12107564513E+02  0.00000000000E+00 0. -1.
          1    1    1    2  502    0  0.20329096618E+02  0.41529689931E+01  0.87806586250E+01  0.22530408044E+02  0.00000000000E+00 0. -1.
         -1    1    1    2    0  501 -0.20329096618E+02 -0.41529689931E+01  0.15336049073E+02  0.25801428680E+02  0.00000000000E+00 0.  1.
</event>
<event>
 4    1  0.6935156E+001  0.2275156E+02  0.7546771E-02  0.1495642E+00
          2   -1    0    0  502    0  0.00000000000E+00  0.00000000000E+00  0.15181148372E+04  0.15181148372E+04  0.00000000000E+00 0.  1.
         -2   -1    0    0    0  501 -0.00000000000E+00 -0.00000000000E+00 -0.74112473160E+00  0.74112473160E+00  0.00000000000E+00 0. -1.
          1    1    1    2  502    0  0.11922650837E+01  0.22720298404E+02  0.20066107742E+03  0.20194677875E+03  0.00000000000E+00 0. -1.
         -1    1    1    2    0  501 -0.11922650837E+01 -0.22720298404E+02  0.13167126351E+04  0.13169091832E+04  0.00000000000E+00 0.  1.
</event>
<event>
 4    1  0.6935156E+001  0.2808015E+02  0.7546771E-02  0.1437049E+00
          2   -1    0    0  502    0  0.00000000000E+00  0.00000000000E+00  0.80757416715E+03  0.80757416715E+03  0.00000000000E+00 0.  1.
         -2   -1    0    0    0  501 -0.00000000000E+00 -0.00000000000E+00 -0.98186906643E+00  0.98186906643E+00  0.00000000000E+00 0. -1.
          1    1    1    2  502    0 -0.25397182750E+01  0.27965057129E+02  0.43353961290E+03  0.43444802974E+03  0.00000000000E+00 0.  1.
         -1    1    1    2    0  501  0.25397182750E+01 -0.27965057129E+02  0.37305268518E+03  0.37410800648E+03  0.00000000000E+00 0. -1.
</event>
<event>
 4    1  0.6935156E+001  0.2463517E+02  0.7546771E-02  0.1472926E+00
          2   -1    0    0  502    0  0.00000000000E+00  0.00000000000E+00  0.20664156367E+03  0.20664156367E+03  0.00000000000E+00 0.  1.
         -2   -1    0    0    0  501 -0.00000000000E+00 -0.00000000000E+00 -0.37049739479E+01  0.37049739479E+01  0.00000000000E+00 0. -1.
          1    1    1    2  502    0 -0.19284426555E+01 -0.24559574899E+02  0.14935402332E+03  0.15137211068E+03  0.00000000000E+00 0.  1.
         -1    1    1    2    0  501  0.19284426555E+01  0.24559574899E+02  0.53582566403E+02  0.58974426938E+02  0.00000000000E+00 0. -1.
</event>
<event>
 4    1  0.6935156E+001  0.2311827E+02  0.7546771E-02  0.1491018E+00
          2   -1    0    0  502    0  0.00000000000E+00  0.00000000000E+00  0.32999353332E+02  0.32999353332E+02  0.00000000000E+00 0. -1.
         -2   -1    0    0    0  501 -0.00000000000E+00 -0.00000000000E+00 -0.26762905928E+02  0.26762905928E+02  0.00000000000E+00 0.  1.
          1    1    1    2  502    0 -0.11202661246E+02 -0.20222633176E+02 -0.15657910292E+02  0.27921759727E+02  0.00000000000E+00 0. -1.
         -1    1    1    2    0  501  0.11202661246E+02  0.20222633176E+02  0.21894357696E+02  0.31840499533E+02  0.00000000000E+00 0.  1.
</event>
<event>
 4    1  0.6935156E+001  0.2128784E+02  0.7546771E-02  0.1515195E+00
          2   -1    0    0  502    0  0.00000000000E+00  0.00000000000E+00  0.13389699327E+03  0.13389699327E+03  0.00000000000E+00 0.  1.
         -2   -1    0    0    0  501 -0.00000000000E+00 -0.00000000000E+00 -0.50958144946E+01  0.50958144946E+01  0.00000000000E+00 0. -1.
          1    1    1    2  502    0 -0.19917395089E+02  0.75146190289E+01  0.24126792845E+02  0.32175678070E+02  0.00000000000E+00 0. -1.
         -1    1    1    2    0  501  0.19917395089E+02 -0.75146190289E+01  0.10467438593E+03  0.10681712970E+03  0.00000000000E+00 0.  1.
</event>
<event>
 4    1  0.6935156E+001  0.2075328E+02  0.7546771E-02  0.1522817E+00
          2   -1    0    0  502    0  0.00000000000E+00  0.00000000000E+00  0.36127511941E+03  0.36127511941E+03  0.00000000000E+00 0.  1.
         -2   -1    0    0    0  501 -0.00000000000E+00 -0.00000000000E+00 -0.12869708542E+01  0.12869708542E+01  0.00000000000E+00 0. -1.
          1    1    1    2  502    0  0.17034042601E+02  0.11854961218E+02  0.22919700175E+03  0.23013466563E+03  0.00000000000E+00 0. -1.
         -1    1    1    2    0  501 -0.17034042601E+02 -0.11854961218E+02  0.13079114680E+03  0.13242742463E+03  0.00000000000E+00 0.  1.
</event>
<event>
 4    1  0.6935156E+001  0.1314950E+03  0.7546771E-02  0.1118254E+00
          2   -1    0    0  502    0  0.00000000000E+00  0.00000000000E+00  0.29201651006E+03  0.29201651006E+03  0.00000000000E+00 0.  1.
         -2   -1    0    0    0  501 -0.00000000000E+00 -0.00000000000E+00 -0.60755045792E+02  0.60755045792E+02  0.00000000000E+00 0. -1.
          1    1    1    2  502    0 -0.52303319407E+02 -0.12064530510E+03  0.87522082713E+02  0.15795898780E+03  0.00000000000E+00 0.  1.
         -1    1    1    2    0  501  0.52303319407E+02  0.12064530510E+03  0.14373938156E+03  0.19481256806E+03  0.00000000000E+00 0. -1.
</event>
<event>
 4    1  0.6935156E+001  0.3238498E+02  0.7546771E-02  0.1399943E+00
          2   -1    0    0  502    0  0.00000000000E+00  0.00000000000E+00  0.77020208223E+03  0.77020208223E+03  0.00000000000E+00 0. -1.
         -2   -1    0    0    0  501 -0.00000000000E+00 -0.00000000000E+00 -0.13670722867E+01  0.13670722867E+01  0.00000000000E+00 0.  1.
          1    1    1    2  502    0  0.18257477728E+02 -0.26747920245E+02  0.40859406924E+03  0.40987546908E+03  0.00000000000E+00 0. -1.
         -1    1    1    2    0  501 -0.18257477728E+02  0.26747920245E+02  0.36024094070E+03  0.36169368544E+03  0.00000000000E+00 0.  1.
</event>
<event>
 4    1  0.6935156E+001  0.2054366E+02  0.7546771E-02  0.1525881E+00
          2   -1    0    0  502    0  0.00000000000E+00  0.00000000000E+00  0.26665365581E+03  0.26665365581E+03  0.00000000000E+00 0.  1.
         -2   -1    0    0    0  501 -0.00000000000E+00 -0.00000000000E+00 -0.18948747607E+01  0.18948747607E+01  0.00000000000E+00 0. -1.
          1    1    1    2  502    0 -0.19794676519E+02  0.54966127929E+01  0.77881794533E+02  0.80545737878E+02  0.00000000000E+00 0.  1.
         -1    1    1    2    0  501  0.19794676519E+02 -0.54966127929E+01  0.18687698651E+03  0.18800279269E+03  0.00000000000E+00 0. -1.
</event>
<event>
 4    1  0.6935156E+001  0.3765570E+02  0.7546771E-02  0.1362799E+00
          2   -1    0    0  502    0  0.00000000000E+00  0.00000000000E+00  0.19291515515E+04  0.19291515515E+04  0.00000000000E+00 0. -1.
         -2   -1    0    0    0  501 -0.00000000000E+00 -0.00000000000E+00 -0.73919189430E+00  0.73919189430E+00  0.00000000000E+00 0.  1.
          1    1    1    2  502    0 -0.19267506454E+02  0.32352973270E+02  0.89165423959E+03  0.89244900956E+03  0.00000000000E+00 0.  1.
         -1    1    1    2    0  501  0.19267506454E+02 -0.32352973270E+02  0.10367581200E+04  0.10374417338E+04  0.00000000000E+00 0. -1.
</event>
<event>
 4    1  0.6935156E+001  0.2371393E+02  0.7546771E-02  0.1483723E+00
          2   -1    0    0  502    0  0.00000000000E+00  0.00000000000E+00  0.11092631075E+02  0.11092631075E+02  0.00000000000E+00 0.  1.
         -2   -1    0    0    0  501 -0.00000000000E+00 -0.00000000000E+00 -0.65631596418E+02  0.65631596418E+02  0.00000000000E+00 0. -1.
          1    1    1    2  502    0 -0.11544280218E+02  0.20714244898E+02 -0.45569838253E+02  0.51370813755E+02  0.00000000000E+00 0. -1.
         -1    1    1    2    0  501  0.11544280218E+02 -0.20714244898E+02 -0.89691270888E+01  0.25353413738E+02  0.00000000000E+00 0.  1.
</event>
<event>
 4    1  0.6935156E+001  0.2775265E+02  0.7546771E-02  0.1440191E+00
          2   -1    0    0  502    0  0.00000000000E+00  0.00000000000E+00  0.55544666961E+02  0.55544666961E+02  0.00000000000E+00 0. -1.
         -2   -1    0    0    0  501 -0.00000000000E+00 -0.00000000000E+00 -0.14588374588E+02  0.14588374588E+02  0.00000000000E+00 0.  1.
          1    1    1    2  502    0 -0.27751622949E+02  0.23877290256E+00  0.28278656272E+02  0.39621862518E+02  0.00000000000E+00 0.  1.
         -1    1    1    2    0  501  0.27751622949E+02 -0.23877290256E+00  0.12677636101E+02  0.30511179032E+02  0.00000000000E+00 0. -1.
</event>
<event>
 4    1  0.6935156E+001  0.2087426E+02  0.7546771E-02  0.1521068E+00
          2   -1    0    0  502    0  0.00000000000E+00  0.00000000000E+00  0.22829440991E+03  0.22829440991E+03  0.00000000000E+00 0. -1.
         -2   -1    0    0    0  501 -0.00000000000E+00 -0.00000000000E+00 -0.21116124679E+01  0.21116124679E+01  0.00000000000E+00 0.  1.
          1    1    1    2  502    0 -0.18658132376E+02 -0.93599606135E+01  0.77375499762E+02  0.80141766451E+02  0.00000000000E+00 0.  1.
         -1    1    1    2    0  501  0.18658132376E+02  0.93599606135E+01  0.14880729768E+03  0.15026425593E+03  0.00000000000E+00 0. -1.
</event>
<event>
 4    1  0.6935156E+001  0.2311814E+02  0.7546771E-02  0.1491020E+00
          2   -1    0    0  502    0  0.00000000000E+00  0.00000000000E+00  0.32322516220E+03  0.32322516220E+03  0.00000000000E+00 0.  1.
         -2   -1    0    0    0  501 -0.00000000000E+00 -0.00000000000E+00 -0.78661903480E+01  0.78661903480E+01  0.00000000000E+00 0. -1.
          1    1    1    2  502    0  0.21922347681E+02  0.73388611715E+01  0.10558045765E+02  0.25414966880E+02  0.00000000000E+00 0. -1.
         -1    1    1    2    0  501 -0.21922347681E+02 -0.73388611715E+01  0.30480092609E+03  0.30567638567E+03  0.00000000000E+00 0.  1.
</event>
<event>
 4    1  0.6935156E+001  0.3590409E+02  0.7546771E-02  0.1374316E+00
          2   -1    0    0  502    0  0.00000000000E+00  0.00000000000E+00  0.32726634063E+03  0.32726634063E+03  0.00000000000E+00 0.  1.
         -2   -1    0    0    0  501 -0.00000000000E+00 -0.00000000000E+00 -0.44466118575E+01  0.44466118575E+01  0.00000000000E+00 0. -1.
          1    1    1    2  502    0 -0.33159335536E+02 -0.13768162601E+02  0.21744771328E+03  0.22039195050E+03  0.00000000000E+00 0. -1.
         -1    1    1    2    0  501  0.33159335536E+02  0.13768162601E+02  0.10537201550E+03  0.11132100199E+03  0.00000000000E+00 0.  1.
</event>
<event>
 4    1  0.6935156E+001  0.2900228E+02  0.7546771E-02  0.1428469E+00
          2   -1    0    0  502    0  0.00000000000E+00  0.00000000000E+00  0.27627199730E+03  0.27627199730E+03  0.00000000000E+00 0.  1.
         -2   -1    0    0    0  501 -0.00000000000E+00 -0.00000000000E+00 -0.30536016374E+01  0.30536016374E+01  0.00000000000E+00 0. -1.
          1    1    1    2  502    0 -0.27762007122E+01 -0.28869095966E+02  0.12901756638E+03  0.13223715222E+03  0.00000000000E+00 0. -1.
         -1    1    1    2    0  501  0.27762007122E+01  0.28869095966E+02  0.14420082928E+03  0.14708844671E+03  0.00000000000E+00 0.  1.
</event>
<event>
 4    1  0.6935156E+001  0.2050914E+02  0.7546771E-02  0.1526390E+00
          2   -1    0    0  502    0  0.00000000000E+00  0.00000000000E+00  0.23092199566E+04  0.23092199566E+04  0.00000000000E+00 0. -1.
         -2   -1    0    0    0  501 -0.00000000000E+00 -0.00000000000E+00 -0.19233485925E+00  0.19233485925E+00  0.00000000000E+00 0.  1.
          1    1    1    2  502    0 -0.17000604098E+02  0.11471892626E+02  0.88879892677E+03  0.88903552071E+03  0.00000000000E+00 0.  1.
         -1    1    1    2    0  501  0.17000604098E+02 -0.11471892626E+02  0.14202286950E+04  0.14203767708E+04  0.00000000000E+00 0. -1.
</event>
<event>
 4    1  0.6935156E+001  0.2980465E+02  0.7546771E-02  0.1421302E+00
          2   -1    0    0  502    0  0.00000000000E+00  0.00000000000E+00  0.18608122171E+02  0.18608122171E+02  0.00000000000E+00 0. -1.
         -2   -1    0    0    0  501 -0.00000000000E+00 -0.00000000000E+00 -0.56597605561E+02  0.56597605561E+02  0.00000000000E+00 0.  1.
          1    1    1    2  502    0  0.12577145187E+01  0.29778096538E+02 -0.41173772896E+01  0.30087699729E+02  0.00000000000E+00 0. -1.
         -1    1    1    2    0  501 -0.12577145187E+01 -0.29778096538E+02 -0.33872106100E+02  0.45118028003E+02  0.00000000000E+00 0.  1.
</event>
<event>
 4    1  0.6935156E+001  0.5283224E+02  0.7546771E-02  0.1286339E+00
          2   -1    0    0  502    0  0.00000000000E+00  0.00000000000E+00  0.31521752653E+03  0.31521752653E+03  0.00000000000E+00 0.  1.
         -2   -1    0    0    0  501 -0.00000000000E+00 -0.00000000000E+00 -0.12540838981E+02  0.12540838981E+02  0.00000000000E+00 0. -1.
          1    1    1    2  502    0  0.90047196649E+01 -0.52059203217E+02  0.24018267370E+03  0.24592470873E+03  0.00000000000E+00 0.  1.
         -1    1    1    2    0  501 -0.90047196649E+01  0.52059203217E+02  0.62494013844E+02  0.81833656781E+02  0.00000000000E+00 0. -1.
</event>
<event>
 4    1  0.6935156E+001  0.2195899E+02  0.7546771E-02  0.1506001E+00
          2   -1    0    0  502    0  0.00000000000E+00  0.00000000000E+00  0.22747159297E+03  0.22747159297E+03  0.00000000000E+00 0.  1.
         -2   -1    0    0    0  501 -0.00000000000E+00 -0.00000000000E+00 -0.21538412639E+01  0.21538412639E+01  0.00000000000E+00 0. -1.
          1    1    1    2  502    0  0.21742675565E+02  0.30746274547E+01  0.12709006331E+03  0.12897318119E+03  0.00000000000E+00 0. -1.
         -1    1    1    2    0  501 -0.21742675565E+02 -0.30746274547E+01  0.98227688395E+02  0.10065225304E+03  0.00000000000E+00 0.  1.
</event>
<event>
 4    1  0.6935156E+001  0.2640197E+02  0.7546771E-02  0.1453710E+00
          2   -1    0    0  502    0  0.00000000000E+00  0.00000000000E+00  0.17322685261E+04  0.17322685261E+04  0.00000000000E+00 0. -1.
         -2   -1    0    0    0  501 -0.00000000000E+00 -0.00000000000E+00 -0.73915083301E+00  0.73915083301E+00  0.00000000000E+00 0.  1.
          1    1    1    2  502    0  0.20638551653E+02 -0.16465542843E+02  0.28089563147E+03  0.28213369118E+03  0.00000000000E+00 0.  1.
         -1    1    1    2    0  501 -0.20638551653E+02  0.16465542843E+02  0.14506337438E+04  0.14508739858E+04  0.00000000000E+00 0. -1.
</event>
<event>
 4    1  0.6935156E+001  0.2979408E+02  0.7546771E-02  0.1421395E+00
          2   -1    0    0  502    0  0.00000000000E+00  0.00000000000E+00  0.76682663754E+00  0.76682663754E+00  0.00000000000E+00 0. -1.
         -2   -1    0    0    0  501 -0.00000000000E+00 -0.00000000000E+00 -0.11894218988E+04  0.11894218988E+04  0.00000000000E+00 0.  1.
          1    1    1    2  502    0 -0.27754676342E+02 -0.10833515895E+02 -0.49700704639E+03  0.49789927826E+03  0.00000000000E+00 0.  1.
         -1    1    1    2    0  501  0.27754676342E+02  0.10833515895E+02 -0.69164802580E+03  0.69228944721E+03  0.00000000000E+00 0. -1.
</event>
<event>
 4    1  0.6935156E+001  0.2284011E+02  0.7546771E-02  0.1494516E+00
          2   -1    0    0  502    0  0.00000000000E+00  0.00000000000E+00  0.56579104429E+02  0.56579104429E+02  0.00000000000E+00 0.  1.
         -2   -1    0    0    0  501 -0.00000000000E+00 -0.00000000000E+00 -0.13190173668E+02  0.13190173668E+02  0.00000000000E+00 0. -1.
          1    1    1    2  502    0  0.41597716275E+01  0.22458117399E+02  0.40832737003E+02  0.46786570170E+02  0.00000000000E+00 0.  1.
         -1    1    1    2    0  501 -0.41597716275E+01 -0.22458117399E+02  0.25561937586E+01  0.22982707927E+02  0.00000000000E+00 0. -1.
</event>
<event>
 4    1  0.6935156E+001  0.3266551E+02  0.7546771E-02  0.1397763E+00
          2   -1    0    0  502    0  0.00000000000E+00  0.00000000000E+00  0.59998759226E+03  0.59998759226E+03  0.00000000000E+00 0.  1.
         -2   -1    0    0    0  501 -0.00000000000E+00 -0.00000000000E+00 -0.27854766873E+01  0.27854766873E+01  0.00000000000E+00 0. -1.
          1    1    1    2  502    0 -0.30225195195E+02  0.12388416077E+02  0.11738398157E+03  0.12184430395E+03  0.00000000000E+00 0. -1.
         -1    1    1    2    0  501  0.30225195195E+02 -0.12388416077E+02  0.47981813401E+03  0.48092876499E+03  0.00000000000E+00 0.  1.
</event>
<event>
 4    1  0.6935156E+001  0.3005933E+02  0.7546771E-02  0.1419082E+00
          2   -1    0    0  502    0  0.00000000000E+00  0.00000000000E+00  0.35032634432E+03  0.35032634432E+03  0.00000000000E+00 0. -1.
         -2   -1    0    0    0  501 -0.00000000000E+00 -0.00000000000E+00 -0.27434276363E+01  0.27434276363E+01  0.00000000000E+00 0.  1.
          1    1    1    2  502    0 -0.21611681489E+02 -0.20892545713E+02  0.13059967750E+03  0.13401432388E+03  0.00000000000E+00 0.  1.
         -1    1    1    2    0  501  0.21611681489E+02  0.20892545713E+02  0.21698323919E+03  0.21905544808E+03  0.00000000000E+00 0. -1.
</event>
<event>
 4    1  0.6935156E+001  0.2705074E+02  0.7546771E-02  0.1447099E+00
          2   -1    0    0  502    0  0.00000000000E+00  0.00000000000E+00  0.19089626487E+03  0.19089626487E+03  0.00000000000E+00 0. -1.
         -2   -1    0    0    0  501 -0.00000000000E+00 -0.00000000000E+00 -0.39674412865E+01  0.39674412865E+01  0.00000000000E+00 0.  1.
          1    1    1    2  502    0  0.14614297619E+02  0.22763231890E+02  0.75541918200E+02  0.80239166411E+02  0.00000000000E+00 0. -1.
         -1    1    1    2    0  501 -0.14614297619E+02 -0.22763231890E+02  0.11138690539E+03  0.11462453975E+03  0.00000000000E+00 0.  1.
</event>
<event>
 4    1  0.6935156E+001  0.3568280E+02  0.7546771E-02  0.1375825E+00
          2   -1    0    0  502    0  0.00000000000E+00  0.00000000000E+00  0.15848197764E+04  0.15848197764E+04  0.00000000000E+00 0.  1.
         -2   -1    0    0    0  501 -0.00000000000E+00 -0.00000000000E+00 -0.82333192050E+00  0.82333192050E+00  0.00000000000E+00 0. -1.
          1    1    1    2  502    0 -0.23417296867E+02  0.26923819859E+02  0.91532037913E+03  0.91601564305E+03  0.00000000000E+00 0. -1.
         -1    1    1    2    0  501  0.23417296867E+02 -0.26923819859E+02  0.66867606535E+03  0.66962746527E+03  0.00000000000E+00 0.  1.
</event>
<event>
 4    1  0.6935156E+001  0.2546892E+02  0.7546771E-02  0.1463625E+00
          2   -1    0    0  502    0  0.00000000000E+00  0.00000000000E+00  0.11392833019E+04  0.11392833019E+04  0.00000000000E+00 0. -1.
         -2   -1    0    0    0  501 -0.00000000000E+00 -0.00000000000E+00 -0.57038794239E+00  0.57038794239E+00  0.00000000000E+00 0.  1.
          1    1    1    2  502    0 -0.36425398102E+01 -0.25207094636E+02  0.54519675629E+03  0.54579132348E+03  0.00000000000E+00 0.  1.
         -1    1    1    2    0  501  0.36425398102E+01  0.25207094636E+02  0.59351615768E+03  0.59406236638E+03  0.00000000000E+00 0. -1.
</event>
<event>
 4    1  0.6935156E+001  0.5129910E+02  0.7546771E-02  0.1292636E+00
          2   -1    0    0  502    0  0.00000000000E+00  0.00000000000E+00  0.11913967457E+03  0.11913967457E+03  0.00000000000E+00 0.  1.
         -2   -1    0    0    0  501 -0.00000000000E+00 -0.00000000000E+00 -0.25602057089E+02  0.25602057089E+02  0.00000000000E+00 0. -1.
          1    1    1    2  502    0  0.24341646947E+02  0.45156190118E+02  0.73579617715E+02  0.89697031306E+02  0.00000000000E+00 0.  1.
         -1    1    1    2    0  501 -0.24341646947E+02 -0.45156190118E+02  0.19957999765E+02  0.55044700350E+02  0.00000000000E+00 0. -1.
</event>
<event>
 4    1  0.6935156E+001  0.3835953E+02  0.7546771E-02  0.1358377E+00
          2   -1    0    0  502    0  0.00000000000E+00  0.00000000000E+00  0.66458053697E+03  0.66458053697E+03  0.00000000000E+00 0.  1.
         -2   -1    0    0    0  501 -0.00000000000E+00 -0.00000000000E+00 -0.22154132371E+01  0.22154132371E+01  0.00000000000E+00 0. -1.
          1    1    1    2  502    0 -0.10657571347E+02  0.36849280720E+02  0.33927392980E+03  0.34143557629E+03  0.00000000000E+00 0.  1.
         -1    1    1    2    0  501  0.10657571347E+02 -0.36849280720E+02  0.32309119394E+03  0.32536037392E+03  0.00000000000E+00 0. -1.
</event>
<event>
 4    1  0.6935156E+001  0.3107909E+02  0.7546771E-02  0.1410445E+00
          2   -1    0    0  502    0  0.00000000000E+00  0.00000000000E+00  0.37726645988E+02  0.37726645988E+02  0.00000000000E+00 0. -1.
         -2   -1    0    0    0  501 -0.00000000000E+00 -0.00000000000E+00 -0.34325892968E+02  0.34325892968E+02  0.00000000000E+00 0.  1.
          1    1    1    2  502    0 -0.14461948107E+02 -0.27509309844E+02  0.19861474625E+02  0.36883441344E+02  0.00000000000E+00 0.  1.
         -1    1    1    2    0  501  0.14461948107E+02  0.27509309844E+02 -0.16460721605E+02  0.35169097612E+02  0.00000000000E+00 0. -1.
</event>
<event>
 4    1  0.6935156E+001  0.2689396E+02  0.7546771E-02  0.1448676E+00
          2   -1    0    0  502    0  0.00000000000E+00  0.00000000000E+00  0.28184725613E+03  0.28184725613E+03  0.00000000000E+00 0. -1.
         -2   -1    0    0    0  501 -0.00000000000E+00 -0.00000000000E+00 -0.27957222807E+01  0.27957222807E+01  0.00000000000E+00 0.  1.
          1    1    1    2  502    0  0.25830429583E+02 -0.74882583547E+01  0.18030196807E+03  0.18229669442E+03  0.00000000000E+00 0. -1.
         -1    1    1    2    0  501 -0.25830429583E+02  0.74882583547E+01  0.98749565783E+02  0.10234628400E+03  0.00000000000E+00 0.  1.
</event>
<event>
 4    1  0.6935156E+001  0.2752708E+02  0.7546771E-02  0.1442384E+00
          2   -1    0    0  502    0  0.00000000000E+00  0.00000000000E+00  0.30063518145E+04  0.30063518145E+04  0.00000000000E+00 0. -1.
         -2   -1    0    0    0  501 -0.00000000000E+00 -0.00000000000E+00 -0.25209724236E+00  0.25209724236E+00  0.00000000000E+00 0.  1.
          1    1    1    2  502    0 -0.79339476073E+01  0.26358918478E+02  0.14816979116E+04  0.14819535895E+04  0.00000000000E+00 0. -1.
         -1    1    1    2    0  501  0.79339476073E+01 -0.26358918478E+02  0.15244018056E+04  0.15246503222E+04  0.00000000000E+00 0.  1.
</event>
<event>
 4    1  0.6935156E+001  0.2043643E+02  0.7546771E-02  0.1527465E+00
          2   -1    0    0  502    0  0.00000000000E+00  0.00000000000E+00  0.36468400213E+03  0.36468400213E+03  0.00000000000E+00 0. -1.
         -2   -1    0    0    0  501 -0.00000000000E+00 -0.00000000000E+00 -0.11670375375E+01  0.11670375375E+01  0.00000000000E+00 0.  1.
          1    1    1    2  502    0 -0.85291892943E+01  0.18571499842E+02  0.20676299307E+03  0.20777050556E+03  0.00000000000E+00 0.  1.
         -1    1    1    2    0  501  0.85291892943E+01 -0.18571499842E+02  0.15675397152E+03  0.15808053411E+03  0.00000000000E+00 0. -1.
</event>
<event>
 4    1  0.6935156E+001  0.2674053E+02  0.7546771E-02  0.1450232E+00
          2   -1    0    0  502    0  0.00000000000E+00  0.00000000000E+00  0.73538304267E+03  0.73538304267E+03  0.00000000000E+00 0.  1.
         -2   -1    0    0    0  501 -0.00000000000E+00 -0.00000000000E+00 -0.25083542718E+01  0.25083542718E+01  0.00000000000E+00 0. -1.
          1    1    1    2  502    0  0.14292434073E+02 -0.22600496408E+02  0.65514812000E+03  0.65569361385E+03  0.00000000000E+00 0.  1.
         -1    1    1    2    0  501 -0.14292434073E+02  0.22600496408E+02  0.77726568402E+02  0.82197783091E+02  0.00000000000E+00 0. -1.
</event>
<event>
 4    1  0.6935156E+001  0.3106027E+02  0.7546771E-02  0.1410601E+00
          2   -1    0    0  502    0  0.00000000000E+00  0.00000000000E+00  0.11182235426E+03  0.11182235426E+03  0.00000000000E+00 0. -1.
         -2   -1    0    0    0  501 -0.00000000000E+00 -0.00000000000E+00 -0.86360429085E+01  0.86360429085E+01  0.00000000000E+00 0.  1.
          1    1    1    2  502    0  0.25109952013E+02  0.18281971787E+02  0.53494576773E+02  0.61857981915E+02  0.00000000000E+00 0.  1.
         -1    1    1    2    0  501 -0.25109952013E+02 -0.18281971787E+02  0.49691734584E+02  0.58600415258E+02  0.00000000000E+00 0. -1.
</event>
<event>
 4    1  0.6935156E+001  0.3825332E+02  0.7546771E-02  0.1359037E+00
          2   -1    0    0  502    0  0.00000000000E+00  0.00000000000E+00  0.50385014297E+03  0.50385014297E+03  0.00000000000E+00 0. -1.
         -2   -1    0    0    0  501 -0.00000000000E+00 -0.00000000000E+00 -0.41185072444E+01  0.41185072444E+01  0.00000000000E+00 0.  1.
          1    1    1    2  502    0 -0.23189944272E+02 -0.30422741880E+02  0.11195802322E+03  0.11831278757E+03  0.00000000000E+00 0.  1.
         -1    1    1    2    0  501  0.23189944272E+02  0.30422741880E+02  0.38777361250E+03  0.38965586264E+03  0.00000000000E+00 0. -1.
</event>
<event>
 4    1  0.6935156E+001  0.2054426E+02  0.7546771E-02  0.1525872E+00
          2   -1    0    0  502    0  0.00000000000E+00  0.00000000000E+00  0.12998362375E+04  0.12998362375E+04  0.00000000000E+00 0. -1.
         -2   -1    0    0    0  501 -0.00000000000E+00 -0.00000000000E+00 -0.54079501111E+00  0.54079501111E+00  0.00000000000E+00 0.  1.
          1    1    1    2  502    0  0.16253917335E+02 -0.12564901704E+02  0.10606438995E+04  0.10608428479E+04  0.00000000000E+00 0. -1.
         -1    1    1    2    0  501 -0.16253917335E+02  0.12564901704E+02  0.23865154301E+03  0.23953418455E+03  0.00000000000E+00 0.  1.
</event>
<event>
 4    1  0.6935156E+001  0.2120956E+02  0.7546771E-02  0.1516294E+00
          2   -1    0    0  502    0  0.00000000000E+00  0.00000000000E+00  0.10470110016E+02  0.10470110016E+02  0.00000000000E+00 0. -1.
         -2   -1    0    0    0  501 -0.00000000000E+00 -0.00000000000E+00 -0.56401112238E+02  0.56401112238E+02  0.00000000000E+00 0.  1.
          1    1    1    2  502    0  0.19502991480E+02  0.83354043930E+01 -0.66460214183E+01  0.22226453693E+02  0.00000000000E+00 0. -1.
         -1    1    1    2    0  501 -0.19502991480E+02 -0.83354043930E+01 -0.39284980804E+02  0.44644768560E+02  0.00000000000E+00 0.  1.
</event>
<event>
 4    1  0.6935156E+001  0.2477495E+02  0.7546771E-02  0.1471337E+00
          2   -1    0    0  502    0  0.00000000000E+00  0.00000000000E+00  0.55591247926E+03  0.55591247926E+03  0.00000000000E+00 0.  1.
         -2   -1    0    0    0  501 -0.00000000000E+00 -0.00000000000E+00 -0.16182618777E+01  0.16182618777E+01  0.00000000000E+00 0. -1.
          1    1    1    2  502    0  0.69090626436E+01  0.23792080944E+02  0.12001941413E+03  0.12254981856E+03  0.00000000000E+00 0. -1.
         -1    1    1    2    0  501 -0.69090626436E+01 -0.23792080944E+02  0.43427480325E+03  0.43498092257E+03  0.00000000000E+00 0.  1.
</event>
<event>
 4    1  0.6935156E+001  0.2484847E+02  0.7546771E-02  0.1470506E+00
          2   -1    0    0  502    0  0.00000000000E+00  0.00000000000E+00  0.20402212446E+02  0.20402212446E+02  0.00000000000E+00 0.  1.
         -2   -1    0    0    0  501 -0.00000000000E+00 -0.00000000000E+00 -0.39334606505E+02  0.39334606505E+02  0.00000000000E+00 0. -1.
          1    1    1    2  502    0  0.13476118841E+02  0.20876792066E+02 -0.23809536734E+02  0.34414245096E+02  0.00000000000E+00 0. -1.
         -1    1    1    2    0  501 -0.13476118841E+02 -0.20876792066E+02  0.48771426752E+01  0.25322573856E+02  0.00000000000E+00 0.  1.
</event>
<event>
 4    1  0.6935156E+001  0.2625221E+02  0.7546771E-02  0.1455268E+00
          2   -1    0    0  502    0  0.00000000000E+00  0.00000000000E+00  0.25041716966E+02  0.25041716966E+02  0.00000000000E+00 0.  1.
         -2   -1    0    0    0  501 -0.00000000000E+00 -0.00000000000E+00 -0.28368580271E+02  0.28368580271E+02  0.00000000000E+00 0. -1.
          1    1    1    2  502    0  0.25258042053E+02 -0.71561158354E+01 -0.62788324882E+01  0.26992636396E+02  0.00000000000E+00 0. -1.
         -1    1    1    2    0  501 -0.25258042053E+02  0.71561158354E+01  0.29519691835E+01  0.26417660840E+02  0.00000000000E+00 0.  1.
</event>
<event>
 4    1  0.6935156E+001  0.3833739E+02  0.7546771E-02  0.1358514E+00
          2   -1    0    0  502    0  0.00000000000E+00  0.00000000000E+00  0.10575698070E+02  0.10575698070E+02  0.00000000000E+00 0.  1.
         -2   -1    0    0    0  501 -0.00000000000E+00 -0.00000000000E+00 -0.24240746146E+03  0.24240746146E+03  0.00000000000E+00 0. -1.
          1    1    1    2  502    0  0.37877403217E+02  0.59209941838E+01 -0.19854201144E+03  0.20220951055E+03  0.00000000000E+00 0. -1.
         -1    1    1    2    0  501 -0.37877403217E+02 -0.59209941838E+01 -0.33289751944E+02  0.50773648983E+02  0.00000000000E+00 0.  1.
</event>
<event>
 4    1  0.6935156E+001  0.2086212E+02  0.7546771E-02  0.1521243E+00
          2   -1    0    0  502    0  0.00000000000E+00  0.00000000000E+00  0.22101000533E+02  0.22101000533E+02  0.00000000000E+00 0.  1.
         -2   -1    0    0    0  501 -0.00000000000E+00 -0.00000000000E+00 -0.45931860176E+02  0.45931860176E+02  0.00000000000E+00 0. -1.
          1    1    1    2  502    0  0.19272324285E+02  0.79878421807E+01 -0.37625708591E+02  0.43022343649E+02  0.00000000000E+00 0. -1.
         -1    1    1    2    0  501 -0.19272324285E+02 -0.79878421807E+01  0.13794848949E+02  0.25010517060E+02  0.00000000000E+00 0.  1.
</event>
<event>
 4    1  0.6935156E+001  0.3502953E+02  0.7546771E-02  0.1380356E+00
          2   -1    0    0  502    0  0.00000000000E+00  0.00000000000E+00  0.24327606509E+03  0.24327606509E+03  0.00000000000E+00 0. -1.
         -2   -1    0    0    0  501 -0.00000000000E+00 -0.00000000000E+00 -0.50473987235E+01  0.50473987235E+01  0.00000000000E+00 0.  1.
          1    1    1    2  502    0  0.30654378371E+02 -0.16952189645E+02  0.12236884808E+03  0.12728394489E+03  0.00000000000E+00 0. -1.
         -1    1    1    2    0  501 -0.30654378371E+02  0.16952189645E+02  0.11585981828E+03  0.12103951892E+03  0.00000000000E+00 0.  1.
</event>
<event>
 4    1  0.6935156E+001  0.2168120E+02  0.7546771E-02  0.1509757E+00
          2   -1    0    0  502    0  0.00000000000E+00  0.00000000000E+00  0.28182134301E+04  0.28182134301E+04  0.00000000000E+00 0.  1.
         -2   -1    0    0    0  501 -0.00000000000E+00 -0.00000000000E+00 -0.17012041589E+00  0.17012041589E+00  0.00000000000E+00 0. -1.
          1    1    1    2  502    0 -0.15603375296E+02 -0.15053537044E+02  0.16059344844E+04  0.16060808331E+04  0.00000000000E+00 0.  1.
         -1    1    1    2    0  501  0.15603375296E+02  0.15053537044E+02  0.12121088253E+04  0.12123027174E+04  0.00000000000E+00 0. -1.
</event>
<event>
 4    1  0.6935156E+001  0.6877702E+02  0.7546771E-02  0.1232612E+00
          2   -1    0    0  502    0  0.00000000000E+00  0.00000000000E+00  0.61638156859E+02  0.61638156859E+02  0.00000000000E+00 0.  1.
         -2   -1    0    0    0  501 -0.00000000000E+00 -0.00000000000E+00 -0.82887820179E+02  0.82887820179E+02  0.00000000000E+00 0. -1.
          1    1    1    2  502    0 -0.44633350983E+02  0.52327267768E+02 -0.30300773263E+02  0.75155943427E+02  0.00000000000E+00 0. -1.
         -1    1    1    2    0  501  0.44633350983E+02 -0.52327267768E+02  0.90511099439E+01  0.69370033611E+02  0.00000000000E+00 0.  1.
</event>
<event>
 4    1  0.6935156E+001  0.3045144E+02  0.7546771E-02  0.1415713E+00
          2   -1    0    0  502    0  0.00000000000E+00  0.00000000000E+00  0.19661441206E+01  0.19661441206E+01  0.00000000000E+00 0. -1.
         -2   -1    0    0    0  501 -0.00000000000E+00 -0.00000000000E+00 -0.52189459673E+03  0.52189459673E+03  0.00000000000E+00 0.  1.
          1    1    1    2  502    0  0.29248441640E+02  0.84745829280E+01 -0.17867529817E+03  0.18125162640E+03  0.00000000000E+00 0. -1.
         -1    1    1    2    0  501 -0.29248441640E+02 -0.84745829280E+01 -0.34125315443E+03  0.34260911445E+03  0.00000000000E+00 0.  1.
</event>
<event>
 4    1  0.6935156E+001  0.2006221E+02  0.7546771E-02  0.1533087E+00
          2   -1    0    0  502    0  0.00000000000E+00  0.00000000000E+00  0.77314200446E+03  0.77314200446E+03  0.00000000000E+00 0.  1.
         -2   -1    0    0    0  501 -0.00000000000E+00 -0.00000000000E+00 -0.57295975936E+00  0.57295975936E+00  0.00000000000E+00 0. -1.
          1    1    1    2  502    0 -0.19797042732E+02  0.32510612264E+01  0.26933003951E+03  0.27007621606E+03  0.00000000000E+00 0. -1.
         -1    1    1    2    0  501  0.19797042732E+02 -0.32510612264E+01  0.50323900519E+03  0.50363874816E+03  0.00000000000E+00 0.  1.
</event>
<event>
 4    1  0.6935156E+001  0.2416634E+02  0.7546771E-02  0.1478350E+00
          2   -1    0    0  502    0  0.00000000000E+00  0.00000000000E+00  0.33979243920E+03  0.33979243920E+03  0.00000000000E+00 0.  1.
         -2   -1    0    0    0  501 -0.00000000000E+00 -0.00000000000E+00 -0.17736699175E+01  0.17736699175E+01  0.00000000000E+00 0. -1.
          1    1    1    2  502    0 -0.10700507293E+02  0.21668210491E+02  0.19906625326E+03  0.20052776712E+03  0.00000000000E+00 0.  1.
         -1    1    1    2    0  501  0.10700507293E+02 -0.21668210491E+02  0.13895251602E+03  0.14103834199E+03  0.00000000000E+00 0. -1.
</event>
<event>
 4    1  0.6935156E+001  0.2355492E+02  0.7546771E-02  0.1485645E+00
          2   -1    0    0  502    0  0.00000000000E+00  0.00000000000E+00  0.12410994220E+04  0.12410994220E+04  0.00000000000E+00 0. -1.
         -2   -1    0    0    0  501 -0.00000000000E+00 -0.00000000000E+00 -0.12449511060E+01  0.12449511060E+01  0.00000000000E+00 0.  1.
          1    1    1    2  502    0  0.22706673445E+02 -0.62642813050E+01  0.12263666459E+03  0.12487828370E+03  0.00000000000E+00 0.  1.
         -1    1    1    2    0  501 -0.22706673445E+02  0.62642813050E+01  0.11172178063E+04  0.11174660894E+04  0.00000000000E+00 0. -1.
</event>
<event>
 4    1  0.6935156E+001  0.2455111E+02  0.7546771E-02  0.1473888E+00
          2   -1    0    0  502    0  0.00000000000E+00  0.00000000000E+00  0.36453285491E+03  0.36453285491E+03  0.00000000000E+00 0. -1.
         -2   -1    0    0    0  501 -0.00000000000E+00 -0.00000000000E+00 -0.25336618101E+01  0.25336618101E+01  0.00000000000E+00 0.  1.
          1    1    1    2  502    0  0.22937702115E+02 -0.87532092268E+01  0.72826188724E+02  0.76853175693E+02  0.00000000000E+00 0.  1.
         -1    1    1    2    0  501 -0.22937702115E+02  0.87532092268E+01  0.28917300438E+03  0.29021334103E+03  0.00000000000E+00 0. -1.
</event>
<event>
 4    1  0.6935156E+001  0.2177070E+02  0.7546771E-02  0.1508540E+00
          2   -1    0    0  502    0  0.00000000000E+00  0.00000000000E+00  0.62015717840E+03  0.62015717840E+03  0.00000000000E+00 0.  1.
         -2   -1    0    0    0  501 -0.00000000000E+00 -0.00000000000E+00 -0.93002508432E+00  0.93002508432E+00  0.00000000000E+00 0. -1.
          1    1    1    2  502    0  0.21547626332E+02 -0.31085671801E+01  0.17850913015E+03  0.17983179068E+03  0.00000000000E+00 0. -1.
         -1    1    1    2    0  501 -0.21547626332E+02  0.31085671801E+01  0.44071802317E+03  0.44125541281E+03  0.00000000000E+00 0.  1.
</event>
<event>
 4    1  0.6935156E+001  0.2028367E+02  0.7546771E-02  0.1529743E+00
          2   -1    0    0  502    0  0.00000000000E+00  0.00000000000E+00  0.21003020497E+03  0.21003020497E+03  0.00000000000E+00 0.  1.
         -2   -1    0    0    0  501 -0.00000000000E+00 -0.00000000000E+00 -0.23466534642E+01  0.23466534642E+01  0.00000000000E+00 0. -1.
          1    1    1    2  502    0 -0.17071121118E+02 -0.10954633107E+02  0.14700692442E+03  0.14839967315E+03  0.00000000000E+00 0.  1.
         -1    1    1    2    0  501  0.17071121118E+02  0.10954633107E+02  0.60676627083E+02  0.63977185284E+02  0.00000000000E+00 0. -1.
</event>
<event>
 4    1  0.6935156E+001  0.2288961E+02  0.7546771E-02  0.1493889E+00
          2   -1    0    0  502    0  0.00000000000E+00  0.00000000000E+00  0.16665832246E+04  0.16665832246E+04  0.00000000000E+00 0.  1.
         -2   -1    0    0    0  501 -0.00000000000E+00 -0.00000000000E+00 -0.31438200729E+00  0.31438200729E+00  0.00000000000E+00 0. -1.
          1    1    1    2  502    0  0.16990437551E+02  0.15338168798E+02  0.83666260878E+03  0.83697565993E+03  0.00000000000E+00 0.  1.
         -1    1    1    2    0  501 -0.16990437551E+02 -0.15338168798E+02  0.82960623382E+03  0.82992194668E+03  0.00000000000E+00 0. -1.
</event>
<event>
 4    1  0.6935156E+001  0.2671893E+02  0.7546771E-02  0.1450452E+00
          2   -1    0    0  502    0  0.00000000000E+00  0.00000000000E+00  0.26171013237E+03  0.26171013237E+03  0.00000000000E+00 0. -1.
         -2   -1    0    0    0  501 -0.00000000000E+00 -0.00000000000E+00 -0.34812726154E+01  0.34812726154E+01  0.00000000000E+00 0.  1.
          1    1    1    2  502    0  0.26701029933E+02  0.97780320676E+00  0.19080022094E+03  0.19266194592E+03  0.00000000000E+00 0. -1.
         -1    1    1    2    0  501 -0.26701029933E+02 -0.97780320676E+00  0.67428638823E+02  0.72529459065E+02  0.00000000000E+00 0.  1.
</event>
<event>
 4    1  0.6935156E+001  0.3765248E+02  0.7546771E-02  0.1362820E+00
          2   -1    0    0  502    0  0.00000000000E+00  0.00000000000E+00  0.10013061813E+03  0.10013061813E+03  0.00000000000E+00 0.  1.
         -2   -1    0    0    0  501 -0.00000000000E+00 -0.00000000000E+00 -0.14234985774E+02  0.14234985774E+02  0.00000000000E+00 0. -1.
          1    1    1    2  502    0  0.22199696141E+02 -0.30411887293E+02  0.38758989715E+02  0.54036734553E+02  0.00000000000E+00 0. -1.
         -1    1    1    2    0  501 -0.22199696141E+02  0.30411887293E+02  0.47136642639E+02  0.60328869348E+02  0.00000000000E+00 0.  1.
</event>
<event>
 4    1  0.6935156E+001  0.4671168E+02  0.7546771E-02  0.1313096E+00
          2   -1    0    0  502    0  0.00000000000E+00  0.00000000000E+00  0.83383693992E+03  0.83383693992E+03  0.00000000000E+00 0.  1.
         -2   -1    0    0    0  501 -0.00000000000E+00 -0.00000000000E+00 -0.28559686040E+01  0.28559686040E+01  0.00000000000E+00 0. -1.
          1    1    1    2  502    0  0.46095290167E+02 -0.75634095924E+01  0.29442639533E+03  0.29810884456E+03  0.00000000000E+00 0.  1.
         -1    1    1    2    0  501 -0.46095290167E+02  0.75634095924E+01  0.53655457599E+03  0.53858406396E+03  0.00000000000E+00 0. -1.
</event>
<event>
 4    1  0.6935156E+001  0.2001777E+02  0.7546771E-02  0.1533764E+00
          2   -1    0    0  502    0  0.00000000000E+00  0.00000000000E+00  0.31523165192E+01  0.31523165192E+01  0.00000000000E+00 0. -1.
         -2   -1    0    0    0  501 -0.00000000000E+00 -0.00000000000E+00 -0.14131394233E+03  0.14131394233E+03  0.00000000000E+00 0.  1.
          1    1    1    2  502    0  0.12640003011E+02  0.15522293739E+02 -0.46185331702E+02  0.50336826911E+02  0.00000000000E+00 0. -1.
         -1    1    1    2    0  501 -0.12640003011E+02 -0.15522293739E+02 -0.91976294108E+02  0.94129431937E+02  0.00000000000E+00 0.  1.
</event>
<event>
 4    1  0.6935156E+001  0.2853767E+02  0.7546771E-02  0.1432745E+00
          2   -1    0    0  502    0  0.00000000000E+00  0.00000000000E+00  0.41633959555E+02  0.41633959555E+02  0.00000000000E+00 0.  1.
         -2   -1    0    0    0  501 -0.00000000000E+00 -0.00000000000E+00 -0.31701940586E+02  0.31701940586E+02  0.00000000000E+00 0. -1.
          1    1    1    2  502    0 -0.12507980337E+02  0.25650514653E+02 -0.17725915476E+02  0.33594739968E+02  0.00000000000E+00 0. -1.
         -1    1    1    2    0  501  0.12507980337E+02 -0.25650514653E+02  0.27657934445E+02  0.39741160173E+02  0.00000000000E+00 0.  1.
</event>
<event>
 4    1  0.6935156E+001  0.5523126E+02  0.7546771E-02  0.1276957E+00
          2   -1    0    0  502    0  0.00000000000E+00  0.00000000000E+00  0.15825017076E+03  0.15825017076E+03  0.00000000000E+00 0. -1.
         -2   -1    0    0    0  501 -0.00000000000E+00 -0.00000000000E+00 -0.19522286236E+02  0.19522286236E+02  0.00000000000E+00 0.  1.
          1    1    1    2  502    0 -0.54772097842E+02 -0.71069615153E+01  0.79339733273E+02  0.96671013648E+02  0.00000000000E+00 0. -1.
         -1    1    1    2    0  501  0.54772097842E+02  0.71069615153E+01  0.59388151250E+02  0.81101443346E+02  0.00000000000E+00 0.  1.
</event>
<event>
 4    1  0.6935156E+001  0.2276273E+02  0.7546771E-02  0.1495499E+00
          2   -1    0    0  502    0  0.00000000000E+00  0.00000000000E+00  0.12009560929E+03  0.12009560929E+03  0.00000000000E+00 0. -1.
         -2   -1    0    0    0  501 -0.00000000000E+00 -0.00000000000E+00 -0.48766693574E+01  0.48766693574E+01  0.00000000000E+00 0.  1.
          1    1    1    2  502    0  0.79506422629E+01 -0.21329072575E+02  0.78826727720E+02  0.82047517040E+02  0.00000000000E+00 0. -1.
         -1    1    1    2    0  501 -0.79506422629E+01  0.21329072575E+02  0.36392212210E+02  0.42924761605E+02  0.00000000000E+00 0.  1.
</event>
<event>
 4    1  0.6935156E+001  0.2243990E+02  0.7546771E-02  0.1499654E+00
          2   -1    0    0  502    0  0.00000000000E+00  0.00000000000E+00  0.24633896952E+04  0.24633896952E+04  0.00000000000E+00 0.  1.
         -2   -1    0    0    0  501 -0.00000000000E+00 -0.00000000000E+00 -0.20973667468E+00  0.20973667468E+00  0.00000000000E+00 0. -1.
          1    1    1    2  502    0 -0.17578509513E+02  0.13947936255E+02  0.10353407658E+04  0.10355839175E+04  0.00000000000E+00 0. -1.
         -1    1    1    2    0  501  0.17578509513E+02 -0.13947936255E+02  0.14278391928E+04  0.14280155144E+04  0.00000000000E+00 0.  1.
</event>
<event>
 4    1  0.6935156E+001  0.1079925E+03  0.7546771E-02  0.1150635E+00
          2   -1    0    0  502    0  0.00000000000E+00  0.00000000000E+00  0.49642290617E+03  0.49642290617E+03  0.00000000000E+00 0. -1.
         -2   -1    0    0    0  501 -0.00000000000E+00 -0.00000000000E+00 -0.29676325571E+02  0.29676325571E+02  0.00000000000E+00 0.  1.
          1    1    1    2  502    0  0.31038278755E+02 -0.10343597690E+03  0.11329905236E+03  0.15652172799E+03  0.00000000000E+00 0.  1.
         -1    1    1    2    0  501 -0.31038278755E+02  0.10343597690E+03  0.35344752823E+03  0.36957750375E+03  0.00000000000E+00 0. -1.
</event>
<event>
 4    1  0.6935156E+001  0.4142081E+02  0.7546771E-02  0.1340355E+00
          2   -1    0    0  502    0  0.00000000000E+00  0.00000000000E+00  0.32640078465E+03  0.32640078465E+03  0.00000000000E+00 0. -1.
         -2   -1    0    0    0  501 -0.00000000000E+00 -0.00000000000E+00 -0.57761507901E+01  0.57761507901E+01  0.00000000000E+00 0.  1.
          1    1    1    2  502    0 -0.26620685739E+02  0.31733624466E+02  0.11048934375E+03  0.11799821572E+03  0.00000000000E+00 0.  1.
         -1    1    1    2    0  501  0.26620685739E+02 -0.31733624466E+02  0.21013529011E+03  0.21417871972E+03  0.00000000000E+00 0. -1.
</event>
<event>
 4    1  0.6935156E+001  0.2150127E+02  0.7546771E-02  0.1512227E+00
          2   -1    0    0  502    0  0.00000000000E+00  0.00000000000E+00  0.74505589417E+03  0.74505589417E+03  0.00000000000E+00 0.  1.
         -2   -1    0    0    0  501 -0.00000000000E+00 -0.00000000000E+00 -0.12421175201E+01  0.12421175201E+01  0.00000000000E+00 0. -1.
          1    1    1    2  502    0  0.42221428748E+01 -0.21082651646E+02  0.63588245841E+03  0.63624586883E+03  0.00000000000E+00 0.  1.
         -1    1    1    2    0  501 -0.42221428748E+01  0.21082651646E+02  0.10793131823E+03  0.11005214285E+03  0.00000000000E+00 0. -1.
</event>
<event>
 4    1  0.6935156E+001  0.2001035E+02  0.7546771E-02  0.1533877E+00
          2   -1    0    0  502    0  0.00000000000E+00  0.00000000000E+00  0.19556750222E+04  0.19556750222E+04  0.00000000000E+00 0. -1.
         -2   -1    0    0    0  501 -0.00000000000E+00 -0.00000000000E+00 -0.20643536133E+00  0.20643536133E+00  0.00000000000E+00 0.  1.
          1    1    1    2  502    0 -0.57611036921E+01  0.19163080722E+02  0.10662369885E+04  0.10664247416E+04  0.00000000000E+00 0. -1.
         -1    1    1    2    0  501  0.57611036921E+01 -0.19163080722E+02  0.88923159837E+03  0.88945671594E+03  0.00000000000E+00 0.  1.
</event>
<event>
 4    1  0.6935156E+001  0.2640384E+02  0.7546771E-02  0.1453690E+00
          2   -1    0    0  502    0  0.00000000000E+00  0.00000000000E+00  0.33146046669E+03  0.33146046669E+03  0.00000000000E+00 0.  1.
         -2   -1    0    0    0  501 -0.00000000000E+00 -0.00000000000E+00 -0.25525342893E+01  0.25525342893E+01  0.00000000000E+00 0. -1.
          1    1    1    2  502    0 -0.10393920451E+02 -0.24271980722E+02  0.23451577770E+03  0.23599748436E+03  0.00000000000E+00 0.  1.
         -1    1    1    2    0  501  0.10393920451E+02  0.24271980722E+02  0.94392154693E+02  0.98015516619E+02  0.00000000000E+00 0. -1.
</event>
<event>
 4    1  0.6935156E+001  0.2540115E+02  0.7546771E-02  0.1464365E+00
          2   -1    0    0  502    0  0.00000000000E+00  0.00000000000E+00  0.12497230389E+01  0.12497230389E+01  0.00000000000E+00 0. -1.
         -2   -1    0    0    0  501 -0.00000000000E+00 -0.00000000000E+00 -0.94775081759E+03  0.94775081759E+03  0.00000000000E+00 0.  1.
          1    1    1    2  502    0 -0.24465275337E+02  0.68314606883E+01 -0.79340566322E+03  0.79381217236E+03  0.00000000000E+00 0.  1.
         -1    1    1    2    0  501  0.24465275337E+02 -0.68314606883E+01 -0.15309543133E+03  0.15518836827E+03  0.00000000000E+00 0. -1.
</event>
<event>
 4    1  0.6935156E+001  0.2375457E+02  0.7546771E-02  0.1483234E+00
          2   -1    0    0  502    0  0.00000000000E+00  0.00000000000E+00  0.77362147634E+01  0.77362147634E+01  0.00000000000E+00 0. -1.
         -2   -1    0    0    0  501 -0.00000000000E+00 -0.00000000000E+00 -0.81705399264E+02  0.81705399264E+02  0.00000000000E+00 0.  1.
          1    1    1    2  502    0 -0.17373326863E+02 -0.16200218318E+02 -0.51632308864E+02  0.56834627459E+02  0.00000000000E+00 0.  1.
         -1    1    1    2    0  501  0.17373326863E+02  0.16200218318E+02 -0.22336875636E+02  0.32606986568E+02  0.00000000000E+00 0. -1.
</event>
<event>
 4    1  0.6935156E+001  0.3949337E+02  0.7546771E-02  0.1351480E+00
          2   -1    0    0  502    0  0.00000000000E+00  0.00000000000E+00  0.13364924773E+04  0.13364924773E+04  0.00000000000E+00 0. -1.
         -2   -1    0    0    0  501 -0.00000000000E+00 -0.00000000000E+00 -0.11671945688E+01  0.11671945688E+01  0.00000000000E+00 0.  1.
          1    1    1    2  502    0 -0.45219416292E+01  0.39233639649E+02  0.67561126907E+03  0.67676459226E+03  0.00000000000E+00 0. -1.
         -1    1    1    2    0  501  0.45219416292E+01 -0.39233639649E+02  0.65971401363E+03  0.66089507958E+03  0.00000000000E+00 0.  1.
</event>
<event>
 4    1  0.6935156E+001  0.2273539E+02  0.7546771E-02  0.1495848E+00
          2   -1    0    0  502    0  0.00000000000E+00  0.00000000000E+00  0.21179111588E+03  0.21179111588E+03  0.00000000000E+00 0. -1.
         -2   -1    0    0    0  501 -0.00000000000E+00 -0.00000000000E+00 -0.24648424537E+01  0.24648424537E+01  0.00000000000E+00 0.  1.
          1    1    1    2  502    0 -0.12087476038E+02  0.19255925534E+02  0.11528698622E+03  0.11750739099E+03  0.00000000000E+00 0.  1.
         -1    1    1    2    0  501  0.12087476038E+02 -0.19255925534E+02  0.94039287203E+02  0.96748567342E+02  0.00000000000E+00 0. -1.
</event>
<event>
 4    1  0.6935156E+001  0.3380206E+02  0.7546771E-02  0.1389186E+00
          2   -1    0    0  502    0  0.00000000000E+00  0.00000000000E+00  0.32087915384E+03  0.32087915384E+03  0.00000000000E+00 0. -1.
         -2   -1    0    0    0  501 -0.00000000000E+00 -0.00000000000E+00 -0.43454804604E+01  0.43454804604E+01  0.00000000000E+00 0.  1.
          1    1    1    2  502    0 -0.29492936740E+02  0.16515017654E+02  0.22736831026E+03  0.22986719565E+03  0.00000000000E+00 0. -1.
         -1    1    1    2    0  501  0.29492936740E+02 -0.16515017654E+02  0.89165363119E+02  0.95357438649E+02  0.00000000000E+00 0.  1.
</event>
<event>
 4    1  0.6935156E+001  0.3432123E+02  0.7546771E-02  0.1385399E+00
          2   -1    0    0  502    0  0.00000000000E+00  0.00000000000E+00  0.12686648661E+04  0.12686648661E+04  0.00000000000E+00 0. -1.
         -2   -1    0    0    0  501 -0.00000000000E+00 -0.00000000000E+00 -0.10646447160E+01  0.10646447160E+01  0.00000000000E+00 0.  1.
          1    1    1    2  502    0  0.21239775099E+02 -0.26959570572E+02  0.40676638791E+03  0.40821175978E+03  0.00000000000E+00 0. -1.
         -1    1    1    2    0  501 -0.21239775099E+02  0.26959570572E+02  0.86083383348E+03  0.86151775104E+03  0.00000000000E+00 0.  1.
</event>
<event>
 4    1  0.6935156E+001  0.2583633E+02  0.7546771E-02  0.1459661E+00
          2   -1    0    0  502    0  0.00000000000E+00  0.00000000000E+00  0.40754328102E+02  0.40754328102E+02  0.00000000000E+00 0. -1.
         -2   -1    0    0    0  501 -0.00000000000E+00 -0.00000000000E+00 -0.16657122033E+02  0.16657122033E+02  0.00000000000E+00 0.  1.
          1    1    1    2  502    0 -0.22178517294E+02 -0.13252516588E+02  0.15757742006E+02  0.30262555385E+02  0.00000000000E+00 0. -1.
         -1    1    1    2    0  501  0.22178517294E+02  0.13252516588E+02  0.83394640626E+01  0.27148894750E+02  0.00000000000E+00 0.  1.
</event>
<event>
 4    1  0.6935156E+001  0.2274460E+02  0.7546771E-02  0.1495730E+00
          2   -1    0    0  502    0  0.00000000000E+00  0.00000000000E+00  0.21153940642E+02  0.21153940642E+02  0.00000000000E+00 0.  1.
         -2   -1    0    0    0  501 -0.00000000000E+00 -0.00000000000E+00 -0.24470638591E+02  0.24470638591E+02  0.00000000000E+00 0. -1.
          1    1    1    2  502    0 -0.19457314045E+02 -0.11778363892E+02 -0.22373845912E+01  0.22854382854E+02  0.00000000000E+00 0. -1.
         -1    1    1    2    0  501  0.19457314045E+02  0.11778363892E+02 -0.10793133575E+01  0.22770196379E+02  0.00000000000E+00 0.  1.
</event>
<event>
 4    1  0.6935156E+001  0.3700853E+02  0.7546771E-02  0.1366967E+00
          2   -1    0    0  502    0  0.00000000000E+00  0.00000000000E+00  0.10367468718E+04  0.10367468718E+04  0.00000000000E+00 0. -1.
         -2   -1    0    0    0  501 -0.00000000000E+00 -0.00000000000E+00 -0.13226966413E+01  0.13226966413E+01  0.00000000000E+00 0.  1.
          1    1    1    2  502    0 -0.31182740891E+02 -0.19931589897E+02  0.49959917864E+03  0.50096803382E+03  0.00000000000E+00 0. -1.
         -1    1    1    2    0  501  0.31182740891E+02  0.19931589897E+02  0.53582499656E+03  0.53710153467E+03  0.00000000000E+00 0.  1.
</event>
<event>
 4    1  0.6935156E+001  0.2904614E+02  0.7546771E-02  0.1428070E+00
          2   -1    0    0  502    0  0.00000000000E+00  0.00000000000E+00  0.16246038307E+04  0.16246038307E+04  0.00000000000E+00 0. -1.
         -2   -1    0    0    0  501 -0.00000000000E+00 -0.00000000000E+00 -0.97848289582E+00  0.97848289582E+00  0.00000000000E+00 0.  1.
          1    1    1    2  502    0  0.93018721462E+01  0.27516417740E+02  0.13685995644E+04  0.13689077564E+04  0.00000000000E+00 0.  1.
         -1    1    1    2    0  501 -0.93018721462E+01 -0.27516417740E+02  0.25502578344E+03  0.25667455715E+03  0.00000000000E+00 0. -1.
</event>
<event>
 4    1  0.6935156E+001  0.2128896E+02  0.7546771E-02  0.1515179E+00
          2   -1    0    0  502    0  0.00000000000E+00  0.00000000000E+00  0.13485265539E+04  0.13485265539E+04  0.00000000000E+00 0. -1.
         -2   -1    0    0    0  501 -0.00000000000E+00 -0.00000000000E+00 -0.35140559613E+00  0.35140559613E+00  0.00000000000E+00 0.  1.
          1    1    1    2  502    0 -0.26084645586E+01  0.21128548512E+02  0.81491105623E+03  0.81518908801E+03  0.00000000000E+00 0. -1.
         -1    1    1    2    0  501  0.26084645586E+01 -0.21128548512E+02  0.53326409208E+03  0.53368887149E+03  0.00000000000E+00 0.  1.
</event>
<event>
 4    1  0.6935156E+001  0.3208256E+02  0.7546771E-02  0.1402322E+00
          2   -1    0    0  502    0  0.00000000000E+00  0.00000000000E+00  0.23989035762E+04  0.23989035762E+04  0.00000000000E+00 0. -1.
         -2   -1    0    0    0  501 -0.00000000000E+00 -0.00000000000E+00 -0.45438808398E+00  0.45438808398E+00  0.00000000000E+00 0.  1.
          1    1    1    2  502    0  0.12636901043E+02  0.29488965945E+02  0.91602497848E+03  0.91658663070E+03  0.00000000000E+00 0. -1.
         -1    1    1    2    0  501 -0.12636901043E+02 -0.29488965945E+02  0.14824242096E+04  0.14827713336E+04  0.00000000000E+00 0.  1.
</event>
<event>
 4    1  0.6935156E+001  0.2211816E+02  0.7546771E-02  0.1503879E+00
          2   -1    0    0  502    0  0.00000000000E+00  0.00000000000E+00  0.82355855450E+03  0.82355855450E+03  0.00000000000E+00 0. -1.
         -2   -1    0    0    0  501 -0.00000000000E+00 -0.00000000000E+00 -0.61905284161E+00  0.61905284161E+00  0.00000000000E+00 0.  1.
          1    1    1    2  502    0  0.35353265499E+01  0.21833794675E+02  0.32860844256E+03  0.32935197228E+03  0.00000000000E+00 0.  1.
         -1    1    1    2    0  501 -0.35353265499E+01 -0.21833794675E+02  0.49433105910E+03  0.49482563506E+03  0.00000000000E+00 0. -1.
</event>
<event>
 4    1  0.6935156E+001  0.2767903E+02  0.7546771E-02  0.1440904E+00
          2   -1    0    0  502    0  0.00000000000E+00  0.00000000000E+00  0.31638370385E+04  0.31638370385E+04  0.00000000000E+00 0.  1.
         -2   -1    0    0    0  501 -0.00000000000E+00 -0.00000000000E+00 -0.25415911973E+00  0.25415911973E+00  0.00000000000E+00 0. -1.
          1    1    1    2  502    0 -0.27603689934E+02 -0.20408854672E+01  0.12379258318E+04  0.12382352337E+04  0.00000000000E+00 0. -1.
         -1    1    1    2    0  501  0.27603689934E+02  0.20408854672E+01  0.19256570476E+04  0.19258559639E+04  0.00000000000E+00 0.  1.
</event>
<event>
 4    1  0.6935156E+001  0.3222552E+02  0.7546771E-02  0.1401194E+00
          2   -1    0    0  502    0  0.00000000000E+00  0.00000000000E+00  0.16992261967E+03  0.16992261967E+03  0.00000000000E+00 0. -1.
         -2   -1    0    0    0  501 -0.00000000000E+00 -0.00000000000E+00 -0.17401160749E+02  0.17401160749E+02  0.00000000000E+00 0.  1.
          1    1    1    2  502    0 -0.78268158834E+01 -0.31260595847E+02  0.15170287823E+03  0.15508786917E+03  0.00000000000E+00 0. -1.
         -1    1    1    2    0  501  0.78268158834E+01  0.31260595847E+02  0.81858068676E+00  0.32235911247E+02  0.00000000000E+00 0.  1.
</event>
<event>
 4    1  0.6935156E+001  0.2185760E+02  0.7546771E-02  0.1507364E+00
          2   -1    0    0  502    0  0.00000000000E+00  0.00000000000E+00  0.32236204942E+03  0.32236204942E+03  0.00000000000E+00 0.  1.
         -2   -1    0    0    0  501 -0.00000000000E+00 -0.00000000000E+00 -0.14970384168E+01  0.14970384168E+01  0.00000000000E+00 0. -1.
          1    1    1    2  502    0  0.20857343649E+02 -0.65364906305E+01  0.14422614411E+03  0.14587301032E+03  0.00000000000E+00 0. -1.
         -1    1    1    2    0  501 -0.20857343649E+02  0.65364906305E+01  0.17663886689E+03  0.17798607752E+03  0.00000000000E+00 0.  1.
</event>
<event>
 4    1  0.6935156E+001  0.3511906E+02  0.7546771E-02  0.1379728E+00
          2   -1    0    0  502    0  0.00000000000E+00  0.00000000000E+00  0.31710632838E+03  0.31710632838E+03  0.00000000000E+00 0. -1.
         -2   -1    0    0    0  501 -0.00000000000E+00 -0.00000000000E+00 -0.90247996496E+01  0.90247996496E+01  0.00000000000E+00 0.  1.
          1    1    1    2  502    0 -0.30799622738E+02  0.16873995487E+02  0.31033362621E+02  0.46865958649E+02  0.00000000000E+00 0.  1.
         -1    1    1    2    0  501  0.30799622738E+02 -0.16873995487E+02  0.27704816611E+03  0.27926516938E+03  0.00000000000E+00 0. -1.
</event>
<event>
 4    1  0.6935156E+001  0.2095384E+02  0.7546771E-02  0.1519925E+00
          2   -1    0    0  502    0  0.00000000000E+00  0.00000000000E+00  0.37823142920E+02  0.37823142920E+02  0.00000000000E+00 0. -1.
         -2   -1    0    0    0  501 -0.00000000000E+00 -0.00000000000E+00 -0.11762825903E+02  0.11762825903E+02  0.00000000000E+00 0.  1.
          1    1    1    2  502    0  0.19901020341E+02 -0.65584070885E+01  0.10188713351E+02  0.23299639352E+02  0.00000000000E+00 0.  1.
         -1    1    1    2    0  501 -0.19901020341E+02  0.65584070885E+01  0.15871603665E+02  0.26286329471E+02  0.00000000000E+00 0. -1.
</event>
<event>
 4    1  0.6935156E+001  0.2292707E+02  0.7546771E-02  0.1493416E+00
          2   -1    0    0  502    0  0.00000000000E+00  0.00000000000E+00  0.17664465740E+02  0.17664465740E+02  0.00000000000E+00 0.  1.
         -2   -1    0    0    0  501 -0.00000000000E+00 -0.00000000000E+00 -0.11092532998E+03  0.11092532998E+03  0.00000000000E+00 0. -1.
          1    1    1    2  502    0  0.20321778500E+02 -0.10614880879E+02 -0.10162921870E+03  0.10418324468E+03  0.00000000000E+00 0. -1.
         -1    1    1    2    0  501 -0.20321778500E+02  0.10614880879E+02  0.83683544604E+01  0.24406551044E+02  0.00000000000E+00 0.  1.
</event>
<event>
 4    1  0.6935156E+001  0.4213009E+02  0.7546771E-02  0.1336436E+00
          2   -1    0    0  502    0  0.00000000000E+00  0.00000000000E+00  0.19346209044E+03  0.19346209044E+03  0.00000000000E+00 0.  1.
         -2   -1    0    0    0  501 -0.00000000000E+00 -0.00000000000E+00 -0.27398727719E+02  0.27398727719E+02  0.00000000000E+00 0. -1.
          1    1    1    2  502    0  0.87643679965E+01 -0.41208375201E+02 -0.70313217940E+01  0.42712806268E+02  0.00000000000E+00 0. -1.
         -1    1    1    2    0  501 -0.87643679965E+01  0.41208375201E+02  0.17309468451E+03  0.17814801189E+03  0.00000000000E+00 0.  1.
</event>
<event>
 4    1  0.6935156E+001  0.3143290E+02  0.7546771E-02  0.1407540E+00
          2   -1    0    0  502    0  0.00000000000E+00  0.00000000000E+00  0.26253400818E+04  0.26253400818E+04  0.00000000000E+00 0. -1.
         -2   -1    0    0    0  501 -0.00000000000E+00 -0.00000000000E+00 -0.39258115703E+00  0.39258115703E+00  0.00000000000E+00 0.  1.
          1    1    1    2  502    0  0.31396498093E+02 -0.15123517094E+01  0.10454624975E+04  0.10459349220E+04  0.00000000000E+00 0. -1.
         -1    1    1    2    0  501 -0.31396498093E+02  0.15123517094E+01  0.15794850031E+04  0.15797977410E+04  0.00000000000E+00 0.  1.
</event>
<event>
 4    1  0.6935156E+001  0.2171633E+02  0.7546771E-02  0.1509278E+00
          2   -1    0    0  502    0  0.00000000000E+00  0.00000000000E+00  0.15162448112E+03  0.15162448112E+03  0.00000000000E+00 0.  1.
         -2   -1    0    0    0  501 -0.00000000000E+00 -0.00000000000E+00 -0.46884348071E+01  0.46884348071E+01  0.00000000000E+00 0. -1.
          1    1    1    2  502    0 -0.13001572563E+02  0.17394201744E+02  0.11881220794E+03  0.12078054437E+03  0.00000000000E+00 0.  1.
         -1    1    1    2    0  501  0.13001572563E+02 -0.17394201744E+02  0.28123838371E+02  0.35532371553E+02  0.00000000000E+00 0. -1.
</event>
<event>
 4    1  0.6935156E+001  0.2235430E+02  0.7546771E-02  0.1500769E+00
          2   -1    0    0  502    0  0.00000000000E+00  0.00000000000E+00  0.28614295304E+01  0.28614295304E+01  0.00000000000E+00 0. -1.
         -2   -1    0    0    0  501 -0.00000000000E+00 -0.00000000000E+00 -0.23878980408E+03  0.23878980408E+03  0.00000000000E+00 0.  1.
          1    1    1    2  502    0 -0.16925160220E+02  0.14603206931E+02 -0.55338121515E+02  0.59682680854E+02  0.00000000000E+00 0.  1.
         -1    1    1    2    0  501  0.16925160220E+02 -0.14603206931E+02 -0.18059025303E+03  0.18196855275E+03  0.00000000000E+00 0. -1.
</event>
<event>
 4    1  0.6935156E+001  0.2867323E+02  0.7546771E-02  0.1431487E+00
          2   -1    0    0  502    0  0.00000000000E+00  0.00000000000E+00  0.33422067694E+02  0.33422067694E+02  0.00000000000E+00 0.  1.
         -2   -1    0    0    0  501 -0.00000000000E+00 -0.00000000000E+00 -0.28248325500E+02  0.28248325500E+02  0.00000000000E+00 0. -1.
          1    1    1    2  502    0  0.12820167122E+02 -0.25647558957E+02 -0.84959064641E+01  0.29905424125E+02  0.00000000000E+00 0. -1.
         -1    1    1    2    0  501 -0.12820167122E+02  0.25647558957E+02  0.13669648659E+02  0.31764969069E+02  0.00000000000E+00 0.  1.
</event>
<event>
 4    1  0.6935156E+001  0.2556499E+02  0.7546771E-02  0.1462581E+00
          2   -1    0    0  502    0  0.00000000000E+00  0.00000000000E+00  0.12493063721E+04  0.12493063721E+04  0.00000000000E+00 0.  1.
         -2   -1    0    0    0  501 -0.00000000000E+00 -0.00000000000E+00 -0.54706844731E+00  0.54706844731E+00  0.00000000000E+00 0. -1.
          1    1    1    2  502    0  0.15929782208E+02  0.19995266992E+02  0.75506235157E+03  0.75549501880E+03  0.00000000000E+00 0.  1.
         -1    1    1    2    0  501 -0.15929782208E+02 -0.19995266992E+02  0.49369695213E+03  0.49435842180E+03  0.00000000000E+00 0. -1.
</event>
<event>
 4    1  0.6935156E+001  0.2757608E+02  0.7546771E-02  0.1441906E+00
          2   -1    0    0  502    0  0.00000000000E+00  0.00000000000E+00  0.22986404637E+02  0.22986404637E+02  0.00000000000E+00 0. -1.
         -2   -1    0    0    0  501 -0.00000000000E+00 -0.00000000000E+00 -0.55483140094E+02  0.55483140094E+02  0.00000000000E+00 0.  1.
          1    1    1    2  502    0 -0.19327308358E+02  0.19669659504E+02 -0.41178463494E+02  0.49559118324E+02  0.00000000000E+00 0.  1.
         -1    1    1    2    0  501  0.19327308358E+02 -0.19669659504E+02  0.86817280357E+01  0.28910426407E+02  0.00000000000E+00 0. -1.
</event>
<event>
 4    1  0.6935156E+001  0.2065900E+02  0.7546771E-02  0.1524190E+00
          2   -1    0    0  502    0  0.00000000000E+00  0.00000000000E+00  0.28503210073E+03  0.28503210073E+03  0.00000000000E+00 0. -1.
         -2   -1    0    0    0  501 -0.00000000000E+00 -0.00000000000E+00 -0.26190674706E+01  0.26190674706E+01  0.00000000000E+00 0.  1.
          1    1    1    2  502    0 -0.17656716541E+02 -0.10725423412E+02  0.23533119513E+03  0.23623624986E+03  0.00000000000E+00 0. -1.
         -1    1    1    2    0  501  0.17656716541E+02  0.10725423412E+02  0.47081838128E+02  0.51414918339E+02  0.00000000000E+00 0.  1.
</event>
<event>
 4    1  0.6935156E+001  0.3978421E+02  0.7546771E-02  0.1349755E+00
          2   -1    0    0  502    0  0.00000000000E+00  0.00000000000E+00  0.13327711913E+04  0.13327711913E+04  0.00000000000E+00 0.  1.
         -2   -1    0    0    0  501 -0.00000000000E+00 -0.00000000000E+00 -0.30213357256E+01  0.30213357256E+01  0.00000000000E+00 0. -1.
          1    1    1    2  502    0 -0.25479482847E+02  0.30554534909E+02  0.11852054041E+04  0.11858729416E+04  0.00000000000E+00 0.  1.
         -1    1    1    2    0  501  0.25479482847E+02 -0.30554534909E+02  0.14454445145E+03  0.14991958543E+03  0.00000000000E+00 0. -1.
</event>
<event>
 4    1  0.6935156E+001  0.2495143E+02  0.7546771E-02  0.1469348E+00
          2   -1    0    0  502    0  0.00000000000E+00  0.00000000000E+00  0.64268514608E+01  0.64268514608E+01  0.00000000000E+00 0.  1.
         -2   -1    0    0    0  501 -0.00000000000E+00 -0.00000000000E+00 -0.10996460212E+03  0.10996460212E+03  0.00000000000E+00 0. -1.
          1    1    1    2  502    0  0.25013202743E+01  0.24825733413E+02 -0.71850510702E+02  0.76059644561E+02  0.00000000000E+00 0.  1.
         -1    1    1    2    0  501 -0.25013202743E+01 -0.24825733413E+02 -0.31687239953E+02  0.40331809015E+02  0.00000000000E+00 0. -1.
</event>
<event>
 4    1  0.6935156E+001  0.4436260E+02  0.7546771E-02  0.1324658E+00
          2   -1    0    0  502    0  0.00000000000E+00  0.00000000000E+00  0.64535285773E+03  0.64535285773E+03  0.00000000000E+00 0.  1.
         -2   -1    0    0    0  501 -0.00000000000E+00 -0.00000000000E+00 -0.72294639721E+01  0.72294639721E+01  0.00000000000E+00 0. -1.
          1    1    1    2  502    0 -0.43828843969E+02 -0.68609501593E+01  0.56716673209E+03  0.56889906151E+03  0.00000000000E+00 0.  1.
         -1    1    1    2    0  501  0.43828843969E+02  0.68609501593E+01  0.70956661666E+02  0.83683260187E+02  0.00000000000E+00 0. -1.
</event>
<event>
 4    1  0.6935156E+001  0.2398917E+02  0.7546771E-02  0.1480437E+00
          2   -1    0    0  502    0  0.00000000000E+00  0.00000000000E+00  0.16761926057E+04  0.16761926057E+04  0.00000000000E+00 0. -1.
         -2   -1    0    0    0  501 -0.00000000000E+00 -0.00000000000E+00 -0.48805779909E+00  0.48805779909E+00  0.00000000000E+00 0.  1.
          1    1    1    2  502    0  0.22566383544E+02 -0.81387239969E+01  0.12943795381E+04  0.12946018188E+04  0.00000000000E+00 0. -1.
         -1    1    1    2    0  501 -0.22566383544E+02  0.81387239969E+01  0.38132500978E+03  0.38207884471E+03  0.00000000000E+00 0.  1.
</event>
<event>
 4    1  0.6935156E+001  0.2071745E+02  0.7546771E-02  0.1523337E+00
          2   -1    0    0  502    0  0.00000000000E+00  0.00000000000E+00  0.15901192712E+04  0.15901192712E+04  0.00000000000E+00 0.  1.
         -2   -1    0    0    0  501 -0.00000000000E+00 -0.00000000000E+00 -0.27197509674E+00  0.27197509674E+00  0.00000000000E+00 0. -1.
          1    1    1    2  502    0 -0.13364209642E+02 -0.15830691833E+02  0.72588388077E+03  0.72617946904E+03  0.00000000000E+00 0. -1.
         -1    1    1    2    0  501  0.13364209642E+02  0.15830691833E+02  0.86396341531E+03  0.86421177723E+03  0.00000000000E+00 0.  1.
</event>
<event>
 4    1  0.6935156E+001  0.2124008E+02  0.7546771E-02  0.1515865E+00
          2   -1    0    0  502    0  0.00000000000E+00  0.00000000000E+00  0.12532890097E+03  0.12532890097E+03  0.00000000000E+00 0. -1.
         -2   -1    0    0    0  501 -0.00000000000E+00 -0.00000000000E+00 -0.50563504183E+01  0.50563504183E+01  0.00000000000E+00 0.  1.
          1    1    1    2  502    0  0.29970476985E+01 -0.21027571191E+02  0.95127889888E+02  0.97470285111E+02  0.00000000000E+00 0. -1.
         -1    1    1    2    0  501 -0.29970476985E+01  0.21027571191E+02  0.25144660660E+02  0.32914966274E+02  0.00000000000E+00 0.  1.
</event>
<event>
 4    1  0.6935156E+001  0.8330499E+02  0.7546771E-02  0.1196376E+00
          2   -1    0    0  502    0  0.00000000000E+00  0.00000000000E+00  0.14217198890E+02  0.14217198890E+02  0.00000000000E+00 0. -1.
         -2   -1    0    0    0  501 -0.00000000000E+00 -0.00000000000E+00 -0.17115517605E+04  0.17115517605E+04  0.00000000000E+00 0.  1.
          1    1    1    2  502    0 -0.75410868651E+02  0.35396644084E+02 -0.15782041323E+04  0.15804012164E+04  0.00000000000E+00 0.  1.
         -1    1    1    2    0  501  0.75410868651E+02 -0.35396644084E+02 -0.11913042936E+03  0.14536774306E+03  0.00000000000E+00 0. -1.
</event>
<event>
 4    1  0.6935156E+001  0.2015354E+02  0.7546771E-02  0.1531701E+00
          2   -1    0    0  502    0  0.00000000000E+00  0.00000000000E+00  0.33211968495E+03  0.33211968495E+03  0.00000000000E+00 0. -1.
         -2   -1    0    0    0  501 -0.00000000000E+00 -0.00000000000E+00 -0.12847386497E+01  0.12847386497E+01  0.00000000000E+00 0.  1.
          1    1    1    2  502    0  0.16954480944E+02 -0.10895438552E+02  0.12885829725E+03  0.13042478973E+03  0.00000000000E+00 0. -1.
         -1    1    1    2    0  501 -0.16954480944E+02  0.10895438552E+02  0.20197664905E+03  0.20297963387E+03  0.00000000000E+00 0.  1.
</event>
<event>
 4    1  0.6935156E+001  0.2265806E+02  0.7546771E-02  0.1496837E+00
          2   -1    0    0  502    0  0.00000000000E+00  0.00000000000E+00  0.29803149271E+01  0.29803149271E+01  0.00000000000E+00 0. -1.
         -2   -1    0    0    0  501 -0.00000000000E+00 -0.00000000000E+00 -0.19028662045E+03  0.19028662045E+03  0.00000000000E+00 0.  1.
          1    1    1    2  502    0  0.17457433833E+02  0.14443873188E+02 -0.63910001212E+02  0.67807637650E+02  0.00000000000E+00 0. -1.
         -1    1    1    2    0  501 -0.17457433833E+02 -0.14443873188E+02 -0.12339630431E+03  0.12545929773E+03  0.00000000000E+00 0.  1.
</event>
<event>
 4    1  0.6935156E+001  0.3825898E+02  0.7546771E-02  0.1359002E+00
          2   -1    0    0  502    0  0.00000000000E+00  0.00000000000E+00  0.49017636808E+02  0.49017636808E+02  0.00000000000E+00 0.  1.
         -2   -1    0    0    0  501 -0.00000000000E+00 -0.00000000000E+00 -0.37883150146E+02  0.37883150146E+02  0.00000000000E+00 0. -1.
          1    1    1    2  502    0 -0.20071903067E+02 -0.32570967280E+02 -0.14426657635E+02  0.40888600524E+02  0.00000000000E+00 0. -1.
         -1    1    1    2    0  501  0.20071903067E+02  0.32570967280E+02  0.25561144297E+02  0.46012186430E+02  0.00000000000E+00 0.  1.
</event>
<event>
 4    1  0.6935156E+001  0.2330987E+02  0.7546771E-02  0.1488643E+00
          2   -1    0    0  502    0  0.00000000000E+00  0.00000000000E+00  0.29980509718E+02  0.29980509718E+02  0.00000000000E+00 0. -1.
         -2   -1    0    0    0  501 -0.00000000000E+00 -0.00000000000E+00 -0.18124678990E+02  0.18124678990E+02  0.00000000000E+00 0.  1.
          1    1    1    2  502    0 -0.21751312608E+02  0.83803478123E+01  0.57286764199E+01  0.24003490645E+02  0.00000000000E+00 0.  1.
         -1    1    1    2    0  501  0.21751312608E+02 -0.83803478123E+01  0.61271543078E+01  0.24101698063E+02  0.00000000000E+00 0. -1.
</event>
<event>
 4    1  0.6935156E+001  0.4446344E+02  0.7546771E-02  0.1324144E+00
          2   -1    0    0  502    0  0.00000000000E+00  0.00000000000E+00  0.68214960080E+02  0.68214960080E+02  0.00000000000E+00 0.  1.
         -2   -1    0    0    0  501 -0.00000000000E+00 -0.00000000000E+00 -0.31090378864E+02  0.31090378864E+02  0.00000000000E+00 0. -1.
          1    1    1    2  502    0 -0.11081686129E+02  0.43060350181E+02  0.31492831038E+02  0.54486658293E+02  0.00000000000E+00 0.  1.
         -1    1    1    2    0  501  0.11081686129E+02 -0.43060350181E+02  0.56317501778E+01  0.44818680651E+02  0.00000000000E+00 0. -1.
</event>
<event>
 4    1  0.6935156E+001  0.4016232E+02  0.7546771E-02  0.1347537E+00
          2   -1    0    0  502    0  0.00000000000E+00  0.00000000000E+00  0.81826665987E+03  0.81826665987E+03  0.00000000000E+00 0.  1.
         -2   -1    0    0    0  501 -0.00000000000E+00 -0.00000000000E+00 -0.19800204595E+01  0.19800204595E+01  0.00000000000E+00 0. -1.
          1    1    1    2  502    0 -0.34356823854E+02 -0.20799531358E+02  0.38085486545E+03  0.38296663091E+03  0.00000000000E+00 0. -1.
         -1    1    1    2    0  501  0.34356823854E+02  0.20799531358E+02  0.43543177396E+03  0.43728004942E+03  0.00000000000E+00 0.  1.
</event>
<event>
 4    1  0.6935156E+001  0.2058264E+02  0.7546771E-02  0.1525308E+00
          2   -1    0    0  502    0  0.00000000000E+00  0.00000000000E+00  0.88662544506E+03  0.88662544506E+03  0.00000000000E+00 0.  1.
         -2   -1    0    0    0  501 -0.00000000000E+00 -0.00000000000E+00 -0.12419012570E+01  0.12419012570E+01  0.00000000000E+00 0. -1.
          1    1    1    2  502    0  0.18274258245E+02  0.94708277554E+01  0.94478709853E+02  0.96694734646E+02  0.00000000000E+00 0. -1.
         -1    1    1    2    0  501 -0.18274258245E+02 -0.94708277554E+01  0.79090483395E+03  0.79117261167E+03  0.00000000000E+00 0.  1.
</event>
<event>
 4    1  0.6935156E+001  0.2558148E+02  0.7546771E-02  0.1462402E+00
          2   -1    0    0  502    0  0.00000000000E+00  0.00000000000E+00  0.17341773322E+02  0.17341773322E+02  0.00000000000E+00 0.  1.
         -2   -1    0    0    0  501 -0.00000000000E+00 -0.00000000000E+00 -0.37736183232E+02  0.37736183232E+02  0.00000000000E+00 0. -1.
          1    1    1    2  502    0  0.76740592512E+01 -0.24403297405E+02 -0.10181020351E+02  0.27532985400E+02  0.00000000000E+00 0. -1.
         -1    1    1    2    0  501 -0.76740592512E+01  0.24403297405E+02 -0.10213389558E+02  0.27544971154E+02  0.00000000000E+00 0.  1.
</event>
<event>
 4    1  0.6935156E+001  0.2228968E+02  0.7546771E-02  0.1501616E+00
          2   -1    0    0  502    0  0.00000000000E+00  0.00000000000E+00  0.18981004455E+03  0.18981004455E+03  0.00000000000E+00 0. -1.
         -2   -1    0    0    0  501 -0.00000000000E+00 -0.00000000000E+00 -0.29910985740E+01  0.29910985740E+01  0.00000000000E+00 0.  1.
          1    1    1    2  502    0  0.16809786468E+02 -0.14637659885E+02  0.59340419832E+02  0.63388606498E+02  0.00000000000E+00 0.  1.
         -1    1    1    2    0  501 -0.16809786468E+02  0.14637659885E+02  0.12747852614E+03  0.12941253662E+03  0.00000000000E+00 0. -1.
</event>
<event>
 4    1  0.6935156E+001  0.2093613E+02  0.7546771E-02  0.1520179E+00
          2   -1    0    0  502    0  0.00000000000E+00  0.00000000000E+00  0.55399924865E+03  0.55399924865E+03  0.00000000000E+00 0.  1.
         -2   -1    0    0    0  501 -0.00000000000E+00 -0.00000000000E+00 -0.11602510613E+01  0.11602510613E+01  0.00000000000E+00 0. -1.
          1    1    1    2  502    0 -0.15245261540E+02 -0.14349334660E+02  0.43297127412E+03  0.43347715697E+03  0.00000000000E+00 0.  1.
         -1    1    1    2    0  501  0.15245261540E+02  0.14349334660E+02  0.11986772347E+03  0.12168234274E+03  0.00000000000E+00 0. -1.
</event>
<event>
 4    1  0.6935156E+001  0.3779514E+02  0.7546771E-02  0.1361914E+00
          2   -1    0    0  502    0  0.00000000000E+00  0.00000000000E+00  0.61000333231E+02  0.61000333231E+02  0.00000000000E+00 0.  1.
         -2   -1    0    0    0  501 -0.00000000000E+00 -0.00000000000E+00 -0.27668220194E+02  0.27668220194E+02  0.00000000000E+00 0. -1.
          1    1    1    2  502    0 -0.33793183629E+02  0.16926118295E+02 -0.71124839237E+00  0.37801833482E+02  0.00000000000E+00 0. -1.
         -1    1    1    2    0  501  0.33793183629E+02 -0.16926118295E+02  0.34043361429E+02  0.50866719943E+02  0.00000000000E+00 0.  1.
</event>
<event>
 4    1  0.6935156E+001  0.2670425E+02  0.7546771E-02  0.1450602E+00
          2   -1    0    0  502    0  0.00000000000E+00  0.00000000000E+00  0.58623563513E+02  0.58623563513E+02  0.00000000000E+00 0. -1.
         -2   -1    0    0    0  501 -0.00000000000E+00 -0.00000000000E+00 -0.12176879718E+02  0.12176879718E+02  0.00000000000E+00 0.  1.
          1    1    1    2  502    0  0.16452040373E+02 -0.21034427092E+02  0.24359508032E+02  0.36145572164E+02  0.00000000000E+00 0.  1.
         -1    1    1    2    0  501 -0.16452040373E+02  0.21034427092E+02  0.22087175763E+02  0.34654871067E+02  0.00000000000E+00 0. -1.
</event>
<event>
 4    1  0.6935156E+001  0.2337310E+02  0.7546771E-02  0.1487866E+00
          2   -1    0    0  502    0  0.00000000000E+00  0.00000000000E+00  0.27387299465E+03  0.27387299465E+03  0.00000000000E+00 0.  1.
         -2   -1    0    0    0  501 -0.00000000000E+00 -0.00000000000E+00 -0.20350290820E+01  0.20350290820E+01  0.00000000000E+00 0. -1.
          1    1    1    2  502    0  0.18025866815E+02 -0.14878498256E+02  0.11650484438E+03  0.11882626119E+03  0.00000000000E+00 0.  1.
         -1    1    1    2    0  501 -0.18025866815E+02  0.14878498256E+02  0.15533312118E+03  0.15708176254E+03  0.00000000000E+00 0. -1.
</event>
<event>
 4    1  0.6935156E+001  0.3761298E+02  0.7546771E-02  0.1363071E+00
          2   -1    0    0  502    0  0.00000000000E+00  0.00000000000E+00  0.31475147696E+03  0.31475147696E+03  0.00000000000E+00 0. -1.
         -2   -1    0    0    0  501 -0.00000000000E+00 -0.00000000000E+00 -0.46198029840E+01  0.46198029840E+01  0.00000000000E+00 0.  1.
          1    1    1    2  502    0  0.55014289673E+01  0.37208471841E+02  0.18133602106E+03  0.18519581159E+03  0.00000000000E+00 0.  1.
         -1    1    1    2    0  501 -0.55014289673E+01 -0.37208471841E+02  0.12879565292E+03  0.13417546836E+03  0.00000000000E+00 0. -1.
</event>
<event>
 4    1  0.6935156E+001  0.4395344E+02  0.7546771E-02  0.1326756E+00
          2   -1    0    0  502    0  0.00000000000E+00  0.00000000000E+00  0.12140754019E+02  0.12140754019E+02  0.00000000000E+00 0.  1.
         -2   -1    0    0    0  501 -0.00000000000E+00 -0.00000000000E+00 -0.23821866189E+03  0.23821866189E+03  0.00000000000E+00 0. -1.
          1    1    1    2  502    0 -0.31541629514E+02 -0.30610948419E+02 -0.40909061289E+02  0.60045448212E+02  0.00000000000E+00 0.  1.
         -1    1    1    2    0  501  0.31541629514E+02  0.30610948419E+02 -0.18516884658E+03  0.19031396769E+03  0.00000000000E+00 0. -1.
</event>
<event>
 4    1  0.6935156E+001  0.3005141E+02  0.7546771E-02  0.1419150E+00
          2   -1    0    0  502    0  0.00000000000E+00  0.00000000000E+00  0.40912211881E+03  0.40912211881E+03  0.00000000000E+00 0. -1.
         -2   -1    0    0    0  501 -0.00000000000E+00 -0.00000000000E+00 -0.22317169048E+01  0.22317169048E+01  0.00000000000E+00 0.  1.
          1    1    1    2  502    0 -0.20290932313E+02  0.22166758969E+02  0.18196605002E+03  0.18443082849E+03  0.00000000000E+00 0.  1.
         -1    1    1    2    0  501  0.20290932313E+02 -0.22166758969E+02  0.22492435189E+03  0.22692300723E+03  0.00000000000E+00 0. -1.
</event>
<event>
 4    1  0.6935156E+001  0.2078483E+02  0.7546771E-02  0.1522359E+00
          2   -1    0    0  502    0  0.00000000000E+00  0.00000000000E+00  0.17754664368E+01  0.17754664368E+01  0.00000000000E+00 0. -1.
         -2   -1    0    0    0  501 -0.00000000000E+00 -0.00000000000E+00 -0.43961590833E+03  0.43961590833E+03  0.00000000000E+00 0.  1.
          1    1    1    2  502    0 -0.20771261505E+02  0.75096046287E+00 -0.36639272522E+03  0.36698179565E+03  0.00000000000E+00 0.  1.
         -1    1    1    2    0  501  0.20771261505E+02 -0.75096046287E+00 -0.71447716670E+02  0.74409579111E+02  0.00000000000E+00 0. -1.
</event>
<event>
 4    1  0.6935156E+001  0.2540962E+02  0.7546771E-02  0.1464273E+00
          2   -1    0    0  502    0  0.00000000000E+00  0.00000000000E+00  0.14104737384E+04  0.14104737384E+04  0.00000000000E+00 0. -1.
         -2   -1    0    0    0  501 -0.00000000000E+00 -0.00000000000E+00 -0.87220052992E+00  0.87220052992E+00  0.00000000000E+00 0.  1.
          1    1    1    2  502    0 -0.23784929135E+02  0.89401305280E+01  0.11912415887E+04  0.11915125562E+04  0.00000000000E+00 0. -1.
         -1    1    1    2    0  501  0.23784929135E+02 -0.89401305280E+01  0.21835994916E+03  0.21983338278E+03  0.00000000000E+00 0.  1.
</event>
<event>
 4    1  0.6935156E+001  0.2415236E+02  0.7546771E-02  0.1478514E+00
          2   -1    0    0  502    0  0.00000000000E+00  0.00000000000E+00  0.18558193157E+02  0.18558193157E+02  0.00000000000E+00 0. -1.
         -2   -1    0    0    0  501 -0.00000000000E+00 -0.00000000000E+00 -0.56659086610E+02  0.56659086610E+02  0.00000000000E+00 0.  1.
          1    1    1    2  502    0 -0.22434355115E+02  0.89462831865E+01 -0.44144994131E+02  0.50320142877E+02  0.00000000000E+00 0.  1.
         -1    1    1    2    0  501  0.22434355115E+02 -0.89462831865E+01  0.60441006793E+01  0.24897136890E+02  0.00000000000E+00 0. -1.
</event>
<event>
 4    1  0.6935156E+001  0.2776291E+02  0.7546771E-02  0.1440091E+00
          2   -1    0    0  502    0  0.00000000000E+00  0.00000000000E+00  0.10612780419E+03  0.10612780419E+03  0.00000000000E+00 0. -1.
         -2   -1    0    0    0  501 -0.00000000000E+00 -0.00000000000E+00 -0.73922528652E+01  0.73922528652E+01  0.00000000000E+00 0.  1.
          1    1    1    2  502    0  0.27018684981E+02 -0.63851276381E+01  0.56880579552E+02  0.63294387771E+02  0.00000000000E+00 0. -1.
         -1    1    1    2    0  501 -0.27018684981E+02  0.63851276381E+01  0.41854971776E+02  0.50225669288E+02  0.00000000000E+00 0.  1.
</event>
<event>
 4    1  0.6935156E+001  0.4255464E+02  0.7546771E-02  0.1334133E+00
          2   -1    0    0  502    0  0.00000000000E+00  0.00000000000E+00  0.56997971886E+01  0.56997971886E+01  0.00000000000E+00 0.  1.
         -2   -1    0    0    0  501 -0.00000000000E+00 -0.00000000000E+00 -0.33083577896E+03  0.33083577896E+03  0.00000000000E+00 0. -1.
          1    1    1    2  502    0  0.42517686053E+02 -0.17731486880E+01 -0.12905498313E+03  0.13588997886E+03  0.00000000000E+00 0.  1.
         -1    1    1    2    0  501 -0.42517686053E+02  0.17731486880E+01 -0.19608099865E+03  0.20064559729E+03  0.00000000000E+00 0. -1.
</event>
<event>
 4    1  0.6935156E+001  0.4187310E+02  0.7546771E-02  0.1337846E+00
          2   -1    0    0  502    0  0.00000000000E+00  0.00000000000E+00  0.17446391842E+03  0.17446391842E+03  0.00000000000E+00 0.  1.
         -2   -1    0    0    0  501 -0.00000000000E+00 -0.00000000000E+00 -0.11042672422E+02  0.11042672422E+02  0.00000000000E+00 0. -1.
          1    1    1    2  502    0  0.27047774230E+02 -0.31965204536E+02  0.53900510831E+02  0.68254094820E+02  0.00000000000E+00 0. -1.
         -1    1    1    2    0  501 -0.27047774230E+02  0.31965204536E+02  0.10952073517E+03  0.11725249603E+03  0.00000000000E+00 0.  1.
</event>
<event>
 4    1  0.6935156E+001  0.3706897E+02  0.7546771E-02  0.1366574E+00
          2   -1    0    0  502    0  0.00000000000E+00  0.00000000000E+00  0.59176139759E+01  0.59176139759E+01  0.00000000000E+00 0.  1.
         -2   -1    0    0    0  501 -0.00000000000E+00 -0.00000000000E+00 -0.28586426643E+03  0.28586426643E+03  0.00000000000E+00 0. -1.
          1    1    1    2  502    0  0.26435106489E+02 -0.25986410157E+02 -0.76766392113E+02  0.85247799538E+02  0.00000000000E+00 0.  1.
         -1    1    1    2    0  501 -0.26435106489E+02  0.25986410157E+02 -0.20318026035E+03  0.20653408087E+03  0.00000000000E+00 0. -1.
</event>
<event>
 4    1  0.6935156E+001  0.2338394E+02  0.7546771E-02  0.1487732E+00
          2   -1    0    0  502    0  0.00000000000E+00  0.00000000000E+00  0.69269451520E+02  0.69269451520E+02  0.00000000000E+00 0.  1.
         -2   -1    0    0    0  501 -0.00000000000E+00 -0.00000000000E+00 -0.96637017160E+01  0.96637017160E+01  0.00000000000E+00 0. -1.
          1    1    1    2  502    0 -0.13080887361E+02  0.19382960808E+02  0.12913433269E+02  0.26712647616E+02  0.00000000000E+00 0.  1.
         -1    1    1    2    0  501  0.13080887361E+02 -0.19382960808E+02  0.46692316535E+02  0.52220505620E+02  0.00000000000E+00 0. -1.
</event>
<event>
 4    1  0.6935156E+001  0.3188976E+02  0.7546771E-02  0.1403855E+00
          2   -1    0    0  502    0  0.00000000000E+00  0.00000000000E+00  0.10933151899E+03  0.10933151899E+03  0.00000000000E+00 0. -1.
         -2   -1    0    0    0  501 -0.00000000000E+00 -0.00000000000E+00 -0.25299804565E+02  0.25299804565E+02  0.00000000000E+00 0.  1.
          1    1    1    2  502    0 -0.21984891507E+02  0.23100252030E+02  0.95545368491E+02  0.10072673200E+03  0.00000000000E+00 0. -1.
         -1    1    1    2    0  501  0.21984891507E+02 -0.23100252030E+02 -0.11513654071E+02  0.33904591555E+02  0.00000000000E+00 0.  1.
</event>
<event>
 4    1  0.6935156E+001  0.4368865E+02  0.7546771E-02  0.1328128E+00
          2   -1    0    0  502    0  0.00000000000E+00  0.00000000000E+00  0.22367482391E+04  0.22367482391E+04  0.00000000000E+00 0.  1.
         -2   -1    0    0    0  501 -0.00000000000E+00 -0.00000000000E+00 -0.85570218551E+00  0.85570218551E+00  0.00000000000E+00 0. -1.
          1    1    1    2  502    0  0.36003061465E+01 -0.43540049920E+02  0.10591158837E+04  0.10600165816E+04  0.00000000000E+00 0.  1.
         -1    1    1    2    0  501 -0.36003061465E+01  0.43540049920E+02  0.11767766533E+04  0.11775873598E+04  0.00000000000E+00 0. -1.
</event>
<event>
 4    1  0.6935156E+001  0.3911298E+02  0.7546771E-02  0.1353764E+00
          2   -1    0    0  502    0  0.00000000000E+00  0.00000000000E+00  0.34107453765E+03  0.34107453765E+03  0.00000000000E+00 0. -1.
         -2   -1    0    0    0  501 -0.00000000000E+00 -0.00000000000E+00 -0.58778769447E+01  0.58778769447E+01  0.00000000000E+00 0.  1.
          1    1    1    2  502    0  0.12948792492E+02 -0.36907370157E+02  0.83160388370E+02  0.91899267640E+02  0.00000000000E+00 0.  1.
         -1    1    1    2    0  501 -0.12948792492E+02  0.36907370157E+02  0.25203627233E+03  0.25505314695E+03  0.00000000000E+00 0. -1.
</event>
<event>
 4    1  0.6935156E+001  0.3171613E+02  0.7546771E-02  0.1405247E+00
          2   -1    0    0  502    0  0.00000000000E+00  0.00000000000E+00  0.14716303621E+04  0.14716303621E+04  0.00000000000E+00 0. -1.
         -2   -1    0    0    0  501 -0.00000000000E+00 -0.00000000000E+00 -0.68737989857E+00  0.68737989857E+00  0.00000000000E+00 0.  1.
          1    1    1    2  502    0  0.13643984433E+02  0.28631351539E+02  0.79052039735E+03  0.79115637597E+03  0.00000000000E+00 0. -1.
         -1    1    1    2    0  501 -0.13643984433E+02 -0.28631351539E+02  0.68042258485E+03  0.68116136604E+03  0.00000000000E+00 0.  1.
</event>
<event>
 4    1  0.6935156E+001  0.2993282E+02  0.7546771E-02  0.1420181E+00
          2   -1    0    0  502    0  0.00000000000E+00  0.00000000000E+00  0.23945128909E+04  0.23945128909E+04  0.00000000000E+00 0. -1.
         -2   -1    0    0    0  501 -0.00000000000E+00 -0.00000000000E+00 -0.48384240035E+00  0.48384240035E+00  0.00000000000E+00 0.  1.
          1    1    1    2  502    0 -0.29847947822E+02 -0.22524721562E+01  0.62690781392E+03  0.62762200469E+03  0.00000000000E+00 0. -1.
         -1    1    1    2    0  501  0.29847947822E+02  0.22524721562E+01  0.17671212346E+04  0.17673747286E+04  0.00000000000E+00 0.  1.
</event>
<event>
 4    1  0.6935156E+001  0.2025616E+02  0.7546771E-02  0.1530155E+00
          2   -1    0    0  502    0  0.00000000000E+00  0.00000000000E+00  0.11637164389E+04  0.11637164389E+04  0.00000000000E+00 0. -1.
         -2   -1    0    0    0  501 -0.00000000000E+00 -0.00000000000E+00 -0.86693398513E+00  0.86693398513E+00  0.00000000000E+00 0.  1.
          1    1    1    2  502    0  0.19404633818E+02 -0.58113903248E+01  0.13291138564E+03  0.13444608029E+03  0.00000000000E+00 0.  1.
         -1    1    1    2    0  501 -0.19404633818E+02  0.58113903248E+01  0.10299381193E+04  0.10301372926E+04  0.00000000000E+00 0. -1.
</event>
<event>
 4    1  0.6935156E+001  0.2809613E+02  0.7546771E-02  0.1436897E+00
          2   -1    0    0  502    0  0.00000000000E+00  0.00000000000E+00  0.21047173374E+01  0.21047173374E+01  0.00000000000E+00 0.  1.
         -2   -1    0    0    0  501 -0.00000000000E+00 -0.00000000000E+00 -0.37593556691E+03  0.37593556691E+03  0.00000000000E+00 0. -1.
          1    1    1    2  502    0  0.12703246065E+02 -0.25060329724E+02 -0.17778662365E+03  0.17999298912E+03  0.00000000000E+00 0.  1.
         -1    1    1    2    0  501 -0.12703246065E+02  0.25060329724E+02 -0.19604422593E+03  0.19804729513E+03  0.00000000000E+00 0. -1.
</event>
<event>
 4    1  0.6935156E+001  0.3436627E+02  0.7546771E-02  0.1385074E+00
          2   -1    0    0  502    0  0.00000000000E+00  0.00000000000E+00  0.17638240847E+02  0.17638240847E+02  0.00000000000E+00 0. -1.
         -2   -1    0    0    0  501 -0.00000000000E+00 -0.00000000000E+00 -0.77350891422E+02  0.77350891422E+02  0.00000000000E+00 0.  1.
          1    1    1    2  502    0  0.33537475871E+02  0.75018769750E+01 -0.12448007200E+02  0.36551242512E+02  0.00000000000E+00 0. -1.
         -1    1    1    2    0  501 -0.33537475871E+02 -0.75018769750E+01 -0.47264643375E+02  0.58437889757E+02  0.00000000000E+00 0.  1.
</event>
<event>
 4    1  0.6935156E+001  0.2848753E+02  0.7546771E-02  0.1433212E+00
          2   -1    0    0  502    0  0.00000000000E+00  0.00000000000E+00  0.21077530006E+04  0.21077530006E+04  0.00000000000E+00 0.  1.
         -2   -1    0    0    0  501 -0.00000000000E+00 -0.00000000000E+00 -0.38756529353E+00  0.38756529353E+00  0.00000000000E+00 0. -1.
          1    1    1    2  502    0  0.10000570920E+02 -0.26674483040E+02  0.11390051892E+04  0.11393613827E+04  0.00000000000E+00 0.  1.
         -1    1    1    2    0  501 -0.10000570920E+02  0.26674483040E+02  0.96836024611E+03  0.96877918316E+03  0.00000000000E+00 0. -1.
</event>
<event>
 4    1  0.6935156E+001  0.2066512E+02  0.7546771E-02  0.1524100E+00
          2   -1    0    0  502    0  0.00000000000E+00  0.00000000000E+00  0.79430307079E+01  0.79430307079E+01  0.00000000000E+00 0. -1.
         -2   -1    0    0    0  501 -0.00000000000E+00 -0.00000000000E+00 -0.83807699168E+02  0.83807699168E+02  0.00000000000E+00 0.  1.
          1    1    1    2  502    0 -0.16820296099E+02 -0.12005208264E+02 -0.10465042666E+02  0.23163862034E+02  0.00000000000E+00 0. -1.
         -1    1    1    2    0  501  0.16820296099E+02  0.12005208264E+02 -0.65399625794E+02  0.68586867842E+02  0.00000000000E+00 0.  1.
</event>
<event>
 4    1  0.6935156E+001  0.3714840E+02  0.7546771E-02  0.1366058E+00
          2   -1    0    0  502    0  0.00000000000E+00  0.00000000000E+00  0.94000178092E+03  0.94000178092E+03  0.00000000000E+00 0.  1.
         -2   -1    0    0    0  501 -0.00000000000E+00 -0.00000000000E+00 -0.16021422579E+01  0.16021422579E+01  0.00000000000E+00 0. -1.
          1    1    1    2  502    0 -0.56310119458E+01  0.36719145113E+02  0.60538519755E+03  0.60652390005E+03  0.00000000000E+00 0.  1.
         -1    1    1    2    0  501  0.56310119458E+01 -0.36719145113E+02  0.33301444110E+03  0.33508002312E+03  0.00000000000E+00 0. -1.
</event>
<event>
 4    1  0.6935156E+001  0.3428949E+02  0.7546771E-02  0.1385628E+00
          2   -1    0    0  502    0  0.00000000000E+00  0.00000000000E+00  0.49542007896E+01  0.49542007896E+01  0.00000000000E+00 0. -1.
         -2   -1    0    0    0  501 -0.00000000000E+00 -0.00000000000E+00 -0.23792616178E+03  0.23792616178E+03  0.00000000000E+00 0.  1.
          1    1    1    2  502    0 -0.32966315717E+02 -0.94335275460E+01 -0.11039573263E+03  0.11559838752E+03  0.00000000000E+00 0. -1.
         -1    1    1    2    0  501  0.32966315717E+02  0.94335275460E+01 -0.12257622835E+03  0.12728197504E+03  0.00000000000E+00 0.  1.
</event>
<event>
 4    1  0.6935156E+001  0.2261289E+02  0.7546771E-02  0.1497417E+00
          2   -1    0    0  502    0  0.00000000000E+00  0.00000000000E+00  0.48393465774E+01  0.48393465774E+01  0.00000000000E+00 0. -1.
         -2   -1    0    0    0  501 -0.00000000000E+00 -0.00000000000E+00 -0.14406658253E+03  0.14406658253E+03  0.00000000000E+00 0.  1.
          1    1    1    2  502    0  0.21509066391E+02  0.69787547629E+01 -0.10805355274E+03  0.11039435318E+03  0.00000000000E+00 0.  1.
         -1    1    1    2    0  501 -0.21509066391E+02 -0.69787547629E+01 -0.31173683208E+02  0.38511575919E+02  0.00000000000E+00 0. -1.
</event>
<event>
 4    1  0.6935156E+001  0.3641780E+02  0.7546771E-02  0.1370861E+00
          2   -1    0    0  502    0  0.00000000000E+00  0.00000000000E+00  0.10197778286E+04  0.10197778286E+04  0.00000000000E+00 0. -1.
         -2   -1    0    0    0  501 -0.00000000000E+00 -0.00000000000E+00 -0.13051458820E+01  0.13051458820E+01  0.00000000000E+00 0.  1.
          1    1    1    2  502    0  0.16370737826E+02 -0.32530830381E+02  0.47888839202E+03  0.48027111926E+03  0.00000000000E+00 0.  1.
         -1    1    1    2    0  501 -0.16370737826E+02  0.32530830381E+02  0.53958429069E+03  0.54081185521E+03  0.00000000000E+00 0. -1.
</event>
<event>
 4    1  0.6935156E+001  0.2957393E+02  0.7546771E-02  0.1423336E+00
          2   -1    0    0  502    0  0.00000000000E+00  0.00000000000E+00  0.10774906448E+02  0.10774906448E+02  0.00000000000E+00 0. -1.
         -2   -1    0    0    0  501 -0.00000000000E+00 -0.00000000000E+00 -0.87888224585E+02  0.87888224585E+02  0.00000000000E+00 0.  1.
          1    1    1    2  502    0 -0.51367449447E+01 -0.29124407880E+02 -0.52194085751E+02  0.59990331474E+02  0.00000000000E+00 0.  1.
         -1    1    1    2    0  501  0.51367449447E+01  0.29124407880E+02 -0.24919232387E+02  0.38672799559E+02  0.00000000000E+00 0. -1.
</event>
<event>
 4    1  0.6935156E+001  0.3776195E+02  0.7546771E-02  0.1362124E+00
          2   -1    0    0  502    0  0.00000000000E+00  0.00000000000E+00  0.83058200598E+02  0.83058200598E+02  0.00000000000E+00 0. -1.
         -2   -1    0    0    0  501 -0.00000000000E+00 -0.00000000000E+00 -0.29090932733E+02  0.29090932733E+02  0.00000000000E+00 0.  1.
          1    1    1    2  502    0  0.78860193978E+01 -0.36929327290E+02 -0.89146735512E+01  0.38799947430E+02  0.00000000000E+00 0.  1.
         -1    1    1    2    0  501 -0.78860193978E+01  0.36929327290E+02  0.62881941416E+02  0.73349185901E+02  0.00000000000E+00 0. -1.
</event>
<event>
 4    1  0.6935156E+001  0.2849213E+02  0.7546771E-02  0.1433169E+00
          2   -1    0    0  502    0  0.00000000000E+00  0.00000000000E+00  0.23121094392E+02  0.23121094392E+02  0.00000000000E+00 0.  1.
         -2   -1    0    0    0  501 -0.00000000000E+00 -0.00000000000E+00 -0.38553613594E+02  0.38553613594E+02  0.00000000000E+00 0. -1.
          1    1    1    2  502    0  0.25301119976E+02 -0.13101710553E+02 -0.16931307077E+02  0.33143184077E+02  0.00000000000E+00 0. -1.
         -1    1    1    2    0  501 -0.25301119976E+02  0.13101710553E+02  0.14987878747E+01  0.28531523908E+02  0.00000000000E+00 0.  1.
</event>
<event>
 4    1  0.6935156E+001  0.2396716E+02  0.7546771E-02  0.1480698E+00
          2   -1    0    0  502    0  0.00000000000E+00  0.00000000000E+00  0.14853230400E+03  0.14853230400E+03  0.00000000000E+00 0. -1.
         -2   -1    0    0    0  501 -0.00000000000E+00 -0.00000000000E+00 -0.42001408085E+01  0.42001408085E+01  0.00000000000E+00 0.  1.
          1    1    1    2  502    0 -0.23958948156E+02  0.62717820611E+00  0.93662356146E+02  0.96680202255E+02  0.00000000000E+00 0. -1.
         -1    1    1    2    0  501  0.23958948156E+02 -0.62717820611E+00  0.50669807045E+02  0.56052242553E+02  0.00000000000E+00 0.  1.
</event>
<event>
 4    1  0.6935156E+001  0.2637542E+02  0.7546771E-02  0.1453985E+00
          2   -1    0    0  502    0  0.00000000000E+00  0.00000000000E+00  0.16291469525E+04  0.16291469525E+04  0.00000000000E+00 0.  1.
         -2   -1    0    0    0  501 -0.00000000000E+00 -0.00000000000E+00 -0.11006635443E+01  0.11006635443E+01  0.00000000000E+00 0. -1.
          1    1    1    2  502    0  0.12816144413E+02 -0.23052319827E+02  0.17632611305E+03  0.17828786036E+03  0.00000000000E+00 0. -1.
         -1    1    1    2    0  501 -0.12816144413E+02  0.23052319827E+02  0.14517201759E+04  0.14519597557E+04  0.00000000000E+00 0.  1.
</event>
<event>
 4    1  0.6935156E+001  0.3546057E+02  0.7546771E-02  0.1377354E+00
          2   -1    0    0  502    0  0.00000000000E+00  0.00000000000E+00  0.11696421727E+04  0.11696421727E+04  0.00000000000E+00 0. -1.
         -2   -1    0    0    0  501 -0.00000000000E+00 -0.00000000000E+00 -0.11296286019E+01  0.11296286019E+01  0.00000000000E+00 0.  1.
          1    1    1    2  502    0 -0.26226424337E+02  0.23866852585E+02  0.71290034578E+03  0.71378172784E+03  0.00000000000E+00 0.  1.
         -1    1    1    2    0  501  0.26226424337E+02 -0.23866852585E+02  0.45561219828E+03  0.45699007342E+03  0.00000000000E+00 0. -1.
</event>
<event>
 4    1  0.6935156E+001  0.2923810E+02  0.7546771E-02  0.1426335E+00
          2   -1    0    0  502    0  0.00000000000E+00  0.00000000000E+00  0.46268128976E+03  0.46268128976E+03  0.00000000000E+00 0.  1.
         -2   -1    0    0    0  501 -0.00000000000E+00 -0.00000000000E+00 -0.22184945743E+01  0.22184945743E+01  0.00000000000E+00 0. -1.
          1    1    1    2  502    0  0.19941032373E+02  0.21382737788E+02  0.32527103735E+03  0.32658247654E+03  0.00000000000E+00 0.  1.
         -1    1    1    2    0  501 -0.19941032373E+02 -0.21382737788E+02  0.13519175784E+03  0.13831730779E+03  0.00000000000E+00 0. -1.
</event>
<event>
 4    1  0.6935156E+001  0.6022820E+02  0.7546771E-02  0.1259059E+00
          2   -1    0    0  502    0  0.00000000000E+00  0.00000000000E+00  0.11306627153E+04  0.11306627153E+04  0.00000000000E+00 0. -1.
         -2   -1    0    0    0  501 -0.00000000000E+00 -0.00000000000E+00 -0.42927596967E+01  0.42927596967E+01  0.00000000000E+00 0.  1.
          1    1    1    2  502    0  0.56252846948E+02 -0.21518673136E+02  0.27795216425E+03  0.28440260494E+03  0.00000000000E+00 0.  1.
         -1    1    1    2    0  501 -0.56252846948E+02  0.21518673136E+02  0.84841779137E+03  0.85055287008E+03  0.00000000000E+00 0. -1.
</event>
<event>
 4    1  0.6935156E+001  0.2295793E+02  0.7546771E-02  0.1493027E+00
          2   -1    0    0  502    0  0.00000000000E+00  0.00000000000E+00  0.93500174370E+01  0.93500174370E+01  0.00000000000E+00 0. -1.
         -2   -1    0    0    0  501 -0.00000000000E+00 -0.00000000000E+00 -0.13213833255E+03  0.13213833255E+03  0.00000000000E+00 0.  1.
          1    1    1    2  502    0 -0.22382122406E+02 -0.51094952649E+01 -0.78245650041E+01  0.24254693623E+02  0.00000000000E+00 0. -1.
         -1    1    1    2    0  501  0.22382122406E+02  0.51094952649E+01 -0.11496375011E+03  0.11723365636E+03  0.00000000000E+00 0.  1.
</event>
<event>
 4    1  0.6935156E+001  0.3113348E+02  0.7546771E-02  0.1409996E+00
          2   -1    0    0  502    0  0.00000000000E+00  0.00000000000E+00  0.75449251767E+01  0.75449251767E+01  0.00000000000E+00 0.  1.
         -2   -1    0    0    0  501 -0.00000000000E+00 -0.00000000000E+00 -0.22096666836E+03  0.22096666836E+03  0.00000000000E+00 0. -1.
          1    1    1    2  502    0 -0.12083142545E+02 -0.28693047880E+02 -0.18063375566E+03  0.18329715496E+03  0.00000000000E+00 0. -1.
         -1    1    1    2    0  501  0.12083142545E+02  0.28693047880E+02 -0.32787987518E+02  0.45214438577E+02  0.00000000000E+00 0.  1.
</event>
<event>
 4    1  0.6935156E+001  0.3241990E+02  0.7546771E-02  0.1399670E+00
          2   -1    0    0  502    0  0.00000000000E+00  0.00000000000E+00  0.19657196863E+02  0.19657196863E+02  0.00000000000E+00 0. -1.
         -2   -1    0    0    0  501 -0.00000000000E+00 -0.00000000000E+00 -0.10772608994E+03  0.10772608994E+03  0.00000000000E+00 0.  1.
          1    1    1    2  502    0 -0.29812646244E+02 -0.12737971296E+02 -0.89235695194E+02  0.94942398777E+02  0.00000000000E+00 0.  1.
         -1    1    1    2    0  501  0.29812646244E+02  0.12737971296E+02  0.11668021163E+01  0.32440888027E+02  0.00000000000E+00 0. -1.
</event>
<event>
 4    1  0.6935156E+001  0.2148477E+02  0.7546771E-02  0.1512455E+00
          2   -1    0    0  502    0  0.00000000000E+00  0.00000000000E+00  0.57620942639E+03  0.57620942639E+03  0.00000000000E+00 0.  1.
         -2   -1    0    0    0  501 -0.00000000000E+00 -0.00000000000E+00 -0.84298862545E+00  0.84298862545E+00  0.00000000000E+00 0. -1.
          1    1    1    2  502    0 -0.20010332889E+02 -0.78218840961E+01  0.22335861177E+03  0.22438953796E+03  0.00000000000E+00 0. -1.
         -1    1    1    2    0  501  0.20010332889E+02  0.78218840961E+01  0.35200782599E+03  0.35266287705E+03  0.00000000000E+00 0.  1.
</event>
<event>
 4    1  0.6935156E+001  0.4397792E+02  0.7546771E-02  0.1326630E+00
          2   -1    0    0  502    0  0.00000000000E+00  0.00000000000E+00  0.47171287492E+02  0.47171287492E+02  0.00000000000E+00 0. -1.
         -2   -1    0    0    0  501 -0.00000000000E+00 -0.00000000000E+00 -0.81036451297E+02  0.81036451297E+02  0.00000000000E+00 0.  1.
          1    1    1    2  502    0 -0.25449474029E+02  0.35866163327E+02 -0.61990160183E+02  0.76005508746E+02  0.00000000000E+00 0.  1.
         -1    1    1    2    0  501  0.25449474029E+02 -0.35866163327E+02  0.28124996378E+02  0.52202230043E+02  0.00000000000E+00 0. -1.
</event>
<event>
 4    1  0.6935156E+001  0.2149944E+02  0.7546771E-02  0.1512252E+00
          2   -1    0    0  502    0  0.00000000000E+00  0.00000000000E+00  0.15036425897E+03  0.15036425897E+03  0.00000000000E+00 0.  1.
         -2   -1    0    0    0  501 -0.00000000000E+00 -0.00000000000E+00 -0.33283972907E+01  0.33283972907E+01  0.00000000000E+00 0. -1.
          1    1    1    2  502    0  0.39156692732E+01  0.21139851827E+02  0.94761492277E+02  0.97169780383E+02  0.00000000000E+00 0.  1.
         -1    1    1    2    0  501 -0.39156692732E+01 -0.21139851827E+02  0.52274369407E+02  0.56522875883E+02  0.00000000000E+00 0. -1.
</event>
<event>
 4    1  0.6935156E+001  0.2191901E+02  0.7546771E-02  0.1506537E+00
          2   -1    0    0  502    0  0.00000000000E+00  0.00000000000E+00  0.18532304880E+02  0.18532304880E+02  0.00000000000E+00 0. -1.
         -2   -1    0    0    0  501 -0.00000000000E+00 -0.00000000000E+00 -0.27691636707E+02  0.27691636707E+02  0.00000000000E+00 0.  1.
          1    1    1    2  502    0 -0.21918815606E+02  0.91387297093E-01  0.12586000313E+01  0.21955111096E+02  0.00000000000E+00 0. -1.
         -1    1    1    2    0  501  0.21918815606E+02 -0.91387297093E-01 -0.10417931858E+02  0.24268830491E+02  0.00000000000E+00 0.  1.
</event>
<event>
 4    1  0.6935156E+001  0.2267320E+02  0.7546771E-02  0.1496643E+00
          2   -1    0    0  502    0  0.00000000000E+00  0.00000000000E+00  0.54547976873E+01  0.54547976873E+01  0.00000000000E+00 0. -1.
         -2   -1    0    0    0  501 -0.00000000000E+00 -0.00000000000E+00 -0.16902649972E+03  0.16902649972E+03  0.00000000000E+00 0.  1.
          1    1    1    2  502    0  0.93624989317E+00  0.22653863317E+02 -0.23756773912E+02  0.32839890282E+02  0.00000000000E+00 0. -1.
         -1    1    1    2    0  501 -0.93624989317E+00 -0.22653863317E+02 -0.13981492812E+03  0.14164140713E+03  0.00000000000E+00 0.  1.
</event>
<event>
 4    1  0.6935156E+001  0.2082892E+02  0.7546771E-02  0.1521721E+00
          2   -1    0    0  502    0  0.00000000000E+00  0.00000000000E+00  0.69351912919E+01  0.69351912919E+01  0.00000000000E+00 0.  1.
         -2   -1    0    0    0  501 -0.00000000000E+00 -0.00000000000E+00 -0.63036944710E+02  0.63036944710E+02  0.00000000000E+00 0. -1.
          1    1    1    2  502    0  0.15518553526E+02  0.13893110194E+02 -0.24997770546E+02  0.32538170610E+02  0.00000000000E+00 0.  1.
         -1    1    1    2    0  501 -0.15518553526E+02 -0.13893110194E+02 -0.31103982872E+02  0.37433965391E+02  0.00000000000E+00 0. -1.
</event>
<event>
 4    1  0.6935156E+001  0.4645832E+02  0.7546771E-02  0.1314304E+00
          2   -1    0    0  502    0  0.00000000000E+00  0.00000000000E+00  0.14362051729E+04  0.14362051729E+04  0.00000000000E+00 0.  1.
         -2   -1    0    0    0  501 -0.00000000000E+00 -0.00000000000E+00 -0.17455697455E+01  0.17455697455E+01  0.00000000000E+00 0. -1.
          1    1    1    2  502    0  0.33497268187E+02 -0.32191740704E+02  0.44911917065E+03  0.45151567480E+03  0.00000000000E+00 0. -1.
         -1    1    1    2    0  501 -0.33497268187E+02  0.32191740704E+02  0.98534043255E+03  0.98643506789E+03  0.00000000000E+00 0.  1.
</event>
<event>
 4    1  0.6935156E+001  0.2063257E+02  0.7546771E-02  0.1524576E+00
          2   -1    0    0  502    0  0.00000000000E+00  0.00000000000E+00  0.78539663326E+02  0.78539663326E+02  0.00000000000E+00 0.  1.
         -2   -1    0    0    0  501 -0.00000000000E+00 -0.00000000000E+00 -0.58109862569E+01  0.58109862569E+01  0.00000000000E+00 0. -1.
          1    1    1    2  502    0  0.17092212662E+02 -0.11556779437E+02  0.25427606368E+02  0.32745473737E+02  0.00000000000E+00 0. -1.
         -1    1    1    2    0  501 -0.17092212662E+02  0.11556779437E+02  0.47301070701E+02  0.51605175846E+02  0.00000000000E+00 0.  1.
</event>
<event>
 4    1  0.6935156E+001  0.2434111E+02  0.7546771E-02  0.1476311E+00
          2   -1    0    0  502    0  0.00000000000E+00  0.00000000000E+00  0.14678000338E+03  0.14678000338E+03  0.00000000000E+00 0.  1.
         -2   -1    0    0    0  501 -0.00000000000E+00 -0.00000000000E+00 -0.42935116566E+01  0.42935116566E+01  0.00000000000E+00 0. -1.
          1    1    1    2  502    0  0.23842016173E+02  0.49038415901E+01  0.89721453219E+02  0.92964662993E+02  0.00000000000E+00 0. -1.
         -1    1    1    2    0  501 -0.23842016173E+02 -0.49038415901E+01  0.52765038507E+02  0.58108852047E+02  0.00000000000E+00 0.  1.
</event>
<event>
 4    1  0.6935156E+001  0.2033638E+02  0.7546771E-02  0.1528954E+00
          2   -1    0    0  502    0  0.00000000000E+00  0.00000000000E+00  0.17111617559E+01  0.17111617559E+01  0.00000000000E+00 0. -1.
         -2   -1    0    0    0  501 -0.00000000000E+00 -0.00000000000E+00 -0.25046178107E+03  0.25046178107E+03  0.00000000000E+00 0.  1.
          1    1    1    2  502    0 -0.17589535071E+02 -0.10206704119E+02 -0.10077745680E+03  0.10280887293E+03  0.00000000000E+00 0. -1.
         -1    1    1    2    0  501  0.17589535071E+02  0.10206704119E+02 -0.14797316251E+03  0.14936406990E+03  0.00000000000E+00 0.  1.
</event>
<event>
 4    1  0.6935156E+001  0.2884407E+02  0.7546771E-02  0.1429915E+00
          2   -1    0    0  502    0  0.00000000000E+00  0.00000000000E+00  0.27355994859E+02  0.27355994859E+02  0.00000000000E+00 0. -1.
         -2   -1    0    0    0  501 -0.00000000000E+00 -0.00000000000E+00 -0.34976378418E+02  0.34976378418E+02  0.00000000000E+00 0.  1.
          1    1    1    2  502    0  0.28640208760E+02 -0.34232503020E+01  0.74471392967E+01  0.29789932597E+02  0.00000000000E+00 0. -1.
         -1    1    1    2    0  501 -0.28640208760E+02  0.34232503020E+01 -0.15067522855E+02  0.32542440680E+02  0.00000000000E+00 0.  1.
</event>
<event>
 4    1  0.6935156E+001  0.3896460E+02  0.7546771E-02  0.1354662E+00
          2   -1    0    0  502    0  0.00000000000E+00  0.00000000000E+00  0.14305407199E+04  0.14305407199E+04  0.00000000000E+00 0. -1.
         -2   -1    0    0    0  501 -0.00000000000E+00 -0.00000000000E+00 -0.14254731567E+01  0.14254731567E+01  0.00000000000E+00 0.  1.
          1    1    1    2  502    0 -0.17524195575E+02 -0.34801476040E+02  0.10764456135E+04  0.10771505925E+04  0.00000000000E+00 0. -1.
         -1    1    1    2    0  501  0.17524195575E+02  0.34801476040E+02  0.35266963329E+03  0.35481560058E+03  0.00000000000E+00 0.  1.
</event>
<event>
 4    1  0.6935156E+001  0.3535949E+02  0.7546771E-02  0.1378053E+00
          2   -1    0    0  502    0  0.00000000000E+00  0.00000000000E+00  0.19122229838E+03  0.19122229838E+03  0.00000000000E+00 0.  1.
         -2   -1    0    0    0  501 -0.00000000000E+00 -0.00000000000E+00 -0.98217310282E+01  0.98217310282E+01  0.00000000000E+00 0. -1.
          1    1    1    2  502    0 -0.33646292541E+02  0.10872929636E+02  0.32580696422E+02  0.48081133306E+02  0.00000000000E+00 0. -1.
         -1    1    1    2    0  501  0.33646292541E+02 -0.10872929636E+02  0.14881987093E+03  0.15296289611E+03  0.00000000000E+00 0.  1.
</event>
<event>
 4    1  0.6935156E+001  0.2082807E+02  0.7546771E-02  0.1521734E+00
          2   -1    0    0  502    0  0.00000000000E+00  0.00000000000E+00  0.21881573902E+04  0.21881573902E+04  0.00000000000E+00 0. -1.
         -2   -1    0    0    0  501 -0.00000000000E+00 -0.00000000000E+00 -0.19976934991E+00  0.19976934991E+00  0.00000000000E+00 0.  1.
          1    1    1    2  502    0 -0.17678387321E+02 -0.11012868944E+02  0.99864862011E+03  0.99886579434E+03  0.00000000000E+00 0.  1.
         -1    1    1    2    0  501  0.17678387321E+02  0.11012868944E+02  0.11893090008E+04  0.11894913652E+04  0.00000000000E+00 0. -1.
</event>
<event>
 4    1  0.6935156E+001  0.3186466E+02  0.7546771E-02  0.1404056E+00
          2   -1    0    0  502    0  0.00000000000E+00  0.00000000000E+00  0.20341165473E+03  0.20341165473E+03  0.00000000000E+00 0.  1.
         -2   -1    0    0    0  501 -0.00000000000E+00 -0.00000000000E+00 -0.21578261015E+02  0.21578261015E+02  0.00000000000E+00 0. -1.
          1    1    1    2  502    0  0.24682878204E+02 -0.20152222041E+02 -0.77121319152E+01  0.32784653548E+02  0.00000000000E+00 0. -1.
         -1    1    1    2    0  501 -0.24682878204E+02  0.20152222041E+02  0.18954552563E+03  0.19220526219E+03  0.00000000000E+00 0.  1.
</event>
<event>
 4    1  0.6935156E+001  0.4734490E+02  0.7546771E-02  0.1310113E+00
          2   -1    0    0  502    0  0.00000000000E+00  0.00000000000E+00  0.31910117734E+02  0.31910117734E+02  0.00000000000E+00 0. -1.
         -2   -1    0    0    0  501 -0.00000000000E+00 -0.00000000000E+00 -0.72353678807E+02  0.72353678807E+02  0.00000000000E+00 0.  1.
          1    1    1    2  502    0 -0.35600823560E+02 -0.31210904185E+02 -0.29120686673E+02  0.55583752757E+02  0.00000000000E+00 0. -1.
         -1    1    1    2    0  501  0.35600823560E+02  0.31210904185E+02 -0.11322874400E+02  0.48680043785E+02  0.00000000000E+00 0.  1.
</event>
<event>
 4    1  0.6935156E+001  0.3350903E+02  0.7546771E-02  0.1391359E+00
          2   -1    0    0  502    0  0.00000000000E+00  0.00000000000E+00  0.29039775107E+03  0.29039775107E+03  0.00000000000E+00 0.  1.
         -2   -1    0    0    0  501 -0.00000000000E+00 -0.00000000000E+00 -0.39826626853E+01  0.39826626853E+01  0.00000000000E+00 0. -1.
          1    1    1    2  502    0  0.25954960651E+02 -0.21194229537E+02  0.11808193910E+03  0.12274444871E+03  0.00000000000E+00 0.  1.
         -1    1    1    2    0  501 -0.25954960651E+02  0.21194229537E+02  0.16833314929E+03  0.17163596505E+03  0.00000000000E+00 0. -1.
</event>
<event>
 4    1  0.6935156E+001  0.2570648E+02  0.7546771E-02  0.1461053E+00
          2   -1    0    0  502    0  0.00000000000E+00  0.00000000000E+00  0.17379888241E+03  0.17379888241E+03  0.00000000000E+00 0.  1.
         -2   -1    0    0    0  501 -0.00000000000E+00 -0.00000000000E+00 -0.40084457124E+01  0.40084457124E+01  0.00000000000E+00 0. -1.
          1    1    1    2  502    0  0.10943213167E+02  0.23260890177E+02  0.64730370580E+02  0.69647999265E+02  0.00000000000E+00 0. -1.
         -1    1    1    2    0  501 -0.10943213167E+02 -0.23260890177E+02  0.10506006612E+03  0.10815932886E+03  0.00000000000E+00 0.  1.
</event>
<event>
 4    1  0.6935156E+001  0.2093302E+02  0.7546771E-02  0.1520223E+00
          2   -1    0    0  502    0  0.00000000000E+00  0.00000000000E+00  0.11582184529E+04  0.11582184529E+04  0.00000000000E+00 0.  1.
         -2   -1    0    0    0  501 -0.00000000000E+00 -0.00000000000E+00 -0.38177811548E+00  0.38177811548E+00  0.00000000000E+00 0. -1.
          1    1    1    2  502    0  0.61936977318E+01  0.19995739924E+02  0.63395360570E+03  0.63429911373E+03  0.00000000000E+00 0. -1.
         -1    1    1    2    0  501 -0.61936977318E+01 -0.19995739924E+02  0.52388306906E+03  0.52430111726E+03  0.00000000000E+00 0.  1.
</event>
<event>
 4    1  0.6935156E+001  0.2719188E+02  0.7546771E-02  0.1445690E+00
          2   -1    0    0  502    0  0.00000000000E+00  0.00000000000E+00  0.12205901725E+03  0.12205901725E+03  0.00000000000E+00 0.  1.
         -2   -1    0    0    0  501 -0.00000000000E+00 -0.00000000000E+00 -0.63816856773E+01  0.63816856773E+01  0.00000000000E+00 0. -1.
          1    1    1    2  502    0  0.12219170440E+02  0.24291774978E+02  0.72308360663E+02  0.77252168122E+02  0.00000000000E+00 0. -1.
         -1    1    1    2    0  501 -0.12219170440E+02 -0.24291774978E+02  0.43368970915E+02  0.51188534810E+02  0.00000000000E+00 0.  1.
</event>
<event>
 4    1  0.6935156E+001  0.2478118E+02  0.7546771E-02  0.1471266E+00
          2   -1    0    0  502    0  0.00000000000E+00  0.00000000000E+00  0.31152320327E+01  0.31152320327E+01  0.00000000000E+00 0.  1.
         -2   -1    0    0    0  501 -0.00000000000E+00 -0.00000000000E+00 -0.19935303819E+03  0.19935303819E+03  0.00000000000E+00 0. -1.
          1    1    1    2  502    0 -0.24778241493E+02 -0.38152673237E+00 -0.10880831413E+03  0.11159460577E+03  0.00000000000E+00 0.  1.
         -1    1    1    2    0  501  0.24778241493E+02  0.38152673237E+00 -0.87429492034E+02  0.90873664455E+02  0.00000000000E+00 0. -1.
</event>
<event>
 4    1  0.6935156E+001  0.2992918E+02  0.7546771E-02  0.1420213E+00
          2   -1    0    0  502    0  0.00000000000E+00  0.00000000000E+00  0.75978557072E+03  0.75978557072E+03  0.00000000000E+00 0. -1.
         -2   -1    0    0    0  501 -0.00000000000E+00 -0.00000000000E+00 -0.11873358248E+01  0.11873358248E+01  0.00000000000E+00 0.  1.
          1    1    1    2  502    0  0.26273784932E+02 -0.14333323868E+02  0.41125826326E+03  0.41234586824E+03  0.00000000000E+00 0. -1.
         -1    1    1    2    0  501 -0.26273784932E+02  0.14333323868E+02  0.34733997163E+03  0.34862703831E+03  0.00000000000E+00 0.  1.
</event>
<event>
 4    1  0.6935156E+001  0.2221386E+02  0.7546771E-02  0.1502613E+00
          2   -1    0    0  502    0  0.00000000000E+00  0.00000000000E+00  0.10981532153E+03  0.10981532153E+03  0.00000000000E+00 0.  1.
         -2   -1    0    0    0  501 -0.00000000000E+00 -0.00000000000E+00 -0.70585579573E+01  0.70585579573E+01  0.00000000000E+00 0. -1.
          1    1    1    2  502    0  0.20463414719E+02  0.86431682933E+01  0.86605542203E+02  0.89409035564E+02  0.00000000000E+00 0.  1.
         -1    1    1    2    0  501 -0.20463414719E+02 -0.86431682933E+01  0.16151221373E+02  0.27464843927E+02  0.00000000000E+00 0. -1.
</event>
<event>
 4    1  0.6935156E+001  0.3017319E+02  0.7546771E-02  0.1418097E+00
          2   -1    0    0  502    0  0.00000000000E+00  0.00000000000E+00  0.59888289666E+03  0.59888289666E+03  0.00000000000E+00 0.  1.
         -2   -1    0    0    0  501 -0.00000000000E+00 -0.00000000000E+00 -0.15202119301E+01  0.15202119301E+01  0.00000000000E+00 0. -1.
          1    1    1    2  502    0  0.16599459398E+02  0.25196814892E+02  0.29782598328E+03  0.29935052673E+03  0.00000000000E+00 0.  1.
         -1    1    1    2    0  501 -0.16599459398E+02 -0.25196814892E+02  0.29953670144E+03  0.30105258186E+03  0.00000000000E+00 0. -1.
</event>
<event>
 4    1  0.6935156E+001  0.2832219E+02  0.7546771E-02  0.1434760E+00
          2   -1    0    0  502    0  0.00000000000E+00  0.00000000000E+00  0.30027539453E+02  0.30027539453E+02  0.00000000000E+00 0. -1.
         -2   -1    0    0    0  501 -0.00000000000E+00 -0.00000000000E+00 -0.41964336657E+02  0.41964336657E+02  0.00000000000E+00 0.  1.
          1    1    1    2  502    0  0.10402028148E+02  0.26342820330E+02  0.15731487172E+02  0.32397932977E+02  0.00000000000E+00 0. -1.
         -1    1    1    2    0  501 -0.10402028148E+02 -0.26342820330E+02 -0.27668284376E+02  0.39593943133E+02  0.00000000000E+00 0.  1.
</event>
<event>
 4    1  0.6935156E+001  0.3227040E+02  0.7546771E-02  0.1400841E+00
          2   -1    0    0  502    0  0.00000000000E+00  0.00000000000E+00  0.25850900045E+04  0.25850900045E+04  0.00000000000E+00 0. -1.
         -2   -1    0    0    0  501 -0.00000000000E+00 -0.00000000000E+00 -0.97341010750E+00  0.97341010750E+00  0.00000000000E+00 0.  1.
          1    1    1    2  502    0 -0.29739539918E+02 -0.12527518322E+02  0.30210304047E+03  0.30382170102E+03  0.00000000000E+00 0.  1.
         -1    1    1    2    0  501  0.29739539918E+02  0.12527518322E+02  0.22820135539E+04  0.22822417135E+04  0.00000000000E+00 0. -1.
</event>
<event>
 4    1  0.6935156E+001  0.3772225E+02  0.7546771E-02  0.1362376E+00
          2   -1    0    0  502    0  0.00000000000E+00  0.00000000000E+00  0.25618990782E+03  0.25618990782E+03  0.00000000000E+00 0.  1.
         -2   -1    0    0    0  501 -0.00000000000E+00 -0.00000000000E+00 -0.55950971330E+01  0.55950971330E+01  0.00000000000E+00 0. -1.
          1    1    1    2  502    0  0.36946218584E+02 -0.76121774225E+01  0.11412718858E+03  0.12019976492E+03  0.00000000000E+00 0. -1.
         -1    1    1    2    0  501 -0.36946218584E+02  0.76121774225E+01  0.13646762211E+03  0.14158524004E+03  0.00000000000E+00 0.  1.
</event>
<event>
 4    1  0.6935156E+001  0.3292986E+02  0.7546771E-02  0.1395732E+00
          2   -1    0    0  502    0  0.00000000000E+00  0.00000000000E+00  0.17655496188E+04  0.17655496188E+04  0.00000000000E+00 0.  1.
         -2   -1    0    0    0  501 -0.00000000000E+00 -0.00000000000E+00 -0.61627995131E+00  0.61627995131E+00  0.00000000000E+00 0. -1.
          1    1    1    2  502    0  0.32131854222E+02  0.72055239956E+01  0.83099016283E+03  0.83164236686E+03  0.00000000000E+00 0. -1.
         -1    1    1    2    0  501 -0.32131854222E+02 -0.72055239956E+01  0.93394317604E+03  0.93452353192E+03  0.00000000000E+00 0.  1.
</event>
<event>
 4    1  0.6935156E+001  0.2485521E+02  0.7546771E-02  0.1470430E+00
          2   -1    0    0  502    0  0.00000000000E+00  0.00000000000E+00  0.25189824496E+03  0.25189824496E+03  0.00000000000E+00 0.  1.
         -2   -1    0    0    0  501 -0.00000000000E+00 -0.00000000000E+00 -0.34599923083E+01  0.34599923083E+01  0.00000000000E+00 0. -1.
          1    1    1    2  502    0  0.12765400958E+02 -0.21326648518E+02  0.19311645186E+03  0.19470938698E+03  0.00000000000E+00 0.  1.
         -1    1    1    2    0  501 -0.12765400958E+02  0.21326648518E+02  0.55321800795E+02  0.60648850292E+02  0.00000000000E+00 0. -1.
</event>
<event>
 4    1  0.6935156E+001  0.2769092E+02  0.7546771E-02  0.1440788E+00
          2   -1    0    0  502    0  0.00000000000E+00  0.00000000000E+00  0.26578968587E+03  0.26578968587E+03  0.00000000000E+00 0. -1.
         -2   -1    0    0    0  501 -0.00000000000E+00 -0.00000000000E+00 -0.48337089456E+01  0.48337089456E+01  0.00000000000E+00 0.  1.
          1    1    1    2  502    0 -0.27359099198E+02 -0.42739512308E+01  0.44561719951E+02  0.52464596187E+02  0.00000000000E+00 0.  1.
         -1    1    1    2    0  501  0.27359099198E+02  0.42739512308E+01  0.21639425697E+03  0.21815879863E+03  0.00000000000E+00 0. -1.
</event>
<event>
 4    1  0.6935156E+001  0.3230401E+02  0.7546771E-02  0.1400577E+00
          2   -1    0    0  502    0  0.00000000000E+00  0.00000000000E+00  0.13882560135E+04  0.13882560135E+04  0.00000000000E+00 0.  1.
         -2   -1    0    0    0  501 -0.00000000000E+00 -0.00000000000E+00 -0.10717087329E+01  0.10717087329E+01  0.00000000000E+00 0. -1.
          1    1    1    2  502    0 -0.30094848007E+02  0.11740929026E+02  0.10731854910E+04  0.10736715733E+04  0.00000000000E+00 0.  1.
         -1    1    1    2    0  501  0.30094848007E+02 -0.11740929026E+02  0.31399881378E+03  0.31565614891E+03  0.00000000000E+00 0. -1.
</event>
<event>
 4    1  0.6935156E+001  0.4849068E+02  0.7546771E-02  0.1304852E+00
          2   -1    0    0  502    0  0.00000000000E+00  0.00000000000E+00  0.20000426960E+03  0.20000426960E+03  0.00000000000E+00 0. -1.
         -2   -1    0    0    0  501 -0.00000000000E+00 -0.00000000000E+00 -0.13548100658E+02  0.13548100658E+02  0.00000000000E+00 0.  1.
          1    1    1    2  502    0  0.34189298648E+02 -0.34386601680E+02  0.13205724746E+03  0.14067858090E+03  0.00000000000E+00 0. -1.
         -1    1    1    2    0  501 -0.34189298648E+02  0.34386601680E+02  0.54398921481E+02  0.72873789358E+02  0.00000000000E+00 0.  1.
</event>
<event>
 4    1  0.6935156E+001  0.3084167E+02  0.7546771E-02  0.1412420E+00
          2   -1    0    0  502    0  0.00000000000E+00  0.00000000000E+00  0.84510271065E+03  0.84510271065E+03  0.00000000000E+00 0. -1.
         -2   -1    0    0    0  501 -0.00000000000E+00 -0.00000000000E+00 -0.12013391236E+01  0.12013391236E+01  0.00000000000E+00 0.  1.
          1    1    1    2  502    0 -0.20399728202E+02  0.23131363434E+02  0.52823155328E+03  0.52913115837E+03  0.00000000000E+00 0. -1.
         -1    1    1    2    0  501  0.20399728202E+02 -0.23131363434E+02  0.31566981825E+03  0.31717289140E+03  0.00000000000E+00 0.  1.
</event>
<event>
 4    1  0.6935156E+001  0.2776757E+02  0.7546771E-02  0.1440046E+00
          2   -1    0    0  502    0  0.00000000000E+00  0.00000000000E+00  0.65723732462E+03  0.65723732462E+03  0.00000000000E+00 0. -1.
         -2   -1    0    0    0  501 -0.00000000000E+00 -0.00000000000E+00 -0.14715289138E+01  0.14715289138E+01  0.00000000000E+00 0.  1.
          1    1    1    2  502    0  0.17086369137E+02  0.21888218716E+02  0.47619035568E+03  0.47699925888E+03  0.00000000000E+00 0. -1.
         -1    1    1    2    0  501 -0.17086369137E+02 -0.21888218716E+02  0.17957544002E+03  0.18170959465E+03  0.00000000000E+00 0.  1.
</event>
<event>
 4    1  0.6935156E+001  0.2245905E+02  0.7546771E-02  0.1499405E+00
          2   -1    0    0  502    0  0.00000000000E+00  0.00000000000E+00  0.15906550125E+04  0.15906550125E+04  0.00000000000E+00 0.  1.
         -2   -1    0    0    0  501 -0.00000000000E+00 -0.00000000000E+00 -0.58123473622E+00  0.58123473622E+00  0.00000000000E+00 0. -1.
          1    1    1    2  502    0  0.22270785610E+02  0.29019176103E+01  0.13313708312E+04  0.13315602499E+04  0.00000000000E+00 0.  1.
         -1    1    1    2    0  501 -0.22270785610E+02 -0.29019176103E+01  0.25870294665E+03  0.25967599739E+03  0.00000000000E+00 0. -1.
</event>
<event>
 4    1  0.6935156E+001  0.2841130E+02  0.7546771E-02  0.1433924E+00
          2   -1    0    0  502    0  0.00000000000E+00  0.00000000000E+00  0.56512338934E+02  0.56512338934E+02  0.00000000000E+00 0. -1.
         -2   -1    0    0    0  501 -0.00000000000E+00 -0.00000000000E+00 -0.14555230853E+03  0.14555230853E+03  0.00000000000E+00 0.  1.
          1    1    1    2  502    0  0.30130125013E+01  0.28251085074E+02  0.51426999415E+02  0.58753198390E+02  0.00000000000E+00 0. -1.
         -1    1    1    2    0  501 -0.30130125013E+01 -0.28251085074E+02 -0.14046696901E+03  0.14331144908E+03  0.00000000000E+00 0.  1.
</event>
<event>
 4    1  0.6935156E+001  0.4189704E+02  0.7546771E-02  0.1337714E+00
          2   -1    0    0  502    0  0.00000000000E+00  0.00000000000E+00  0.11411153106E+04  0.11411153106E+04  0.00000000000E+00 0.  1.
         -2   -1    0    0    0  501 -0.00000000000E+00 -0.00000000000E+00 -0.15457027808E+01  0.15457027808E+01  0.00000000000E+00 0. -1.
          1    1    1    2  502    0 -0.38929922023E+02  0.15486221613E+02  0.53020920691E+03  0.53186197926E+03  0.00000000000E+00 0.  1.
         -1    1    1    2    0  501  0.38929922023E+02 -0.15486221613E+02  0.60936040090E+03  0.61079903412E+03  0.00000000000E+00 0. -1.
</event>
<event>
 4    1  0.6935156E+001  0.2465104E+02  0.7546771E-02  0.1472745E+00
          2   -1    0    0  502    0  0.00000000000E+00  0.00000000000E+00  0.19015732921E+03  0.19015732921E+03  0.00000000000E+00 0. -1.
         -2   -1    0    0    0  501 -0.00000000000E+00 -0.00000000000E+00 -0.51291293654E+01  0.51291293654E+01  0.00000000000E+00 0.  1.
          1    1    1    2  502    0 -0.23639865744E+02 -0.69878678199E+01  0.32563755170E+02  0.40842033493E+02  0.00000000000E+00 0. -1.
         -1    1    1    2    0  501  0.23639865744E+02  0.69878678199E+01  0.15246444467E+03  0.15444442508E+03  0.00000000000E+00 0.  1.
</event>
<event>
 4    1  0.6935156E+001  0.5306770E+02  0.7546771E-02  0.1285393E+00
          2   -1    0    0  502    0  0.00000000000E+00  0.00000000000E+00  0.23058259284E+04  0.23058259284E+04  0.00000000000E+00 0. -1.
         -2   -1    0    0    0  501 -0.00000000000E+00 -0.00000000000E+00 -0.12221394997E+01  0.12221394997E+01  0.00000000000E+00 0.  1.
          1    1    1    2  502    0 -0.64611554642E+01  0.52672903038E+02  0.11819348312E+04  0.11831255751E+04  0.00000000000E+00 0. -1.
         -1    1    1    2    0  501  0.64611554642E+01 -0.52672903038E+02  0.11226689577E+04  0.11239224928E+04  0.00000000000E+00 0.  1.
</event>
<event>
 4    1  0.6935156E+001  0.2423540E+02  0.7546771E-02  0.1477542E+00
          2   -1    0    0  502    0  0.00000000000E+00  0.00000000000E+00  0.82272717880E+01  0.82272717880E+01  0.00000000000E+00 0. -1.
         -2   -1    0    0    0  501 -0.00000000000E+00 -0.00000000000E+00 -0.71994425213E+02  0.71994425213E+02  0.00000000000E+00 0.  1.
          1    1    1    2  502    0 -0.59128656118E+01  0.23503039138E+02 -0.35555141195E+02  0.43029325975E+02  0.00000000000E+00 0. -1.
         -1    1    1    2    0  501  0.59128656118E+01 -0.23503039138E+02 -0.28212012230E+02  0.37192371026E+02  0.00000000000E+00 0.  1.
</event>
<event>
 4    1  0.6935156E+001  0.2787936E+02  0.7546771E-02  0.1438969E+00
          2   -1    0    0  502    0  0.00000000000E+00  0.00000000000E+00  0.69479661015E+03  0.69479661015E+03  0.00000000000E+00 0. -1.
         -2   -1    0    0    0  501 -0.00000000000E+00 -0.00000000000E+00 -0.11804379207E+01  0.11804379207E+01  0.00000000000E+00 0.  1.
          1    1    1    2  502    0 -0.14337408417E+02  0.23910196050E+02  0.42640038292E+03  0.42731082985E+03  0.00000000000E+00 0. -1.
         -1    1    1    2    0  501  0.14337408417E+02 -0.23910196050E+02  0.26721578931E+03  0.26866621822E+03  0.00000000000E+00 0.  1.
</event>
<event>
 4    1  0.6935156E+001  0.2785716E+02  0.7546771E-02  0.1439183E+00
          2   -1    0    0  502    0  0.00000000000E+00  0.00000000000E+00  0.22168945038E+04  0.22168945038E+04  0.00000000000E+00 0. -1.
         -2   -1    0    0    0  501 -0.00000000000E+00 -0.00000000000E+00 -0.64077055728E+00  0.64077055728E+00  0.00000000000E+00 0.  1.
          1    1    1    2  502    0  0.23321566011E+02  0.15235684752E+02  0.18549675086E+04  0.18551766707E+04  0.00000000000E+00 0. -1.
         -1    1    1    2    0  501 -0.23321566011E+02 -0.15235684752E+02  0.36128622461E+03  0.36235860363E+03  0.00000000000E+00 0.  1.
</event>
<event>
 4    1  0.6935156E+001  0.2127015E+02  0.7546771E-02  0.1515443E+00
          2   -1    0    0  502    0  0.00000000000E+00  0.00000000000E+00  0.68961188529E+00  0.68961188529E+00  0.00000000000E+00 0.  1.
         -2   -1    0    0    0  501 -0.00000000000E+00 -0.00000000000E+00 -0.11327762773E+04  0.11327762773E+04  0.00000000000E+00 0. -1.
          1    1    1    2  502    0  0.57283436690E+01 -0.20484273299E+02 -0.93369899980E+03  0.93394124097E+03  0.00000000000E+00 0. -1.
         -1    1    1    2    0  501 -0.57283436690E+01  0.20484273299E+02 -0.19838766561E+03  0.19952464820E+03  0.00000000000E+00 0.  1.
</event>
<event>
 4    1  0.6935156E+001  0.4183912E+02  0.7546771E-02  0.1338033E+00
          2   -1    0    0  502    0  0.00000000000E+00  0.00000000000E+00  0.14634162761E+04  0.14634162761E+04  0.00000000000E+00 0. -1.
         -2   -1    0    0    0  501 -0.00000000000E+00 -0.00000000000E+00 -0.13260360513E+01  0.13260360513E+01  0.00000000000E+00 0.  1.
          1    1    1    2  502    0 -0.39427562401E+02  0.13999247330E+02  0.96022791390E+03  0.96113899007E+03  0.00000000000E+00 0. -1.
         -1    1    1    2    0  501  0.39427562401E+02 -0.13999247330E+02  0.50186232620E+03  0.50360332213E+03  0.00000000000E+00 0.  1.
</event>
<event>
 4    1  0.6935156E+001  0.4269873E+02  0.7546771E-02  0.1333358E+00
          2   -1    0    0  502    0  0.00000000000E+00  0.00000000000E+00  0.83257902158E+02  0.83257902158E+02  0.00000000000E+00 0. -1.
         -2   -1    0    0    0  501 -0.00000000000E+00 -0.00000000000E+00 -0.35167542623E+02  0.35167542623E+02  0.00000000000E+00 0.  1.
          1    1    1    2  502    0  0.30924329681E+02  0.29442615229E+02 -0.12327219684E+02  0.44442570840E+02  0.00000000000E+00 0.  1.
         -1    1    1    2    0  501 -0.30924329681E+02 -0.29442615229E+02  0.60417579220E+02  0.73982873941E+02  0.00000000000E+00 0. -1.
</event>
<event>
 4    1  0.6935156E+001  0.2467301E+02  0.7546771E-02  0.1472495E+00
          2   -1    0    0  502    0  0.00000000000E+00  0.00000000000E+00  0.33840528565E+03  0.33840528565E+03  0.00000000000E+00 0.  1.
         -2   -1    0    0    0  501 -0.00000000000E+00 -0.00000000000E+00 -0.18254226059E+01  0.18254226059E+01  0.00000000000E+00 0. -1.
          1    1    1    2  502    0  0.24376458300E+02 -0.38139110805E+01  0.18879498843E+03  0.19040038155E+03  0.00000000000E+00 0.  1.
         -1    1    1    2    0  501 -0.24376458300E+02  0.38139110805E+01  0.14778487462E+03  0.14983032671E+03  0.00000000000E+00 0. -1.
</event>
<event>
 4    1  0.6935156E+001  0.2775377E+02  0.7546771E-02  0.1440180E+00
          2   -1    0    0  502    0  0.00000000000E+00  0.00000000000E+00  0.18463052121E+02  0.18463052121E+02  0.00000000000E+00 0. -1.
         -2   -1    0    0    0  501 -0.00000000000E+00 -0.00000000000E+00 -0.44118475538E+02  0.44118475538E+02  0.00000000000E+00 0.  1.
          1    1    1    2  502    0 -0.27311925798E+02 -0.49326057007E+01 -0.55313535647E+01  0.28299607101E+02  0.00000000000E+00 0. -1.
         -1    1    1    2    0  501  0.27311925798E+02  0.49326057007E+01 -0.20124069852E+02  0.34281920559E+02  0.00000000000E+00 0.  1.
</event>
<event>
 4    1  0.6935156E+001  0.3291267E+02  0.7546771E-02  0.1395863E+00
          2   -1    0    0  502    0  0.00000000000E+00  0.00000000000E+00  0.12043728991E+03  0.12043728991E+03  0.00000000000E+00 0.  1.
         -2   -1    0    0    0  501 -0.00000000000E+00 -0.00000000000E+00 -0.11798191709E+02  0.11798191709E+02  0.00000000000E+00 0. -1.
          1    1    1    2  502    0 -0.14109250953E+01  0.32882415231E+02  0.86552066625E+02  0.92598618662E+02  0.00000000000E+00 0.  1.
         -1    1    1    2    0  501  0.14109250953E+01 -0.32882415231E+02  0.22087031572E+02  0.39636862952E+02  0.00000000000E+00 0. -1.
</event>
<event>
 4    1  0.6935156E+001  0.3204856E+02  0.7546771E-02  0.1402592E+00
          2   -1    0    0  502    0  0.00000000000E+00  0.00000000000E+00  0.10247049229E+01  0.10247049229E+01  0.00000000000E+00 0. -1.
         -2   -1    0    0    0  501 -0.00000000000E+00 -0.00000000000E+00 -0.10494308832E+04  0.10494308832E+04  0.00000000000E+00 0.  1.
          1    1    1    2  502    0 -0.59066792256E+01  0.31499540401E+02 -0.63545485641E+03  0.63626251220E+03  0.00000000000E+00 0.  1.
         -1    1    1    2    0  501  0.59066792256E+01 -0.31499540401E+02 -0.41295132186E+03  0.41419307591E+03  0.00000000000E+00 0. -1.
</event>
<event>
 4    1  0.6935156E+001  0.2773576E+02  0.7546771E-02  0.1440354E+00
          2   -1    0    0  502    0  0.00000000000E+00  0.00000000000E+00  0.68591960864E+02  0.68591960864E+02  0.00000000000E+00 0.  1.
         -2   -1    0    0    0  501 -0.00000000000E+00 -0.00000000000E+00 -0.11866268500E+02  0.11866268500E+02  0.00000000000E+00 0. -1.
          1    1    1    2  502    0 -0.15700853163E+02  0.22863852079E+02  0.37786013750E+02  0.46872757088E+02  0.00000000000E+00 0.  1.
         -1    1    1    2    0  501  0.15700853163E+02 -0.22863852079E+02  0.18939678614E+02  0.33585472275E+02  0.00000000000E+00 0. -1.
</event>
<event>
 4    1  0.6935156E+001  0.2110844E+02  0.7546771E-02  0.1517722E+00
          2   -1    0    0  502    0  0.00000000000E+00  0.00000000000E+00  0.90550792616E+01  0.90550792616E+01  0.00000000000E+00 0. -1.
         -2   -1    0    0    0  501 -0.00000000000E+00 -0.00000000000E+00 -0.21107600039E+03  0.21107600039E+03  0.00000000000E+00 0.  1.
          1    1    1    2  502    0 -0.21089168800E+02  0.90186773513E+00 -0.46242732867E+01  0.21609033054E+02  0.00000000000E+00 0. -1.
         -1    1    1    2    0  501  0.21089168800E+02 -0.90186773513E+00 -0.19739664784E+03  0.19852204660E+03  0.00000000000E+00 0.  1.
</event>
<event>
 4    1  0.6935156E+001  0.2203193E+02  0.7546771E-02  0.1505026E+00
          2   -1    0    0  502    0  0.00000000000E+00  0.00000000000E+00  0.57280805130E+01  0.57280805130E+01  0.00000000000E+00 0. -1.
         -2   -1    0    0    0  501 -0.00000000000E+00 -0.00000000000E+00 -0.85375157300E+02  0.85375157300E+02  0.00000000000E+00 0.  1.
          1    1    1    2  502    0 -0.60833328889E+01 -0.21175430344E+02 -0.43748052997E+02  0.48982628863E+02  0.00000000000E+00 0. -1.
         -1    1    1    2    0  501  0.60833328889E+01  0.21175430344E+02 -0.35899023790E+02  0.42120608950E+02  0.00000000000E+00 0.  1.
</event>
<event>
 4    1  0.6935156E+001  0.2003812E+02  0.7546771E-02  0.1533454E+00
          2   -1    0    0  502    0  0.00000000000E+00  0.00000000000E+00  0.63173481384E+03  0.63173481384E+03  0.00000000000E+00 0.  1.
         -2   -1    0    0    0  501 -0.00000000000E+00 -0.00000000000E+00 -0.67265761863E+00  0.67265761863E+00  0.00000000000E+00 0. -1.
          1    1    1    2  502    0 -0.17670214044E+02 -0.94493267451E+01  0.24130618260E+03  0.24213673823E+03  0.00000000000E+00 0.  1.
         -1    1    1    2    0  501  0.17670214044E+02  0.94493267451E+01  0.38975597362E+03  0.39027073323E+03  0.00000000000E+00 0. -1.
</event>
<event>
 4    1  0.6935156E+001  0.2369382E+02  0.7546771E-02  0.1483965E+00
          2   -1    0    0  502    0  0.00000000000E+00  0.00000000000E+00  0.70296188485E+03  0.70296188485E+03  0.00000000000E+00 0. -1.
         -2   -1    0    0    0  501 -0.00000000000E+00 -0.00000000000E+00 -0.81331421166E+00  0.81331421166E+00  0.00000000000E+00 0.  1.
          1    1    1    2  502    0 -0.19107268463E+02 -0.14011039753E+02  0.39837851793E+03  0.39908249835E+03  0.00000000000E+00 0. -1.
         -1    1    1    2    0  501  0.19107268463E+02  0.14011039753E+02  0.30377005271E+03  0.30469270071E+03  0.00000000000E+00 0.  1.
</event>
<event>
 4    1  0.6935156E+001  0.2322267E+02  0.7546771E-02  0.1489721E+00
          2   -1    0    0  502    0  0.00000000000E+00  0.00000000000E+00  0.14276052849E+01  0.14276052849E+01  0.00000000000E+00 0.  1.
         -2   -1    0    0    0  501 -0.00000000000E+00 -0.00000000000E+00 -0.59475102599E+03  0.59475102599E+03  0.00000000000E+00 0. -1.
          1    1    1    2  502    0  0.23022667805E+02 -0.30412664453E+01 -0.11660909136E+03  0.11889900219E+03  0.00000000000E+00 0.  1.
         -1    1    1    2    0  501 -0.23022667805E+02  0.30412664453E+01 -0.47671432935E+03  0.47727962909E+03  0.00000000000E+00 0. -1.
</event>
<event>
 4    1  0.6935156E+001  0.2505083E+02  0.7546771E-02  0.1468236E+00
          2   -1    0    0  502    0  0.00000000000E+00  0.00000000000E+00  0.47955241373E+03  0.47955241373E+03  0.00000000000E+00 0.  1.
         -2   -1    0    0    0  501 -0.00000000000E+00 -0.00000000000E+00 -0.15872096208E+01  0.15872096208E+01  0.00000000000E+00 0. -1.
          1    1    1    2  502    0  0.24930719443E+02 -0.24501618689E+01  0.33977299813E+03  0.34069522204E+03  0.00000000000E+00 0. -1.
         -1    1    1    2    0  501 -0.24930719443E+02  0.24501618689E+01  0.13819220598E+03  0.14044440131E+03  0.00000000000E+00 0.  1.
</event>
<event>
 4    1  0.6935156E+001  0.2192440E+02  0.7546771E-02  0.1506465E+00
          2   -1    0    0  502    0  0.00000000000E+00  0.00000000000E+00  0.23152372574E+01  0.23152372574E+01  0.00000000000E+00 0. -1.
         -2   -1    0    0    0  501 -0.00000000000E+00 -0.00000000000E+00 -0.30621113858E+03  0.30621113858E+03  0.00000000000E+00 0.  1.
          1    1    1    2  502    0 -0.91055477720E+01 -0.19944127964E+02 -0.64413186271E+02  0.68042176671E+02  0.00000000000E+00 0. -1.
         -1    1    1    2    0  501  0.91055477720E+01  0.19944127964E+02 -0.23948271505E+03  0.24048419917E+03  0.00000000000E+00 0.  1.
</event>
<event>
 4    1  0.6935156E+001  0.2096337E+02  0.7546771E-02  0.1519788E+00
          2   -1    0    0  502    0  0.00000000000E+00  0.00000000000E+00  0.49218169091E+03  0.49218169091E+03  0.00000000000E+00 0.  1.
         -2   -1    0    0    0  501 -0.00000000000E+00 -0.00000000000E+00 -0.24094398823E+01  0.24094398823E+01  0.00000000000E+00 0. -1.
          1    1    1    2  502    0 -0.20962117665E+02  0.22870429406E+00  0.44108072388E+03  0.44157860870E+03  0.00000000000E+00 0.  1.
         -1    1    1    2    0  501  0.20962117665E+02 -0.22870429406E+00  0.48691527150E+02  0.53012522095E+02  0.00000000000E+00 0. -1.
</event>
<event>
 4    1  0.6935156E+001  0.3736264E+02  0.7546771E-02  0.1364674E+00
          2   -1    0    0  502    0  0.00000000000E+00  0.00000000000E+00  0.98372876852E+03  0.98372876852E+03  0.00000000000E+00 0. -1.
         -2   -1    0    0    0  501 -0.00000000000E+00 -0.00000000000E+00 -0.15895478467E+01  0.15895478467E+01  0.00000000000E+00 0.  1.
          1    1    1    2  502    0 -0.32652758228E+02  0.18159409462E+02  0.65241658984E+03  0.65348555720E+03  0.00000000000E+00 0. -1.
         -1    1    1    2    0  501  0.32652758228E+02 -0.18159409462E+02  0.32972263083E+03  0.33183275916E+03  0.00000000000E+00 0.  1.
</event>
<event>
 4    1  0.6935156E+001  0.2999182E+02  0.7546771E-02  0.1419668E+00
          2   -1    0    0  502    0  0.00000000000E+00  0.00000000000E+00  0.67019839498E+03  0.67019839498E+03  0.00000000000E+00 0. -1.
         -2   -1    0    0    0  501 -0.00000000000E+00 -0.00000000000E+00 -0.68754676505E+01  0.68754676505E+01  0.00000000000E+00 0.  1.
          1    1    1    2  502    0 -0.29952605026E+02  0.15332490318E+01  0.27959514515E+02  0.41002973701E+02  0.00000000000E+00 0.  1.
         -1    1    1    2    0  501  0.29952605026E+02 -0.15332490318E+01  0.63536341281E+03  0.63607088893E+03  0.00000000000E+00 0. -1.
</event>
<event>
 4    1  0.6935156E+001  0.2106728E+02  0.7546771E-02  0.1518306E+00
          2   -1    0    0  502    0  0.00000000000E+00  0.00000000000E+00  0.47888444432E+03  0.47888444432E+03  0.00000000000E+00 0. -1.
         -2   -1    0    0    0  501 -0.00000000000E+00 -0.00000000000E+00 -0.11514461065E+01  0.11514461065E+01  0.00000000000E+00 0.  1.
          1    1    1    2  502    0  0.21057153935E+02 -0.65317709254E+00  0.34488235168E+03  0.34552520439E+03  0.00000000000E+00 0.  1.
         -1    1    1    2    0  501 -0.21057153935E+02  0.65317709254E+00  0.13285064653E+03  0.13451068603E+03  0.00000000000E+00 0. -1.
</event>
<event>
 4    1  0.6935156E+001  0.2514186E+02  0.7546771E-02  0.1467223E+00
          2   -1    0    0  502    0  0.00000000000E+00  0.00000000000E+00  0.11307895110E+03  0.11307895110E+03  0.00000000000E+00 0. -1.
         -2   -1    0    0    0  501 -0.00000000000E+00 -0.00000000000E+00 -0.66432473257E+01  0.66432473257E+01  0.00000000000E+00 0.  1.
          1    1    1    2  502    0 -0.14661682025E+02 -0.20424208484E+02  0.29382792408E+02  0.38671199900E+02  0.00000000000E+00 0.  1.
         -1    1    1    2    0  501  0.14661682025E+02  0.20424208484E+02  0.77052911367E+02  0.81050998526E+02  0.00000000000E+00 0. -1.
</event>
<event>
 4    1  0.6935156E+001  0.2914235E+02  0.7546771E-02  0.1427199E+00
          2   -1    0    0  502    0  0.00000000000E+00  0.00000000000E+00  0.29798364244E+03  0.29798364244E+03  0.00000000000E+00 0. -1.
         -2   -1    0    0    0  501 -0.00000000000E+00 -0.00000000000E+00 -0.30165024573E+01  0.30165024573E+01  0.00000000000E+00 0.  1.
          1    1    1    2  502    0  0.42383129982E+01  0.28832503175E+02  0.18283392864E+03  0.18514189693E+03  0.00000000000E+00 0. -1.
         -1    1    1    2    0  501 -0.42383129982E+01 -0.28832503175E+02  0.11213321134E+03  0.11585824797E+03  0.00000000000E+00 0.  1.
</event>
<event>
 4    1  0.6935156E+001  0.2738620E+02  0.7546771E-02  0.1443767E+00
          2   -1    0    0  502    0  0.00000000000E+00  0.00000000000E+00  0.55484522089E+03  0.55484522089E+03  0.00000000000E+00 0. -1.
         -2   -1    0    0    0  501 -0.00000000000E+00 -0.00000000000E+00 -0.16457051004E+01  0.16457051004E+01  0.00000000000E+00 0.  1.
          1    1    1    2  502    0 -0.23725886492E+02 -0.13677940751E+02  0.39419875012E+03  0.39514890655E+03  0.00000000000E+00 0. -1.
         -1    1    1    2    0  501  0.23725886492E+02  0.13677940751E+02  0.15900076567E+03  0.16134201944E+03  0.00000000000E+00 0.  1.
</event>
<event>
 4    1  0.6935156E+001  0.2603827E+02  0.7546771E-02  0.1457516E+00
          2   -1    0    0  502    0  0.00000000000E+00  0.00000000000E+00  0.21235993446E+01  0.21235993446E+01  0.00000000000E+00 0. -1.
         -2   -1    0    0    0  501 -0.00000000000E+00 -0.00000000000E+00 -0.32613839429E+03  0.32613839429E+03  0.00000000000E+00 0.  1.
          1    1    1    2  502    0 -0.26033282888E+02  0.50956840493E+00 -0.13818050852E+03  0.14061239068E+03  0.00000000000E+00 0.  1.
         -1    1    1    2    0  501  0.26033282888E+02 -0.50956840493E+00 -0.18583428643E+03  0.18764960296E+03  0.00000000000E+00 0. -1.
</event>
<event>
 4    1  0.6935156E+001  0.2324808E+02  0.7546771E-02  0.1489406E+00
          2   -1    0    0  502    0  0.00000000000E+00  0.00000000000E+00  0.67925459841E+03  0.67925459841E+03  0.00000000000E+00 0. -1.
         -2   -1    0    0    0  501 -0.00000000000E+00 -0.00000000000E+00 -0.79573558437E+00  0.79573558437E+00  0.00000000000E+00 0.  1.
          1    1    1    2  502    0 -0.10234068348E+02  0.20874318160E+02  0.34191595471E+03  0.34270540323E+03  0.00000000000E+00 0. -1.
         -1    1    1    2    0  501  0.10234068348E+02 -0.20874318160E+02  0.33654290811E+03  0.33734493077E+03  0.00000000000E+00 0.  1.
</event>
<event>
 4    1  0.6935156E+001  0.4069705E+02  0.7546771E-02  0.1344449E+00
          2   -1    0    0  502    0  0.00000000000E+00  0.00000000000E+00  0.38957235977E+02  0.38957235977E+02  0.00000000000E+00 0. -1.
         -2   -1    0    0    0  501 -0.00000000000E+00 -0.00000000000E+00 -0.45268330907E+02  0.45268330907E+02  0.00000000000E+00 0.  1.
          1    1    1    2  502    0 -0.18330771823E+02 -0.36335008273E+02 -0.13542306402E+02  0.42891072317E+02  0.00000000000E+00 0.  1.
         -1    1    1    2    0  501  0.18330771823E+02  0.36335008273E+02  0.72312114726E+01  0.41334494568E+02  0.00000000000E+00 0. -1.
</event>
<event>
 4    1  0.6935156E+001  0.2053786E+02  0.7546771E-02  0.1525966E+00
          2   -1    0    0  502    0  0.00000000000E+00  0.00000000000E+00  0.97255852752E+01  0.97255852752E+01  0.00000000000E+00 0.  1.
         -2   -1    0    0    0  501 -0.00000000000E+00 -0.00000000000E+00 -0.55687226442E+02  0.55687226442E+02  0.00000000000E+00 0. -1.
          1    1    1    2  502    0 -0.26775311114E+01 -0.20362576809E+02 -0.75991929644E+01  0.21898662993E+02  0.00000000000E+00 0.  1.
         -1    1    1    2    0  501  0.26775311114E+01  0.20362576809E+02 -0.38362448202E+02  0.43514148725E+02  0.00000000000E+00 0. -1.
</event>
<event>
 4    1  0.6935156E+001  0.2353655E+02  0.7546771E-02  0.1485868E+00
          2   -1    0    0  502    0  0.00000000000E+00  0.00000000000E+00  0.68323354854E+03  0.68323354854E+03  0.00000000000E+00 0. -1.
         -2   -1    0    0    0  501 -0.00000000000E+00 -0.00000000000E+00 -0.89121739312E+00  0.89121739312E+00  0.00000000000E+00 0.  1.
          1    1    1    2  502    0  0.19991087293E+02  0.12422783421E+02  0.23842273101E+03  0.23958165159E+03  0.00000000000E+00 0.  1.
         -1    1    1    2    0  501 -0.19991087293E+02 -0.12422783421E+02  0.44391960014E+03  0.44454311434E+03  0.00000000000E+00 0. -1.
</event>
<event>
 4    1  0.6935156E+001  0.3410642E+02  0.7546771E-02  0.1386956E+00
          2   -1    0    0  502    0  0.00000000000E+00  0.00000000000E+00  0.36679252614E+03  0.36679252614E+03  0.00000000000E+00 0.  1.
         -2   -1    0    0    0  501 -0.00000000000E+00 -0.00000000000E+00 -0.54331065333E+01  0.54331065333E+01  0.00000000000E+00 0. -1.
          1    1    1    2  502    0  0.71833047990E+01 -0.33341382166E+02  0.60599946874E+02  0.69538487140E+02  0.00000000000E+00 0. -1.
         -1    1    1    2    0  501 -0.71833047990E+01  0.33341382166E+02  0.30075947273E+03  0.30268714553E+03  0.00000000000E+00 0.  1.
</event>
<event>
 4    1  0.6935156E+001  0.3964589E+02  0.7546771E-02  0.1350573E+00
          2   -1    0    0  502    0  0.00000000000E+00  0.00000000000E+00  0.25301840077E+02  0.25301840077E+02  0.00000000000E+00 0. -1.
         -2   -1    0    0    0  501 -0.00000000000E+00 -0.00000000000E+00 -0.66555743563E+02  0.66555743563E+02  0.00000000000E+00 0.  1.
          1    1    1    2  502    0  0.38677290086E+02  0.87099812578E+01 -0.32481526791E+02  0.51252766994E+02  0.00000000000E+00 0. -1.
         -1    1    1    2    0  501 -0.38677290086E+02 -0.87099812578E+01 -0.87723766957E+01  0.40604816646E+02  0.00000000000E+00 0.  1.
</event>
<event>
 4    1  0.6935156E+001  0.4040456E+02  0.7546771E-02  0.1346131E+00
          2   -1    0    0  502    0  0.00000000000E+00  0.00000000000E+00  0.25105566845E+04  0.25105566845E+04  0.00000000000E+00 0. -1.
         -2   -1    0    0    0  501 -0.00000000000E+00 -0.00000000000E+00 -0.85191253986E+00  0.85191253986E+00  0.00000000000E+00 0.  1.
          1    1    1    2  502    0  0.38309426680E+02  0.12841972710E+02  0.64393035808E+03  0.64519674092E+03  0.00000000000E+00 0.  1.
         -1    1    1    2    0  501 -0.38309426680E+02 -0.12841972710E+02  0.18657744139E+04  0.18662118561E+04  0.00000000000E+00 0. -1.
</event>
<event>
 4    1  0.6935156E+001  0.4059756E+02  0.7546771E-02  0.1345019E+00
          2   -1    0    0  502    0  0.00000000000E+00  0.00000000000E+00  0.25365825577E+04  0.25365825577E+04  0.00000000000E+00 0.  1.
         -2   -1    0    0    0  501 -0.00000000000E+00 -0.00000000000E+00 -0.82895603783E+00  0.82895603783E+00  0.00000000000E+00 0. -1.
          1    1    1    2  502    0  0.39932138191E+02  0.73202833162E+01  0.67799767420E+03  0.67921204968E+03  0.00000000000E+00 0.  1.
         -1    1    1    2    0  501 -0.39932138191E+02 -0.73202833162E+01  0.18577559275E+04  0.18581994641E+04  0.00000000000E+00 0. -1.
</event>
<event>
 4    1  0.6935156E+001  0.3101170E+02  0.7546771E-02  0.1411004E+00
          2   -1    0    0  502    0  0.00000000000E+00  0.00000000000E+00  0.64909214737E+03  0.64909214737E+03  0.00000000000E+00 0. -1.
         -2   -1    0    0    0  501 -0.00000000000E+00 -0.00000000000E+00 -0.24192132348E+01  0.24192132348E+01  0.00000000000E+00 0.  1.
          1    1    1    2  502    0  0.88019833008E+01 -0.29736351096E+02  0.12054210235E+03  0.12446736089E+03  0.00000000000E+00 0.  1.
         -1    1    1    2    0  501 -0.88019833008E+01  0.29736351096E+02  0.52613083178E+03  0.52704399972E+03  0.00000000000E+00 0. -1.
</event>
<event>
 4    1  0.6935156E+001  0.2017104E+02  0.7546771E-02  0.1531437E+00
          2   -1    0    0  502    0  0.00000000000E+00  0.00000000000E+00  0.25440060057E+01  0.25440060057E+01  0.00000000000E+00 0.  1.
         -2   -1    0    0    0  501 -0.00000000000E+00 -0.00000000000E+00 -0.16024655672E+03  0.16024655672E+03  0.00000000000E+00 0. -1.
          1    1    1    2  502    0 -0.27160340565E+01 -0.19987349427E+02 -0.82450725374E+02  0.84882230725E+02  0.00000000000E+00 0. -1.
         -1    1    1    2    0  501  0.27160340565E+01  0.19987349427E+02 -0.75251825342E+02  0.77908332003E+02  0.00000000000E+00 0.  1.
</event>
<event>
 4    1  0.6935156E+001  0.3138844E+02  0.7546771E-02  0.1407903E+00
          2   -1    0    0  502    0  0.00000000000E+00  0.00000000000E+00  0.89894910224E+01  0.89894910224E+01  0.00000000000E+00 0. -1.
         -2   -1    0    0    0  501 -0.00000000000E+00 -0.00000000000E+00 -0.20436193235E+03  0.20436193235E+03  0.00000000000E+00 0.  1.
          1    1    1    2  502    0 -0.79200816061E+01  0.30372791980E+02 -0.25044507275E+02  0.40155467000E+02  0.00000000000E+00 0. -1.
         -1    1    1    2    0  501  0.79200816061E+01 -0.30372791980E+02 -0.17032793405E+03  0.17319595637E+03  0.00000000000E+00 0.  1.
</event>
<event>
 4    1  0.6935156E+001  0.2188013E+02  0.7546771E-02  0.1507060E+00
          2   -1    0    0  502    0  0.00000000000E+00  0.00000000000E+00  0.55776792751E+01  0.55776792751E+01  0.00000000000E+00 0. -1.
         -2   -1    0    0    0  501 -0.00000000000E+00 -0.00000000000E+00 -0.86756091729E+02  0.86756091729E+02  0.00000000000E+00 0.  1.
          1    1    1    2  502    0  0.20145562691E+02  0.85379409458E+01 -0.45355429799E+02  0.50357274986E+02  0.00000000000E+00 0.  1.
         -1    1    1    2    0  501 -0.20145562691E+02 -0.85379409458E+01 -0.35822982655E+02  0.41976496019E+02  0.00000000000E+00 0. -1.
</event>
<event>
 4    1  0.6935156E+001  0.2025843E+02  0.7546771E-02  0.1530121E+00
          2   -1    0    0  502    0  0.00000000000E+00  0.00000000000E+00  0.51696736713E+03  0.51696736713E+03  0.00000000000E+00 0.  1.
         -2   -1    0    0    0  501 -0.00000000000E+00 -0.00000000000E+00 -0.10033552371E+01  0.10033552371E+01  0.00000000000E+00 0. -1.
          1    1    1    2  502    0 -0.38572668608E+01 -0.19887824792E+02  0.37632053689E+03  0.37686542766E+03  0.00000000000E+00 0.  1.
         -1    1    1    2    0  501  0.38572668608E+01  0.19887824792E+02  0.13964347501E+03  0.14110529471E+03  0.00000000000E+00 0. -1.
</event>
<event>
 4    1  0.6935156E+001  0.2040739E+02  0.7546771E-02  0.1527896E+00
          2   -1    0    0  502    0  0.00000000000E+00  0.00000000000E+00  0.21825815383E+01  0.21825815383E+01  0.00000000000E+00 0. -1.
         -2   -1    0    0    0  501 -0.00000000000E+00 -0.00000000000E+00 -0.25654098126E+03  0.25654098126E+03  0.00000000000E+00 0.  1.
          1    1    1    2  502    0 -0.19584963670E+02  0.57350482429E+01 -0.61699326552E+02  0.64986679230E+02  0.00000000000E+00 0. -1.
         -1    1    1    2    0  501  0.19584963670E+02 -0.57350482429E+01 -0.19265907317E+03  0.19373688357E+03  0.00000000000E+00 0.  1.
</event>
<event>
 4    1  0.6935156E+001  0.2660283E+02  0.7546771E-02  0.1451639E+00
          2   -1    0    0  502    0  0.00000000000E+00  0.00000000000E+00  0.26418238049E+02  0.26418238049E+02  0.00000000000E+00 0.  1.
         -2   -1    0    0    0  501 -0.00000000000E+00 -0.00000000000E+00 -0.28056723640E+02  0.28056723640E+02  0.00000000000E+00 0. -1.
          1    1    1    2  502    0  0.26602802940E+02 -0.37582919234E-01 -0.66096659242E+01  0.27411643883E+02  0.00000000000E+00 0. -1.
         -1    1    1    2    0  501 -0.26602802940E+02  0.37582919234E-01  0.49711803335E+01  0.27063317806E+02  0.00000000000E+00 0.  1.
</event>
<event>
 4    1  0.6935156E+001  0.2074822E+02  0.7546771E-02  0.1522890E+00
          2   -1    0    0  502    0  0.00000000000E+00  0.00000000000E+00  0.40820011831E+03  0.40820011831E+03  0.00000000000E+00 0. -1.
         -2   -1    0    0    0  501 -0.00000000000E+00 -0.00000000000E+00 -0.10640265737E+01  0.10640265737E+01  0.00000000000E+00 0.  1.
          1    1    1    2  502    0  0.82215386920E+01  0.19049806306E+02  0.18430968029E+03  0.18547384469E+03  0.00000000000E+00 0. -1.
         -1    1    1    2    0  501 -0.82215386920E+01 -0.19049806306E+02  0.22282641145E+03  0.22379030019E+03  0.00000000000E+00 0.  1.
</event>
<event>
 4    1  0.6935156E+001  0.2093578E+02  0.7546771E-02  0.1520184E+00
          2   -1    0    0  502    0  0.00000000000E+00  0.00000000000E+00  0.85576876140E+02  0.85576876140E+02  0.00000000000E+00 0.  1.
         -2   -1    0    0    0  501 -0.00000000000E+00 -0.00000000000E+00 -0.57052757570E+01  0.57052757570E+01  0.00000000000E+00 0. -1.
          1    1    1    2  502    0  0.89696795782E+01  0.18916973870E+02  0.54531722292E+02  0.58412462610E+02  0.00000000000E+00 0.  1.
         -1    1    1    2    0  501 -0.89696795782E+01 -0.18916973870E+02  0.25339878091E+02  0.32869689286E+02  0.00000000000E+00 0. -1.
</event>
<event>
 4    1  0.6935156E+001  0.2322548E+02  0.7546771E-02  0.1489686E+00
          2   -1    0    0  502    0  0.00000000000E+00  0.00000000000E+00  0.47556148510E+02  0.47556148510E+02  0.00000000000E+00 0.  1.
         -2   -1    0    0    0  501 -0.00000000000E+00 -0.00000000000E+00 -0.11433670044E+02  0.11433670044E+02  0.00000000000E+00 0. -1.
          1    1    1    2  502    0 -0.22089799067E+02  0.71738204456E+01  0.20689761928E+02  0.31104487959E+02  0.00000000000E+00 0. -1.
         -1    1    1    2    0  501  0.22089799067E+02 -0.71738204456E+01  0.15432716539E+02  0.27885330594E+02  0.00000000000E+00 0.  1.
</event>
<event>
 4    1  0.6935156E+001  0.2578405E+02  0.7546771E-02  0.1460220E+00
          2   -1    0    0  502    0  0.00000000000E+00  0.00000000000E+00  0.10057330424E+02  0.10057330424E+02  0.00000000000E+00 0. -1.
         -2   -1    0    0    0  501 -0.00000000000E+00 -0.00000000000E+00 -0.10705163196E+03  0.10705163196E+03  0.00000000000E+00 0.  1.
          1    1    1    2  502    0 -0.19775242291E+02 -0.16545596747E+02 -0.84711829021E+02  0.88548918432E+02  0.00000000000E+00 0.  1.
         -1    1    1    2    0  501  0.19775242291E+02  0.16545596747E+02 -0.12282472512E+02  0.28560043949E+02  0.00000000000E+00 0. -1.
</event>
<event>
 4    1  0.6935156E+001  0.2134044E+02  0.7546771E-02  0.1514459E+00
          2   -1    0    0  502    0  0.00000000000E+00  0.00000000000E+00  0.18029395548E+02  0.18029395548E+02  0.00000000000E+00 0.  1.
         -2   -1    0    0    0  501 -0.00000000000E+00 -0.00000000000E+00 -0.33234962481E+02  0.33234962481E+02  0.00000000000E+00 0. -1.
          1    1    1    2  502    0  0.14454226681E+02 -0.15699984181E+02  0.49536089369E+01  0.21907816270E+02  0.00000000000E+00 0. -1.
         -1    1    1    2    0  501 -0.14454226681E+02  0.15699984181E+02 -0.20159175870E+02  0.29356541758E+02  0.00000000000E+00 0.  1.
</event>
<event>
 4    1  0.6935156E+001  0.2825372E+02  0.7546771E-02  0.1435405E+00
          2   -1    0    0  502    0  0.00000000000E+00  0.00000000000E+00  0.13959549656E+04  0.13959549656E+04  0.00000000000E+00 0.  1.
         -2   -1    0    0    0  501 -0.00000000000E+00 -0.00000000000E+00 -0.18213837276E+01  0.18213837276E+01  0.00000000000E+00 0. -1.
          1    1    1    2  502    0 -0.25739420258E+02 -0.11651388570E+02  0.11819620149E+03  0.12152618919E+03  0.00000000000E+00 0. -1.
         -1    1    1    2    0  501  0.25739420258E+02  0.11651388570E+02  0.12759373804E+04  0.12762501602E+04  0.00000000000E+00 0.  1.
</event>
<event>
 4    1  0.6935156E+001  0.2229549E+02  0.7546771E-02  0.1501539E+00
          2   -1    0    0  502    0  0.00000000000E+00  0.00000000000E+00  0.52030503817E+02  0.52030503817E+02  0.00000000000E+00 0.  1.
         -2   -1    0    0    0  501 -0.00000000000E+00 -0.00000000000E+00 -0.10220648873E+02  0.10220648873E+02  0.00000000000E+00 0. -1.
          1    1    1    2  502    0 -0.21819040951E+02 -0.45845646104E+01  0.28855408807E+02  0.36465372590E+02  0.00000000000E+00 0.  1.
         -1    1    1    2    0  501  0.21819040951E+02  0.45845646104E+01  0.12954446136E+02  0.25785780101E+02  0.00000000000E+00 0. -1.
</event>
<event>
 4    1  0.6935156E+001  0.4003429E+02  0.7546771E-02  0.1348285E+00
          2   -1    0    0  502    0  0.00000000000E+00  0.00000000000E+00  0.74744330889E+03  0.74744330889E+03  0.00000000000E+00 0.  1.
         -2   -1    0    0    0  501 -0.00000000000E+00 -0.00000000000E+00 -0.26968024623E+01  0.26968024623E+01  0.00000000000E+00 0. -1.
          1    1    1    2  502    0 -0.14942929488E+02  0.37140988643E+02  0.54214059535E+03  0.54361674855E+03  0.00000000000E+00 0.  1.
         -1    1    1    2    0  501  0.14942929488E+02 -0.37140988643E+02  0.20260591108E+03  0.20652336280E+03  0.00000000000E+00 0. -1.
</event>
<event>
 4    1  0.6935156E+001  0.3511458E+02  0.7546771E-02  0.1379759E+00
          2   -1    0    0  502    0  0.00000000000E+00  0.00000000000E+00  0.18839273020E+04  0.18839273020E+04  0.00000000000E+00 0.  1.
         -2   -1    0    0    0  501 -0.00000000000E+00 -0.00000000000E+00 -0.13721621645E+01  0.13721621645E+01  0.00000000000E+00 0. -1.
          1    1    1    2  502    0  0.34168246816E+02  0.80972042073E+01  0.16229992563E+04  0.16233790746E+04  0.00000000000E+00 0.  1.
         -1    1    1    2    0  501 -0.34168246816E+02 -0.80972042073E+01  0.25955588351E+03  0.26192038957E+03  0.00000000000E+00 0. -1.
</event>
<event>
 4    1  0.6935156E+001  0.2240465E+02  0.7546771E-02  0.1500112E+00
          2   -1    0    0  502    0  0.00000000000E+00  0.00000000000E+00  0.96751372580E+03  0.96751372580E+03  0.00000000000E+00 0.  1.
         -2   -1    0    0    0  501 -0.00000000000E+00 -0.00000000000E+00 -0.53365579550E+00  0.53365579550E+00  0.00000000000E+00 0. -1.
          1    1    1    2  502    0  0.10723745882E+02 -0.19671540530E+02  0.56418559587E+03  0.56463028153E+03  0.00000000000E+00 0.  1.
         -1    1    1    2    0  501 -0.10723745882E+02  0.19671540530E+02  0.40279447413E+03  0.40341710006E+03  0.00000000000E+00 0. -1.
</event>
<event>
 4    1  0.6935156E+001  0.2172282E+02  0.7546771E-02  0.1509190E+00
          2   -1    0    0  502    0  0.00000000000E+00  0.00000000000E+00  0.14263798426E+02  0.14263798426E+02  0.00000000000E+00 0. -1.
         -2   -1    0    0    0  501 -0.00000000000E+00 -0.00000000000E+00 -0.34896771718E+02  0.34896771718E+02  0.00000000000E+00 0.  1.
          1    1    1    2  502    0  0.16083553745E+02 -0.14601381255E+02 -0.15921213880E+02  0.26932621243E+02  0.00000000000E+00 0. -1.
         -1    1    1    2    0  501 -0.16083553745E+02  0.14601381255E+02 -0.47117594118E+01  0.22227948901E+02  0.00000000000E+00 0.  1.
</event>
<event>
 4    1  0.6935156E+001  0.3828896E+02  0.7546771E-02  0.1358815E+00
          2   -1    0    0  502    0  0.00000000000E+00  0.00000000000E+00  0.12078962708E+02  0.12078962708E+02  0.00000000000E+00 0. -1.
         -2   -1    0    0    0  501 -0.00000000000E+00 -0.00000000000E+00 -0.18425571516E+03  0.18425571516E+03  0.00000000000E+00 0.  1.
          1    1    1    2  502    0  0.99857610225E+00 -0.38275932896E+02 -0.14343748583E+03  0.14845994926E+03  0.00000000000E+00 0.  1.
         -1    1    1    2    0  501 -0.99857610225E+00  0.38275932896E+02 -0.28739266625E+02  0.47874728609E+02  0.00000000000E+00 0. -1.
</event>
<event>
 4    1  0.6935156E+001  0.2173585E+02  0.7546771E-02  0.1509013E+00
          2   -1    0    0  502    0  0.00000000000E+00  0.00000000000E+00  0.27919827935E+03  0.27919827935E+03  0.00000000000E+00 0.  1.
         -2   -1    0    0    0  501 -0.00000000000E+00 -0.00000000000E+00 -0.24141899614E+01  0.24141899614E+01  0.00000000000E+00 0. -1.
          1    1    1    2  502    0  0.11911474601E+02 -0.18181419022E+02  0.61387779206E+02  0.65122243977E+02  0.00000000000E+00 0. -1.
         -1    1    1    2    0  501 -0.11911474601E+02  0.18181419022E+02  0.21539631018E+03  0.21649022533E+03  0.00000000000E+00 0.  1.
</event>
<event>
 4    1  0.6935156E+001  0.2449280E+02  0.7546771E-02  0.1474558E+00
          2   -1    0    0  502    0  0.00000000000E+00  0.00000000000E+00  0.63193491487E+03  0.63193491487E+03  0.00000000000E+00 0.  1.
         -2   -1    0    0    0  501 -0.00000000000E+00 -0.00000000000E+00 -0.95778386457E+00  0.95778386457E+00  0.00000000000E+00 0. -1.
          1    1    1    2  502    0 -0.20328834945E+02  0.13661468083E+02  0.28570988562E+03  0.28675780021E+03  0.00000000000E+00 0. -1.
         -1    1    1    2    0  501  0.20328834945E+02 -0.13661468083E+02  0.34526724539E+03  0.34613489853E+03  0.00000000000E+00 0.  1.
</event>
<event>
 4    1  0.6935156E+001  0.2119466E+02  0.7546771E-02  0.1516504E+00
          2   -1    0    0  502    0  0.00000000000E+00  0.00000000000E+00  0.15921509650E+03  0.15921509650E+03  0.00000000000E+00 0.  1.
         -2   -1    0    0    0  501 -0.00000000000E+00 -0.00000000000E+00 -0.34731558701E+01  0.34731558701E+01  0.00000000000E+00 0. -1.
          1    1    1    2  502    0  0.20140057366E+02  0.66024080636E+01  0.42634070991E+02  0.47611739227E+02  0.00000000000E+00 0. -1.
         -1    1    1    2    0  501 -0.20140057366E+02 -0.66024080636E+01  0.11310786964E+03  0.11507651314E+03  0.00000000000E+00 0.  1.
</event>
<event>
 4    1  0.6935156E+001  0.2371483E+02  0.7546771E-02  0.1483712E+00
          2   -1    0    0  502    0  0.00000000000E+00  0.00000000000E+00  0.64156820634E+03  0.64156820634E+03  0.00000000000E+00 0. -1.
         -2   -1    0    0    0  501 -0.00000000000E+00 -0.00000000000E+00 -0.12106369142E+01  0.12106369142E+01  0.00000000000E+00 0.  1.
          1    1    1    2  502    0  0.21673273415E+02  0.96261186279E+01  0.15135731416E+03  0.15320388210E+03  0.00000000000E+00 0.  1.
         -1    1    1    2    0  501 -0.21673273415E+02 -0.96261186279E+01  0.48900025527E+03  0.48957496116E+03  0.00000000000E+00 0. -1.
</event>
<event>
 4    1  0.6935156E+001  0.2224109E+02  0.7546771E-02  0.1502254E+00
          2   -1    0    0  502    0  0.00000000000E+00  0.00000000000E+00  0.84009180676E+03  0.84009180676E+03  0.00000000000E+00 0. -1.
         -2   -1    0    0    0  501 -0.00000000000E+00 -0.00000000000E+00 -0.70865205836E+00  0.70865205836E+00  0.00000000000E+00 0.  1.
          1    1    1    2  502    0  0.55991145986E+01  0.21524780799E+02  0.59256393741E+03  0.59298118536E+03  0.00000000000E+00 0.  1.
         -1    1    1    2    0  501 -0.55991145986E+01 -0.21524780799E+02  0.24681921730E+03  0.24781927346E+03  0.00000000000E+00 0. -1.
</event>
<event>
 4    1  0.6935156E+001  0.2666842E+02  0.7546771E-02  0.1450968E+00
          2   -1    0    0  502    0  0.00000000000E+00  0.00000000000E+00  0.10904957633E+04  0.10904957633E+04  0.00000000000E+00 0.  1.
         -2   -1    0    0    0  501 -0.00000000000E+00 -0.00000000000E+00 -0.66767251192E+00  0.66767251192E+00  0.00000000000E+00 0. -1.
          1    1    1    2  502    0  0.22904173591E+02  0.13660287346E+02  0.62800878484E+03  0.62857476759E+03  0.00000000000E+00 0.  1.
         -1    1    1    2    0  501 -0.22904173591E+02 -0.13660287346E+02  0.46181930592E+03  0.46258866819E+03  0.00000000000E+00 0. -1.
</event>
<event>
 4    1  0.6935156E+001  0.2203568E+02  0.7546771E-02  0.1504976E+00
          2   -1    0    0  502    0  0.00000000000E+00  0.00000000000E+00  0.44638956569E+02  0.44638956569E+02  0.00000000000E+00 0.  1.
         -2   -1    0    0    0  501 -0.00000000000E+00 -0.00000000000E+00 -0.16566454094E+02  0.16566454094E+02  0.00000000000E+00 0. -1.
          1    1    1    2  502    0 -0.20052117740E+02  0.91369560436E+01  0.31969200817E+02  0.38827840430E+02  0.00000000000E+00 0.  1.
         -1    1    1    2    0  501  0.20052117740E+02 -0.91369560436E+01 -0.38966983416E+01  0.22377570234E+02  0.00000000000E+00 0. -1.
</event>
<event>
 4    1  0.6935156E+001  0.3275635E+02  0.7546771E-02  0.1397062E+00
          2   -1    0    0  502    0  0.00000000000E+00  0.00000000000E+00  0.82272895971E+03  0.82272895971E+03  0.00000000000E+00 0. -1.
         -2   -1    0    0    0  501 -0.00000000000E+00 -0.00000000000E+00 -0.13148117237E+01  0.13148117237E+01  0.00000000000E+00 0.  1.
          1    1    1    2  502    0  0.29157028939E+02 -0.14928024609E+02  0.37363910754E+03  0.37507220763E+03  0.00000000000E+00 0. -1.
         -1    1    1    2    0  501 -0.29157028939E+02  0.14928024609E+02  0.44777504045E+03  0.44897156380E+03  0.00000000000E+00 0.  1.
</event>
<event>
 4    1  0.6935156E+001  0.2591466E+02  0.7546771E-02  0.1458826E+00
          2   -1    0    0  502    0  0.00000000000E+00  0.00000000000E+00  0.89615558167E+02  0.89615558167E+02  0.00000000000E+00 0. -1.
         -2   -1    0    0    0  501 -0.00000000000E+00 -0.00000000000E+00 -0.75721344926E+01  0.75721344926E+01  0.00000000000E+00 0.  1.
          1    1    1    2  502    0 -0.26092919398E+01  0.25782963255E+02  0.36082192924E+02  0.44424027787E+02  0.00000000000E+00 0. -1.
         -1    1    1    2    0  501  0.26092919398E+01 -0.25782963255E+02  0.45961230750E+02  0.52763664872E+02  0.00000000000E+00 0.  1.
</event>
<event>
 4    1  0.6935156E+001  0.2015440E+02  0.7546771E-02  0.1531688E+00
          2   -1    0    0  502    0  0.00000000000E+00  0.00000000000E+00  0.24098606682E+02  0.24098606682E+02  0.00000000000E+00 0. -1.
         -2   -1    0    0    0  501 -0.00000000000E+00 -0.00000000000E+00 -0.18695560715E+02  0.18695560715E+02  0.00000000000E+00 0.  1.
          1    1    1    2  502    0 -0.15908364422E+02 -0.12374324128E+02 -0.40107956308E+01  0.20549609189E+02  0.00000000000E+00 0.  1.
         -1    1    1    2    0  501  0.15908364422E+02  0.12374324128E+02  0.94138415980E+01  0.22244558208E+02  0.00000000000E+00 0. -1.
</event>
<event>
 4    1  0.6935156E+001  0.2305335E+02  0.7546771E-02  0.1491829E+00
          2   -1    0    0  502    0  0.00000000000E+00  0.00000000000E+00  0.93829341996E+03  0.93829341996E+03  0.00000000000E+00 0. -1.
         -2   -1    0    0    0  501 -0.00000000000E+00 -0.00000000000E+00 -0.58030309287E+00  0.58030309287E+00  0.00000000000E+00 0.  1.
          1    1    1    2  502    0  0.21840490635E+02 -0.73790266417E+01  0.54149687184E+03  0.54198737926E+03  0.00000000000E+00 0.  1.
         -1    1    1    2    0  501 -0.21840490635E+02  0.73790266417E+01  0.39621624503E+03  0.39688634379E+03  0.00000000000E+00 0. -1.
</event>
<event>
 4    1  0.6935156E+001  0.3453787E+02  0.7546771E-02  0.1383841E+00
          2   -1    0    0  502    0  0.00000000000E+00  0.00000000000E+00  0.10391984161E+03  0.10391984161E+03  0.00000000000E+00 0. -1.
         -2   -1    0    0    0  501 -0.00000000000E+00 -0.00000000000E+00 -0.16765519795E+03  0.16765519795E+03  0.00000000000E+00 0.  1.
          1    1    1    2  502    0 -0.76686122125E+01 -0.33675763309E+02 -0.16292436512E+03  0.16654492907E+03  0.00000000000E+00 0.  1.
         -1    1    1    2    0  501  0.76686122125E+01  0.33675763309E+02  0.99189008783E+02  0.10503011050E+03  0.00000000000E+00 0. -1.
</event>
<event>
 4    1  0.6935156E+001  0.2003495E+02  0.7546771E-02  0.1533502E+00
          2   -1    0    0  502    0  0.00000000000E+00  0.00000000000E+00  0.52374816545E+02  0.52374816545E+02  0.00000000000E+00 0. -1.
         -2   -1    0    0    0  501 -0.00000000000E+00 -0.00000000000E+00 -0.84518497323E+01  0.84518497323E+01  0.00000000000E+00 0.  1.
          1    1    1    2  502    0  0.19992961666E+02  0.12963830690E+01  0.31247245674E+02  0.37118586819E+02  0.00000000000E+00 0. -1.
         -1    1    1    2    0  501 -0.19992961666E+02 -0.12963830690E+01  0.12675721139E+02  0.23708079459E+02  0.00000000000E+00 0.  1.
</event>
<event>
 4    1  0.6935156E+001  0.2907457E+02  0.7546771E-02  0.1427812E+00
          2   -1    0    0  502    0  0.00000000000E+00  0.00000000000E+00  0.31687459759E+03  0.31687459759E+03  0.00000000000E+00 0. -1.
         -2   -1    0    0    0  501 -0.00000000000E+00 -0.00000000000E+00 -0.10185647759E+02  0.10185647759E+02  0.00000000000E+00 0.  1.
          1    1    1    2  502    0 -0.47479781857E+01  0.28684270287E+02  0.12852118693E+02  0.31788482406E+02  0.00000000000E+00 0.  1.
         -1    1    1    2    0  501  0.47479781857E+01 -0.28684270287E+02  0.29383683114E+03  0.29527176294E+03  0.00000000000E+00 0. -1.
</event>
<event>
 4    1  0.6935156E+001  0.3160355E+02  0.7546771E-02  0.1406155E+00
          2   -1    0    0  502    0  0.00000000000E+00  0.00000000000E+00  0.11364783505E+03  0.11364783505E+03  0.00000000000E+00 0. -1.
         -2   -1    0    0    0  501 -0.00000000000E+00 -0.00000000000E+00 -0.10232084020E+02  0.10232084020E+02  0.00000000000E+00 0.  1.
          1    1    1    2  502    0 -0.30162607920E+02  0.94340612707E+01  0.74973920705E+02  0.81362603292E+02  0.00000000000E+00 0. -1.
         -1    1    1    2    0  501  0.30162607920E+02 -0.94340612707E+01  0.28441830322E+02  0.42517315774E+02  0.00000000000E+00 0.  1.
</event>
<event>
 4    1  0.6935156E+001  0.2987857E+02  0.7546771E-02  0.1420655E+00
          2   -1    0    0  502    0  0.00000000000E+00  0.00000000000E+00  0.84262654907E+03  0.84262654907E+03  0.00000000000E+00 0. -1.
         -2   -1    0    0    0  501 -0.00000000000E+00 -0.00000000000E+00 -0.42627166299E+01  0.42627166299E+01  0.00000000000E+00 0.  1.
          1    1    1    2  502    0  0.17011405421E+02  0.24562999058E+02  0.78625225348E+03  0.78681976014E+03  0.00000000000E+00 0. -1.
         -1    1    1    2    0  501 -0.17011405421E+02 -0.24562999058E+02  0.52111578962E+02  0.60069505567E+02  0.00000000000E+00 0.  1.
</event>
<event>
 4    1  0.6935156E+001  0.2802076E+02  0.7546771E-02  0.1437615E+00
          2   -1    0    0  502    0  0.00000000000E+00  0.00000000000E+00  0.21849629698E+03  0.21849629698E+03  0.00000000000E+00 0. -1.
         -2   -1    0    0    0  501 -0.00000000000E+00 -0.00000000000E+00 -0.62604048702E+01  0.62604048702E+01  0.00000000000E+00 0.  1.
          1    1    1    2  502    0  0.25685969406E+01  0.27902784449E+02  0.17946563992E+03  0.18163997077E+03  0.00000000000E+00 0. -1.
         -1    1    1    2    0  501 -0.25685969406E+01 -0.27902784449E+02  0.32770252188E+02  0.43116731077E+02  0.00000000000E+00 0.  1.
</event>
<event>
 4    1  0.6935156E+001  0.3093542E+02  0.7546771E-02  0.1411638E+00
          2   -1    0    0  502    0  0.00000000000E+00  0.00000000000E+00  0.52003730221E+01  0.52003730221E+01  0.00000000000E+00 0. -1.
         -2   -1    0    0    0  501 -0.00000000000E+00 -0.00000000000E+00 -0.21940637795E+03  0.21940637795E+03  0.00000000000E+00 0.  1.
          1    1    1    2  502    0  0.30930527590E+02  0.54992463105E+00 -0.15220066296E+03  0.15531272247E+03  0.00000000000E+00 0.  1.
         -1    1    1    2    0  501 -0.30930527590E+02 -0.54992463105E+00 -0.62005341966E+02  0.69294028505E+02  0.00000000000E+00 0. -1.
</event>
<event>
 4    1  0.6935156E+001  0.3518601E+02  0.7546771E-02  0.1379260E+00
          2   -1    0    0  502    0  0.00000000000E+00  0.00000000000E+00  0.10201639677E+04  0.10201639677E+04  0.00000000000E+00 0.  1.
         -2   -1    0    0    0  501 -0.00000000000E+00 -0.00000000000E+00 -0.14379775109E+01  0.14379775109E+01  0.00000000000E+00 0. -1.
          1    1    1    2  502    0 -0.19202316371E+02  0.29484340429E+02  0.71114397703E+03  0.71201391233E+03  0.00000000000E+00 0. -1.
         -1    1    1    2    0  501  0.19202316371E+02 -0.29484340429E+02  0.30758201319E+03  0.30958803291E+03  0.00000000000E+00 0.  1.
</event>
<event>
 4    1  0.6935156E+001  0.2045867E+02  0.7546771E-02  0.1527136E+00
          2   -1    0    0  502    0  0.00000000000E+00  0.00000000000E+00  0.22770112533E+02  0.22770112533E+02  0.00000000000E+00 0.  1.
         -2   -1    0    0    0  501 -0.00000000000E+00 -0.00000000000E+00 -0.19066077347E+02  0.19066077347E+02  0.00000000000E+00 0. -1.
          1    1    1    2  502    0  0.22905150126E+01 -0.20330043051E+02 -0.21106464889E+01  0.20567254024E+02  0.00000000000E+00 0.  1.
         -1    1    1    2    0  501 -0.22905150126E+01  0.20330043051E+02  0.58146816751E+01  0.21268935856E+02  0.00000000000E+00 0. -1.
</event>
<event>
 4    1  0.6935156E+001  0.2386024E+02  0.7546771E-02  0.1481970E+00
          2   -1    0    0  502    0  0.00000000000E+00  0.00000000000E+00  0.14899349489E+02  0.14899349489E+02  0.00000000000E+00 0.  1.
         -2   -1    0    0    0  501 -0.00000000000E+00 -0.00000000000E+00 -0.48575138456E+02  0.48575138456E+02  0.00000000000E+00 0. -1.
          1    1    1    2  502    0 -0.94097775243E+01 -0.21926403469E+02 -0.21776914577E+01  0.23959411976E+02  0.00000000000E+00 0.  1.
         -1    1    1    2    0  501  0.94097775243E+01  0.21926403469E+02 -0.31498097510E+02  0.39515075969E+02  0.00000000000E+00 0. -1.
</event>
<event>
 4    1  0.6935156E+001  0.2263192E+02  0.7546771E-02  0.1497173E+00
          2   -1    0    0  502    0  0.00000000000E+00  0.00000000000E+00  0.16136455769E+03  0.16136455769E+03  0.00000000000E+00 0.  1.
         -2   -1    0    0    0  501 -0.00000000000E+00 -0.00000000000E+00 -0.13046188186E+02  0.13046188186E+02  0.00000000000E+00 0. -1.
          1    1    1    2  502    0  0.11315702892E+02 -0.19599966017E+02  0.15001758512E+03  0.15171512662E+03  0.00000000000E+00 0.  1.
         -1    1    1    2    0  501 -0.11315702892E+02  0.19599966017E+02 -0.16992156143E+01  0.22695619259E+02  0.00000000000E+00 0. -1.
</event>
<event>
 4    1  0.6935156E+001  0.3789936E+02  0.7546771E-02  0.1361255E+00
          2   -1    0    0  502    0  0.00000000000E+00  0.00000000000E+00  0.70610622336E+03  0.70610622336E+03  0.00000000000E+00 0. -1.
         -2   -1    0    0    0  501 -0.00000000000E+00 -0.00000000000E+00 -0.23162602952E+01  0.23162602952E+01  0.00000000000E+00 0.  1.
          1    1    1    2  502    0  0.21252515356E+02  0.31379799711E+02  0.22828894477E+03  0.23141349040E+03  0.00000000000E+00 0. -1.
         -1    1    1    2    0  501 -0.21252515356E+02 -0.31379799711E+02  0.47550101830E+03  0.47700899325E+03  0.00000000000E+00 0.  1.
</event>
<event>
 4    1  0.6935156E+001  0.2650569E+02  0.7546771E-02  0.1452638E+00
          2   -1    0    0  502    0  0.00000000000E+00  0.00000000000E+00  0.14412975797E+03  0.14412975797E+03  0.00000000000E+00 0. -1.
         -2   -1    0    0    0  501 -0.00000000000E+00 -0.00000000000E+00 -0.55277622312E+01  0.55277622312E+01  0.00000000000E+00 0.  1.
          1    1    1    2  502    0  0.21571625601E+02  0.15401831000E+02  0.43575808649E+02  0.51003946207E+02  0.00000000000E+00 0.  1.
         -1    1    1    2    0  501 -0.21571625601E+02 -0.15401831000E+02  0.95026187093E+02  0.98653573998E+02  0.00000000000E+00 0. -1.
</event>
<event>
 4    1  0.6935156E+001  0.2571179E+02  0.7546771E-02  0.1460996E+00
          2   -1    0    0  502    0  0.00000000000E+00  0.00000000000E+00  0.26313284684E+01  0.26313284684E+01  0.00000000000E+00 0. -1.
         -2   -1    0    0    0  501 -0.00000000000E+00 -0.00000000000E+00 -0.27207910479E+03  0.27207910479E+03  0.00000000000E+00 0.  1.
          1    1    1    2  502    0  0.21196716462E+02 -0.14553197834E+02 -0.17273683880E+03  0.17463994914E+03  0.00000000000E+00 0.  1.
         -1    1    1    2    0  501 -0.21196716462E+02  0.14553197834E+02 -0.96710937520E+02  0.10007048412E+03  0.00000000000E+00 0. -1.
</event>
<event>
 4    1  0.6935156E+001  0.2284902E+02  0.7546771E-02  0.1494403E+00
          2   -1    0    0  502    0  0.00000000000E+00  0.00000000000E+00  0.93294109974E+02  0.93294109974E+02  0.00000000000E+00 0. -1.
         -2   -1    0    0    0  501 -0.00000000000E+00 -0.00000000000E+00 -0.57368710591E+01  0.57368710591E+01  0.00000000000E+00 0.  1.
          1    1    1    2  502    0  0.22600029345E+02  0.33639624826E+01  0.51536673203E+02  0.56374695163E+02  0.00000000000E+00 0. -1.
         -1    1    1    2    0  501 -0.22600029345E+02 -0.33639624826E+01  0.36020565712E+02  0.42656285870E+02  0.00000000000E+00 0.  1.
</event>
<event>
 4    1  0.6935156E+001  0.2693692E+02  0.7546771E-02  0.1448243E+00
          2   -1    0    0  502    0  0.00000000000E+00  0.00000000000E+00  0.79315992839E+02  0.79315992839E+02  0.00000000000E+00 0. -1.
         -2   -1    0    0    0  501 -0.00000000000E+00 -0.00000000000E+00 -0.98109756278E+01  0.98109756278E+01  0.00000000000E+00 0.  1.
          1    1    1    2  502    0  0.26663947773E+02 -0.38251434088E+01  0.23169821287E+02  0.35530809890E+02  0.00000000000E+00 0.  1.
         -1    1    1    2    0  501 -0.26663947773E+02  0.38251434088E+01  0.46335195924E+02  0.53596158577E+02  0.00000000000E+00 0. -1.
</event>
<event>
 4    1  0.6935156E+001  0.2791971E+02  0.7546771E-02  0.1438582E+00
          2   -1    0    0  502    0  0.00000000000E+00  0.00000000000E+00  0.21541061282E+03  0.21541061282E+03  0.00000000000E+00 0. -1.
         -2   -1    0    0    0  501 -0.00000000000E+00 -0.00000000000E+00 -0.69303161728E+01  0.69303161728E+01  0.00000000000E+00 0.  1.
          1    1    1    2  502    0 -0.15289015582E+02  0.23361430382E+02  0.18108798795E+03  0.18322764477E+03  0.00000000000E+00 0. -1.
         -1    1    1    2    0  501  0.15289015582E+02 -0.23361430382E+02  0.27392308688E+02  0.39113284216E+02  0.00000000000E+00 0.  1.
</event>
<event>
 4    1  0.6935156E+001  0.2303292E+02  0.7546771E-02  0.1492085E+00
          2   -1    0    0  502    0  0.00000000000E+00  0.00000000000E+00  0.28642281074E+03  0.28642281074E+03  0.00000000000E+00 0. -1.
         -2   -1    0    0    0  501 -0.00000000000E+00 -0.00000000000E+00 -0.20895097122E+01  0.20895097122E+01  0.00000000000E+00 0.  1.
          1    1    1    2  502    0  0.22749503069E+02  0.36021846796E+01  0.93552869234E+02  0.96346535830E+02  0.00000000000E+00 0. -1.
         -1    1    1    2    0  501 -0.22749503069E+02 -0.36021846796E+01  0.19078043180E+03  0.19216578463E+03  0.00000000000E+00 0.  1.
</event>
<event>
 4    1  0.6935156E+001  0.2017034E+02  0.7546771E-02  0.1531448E+00
          2   -1    0    0  502    0  0.00000000000E+00  0.00000000000E+00  0.22541894434E+01  0.22541894434E+01  0.00000000000E+00 0.  1.
         -2   -1    0    0    0  501 -0.00000000000E+00 -0.00000000000E+00 -0.45772357849E+03  0.45772357849E+03  0.00000000000E+00 0. -1.
          1    1    1    2  502    0 -0.95594198515E+01 -0.17761192817E+02 -0.40672674326E+03  0.40722657841E+03  0.00000000000E+00 0. -1.
         -1    1    1    2    0  501  0.95594198515E+01  0.17761192817E+02 -0.48742645787E+02  0.52751189527E+02  0.00000000000E+00 0.  1.
</event>
<event>
 4    1  0.6935156E+001  0.2268013E+02  0.7546771E-02  0.1496554E+00
          2   -1    0    0  502    0  0.00000000000E+00  0.00000000000E+00  0.61110984083E+03  0.61110984083E+03  0.00000000000E+00 0. -1.
         -2   -1    0    0    0  501 -0.00000000000E+00 -0.00000000000E+00 -0.84379215037E+00  0.84379215037E+00  0.00000000000E+00 0.  1.
          1    1    1    2  502    0 -0.22269234811E+02  0.42976253155E+01  0.32026576667E+03  0.32106782726E+03  0.00000000000E+00 0. -1.
         -1    1    1    2    0  501  0.22269234811E+02 -0.42976253155E+01  0.29000028202E+03  0.29088580572E+03  0.00000000000E+00 0.  1.
</event>
<event>
 4    1  0.6935156E+001  0.2332760E+02  0.7546771E-02  0.1488425E+00
          2   -1    0    0  502    0  0.00000000000E+00  0.00000000000E+00  0.16735447986E+04  0.16735447986E+04  0.00000000000E+00 0. -1.
         -2   -1    0    0    0  501 -0.00000000000E+00 -0.00000000000E+00 -0.92856768247E+00  0.92856768247E+00  0.00000000000E+00 0.  1.
          1    1    1    2  502    0  0.23305380513E+02  0.10178081696E+01  0.15112174069E+04  0.15113974420E+04  0.00000000000E+00 0. -1.
         -1    1    1    2    0  501 -0.23305380513E+02 -0.10178081696E+01  0.16139882408E+03  0.16307592437E+03  0.00000000000E+00 0.  1.
</event>
<event>
 4    1  0.6935156E+001  0.2198291E+02  0.7546771E-02  0.1505681E+00
          2   -1    0    0  502    0  0.00000000000E+00  0.00000000000E+00  0.38566520357E+03  0.38566520357E+03  0.00000000000E+00 0. -1.
         -2   -1    0    0    0  501 -0.00000000000E+00 -0.00000000000E+00 -0.14934830282E+01  0.14934830282E+01  0.00000000000E+00 0.  1.
          1    1    1    2  502    0 -0.15443308021E+02 -0.15644572471E+02  0.26976025502E+03  0.27065447271E+03  0.00000000000E+00 0. -1.
         -1    1    1    2    0  501  0.15443308021E+02  0.15644572471E+02  0.11441146552E+03  0.11650421389E+03  0.00000000000E+00 0.  1.
</event>
<event>
 4    1  0.6935156E+001  0.4601936E+02  0.7546771E-02  0.1316419E+00
          2   -1    0    0  502    0  0.00000000000E+00  0.00000000000E+00  0.11059675489E+03  0.11059675489E+03  0.00000000000E+00 0. -1.
         -2   -1    0    0    0  501 -0.00000000000E+00 -0.00000000000E+00 -0.22049965551E+02  0.22049965551E+02  0.00000000000E+00 0.  1.
          1    1    1    2  502    0  0.46018131030E+02 -0.33698131362E+00  0.20215492592E+02  0.50263784981E+02  0.00000000000E+00 0. -1.
         -1    1    1    2    0  501 -0.46018131030E+02  0.33698131362E+00  0.68331296751E+02  0.82382935463E+02  0.00000000000E+00 0.  1.
</event>
<event>
 4    1  0.6935156E+001  0.2878104E+02  0.7546771E-02  0.1430493E+00
          2   -1    0    0  502    0  0.00000000000E+00  0.00000000000E+00  0.17148865526E+04  0.17148865526E+04  0.00000000000E+00 0. -1.
         -2   -1    0    0    0  501 -0.00000000000E+00 -0.00000000000E+00 -0.10042013880E+01  0.10042013880E+01  0.00000000000E+00 0.  1.
          1    1    1    2  502    0  0.35185602467E+01  0.28565148755E+02  0.23887073701E+03  0.24059837279E+03  0.00000000000E+00 0.  1.
         -1    1    1    2    0  501 -0.35185602467E+01 -0.28565148755E+02  0.14750116142E+04  0.14752923812E+04  0.00000000000E+00 0. -1.
</event>
<event>
 4    1  0.6935156E+001  0.2005145E+02  0.7546771E-02  0.1533251E+00
          2   -1    0    0  502    0  0.00000000000E+00  0.00000000000E+00  0.42473722719E+02  0.42473722719E+02  0.00000000000E+00 0. -1.
         -2   -1    0    0    0  501 -0.00000000000E+00 -0.00000000000E+00 -0.97526838395E+01  0.97526838395E+01  0.00000000000E+00 0.  1.
          1    1    1    2  502    0  0.13507674136E+02  0.14819027615E+02  0.11884231881E+02  0.23308706686E+02  0.00000000000E+00 0.  1.
         -1    1    1    2    0  501 -0.13507674136E+02 -0.14819027615E+02  0.20836806999E+02  0.28917699872E+02  0.00000000000E+00 0. -1.
</event>
<event>
 4    1  0.6935156E+001  0.3152741E+02  0.7546771E-02  0.1406772E+00
          2   -1    0    0  502    0  0.00000000000E+00  0.00000000000E+00  0.46562409506E+02  0.46562409506E+02  0.00000000000E+00 0. -1.
         -2   -1    0    0    0  501 -0.00000000000E+00 -0.00000000000E+00 -0.57121346716E+02  0.57121346716E+02  0.00000000000E+00 0.  1.
          1    1    1    2  502    0  0.30033218290E+02  0.95907997961E+01  0.35747183128E+02  0.47663809575E+02  0.00000000000E+00 0. -1.
         -1    1    1    2    0  501 -0.30033218290E+02 -0.95907997961E+01 -0.46306120338E+02  0.56019946647E+02  0.00000000000E+00 0.  1.
</event>
<event>
 4    1  0.6935156E+001  0.3015176E+02  0.7546771E-02  0.1418282E+00
          2   -1    0    0  502    0  0.00000000000E+00  0.00000000000E+00  0.31368303402E+01  0.31368303402E+01  0.00000000000E+00 0.  1.
         -2   -1    0    0    0  501 -0.00000000000E+00 -0.00000000000E+00 -0.34612926430E+03  0.34612926430E+03  0.00000000000E+00 0. -1.
          1    1    1    2  502    0  0.25613291566E+02 -0.15908742133E+02 -0.10106232383E+03  0.10546431661E+03  0.00000000000E+00 0.  1.
         -1    1    1    2    0  501 -0.25613291566E+02  0.15908742133E+02 -0.24193011013E+03  0.24380177803E+03  0.00000000000E+00 0. -1.
</event>
<event>
 4    1  0.6935156E+001  0.2477466E+02  0.7546771E-02  0.1471340E+00
          2   -1    0    0  502    0  0.00000000000E+00  0.00000000000E+00  0.14421385583E+04  0.14421385583E+04  0.00000000000E+00 0.  1.
         -2   -1    0    0    0  501 -0.00000000000E+00 -0.00000000000E+00 -0.43847159791E+00  0.43847159791E+00  0.00000000000E+00 0. -1.
          1    1    1    2  502    0 -0.18622859726E+02  0.16339301506E+02  0.59729989652E+03  0.59781347430E+03  0.00000000000E+00 0. -1.
         -1    1    1    2    0  501  0.18622859726E+02 -0.16339301506E+02  0.84440019014E+03  0.84476355555E+03  0.00000000000E+00 0.  1.
</event>
<event>
 4    1  0.6935156E+001  0.2456660E+02  0.7546771E-02  0.1473711E+00
          2   -1    0    0  502    0  0.00000000000E+00  0.00000000000E+00  0.37956307960E+03  0.37956307960E+03  0.00000000000E+00 0.  1.
         -2   -1    0    0    0  501 -0.00000000000E+00 -0.00000000000E+00 -0.18629380645E+01  0.18629380645E+01  0.00000000000E+00 0. -1.
          1    1    1    2  502    0 -0.39160716238E+01 -0.24252468210E+02  0.26184402455E+03  0.26299393724E+03  0.00000000000E+00 0.  1.
         -1    1    1    2    0  501  0.39160716238E+01  0.24252468210E+02  0.11585611699E+03  0.11843208043E+03  0.00000000000E+00 0. -1.
</event>
<event>
 4    1  0.6935156E+001  0.2395494E+02  0.7546771E-02  0.1480843E+00
          2   -1    0    0  502    0  0.00000000000E+00  0.00000000000E+00  0.79260924978E+03  0.79260924978E+03  0.00000000000E+00 0.  1.
         -2   -1    0    0    0  501 -0.00000000000E+00 -0.00000000000E+00 -0.11790506309E+01  0.11790506309E+01  0.00000000000E+00 0. -1.
          1    1    1    2  502    0 -0.14581518038E+02  0.19005749177E+02  0.14914278768E+03  0.15105432892E+03  0.00000000000E+00 0. -1.
         -1    1    1    2    0  501  0.14581518038E+02 -0.19005749177E+02  0.64228741147E+03  0.64273397148E+03  0.00000000000E+00 0.  1.
</event>
<event>
 4    1  0.6935156E+001  0.3658754E+02  0.7546771E-02  0.1369733E+00
          2   -1    0    0  502    0  0.00000000000E+00  0.00000000000E+00  0.49626199720E+02  0.49626199720E+02  0.00000000000E+00 0.  1.
         -2   -1    0    0    0  501 -0.00000000000E+00 -0.00000000000E+00 -0.28446985499E+02  0.28446985499E+02  0.00000000000E+00 0. -1.
          1    1    1    2  502    0 -0.28482678129E+02  0.22964869911E+02  0.19470581755E+02  0.41445768871E+02  0.00000000000E+00 0.  1.
         -1    1    1    2    0  501  0.28482678129E+02 -0.22964869911E+02  0.17086324658E+01  0.36627416348E+02  0.00000000000E+00 0. -1.
</event>
<event>
 4    1  0.6935156E+001  0.2137998E+02  0.7546771E-02  0.1513908E+00
          2   -1    0    0  502    0  0.00000000000E+00  0.00000000000E+00  0.17605445776E+03  0.17605445776E+03  0.00000000000E+00 0.  1.
         -2   -1    0    0    0  501 -0.00000000000E+00 -0.00000000000E+00 -0.48649790395E+01  0.48649790395E+01  0.00000000000E+00 0. -1.
          1    1    1    2  502    0  0.10812757339E+02 -0.18444185253E+02  0.23822416434E+02  0.32009548821E+02  0.00000000000E+00 0. -1.
         -1    1    1    2    0  501 -0.10812757339E+02  0.18444185253E+02  0.14736706229E+03  0.14890988798E+03  0.00000000000E+00 0.  1.
</event>
<event>
 4    1  0.6935156E+001  0.2533876E+02  0.7546771E-02  0.1465049E+00
          2   -1    0    0  502    0  0.00000000000E+00  0.00000000000E+00  0.12859435592E+01  0.12859435592E+01  0.00000000000E+00 0. -1.
         -2   -1    0    0    0  501 -0.00000000000E+00 -0.00000000000E+00 -0.51167566219E+03  0.51167566219E+03  0.00000000000E+00 0.  1.
          1    1    1    2  502    0 -0.19697030509E+02 -0.15939878393E+02 -0.29510646821E+03  0.29619230293E+03  0.00000000000E+00 0. -1.
         -1    1    1    2    0  501  0.19697030509E+02  0.15939878393E+02 -0.21528325042E+03  0.21676930282E+03  0.00000000000E+00 0.  1.
</event>
<event>
 4    1  0.6935156E+001  0.4565341E+02  0.7546771E-02  0.1318204E+00
          2   -1    0    0  502    0  0.00000000000E+00  0.00000000000E+00  0.53653677291E+03  0.53653677291E+03  0.00000000000E+00 0.  1.
         -2   -1    0    0    0  501 -0.00000000000E+00 -0.00000000000E+00 -0.51263835987E+01  0.51263835987E+01  0.00000000000E+00 0. -1.
          1    1    1    2  502    0  0.17062286215E+02 -0.42345151503E+02  0.39900079773E+03  0.40160412107E+03  0.00000000000E+00 0.  1.
         -1    1    1    2    0  501 -0.17062286215E+02  0.42345151503E+02  0.13240959157E+03  0.14005903544E+03  0.00000000000E+00 0. -1.
</event>
<event>
 4    1  0.6935156E+001  0.2014840E+02  0.7546771E-02  0.1531779E+00
          2   -1    0    0  502    0  0.00000000000E+00  0.00000000000E+00  0.83248399605E+03  0.83248399605E+03  0.00000000000E+00 0. -1.
         -2   -1    0    0    0  501 -0.00000000000E+00 -0.00000000000E+00 -0.51047979257E+00  0.51047979257E+00  0.00000000000E+00 0.  1.
          1    1    1    2  502    0 -0.86000173293E+01 -0.18220805118E+02  0.50407250301E+03  0.50447502052E+03  0.00000000000E+00 0. -1.
         -1    1    1    2    0  501  0.86000173293E+01  0.18220805118E+02  0.32790101324E+03  0.32851945532E+03  0.00000000000E+00 0.  1.
</event>
<event>
 4    1  0.6935156E+001  0.2131271E+02  0.7546771E-02  0.1514847E+00
          2   -1    0    0  502    0  0.00000000000E+00  0.00000000000E+00  0.90163239209E+01  0.90163239209E+01  0.00000000000E+00 0. -1.
         -2   -1    0    0    0  501 -0.00000000000E+00 -0.00000000000E+00 -0.13984854660E+03  0.13984854660E+03  0.00000000000E+00 0.  1.
          1    1    1    2  502    0  0.12699180325E+02 -0.17116147503E+02 -0.12495096969E+03  0.12675557783E+03  0.00000000000E+00 0.  1.
         -1    1    1    2    0  501 -0.12699180325E+02  0.17116147503E+02 -0.58812529894E+01  0.22109292684E+02  0.00000000000E+00 0. -1.
</event>
<event>
 4    1  0.6935156E+001  0.2241384E+02  0.7546771E-02  0.1499993E+00
          2   -1    0    0  502    0  0.00000000000E+00  0.00000000000E+00  0.34973565057E+02  0.34973565057E+02  0.00000000000E+00 0. -1.
         -2   -1    0    0    0  501 -0.00000000000E+00 -0.00000000000E+00 -0.34586998715E+02  0.34586998715E+02  0.00000000000E+00 0.  1.
          1    1    1    2  502    0  0.22281062009E+02  0.24361110306E+01  0.26787871555E+02  0.34928075006E+02  0.00000000000E+00 0. -1.
         -1    1    1    2    0  501 -0.22281062009E+02 -0.24361110306E+01 -0.26401305213E+02  0.34632488766E+02  0.00000000000E+00 0.  1.
</event>
<event>
 4    1  0.6935156E+001  0.3738556E+02  0.7546771E-02  0.1364527E+00
          2   -1    0    0  502    0  0.00000000000E+00  0.00000000000E+00  0.17163288539E+04  0.17163288539E+04  0.00000000000E+00 0.  1.
         -2   -1    0    0    0  501 -0.00000000000E+00 -0.00000000000E+00 -0.91281296249E+00  0.91281296249E+00  0.00000000000E+00 0. -1.
          1    1    1    2  502    0 -0.32544443569E+01  0.37243642800E+02  0.57569934160E+03  0.57691196231E+03  0.00000000000E+00 0. -1.
         -1    1    1    2    0  501  0.32544443569E+01 -0.37243642800E+02  0.11397166993E+04  0.11403297045E+04  0.00000000000E+00 0.  1.
</event>
<event>
 4    1  0.6935156E+001  0.2867463E+02  0.7546771E-02  0.1431474E+00
          2   -1    0    0  502    0  0.00000000000E+00  0.00000000000E+00  0.30516095826E+03  0.30516095826E+03  0.00000000000E+00 0. -1.
         -2   -1    0    0    0  501 -0.00000000000E+00 -0.00000000000E+00 -0.36626299394E+01  0.36626299394E+01  0.00000000000E+00 0.  1.
          1    1    1    2  502    0  0.10549052220E+02 -0.26663679266E+02  0.71358967939E+02  0.76904724173E+02  0.00000000000E+00 0.  1.
         -1    1    1    2    0  501 -0.10549052220E+02  0.26663679266E+02  0.23013936038E+03  0.23191886403E+03  0.00000000000E+00 0. -1.
</event>
<event>
 4    1  0.6935156E+001  0.2505723E+02  0.7546771E-02  0.1468164E+00
          2   -1    0    0  502    0  0.00000000000E+00  0.00000000000E+00  0.33934485169E+03  0.33934485169E+03  0.00000000000E+00 0. -1.
         -2   -1    0    0    0  501 -0.00000000000E+00 -0.00000000000E+00 -0.19929503716E+01  0.19929503716E+01  0.00000000000E+00 0.  1.
          1    1    1    2  502    0  0.20446537616E+02  0.14484607589E+02  0.21434845402E+03  0.21580807330E+03  0.00000000000E+00 0. -1.
         -1    1    1    2    0  501 -0.20446537616E+02 -0.14484607589E+02  0.12300344729E+03  0.12552972876E+03  0.00000000000E+00 0.  1.
</event>
<event>
 4    1  0.6935156E+001  0.2187769E+02  0.7546771E-02  0.1507093E+00
          2   -1    0    0  502    0  0.00000000000E+00  0.00000000000E+00  0.32039809704E+00  0.32039809704E+00  0.00000000000E+00 0. -1.
         -2   -1    0    0    0  501 -0.00000000000E+00 -0.00000000000E+00 -0.16534010455E+04  0.16534010455E+04  0.00000000000E+00 0.  1.
          1    1    1    2  502    0  0.15357870537E+02  0.15581043993E+02 -0.10833821823E+04  0.10836030574E+04  0.00000000000E+00 0.  1.
         -1    1    1    2    0  501 -0.15357870537E+02 -0.15581043993E+02 -0.56969846510E+03  0.57011838618E+03  0.00000000000E+00 0. -1.
</event>
<event>
 4    1  0.6935156E+001  0.5394860E+02  0.7546771E-02  0.1281904E+00
          2   -1    0    0  502    0  0.00000000000E+00  0.00000000000E+00  0.35818972081E+02  0.35818972081E+02  0.00000000000E+00 0. -1.
         -2   -1    0    0    0  501 -0.00000000000E+00 -0.00000000000E+00 -0.13697088534E+03  0.13697088534E+03  0.00000000000E+00 0.  1.
          1    1    1    2  502    0 -0.45087414828E+02 -0.29623917958E+02  0.45258341937E+01  0.54138107338E+02  0.00000000000E+00 0. -1.
         -1    1    1    2    0  501  0.45087414828E+02  0.29623917958E+02 -0.10567774746E+03  0.11865175009E+03  0.00000000000E+00 0.  1.
</event>
<event>
 4    1  0.6935156E+001  0.2439816E+02  0.7546771E-02  0.1475650E+00
          2   -1    0    0  502    0  0.00000000000E+00  0.00000000000E+00  0.68798366147E+03  0.68798366147E+03  0.00000000000E+00 0.  1.
         -2   -1    0    0    0  501 -0.00000000000E+00 -0.00000000000E+00 -0.12021856067E+01  0.12021856067E+01  0.00000000000E+00 0. -1.
          1    1    1    2  502    0  0.13391593716E+02  0.20394492427E+02  0.16095861344E+03  0.16279725226E+03  0.00000000000E+00 0.  1.
         -1    1    1    2    0  501 -0.13391593716E+02 -0.20394492427E+02  0.52582286243E+03  0.52638859482E+03  0.00000000000E+00 0. -1.
</event>
<event>
 4    1  0.6935156E+001  0.4683489E+02  0.7546771E-02  0.1312511E+00
          2   -1    0    0  502    0  0.00000000000E+00  0.00000000000E+00  0.32997408272E+03  0.32997408272E+03  0.00000000000E+00 0.  1.
         -2   -1    0    0    0  501 -0.00000000000E+00 -0.00000000000E+00 -0.10630906259E+02  0.10630906259E+02  0.00000000000E+00 0. -1.
          1    1    1    2  502    0 -0.33290325635E+02 -0.32943303057E+02  0.55424854082E+02  0.72563223793E+02  0.00000000000E+00 0. -1.
         -1    1    1    2    0  501  0.33290325635E+02  0.32943303057E+02  0.26391832238E+03  0.26804176519E+03  0.00000000000E+00 0.  1.
</event>
<event>
 4    1  0.6935156E+001  0.3190016E+02  0.7546771E-02  0.1403772E+00
          2   -1    0    0  502    0  0.00000000000E+00  0.00000000000E+00  0.57143847663E+02  0.57143847663E+02  0.00000000000E+00 0.  1.
         -2   -1    0    0    0  501 -0.00000000000E+00 -0.00000000000E+00 -0.82451383107E+02  0.82451383107E+02  0.00000000000E+00 0. -1.
          1    1    1    2  502    0  0.60686822466E+01  0.31317587729E+02  0.49148370416E+02  0.58593365836E+02  0.00000000000E+00 0.  1.
         -1    1    1    2    0  501 -0.60686822466E+01 -0.31317587729E+02 -0.74455905860E+02  0.81001864935E+02  0.00000000000E+00 0. -1.
</event>
<event>
 4    1  0.6935156E+001  0.3038159E+02  0.7546771E-02  0.1416309E+00
          2   -1    0    0  502    0  0.00000000000E+00  0.00000000000E+00  0.56431488221E+01  0.56431488221E+01  0.00000000000E+00 0.  1.
         -2   -1    0    0    0  501 -0.00000000000E+00 -0.00000000000E+00 -0.23458665102E+03  0.23458665102E+03  0.00000000000E+00 0. -1.
          1    1    1    2  502    0 -0.25952400451E+02 -0.15796011968E+02 -0.18056088825E+03  0.18309908642E+03  0.00000000000E+00 0.  1.
         -1    1    1    2    0  501  0.25952400451E+02  0.15796011968E+02 -0.48382613944E+02  0.57130713415E+02  0.00000000000E+00 0. -1.
</event>
<event>
 4    1  0.6935156E+001  0.3376203E+02  0.7546771E-02  0.1389482E+00
          2   -1    0    0  502    0  0.00000000000E+00  0.00000000000E+00  0.83427252782E+02  0.83427252782E+02  0.00000000000E+00 0.  1.
         -2   -1    0    0    0  501 -0.00000000000E+00 -0.00000000000E+00 -0.13886574653E+02  0.13886574653E+02  0.00000000000E+00 0. -1.
          1    1    1    2  502    0  0.20091553929E+02 -0.27133080077E+02  0.28597785060E+02  0.44245992859E+02  0.00000000000E+00 0. -1.
         -1    1    1    2    0  501 -0.20091553929E+02  0.27133080077E+02  0.40942893068E+02  0.53067834576E+02  0.00000000000E+00 0.  1.
</event>
<event>
 4    1  0.6935156E+001  0.3375892E+02  0.7546771E-02  0.1389505E+00
          2   -1    0    0  502    0  0.00000000000E+00  0.00000000000E+00  0.29159015387E+03  0.29159015387E+03  0.00000000000E+00 0.  1.
         -2   -1    0    0    0  501 -0.00000000000E+00 -0.00000000000E+00 -0.41568288335E+01  0.41568288335E+01  0.00000000000E+00 0. -1.
          1    1    1    2  502    0 -0.28686427914E+02 -0.17797562765E+02  0.17986347412E+03  0.18300419041E+03  0.00000000000E+00 0.  1.
         -1    1    1    2    0  501  0.28686427914E+02  0.17797562765E+02  0.10756985092E+03  0.11274279229E+03  0.00000000000E+00 0. -1.
</event>
<event>
 4    1  0.6935156E+001  0.2036109E+02  0.7546771E-02  0.1528585E+00
          2   -1    0    0  502    0  0.00000000000E+00  0.00000000000E+00  0.13623631229E+02  0.13623631229E+02  0.00000000000E+00 0.  1.
         -2   -1    0    0    0  501 -0.00000000000E+00 -0.00000000000E+00 -0.47927411486E+02  0.47927411486E+02  0.00000000000E+00 0. -1.
          1    1    1    2  502    0  0.63898700052E+01  0.19332451520E+02  0.14430137513E+01  0.20412163265E+02  0.00000000000E+00 0.  1.
         -1    1    1    2    0  501 -0.63898700052E+01 -0.19332451520E+02 -0.35746794009E+02  0.41138879450E+02  0.00000000000E+00 0. -1.
</event>
<event>
 4    1  0.6935156E+001  0.2135118E+02  0.7546771E-02  0.1514310E+00
          2   -1    0    0  502    0  0.00000000000E+00  0.00000000000E+00  0.22958320059E+04  0.22958320059E+04  0.00000000000E+00 0. -1.
         -2   -1    0    0    0  501 -0.00000000000E+00 -0.00000000000E+00 -0.19857385105E+00  0.19857385105E+00  0.00000000000E+00 0.  1.
          1    1    1    2  502    0  0.14293105062E+02  0.15861268450E+02  0.11553275042E+04  0.11555247789E+04  0.00000000000E+00 0. -1.
         -1    1    1    2    0  501 -0.14293105062E+02 -0.15861268450E+02  0.11403059278E+04  0.11405058008E+04  0.00000000000E+00 0.  1.
</event>
<event>
 4    1  0.6935156E+001  0.2096814E+02  0.7546771E-02  0.1519720E+00
          2   -1    0    0  502    0  0.00000000000E+00  0.00000000000E+00  0.85583761085E+02  0.85583761085E+02  0.00000000000E+00 0. -1.
         -2   -1    0    0    0  501 -0.00000000000E+00 -0.00000000000E+00 -0.51661299406E+01  0.51661299406E+01  0.00000000000E+00 0.  1.
          1    1    1    2  502    0  0.14797536288E+02 -0.14855835676E+02  0.36814684920E+02  0.42367251026E+02  0.00000000000E+00 0. -1.
         -1    1    1    2    0  501 -0.14797536288E+02  0.14855835676E+02  0.43602946225E+02  0.48382639999E+02  0.00000000000E+00 0.  1.
</event>
<event>
 4    1  0.6935156E+001  0.3083549E+02  0.7546771E-02  0.1412472E+00
          2   -1    0    0  502    0  0.00000000000E+00  0.00000000000E+00  0.11687097548E+02  0.11687097548E+02  0.00000000000E+00 0.  1.
         -2   -1    0    0    0  501 -0.00000000000E+00 -0.00000000000E+00 -0.10264740032E+03  0.10264740032E+03  0.00000000000E+00 0. -1.
          1    1    1    2  502    0 -0.30804659118E+02  0.13784888114E+01 -0.71515606717E+02  0.77880095396E+02  0.00000000000E+00 0. -1.
         -1    1    1    2    0  501  0.30804659118E+02 -0.13784888114E+01 -0.19444696052E+02  0.36454402468E+02  0.00000000000E+00 0.  1.
</event>
<event>
 4    1  0.6935156E+001  0.2004488E+02  0.7546771E-02  0.1533351E+00
          2   -1    0    0  502    0  0.00000000000E+00  0.00000000000E+00  0.70513401175E+03  0.70513401175E+03  0.00000000000E+00 0. -1.
         -2   -1    0    0    0  501 -0.00000000000E+00 -0.00000000000E+00 -0.62980170683E+00  0.62980170683E+00  0.00000000000E+00 0.  1.
          1    1    1    2  502    0 -0.66949575144E+01 -0.18893778743E+02  0.46115710681E+03  0.46159254164E+03  0.00000000000E+00 0. -1.
         -1    1    1    2    0  501  0.66949575144E+01  0.18893778743E+02  0.24334710324E+03  0.24417127182E+03  0.00000000000E+00 0.  1.
</event>
<event>
 4    1  0.6935156E+001  0.2238788E+02  0.7546771E-02  0.1500331E+00
          2   -1    0    0  502    0  0.00000000000E+00  0.00000000000E+00  0.15719881296E+03  0.15719881296E+03  0.00000000000E+00 0.  1.
         -2   -1    0    0    0  501 -0.00000000000E+00 -0.00000000000E+00 -0.43260347691E+01  0.43260347691E+01  0.00000000000E+00 0. -1.
          1    1    1    2  502    0  0.20622933498E+02 -0.87127427828E+01  0.35021146292E+02  0.41565586252E+02  0.00000000000E+00 0. -1.
         -1    1    1    2    0  501 -0.20622933498E+02  0.87127427828E+01  0.11785163190E+03  0.11995926147E+03  0.00000000000E+00 0.  1.
</event>
<event>
 4    1  0.6935156E+001  0.6207255E+02  0.7546771E-02  0.1252949E+00
          2   -1    0    0  502    0  0.00000000000E+00  0.00000000000E+00  0.27664960032E+04  0.27664960032E+04  0.00000000000E+00 0. -1.
         -2   -1    0    0    0  501 -0.00000000000E+00 -0.00000000000E+00 -0.15868074124E+01  0.15868074124E+01  0.00000000000E+00 0.  1.
          1    1    1    2  502    0  0.88474000557E+01 -0.61438790700E+02  0.89843095310E+03  0.90057269500E+03  0.00000000000E+00 0.  1.
         -1    1    1    2    0  501 -0.88474000557E+01  0.61438790700E+02  0.18664782426E+04  0.18675101156E+04  0.00000000000E+00 0. -1.
</event>
<event>
 4    1  0.6935156E+001  0.8691226E+02  0.7546771E-02  0.1188650E+00
          2   -1    0    0  502    0  0.00000000000E+00  0.00000000000E+00  0.57265641076E+03  0.57265641076E+03  0.00000000000E+00 0.  1.
         -2   -1    0    0    0  501 -0.00000000000E+00 -0.00000000000E+00 -0.31234557989E+02  0.31234557989E+02  0.00000000000E+00 0. -1.
          1    1    1    2  502    0 -0.86675596469E+02 -0.64095505477E+01  0.50020712998E+03  0.50770159961E+03  0.00000000000E+00 0.  1.
         -1    1    1    2    0  501  0.86675596469E+02  0.64095505477E+01  0.41214722795E+02  0.96189369145E+02  0.00000000000E+00 0. -1.
</event>
<event>
 4    1  0.6935156E+001  0.2939406E+02  0.7546771E-02  0.1424936E+00
          2   -1    0    0  502    0  0.00000000000E+00  0.00000000000E+00  0.73851003233E+03  0.73851003233E+03  0.00000000000E+00 0. -1.
         -2   -1    0    0    0  501 -0.00000000000E+00 -0.00000000000E+00 -0.11710317356E+01  0.11710317356E+01  0.00000000000E+00 0.  1.
          1    1    1    2  502    0  0.79607879839E+01 -0.28295523403E+02  0.35736557154E+03  0.35857239508E+03  0.00000000000E+00 0. -1.
         -1    1    1    2    0  501 -0.79607879839E+01  0.28295523403E+02  0.37997342906E+03  0.38110866899E+03  0.00000000000E+00 0.  1.
</event>
<event>
 4    1  0.6935156E+001  0.2607305E+02  0.7546771E-02  0.1457148E+00
          2   -1    0    0  502    0  0.00000000000E+00  0.00000000000E+00  0.20160619432E+01  0.20160619432E+01  0.00000000000E+00 0. -1.
         -2   -1    0    0    0  501 -0.00000000000E+00 -0.00000000000E+00 -0.35951443023E+03  0.35951443023E+03  0.00000000000E+00 0.  1.
          1    1    1    2  502    0  0.20405428982E+02  0.16230289892E+02 -0.13370810649E+03  0.13622650837E+03  0.00000000000E+00 0. -1.
         -1    1    1    2    0  501 -0.20405428982E+02 -0.16230289892E+02 -0.22379026180E+03  0.22530398380E+03  0.00000000000E+00 0.  1.
</event>
<event>
 4    1  0.6935156E+001  0.2133851E+02  0.7546771E-02  0.1514486E+00
          2   -1    0    0  502    0  0.00000000000E+00  0.00000000000E+00  0.11676185717E+02  0.11676185717E+02  0.00000000000E+00 0. -1.
         -2   -1    0    0    0  501 -0.00000000000E+00 -0.00000000000E+00 -0.82764966264E+02  0.82764966264E+02  0.00000000000E+00 0.  1.
          1    1    1    2  502    0 -0.16622382080E+02  0.13380155758E+02 -0.69883411945E+02  0.73068621304E+02  0.00000000000E+00 0.  1.
         -1    1    1    2    0  501  0.16622382080E+02 -0.13380155758E+02 -0.12053686023E+01  0.21372530678E+02  0.00000000000E+00 0. -1.
</event>
<event>
 4    1  0.6935156E+001  0.2229875E+02  0.7546771E-02  0.1501497E+00
          2   -1    0    0  502    0  0.00000000000E+00  0.00000000000E+00  0.11525947048E+03  0.11525947048E+03  0.00000000000E+00 0.  1.
         -2   -1    0    0    0  501 -0.00000000000E+00 -0.00000000000E+00 -0.43428680782E+01  0.43428680782E+01  0.00000000000E+00 0. -1.
          1    1    1    2  502    0  0.39862399528E+01 -0.21939561518E+02  0.50586423700E+02  0.55283096253E+02  0.00000000000E+00 0. -1.
         -1    1    1    2    0  501 -0.39862399528E+01  0.21939561518E+02  0.60330178706E+02  0.64319242310E+02  0.00000000000E+00 0.  1.
</event>
<event>
 4    1  0.6935156E+001  0.6632466E+02  0.7546771E-02  0.1239736E+00
          2   -1    0    0  502    0  0.00000000000E+00  0.00000000000E+00  0.78654134215E+03  0.78654134215E+03  0.00000000000E+00 0. -1.
         -2   -1    0    0    0  501 -0.00000000000E+00 -0.00000000000E+00 -0.55928784596E+01  0.55928784596E+01  0.00000000000E+00 0.  1.
          1    1    1    2  502    0  0.42472193587E+02 -0.50941856963E+02  0.39205542102E+03  0.39762597145E+03  0.00000000000E+00 0. -1.
         -1    1    1    2    0  501 -0.42472193587E+02  0.50941856963E+02  0.38889304266E+03  0.39450824915E+03  0.00000000000E+00 0.  1.
</event>
<event>
 4    1  0.6935156E+001  0.2103743E+02  0.7546771E-02  0.1518731E+00
          2   -1    0    0  502    0  0.00000000000E+00  0.00000000000E+00  0.25374753485E+02  0.25374753485E+02  0.00000000000E+00 0.  1.
         -2   -1    0    0    0  501 -0.00000000000E+00 -0.00000000000E+00 -0.65819557088E+02  0.65819557088E+02  0.00000000000E+00 0. -1.
          1    1    1    2  502    0 -0.80224877708E+01  0.19447701897E+02  0.18869296932E+02  0.28259932516E+02  0.00000000000E+00 0.  1.
         -1    1    1    2    0  501  0.80224877708E+01 -0.19447701897E+02 -0.59314100535E+02  0.62934378057E+02  0.00000000000E+00 0. -1.
</event>
<event>
 4    1  0.6935156E+001  0.2315900E+02  0.7546771E-02  0.1490511E+00
          2   -1    0    0  502    0  0.00000000000E+00  0.00000000000E+00  0.14524828186E+04  0.14524828186E+04  0.00000000000E+00 0.  1.
         -2   -1    0    0    0  501 -0.00000000000E+00 -0.00000000000E+00 -0.65209717967E+00  0.65209717967E+00  0.00000000000E+00 0. -1.
          1    1    1    2  502    0 -0.15299193367E+02  0.17386029110E+02  0.12044246777E+04  0.12046473109E+04  0.00000000000E+00 0.  1.
         -1    1    1    2    0  501  0.15299193367E+02 -0.17386029110E+02  0.24740604368E+03  0.24848760487E+03  0.00000000000E+00 0. -1.
</event>
<event>
 4    1  0.6935156E+001  0.3165105E+02  0.7546771E-02  0.1405772E+00
          2   -1    0    0  502    0  0.00000000000E+00  0.00000000000E+00  0.35706538558E+03  0.35706538558E+03  0.00000000000E+00 0.  1.
         -2   -1    0    0    0  501 -0.00000000000E+00 -0.00000000000E+00 -0.52898043912E+01  0.52898043912E+01  0.00000000000E+00 0. -1.
          1    1    1    2  502    0  0.42525946820E+01 -0.31364061287E+02  0.30004639292E+03  0.30171116454E+03  0.00000000000E+00 0.  1.
         -1    1    1    2    0  501 -0.42525946820E+01  0.31364061287E+02  0.51729188268E+02  0.60644025434E+02  0.00000000000E+00 0. -1.
</event>
<event>
 4    1  0.6935156E+001  0.3005161E+02  0.7546771E-02  0.1419148E+00
          2   -1    0    0  502    0  0.00000000000E+00  0.00000000000E+00  0.61056318717E+03  0.61056318717E+03  0.00000000000E+00 0.  1.
         -2   -1    0    0    0  501 -0.00000000000E+00 -0.00000000000E+00 -0.14889313062E+01  0.14889313062E+01  0.00000000000E+00 0. -1.
          1    1    1    2  502    0 -0.27416529792E+02  0.12305825064E+02  0.27970191290E+03  0.28131167682E+03  0.00000000000E+00 0. -1.
         -1    1    1    2    0  501  0.27416529792E+02 -0.12305825064E+02  0.32937234296E+03  0.33074044165E+03  0.00000000000E+00 0.  1.
</event>
<event>
 4    1  0.6935156E+001  0.2004642E+02  0.7546771E-02  0.1533327E+00
          2   -1    0    0  502    0  0.00000000000E+00  0.00000000000E+00  0.24616574483E+03  0.24616574483E+03  0.00000000000E+00 0.  1.
         -2   -1    0    0    0  501 -0.00000000000E+00 -0.00000000000E+00 -0.19538694769E+01  0.19538694769E+01  0.00000000000E+00 0. -1.
          1    1    1    2  502    0 -0.16242724140E+02 -0.11748745514E+02  0.71790251636E+02  0.74536563770E+02  0.00000000000E+00 0. -1.
         -1    1    1    2    0  501  0.16242724140E+02  0.11748745514E+02  0.17242162372E+03  0.17358305054E+03  0.00000000000E+00 0.  1.
</event>
<event>
 4    1  0.6935156E+001  0.2706284E+02  0.7546771E-02  0.1446978E+00
          2   -1    0    0  502    0  0.00000000000E+00  0.00000000000E+00  0.11631940747E+04  0.11631940747E+04  0.00000000000E+00 0.  1.
         -2   -1    0    0    0  501 -0.00000000000E+00 -0.00000000000E+00 -0.83811845111E+00  0.83811845111E+00  0.00000000000E+00 0. -1.
          1    1    1    2  502    0 -0.45204129161E+01  0.26682634557E+02  0.87145299230E+03  0.87187310711E+03  0.00000000000E+00 0.  1.
         -1    1    1    2    0  501  0.45204129161E+01 -0.26682634557E+02  0.29090296393E+03  0.29215908602E+03  0.00000000000E+00 0. -1.
</event>
<event>
 4    1  0.6935156E+001  0.2003522E+02  0.7546771E-02  0.1533498E+00
          2   -1    0    0  502    0  0.00000000000E+00  0.00000000000E+00  0.29388877375E+03  0.29388877375E+03  0.00000000000E+00 0. -1.
         -2   -1    0    0    0  501 -0.00000000000E+00 -0.00000000000E+00 -0.16544495095E+01  0.16544495095E+01  0.00000000000E+00 0.  1.
          1    1    1    2  502    0  0.19719237948E+02  0.35442455187E+01  0.84399875735E+02  0.86745311375E+02  0.00000000000E+00 0.  1.
         -1    1    1    2    0  501 -0.19719237948E+02 -0.35442455187E+01  0.20783444850E+03  0.20879791188E+03  0.00000000000E+00 0. -1.
</event>
<event>
 4    1  0.6935156E+001  0.2350542E+02  0.7546771E-02  0.1486247E+00
          2   -1    0    0  502    0  0.00000000000E+00  0.00000000000E+00  0.18925627402E+03  0.18925627402E+03  0.00000000000E+00 0. -1.
         -2   -1    0    0    0  501 -0.00000000000E+00 -0.00000000000E+00 -0.30493674025E+01  0.30493674025E+01  0.00000000000E+00 0.  1.
          1    1    1    2  502    0  0.20747461292E+02  0.11047526427E+02  0.11295803128E+03  0.11537773538E+03  0.00000000000E+00 0. -1.
         -1    1    1    2    0  501 -0.20747461292E+02 -0.11047526427E+02  0.73248875340E+02  0.76927906047E+02  0.00000000000E+00 0.  1.
</event>
<event>
 4    1  0.6935156E+001  0.2393861E+02  0.7546771E-02  0.1481037E+00
          2   -1    0    0  502    0  0.00000000000E+00  0.00000000000E+00  0.25421695019E+03  0.25421695019E+03  0.00000000000E+00 0.  1.
         -2   -1    0    0    0  501 -0.00000000000E+00 -0.00000000000E+00 -0.37176190420E+01  0.37176190420E+01  0.00000000000E+00 0. -1.
          1    1    1    2  502    0 -0.21824256191E+02  0.98365993478E+01  0.20616500934E+03  0.20755015760E+03  0.00000000000E+00 0.  1.
         -1    1    1    2    0  501  0.21824256191E+02 -0.98365993478E+01  0.44334321809E+02  0.50384411629E+02  0.00000000000E+00 0. -1.
</event>
<event>
 4    1  0.6935156E+001  0.2215271E+02  0.7546771E-02  0.1503421E+00
          2   -1    0    0  502    0  0.00000000000E+00  0.00000000000E+00  0.47438513318E+03  0.47438513318E+03  0.00000000000E+00 0. -1.
         -2   -1    0    0    0  501 -0.00000000000E+00 -0.00000000000E+00 -0.85072259812E+01  0.85072259812E+01  0.00000000000E+00 0.  1.
          1    1    1    2  502    0  0.18926495927E+02 -0.11512189209E+02  0.45922950106E+03  0.45976350159E+03  0.00000000000E+00 0. -1.
         -1    1    1    2    0  501 -0.18926495927E+02  0.11512189209E+02  0.66484061390E+01  0.23128857574E+02  0.00000000000E+00 0.  1.
</event>
<event>
 4    1  0.6935156E+001  0.2111369E+02  0.7546771E-02  0.1517648E+00
          2   -1    0    0  502    0  0.00000000000E+00  0.00000000000E+00  0.11423475368E+03  0.11423475368E+03  0.00000000000E+00 0. -1.
         -2   -1    0    0    0  501 -0.00000000000E+00 -0.00000000000E+00 -0.42182251010E+01  0.42182251010E+01  0.00000000000E+00 0.  1.
          1    1    1    2  502    0  0.18849911022E+02  0.95115103213E+01  0.71214600375E+02  0.74278578882E+02  0.00000000000E+00 0. -1.
         -1    1    1    2    0  501 -0.18849911022E+02 -0.95115103213E+01  0.38801928206E+02  0.44174399901E+02  0.00000000000E+00 0.  1.
</event>
<event>
 4    1  0.6935156E+001  0.2654232E+02  0.7546771E-02  0.1452261E+00
          2   -1    0    0  502    0  0.00000000000E+00  0.00000000000E+00  0.46616841586E+03  0.46616841586E+03  0.00000000000E+00 0.  1.
         -2   -1    0    0    0  501 -0.00000000000E+00 -0.00000000000E+00 -0.17786341549E+01  0.17786341549E+01  0.00000000000E+00 0. -1.
          1    1    1    2  502    0  0.16526919841E+02  0.20769100533E+02  0.32291329934E+03  0.32400230479E+03  0.00000000000E+00 0.  1.
         -1    1    1    2    0  501 -0.16526919841E+02 -0.20769100533E+02  0.14147648236E+03  0.14394474522E+03  0.00000000000E+00 0. -1.
</event>
<event>
 4    1  0.6935156E+001  0.6988603E+02  0.7546771E-02  0.1229500E+00
          2   -1    0    0  502    0  0.00000000000E+00  0.00000000000E+00  0.15160695739E+02  0.15160695739E+02  0.00000000000E+00 0. -1.
         -2   -1    0    0    0  501 -0.00000000000E+00 -0.00000000000E+00 -0.32601467422E+03  0.32601467422E+03  0.00000000000E+00 0.  1.
          1    1    1    2  502    0  0.68894771192E+02  0.11728910548E+02 -0.17399400227E+03  0.18750458572E+03  0.00000000000E+00 0.  1.
         -1    1    1    2    0  501 -0.68894771192E+02 -0.11728910548E+02 -0.13685997621E+03  0.15367078424E+03  0.00000000000E+00 0. -1.
</event>
<event>
 4    1  0.6935156E+001  0.3120221E+02  0.7546771E-02  0.1409429E+00
          2   -1    0    0  502    0  0.00000000000E+00  0.00000000000E+00  0.23845343376E+04  0.23845343376E+04  0.00000000000E+00 0. -1.
         -2   -1    0    0    0  501 -0.00000000000E+00 -0.00000000000E+00 -0.53547612543E+00  0.53547612543E+00  0.00000000000E+00 0.  1.
          1    1    1    2  502    0 -0.21886099470E+02  0.22239071696E+02  0.17731968536E+04  0.17734713584E+04  0.00000000000E+00 0. -1.
         -1    1    1    2    0  501  0.21886099470E+02 -0.22239071696E+02  0.61080200788E+03  0.61159845527E+03  0.00000000000E+00 0.  1.
</event>
<event>
 4    1  0.6935156E+001  0.2772774E+02  0.7546771E-02  0.1440432E+00
          2   -1    0    0  502    0  0.00000000000E+00  0.00000000000E+00  0.11034026715E+03  0.11034026715E+03  0.00000000000E+00 0.  1.
         -2   -1    0    0    0  501 -0.00000000000E+00 -0.00000000000E+00 -0.72936891099E+01  0.72936891099E+01  0.00000000000E+00 0. -1.
          1    1    1    2  502    0  0.18348830107E+02 -0.20788165534E+02  0.63956210544E+02  0.69708136252E+02  0.00000000000E+00 0.  1.
         -1    1    1    2    0  501 -0.18348830107E+02  0.20788165534E+02  0.39090367500E+02  0.47925820012E+02  0.00000000000E+00 0. -1.
</event>
<event>
 4    1  0.6935156E+001  0.4724037E+02  0.7546771E-02  0.1310602E+00
          2   -1    0    0  502    0  0.00000000000E+00  0.00000000000E+00  0.16046951603E+04  0.16046951603E+04  0.00000000000E+00 0. -1.
         -2   -1    0    0    0  501 -0.00000000000E+00 -0.00000000000E+00 -0.14581889091E+01  0.14581889091E+01  0.00000000000E+00 0.  1.
          1    1    1    2  502    0  0.34263127073E+02  0.32522155832E+02  0.97438534221E+03  0.97552982917E+03  0.00000000000E+00 0. -1.
         -1    1    1    2    0  501 -0.34263127073E+02 -0.32522155832E+02  0.62885162921E+03  0.63062352007E+03  0.00000000000E+00 0.  1.
</event>
<event>
 4    1  0.6935156E+001  0.2811083E+02  0.7546771E-02  0.1436758E+00
          2   -1    0    0  502    0  0.00000000000E+00  0.00000000000E+00  0.10124423962E+03  0.10124423962E+03  0.00000000000E+00 0.  1.
         -2   -1    0    0    0  501 -0.00000000000E+00 -0.00000000000E+00 -0.93573029657E+01  0.93573029657E+01  0.00000000000E+00 0. -1.
          1    1    1    2  502    0 -0.27557301497E+02  0.55510174182E+01  0.23420070721E+02  0.36588500553E+02  0.00000000000E+00 0. -1.
         -1    1    1    2    0  501  0.27557301497E+02 -0.55510174182E+01  0.68466865928E+02  0.74013042028E+02  0.00000000000E+00 0.  1.
</event>
<event>
 4    1  0.6935156E+001  0.2390709E+02  0.7546771E-02  0.1481411E+00
          2   -1    0    0  502    0  0.00000000000E+00  0.00000000000E+00  0.14784466010E+02  0.14784466010E+02  0.00000000000E+00 0.  1.
         -2   -1    0    0    0  501 -0.00000000000E+00 -0.00000000000E+00 -0.39538072913E+02  0.39538072913E+02  0.00000000000E+00 0. -1.
          1    1    1    2  502    0 -0.19051233515E+02  0.14442980107E+02 -0.83262607735E+01  0.25315524709E+02  0.00000000000E+00 0.  1.
         -1    1    1    2    0  501  0.19051233515E+02 -0.14442980107E+02 -0.16427346129E+02  0.29007014215E+02  0.00000000000E+00 0. -1.
</event>
<event>
 4    1  0.6935156E+001  0.2839097E+02  0.7546771E-02  0.1434115E+00
          2   -1    0    0  502    0  0.00000000000E+00  0.00000000000E+00  0.16546962032E+04  0.16546962032E+04  0.00000000000E+00 0.  1.
         -2   -1    0    0    0  501 -0.00000000000E+00 -0.00000000000E+00 -0.49499846457E+00  0.49499846457E+00  0.00000000000E+00 0. -1.
          1    1    1    2  502    0  0.85110669675E+01 -0.27085216665E+02  0.93146289167E+03  0.93189546934E+03  0.00000000000E+00 0.  1.
         -1    1    1    2    0  501 -0.85110669675E+01  0.27085216665E+02  0.72273831304E+03  0.72329573230E+03  0.00000000000E+00 0. -1.
</event>
<event>
 4    1  0.6935156E+001  0.2016157E+02  0.7546771E-02  0.1531580E+00
          2   -1    0    0  502    0  0.00000000000E+00  0.00000000000E+00  0.20512352505E+03  0.20512352505E+03  0.00000000000E+00 0.  1.
         -2   -1    0    0    0  501 -0.00000000000E+00 -0.00000000000E+00 -0.25460563241E+01  0.25460563241E+01  0.00000000000E+00 0. -1.
          1    1    1    2  502    0  0.16955055791E+02 -0.10909399864E+02  0.15017577841E+03  0.15152311158E+03  0.00000000000E+00 0.  1.
         -1    1    1    2    0  501 -0.16955055791E+02  0.10909399864E+02  0.52401690319E+02  0.56146469795E+02  0.00000000000E+00 0. -1.
</event>
<event>
 4    1  0.6935156E+001  0.2734164E+02  0.7546771E-02  0.1444206E+00
          2   -1    0    0  502    0  0.00000000000E+00  0.00000000000E+00  0.13007809933E+03  0.13007809933E+03  0.00000000000E+00 0. -1.
         -2   -1    0    0    0  501 -0.00000000000E+00 -0.00000000000E+00 -0.64656417867E+01  0.64656417867E+01  0.00000000000E+00 0.  1.
          1    1    1    2  502    0 -0.26658327572E+02  0.60744382150E+01  0.39045960994E+02  0.47667098700E+02  0.00000000000E+00 0.  1.
         -1    1    1    2    0  501  0.26658327572E+02 -0.60744382150E+01  0.84566496550E+02  0.88876642417E+02  0.00000000000E+00 0. -1.
</event>
<event>
 4    1  0.6935156E+001  0.2903315E+02  0.7546771E-02  0.1428188E+00
          2   -1    0    0  502    0  0.00000000000E+00  0.00000000000E+00  0.13722536735E+04  0.13722536735E+04  0.00000000000E+00 0. -1.
         -2   -1    0    0    0  501 -0.00000000000E+00 -0.00000000000E+00 -0.12184696295E+01  0.12184696295E+01  0.00000000000E+00 0.  1.
          1    1    1    2  502    0  0.15738117186E+02  0.24397450987E+02  0.11691055119E+04  0.11694659559E+04  0.00000000000E+00 0. -1.
         -1    1    1    2    0  501 -0.15738117186E+02 -0.24397450987E+02  0.20192969196E+03  0.20400618726E+03  0.00000000000E+00 0.  1.
</event>
<event>
 4    1  0.6935156E+001  0.4465326E+02  0.7546771E-02  0.1323182E+00
          2   -1    0    0  502    0  0.00000000000E+00  0.00000000000E+00  0.36753246866E+04  0.36753246866E+04  0.00000000000E+00 0.  1.
         -2   -1    0    0    0  501 -0.00000000000E+00 -0.00000000000E+00 -0.72201928595E+00  0.72201928595E+00  0.00000000000E+00 0. -1.
          1    1    1    2  502    0 -0.20267894808E+02 -0.39788514342E+02  0.27537661449E+04  0.27541281551E+04  0.00000000000E+00 0.  1.
         -1    1    1    2    0  501  0.20267894808E+02  0.39788514342E+02  0.92083652236E+03  0.92191855082E+03  0.00000000000E+00 0. -1.
</event>
<event>
 4    1  0.6935156E+001  0.4624660E+02  0.7546771E-02  0.1315321E+00
          2   -1    0    0  502    0  0.00000000000E+00  0.00000000000E+00  0.19136338573E+01  0.19136338573E+01  0.00000000000E+00 0. -1.
         -2   -1    0    0    0  501 -0.00000000000E+00 -0.00000000000E+00 -0.11716375307E+04  0.11716375307E+04  0.00000000000E+00 0.  1.
          1    1    1    2  502    0 -0.42662367792E+02 -0.17851347576E+02 -0.71083391834E+03  0.71233672354E+03  0.00000000000E+00 0.  1.
         -1    1    1    2    0  501  0.42662367792E+02  0.17851347576E+02 -0.45888997848E+03  0.46121444100E+03  0.00000000000E+00 0. -1.
</event>
<event>
 4    1  0.6935156E+001  0.2051535E+02  0.7546771E-02  0.1526298E+00
          2   -1    0    0  502    0  0.00000000000E+00  0.00000000000E+00  0.41429711942E+03  0.41429711942E+03  0.00000000000E+00 0. -1.
         -2   -1    0    0    0  501 -0.00000000000E+00 -0.00000000000E+00 -0.10503863720E+01  0.10503863720E+01  0.00000000000E+00 0.  1.
          1    1    1    2  502    0  0.56555264790E+00 -0.20507551663E+02  0.16898718386E+03  0.17022792907E+03  0.00000000000E+00 0.  1.
         -1    1    1    2    0  501 -0.56555264790E+00  0.20507551663E+02  0.24425954919E+03  0.24511957673E+03  0.00000000000E+00 0. -1.
</event>
<event>
 4    1  0.6935156E+001  0.3110143E+02  0.7546771E-02  0.1410260E+00
          2   -1    0    0  502    0  0.00000000000E+00  0.00000000000E+00  0.10139497570E+02  0.10139497570E+02  0.00000000000E+00 0.  1.
         -2   -1    0    0    0  501 -0.00000000000E+00 -0.00000000000E+00 -0.99281045657E+02  0.99281045657E+02  0.00000000000E+00 0. -1.
          1    1    1    2  502    0  0.17110681753E+02  0.25971595487E+02 -0.33752474727E+02  0.45896936198E+02  0.00000000000E+00 0.  1.
         -1    1    1    2    0  501 -0.17110681753E+02 -0.25971595487E+02 -0.55389073360E+02  0.63523607028E+02  0.00000000000E+00 0. -1.
</event>
<event>
 4    1  0.6935156E+001  0.3049762E+02  0.7546771E-02  0.1415321E+00
          2   -1    0    0  502    0  0.00000000000E+00  0.00000000000E+00  0.25243543501E+04  0.25243543501E+04  0.00000000000E+00 0.  1.
         -2   -1    0    0    0  501 -0.00000000000E+00 -0.00000000000E+00 -0.40123394505E+00  0.40123394505E+00  0.00000000000E+00 0. -1.
          1    1    1    2  502    0  0.29453228918E+02 -0.79127724943E+01  0.16228081731E+04  0.16230947204E+04  0.00000000000E+00 0.  1.
         -1    1    1    2    0  501 -0.29453228918E+02  0.79127724943E+01  0.90114494301E+03  0.90166086361E+03  0.00000000000E+00 0. -1.
</event>
<event>
 4    1  0.6935156E+001  0.2681285E+02  0.7546771E-02  0.1449497E+00
          2   -1    0    0  502    0  0.00000000000E+00  0.00000000000E+00  0.99924804995E+00  0.99924804995E+00  0.00000000000E+00 0. -1.
         -2   -1    0    0    0  501 -0.00000000000E+00 -0.00000000000E+00 -0.95975714200E+03  0.95975714200E+03  0.00000000000E+00 0.  1.
          1    1    1    2  502    0 -0.22325620694E+02 -0.14849100507E+02 -0.23901586863E+03  0.24051510260E+03  0.00000000000E+00 0. -1.
         -1    1    1    2    0  501  0.22325620694E+02  0.14849100507E+02 -0.71974202533E+03  0.72024128745E+03  0.00000000000E+00 0.  1.
</event>
<event>
 4    1  0.6935156E+001  0.2731798E+02  0.7546771E-02  0.1444440E+00
          2   -1    0    0  502    0  0.00000000000E+00  0.00000000000E+00  0.47703633392E+03  0.47703633392E+03  0.00000000000E+00 0.  1.
         -2   -1    0    0    0  501 -0.00000000000E+00 -0.00000000000E+00 -0.29531077774E+01  0.29531077774E+01  0.00000000000E+00 0. -1.
          1    1    1    2  502    0  0.16841394193E+02  0.21509058780E+02  0.40161841249E+03  0.40254642145E+03  0.00000000000E+00 0.  1.
         -1    1    1    2    0  501 -0.16841394193E+02 -0.21509058780E+02  0.72464813650E+02  0.77443020249E+02  0.00000000000E+00 0. -1.
</event>
<event>
 4    1  0.6935156E+001  0.2771418E+02  0.7546771E-02  0.1440563E+00
          2   -1    0    0  502    0  0.00000000000E+00  0.00000000000E+00  0.18758613249E+03  0.18758613249E+03  0.00000000000E+00 0.  1.
         -2   -1    0    0    0  501 -0.00000000000E+00 -0.00000000000E+00 -0.85782618985E+01  0.85782618985E+01  0.00000000000E+00 0. -1.
          1    1    1    2  502    0 -0.71158413899E+01  0.26785082712E+02  0.16041445389E+03  0.16279088694E+03  0.00000000000E+00 0.  1.
         -1    1    1    2    0  501  0.71158413899E+01 -0.26785082712E+02  0.18593416699E+02  0.33373507444E+02  0.00000000000E+00 0. -1.
</event>
<event>
 4    1  0.6935156E+001  0.3114475E+02  0.7546771E-02  0.1409903E+00
          2   -1    0    0  502    0  0.00000000000E+00  0.00000000000E+00  0.26939881957E+04  0.26939881957E+04  0.00000000000E+00 0. -1.
         -2   -1    0    0    0  501 -0.00000000000E+00 -0.00000000000E+00 -0.57161261775E+00  0.57161261775E+00  0.00000000000E+00 0.  1.
          1    1    1    2  502    0  0.89591722863E+01  0.29828318845E+02  0.21663365037E+04  0.21665603713E+04  0.00000000000E+00 0. -1.
         -1    1    1    2    0  501 -0.89591722863E+01 -0.29828318845E+02  0.52708007935E+03  0.52799943695E+03  0.00000000000E+00 0.  1.
</event>
<event>
 4    1  0.6935156E+001  0.3839363E+02  0.7546771E-02  0.1358165E+00
          2   -1    0    0  502    0  0.00000000000E+00  0.00000000000E+00  0.17987363869E+04  0.17987363869E+04  0.00000000000E+00 0. -1.
         -2   -1    0    0    0  501 -0.00000000000E+00 -0.00000000000E+00 -0.13730379721E+01  0.13730379721E+01  0.00000000000E+00 0.  1.
          1    1    1    2  502    0  0.27451651956E+02  0.26841716476E+02  0.14701602247E+04  0.14706614693E+04  0.00000000000E+00 0. -1.
         -1    1    1    2    0  501 -0.27451651956E+02 -0.26841716476E+02  0.32720312422E+03  0.32944795558E+03  0.00000000000E+00 0.  1.
</event>
<event>
 4    1  0.6935156E+001  0.3393730E+02  0.7546771E-02  0.1388192E+00
          2   -1    0    0  502    0  0.00000000000E+00  0.00000000000E+00  0.29371041382E+04  0.29371041382E+04  0.00000000000E+00 0.  1.
         -2   -1    0    0    0  501 -0.00000000000E+00 -0.00000000000E+00 -0.57941485927E+00  0.57941485927E+00  0.00000000000E+00 0. -1.
          1    1    1    2  502    0  0.28121075117E+02  0.18998558685E+02  0.23033387917E+04  0.23035887935E+04  0.00000000000E+00 0.  1.
         -1    1    1    2    0  501 -0.28121075117E+02 -0.18998558685E+02  0.63318593166E+03  0.63409475959E+03  0.00000000000E+00 0. -1.
</event>
<event>
 4    1  0.6935156E+001  0.3504159E+02  0.7546771E-02  0.1380271E+00
          2   -1    0    0  502    0  0.00000000000E+00  0.00000000000E+00  0.44985045143E+03  0.44985045143E+03  0.00000000000E+00 0. -1.
         -2   -1    0    0    0  501 -0.00000000000E+00 -0.00000000000E+00 -0.30161891766E+01  0.30161891766E+01  0.00000000000E+00 0.  1.
          1    1    1    2  502    0 -0.28735851322E+02  0.20054029466E+02  0.29321440895E+03  0.29530086837E+03  0.00000000000E+00 0. -1.
         -1    1    1    2    0  501  0.28735851322E+02 -0.20054029466E+02  0.15361985331E+03  0.15756577224E+03  0.00000000000E+00 0.  1.
</event>
<event>
 4    1  0.6935156E+001  0.4052724E+02  0.7546771E-02  0.1345424E+00
          2   -1    0    0  502    0  0.00000000000E+00  0.00000000000E+00  0.17650266514E+04  0.17650266514E+04  0.00000000000E+00 0.  1.
         -2   -1    0    0    0  501 -0.00000000000E+00 -0.00000000000E+00 -0.95033820112E+00  0.95033820112E+00  0.00000000000E+00 0. -1.
          1    1    1    2  502    0 -0.86708802542E+01 -0.39588802520E+02  0.10094310256E+04  0.10102442541E+04  0.00000000000E+00 0.  1.
         -1    1    1    2    0  501  0.86708802542E+01  0.39588802520E+02  0.75464528758E+03  0.75573273551E+03  0.00000000000E+00 0. -1.
</event>
<event>
 4    1  0.6935156E+001  0.2134734E+02  0.7546771E-02  0.1514363E+00
          2   -1    0    0  502    0  0.00000000000E+00  0.00000000000E+00  0.13147338667E+04  0.13147338667E+04  0.00000000000E+00 0. -1.
         -2   -1    0    0    0  501 -0.00000000000E+00 -0.00000000000E+00 -0.14721078044E+01  0.14721078044E+01  0.00000000000E+00 0.  1.
          1    1    1    2  502    0 -0.15627679991E+02  0.14542511727E+02  0.81197511737E+02  0.83956804021E+02  0.00000000000E+00 0.  1.
         -1    1    1    2    0  501  0.15627679991E+02 -0.14542511727E+02  0.12320642471E+04  0.12322491705E+04  0.00000000000E+00 0. -1.
</event>
<event>
 4    1  0.6935156E+001  0.2988877E+02  0.7546771E-02  0.1420566E+00
          2   -1    0    0  502    0  0.00000000000E+00  0.00000000000E+00  0.94170516692E+03  0.94170516692E+03  0.00000000000E+00 0. -1.
         -2   -1    0    0    0  501 -0.00000000000E+00 -0.00000000000E+00 -0.11025924749E+01  0.11025924749E+01  0.00000000000E+00 0.  1.
          1    1    1    2  502    0 -0.29887466901E+02 -0.27935736750E+00  0.29415248933E+03  0.29566708592E+03  0.00000000000E+00 0.  1.
         -1    1    1    2    0  501  0.29887466901E+02  0.27935736750E+00  0.64645008512E+03  0.64714067348E+03  0.00000000000E+00 0. -1.
</event>
<event>
 4    1  0.6935156E+001  0.2224712E+02  0.7546771E-02  0.1502175E+00
          2   -1    0    0  502    0  0.00000000000E+00  0.00000000000E+00  0.40252005626E+03  0.40252005626E+03  0.00000000000E+00 0. -1.
         -2   -1    0    0    0  501 -0.00000000000E+00 -0.00000000000E+00 -0.19416674190E+01  0.19416674190E+01  0.00000000000E+00 0.  1.
          1    1    1    2  502    0 -0.80464904671E+01  0.20740978455E+02  0.77820820581E+02  0.80938336479E+02  0.00000000000E+00 0.  1.
         -1    1    1    2    0  501  0.80464904671E+01 -0.20740978455E+02  0.32275756826E+03  0.32352338720E+03  0.00000000000E+00 0. -1.
</event>
<event>
 4    1  0.6935156E+001  0.2257475E+02  0.7546771E-02  0.1497908E+00
          2   -1    0    0  502    0  0.00000000000E+00  0.00000000000E+00  0.32412343760E+03  0.32412343760E+03  0.00000000000E+00 0. -1.
         -2   -1    0    0    0  501 -0.00000000000E+00 -0.00000000000E+00 -0.15737807233E+01  0.15737807233E+01  0.00000000000E+00 0.  1.
          1    1    1    2  502    0 -0.21166095261E+02  0.78495842795E+01  0.15628113682E+03  0.15790317694E+03  0.00000000000E+00 0. -1.
         -1    1    1    2    0  501  0.21166095261E+02 -0.78495842795E+01  0.16626852005E+03  0.16779404138E+03  0.00000000000E+00 0.  1.
</event>
<event>
 4    1  0.6935156E+001  0.3219330E+02  0.7546771E-02  0.1401447E+00
          2   -1    0    0  502    0  0.00000000000E+00  0.00000000000E+00  0.27493219588E+02  0.27493219588E+02  0.00000000000E+00 0.  1.
         -2   -1    0    0    0  501 -0.00000000000E+00 -0.00000000000E+00 -0.94270753047E+02  0.94270753047E+02  0.00000000000E+00 0. -1.
          1    1    1    2  502    0  0.23776638533E+02 -0.21704378947E+02  0.13774977985E+02  0.35016547858E+02  0.00000000000E+00 0.  1.
         -1    1    1    2    0  501 -0.23776638533E+02  0.21704378947E+02 -0.80552511444E+02  0.86747424776E+02  0.00000000000E+00 0. -1.
</event>
<event>
 4    1  0.6935156E+001  0.2114255E+02  0.7546771E-02  0.1517239E+00
          2   -1    0    0  502    0  0.00000000000E+00  0.00000000000E+00  0.19659578820E+02  0.19659578820E+02  0.00000000000E+00 0. -1.
         -2   -1    0    0    0  501 -0.00000000000E+00 -0.00000000000E+00 -0.24495597194E+02  0.24495597194E+02  0.00000000000E+00 0.  1.
          1    1    1    2  502    0 -0.12486021479E+02  0.17061849520E+02 -0.83328501428E+01  0.22725400611E+02  0.00000000000E+00 0. -1.
         -1    1    1    2    0  501  0.12486021479E+02 -0.17061849520E+02  0.34968317691E+01  0.21429775403E+02  0.00000000000E+00 0.  1.
</event>
<event>
 4    1  0.6935156E+001  0.2046687E+02  0.7546771E-02  0.1527014E+00
          2   -1    0    0  502    0  0.00000000000E+00  0.00000000000E+00  0.30055222357E+01  0.30055222357E+01  0.00000000000E+00 0. -1.
         -2   -1    0    0    0  501 -0.00000000000E+00 -0.00000000000E+00 -0.13937909394E+03  0.13937909394E+03  0.00000000000E+00 0.  1.
          1    1    1    2  502    0  0.18492373144E+02  0.87706770936E+01 -0.68603098122E+02  0.71591044922E+02  0.00000000000E+00 0. -1.
         -1    1    1    2    0  501 -0.18492373144E+02 -0.87706770936E+01 -0.67770473584E+02  0.70793571255E+02  0.00000000000E+00 0.  1.
</event>
<event>
 4    1  0.6935156E+001  0.2889739E+02  0.7546771E-02  0.1429426E+00
          2   -1    0    0  502    0  0.00000000000E+00  0.00000000000E+00  0.41618458036E+03  0.41618458036E+03  0.00000000000E+00 0.  1.
         -2   -1    0    0    0  501 -0.00000000000E+00 -0.00000000000E+00 -0.27953054710E+01  0.27953054710E+01  0.00000000000E+00 0. -1.
          1    1    1    2  502    0 -0.26210545368E+02 -0.12168260158E+02  0.95407877846E+02  0.99688125666E+02  0.00000000000E+00 0. -1.
         -1    1    1    2    0  501  0.26210545368E+02  0.12168260158E+02  0.31798139704E+03  0.31929176016E+03  0.00000000000E+00 0.  1.
</event>
<event>
 4    1  0.6935156E+001  0.3558261E+02  0.7546771E-02  0.1376513E+00
          2   -1    0    0  502    0  0.00000000000E+00  0.00000000000E+00  0.16734249115E+04  0.16734249115E+04  0.00000000000E+00 0.  1.
         -2   -1    0    0    0  501 -0.00000000000E+00 -0.00000000000E+00 -0.11140307555E+01  0.11140307555E+01  0.00000000000E+00 0. -1.
          1    1    1    2  502    0 -0.25409448339E+02  0.24909474037E+02  0.36190310703E+03  0.36364815528E+03  0.00000000000E+00 0. -1.
         -1    1    1    2    0  501  0.25409448339E+02 -0.24909474037E+02  0.13104077737E+04  0.13108907870E+04  0.00000000000E+00 0.  1.
</event>
<event>
 4    1  0.6935156E+001  0.3798762E+02  0.7546771E-02  0.1360700E+00
          2   -1    0    0  502    0  0.00000000000E+00  0.00000000000E+00  0.44873652246E+03  0.44873652246E+03  0.00000000000E+00 0.  1.
         -2   -1    0    0    0  501 -0.00000000000E+00 -0.00000000000E+00 -0.37763384683E+01  0.37763384683E+01  0.00000000000E+00 0. -1.
          1    1    1    2  502    0  0.47946690921E+01 -0.37683823827E+02  0.30964815120E+03  0.31196960906E+03  0.00000000000E+00 0. -1.
         -1    1    1    2    0  501 -0.47946690921E+01  0.37683823827E+02  0.13531203278E+03  0.14054325187E+03  0.00000000000E+00 0.  1.
</event>
<event>
 4    1  0.6935156E+001  0.2918904E+02  0.7546771E-02  0.1426777E+00
          2   -1    0    0  502    0  0.00000000000E+00  0.00000000000E+00  0.36967708911E+03  0.36967708911E+03  0.00000000000E+00 0.  1.
         -2   -1    0    0    0  501 -0.00000000000E+00 -0.00000000000E+00 -0.23268578009E+01  0.23268578009E+01  0.00000000000E+00 0. -1.
          1    1    1    2  502    0  0.62800787182E+01 -0.28505448732E+02  0.20182015144E+03  0.20392001746E+03  0.00000000000E+00 0.  1.
         -1    1    1    2    0  501 -0.62800787182E+01  0.28505448732E+02  0.16553007988E+03  0.16808392945E+03  0.00000000000E+00 0. -1.
</event>
<event>
 4    1  0.6935156E+001  0.2354745E+02  0.7546771E-02  0.1485736E+00
          2   -1    0    0  502    0  0.00000000000E+00  0.00000000000E+00  0.78879344374E+03  0.78879344374E+03  0.00000000000E+00 0. -1.
         -2   -1    0    0    0  501 -0.00000000000E+00 -0.00000000000E+00 -0.95203280109E+00  0.95203280109E+00  0.00000000000E+00 0.  1.
          1    1    1    2  502    0 -0.52319115955E+01 -0.22958868510E+02  0.19194326934E+03  0.19338226699E+03  0.00000000000E+00 0.  1.
         -1    1    1    2    0  501  0.52319115955E+01  0.22958868510E+02  0.59589814160E+03  0.59636320955E+03  0.00000000000E+00 0. -1.
</event>
<event>
 4    1  0.6935156E+001  0.2475067E+02  0.7546771E-02  0.1471612E+00
          2   -1    0    0  502    0  0.00000000000E+00  0.00000000000E+00  0.83485339973E+02  0.83485339973E+02  0.00000000000E+00 0.  1.
         -2   -1    0    0    0  501 -0.00000000000E+00 -0.00000000000E+00 -0.84776571229E+01  0.84776571229E+01  0.00000000000E+00 0. -1.
          1    1    1    2  502    0  0.22868266064E+02 -0.94677297129E+01  0.20643057073E+02  0.32229354694E+02  0.00000000000E+00 0. -1.
         -1    1    1    2    0  501 -0.22868266064E+02  0.94677297129E+01  0.54364625777E+02  0.59733642401E+02  0.00000000000E+00 0.  1.
</event>
<event>
 4    1  0.6935156E+001  0.3749001E+02  0.7546771E-02  0.1363857E+00
          2   -1    0    0  502    0  0.00000000000E+00  0.00000000000E+00  0.12182139101E+03  0.12182139101E+03  0.00000000000E+00 0.  1.
         -2   -1    0    0    0  501 -0.00000000000E+00 -0.00000000000E+00 -0.24305254225E+02  0.24305254225E+02  0.00000000000E+00 0. -1.
          1    1    1    2  502    0  0.20139486954E+02 -0.31621230655E+02  0.10171324554E+03  0.10840242378E+03  0.00000000000E+00 0.  1.
         -1    1    1    2    0  501 -0.20139486954E+02  0.31621230655E+02 -0.41971087497E+01  0.37724221460E+02  0.00000000000E+00 0. -1.
</event>
<event>
 4    1  0.6935156E+001  0.2488508E+02  0.7546771E-02  0.1470093E+00
          2   -1    0    0  502    0  0.00000000000E+00  0.00000000000E+00  0.50664636699E+02  0.50664636699E+02  0.00000000000E+00 0. -1.
         -2   -1    0    0    0  501 -0.00000000000E+00 -0.00000000000E+00 -0.27411290851E+02  0.27411290851E+02  0.00000000000E+00 0.  1.
          1    1    1    2  502    0 -0.13375026113E+02  0.20985138195E+02  0.40685541533E+02  0.47692563764E+02  0.00000000000E+00 0. -1.
         -1    1    1    2    0  501  0.13375026113E+02 -0.20985138195E+02 -0.17432195685E+02  0.30383363786E+02  0.00000000000E+00 0.  1.
</event>
<event>
 4    1  0.6935156E+001  0.2349142E+02  0.7546771E-02  0.1486418E+00
          2   -1    0    0  502    0  0.00000000000E+00  0.00000000000E+00  0.18045896514E+03  0.18045896514E+03  0.00000000000E+00 0.  1.
         -2   -1    0    0    0  501 -0.00000000000E+00 -0.00000000000E+00 -0.16627736500E+02  0.16627736500E+02  0.00000000000E+00 0. -1.
          1    1    1    2  502    0  0.22724493922E+02 -0.59535215566E+01 -0.71061409960E+01  0.24542703249E+02  0.00000000000E+00 0. -1.
         -1    1    1    2    0  501 -0.22724493922E+02  0.59535215566E+01  0.17093736964E+03  0.17254399839E+03  0.00000000000E+00 0.  1.
</event>
<event>
 4    1  0.6935156E+001  0.2882645E+02  0.7546771E-02  0.1430076E+00
          2   -1    0    0  502    0  0.00000000000E+00  0.00000000000E+00  0.94973266722E+03  0.94973266722E+03  0.00000000000E+00 0.  1.
         -2   -1    0    0    0  501 -0.00000000000E+00 -0.00000000000E+00 -0.10756536393E+01  0.10756536393E+01  0.00000000000E+00 0. -1.
          1    1    1    2  502    0  0.23128510139E+02 -0.17205706672E+02  0.26897163265E+03  0.27051192856E+03  0.00000000000E+00 0. -1.
         -1    1    1    2    0  501 -0.23128510139E+02  0.17205706672E+02  0.67968538093E+03  0.68029639229E+03  0.00000000000E+00 0.  1.
</event>
<event>
 4    1  0.6935156E+001  0.3702081E+02  0.7546771E-02  0.1366887E+00
          2   -1    0    0  502    0  0.00000000000E+00  0.00000000000E+00  0.63385643962E+03  0.63385643962E+03  0.00000000000E+00 0. -1.
         -2   -1    0    0    0  501 -0.00000000000E+00 -0.00000000000E+00 -0.30477070912E+01  0.30477070912E+01  0.00000000000E+00 0.  1.
          1    1    1    2  502    0 -0.34479496648E+02 -0.13479779581E+02  0.14375294835E+03  0.14844342459E+03  0.00000000000E+00 0.  1.
         -1    1    1    2    0  501  0.34479496648E+02  0.13479779581E+02  0.48705578418E+03  0.48846072211E+03  0.00000000000E+00 0. -1.
</event>
<event>
 4    1  0.6935156E+001  0.2052666E+02  0.7546771E-02  0.1526131E+00
          2   -1    0    0  502    0  0.00000000000E+00  0.00000000000E+00  0.17510305401E+03  0.17510305401E+03  0.00000000000E+00 0. -1.
         -2   -1    0    0    0  501 -0.00000000000E+00 -0.00000000000E+00 -0.11207721661E+02  0.11207721661E+02  0.00000000000E+00 0.  1.
          1    1    1    2  502    0  0.17433423783E+02 -0.10836024083E+02  0.16449949165E+03  0.16577522865E+03  0.00000000000E+00 0. -1.
         -1    1    1    2    0  501 -0.17433423783E+02  0.10836024083E+02 -0.60415930264E+00  0.20535547015E+02  0.00000000000E+00 0.  1.
</event>
<event>
 4    1  0.6935156E+001  0.2728722E+02  0.7546771E-02  0.1444744E+00
          2   -1    0    0  502    0  0.00000000000E+00  0.00000000000E+00  0.88200902305E+02  0.88200902305E+02  0.00000000000E+00 0.  1.
         -2   -1    0    0    0  501 -0.00000000000E+00 -0.00000000000E+00 -0.96371122375E+01  0.96371122375E+01  0.00000000000E+00 0. -1.
          1    1    1    2  502    0 -0.23993501075E+02  0.12996321549E+02  0.22054976672E+02  0.35085815704E+02  0.00000000000E+00 0. -1.
         -1    1    1    2    0  501  0.23993501075E+02 -0.12996321549E+02  0.56508813396E+02  0.62752198838E+02  0.00000000000E+00 0.  1.
</event>
<event>
 4    1  0.6935156E+001  0.2068483E+02  0.7546771E-02  0.1523813E+00
          2   -1    0    0  502    0  0.00000000000E+00  0.00000000000E+00  0.26840878393E+03  0.26840878393E+03  0.00000000000E+00 0.  1.
         -2   -1    0    0    0  501 -0.00000000000E+00 -0.00000000000E+00 -0.17532907118E+01  0.17532907118E+01  0.00000000000E+00 0. -1.
          1    1    1    2  502    0 -0.20626895770E+02 -0.15470960496E+01  0.17403459509E+03  0.17525952933E+03  0.00000000000E+00 0.  1.
         -1    1    1    2    0  501  0.20626895770E+02  0.15470960496E+01  0.92620898135E+02  0.94902545312E+02  0.00000000000E+00 0. -1.
</event>
<event>
 4    1  0.6935156E+001  0.2624457E+02  0.7546771E-02  0.1455348E+00
          2   -1    0    0  502    0  0.00000000000E+00  0.00000000000E+00  0.10777580962E+04  0.10777580962E+04  0.00000000000E+00 0.  1.
         -2   -1    0    0    0  501 -0.00000000000E+00 -0.00000000000E+00 -0.66404676570E+00  0.66404676570E+00  0.00000000000E+00 0. -1.
          1    1    1    2  502    0 -0.11243438270E+02  0.23714187564E+02  0.64309333676E+03  0.64362863312E+03  0.00000000000E+00 0. -1.
         -1    1    1    2    0  501  0.11243438270E+02 -0.23714187564E+02  0.43400071268E+03  0.43479350984E+03  0.00000000000E+00 0.  1.
</event>
<event>
 4    1  0.6935156E+001  0.3018960E+02  0.7546771E-02  0.1417956E+00
          2   -1    0    0  502    0  0.00000000000E+00  0.00000000000E+00  0.60030659549E+02  0.60030659549E+02  0.00000000000E+00 0. -1.
         -2   -1    0    0    0  501 -0.00000000000E+00 -0.00000000000E+00 -0.17513532703E+02  0.17513532703E+02  0.00000000000E+00 0.  1.
          1    1    1    2  502    0  0.29671792955E+02  0.55674797210E+01  0.71132752086E+01  0.31016299131E+02  0.00000000000E+00 0.  1.
         -1    1    1    2    0  501 -0.29671792955E+02 -0.55674797210E+01  0.35403851637E+02  0.46527893122E+02  0.00000000000E+00 0. -1.
</event>
<event>
 4    1  0.6935156E+001  0.2791487E+02  0.7546771E-02  0.1438628E+00
          2   -1    0    0  502    0  0.00000000000E+00  0.00000000000E+00  0.42724817607E+03  0.42724817607E+03  0.00000000000E+00 0.  1.
         -2   -1    0    0    0  501 -0.00000000000E+00 -0.00000000000E+00 -0.47552644459E+01  0.47552644459E+01  0.00000000000E+00 0. -1.
          1    1    1    2  502    0  0.19966713158E+02 -0.19508206821E+02  0.38083945998E+03  0.38186114498E+03  0.00000000000E+00 0.  1.
         -1    1    1    2    0  501 -0.19966713158E+02  0.19508206821E+02  0.41653451644E+02  0.50142295536E+02  0.00000000000E+00 0. -1.
</event>
<event>
 4    1  0.6935156E+001  0.4170619E+02  0.7546771E-02  0.1338768E+00
          2   -1    0    0  502    0  0.00000000000E+00  0.00000000000E+00  0.37746271558E+03  0.37746271558E+03  0.00000000000E+00 0. -1.
         -2   -1    0    0    0  501 -0.00000000000E+00 -0.00000000000E+00 -0.74765303169E+01  0.74765303169E+01  0.00000000000E+00 0.  1.
          1    1    1    2  502    0  0.41679106122E+02 -0.15026900228E+01  0.30420792215E+03  0.30705352280E+03  0.00000000000E+00 0. -1.
         -1    1    1    2    0  501 -0.41679106122E+02  0.15026900228E+01  0.65778263120E+02  0.77885723105E+02  0.00000000000E+00 0.  1.
</event>
<event>
 4    1  0.6935156E+001  0.2064566E+02  0.7546771E-02  0.1524385E+00
          2   -1    0    0  502    0  0.00000000000E+00  0.00000000000E+00  0.13649692981E+03  0.13649692981E+03  0.00000000000E+00 0. -1.
         -2   -1    0    0    0  501 -0.00000000000E+00 -0.00000000000E+00 -0.32180372766E+01  0.32180372766E+01  0.00000000000E+00 0.  1.
          1    1    1    2  502    0  0.13628707790E+02 -0.15508114802E+02  0.54617455961E+02  0.58389295221E+02  0.00000000000E+00 0.  1.
         -1    1    1    2    0  501 -0.13628707790E+02  0.15508114802E+02  0.78661436571E+02  0.81325671864E+02  0.00000000000E+00 0. -1.
</event>
<event>
 4    1  0.6935156E+001  0.2387140E+02  0.7546771E-02  0.1481837E+00
          2   -1    0    0  502    0  0.00000000000E+00  0.00000000000E+00  0.53992280081E+02  0.53992280081E+02  0.00000000000E+00 0. -1.
         -2   -1    0    0    0  501 -0.00000000000E+00 -0.00000000000E+00 -0.36247030867E+02  0.36247030867E+02  0.00000000000E+00 0.  1.
          1    1    1    2  502    0  0.22649849030E+02  0.75384407519E+01 -0.29114443997E+02  0.37649629471E+02  0.00000000000E+00 0.  1.
         -1    1    1    2    0  501 -0.22649849030E+02 -0.75384407519E+01  0.46859693211E+02  0.52589681477E+02  0.00000000000E+00 0. -1.
</event>
<event>
 4    1  0.6935156E+001  0.2063275E+02  0.7546771E-02  0.1524573E+00
          2   -1    0    0  502    0  0.00000000000E+00  0.00000000000E+00  0.13811531346E+03  0.13811531346E+03  0.00000000000E+00 0.  1.
         -2   -1    0    0    0  501 -0.00000000000E+00 -0.00000000000E+00 -0.41361814219E+01  0.41361814219E+01  0.00000000000E+00 0. -1.
          1    1    1    2  502    0 -0.17418735414E+02 -0.11058838199E+02  0.31086892971E+02  0.37310925482E+02  0.00000000000E+00 0. -1.
         -1    1    1    2    0  501  0.17418735414E+02  0.11058838199E+02  0.10289223907E+03  0.10494056940E+03  0.00000000000E+00 0.  1.
</event>
<event>
 4    1  0.6935156E+001  0.3238773E+02  0.7546771E-02  0.1399921E+00
          2   -1    0    0  502    0  0.00000000000E+00  0.00000000000E+00  0.88922671470E+03  0.88922671470E+03  0.00000000000E+00 0.  1.
         -2   -1    0    0    0  501 -0.00000000000E+00 -0.00000000000E+00 -0.16740638814E+01  0.16740638814E+01  0.00000000000E+00 0. -1.
          1    1    1    2  502    0  0.17071272144E+02  0.27523390554E+02  0.68585919445E+03  0.68662347759E+03  0.00000000000E+00 0.  1.
         -1    1    1    2    0  501 -0.17071272144E+02 -0.27523390554E+02  0.20169345637E+03  0.20427730100E+03  0.00000000000E+00 0. -1.
</event>
<event>
 4    1  0.6935156E+001  0.4232046E+02  0.7546771E-02  0.1335399E+00
          2   -1    0    0  502    0  0.00000000000E+00  0.00000000000E+00  0.37180694580E+03  0.37180694580E+03  0.00000000000E+00 0.  1.
         -2   -1    0    0    0  501 -0.00000000000E+00 -0.00000000000E+00 -0.71173923885E+01  0.71173923885E+01  0.00000000000E+00 0. -1.
          1    1    1    2  502    0  0.39644374289E+02 -0.14810305453E+02  0.74634775992E+02  0.85798434413E+02  0.00000000000E+00 0. -1.
         -1    1    1    2    0  501 -0.39644374289E+02  0.14810305453E+02  0.29005477742E+03  0.29312590377E+03  0.00000000000E+00 0.  1.
</event>
<event>
 4    1  0.6935156E+001  0.2954157E+02  0.7546771E-02  0.1423623E+00
          2   -1    0    0  502    0  0.00000000000E+00  0.00000000000E+00  0.43873411741E+03  0.43873411741E+03  0.00000000000E+00 0.  1.
         -2   -1    0    0    0  501 -0.00000000000E+00 -0.00000000000E+00 -0.20319015073E+01  0.20319015073E+01  0.00000000000E+00 0. -1.
          1    1    1    2  502    0  0.91762537936E+01  0.28080253749E+02  0.18638092214E+03  0.18870758443E+03  0.00000000000E+00 0. -1.
         -1    1    1    2    0  501 -0.91762537936E+01 -0.28080253749E+02  0.25032129377E+03  0.25205843449E+03  0.00000000000E+00 0.  1.
</event>
<event>
 4    1  0.6935156E+001  0.2590321E+02  0.7546771E-02  0.1458948E+00
          2   -1    0    0  502    0  0.00000000000E+00  0.00000000000E+00  0.67456431511E+03  0.67456431511E+03  0.00000000000E+00 0.  1.
         -2   -1    0    0    0  501 -0.00000000000E+00 -0.00000000000E+00 -0.99516179707E+00  0.99516179707E+00  0.00000000000E+00 0. -1.
          1    1    1    2  502    0 -0.16793682909E+02  0.19721776947E+02  0.34420949558E+03  0.34518278219E+03  0.00000000000E+00 0.  1.
         -1    1    1    2    0  501  0.16793682909E+02 -0.19721776947E+02  0.32935965774E+03  0.33037669472E+03  0.00000000000E+00 0. -1.
</event>
<event>
 4    1  0.6935156E+001  0.3108599E+02  0.7546771E-02  0.1410388E+00
          2   -1    0    0  502    0  0.00000000000E+00  0.00000000000E+00  0.23845784286E+04  0.23845784286E+04  0.00000000000E+00 0.  1.
         -2   -1    0    0    0  501 -0.00000000000E+00 -0.00000000000E+00 -0.13464384030E+01  0.13464384030E+01  0.00000000000E+00 0. -1.
          1    1    1    2  502    0  0.14992293279E+01  0.31049817064E+02  0.21890241780E+04  0.21892448906E+04  0.00000000000E+00 0.  1.
         -1    1    1    2    0  501 -0.14992293279E+01 -0.31049817064E+02  0.19420781218E+03  0.19667997646E+03  0.00000000000E+00 0. -1.
</event>
<event>
 4    1  0.6935156E+001  0.2143246E+02  0.7546771E-02  0.1513179E+00
          2   -1    0    0  502    0  0.00000000000E+00  0.00000000000E+00  0.15305777734E+03  0.15305777734E+03  0.00000000000E+00 0.  1.
         -2   -1    0    0    0  501 -0.00000000000E+00 -0.00000000000E+00 -0.40686848313E+01  0.40686848313E+01  0.00000000000E+00 0. -1.
          1    1    1    2  502    0  0.79141577268E+01 -0.19917742800E+02  0.34252321720E+02  0.40405097624E+02  0.00000000000E+00 0. -1.
         -1    1    1    2    0  501 -0.79141577268E+01  0.19917742800E+02  0.11473677079E+03  0.11672136455E+03  0.00000000000E+00 0.  1.
</event>
<event>
 4    1  0.6935156E+001  0.2019710E+02  0.7546771E-02  0.1531044E+00
          2   -1    0    0  502    0  0.00000000000E+00  0.00000000000E+00  0.39775005212E+03  0.39775005212E+03  0.00000000000E+00 0.  1.
         -2   -1    0    0    0  501 -0.00000000000E+00 -0.00000000000E+00 -0.10672905874E+01  0.10672905874E+01  0.00000000000E+00 0. -1.
          1    1    1    2  502    0 -0.18168088040E+02 -0.88228991659E+01  0.15891873002E+03  0.16019702159E+03  0.00000000000E+00 0. -1.
         -1    1    1    2    0  501  0.18168088040E+02  0.88228991659E+01  0.23776403151E+03  0.23862032112E+03  0.00000000000E+00 0.  1.
</event>
<event>
 4    1  0.6935156E+001  0.2837220E+02  0.7546771E-02  0.1434291E+00
          2   -1    0    0  502    0  0.00000000000E+00  0.00000000000E+00  0.21770965010E+03  0.21770965010E+03  0.00000000000E+00 0.  1.
         -2   -1    0    0    0  501 -0.00000000000E+00 -0.00000000000E+00 -0.53199024847E+01  0.53199024847E+01  0.00000000000E+00 0. -1.
          1    1    1    2  502    0 -0.27736143803E+02  0.59739540144E+01  0.44612041844E+02  0.52869803074E+02  0.00000000000E+00 0.  1.
         -1    1    1    2    0  501  0.27736143803E+02 -0.59739540144E+01  0.16777770577E+03  0.17015974951E+03  0.00000000000E+00 0. -1.
</event>
<event>
 4    1  0.6935156E+001  0.2049116E+02  0.7546771E-02  0.1526655E+00
          2   -1    0    0  502    0  0.00000000000E+00  0.00000000000E+00  0.15724442382E+04  0.15724442382E+04  0.00000000000E+00 0. -1.
         -2   -1    0    0    0  501 -0.00000000000E+00 -0.00000000000E+00 -0.36754888370E+00  0.36754888370E+00  0.00000000000E+00 0.  1.
          1    1    1    2  502    0  0.19152587440E+02 -0.72846309475E+01  0.11972981226E+04  0.11974734577E+04  0.00000000000E+00 0. -1.
         -1    1    1    2    0  501 -0.19152587440E+02  0.72846309475E+01  0.37477856672E+03  0.37533832941E+03  0.00000000000E+00 0.  1.
</event>
<event>
 4    1  0.6935156E+001  0.3891301E+02  0.7546771E-02  0.1354976E+00
          2   -1    0    0  502    0  0.00000000000E+00  0.00000000000E+00  0.17733357652E+04  0.17733357652E+04  0.00000000000E+00 0. -1.
         -2   -1    0    0    0  501 -0.00000000000E+00 -0.00000000000E+00 -0.10200797888E+01  0.10200797888E+01  0.00000000000E+00 0.  1.
          1    1    1    2  502    0 -0.13529631928E+02  0.36485226216E+02  0.52805816477E+03  0.52948998862E+03  0.00000000000E+00 0.  1.
         -1    1    1    2    0  501  0.13529631928E+02 -0.36485226216E+02  0.12442575206E+04  0.12448658563E+04  0.00000000000E+00 0. -1.
</event>
<event>
 4    1  0.6935156E+001  0.2652530E+02  0.7546771E-02  0.1452436E+00
          2   -1    0    0  502    0  0.00000000000E+00  0.00000000000E+00  0.65390283897E+03  0.65390283897E+03  0.00000000000E+00 0.  1.
         -2   -1    0    0    0  501 -0.00000000000E+00 -0.00000000000E+00 -0.10764463857E+01  0.10764463857E+01  0.00000000000E+00 0. -1.
          1    1    1    2  502    0  0.26485592091E+02 -0.14509197886E+01  0.33316949876E+03  0.33422373743E+03  0.00000000000E+00 0. -1.
         -1    1    1    2    0  501 -0.26485592091E+02  0.14509197886E+01  0.31965689382E+03  0.32075554792E+03  0.00000000000E+00 0.  1.
</event>
<event>
 4    1  0.6935156E+001  0.2612008E+02  0.7546771E-02  0.1456653E+00
          2   -1    0    0  502    0  0.00000000000E+00  0.00000000000E+00  0.13801100429E+03  0.13801100429E+03  0.00000000000E+00 0. -1.
         -2   -1    0    0    0  501 -0.00000000000E+00 -0.00000000000E+00 -0.33623398438E+02  0.33623398438E+02  0.00000000000E+00 0.  1.
          1    1    1    2  502    0  0.24103917506E+02 -0.10062799583E+02 -0.27064044478E+02  0.37612780781E+02  0.00000000000E+00 0.  1.
         -1    1    1    2    0  501 -0.24103917506E+02  0.10062799583E+02  0.13145165033E+03  0.13402162195E+03  0.00000000000E+00 0. -1.
</event>
<event>
 4    1  0.6935156E+001  0.3527955E+02  0.7546771E-02  0.1378608E+00
          2   -1    0    0  502    0  0.00000000000E+00  0.00000000000E+00  0.25135771966E+03  0.25135771966E+03  0.00000000000E+00 0.  1.
         -2   -1    0    0    0  501 -0.00000000000E+00 -0.00000000000E+00 -0.11779411641E+02  0.11779411641E+02  0.00000000000E+00 0. -1.
          1    1    1    2  502    0 -0.28832317422E+02 -0.20330866881E+02  0.19621363038E+02  0.40368856356E+02  0.00000000000E+00 0. -1.
         -1    1    1    2    0  501  0.28832317422E+02  0.20330866881E+02  0.21995694498E+03  0.22276827494E+03  0.00000000000E+00 0.  1.
</event>
<event>
 4    1  0.6935156E+001  0.2188132E+02  0.7546771E-02  0.1507044E+00
          2   -1    0    0  502    0  0.00000000000E+00  0.00000000000E+00  0.26532443188E+03  0.26532443188E+03  0.00000000000E+00 0.  1.
         -2   -1    0    0    0  501 -0.00000000000E+00 -0.00000000000E+00 -0.34027250830E+01  0.34027250830E+01  0.00000000000E+00 0. -1.
          1    1    1    2  502    0 -0.78680086250E+01 -0.20417804840E+02  0.22304391268E+03  0.22411465659E+03  0.00000000000E+00 0.  1.
         -1    1    1    2    0  501  0.78680086250E+01  0.20417804840E+02  0.38877794111E+02  0.44612500369E+02  0.00000000000E+00 0. -1.
</event>
<event>
 4    1  0.6935156E+001  0.2149951E+02  0.7546771E-02  0.1512251E+00
          2   -1    0    0  502    0  0.00000000000E+00  0.00000000000E+00  0.41845843944E+03  0.41845843944E+03  0.00000000000E+00 0.  1.
         -2   -1    0    0    0  501 -0.00000000000E+00 -0.00000000000E+00 -0.12779527968E+01  0.12779527968E+01  0.00000000000E+00 0. -1.
          1    1    1    2  502    0  0.21473775976E+02  0.10515301773E+01  0.28588604617E+03  0.28669332075E+03  0.00000000000E+00 0.  1.
         -1    1    1    2    0  501 -0.21473775976E+02 -0.10515301773E+01  0.13129444048E+03  0.13304307149E+03  0.00000000000E+00 0. -1.
</event>
<event>
 4    1  0.6935156E+001  0.2510472E+02  0.7546771E-02  0.1467635E+00
          2   -1    0    0  502    0  0.00000000000E+00  0.00000000000E+00  0.12330899532E+04  0.12330899532E+04  0.00000000000E+00 0.  1.
         -2   -1    0    0    0  501 -0.00000000000E+00 -0.00000000000E+00 -0.51243643691E+00  0.51243643691E+00  0.00000000000E+00 0. -1.
          1    1    1    2  502    0  0.79849773409E+01  0.23800993696E+02  0.58493218298E+03  0.58547067036E+03  0.00000000000E+00 0. -1.
         -1    1    1    2    0  501 -0.79849773409E+01 -0.23800993696E+02  0.64764533383E+03  0.64813171932E+03  0.00000000000E+00 0.  1.
</event>
<event>
 4    1  0.6935156E+001  0.4036837E+02  0.7546771E-02  0.1346341E+00
          2   -1    0    0  502    0  0.00000000000E+00  0.00000000000E+00  0.96721485502E+02  0.96721485502E+02  0.00000000000E+00 0.  1.
         -2   -1    0    0    0  501 -0.00000000000E+00 -0.00000000000E+00 -0.16943462345E+02  0.16943462345E+02  0.00000000000E+00 0. -1.
          1    1    1    2  502    0 -0.30227005443E+02 -0.26756930838E+02  0.44145295025E+02  0.59819831819E+02  0.00000000000E+00 0. -1.
         -1    1    1    2    0  501  0.30227005443E+02  0.26756930838E+02  0.35632728132E+02  0.53845116028E+02  0.00000000000E+00 0.  1.
</event>
<event>
 4    1  0.6935156E+001  0.2997828E+02  0.7546771E-02  0.1419785E+00
          2   -1    0    0  502    0  0.00000000000E+00  0.00000000000E+00  0.13753680588E+03  0.13753680588E+03  0.00000000000E+00 0. -1.
         -2   -1    0    0    0  501 -0.00000000000E+00 -0.00000000000E+00 -0.71192841722E+01  0.71192841722E+01  0.00000000000E+00 0.  1.
          1    1    1    2  502    0 -0.12670797707E+02 -0.27168878863E+02  0.44474589498E+02  0.53634748104E+02  0.00000000000E+00 0.  1.
         -1    1    1    2    0  501  0.12670797707E+02  0.27168878863E+02  0.85942932205E+02  0.91021341944E+02  0.00000000000E+00 0. -1.
</event>
<event>
 4    1  0.6935156E+001  0.2123563E+02  0.7546771E-02  0.1515927E+00
          2   -1    0    0  502    0  0.00000000000E+00  0.00000000000E+00  0.10283226198E+04  0.10283226198E+04  0.00000000000E+00 0. -1.
         -2   -1    0    0    0  501 -0.00000000000E+00 -0.00000000000E+00 -0.69987894844E+00  0.69987894844E+00  0.00000000000E+00 0.  1.
          1    1    1    2  502    0 -0.92794607351E-01  0.21235423809E+02  0.19940411289E+03  0.20053167349E+03  0.00000000000E+00 0.  1.
         -1    1    1    2    0  501  0.92794607351E-01 -0.21235423809E+02  0.82821862801E+03  0.82849082530E+03  0.00000000000E+00 0. -1.
</event>
<event>
 4    1  0.6935156E+001  0.2331235E+02  0.7546771E-02  0.1488613E+00
          2   -1    0    0  502    0  0.00000000000E+00  0.00000000000E+00  0.52193656723E+03  0.52193656723E+03  0.00000000000E+00 0.  1.
         -2   -1    0    0    0  501 -0.00000000000E+00 -0.00000000000E+00 -0.10936131045E+01  0.10936131045E+01  0.00000000000E+00 0. -1.
          1    1    1    2  502    0 -0.19890718828E+02  0.12158333664E+02  0.31764610512E+03  0.31850041424E+03  0.00000000000E+00 0.  1.
         -1    1    1    2    0  501  0.19890718828E+02 -0.12158333664E+02  0.20319684901E+03  0.20452976610E+03  0.00000000000E+00 0. -1.
</event>
<event>
 4    1  0.6935156E+001  0.2002364E+02  0.7546771E-02  0.1533675E+00
          2   -1    0    0  502    0  0.00000000000E+00  0.00000000000E+00  0.80988488491E+03  0.80988488491E+03  0.00000000000E+00 0. -1.
         -2   -1    0    0    0  501 -0.00000000000E+00 -0.00000000000E+00 -0.51265451061E+00  0.51265451061E+00  0.00000000000E+00 0.  1.
          1    1    1    2  502    0  0.18128465442E+02 -0.85032353878E+01  0.47974002036E+03  0.48015771722E+03  0.00000000000E+00 0.  1.
         -1    1    1    2    0  501 -0.18128465442E+02  0.85032353878E+01  0.32963221004E+03  0.33023982220E+03  0.00000000000E+00 0. -1.
</event>
<event>
 4    1  0.6935156E+001  0.3980501E+02  0.7546771E-02  0.1349632E+00
          2   -1    0    0  502    0  0.00000000000E+00  0.00000000000E+00  0.16563495672E+03  0.16563495672E+03  0.00000000000E+00 0. -1.
         -2   -1    0    0    0  501 -0.00000000000E+00 -0.00000000000E+00 -0.99550984186E+01  0.99550984186E+01  0.00000000000E+00 0.  1.
          1    1    1    2  502    0 -0.32988243657E+02 -0.22275871706E+02  0.95200426190E+02  0.10318701385E+03  0.00000000000E+00 0. -1.
         -1    1    1    2    0  501  0.32988243657E+02  0.22275871706E+02  0.60479432114E+02  0.72403041294E+02  0.00000000000E+00 0.  1.
</event>
<event>
 4    1  0.6935156E+001  0.2234651E+02  0.7546771E-02  0.1500871E+00
          2   -1    0    0  502    0  0.00000000000E+00  0.00000000000E+00  0.23538272344E+02  0.23538272344E+02  0.00000000000E+00 0. -1.
         -2   -1    0    0    0  501 -0.00000000000E+00 -0.00000000000E+00 -0.41069741194E+02  0.41069741194E+02  0.00000000000E+00 0.  1.
          1    1    1    2  502    0 -0.20242331629E+02  0.94665033618E+01 -0.31226600048E+02  0.38398791989E+02  0.00000000000E+00 0.  1.
         -1    1    1    2    0  501  0.20242331629E+02 -0.94665033618E+01  0.13695131197E+02  0.26209221549E+02  0.00000000000E+00 0. -1.
</event>
<event>
 4    1  0.6935156E+001  0.2256118E+02  0.7546771E-02  0.1498083E+00
          2   -1    0    0  502    0  0.00000000000E+00  0.00000000000E+00  0.48831219492E+03  0.48831219492E+03  0.00000000000E+00 0.  1.
         -2   -1    0    0    0  501 -0.00000000000E+00 -0.00000000000E+00 -0.12455199932E+01  0.12455199932E+01  0.00000000000E+00 0. -1.
          1    1    1    2  502    0 -0.13002292663E+02  0.18437663142E+02  0.14467896252E+03  0.14642748796E+03  0.00000000000E+00 0. -1.
         -1    1    1    2    0  501  0.13002292663E+02 -0.18437663142E+02  0.34238771241E+03  0.34313022695E+03  0.00000000000E+00 0.  1.
</event>
<event>
 4    1  0.6935156E+001  0.2581412E+02  0.7546771E-02  0.1459898E+00
          2   -1    0    0  502    0  0.00000000000E+00  0.00000000000E+00  0.58286223810E+02  0.58286223810E+02  0.00000000000E+00 0. -1.
         -2   -1    0    0    0  501 -0.00000000000E+00 -0.00000000000E+00 -0.15330824944E+02  0.15330824944E+02  0.00000000000E+00 0.  1.
          1    1    1    2  502    0 -0.25630972936E+02 -0.30695293053E+01  0.40038369209E+02  0.47638637604E+02  0.00000000000E+00 0. -1.
         -1    1    1    2    0  501  0.25630972936E+02  0.30695293053E+01  0.29170296567E+01  0.25978411149E+02  0.00000000000E+00 0.  1.
</event>
<event>
 4    1  0.6935156E+001  0.2337214E+02  0.7546771E-02  0.1487877E+00
          2   -1    0    0  502    0  0.00000000000E+00  0.00000000000E+00  0.41361546554E+02  0.41361546554E+02  0.00000000000E+00 0. -1.
         -2   -1    0    0    0  501 -0.00000000000E+00 -0.00000000000E+00 -0.13622217298E+02  0.13622217298E+02  0.00000000000E+00 0.  1.
          1    1    1    2  502    0 -0.16124025126E+02 -0.16919600519E+02  0.90692367719E+01  0.25070064292E+02  0.00000000000E+00 0. -1.
         -1    1    1    2    0  501  0.16124025126E+02  0.16919600519E+02  0.18670092484E+02  0.29913699560E+02  0.00000000000E+00 0.  1.
</event>
<event>
 4    1  0.6935156E+001  0.7760392E+02  0.7546771E-02  0.1209522E+00
          2   -1    0    0  502    0  0.00000000000E+00  0.00000000000E+00  0.18312197260E+04  0.18312197260E+04  0.00000000000E+00 0.  1.
         -2   -1    0    0    0  501 -0.00000000000E+00 -0.00000000000E+00 -0.33840715145E+01  0.33840715145E+01  0.00000000000E+00 0. -1.
          1    1    1    2  502    0 -0.38925089480E+02 -0.67135721952E+02  0.10678955162E+04  0.10707115397E+04  0.00000000000E+00 0. -1.
         -1    1    1    2    0  501  0.38925089480E+02  0.67135721952E+02  0.75994013835E+03  0.76389225787E+03  0.00000000000E+00 0.  1.
</event>
<event>
 4    1  0.6935156E+001  0.6170026E+02  0.7546771E-02  0.1254163E+00
          2   -1    0    0  502    0  0.00000000000E+00  0.00000000000E+00  0.60579687981E+03  0.60579687981E+03  0.00000000000E+00 0.  1.
         -2   -1    0    0    0  501 -0.00000000000E+00 -0.00000000000E+00 -0.84173925204E+01  0.84173925204E+01  0.00000000000E+00 0. -1.
          1    1    1    2  502    0  0.49077750640E+01 -0.61504758626E+02  0.14408574986E+03  0.15674062939E+03  0.00000000000E+00 0. -1.
         -1    1    1    2    0  501 -0.49077750640E+01  0.61504758626E+02  0.45329373743E+03  0.45747364293E+03  0.00000000000E+00 0.  1.
</event>
<event>
 4    1  0.6935156E+001  0.2041713E+02  0.7546771E-02  0.1527752E+00
          2   -1    0    0  502    0  0.00000000000E+00  0.00000000000E+00  0.79789722623E+03  0.79789722623E+03  0.00000000000E+00 0. -1.
         -2   -1    0    0    0  501 -0.00000000000E+00 -0.00000000000E+00 -0.64818624031E+00  0.64818624031E+00  0.00000000000E+00 0.  1.
          1    1    1    2  502    0 -0.16384840247E+02  0.12181790127E+02  0.57447969803E+03  0.57484239793E+03  0.00000000000E+00 0. -1.
         -1    1    1    2    0  501  0.16384840247E+02 -0.12181790127E+02  0.22276934195E+03  0.22370301454E+03  0.00000000000E+00 0.  1.
</event>
<event>
 4    1  0.6935156E+001  0.2294958E+02  0.7546771E-02  0.1493132E+00
          2   -1    0    0  502    0  0.00000000000E+00  0.00000000000E+00  0.86449934711E+03  0.86449934711E+03  0.00000000000E+00 0. -1.
         -2   -1    0    0    0  501 -0.00000000000E+00 -0.00000000000E+00 -0.80298663534E+00  0.80298663534E+00  0.00000000000E+00 0.  1.
          1    1    1    2  502    0 -0.12645312663E+02 -0.19151486680E+02  0.64437133817E+03  0.64477988867E+03  0.00000000000E+00 0. -1.
         -1    1    1    2    0  501  0.12645312663E+02  0.19151486680E+02  0.21932502230E+03  0.22052244508E+03  0.00000000000E+00 0.  1.
</event>
<event>
 4    1  0.6935156E+001  0.4444415E+02  0.7546771E-02  0.1324242E+00
          2   -1    0    0  502    0  0.00000000000E+00  0.00000000000E+00  0.25944012986E+02  0.25944012986E+02  0.00000000000E+00 0. -1.
         -2   -1    0    0    0  501 -0.00000000000E+00 -0.00000000000E+00 -0.16307838339E+03  0.16307838339E+03  0.00000000000E+00 0.  1.
          1    1    1    2  502    0  0.42099182286E+02  0.14245737661E+02  0.44090240428E+00  0.44446333770E+02  0.00000000000E+00 0. -1.
         -1    1    1    2    0  501 -0.42099182286E+02 -0.14245737661E+02 -0.13757527280E+03  0.14457606260E+03  0.00000000000E+00 0.  1.
</event>
<event>
 4    1  0.6935156E+001  0.3719599E+02  0.7546771E-02  0.1365750E+00
          2   -1    0    0  502    0  0.00000000000E+00  0.00000000000E+00  0.16233368643E+04  0.16233368643E+04  0.00000000000E+00 0. -1.
         -2   -1    0    0    0  501 -0.00000000000E+00 -0.00000000000E+00 -0.91903418746E+00  0.91903418746E+00  0.00000000000E+00 0.  1.
          1    1    1    2  502    0  0.30674603832E+02 -0.21038309130E+02  0.10300805120E+04  0.10307518629E+04  0.00000000000E+00 0.  1.
         -1    1    1    2    0  501 -0.30674603832E+02  0.21038309130E+02  0.59233731811E+03  0.59350403553E+03  0.00000000000E+00 0. -1.
</event>
<event>
 4    1  0.6935156E+001  0.7136520E+02  0.7546771E-02  0.1225450E+00
          2   -1    0    0  502    0  0.00000000000E+00  0.00000000000E+00  0.27144928330E+02  0.27144928330E+02  0.00000000000E+00 0. -1.
         -2   -1    0    0    0  501 -0.00000000000E+00 -0.00000000000E+00 -0.19471122268E+03  0.19471122268E+03  0.00000000000E+00 0.  1.
          1    1    1    2  502    0 -0.64834315953E+02  0.29824531391E+02 -0.10494916418E+03  0.12691461011E+03  0.00000000000E+00 0.  1.
         -1    1    1    2    0  501  0.64834315953E+02 -0.29824531391E+02 -0.62617130173E+02  0.94941540902E+02  0.00000000000E+00 0. -1.
</event>
<event>
 4    1  0.6935156E+001  0.2395335E+02  0.7546771E-02  0.1480862E+00
          2   -1    0    0  502    0  0.00000000000E+00  0.00000000000E+00  0.84351926836E+03  0.84351926836E+03  0.00000000000E+00 0.  1.
         -2   -1    0    0    0  501 -0.00000000000E+00 -0.00000000000E+00 -0.71582926009E+00  0.71582926009E+00  0.00000000000E+00 0. -1.
          1    1    1    2  502    0  0.61273099896E+01  0.23156402479E+02  0.32722920673E+03  0.32810473426E+03  0.00000000000E+00 0. -1.
         -1    1    1    2    0  501 -0.61273099896E+01 -0.23156402479E+02  0.51557423237E+03  0.51613036336E+03  0.00000000000E+00 0.  1.
</event>
<event>
 4    1  0.6935156E+001  0.3302705E+02  0.7546771E-02  0.1394991E+00
          2   -1    0    0  502    0  0.00000000000E+00  0.00000000000E+00  0.55248214710E+03  0.55248214710E+03  0.00000000000E+00 0.  1.
         -2   -1    0    0    0  501 -0.00000000000E+00 -0.00000000000E+00 -0.35183603597E+01  0.35183603597E+01  0.00000000000E+00 0. -1.
          1    1    1    2  502    0 -0.81611244814E+01  0.32002849467E+02  0.90319110536E+02  0.96168227886E+02  0.00000000000E+00 0. -1.
         -1    1    1    2    0  501  0.81611244814E+01 -0.32002849467E+02  0.45864467620E+03  0.45983227957E+03  0.00000000000E+00 0.  1.
</event>
<event>
 4    1  0.6935156E+001  0.2042782E+02  0.7546771E-02  0.1527593E+00
          2   -1    0    0  502    0  0.00000000000E+00  0.00000000000E+00  0.13307995390E+03  0.13307995390E+03  0.00000000000E+00 0. -1.
         -2   -1    0    0    0  501 -0.00000000000E+00 -0.00000000000E+00 -0.34082244334E+01  0.34082244334E+01  0.00000000000E+00 0.  1.
          1    1    1    2  502    0 -0.19685000197E+02 -0.54586367284E+01  0.84134243110E+02  0.86578674114E+02  0.00000000000E+00 0.  1.
         -1    1    1    2    0  501  0.19685000197E+02  0.54586367284E+01  0.45537486353E+02  0.49909504215E+02  0.00000000000E+00 0. -1.
</event>
<event>
 4    1  0.6935156E+001  0.2029332E+02  0.7546771E-02  0.1529598E+00
          2   -1    0    0  502    0  0.00000000000E+00  0.00000000000E+00  0.28178615774E+04  0.28178615774E+04  0.00000000000E+00 0. -1.
         -2   -1    0    0    0  501 -0.00000000000E+00 -0.00000000000E+00 -0.14668989914E+00  0.14668989914E+00  0.00000000000E+00 0.  1.
          1    1    1    2  502    0  0.20153954046E+02 -0.23742551212E+01  0.13230536794E+04  0.13232093022E+04  0.00000000000E+00 0. -1.
         -1    1    1    2    0  501 -0.20153954046E+02  0.23742551212E+01  0.14946612081E+04  0.14947989651E+04  0.00000000000E+00 0.  1.
</event>
<event>
 4    1  0.6935156E+001  0.3020680E+02  0.7546771E-02  0.1417808E+00
          2   -1    0    0  502    0  0.00000000000E+00  0.00000000000E+00  0.88806650496E+03  0.88806650496E+03  0.00000000000E+00 0. -1.
         -2   -1    0    0    0  501 -0.00000000000E+00 -0.00000000000E+00 -0.10468510058E+01  0.10468510058E+01  0.00000000000E+00 0.  1.
          1    1    1    2  502    0  0.34929191096E+01  0.30004175167E+02  0.38300255620E+03  0.38419189095E+03  0.00000000000E+00 0.  1.
         -1    1    1    2    0  501 -0.34929191096E+01 -0.30004175167E+02  0.50401709775E+03  0.50492146502E+03  0.00000000000E+00 0. -1.
</event>
<event>
 4    1  0.6935156E+001  0.3468566E+02  0.7546771E-02  0.1382787E+00
          2   -1    0    0  502    0  0.00000000000E+00  0.00000000000E+00  0.73597217075E+02  0.73597217075E+02  0.00000000000E+00 0. -1.
         -2   -1    0    0    0  501 -0.00000000000E+00 -0.00000000000E+00 -0.16923823035E+02  0.16923823035E+02  0.00000000000E+00 0.  1.
          1    1    1    2  502    0 -0.30088478058E+01  0.34554914135E+02  0.36692413186E+02  0.50491865101E+02  0.00000000000E+00 0. -1.
         -1    1    1    2    0  501  0.30088478058E+01 -0.34554914135E+02  0.19980980854E+02  0.40029175009E+02  0.00000000000E+00 0.  1.
</event>
<event>
 4    1  0.6935156E+001  0.2507405E+02  0.7546771E-02  0.1467977E+00
          2   -1    0    0  502    0  0.00000000000E+00  0.00000000000E+00  0.14197637489E+03  0.14197637489E+03  0.00000000000E+00 0.  1.
         -2   -1    0    0    0  501 -0.00000000000E+00 -0.00000000000E+00 -0.46238293866E+01  0.46238293866E+01  0.00000000000E+00 0. -1.
          1    1    1    2  502    0 -0.14336495548E+01  0.25033031937E+02  0.53601312627E+02  0.59176082621E+02  0.00000000000E+00 0. -1.
         -1    1    1    2    0  501  0.14336495548E+01 -0.25033031937E+02  0.83751232878E+02  0.87424121658E+02  0.00000000000E+00 0.  1.
</event>
<event>
 4    1  0.6935156E+001  0.3619794E+02  0.7546771E-02  0.1372331E+00
          2   -1    0    0  502    0  0.00000000000E+00  0.00000000000E+00  0.26278265150E+03  0.26278265150E+03  0.00000000000E+00 0.  1.
         -2   -1    0    0    0  501 -0.00000000000E+00 -0.00000000000E+00 -0.63197361971E+01  0.63197361971E+01  0.00000000000E+00 0. -1.
          1    1    1    2  502    0  0.36054934422E+02 -0.32144603121E+01  0.19003848916E+03  0.19345521036E+03  0.00000000000E+00 0.  1.
         -1    1    1    2    0  501 -0.36054934422E+02  0.32144603121E+01  0.66424426137E+02  0.75647177336E+02  0.00000000000E+00 0. -1.
</event>
<event>
 4    1  0.6935156E+001  0.2306307E+02  0.7546771E-02  0.1491708E+00
          2   -1    0    0  502    0  0.00000000000E+00  0.00000000000E+00  0.85009019079E+02  0.85009019079E+02  0.00000000000E+00 0.  1.
         -2   -1    0    0    0  501 -0.00000000000E+00 -0.00000000000E+00 -0.63648567050E+01  0.63648567050E+01  0.00000000000E+00 0. -1.
          1    1    1    2  502    0  0.36591070792E+01  0.22770952502E+02  0.45268132960E+02  0.50804617941E+02  0.00000000000E+00 0. -1.
         -1    1    1    2    0  501 -0.36591070792E+01 -0.22770952502E+02  0.33376029414E+02  0.40569257843E+02  0.00000000000E+00 0.  1.
</event>
<event>
 4    1  0.6935156E+001  0.2247860E+02  0.7546771E-02  0.1499151E+00
          2   -1    0    0  502    0  0.00000000000E+00  0.00000000000E+00  0.67821433905E+03  0.67821433905E+03  0.00000000000E+00 0.  1.
         -2   -1    0    0    0  501 -0.00000000000E+00 -0.00000000000E+00 -0.75711247658E+00  0.75711247658E+00  0.00000000000E+00 0. -1.
          1    1    1    2  502    0 -0.50986860059E+01  0.21892713911E+02  0.38162154570E+03  0.38228299944E+03  0.00000000000E+00 0. -1.
         -1    1    1    2    0  501  0.50986860059E+01 -0.21892713911E+02  0.29583568088E+03  0.29668845208E+03  0.00000000000E+00 0.  1.
</event>
<event>
 4    1  0.6935156E+001  0.2320062E+02  0.7546771E-02  0.1489994E+00
          2   -1    0    0  502    0  0.00000000000E+00  0.00000000000E+00  0.39547581582E+03  0.39547581582E+03  0.00000000000E+00 0. -1.
         -2   -1    0    0    0  501 -0.00000000000E+00 -0.00000000000E+00 -0.14939835775E+01  0.14939835775E+01  0.00000000000E+00 0.  1.
          1    1    1    2  502    0 -0.22980835225E+02  0.31858980038E+01  0.13778766246E+03  0.13972726528E+03  0.00000000000E+00 0.  1.
         -1    1    1    2    0  501  0.22980835225E+02 -0.31858980038E+01  0.25619416978E+03  0.25724253412E+03  0.00000000000E+00 0. -1.
</event>
<event>
 4    1  0.6935156E+001  0.3063644E+02  0.7546771E-02  0.1414145E+00
          2   -1    0    0  502    0  0.00000000000E+00  0.00000000000E+00  0.15084510130E+04  0.15084510130E+04  0.00000000000E+00 0.  1.
         -2   -1    0    0    0  501 -0.00000000000E+00 -0.00000000000E+00 -0.20481621935E+01  0.20481621935E+01  0.00000000000E+00 0. -1.
          1    1    1    2  502    0 -0.30625589714E+02 -0.81523147667E+00  0.13833732555E+04  0.13837124540E+04  0.00000000000E+00 0.  1.
         -1    1    1    2    0  501  0.30625589714E+02  0.81523147667E+00  0.12302959535E+03  0.12678672123E+03  0.00000000000E+00 0. -1.
</event>
<event>
 4    1  0.6935156E+001  0.3759831E+02  0.7546771E-02  0.1363165E+00
          2   -1    0    0  502    0  0.00000000000E+00  0.00000000000E+00  0.53533976632E+01  0.53533976632E+01  0.00000000000E+00 0. -1.
         -2   -1    0    0    0  501 -0.00000000000E+00 -0.00000000000E+00 -0.26406274348E+03  0.26406274348E+03  0.00000000000E+00 0.  1.
          1    1    1    2  502    0  0.62269998031E+01 -0.37079068828E+02 -0.12935995324E+03  0.13471314106E+03  0.00000000000E+00 0.  1.
         -1    1    1    2    0  501 -0.62269998031E+01  0.37079068828E+02 -0.12934939257E+03  0.13470300008E+03  0.00000000000E+00 0. -1.
</event>
<event>
 4    1  0.6935156E+001  0.3381945E+02  0.7546771E-02  0.1389058E+00
          2   -1    0    0  502    0  0.00000000000E+00  0.00000000000E+00  0.56276709460E+03  0.56276709460E+03  0.00000000000E+00 0. -1.
         -2   -1    0    0    0  501 -0.00000000000E+00 -0.00000000000E+00 -0.23791166826E+01  0.23791166826E+01  0.00000000000E+00 0.  1.
          1    1    1    2  502    0 -0.21012567911E+02  0.26499572984E+02  0.17231814806E+03  0.17560552249E+03  0.00000000000E+00 0.  1.
         -1    1    1    2    0  501  0.21012567911E+02 -0.26499572984E+02  0.38806982986E+03  0.38954068879E+03  0.00000000000E+00 0. -1.
</event>
<event>
 4    1  0.6935156E+001  0.2585344E+02  0.7546771E-02  0.1459478E+00
          2   -1    0    0  502    0  0.00000000000E+00  0.00000000000E+00  0.98014602140E+03  0.98014602140E+03  0.00000000000E+00 0. -1.
         -2   -1    0    0    0  501 -0.00000000000E+00 -0.00000000000E+00 -0.76482875689E+00  0.76482875689E+00  0.00000000000E+00 0.  1.
          1    1    1    2  502    0 -0.22251971426E+02  0.13162444282E+02  0.32822988130E+03  0.32924649604E+03  0.00000000000E+00 0.  1.
         -1    1    1    2    0  501  0.22251971426E+02 -0.13162444282E+02  0.65115131134E+03  0.65166435413E+03  0.00000000000E+00 0. -1.
</event>
<event>
 4    1  0.6935156E+001  0.3009317E+02  0.7546771E-02  0.1418788E+00
          2   -1    0    0  502    0  0.00000000000E+00  0.00000000000E+00  0.36164212561E+02  0.36164212561E+02  0.00000000000E+00 0.  1.
         -2   -1    0    0    0  501 -0.00000000000E+00 -0.00000000000E+00 -0.31580732549E+02  0.31580732549E+02  0.00000000000E+00 0. -1.
          1    1    1    2  502    0  0.39716290684E+01  0.29829940048E+02  0.17705393405E+02  0.34915327814E+02  0.00000000000E+00 0.  1.
         -1    1    1    2    0  501 -0.39716290684E+01 -0.29829940048E+02 -0.13121913394E+02  0.32829617296E+02  0.00000000000E+00 0. -1.
</event>
<event>
 4    1  0.6935156E+001  0.2694698E+02  0.7546771E-02  0.1448141E+00
          2   -1    0    0  502    0  0.00000000000E+00  0.00000000000E+00  0.16726616874E+03  0.16726616874E+03  0.00000000000E+00 0.  1.
         -2   -1    0    0    0  501 -0.00000000000E+00 -0.00000000000E+00 -0.67504002411E+01  0.67504002411E+01  0.00000000000E+00 0. -1.
          1    1    1    2  502    0  0.26607730861E+02  0.42624299618E+01  0.28278603285E+02  0.39061733890E+02  0.00000000000E+00 0. -1.
         -1    1    1    2    0  501 -0.26607730861E+02 -0.42624299618E+01  0.13223716522E+03  0.13495483510E+03  0.00000000000E+00 0.  1.
</event>
<event>
 4    1  0.6935156E+001  0.3597583E+02  0.7546771E-02  0.1373830E+00
          2   -1    0    0  502    0  0.00000000000E+00  0.00000000000E+00  0.32001917591E+01  0.32001917591E+01  0.00000000000E+00 0.  1.
         -2   -1    0    0    0  501 -0.00000000000E+00 -0.00000000000E+00 -0.56025014037E+03  0.56025014037E+03  0.00000000000E+00 0. -1.
          1    1    1    2  502    0  0.16827871023E+02 -0.31797536733E+02 -0.42709917066E+03  0.42861166825E+03  0.00000000000E+00 0.  1.
         -1    1    1    2    0  501 -0.16827871023E+02  0.31797536733E+02 -0.12995077796E+03  0.13483866388E+03  0.00000000000E+00 0. -1.
</event>
<event>
 4    1  0.6935156E+001  0.2344918E+02  0.7546771E-02  0.1486934E+00
          2   -1    0    0  502    0  0.00000000000E+00  0.00000000000E+00  0.77422426529E+02  0.77422426529E+02  0.00000000000E+00 0.  1.
         -2   -1    0    0    0  501 -0.00000000000E+00 -0.00000000000E+00 -0.11576571772E+02  0.11576571772E+02  0.00000000000E+00 0. -1.
          1    1    1    2  502    0  0.10694848627E+02  0.20868256469E+02  0.52576703952E+01  0.24031375600E+02  0.00000000000E+00 0. -1.
         -1    1    1    2    0  501 -0.10694848627E+02 -0.20868256469E+02  0.60588184362E+02  0.64967622702E+02  0.00000000000E+00 0.  1.
</event>
<event>
 4    1  0.6935156E+001  0.2477225E+02  0.7546771E-02  0.1471367E+00
          2   -1    0    0  502    0  0.00000000000E+00  0.00000000000E+00  0.36935110052E+01  0.36935110052E+01  0.00000000000E+00 0.  1.
         -2   -1    0    0    0  501 -0.00000000000E+00 -0.00000000000E+00 -0.20406929144E+03  0.20406929144E+03  0.00000000000E+00 0. -1.
          1    1    1    2  502    0 -0.24048767074E+02  0.59431823482E+01 -0.55406450392E+02  0.60692168846E+02  0.00000000000E+00 0.  1.
         -1    1    1    2    0  501  0.24048767074E+02 -0.59431823482E+01 -0.14496933005E+03  0.14707063360E+03  0.00000000000E+00 0. -1.
</event>
<event>
 4    1  0.6935156E+001  0.2419027E+02  0.7546771E-02  0.1478069E+00
          2   -1    0    0  502    0  0.00000000000E+00  0.00000000000E+00  0.46545272685E+03  0.46545272685E+03  0.00000000000E+00 0.  1.
         -2   -1    0    0    0  501 -0.00000000000E+00 -0.00000000000E+00 -0.14742059335E+01  0.14742059335E+01  0.00000000000E+00 0. -1.
          1    1    1    2  502    0 -0.20387666898E+01 -0.24104207806E+02  0.32156096743E+03  0.32246957249E+03  0.00000000000E+00 0. -1.
         -1    1    1    2    0  501  0.20387666898E+01  0.24104207806E+02  0.14241755348E+03  0.14445736030E+03  0.00000000000E+00 0.  1.
</event>
<event>
 4    1  0.6935156E+001  0.2187381E+02  0.7546771E-02  0.1507146E+00
          2   -1    0    0  502    0  0.00000000000E+00  0.00000000000E+00  0.11594199097E+04  0.11594199097E+04  0.00000000000E+00 0. -1.
         -2   -1    0    0    0  501 -0.00000000000E+00 -0.00000000000E+00 -0.53034516496E+00  0.53034516496E+00  0.00000000000E+00 0.  1.
          1    1    1    2  502    0 -0.16710151895E+02  0.14115034130E+02  0.30625551369E+03  0.30703567062E+03  0.00000000000E+00 0.  1.
         -1    1    1    2    0  501  0.16710151895E+02 -0.14115034130E+02  0.85263405082E+03  0.85291458422E+03  0.00000000000E+00 0. -1.
</event>
<event>
 4    1  0.6935156E+001  0.2151616E+02  0.7546771E-02  0.1512022E+00
          2   -1    0    0  502    0  0.00000000000E+00  0.00000000000E+00  0.14566068515E+04  0.14566068515E+04  0.00000000000E+00 0. -1.
         -2   -1    0    0    0  501 -0.00000000000E+00 -0.00000000000E+00 -0.32534781793E+00  0.32534781793E+00  0.00000000000E+00 0.  1.
          1    1    1    2  502    0 -0.15470835495E+02 -0.14953201263E+02  0.83891717650E+03  0.83919304931E+03  0.00000000000E+00 0. -1.
         -1    1    1    2    0  501  0.15470835495E+02  0.14953201263E+02  0.61736432720E+03  0.61773915003E+03  0.00000000000E+00 0.  1.
</event>
<event>
 4    1  0.6935156E+001  0.2568800E+02  0.7546771E-02  0.1461252E+00
          2   -1    0    0  502    0  0.00000000000E+00  0.00000000000E+00  0.28191847215E+03  0.28191847215E+03  0.00000000000E+00 0. -1.
         -2   -1    0    0    0  501 -0.00000000000E+00 -0.00000000000E+00 -0.23564107777E+01  0.23564107777E+01  0.00000000000E+00 0.  1.
          1    1    1    2  502    0  0.23006669985E+02 -0.11426560330E+02  0.15140458437E+03  0.15356829527E+03  0.00000000000E+00 0. -1.
         -1    1    1    2    0  501 -0.23006669985E+02  0.11426560330E+02  0.12815747700E+03  0.13070658766E+03  0.00000000000E+00 0.  1.
</event>
<event>
 4    1  0.6935156E+001  0.2338835E+02  0.7546771E-02  0.1487678E+00
          2   -1    0    0  502    0  0.00000000000E+00  0.00000000000E+00  0.19082926073E+02  0.19082926073E+02  0.00000000000E+00 0.  1.
         -2   -1    0    0    0  501 -0.00000000000E+00 -0.00000000000E+00 -0.49405102141E+02  0.49405102141E+02  0.00000000000E+00 0. -1.
          1    1    1    2  502    0 -0.19764369064E+02  0.12505379822E+02  0.70261229101E+01  0.24420917512E+02  0.00000000000E+00 0.  1.
         -1    1    1    2    0  501  0.19764369064E+02 -0.12505379822E+02 -0.37348298978E+02  0.44067110701E+02  0.00000000000E+00 0. -1.
</event>
<event>
 4    1  0.6935156E+001  0.2266571E+02  0.7546771E-02  0.1496739E+00
          2   -1    0    0  502    0  0.00000000000E+00  0.00000000000E+00  0.29841566023E+02  0.29841566023E+02  0.00000000000E+00 0.  1.
         -2   -1    0    0    0  501 -0.00000000000E+00 -0.00000000000E+00 -0.23471394351E+02  0.23471394351E+02  0.00000000000E+00 0. -1.
          1    1    1    2  502    0 -0.19118778450E+02 -0.12174018240E+02 -0.10576916658E+02  0.25012108578E+02  0.00000000000E+00 0. -1.
         -1    1    1    2    0  501  0.19118778450E+02  0.12174018240E+02  0.16947088330E+02  0.28300851796E+02  0.00000000000E+00 0.  1.
</event>
<event>
 4    1  0.6935156E+001  0.1565426E+03  0.7546771E-02  0.1091094E+00
          2   -1    0    0  502    0  0.00000000000E+00  0.00000000000E+00  0.86610782147E+03  0.86610782147E+03  0.00000000000E+00 0. -1.
         -2   -1    0    0    0  501 -0.00000000000E+00 -0.00000000000E+00 -0.30605339043E+02  0.30605339043E+02  0.00000000000E+00 0.  1.
          1    1    1    2  502    0 -0.73299630862E+02  0.13832122832E+03  0.54096605333E+03  0.56316060670E+03  0.00000000000E+00 0. -1.
         -1    1    1    2    0  501  0.73299630862E+02 -0.13832122832E+03  0.29453642909E+03  0.33355255381E+03  0.00000000000E+00 0.  1.
</event>
<event>
 4    1  0.6935156E+001  0.2004690E+02  0.7546771E-02  0.1533320E+00
          2   -1    0    0  502    0  0.00000000000E+00  0.00000000000E+00  0.22245990962E+03  0.22245990962E+03  0.00000000000E+00 0.  1.
         -2   -1    0    0    0  501 -0.00000000000E+00 -0.00000000000E+00 -0.19172476508E+01  0.19172476508E+01  0.00000000000E+00 0. -1.
          1    1    1    2  502    0  0.16571246819E+02 -0.11281495808E+02  0.83310283399E+02  0.85688282097E+02  0.00000000000E+00 0. -1.
         -1    1    1    2    0  501 -0.16571246819E+02  0.11281495808E+02  0.13723237857E+03  0.13868887517E+03  0.00000000000E+00 0.  1.
</event>
<event>
 4    1  0.6935156E+001  0.6845054E+02  0.7546771E-02  0.1233541E+00
          2   -1    0    0  502    0  0.00000000000E+00  0.00000000000E+00  0.13354040607E+04  0.13354040607E+04  0.00000000000E+00 0. -1.
         -2   -1    0    0    0  501 -0.00000000000E+00 -0.00000000000E+00 -0.35205993728E+01  0.35205993728E+01  0.00000000000E+00 0.  1.
          1    1    1    2  502    0 -0.68356743202E+02  0.35821135493E+01  0.62695215254E+03  0.63067779210E+03  0.00000000000E+00 0.  1.
         -1    1    1    2    0  501  0.68356743202E+02 -0.35821135493E+01  0.70493130875E+03  0.70824686793E+03  0.00000000000E+00 0. -1.
</event>
<event>
 4    1  0.6935156E+001  0.3531409E+02  0.7546771E-02  0.1378368E+00
          2   -1    0    0  502    0  0.00000000000E+00  0.00000000000E+00  0.87243677639E+02  0.87243677639E+02  0.00000000000E+00 0. -1.
         -2   -1    0    0    0  501 -0.00000000000E+00 -0.00000000000E+00 -0.19364559817E+02  0.19364559817E+02  0.00000000000E+00 0.  1.
          1    1    1    2  502    0  0.34348225634E+02  0.82027059844E+01  0.66640291164E+01  0.35937365982E+02  0.00000000000E+00 0.  1.
         -1    1    1    2    0  501 -0.34348225634E+02 -0.82027059844E+01  0.61215088706E+02  0.70670871474E+02  0.00000000000E+00 0. -1.
</event>
<event>
 4    1  0.6935156E+001  0.2810529E+02  0.7546771E-02  0.1436810E+00
          2   -1    0    0  502    0  0.00000000000E+00  0.00000000000E+00  0.41490588132E+03  0.41490588132E+03  0.00000000000E+00 0.  1.
         -2   -1    0    0    0  501 -0.00000000000E+00 -0.00000000000E+00 -0.40098001023E+01  0.40098001023E+01  0.00000000000E+00 0. -1.
          1    1    1    2  502    0 -0.28096186201E+02  0.71545631969E+00  0.35724463715E+03  0.35834848727E+03  0.00000000000E+00 0.  1.
         -1    1    1    2    0  501  0.28096186201E+02 -0.71545631969E+00  0.53651444061E+02  0.60567194145E+02  0.00000000000E+00 0. -1.
</event>
<event>
 4    1  0.6935156E+001  0.2068563E+02  0.7546771E-02  0.1523801E+00
          2   -1    0    0  502    0  0.00000000000E+00  0.00000000000E+00  0.26351296107E+03  0.26351296107E+03  0.00000000000E+00 0.  1.
         -2   -1    0    0    0  501 -0.00000000000E+00 -0.00000000000E+00 -0.42250928228E+01  0.42250928228E+01  0.00000000000E+00 0. -1.
          1    1    1    2  502    0 -0.17809155730E+02 -0.10522791408E+02  0.24603693694E+02  0.32144002710E+02  0.00000000000E+00 0. -1.
         -1    1    1    2    0  501  0.17809155730E+02  0.10522791408E+02  0.23468417455E+03  0.23559405118E+03  0.00000000000E+00 0.  1.
</event>
<event>
 4    1  0.6935156E+001  0.2688872E+02  0.7546771E-02  0.1448729E+00
          2   -1    0    0  502    0  0.00000000000E+00  0.00000000000E+00  0.22347597883E+03  0.22347597883E+03  0.00000000000E+00 0. -1.
         -2   -1    0    0    0  501 -0.00000000000E+00 -0.00000000000E+00 -0.32551094191E+01  0.32551094191E+01  0.00000000000E+00 0.  1.
          1    1    1    2  502    0 -0.77192247038E+01  0.25756876546E+02  0.10125803106E+03  0.10476732303E+03  0.00000000000E+00 0.  1.
         -1    1    1    2    0  501  0.77192247038E+01 -0.25756876546E+02  0.11896283835E+03  0.12196376522E+03  0.00000000000E+00 0. -1.
</event>
<event>
 4    1  0.6935156E+001  0.2198826E+02  0.7546771E-02  0.1505609E+00
          2   -1    0    0  502    0  0.00000000000E+00  0.00000000000E+00  0.25454048147E+02  0.25454048147E+02  0.00000000000E+00 0. -1.
         -2   -1    0    0    0  501 -0.00000000000E+00 -0.00000000000E+00 -0.20017181807E+02  0.20017181807E+02  0.00000000000E+00 0.  1.
          1    1    1    2  502    0  0.12134654258E+02 -0.18336678405E+02 -0.24208565669E+01  0.22121124641E+02  0.00000000000E+00 0.  1.
         -1    1    1    2    0  501 -0.12134654258E+02  0.18336678405E+02  0.78577229067E+01  0.23350105313E+02  0.00000000000E+00 0. -1.
</event>
<event>
 4    1  0.6935156E+001  0.4543347E+02  0.7546771E-02  0.1319286E+00
          2   -1    0    0  502    0  0.00000000000E+00  0.00000000000E+00  0.12575688059E+04  0.12575688059E+04  0.00000000000E+00 0.  1.
         -2   -1    0    0    0  501 -0.00000000000E+00 -0.00000000000E+00 -0.21344295710E+01  0.21344295710E+01  0.00000000000E+00 0. -1.
          1    1    1    2  502    0  0.13841503939E+01 -0.45412376861E+02  0.93042565622E+03  0.93153427290E+03  0.00000000000E+00 0.  1.
         -1    1    1    2    0  501 -0.13841503939E+01  0.45412376861E+02  0.32500872007E+03  0.32816896253E+03  0.00000000000E+00 0. -1.
</event>
<event>
 4    1  0.6935156E+001  0.2587817E+02  0.7546771E-02  0.1459215E+00
          2   -1    0    0  502    0  0.00000000000E+00  0.00000000000E+00  0.21954061263E+02  0.21954061263E+02  0.00000000000E+00 0.  1.
         -2   -1    0    0    0  501 -0.00000000000E+00 -0.00000000000E+00 -0.51902372353E+02  0.51902372353E+02  0.00000000000E+00 0. -1.
          1    1    1    2  502    0  0.20630370723E+02 -0.15622666096E+02  0.87373015337E+01  0.27313372736E+02  0.00000000000E+00 0.  1.
         -1    1    1    2    0  501 -0.20630370723E+02  0.15622666096E+02 -0.38685612623E+02  0.46543060880E+02  0.00000000000E+00 0. -1.
</event>
<event>
 4    1  0.6935156E+001  0.2636416E+02  0.7546771E-02  0.1454102E+00
          2   -1    0    0  502    0  0.00000000000E+00  0.00000000000E+00  0.89745257585E+03  0.89745257585E+03  0.00000000000E+00 0.  1.
         -2   -1    0    0    0  501 -0.00000000000E+00 -0.00000000000E+00 -0.77544680165E+00  0.77544680165E+00  0.00000000000E+00 0. -1.
          1    1    1    2  502    0  0.18545540549E+02 -0.18738515200E+02  0.43257176953E+03  0.43337443951E+03  0.00000000000E+00 0.  1.
         -1    1    1    2    0  501 -0.18545540549E+02  0.18738515200E+02  0.46410535952E+03  0.46485358314E+03  0.00000000000E+00 0. -1.
</event>
<event>
 4    1  0.6935156E+001  0.3212478E+02  0.7546771E-02  0.1401988E+00
          2   -1    0    0  502    0  0.00000000000E+00  0.00000000000E+00  0.64417327530E+03  0.64417327530E+03  0.00000000000E+00 0. -1.
         -2   -1    0    0    0  501 -0.00000000000E+00 -0.00000000000E+00 -0.28897386535E+01  0.28897386535E+01  0.00000000000E+00 0.  1.
          1    1    1    2  502    0 -0.14131909125E+02 -0.28849447565E+02  0.53661094216E+03  0.53757167403E+03  0.00000000000E+00 0. -1.
         -1    1    1    2    0  501  0.14131909125E+02  0.28849447565E+02  0.10467259449E+03  0.10949133992E+03  0.00000000000E+00 0.  1.
</event>
<event>
 4    1  0.6935156E+001  0.2640773E+02  0.7546771E-02  0.1453650E+00
          2   -1    0    0  502    0  0.00000000000E+00  0.00000000000E+00  0.93617000083E+03  0.93617000083E+03  0.00000000000E+00 0.  1.
         -2   -1    0    0    0  501 -0.00000000000E+00 -0.00000000000E+00 -0.81572848417E+00  0.81572848417E+00  0.00000000000E+00 0. -1.
          1    1    1    2  502    0  0.26402308331E+02  0.53495360341E+00  0.32964350146E+03  0.33069957078E+03  0.00000000000E+00 0.  1.
         -1    1    1    2    0  501 -0.26402308331E+02 -0.53495360341E+00  0.60571077088E+03  0.60628615853E+03  0.00000000000E+00 0. -1.
</event>
<event>
 4    1  0.6935156E+001  0.2302079E+02  0.7546771E-02  0.1492237E+00
          2   -1    0    0  502    0  0.00000000000E+00  0.00000000000E+00  0.22756400019E+01  0.22756400019E+01  0.00000000000E+00 0.  1.
         -2   -1    0    0    0  501 -0.00000000000E+00 -0.00000000000E+00 -0.26090702848E+03  0.26090702848E+03  0.00000000000E+00 0. -1.
          1    1    1    2  502    0 -0.22014509524E+02 -0.67318841167E+01 -0.86188320608E+02  0.89209772461E+02  0.00000000000E+00 0.  1.
         -1    1    1    2    0  501  0.22014509524E+02  0.67318841167E+01 -0.17244306787E+03  0.17397289602E+03  0.00000000000E+00 0. -1.
</event>
<event>
 4    1  0.6935156E+001  0.2168494E+02  0.7546771E-02  0.1509706E+00
          2   -1    0    0  502    0  0.00000000000E+00  0.00000000000E+00  0.25176261874E+01  0.25176261874E+01  0.00000000000E+00 0. -1.
         -2   -1    0    0    0  501 -0.00000000000E+00 -0.00000000000E+00 -0.20085738285E+03  0.20085738285E+03  0.00000000000E+00 0.  1.
          1    1    1    2  502    0 -0.61059268553E+01 -0.20807558215E+02 -0.72247233679E+02  0.75431423133E+02  0.00000000000E+00 0. -1.
         -1    1    1    2    0  501  0.61059268553E+01  0.20807558215E+02 -0.12609252298E+03  0.12794358590E+03  0.00000000000E+00 0.  1.
</event>
<event>
 4    1  0.6935156E+001  0.2249337E+02  0.7546771E-02  0.1498960E+00
          2   -1    0    0  502    0  0.00000000000E+00  0.00000000000E+00  0.30251111312E+03  0.30251111312E+03  0.00000000000E+00 0.  1.
         -2   -1    0    0    0  501 -0.00000000000E+00 -0.00000000000E+00 -0.12504819632E+02  0.12504819632E+02  0.00000000000E+00 0. -1.
          1    1    1    2  502    0  0.22290518971E+02 -0.30140765736E+01  0.29159991799E+03  0.29246617593E+03  0.00000000000E+00 0.  1.
         -1    1    1    2    0  501 -0.22290518971E+02  0.30140765736E+01 -0.15936245006E+01  0.22549756820E+02  0.00000000000E+00 0. -1.
</event>
<event>
 4    1  0.6935156E+001  0.2741919E+02  0.7546771E-02  0.1443442E+00
          2   -1    0    0  502    0  0.00000000000E+00  0.00000000000E+00  0.90870495140E+02  0.90870495140E+02  0.00000000000E+00 0. -1.
         -2   -1    0    0    0  501 -0.00000000000E+00 -0.00000000000E+00 -0.84090340100E+01  0.84090340100E+01  0.00000000000E+00 0.  1.
          1    1    1    2  502    0 -0.24601756873E+02 -0.12106425341E+02  0.47534061377E+02  0.54875303796E+02  0.00000000000E+00 0.  1.
         -1    1    1    2    0  501  0.24601756873E+02  0.12106425341E+02  0.34927399753E+02  0.44404225354E+02  0.00000000000E+00 0. -1.
</event>
<event>
 4    1  0.6935156E+001  0.2041521E+02  0.7546771E-02  0.1527780E+00
          2   -1    0    0  502    0  0.00000000000E+00  0.00000000000E+00  0.40344162220E+03  0.40344162220E+03  0.00000000000E+00 0. -1.
         -2   -1    0    0    0  501 -0.00000000000E+00 -0.00000000000E+00 -0.10691207815E+01  0.10691207815E+01  0.00000000000E+00 0.  1.
          1    1    1    2  502    0  0.19178355337E+02 -0.69979735252E+01  0.23832961087E+03  0.23920239205E+03  0.00000000000E+00 0.  1.
         -1    1    1    2    0  501 -0.19178355337E+02  0.69979735252E+01  0.16404289055E+03  0.16530835093E+03  0.00000000000E+00 0. -1.
</event>
<event>
 4    1  0.6935156E+001  0.2741527E+02  0.7546771E-02  0.1443481E+00
          2   -1    0    0  502    0  0.00000000000E+00  0.00000000000E+00  0.24708208932E+03  0.24708208932E+03  0.00000000000E+00 0.  1.
         -2   -1    0    0    0  501 -0.00000000000E+00 -0.00000000000E+00 -0.43484870539E+01  0.43484870539E+01  0.00000000000E+00 0. -1.
          1    1    1    2  502    0 -0.27413241377E+02 -0.33385403130E+00  0.52455673836E+02  0.59187794172E+02  0.00000000000E+00 0. -1.
         -1    1    1    2    0  501  0.27413241377E+02  0.33385403130E+00  0.19027792843E+03  0.19224278220E+03  0.00000000000E+00 0.  1.
</event>
<event>
 4    1  0.6935156E+001  0.2794298E+02  0.7546771E-02  0.1438359E+00
          2   -1    0    0  502    0  0.00000000000E+00  0.00000000000E+00  0.26169309173E+01  0.26169309173E+01  0.00000000000E+00 0. -1.
         -2   -1    0    0    0  501 -0.00000000000E+00 -0.00000000000E+00 -0.30599303038E+03  0.30599303038E+03  0.00000000000E+00 0.  1.
          1    1    1    2  502    0  0.27935793594E+02 -0.63380067417E+00 -0.12733097517E+03  0.13036098920E+03  0.00000000000E+00 0. -1.
         -1    1    1    2    0  501 -0.27935793594E+02  0.63380067417E+00 -0.17604512429E+03  0.17824897210E+03  0.00000000000E+00 0.  1.
</event>
<event>
 4    1  0.6935156E+001  0.3133632E+02  0.7546771E-02  0.1408329E+00
          2   -1    0    0  502    0  0.00000000000E+00  0.00000000000E+00  0.67866090662E+03  0.67866090662E+03  0.00000000000E+00 0. -1.
         -2   -1    0    0    0  501 -0.00000000000E+00 -0.00000000000E+00 -0.15660822012E+01  0.15660822012E+01  0.00000000000E+00 0.  1.
          1    1    1    2  502    0  0.19540234241E+02 -0.24497835858E+02  0.43236726944E+03  0.43350134994E+03  0.00000000000E+00 0. -1.
         -1    1    1    2    0  501 -0.19540234241E+02  0.24497835858E+02  0.24472755498E+03  0.24672563889E+03  0.00000000000E+00 0.  1.
</event>
<event>
 4    1  0.6935156E+001  0.2812299E+02  0.7546771E-02  0.1436642E+00
          2   -1    0    0  502    0  0.00000000000E+00  0.00000000000E+00  0.16354777059E+04  0.16354777059E+04  0.00000000000E+00 0. -1.
         -2   -1    0    0    0  501 -0.00000000000E+00 -0.00000000000E+00 -0.48919486223E+00  0.48919486223E+00  0.00000000000E+00 0.  1.
          1    1    1    2  502    0 -0.21813813704E+02 -0.17749933695E+02  0.90504096555E+03  0.90547780311E+03  0.00000000000E+00 0.  1.
         -1    1    1    2    0  501  0.21813813704E+02  0.17749933695E+02  0.72994754553E+03  0.73048909769E+03  0.00000000000E+00 0. -1.
</event>
<event>
 4    1  0.6935156E+001  0.2187507E+02  0.7546771E-02  0.1507129E+00
          2   -1    0    0  502    0  0.00000000000E+00  0.00000000000E+00  0.15333020611E+02  0.15333020611E+02  0.00000000000E+00 0. -1.
         -2   -1    0    0    0  501 -0.00000000000E+00 -0.00000000000E+00 -0.40575777864E+02  0.40575777864E+02  0.00000000000E+00 0.  1.
          1    1    1    2  502    0 -0.13709652473E+02  0.17045940060E+02  0.81017826707E+00  0.21890066977E+02  0.00000000000E+00 0. -1.
         -1    1    1    2    0  501  0.13709652473E+02 -0.17045940060E+02 -0.26052935520E+02  0.34018731497E+02  0.00000000000E+00 0.  1.
</event>
<event>
 4    1  0.6935156E+001  0.2621022E+02  0.7546771E-02  0.1455707E+00
          2   -1    0    0  502    0  0.00000000000E+00  0.00000000000E+00  0.23138520116E+04  0.23138520116E+04  0.00000000000E+00 0. -1.
         -2   -1    0    0    0  501 -0.00000000000E+00 -0.00000000000E+00 -0.29944801004E+00  0.29944801004E+00  0.00000000000E+00 0.  1.
          1    1    1    2  502    0  0.25695410140E+02  0.51693104578E+01  0.10499811256E+04  0.10503082119E+04  0.00000000000E+00 0.  1.
         -1    1    1    2    0  501 -0.25695410140E+02 -0.51693104578E+01  0.12635714380E+04  0.12638432477E+04  0.00000000000E+00 0. -1.
</event>
<event>
 4    1  0.6935156E+001  0.3085249E+02  0.7546771E-02  0.1412330E+00
          2   -1    0    0  502    0  0.00000000000E+00  0.00000000000E+00  0.90724730666E+02  0.90724730666E+02  0.00000000000E+00 0.  1.
         -2   -1    0    0    0  501 -0.00000000000E+00 -0.00000000000E+00 -0.12133438570E+02  0.12133438570E+02  0.00000000000E+00 0. -1.
          1    1    1    2  502    0 -0.23931306643E+02  0.19472251612E+02  0.58212138660E+02  0.65882692021E+02  0.00000000000E+00 0.  1.
         -1    1    1    2    0  501  0.23931306643E+02 -0.19472251612E+02  0.20379153436E+02  0.36975477215E+02  0.00000000000E+00 0. -1.
</event>
<event>
 4    1  0.6935156E+001  0.2000524E+02  0.7546771E-02  0.1533955E+00
          2   -1    0    0  502    0  0.00000000000E+00  0.00000000000E+00  0.93287186553E+02  0.93287186553E+02  0.00000000000E+00 0. -1.
         -2   -1    0    0    0  501 -0.00000000000E+00 -0.00000000000E+00 -0.47001698467E+01  0.47001698467E+01  0.00000000000E+00 0.  1.
          1    1    1    2  502    0  0.19820417145E+02  0.27130874788E+01  0.29821754957E+02  0.35910261043E+02  0.00000000000E+00 0.  1.
         -1    1    1    2    0  501 -0.19820417145E+02 -0.27130874788E+01  0.58765261750E+02  0.62077095357E+02  0.00000000000E+00 0. -1.
</event>
<event>
 4    1  0.6935156E+001  0.2292792E+02  0.7546771E-02  0.1493405E+00
          2   -1    0    0  502    0  0.00000000000E+00  0.00000000000E+00  0.14924425406E+04  0.14924425406E+04  0.00000000000E+00 0.  1.
         -2   -1    0    0    0  501 -0.00000000000E+00 -0.00000000000E+00 -0.41444110202E+00  0.41444110202E+00  0.00000000000E+00 0. -1.
          1    1    1    2  502    0  0.22464728623E+02 -0.45853496916E+01  0.45682908367E+03  0.45740408956E+03  0.00000000000E+00 0. -1.
         -1    1    1    2    0  501 -0.22464728623E+02  0.45853496916E+01  0.10351990159E+04  0.10354528922E+04  0.00000000000E+00 0.  1.
</event>
<event>
 4    1  0.6935156E+001  0.2033724E+02  0.7546771E-02  0.1528941E+00
          2   -1    0    0  502    0  0.00000000000E+00  0.00000000000E+00  0.19198915645E+04  0.19198915645E+04  0.00000000000E+00 0. -1.
         -2   -1    0    0    0  501 -0.00000000000E+00 -0.00000000000E+00 -0.29232684594E+00  0.29232684594E+00  0.00000000000E+00 0.  1.
          1    1    1    2  502    0 -0.10973894633E+02 -0.17122416792E+02  0.46738509277E+03  0.46782734899E+03  0.00000000000E+00 0.  1.
         -1    1    1    2    0  501  0.10973894633E+02  0.17122416792E+02  0.14522141449E+04  0.14523565424E+04  0.00000000000E+00 0. -1.
</event>
<event>
 4    1  0.6935156E+001  0.2327823E+02  0.7546771E-02  0.1489034E+00
          2   -1    0    0  502    0  0.00000000000E+00  0.00000000000E+00  0.38476974489E+03  0.38476974489E+03  0.00000000000E+00 0.  1.
         -2   -1    0    0    0  501 -0.00000000000E+00 -0.00000000000E+00 -0.20810915827E+01  0.20810915827E+01  0.00000000000E+00 0. -1.
          1    1    1    2  502    0 -0.20588866055E+02  0.10861601928E+02  0.81366688328E+02  0.84631044961E+02  0.00000000000E+00 0. -1.
         -1    1    1    2    0  501  0.20588866055E+02 -0.10861601928E+02  0.30132196498E+03  0.30221979151E+03  0.00000000000E+00 0.  1.
</event>
<event>
 4    1  0.6935156E+001  0.2389274E+02  0.7546771E-02  0.1481582E+00
          2   -1    0    0  502    0  0.00000000000E+00  0.00000000000E+00  0.21621208025E+04  0.21621208025E+04  0.00000000000E+00 0.  1.
         -2   -1    0    0    0  501 -0.00000000000E+00 -0.00000000000E+00 -0.35990366359E+00  0.35990366359E+00  0.00000000000E+00 0. -1.
          1    1    1    2  502    0 -0.17817739513E+02  0.15918272664E+02  0.16389397556E+04  0.16391139026E+04  0.00000000000E+00 0.  1.
         -1    1    1    2    0  501  0.17817739513E+02 -0.15918272664E+02  0.52282114321E+03  0.52336680352E+03  0.00000000000E+00 0. -1.
</event>
<event>
 4    1  0.6935156E+001  0.3484141E+02  0.7546771E-02  0.1381682E+00
          2   -1    0    0  502    0  0.00000000000E+00  0.00000000000E+00  0.13117098598E+04  0.13117098598E+04  0.00000000000E+00 0. -1.
         -2   -1    0    0    0  501 -0.00000000000E+00 -0.00000000000E+00 -0.94551584639E+00  0.94551584639E+00  0.00000000000E+00 0.  1.
          1    1    1    2  502    0 -0.26267195924E+02 -0.22890142173E+02  0.75099057848E+03  0.75179835937E+03  0.00000000000E+00 0. -1.
         -1    1    1    2    0  501  0.26267195924E+02  0.22890142173E+02  0.55977376543E+03  0.56085701623E+03  0.00000000000E+00 0.  1.
</event>
<event>
 4    1  0.6935156E+001  0.6508554E+02  0.7546771E-02  0.1243468E+00
          2   -1    0    0  502    0  0.00000000000E+00  0.00000000000E+00  0.27606854774E+03  0.27606854774E+03  0.00000000000E+00 0. -1.
         -2   -1    0    0    0  501 -0.00000000000E+00 -0.00000000000E+00 -0.18679523764E+02  0.18679523764E+02  0.00000000000E+00 0.  1.
          1    1    1    2  502    0 -0.43362803411E+02 -0.48536532548E+02  0.66423060840E+02  0.92995433881E+02  0.00000000000E+00 0.  1.
         -1    1    1    2    0  501  0.43362803411E+02  0.48536532548E+02  0.19096596313E+03  0.20175263762E+03  0.00000000000E+00 0. -1.
</event>
<event>
 4    1  0.6935156E+001  0.2846657E+02  0.7546771E-02  0.1433407E+00
          2   -1    0    0  502    0  0.00000000000E+00  0.00000000000E+00  0.10565779378E+04  0.10565779378E+04  0.00000000000E+00 0. -1.
         -2   -1    0    0    0  501 -0.00000000000E+00 -0.00000000000E+00 -0.18241151090E+01  0.18241151090E+01  0.00000000000E+00 0.  1.
          1    1    1    2  502    0  0.24717537718E+02 -0.14120524266E+02  0.93024725775E+03  0.93068270986E+03  0.00000000000E+00 0. -1.
         -1    1    1    2    0  501 -0.24717537718E+02  0.14120524266E+02  0.12450656499E+03  0.12771934310E+03  0.00000000000E+00 0.  1.
</event>
<event>
 4    1  0.6935156E+001  0.4149677E+02  0.7546771E-02  0.1339931E+00
          2   -1    0    0  502    0  0.00000000000E+00  0.00000000000E+00  0.18660995399E+04  0.18660995399E+04  0.00000000000E+00 0. -1.
         -2   -1    0    0    0  501 -0.00000000000E+00 -0.00000000000E+00 -0.93815429110E+00  0.93815429110E+00  0.00000000000E+00 0.  1.
          1    1    1    2  502    0  0.76055642648E+00  0.41489803713E+02  0.81304084314E+03  0.81409913086E+03  0.00000000000E+00 0.  1.
         -1    1    1    2    0  501 -0.76055642648E+00 -0.41489803713E+02  0.10521205425E+04  0.10529385633E+04  0.00000000000E+00 0. -1.
</event>
<event>
 4    1  0.6935156E+001  0.5641513E+02  0.7546771E-02  0.1272524E+00
          2   -1    0    0  502    0  0.00000000000E+00  0.00000000000E+00  0.16386988936E+04  0.16386988936E+04  0.00000000000E+00 0.  1.
         -2   -1    0    0    0  501 -0.00000000000E+00 -0.00000000000E+00 -0.33149272098E+01  0.33149272098E+01  0.00000000000E+00 0. -1.
          1    1    1    2  502    0  0.37510698835E+02 -0.42138042567E+02  0.28936441750E+03  0.29481253921E+03  0.00000000000E+00 0. -1.
         -1    1    1    2    0  501 -0.37510698835E+02  0.42138042567E+02  0.13460195489E+04  0.13472012816E+04  0.00000000000E+00 0.  1.
</event>
<event>
 4    1  0.6935156E+001  0.4210434E+02  0.7546771E-02  0.1336577E+00
          2   -1    0    0  502    0  0.00000000000E+00  0.00000000000E+00  0.84255930006E+03  0.84255930006E+03  0.00000000000E+00 0.  1.
         -2   -1    0    0    0  501 -0.00000000000E+00 -0.00000000000E+00 -0.27742086506E+01  0.27742086506E+01  0.00000000000E+00 0. -1.
          1    1    1    2  502    0  0.33323617283E+02  0.25735416447E+02  0.62763337798E+03  0.62904406228E+03  0.00000000000E+00 0.  1.
         -1    1    1    2    0  501 -0.33323617283E+02 -0.25735416447E+02  0.21215171343E+03  0.21628944644E+03  0.00000000000E+00 0. -1.
</event>
<event>
 4    1  0.6935156E+001  0.2976507E+02  0.7546771E-02  0.1421649E+00
          2   -1    0    0  502    0  0.00000000000E+00  0.00000000000E+00  0.18793093121E+04  0.18793093121E+04  0.00000000000E+00 0.  1.
         -2   -1    0    0    0  501 -0.00000000000E+00 -0.00000000000E+00 -0.99858130087E+00  0.99858130087E+00  0.00000000000E+00 0. -1.
          1    1    1    2  502    0  0.18435282827E+02 -0.23368778906E+02  0.16222417443E+04  0.16225147877E+04  0.00000000000E+00 0.  1.
         -1    1    1    2    0  501 -0.18435282827E+02  0.23368778906E+02  0.25606898652E+03  0.25779310569E+03  0.00000000000E+00 0. -1.
</event>
<event>
 4    1  0.6935156E+001  0.3677193E+02  0.7546771E-02  0.1368516E+00
          2   -1    0    0  502    0  0.00000000000E+00  0.00000000000E+00  0.94338298026E+02  0.94338298026E+02  0.00000000000E+00 0.  1.
         -2   -1    0    0    0  501 -0.00000000000E+00 -0.00000000000E+00 -0.14787049852E+02  0.14787049852E+02  0.00000000000E+00 0. -1.
          1    1    1    2  502    0 -0.29179515464E+02 -0.22377012421E+02  0.49334020462E+02  0.61530645881E+02  0.00000000000E+00 0. -1.
         -1    1    1    2    0  501  0.29179515464E+02  0.22377012421E+02  0.30217227712E+02  0.47594701997E+02  0.00000000000E+00 0.  1.
</event>
<event>
 4    1  0.6935156E+001  0.3260142E+02  0.7546771E-02  0.1398258E+00
          2   -1    0    0  502    0  0.00000000000E+00  0.00000000000E+00  0.26957900381E+04  0.26957900381E+04  0.00000000000E+00 0.  1.
         -2   -1    0    0    0  501 -0.00000000000E+00 -0.00000000000E+00 -0.43895288726E+00  0.43895288726E+00  0.00000000000E+00 0. -1.
          1    1    1    2  502    0  0.21682039272E+02 -0.24346282149E+02  0.17778244493E+04  0.17781233435E+04  0.00000000000E+00 0.  1.
         -1    1    1    2    0  501 -0.21682039272E+02  0.24346282149E+02  0.91752663593E+03  0.91810564747E+03  0.00000000000E+00 0. -1.
</event>
<event>
 4    1  0.6935156E+001  0.3797486E+02  0.7546771E-02  0.1360780E+00
          2   -1    0    0  502    0  0.00000000000E+00  0.00000000000E+00  0.79525410619E+01  0.79525410619E+01  0.00000000000E+00 0. -1.
         -2   -1    0    0    0  501 -0.00000000000E+00 -0.00000000000E+00 -0.19234692282E+03  0.19234692282E+03  0.00000000000E+00 0.  1.
          1    1    1    2  502    0  0.22948312339E+02 -0.30256645541E+02 -0.68236460572E+02  0.78091639693E+02  0.00000000000E+00 0.  1.
         -1    1    1    2    0  501 -0.22948312339E+02  0.30256645541E+02 -0.11615792119E+03  0.12220782419E+03  0.00000000000E+00 0. -1.
</event>
<event>
 4    1  0.6935156E+001  0.5076918E+02  0.7546771E-02  0.1294872E+00
          2   -1    0    0  502    0  0.00000000000E+00  0.00000000000E+00  0.13290442368E+04  0.13290442368E+04  0.00000000000E+00 0. -1.
         -2   -1    0    0    0  501 -0.00000000000E+00 -0.00000000000E+00 -0.20177469818E+01  0.20177469818E+01  0.00000000000E+00 0.  1.
          1    1    1    2  502    0  0.42747698616E+01 -0.50588896357E+02  0.53234584045E+03  0.53476125882E+03  0.00000000000E+00 0.  1.
         -1    1    1    2    0  501 -0.42747698616E+01  0.50588896357E+02  0.79468064942E+03  0.79630072501E+03  0.00000000000E+00 0. -1.
</event>
<event>
 4    1  0.6935156E+001  0.2008054E+02  0.7546771E-02  0.1532808E+00
          2   -1    0    0  502    0  0.00000000000E+00  0.00000000000E+00  0.82363057131E+02  0.82363057131E+02  0.00000000000E+00 0.  1.
         -2   -1    0    0    0  501 -0.00000000000E+00 -0.00000000000E+00 -0.60046686304E+01  0.60046686304E+01  0.00000000000E+00 0. -1.
          1    1    1    2  502    0  0.35032204429E+01  0.19772594915E+02  0.19191550405E+02  0.27776674929E+02  0.00000000000E+00 0. -1.
         -1    1    1    2    0  501 -0.35032204429E+01 -0.19772594915E+02  0.57166838095E+02  0.60591050832E+02  0.00000000000E+00 0.  1.
</event>
<event>
 4    1  0.6935156E+001  0.2061132E+02  0.7546771E-02  0.1524887E+00
          2   -1    0    0  502    0  0.00000000000E+00  0.00000000000E+00  0.29423581189E+02  0.29423581189E+02  0.00000000000E+00 0.  1.
         -2   -1    0    0    0  501 -0.00000000000E+00 -0.00000000000E+00 -0.15529665165E+02  0.15529665165E+02  0.00000000000E+00 0. -1.
          1    1    1    2  502    0  0.16248763140E+02 -0.12680858987E+02  0.12905432579E+02  0.24318237565E+02  0.00000000000E+00 0.  1.
         -1    1    1    2    0  501 -0.16248763140E+02  0.12680858987E+02  0.98848344530E+00  0.20635008790E+02  0.00000000000E+00 0. -1.
</event>
<event>
 4    1  0.6935156E+001  0.2813235E+02  0.7546771E-02  0.1436553E+00
          2   -1    0    0  502    0  0.00000000000E+00  0.00000000000E+00  0.29323047051E+02  0.29323047051E+02  0.00000000000E+00 0. -1.
         -2   -1    0    0    0  501 -0.00000000000E+00 -0.00000000000E+00 -0.29236082196E+02  0.29236082196E+02  0.00000000000E+00 0.  1.
          1    1    1    2  502    0  0.22340670958E+01 -0.28043504285E+02  0.81590212691E+01  0.29291616829E+02  0.00000000000E+00 0. -1.
         -1    1    1    2    0  501 -0.22340670958E+01  0.28043504285E+02 -0.80720564138E+01  0.29267512418E+02  0.00000000000E+00 0.  1.
</event>
<event>
 4    1  0.6935156E+001  0.5591093E+02  0.7546771E-02  0.1274397E+00
          2   -1    0    0  502    0  0.00000000000E+00  0.00000000000E+00  0.11222868773E+03  0.11222868773E+03  0.00000000000E+00 0.  1.
         -2   -1    0    0    0  501 -0.00000000000E+00 -0.00000000000E+00 -0.45009463579E+02  0.45009463579E+02  0.00000000000E+00 0. -1.
          1    1    1    2  502    0 -0.31891841596E+02 -0.45923228218E+02 -0.14927686276E+02  0.57869407012E+02  0.00000000000E+00 0. -1.
         -1    1    1    2    0  501  0.31891841596E+02  0.45923228218E+02  0.82146910423E+02  0.99368744293E+02  0.00000000000E+00 0.  1.
</event>
<event>
 4    1  0.6935156E+001  0.3930358E+02  0.7546771E-02  0.1352616E+00
          2   -1    0    0  502    0  0.00000000000E+00  0.00000000000E+00  0.37048081963E+03  0.37048081963E+03  0.00000000000E+00 0.  1.
         -2   -1    0    0    0  501 -0.00000000000E+00 -0.00000000000E+00 -0.67582644276E+01  0.67582644276E+01  0.00000000000E+00 0. -1.
          1    1    1    2  502    0 -0.82990935592E+01  0.38417402583E+02  0.29859694994E+03  0.30117255899E+03  0.00000000000E+00 0.  1.
         -1    1    1    2    0  501  0.82990935592E+01 -0.38417402583E+02  0.65125605267E+02  0.76066525072E+02  0.00000000000E+00 0. -1.
</event>
<event>
 4    1  0.6935156E+001  0.2041804E+02  0.7546771E-02  0.1527738E+00
          2   -1    0    0  502    0  0.00000000000E+00  0.00000000000E+00  0.13755713247E+01  0.13755713247E+01  0.00000000000E+00 0. -1.
         -2   -1    0    0    0  501 -0.00000000000E+00 -0.00000000000E+00 -0.44741726381E+03  0.44741726381E+03  0.00000000000E+00 0.  1.
          1    1    1    2  502    0  0.19962771535E+02 -0.42876563628E+01 -0.95564397769E+02  0.97721289213E+02  0.00000000000E+00 0. -1.
         -1    1    1    2    0  501 -0.19962771535E+02  0.42876563628E+01 -0.35047729472E+03  0.35107154592E+03  0.00000000000E+00 0.  1.
</event>
<event>
 4    1  0.6935156E+001  0.2841339E+02  0.7546771E-02  0.1433905E+00
          2   -1    0    0  502    0  0.00000000000E+00  0.00000000000E+00  0.14660107142E+02  0.14660107142E+02  0.00000000000E+00 0.  1.
         -2   -1    0    0    0  501 -0.00000000000E+00 -0.00000000000E+00 -0.55133262948E+02  0.55133262948E+02  0.00000000000E+00 0. -1.
          1    1    1    2  502    0  0.27784412034E+02  0.59453539344E+01 -0.21425860900E+02  0.35586349922E+02  0.00000000000E+00 0.  1.
         -1    1    1    2    0  501 -0.27784412034E+02 -0.59453539344E+01 -0.19047294907E+02  0.34207020168E+02  0.00000000000E+00 0. -1.
</event>
<event>
 4    1  0.6935156E+001  0.2665491E+02  0.7546771E-02  0.1451106E+00
          2   -1    0    0  502    0  0.00000000000E+00  0.00000000000E+00  0.10050312938E+02  0.10050312938E+02  0.00000000000E+00 0.  1.
         -2   -1    0    0    0  501 -0.00000000000E+00 -0.00000000000E+00 -0.76870109050E+02  0.76870109050E+02  0.00000000000E+00 0. -1.
          1    1    1    2  502    0 -0.25060171558E+02 -0.90814033095E+01 -0.21089772960E+02  0.33989154272E+02  0.00000000000E+00 0.  1.
         -1    1    1    2    0  501  0.25060171558E+02  0.90814033095E+01 -0.45730023152E+02  0.52931267716E+02  0.00000000000E+00 0. -1.
</event>
<event>
 4    1  0.6935156E+001  0.2481142E+02  0.7546771E-02  0.1470924E+00
          2   -1    0    0  502    0  0.00000000000E+00  0.00000000000E+00  0.30275925769E+03  0.30275925769E+03  0.00000000000E+00 0.  1.
         -2   -1    0    0    0  501 -0.00000000000E+00 -0.00000000000E+00 -0.97268233630E+01  0.97268233630E+01  0.00000000000E+00 0. -1.
          1    1    1    2  502    0 -0.23130642522E+02 -0.89766290946E+01  0.28547219590E+03  0.28654839229E+03  0.00000000000E+00 0.  1.
         -1    1    1    2    0  501  0.23130642522E+02  0.89766290946E+01  0.75602384322E+01  0.25937688766E+02  0.00000000000E+00 0. -1.
</event>
<event>
 4    1  0.6935156E+001  0.2185394E+02  0.7546771E-02  0.1507413E+00
          2   -1    0    0  502    0  0.00000000000E+00  0.00000000000E+00  0.91693804566E+02  0.91693804566E+02  0.00000000000E+00 0.  1.
         -2   -1    0    0    0  501 -0.00000000000E+00 -0.00000000000E+00 -0.61626256027E+01  0.61626256027E+01  0.00000000000E+00 0. -1.
          1    1    1    2  502    0 -0.17914268533E+02  0.12516944296E+02  0.62016889732E+02  0.65754768068E+02  0.00000000000E+00 0.  1.
         -1    1    1    2    0  501  0.17914268533E+02 -0.12516944296E+02  0.23514289231E+02  0.32101662100E+02  0.00000000000E+00 0. -1.
</event>
<event>
 4    1  0.6935156E+001  0.2749140E+02  0.7546771E-02  0.1442733E+00
          2   -1    0    0  502    0  0.00000000000E+00  0.00000000000E+00  0.13273162058E+03  0.13273162058E+03  0.00000000000E+00 0.  1.
         -2   -1    0    0    0  501 -0.00000000000E+00 -0.00000000000E+00 -0.57325887998E+01  0.57325887998E+01  0.00000000000E+00 0. -1.
          1    1    1    2  502    0  0.20280503974E+02  0.18560130743E+02  0.57821238730E+02  0.64024002865E+02  0.00000000000E+00 0. -1.
         -1    1    1    2    0  501 -0.20280503974E+02 -0.18560130743E+02  0.69177793050E+02  0.74440206515E+02  0.00000000000E+00 0.  1.
</event>
<event>
 4    1  0.6935156E+001  0.3458706E+02  0.7546771E-02  0.1383490E+00
          2   -1    0    0  502    0  0.00000000000E+00  0.00000000000E+00  0.17899228507E+04  0.17899228507E+04  0.00000000000E+00 0. -1.
         -2   -1    0    0    0  501 -0.00000000000E+00 -0.00000000000E+00 -0.67921288437E+00  0.67921288437E+00  0.00000000000E+00 0.  1.
          1    1    1    2  502    0 -0.26265835121E+02  0.22502683727E+02  0.78131025273E+03  0.78207542852E+03  0.00000000000E+00 0. -1.
         -1    1    1    2    0  501  0.26265835121E+02 -0.22502683727E+02  0.10079333851E+04  0.10085266350E+04  0.00000000000E+00 0.  1.
</event>
<event>
 4    1  0.6935156E+001  0.2364069E+02  0.7546771E-02  0.1484606E+00
          2   -1    0    0  502    0  0.00000000000E+00  0.00000000000E+00  0.32618799779E+01  0.32618799779E+01  0.00000000000E+00 0.  1.
         -2   -1    0    0    0  501 -0.00000000000E+00 -0.00000000000E+00 -0.18719641376E+03  0.18719641376E+03  0.00000000000E+00 0. -1.
          1    1    1    2  502    0  0.19822668979E+02  0.12881925550E+02 -0.11968504906E+03  0.12199751301E+03  0.00000000000E+00 0.  1.
         -1    1    1    2    0  501 -0.19822668979E+02 -0.12881925550E+02 -0.64249484727E+02  0.68460780736E+02  0.00000000000E+00 0. -1.
</event>
<event>
 4    1  0.6935156E+001  0.3616769E+02  0.7546771E-02  0.1372535E+00
          2   -1    0    0  502    0  0.00000000000E+00  0.00000000000E+00  0.54687643479E+03  0.54687643479E+03  0.00000000000E+00 0. -1.
         -2   -1    0    0    0  501 -0.00000000000E+00 -0.00000000000E+00 -0.23942234513E+01  0.23942234513E+01  0.00000000000E+00 0.  1.
          1    1    1    2  502    0  0.35775666473E+02 -0.53106656317E+01  0.28070262345E+03  0.28302308085E+03  0.00000000000E+00 0. -1.
         -1    1    1    2    0  501 -0.35775666473E+02  0.53106656317E+01  0.26377958789E+03  0.26624757740E+03  0.00000000000E+00 0.  1.
</event>
<event>
 4    1  0.6935156E+001  0.2132483E+02  0.7546771E-02  0.1514677E+00
          2   -1    0    0  502    0  0.00000000000E+00  0.00000000000E+00  0.12840623542E+04  0.12840623542E+04  0.00000000000E+00 0. -1.
         -2   -1    0    0    0  501 -0.00000000000E+00 -0.00000000000E+00 -0.38865230905E+00  0.38865230905E+00  0.00000000000E+00 0.  1.
          1    1    1    2  502    0  0.78282928439E+01  0.19835977480E+02  0.83319339135E+03  0.83346624140E+03  0.00000000000E+00 0. -1.
         -1    1    1    2    0  501 -0.78282928439E+01 -0.19835977480E+02  0.45048031053E+03  0.45098476510E+03  0.00000000000E+00 0.  1.
</event>
<event>
 4    1  0.6935156E+001  0.3402924E+02  0.7546771E-02  0.1387519E+00
          2   -1    0    0  502    0  0.00000000000E+00  0.00000000000E+00  0.35019583759E+03  0.35019583759E+03  0.00000000000E+00 0.  1.
         -2   -1    0    0    0  501 -0.00000000000E+00 -0.00000000000E+00 -0.44429167115E+01  0.44429167115E+01  0.00000000000E+00 0. -1.
          1    1    1    2  502    0 -0.23840597180E+02  0.24281988493E+02  0.83204920544E+02  0.89894648572E+02  0.00000000000E+00 0. -1.
         -1    1    1    2    0  501  0.23840597180E+02 -0.24281988493E+02  0.26254800033E+03  0.26474410573E+03  0.00000000000E+00 0.  1.
</event>
<event>
 4    1  0.6935156E+001  0.2021665E+02  0.7546771E-02  0.1530749E+00
          2   -1    0    0  502    0  0.00000000000E+00  0.00000000000E+00  0.36819362783E+02  0.36819362783E+02  0.00000000000E+00 0.  1.
         -2   -1    0    0    0  501 -0.00000000000E+00 -0.00000000000E+00 -0.14206327238E+02  0.14206327238E+02  0.00000000000E+00 0. -1.
          1    1    1    2  502    0 -0.16921247870E+02 -0.11062744340E+02  0.23235609565E+02  0.30799456061E+02  0.00000000000E+00 0.  1.
         -1    1    1    2    0  501  0.16921247870E+02  0.11062744340E+02 -0.62257401961E+00  0.20226233960E+02  0.00000000000E+00 0. -1.
</event>
<event>
 4    1  0.6935156E+001  0.2514585E+02  0.7546771E-02  0.1467178E+00
          2   -1    0    0  502    0  0.00000000000E+00  0.00000000000E+00  0.13749552039E+03  0.13749552039E+03  0.00000000000E+00 0. -1.
         -2   -1    0    0    0  501 -0.00000000000E+00 -0.00000000000E+00 -0.52551867583E+01  0.52551867583E+01  0.00000000000E+00 0.  1.
          1    1    1    2  502    0  0.21892047945E+02  0.12371428914E+02  0.40894943401E+02  0.48007399559E+02  0.00000000000E+00 0. -1.
         -1    1    1    2    0  501 -0.21892047945E+02 -0.12371428914E+02  0.91345390228E+02  0.94743307587E+02  0.00000000000E+00 0.  1.
</event>
<event>
 4    1  0.6935156E+001  0.2635975E+02  0.7546771E-02  0.1454148E+00
          2   -1    0    0  502    0  0.00000000000E+00  0.00000000000E+00  0.28390361253E+03  0.28390361253E+03  0.00000000000E+00 0.  1.
         -2   -1    0    0    0  501 -0.00000000000E+00 -0.00000000000E+00 -0.31538711773E+01  0.31538711773E+01  0.00000000000E+00 0. -1.
          1    1    1    2  502    0 -0.21847797172E+02  0.14748220311E+02  0.72446263010E+02  0.77092783500E+02  0.00000000000E+00 0. -1.
         -1    1    1    2    0  501  0.21847797172E+02 -0.14748220311E+02  0.20830347835E+03  0.20996470021E+03  0.00000000000E+00 0.  1.
</event>
<event>
 4    1  0.6935156E+001  0.2187648E+02  0.7546771E-02  0.1507110E+00
          2   -1    0    0  502    0  0.00000000000E+00  0.00000000000E+00  0.70733172557E+00  0.70733172557E+00  0.00000000000E+00 0.  1.
         -2   -1    0    0    0  501 -0.00000000000E+00 -0.00000000000E+00 -0.75878305236E+03  0.75878305236E+03  0.00000000000E+00 0. -1.
          1    1    1    2  502    0 -0.25366458628E+00 -0.21875005958E+02 -0.25406199471E+03  0.25500211251E+03  0.00000000000E+00 0. -1.
         -1    1    1    2    0  501  0.25366458628E+00  0.21875005958E+02 -0.50401372593E+03  0.50448827158E+03  0.00000000000E+00 0.  1.
</event>
<event>
 4    1  0.6935156E+001  0.2059663E+02  0.7546771E-02  0.1525103E+00
          2   -1    0    0  502    0  0.00000000000E+00  0.00000000000E+00  0.11098964194E+04  0.11098964194E+04  0.00000000000E+00 0.  1.
         -2   -1    0    0    0  501 -0.00000000000E+00 -0.00000000000E+00 -0.38271662752E+00  0.38271662752E+00  0.00000000000E+00 0. -1.
          1    1    1    2  502    0  0.80841258456E+01 -0.18943808340E+02  0.57482049778E+03  0.57518938241E+03  0.00000000000E+00 0. -1.
         -1    1    1    2    0  501 -0.80841258456E+01  0.18943808340E+02  0.53469320503E+03  0.53508975366E+03  0.00000000000E+00 0.  1.
</event>
<event>
 4    1  0.6935156E+001  0.2244951E+02  0.7546771E-02  0.1499529E+00
          2   -1    0    0  502    0  0.00000000000E+00  0.00000000000E+00  0.62158623414E+03  0.62158623414E+03  0.00000000000E+00 0. -1.
         -2   -1    0    0    0  501 -0.00000000000E+00 -0.00000000000E+00 -0.95542157762E+00  0.95542157762E+00  0.00000000000E+00 0.  1.
          1    1    1    2  502    0  0.35236361768E+01 -0.22171258099E+02  0.43142007279E+03  0.43200377302E+03  0.00000000000E+00 0. -1.
         -1    1    1    2    0  501 -0.35236361768E+01  0.22171258099E+02  0.18921073977E+03  0.19053788269E+03  0.00000000000E+00 0.  1.
</event>
<event>
 4    1  0.6935156E+001  0.2247770E+02  0.7546771E-02  0.1499163E+00
          2   -1    0    0  502    0  0.00000000000E+00  0.00000000000E+00  0.20687819093E+04  0.20687819093E+04  0.00000000000E+00 0. -1.
         -2   -1    0    0    0  501 -0.00000000000E+00 -0.00000000000E+00 -0.25778795763E+00  0.25778795763E+00  0.00000000000E+00 0.  1.
          1    1    1    2  502    0  0.22448106801E+02 -0.11530291614E+01  0.12715603864E+04  0.12717590429E+04  0.00000000000E+00 0. -1.
         -1    1    1    2    0  501 -0.22448106801E+02  0.11530291614E+01  0.79696373493E+03  0.79728065433E+03  0.00000000000E+00 0.  1.
</event>
<event>
 4    1  0.6935156E+001  0.2638249E+02  0.7546771E-02  0.1453912E+00
          2   -1    0    0  502    0  0.00000000000E+00  0.00000000000E+00  0.22633680654E+03  0.22633680654E+03  0.00000000000E+00 0.  1.
         -2   -1    0    0    0  501 -0.00000000000E+00 -0.00000000000E+00 -0.38181265290E+01  0.38181265290E+01  0.00000000000E+00 0. -1.
          1    1    1    2  502    0 -0.14477506952E+02  0.22055335690E+02  0.60498185506E+02  0.66000503706E+02  0.00000000000E+00 0. -1.
         -1    1    1    2    0  501  0.14477506952E+02 -0.22055335690E+02  0.16202049450E+03  0.16415442936E+03  0.00000000000E+00 0.  1.
</event>
<event>
 4    1  0.6935156E+001  0.2979199E+02  0.7546771E-02  0.1421413E+00
          2   -1    0    0  502    0  0.00000000000E+00  0.00000000000E+00  0.23880171916E+02  0.23880171916E+02  0.00000000000E+00 0. -1.
         -2   -1    0    0    0  501 -0.00000000000E+00 -0.00000000000E+00 -0.37751037125E+02  0.37751037125E+02  0.00000000000E+00 0.  1.
          1    1    1    2  502    0  0.28835930618E+02 -0.74867900756E+01 -0.10767145790E+02  0.31677978924E+02  0.00000000000E+00 0.  1.
         -1    1    1    2    0  501 -0.28835930618E+02  0.74867900756E+01 -0.31037194193E+01  0.29953230118E+02  0.00000000000E+00 0. -1.
</event>
<event>
 4    1  0.6935156E+001  0.2113392E+02  0.7546771E-02  0.1517361E+00
          2   -1    0    0  502    0  0.00000000000E+00  0.00000000000E+00  0.91846986005E+03  0.91846986005E+03  0.00000000000E+00 0. -1.
         -2   -1    0    0    0  501 -0.00000000000E+00 -0.00000000000E+00 -0.15617997613E+01  0.15617997613E+01  0.00000000000E+00 0.  1.
          1    1    1    2  502    0  0.20323096473E+02  0.57977965541E+01  0.84019368961E+03  0.84045944504E+03  0.00000000000E+00 0. -1.
         -1    1    1    2    0  501 -0.20323096473E+02 -0.57977965541E+01  0.76714370682E+02  0.79572214776E+02  0.00000000000E+00 0.  1.
</event>
<event>
 4    1  0.6935156E+001  0.2113555E+02  0.7546771E-02  0.1517338E+00
          2   -1    0    0  502    0  0.00000000000E+00  0.00000000000E+00  0.59590873331E+02  0.59590873331E+02  0.00000000000E+00 0. -1.
         -2   -1    0    0    0  501 -0.00000000000E+00 -0.00000000000E+00 -0.33933123150E+02  0.33933123150E+02  0.00000000000E+00 0.  1.
          1    1    1    2  502    0  0.13505127871E+02 -0.16258008614E+02 -0.28445997543E+02  0.35438483307E+02  0.00000000000E+00 0.  1.
         -1    1    1    2    0  501 -0.13505127871E+02  0.16258008614E+02  0.54103747724E+02  0.58085513174E+02  0.00000000000E+00 0. -1.
</event>
<event>
 4    1  0.6935156E+001  0.4301038E+02  0.7546771E-02  0.1331694E+00
          2   -1    0    0  502    0  0.00000000000E+00  0.00000000000E+00  0.27210196435E+04  0.27210196435E+04  0.00000000000E+00 0. -1.
         -2   -1    0    0    0  501 -0.00000000000E+00 -0.00000000000E+00 -0.79805363221E+00  0.79805363221E+00  0.00000000000E+00 0.  1.
          1    1    1    2  502    0  0.33159237862E+02  0.27392665109E+02  0.18838595942E+04  0.18843505151E+04  0.00000000000E+00 0. -1.
         -1    1    1    2    0  501 -0.33159237862E+02 -0.27392665109E+02  0.83636199570E+03  0.83746718205E+03  0.00000000000E+00 0.  1.
</event>
<event>
 4    1  0.6935156E+001  0.2251515E+02  0.7546771E-02  0.1498678E+00
          2   -1    0    0  502    0  0.00000000000E+00  0.00000000000E+00  0.30384867299E+01  0.30384867299E+01  0.00000000000E+00 0.  1.
         -2   -1    0    0    0  501 -0.00000000000E+00 -0.00000000000E+00 -0.50699591127E+03  0.50699591127E+03  0.00000000000E+00 0. -1.
          1    1    1    2  502    0  0.72988592254E+01  0.21299265513E+02 -0.46086414753E+03  0.46141379968E+03  0.00000000000E+00 0. -1.
         -1    1    1    2    0  501 -0.72988592254E+01 -0.21299265513E+02 -0.43093277007E+02  0.48620598316E+02  0.00000000000E+00 0.  1.
</event>
<event>
 4    1  0.6935156E+001  0.2556969E+02  0.7546771E-02  0.1462530E+00
          2   -1    0    0  502    0  0.00000000000E+00  0.00000000000E+00  0.17941131192E+02  0.17941131192E+02  0.00000000000E+00 0. -1.
         -2   -1    0    0    0  501 -0.00000000000E+00 -0.00000000000E+00 -0.39921278288E+02  0.39921278288E+02  0.00000000000E+00 0.  1.
          1    1    1    2  502    0 -0.22900132984E+02  0.11375095393E+02 -0.19531201015E+02  0.32175715983E+02  0.00000000000E+00 0. -1.
         -1    1    1    2    0  501  0.22900132984E+02 -0.11375095393E+02 -0.24489460806E+01  0.25686693497E+02  0.00000000000E+00 0.  1.
</event>
<event>
 4    1  0.6935156E+001  0.3128185E+02  0.7546771E-02  0.1408775E+00
          2   -1    0    0  502    0  0.00000000000E+00  0.00000000000E+00  0.24834954398E+03  0.24834954398E+03  0.00000000000E+00 0.  1.
         -2   -1    0    0    0  501 -0.00000000000E+00 -0.00000000000E+00 -0.39406644285E+01  0.39406644285E+01  0.00000000000E+00 0. -1.
          1    1    1    2  502    0  0.31184809884E+02 -0.24620734403E+01  0.12087903777E+03  0.12486110662E+03  0.00000000000E+00 0.  1.
         -1    1    1    2    0  501 -0.31184809884E+02  0.24620734403E+01  0.12352984178E+03  0.12742910179E+03  0.00000000000E+00 0. -1.
</event>
<event>
 4    1  0.6935156E+001  0.2160321E+02  0.7546771E-02  0.1510824E+00
          2   -1    0    0  502    0  0.00000000000E+00  0.00000000000E+00  0.86965118684E+01  0.86965118684E+01  0.00000000000E+00 0. -1.
         -2   -1    0    0    0  501 -0.00000000000E+00 -0.00000000000E+00 -0.78312170915E+02  0.78312170915E+02  0.00000000000E+00 0.  1.
          1    1    1    2  502    0 -0.21412044615E+02 -0.28675810349E+01 -0.10401575114E+02  0.23976893887E+02  0.00000000000E+00 0. -1.
         -1    1    1    2    0  501  0.21412044615E+02  0.28675810349E+01 -0.59214083932E+02  0.63031788897E+02  0.00000000000E+00 0.  1.
</event>
<event>
 4    1  0.6935156E+001  0.2497952E+02  0.7546771E-02  0.1469033E+00
          2   -1    0    0  502    0  0.00000000000E+00  0.00000000000E+00  0.40652240260E+02  0.40652240260E+02  0.00000000000E+00 0.  1.
         -2   -1    0    0    0  501 -0.00000000000E+00 -0.00000000000E+00 -0.17555951196E+02  0.17555951196E+02  0.00000000000E+00 0. -1.
          1    1    1    2  502    0  0.40420589880E+01  0.24650315553E+02  0.21866869577E+02  0.33198437958E+02  0.00000000000E+00 0.  1.
         -1    1    1    2    0  501 -0.40420589880E+01 -0.24650315553E+02  0.12294194865E+01  0.25009753498E+02  0.00000000000E+00 0. -1.
</event>
<event>
 4    1  0.6935156E+001  0.3966011E+02  0.7546771E-02  0.1350489E+00
          2   -1    0    0  502    0  0.00000000000E+00  0.00000000000E+00  0.89385918609E+03  0.89385918609E+03  0.00000000000E+00 0.  1.
         -2   -1    0    0    0  501 -0.00000000000E+00 -0.00000000000E+00 -0.32029670811E+01  0.32029670811E+01  0.00000000000E+00 0. -1.
          1    1    1    2  502    0 -0.39514306599E+02 -0.33975850722E+01  0.14424273901E+03  0.14959576120E+03  0.00000000000E+00 0. -1.
         -1    1    1    2    0  501  0.39514306599E+02  0.33975850722E+01  0.74641347999E+03  0.74746639197E+03  0.00000000000E+00 0.  1.
</event>
<event>
 4    1  0.6935156E+001  0.2020302E+02  0.7546771E-02  0.1530954E+00
          2   -1    0    0  502    0  0.00000000000E+00  0.00000000000E+00  0.41389428803E+02  0.41389428803E+02  0.00000000000E+00 0. -1.
         -2   -1    0    0    0  501 -0.00000000000E+00 -0.00000000000E+00 -0.10176708963E+02  0.10176708963E+02  0.00000000000E+00 0.  1.
          1    1    1    2  502    0 -0.44073879304E+01  0.19716417975E+02  0.11068779672E+02  0.23036494732E+02  0.00000000000E+00 0. -1.
         -1    1    1    2    0  501  0.44073879304E+01 -0.19716417975E+02  0.20143940167E+02  0.28529643033E+02  0.00000000000E+00 0.  1.
</event>
<event>
 4    1  0.6935156E+001  0.2633793E+02  0.7546771E-02  0.1454374E+00
          2   -1    0    0  502    0  0.00000000000E+00  0.00000000000E+00  0.20673286429E+03  0.20673286429E+03  0.00000000000E+00 0. -1.
         -2   -1    0    0    0  501 -0.00000000000E+00 -0.00000000000E+00 -0.36032882801E+01  0.36032882801E+01  0.00000000000E+00 0.  1.
          1    1    1    2  502    0  0.22961559201E+02 -0.12901689654E+02  0.12914498701E+03  0.13180331736E+03  0.00000000000E+00 0. -1.
         -1    1    1    2    0  501 -0.22961559201E+02  0.12901689654E+02  0.73984588993E+02  0.78532835205E+02  0.00000000000E+00 0.  1.
</event>
<event>
 4    1  0.6935156E+001  0.2203889E+02  0.7546771E-02  0.1504933E+00
          2   -1    0    0  502    0  0.00000000000E+00  0.00000000000E+00  0.43793188409E+02  0.43793188409E+02  0.00000000000E+00 0. -1.
         -2   -1    0    0    0  501 -0.00000000000E+00 -0.00000000000E+00 -0.12228544335E+02  0.12228544335E+02  0.00000000000E+00 0.  1.
          1    1    1    2  502    0  0.10503597032E+02  0.19374912717E+02  0.72392857486E+01  0.23197414760E+02  0.00000000000E+00 0.  1.
         -1    1    1    2    0  501 -0.10503597032E+02 -0.19374912717E+02  0.24325358326E+02  0.32824317983E+02  0.00000000000E+00 0. -1.
</event>
<event>
 4    1  0.6935156E+001  0.2594170E+02  0.7546771E-02  0.1458539E+00
          2   -1    0    0  502    0  0.00000000000E+00  0.00000000000E+00  0.30880690521E+03  0.30880690521E+03  0.00000000000E+00 0.  1.
         -2   -1    0    0    0  501 -0.00000000000E+00 -0.00000000000E+00 -0.31229757234E+01  0.31229757234E+01  0.00000000000E+00 0. -1.
          1    1    1    2  502    0  0.25730345661E+02 -0.33047063610E+01  0.23857779432E+03  0.23998403220E+03  0.00000000000E+00 0.  1.
         -1    1    1    2    0  501 -0.25730345661E+02  0.33047063610E+01  0.67106135172E+02  0.71945848732E+02  0.00000000000E+00 0. -1.
</event>
<event>
 4    1  0.6935156E+001  0.2004204E+02  0.7546771E-02  0.1533394E+00
          2   -1    0    0  502    0  0.00000000000E+00  0.00000000000E+00  0.50071532877E+02  0.50071532877E+02  0.00000000000E+00 0. -1.
         -2   -1    0    0    0  501 -0.00000000000E+00 -0.00000000000E+00 -0.11545197563E+02  0.11545197563E+02  0.00000000000E+00 0.  1.
          1    1    1    2  502    0 -0.19810394636E+02 -0.30383534239E+01  0.22445302391E+01  0.20167331087E+02  0.00000000000E+00 0.  1.
         -1    1    1    2    0  501  0.19810394636E+02  0.30383534239E+01  0.36281805076E+02  0.41449399353E+02  0.00000000000E+00 0. -1.
</event>
<event>
 4    1  0.6935156E+001  0.2075770E+02  0.7546771E-02  0.1522753E+00
          2   -1    0    0  502    0  0.00000000000E+00  0.00000000000E+00  0.26177913425E+03  0.26177913425E+03  0.00000000000E+00 0.  1.
         -2   -1    0    0    0  501 -0.00000000000E+00 -0.00000000000E+00 -0.17507004463E+01  0.17507004463E+01  0.00000000000E+00 0. -1.
          1    1    1    2  502    0 -0.17659550602E+02  0.10909728653E+02  0.97787206997E+02  0.99966093047E+02  0.00000000000E+00 0. -1.
         -1    1    1    2    0  501  0.17659550602E+02 -0.10909728653E+02  0.16224122680E+03  0.16356374165E+03  0.00000000000E+00 0.  1.
</event>
<event>
 4    1  0.6935156E+001  0.3600427E+02  0.7546771E-02  0.1373637E+00
          2   -1    0    0  502    0  0.00000000000E+00  0.00000000000E+00  0.17429256239E+04  0.17429256239E+04  0.00000000000E+00 0. -1.
         -2   -1    0    0    0  501 -0.00000000000E+00 -0.00000000000E+00 -0.74457486607E+00  0.74457486607E+00  0.00000000000E+00 0.  1.
          1    1    1    2  502    0  0.14632776066E+02  0.32896643503E+02  0.84213644985E+03  0.84290575242E+03  0.00000000000E+00 0.  1.
         -1    1    1    2    0  501 -0.14632776066E+02 -0.32896643503E+02  0.90004459920E+03  0.90076444637E+03  0.00000000000E+00 0. -1.
</event>
<event>
 4    1  0.6935156E+001  0.2797708E+02  0.7546771E-02  0.1438033E+00
          2   -1    0    0  502    0  0.00000000000E+00  0.00000000000E+00  0.35444127132E+03  0.35444127132E+03  0.00000000000E+00 0. -1.
         -2   -1    0    0    0  501 -0.00000000000E+00 -0.00000000000E+00 -0.24881821713E+01  0.24881821713E+01  0.00000000000E+00 0.  1.
          1    1    1    2  502    0 -0.21515867557E+02 -0.17882519763E+02  0.23583000544E+03  0.23748370162E+03  0.00000000000E+00 0. -1.
         -1    1    1    2    0  501  0.21515867557E+02  0.17882519763E+02  0.11612308370E+03  0.11944575186E+03  0.00000000000E+00 0.  1.
</event>
<event>
 4    1  0.6935156E+001  0.3015690E+02  0.7546771E-02  0.1418238E+00
          2   -1    0    0  502    0  0.00000000000E+00  0.00000000000E+00  0.24983058220E+01  0.24983058220E+01  0.00000000000E+00 0. -1.
         -2   -1    0    0    0  501 -0.00000000000E+00 -0.00000000000E+00 -0.43843428229E+03  0.43843428229E+03  0.00000000000E+00 0.  1.
          1    1    1    2  502    0  0.30058229942E+02 -0.24374515056E+01 -0.12714157296E+03  0.13066911621E+03  0.00000000000E+00 0. -1.
         -1    1    1    2    0  501 -0.30058229942E+02  0.24374515056E+01 -0.30879440351E+03  0.31026347190E+03  0.00000000000E+00 0.  1.
</event>
<event>
 4    1  0.6935156E+001  0.2575853E+02  0.7546771E-02  0.1460494E+00
          2   -1    0    0  502    0  0.00000000000E+00  0.00000000000E+00  0.45308052413E+03  0.45308052413E+03  0.00000000000E+00 0. -1.
         -2   -1    0    0    0  501 -0.00000000000E+00 -0.00000000000E+00 -0.18081360468E+01  0.18081360468E+01  0.00000000000E+00 0.  1.
          1    1    1    2  502    0 -0.99018170361E+01 -0.23779317494E+02  0.32480087995E+03  0.32582067697E+03  0.00000000000E+00 0. -1.
         -1    1    1    2    0  501  0.99018170361E+01  0.23779317494E+02  0.12647150813E+03  0.12906798321E+03  0.00000000000E+00 0.  1.
</event>
<event>
 4    1  0.6935156E+001  0.3102012E+02  0.7546771E-02  0.1410934E+00
          2   -1    0    0  502    0  0.00000000000E+00  0.00000000000E+00  0.19364147437E+03  0.19364147437E+03  0.00000000000E+00 0. -1.
         -2   -1    0    0    0  501 -0.00000000000E+00 -0.00000000000E+00 -0.50426206578E+01  0.50426206578E+01  0.00000000000E+00 0.  1.
          1    1    1    2  502    0 -0.28049187282E+02  0.13247310066E+02  0.10628445299E+03  0.11071871151E+03  0.00000000000E+00 0. -1.
         -1    1    1    2    0  501  0.28049187282E+02 -0.13247310066E+02  0.82314400727E+02  0.87965383522E+02  0.00000000000E+00 0.  1.
</event>
<event>
 4    1  0.6935156E+001  0.2025833E+02  0.7546771E-02  0.1530123E+00
          2   -1    0    0  502    0  0.00000000000E+00  0.00000000000E+00  0.50743225879E+03  0.50743225879E+03  0.00000000000E+00 0. -1.
         -2   -1    0    0    0  501 -0.00000000000E+00 -0.00000000000E+00 -0.82243982463E+00  0.82243982463E+00  0.00000000000E+00 0.  1.
          1    1    1    2  502    0  0.18918943693E+02 -0.72438568837E+01  0.28605847092E+03  0.28677490943E+03  0.00000000000E+00 0.  1.
         -1    1    1    2    0  501 -0.18918943693E+02  0.72438568837E+01  0.22055134805E+03  0.22147978919E+03  0.00000000000E+00 0. -1.
</event>
<event>
 4    1  0.6935156E+001  0.2545691E+02  0.7546771E-02  0.1463756E+00
          2   -1    0    0  502    0  0.00000000000E+00  0.00000000000E+00  0.42007868178E+01  0.42007868178E+01  0.00000000000E+00 0.  1.
         -2   -1    0    0    0  501 -0.00000000000E+00 -0.00000000000E+00 -0.16304378632E+03  0.16304378632E+03  0.00000000000E+00 0. -1.
          1    1    1    2  502    0 -0.24862838947E+02 -0.54674806744E+01 -0.60022874093E+02  0.65198155800E+02  0.00000000000E+00 0.  1.
         -1    1    1    2    0  501  0.24862838947E+02  0.54674806744E+01 -0.98820125410E+02  0.10204641734E+03  0.00000000000E+00 0. -1.
</event>
<event>
 4    1  0.6935156E+001  0.2230986E+02  0.7546771E-02  0.1501351E+00
          2   -1    0    0  502    0  0.00000000000E+00  0.00000000000E+00  0.10355394627E+04  0.10355394627E+04  0.00000000000E+00 0. -1.
         -2   -1    0    0    0  501 -0.00000000000E+00 -0.00000000000E+00 -0.50227599633E+00  0.50227599633E+00  0.00000000000E+00 0.  1.
          1    1    1    2  502    0  0.19880893182E+02 -0.10123247448E+02  0.62501239033E+03  0.62541043973E+03  0.00000000000E+00 0. -1.
         -1    1    1    2    0  501 -0.19880893182E+02  0.10123247448E+02  0.41002479640E+03  0.41063129899E+03  0.00000000000E+00 0.  1.
</event>
<event>
 4    1  0.6935156E+001  0.5026047E+02  0.7546771E-02  0.1297047E+00
          2   -1    0    0  502    0  0.00000000000E+00  0.00000000000E+00  0.77180447304E+03  0.77180447304E+03  0.00000000000E+00 0. -1.
         -2   -1    0    0    0  501 -0.00000000000E+00 -0.00000000000E+00 -0.53762149510E+01  0.53762149510E+01  0.00000000000E+00 0.  1.
          1    1    1    2  502    0 -0.50200272833E+02 -0.24590907875E+01  0.14016407269E+03  0.14890292742E+03  0.00000000000E+00 0.  1.
         -1    1    1    2    0  501  0.50200272833E+02  0.24590907875E+01  0.62626418539E+03  0.62827776057E+03  0.00000000000E+00 0. -1.
</event>
<event>
 4    1  0.6935156E+001  0.5809432E+02  0.7546771E-02  0.1266449E+00
          2   -1    0    0  502    0  0.00000000000E+00  0.00000000000E+00  0.73976718476E+03  0.73976718476E+03  0.00000000000E+00 0.  1.
         -2   -1    0    0    0  501 -0.00000000000E+00 -0.00000000000E+00 -0.59379842126E+01  0.59379842126E+01  0.00000000000E+00 0. -1.
          1    1    1    2  502    0  0.22562723905E+02 -0.53533855888E+02  0.54638636394E+03  0.54946611264E+03  0.00000000000E+00 0. -1.
         -1    1    1    2    0  501 -0.22562723905E+02  0.53533855888E+02  0.18744283661E+03  0.19623905634E+03  0.00000000000E+00 0.  1.
</event>
<event>
 4    1  0.6935156E+001  0.3746073E+02  0.7546771E-02  0.1364045E+00
          2   -1    0    0  502    0  0.00000000000E+00  0.00000000000E+00  0.24147362890E+01  0.24147362890E+01  0.00000000000E+00 0.  1.
         -2   -1    0    0    0  501 -0.00000000000E+00 -0.00000000000E+00 -0.58114732873E+03  0.58114732873E+03  0.00000000000E+00 0. -1.
          1    1    1    2  502    0  0.32022968492E+02  0.19437998180E+02 -0.29019279409E+03  0.29260069041E+03  0.00000000000E+00 0.  1.
         -1    1    1    2    0  501 -0.32022968492E+02 -0.19437998180E+02 -0.28853979835E+03  0.29096137461E+03  0.00000000000E+00 0. -1.
</event>
<event>
 4    1  0.6935156E+001  0.2480943E+02  0.7546771E-02  0.1470947E+00
          2   -1    0    0  502    0  0.00000000000E+00  0.00000000000E+00  0.10057906750E+04  0.10057906750E+04  0.00000000000E+00 0.  1.
         -2   -1    0    0    0  501 -0.00000000000E+00 -0.00000000000E+00 -0.61278130107E+00  0.61278130107E+00  0.00000000000E+00 0. -1.
          1    1    1    2  502    0 -0.24220185204E+02  0.53750004034E+01  0.48421523472E+03  0.48485039088E+03  0.00000000000E+00 0. -1.
         -1    1    1    2    0  501  0.24220185204E+02 -0.53750004034E+01  0.52096265896E+03  0.52155306540E+03  0.00000000000E+00 0.  1.
</event>
<event>
 4    1  0.6935156E+001  0.2910617E+02  0.7546771E-02  0.1427526E+00
          2   -1    0    0  502    0  0.00000000000E+00  0.00000000000E+00  0.86424689924E+03  0.86424689924E+03  0.00000000000E+00 0. -1.
         -2   -1    0    0    0  501 -0.00000000000E+00 -0.00000000000E+00 -0.13301041972E+01  0.13301041972E+01  0.00000000000E+00 0.  1.
          1    1    1    2  502    0  0.67966829918E+01  0.28301490938E+02  0.20949431775E+03  0.21150659200E+03  0.00000000000E+00 0.  1.
         -1    1    1    2    0  501 -0.67966829918E+01 -0.28301490938E+02  0.65342247729E+03  0.65407041144E+03  0.00000000000E+00 0. -1.
</event>
<event>
 4    1  0.6935156E+001  0.2043959E+02  0.7546771E-02  0.1527419E+00
          2   -1    0    0  502    0  0.00000000000E+00  0.00000000000E+00  0.81462408771E+03  0.81462408771E+03  0.00000000000E+00 0. -1.
         -2   -1    0    0    0  501 -0.00000000000E+00 -0.00000000000E+00 -0.77485607255E+00  0.77485607255E+00  0.00000000000E+00 0.  1.
          1    1    1    2  502    0  0.85046225797E+01 -0.18586234013E+02  0.64400118133E+03  0.64432545988E+03  0.00000000000E+00 0. -1.
         -1    1    1    2    0  501 -0.85046225797E+01  0.18586234013E+02  0.16984805031E+03  0.17107348390E+03  0.00000000000E+00 0.  1.
</event>
<event>
 4    1  0.6935156E+001  0.3039644E+02  0.7546771E-02  0.1416182E+00
          2   -1    0    0  502    0  0.00000000000E+00  0.00000000000E+00  0.60092256451E+01  0.60092256451E+01  0.00000000000E+00 0.  1.
         -2   -1    0    0    0  501 -0.00000000000E+00 -0.00000000000E+00 -0.24747946482E+03  0.24747946482E+03  0.00000000000E+00 0. -1.
          1    1    1    2  502    0  0.24940442634E+02  0.17375778713E+02 -0.19873383826E+03  0.20104497466E+03  0.00000000000E+00 0. -1.
         -1    1    1    2    0  501 -0.24940442634E+02 -0.17375778713E+02 -0.42736400912E+02  0.52443715806E+02  0.00000000000E+00 0.  1.
</event>
<event>
 4    1  0.6935156E+001  0.2658689E+02  0.7546771E-02  0.1451803E+00
          2   -1    0    0  502    0  0.00000000000E+00  0.00000000000E+00  0.26596910904E+02  0.26596910904E+02  0.00000000000E+00 0. -1.
         -2   -1    0    0    0  501 -0.00000000000E+00 -0.00000000000E+00 -0.26917043165E+02  0.26917043165E+02  0.00000000000E+00 0.  1.
          1    1    1    2  502    0  0.24508151051E+02 -0.10305982807E+02 -0.31680177694E+01  0.26774971264E+02  0.00000000000E+00 0. -1.
         -1    1    1    2    0  501 -0.24508151051E+02  0.10305982807E+02  0.28478855079E+01  0.26738982805E+02  0.00000000000E+00 0.  1.
</event>
<event>
 4    1  0.6935156E+001  0.2131538E+02  0.7546771E-02  0.1514809E+00
          2   -1    0    0  502    0  0.00000000000E+00  0.00000000000E+00  0.16014188356E+01  0.16014188356E+01  0.00000000000E+00 0. -1.
         -2   -1    0    0    0  501 -0.00000000000E+00 -0.00000000000E+00 -0.31721841607E+03  0.31721841607E+03  0.00000000000E+00 0.  1.
          1    1    1    2  502    0 -0.14096156754E+02  0.15988858770E+02 -0.20961520317E+03  0.21069617614E+03  0.00000000000E+00 0. -1.
         -1    1    1    2    0  501  0.14096156754E+02 -0.15988858770E+02 -0.10600179406E+03  0.10812365877E+03  0.00000000000E+00 0.  1.
</event>
<event>
 4    1  0.6935156E+001  0.6151649E+02  0.7546771E-02  0.1254765E+00
          2   -1    0    0  502    0  0.00000000000E+00  0.00000000000E+00  0.14952391270E+04  0.14952391270E+04  0.00000000000E+00 0.  1.
         -2   -1    0    0    0  501 -0.00000000000E+00 -0.00000000000E+00 -0.30552688997E+01  0.30552688997E+01  0.00000000000E+00 0. -1.
          1    1    1    2  502    0 -0.50336544180E+02 -0.35362569782E+02  0.10564527618E+04  0.10582422770E+04  0.00000000000E+00 0.  1.
         -1    1    1    2    0  501  0.50336544180E+02  0.35362569782E+02  0.43573109638E+03  0.44005211893E+03  0.00000000000E+00 0. -1.
</event>
<event>
 4    1  0.6935156E+001  0.2195440E+02  0.7546771E-02  0.1506062E+00
          2   -1    0    0  502    0  0.00000000000E+00  0.00000000000E+00  0.62520946339E+03  0.62520946339E+03  0.00000000000E+00 0. -1.
         -2   -1    0    0    0  501 -0.00000000000E+00 -0.00000000000E+00 -0.77920902226E+00  0.77920902226E+00  0.00000000000E+00 0.  1.
          1    1    1    2  502    0 -0.50995829943E+01  0.21353915953E+02  0.34446915604E+03  0.34516806766E+03  0.00000000000E+00 0. -1.
         -1    1    1    2    0  501  0.50995829943E+01 -0.21353915953E+02  0.27996109833E+03  0.28082060475E+03  0.00000000000E+00 0.  1.
</event>
<event>
 4    1  0.6935156E+001  0.2017642E+02  0.7546771E-02  0.1531356E+00
          2   -1    0    0  502    0  0.00000000000E+00  0.00000000000E+00  0.99973674250E+03  0.99973674250E+03  0.00000000000E+00 0.  1.
         -2   -1    0    0    0  501 -0.00000000000E+00 -0.00000000000E+00 -0.50085580618E+00  0.50085580618E+00  0.00000000000E+00 0. -1.
          1    1    1    2  502    0 -0.18399143773E+02 -0.82800520567E+01  0.71588774569E+03  0.71617201298E+03  0.00000000000E+00 0.  1.
         -1    1    1    2    0  501  0.18399143773E+02  0.82800520567E+01  0.28334814100E+03  0.28406558532E+03  0.00000000000E+00 0. -1.
</event>
<event>
 4    1  0.6935156E+001  0.2075633E+02  0.7546771E-02  0.1522773E+00
          2   -1    0    0  502    0  0.00000000000E+00  0.00000000000E+00  0.15102332379E+04  0.15102332379E+04  0.00000000000E+00 0. -1.
         -2   -1    0    0    0  501 -0.00000000000E+00 -0.00000000000E+00 -0.28610350965E+00  0.28610350965E+00  0.00000000000E+00 0.  1.
          1    1    1    2  502    0  0.18873647233E+02 -0.86377359883E+01  0.71422139635E+03  0.71452293739E+03  0.00000000000E+00 0.  1.
         -1    1    1    2    0  501 -0.18873647233E+02  0.86377359883E+01  0.79572573809E+03  0.79599640407E+03  0.00000000000E+00 0. -1.
</event>
<event>
 4    1  0.6935156E+001  0.2003311E+02  0.7546771E-02  0.1533530E+00
          2   -1    0    0  502    0  0.00000000000E+00  0.00000000000E+00  0.82204695768E+01  0.82204695768E+01  0.00000000000E+00 0. -1.
         -2   -1    0    0    0  501 -0.00000000000E+00 -0.00000000000E+00 -0.51443732676E+02  0.51443732676E+02  0.00000000000E+00 0.  1.
          1    1    1    2  502    0  0.19934820196E+02 -0.19820692624E+01 -0.14874827150E+02  0.24951676047E+02  0.00000000000E+00 0. -1.
         -1    1    1    2    0  501 -0.19934820196E+02  0.19820692624E+01 -0.28348435950E+02  0.34712526206E+02  0.00000000000E+00 0.  1.
</event>
<event>
 4    1  0.6935156E+001  0.4610258E+02  0.7546771E-02  0.1316016E+00
          2   -1    0    0  502    0  0.00000000000E+00  0.00000000000E+00  0.80030047532E+03  0.80030047532E+03  0.00000000000E+00 0. -1.
         -2   -1    0    0    0  501 -0.00000000000E+00 -0.00000000000E+00 -0.34925746718E+01  0.34925746718E+01  0.00000000000E+00 0.  1.
          1    1    1    2  502    0  0.16805160835E+02 -0.42930578075E+02  0.20168670525E+03  0.20688879873E+03  0.00000000000E+00 0.  1.
         -1    1    1    2    0  501 -0.16805160835E+02  0.42930578075E+02  0.59512119540E+03  0.59690425127E+03  0.00000000000E+00 0. -1.
</event>
<event>
 4    1  0.6935156E+001  0.3551732E+02  0.7546771E-02  0.1376962E+00
          2   -1    0    0  502    0  0.00000000000E+00  0.00000000000E+00  0.14354228106E+02  0.14354228106E+02  0.00000000000E+00 0. -1.
         -2   -1    0    0    0  501 -0.00000000000E+00 -0.00000000000E+00 -0.87912788552E+02  0.87912788552E+02  0.00000000000E+00 0.  1.
          1    1    1    2  502    0 -0.34368492334E+02  0.89602968415E+01 -0.35824433891E+02  0.50446707013E+02  0.00000000000E+00 0.  1.
         -1    1    1    2    0  501  0.34368492334E+02 -0.89602968415E+01 -0.37734126555E+02  0.51820309645E+02  0.00000000000E+00 0. -1.
</event>
<event>
 4    1  0.6935156E+001  0.3073284E+02  0.7546771E-02  0.1413333E+00
          2   -1    0    0  502    0  0.00000000000E+00  0.00000000000E+00  0.45823944990E+02  0.45823944990E+02  0.00000000000E+00 0. -1.
         -2   -1    0    0    0  501 -0.00000000000E+00 -0.00000000000E+00 -0.20981240591E+02  0.20981240591E+02  0.00000000000E+00 0.  1.
          1    1    1    2  502    0 -0.27614671193E+02  0.13488416935E+02  0.16854586459E+02  0.35051170326E+02  0.00000000000E+00 0. -1.
         -1    1    1    2    0  501  0.27614671193E+02 -0.13488416935E+02  0.79881179397E+01  0.31754015254E+02  0.00000000000E+00 0.  1.
</event>
<event>
 4    1  0.6935156E+001  0.2118781E+02  0.7546771E-02  0.1516600E+00
          2   -1    0    0  502    0  0.00000000000E+00  0.00000000000E+00  0.75053368827E+02  0.75053368827E+02  0.00000000000E+00 0.  1.
         -2   -1    0    0    0  501 -0.00000000000E+00 -0.00000000000E+00 -0.62980022231E+01  0.62980022231E+01  0.00000000000E+00 0. -1.
          1    1    1    2  502    0 -0.38063851397E+01  0.20843096040E+02  0.25257583437E+02  0.32967692388E+02  0.00000000000E+00 0. -1.
         -1    1    1    2    0  501  0.38063851397E+01 -0.20843096040E+02  0.43497783167E+02  0.48383678661E+02  0.00000000000E+00 0.  1.
</event>
<event>
 4    1  0.6935156E+001  0.2321057E+02  0.7546771E-02  0.1489871E+00
          2   -1    0    0  502    0  0.00000000000E+00  0.00000000000E+00  0.27395983162E+03  0.27395983162E+03  0.00000000000E+00 0. -1.
         -2   -1    0    0    0  501 -0.00000000000E+00 -0.00000000000E+00 -0.19837859653E+01  0.19837859653E+01  0.00000000000E+00 0.  1.
          1    1    1    2  502    0  0.19207862584E+02 -0.13030289758E+02  0.14888297606E+03  0.15068135584E+03  0.00000000000E+00 0. -1.
         -1    1    1    2    0  501 -0.19207862584E+02  0.13030289758E+02  0.12309306959E+03  0.12526226175E+03  0.00000000000E+00 0.  1.
</event>
<event>
 4    1  0.6935156E+001  0.6673654E+02  0.7546771E-02  0.1238516E+00
          2   -1    0    0  502    0  0.00000000000E+00  0.00000000000E+00  0.29556883499E+04  0.29556883499E+04  0.00000000000E+00 0.  1.
         -2   -1    0    0    0  501 -0.00000000000E+00 -0.00000000000E+00 -0.15078750655E+01  0.15078750655E+01  0.00000000000E+00 0. -1.
          1    1    1    2  502    0 -0.46731344793E+02  0.47643961016E+02  0.14384535125E+04  0.14400007893E+04  0.00000000000E+00 0. -1.
         -1    1    1    2    0  501  0.46731344793E+02 -0.47643961016E+02  0.15157269623E+04  0.15171954357E+04  0.00000000000E+00 0.  1.
</event>
<event>
 4    1  0.6935156E+001  0.2882533E+02  0.7546771E-02  0.1430086E+00
          2   -1    0    0  502    0  0.00000000000E+00  0.00000000000E+00  0.55962452795E+03  0.55962452795E+03  0.00000000000E+00 0. -1.
         -2   -1    0    0    0  501 -0.00000000000E+00 -0.00000000000E+00 -0.15952040812E+01  0.15952040812E+01  0.00000000000E+00 0.  1.
          1    1    1    2  502    0  0.28594893185E+02  0.36375145232E+01  0.20517383566E+03  0.20718880826E+03  0.00000000000E+00 0.  1.
         -1    1    1    2    0  501 -0.28594893185E+02 -0.36375145232E+01  0.35285548821E+03  0.35403092377E+03  0.00000000000E+00 0. -1.
</event>
<event>
 4    1  0.6935156E+001  0.2900616E+02  0.7546771E-02  0.1428434E+00
          2   -1    0    0  502    0  0.00000000000E+00  0.00000000000E+00  0.68406513413E+01  0.68406513413E+01  0.00000000000E+00 0.  1.
         -2   -1    0    0    0  501 -0.00000000000E+00 -0.00000000000E+00 -0.22284315186E+03  0.22284315186E+03  0.00000000000E+00 0. -1.
          1    1    1    2  502    0 -0.19663148301E+02 -0.21324121156E+02 -0.18487417495E+03  0.18713582796E+03  0.00000000000E+00 0. -1.
         -1    1    1    2    0  501  0.19663148301E+02  0.21324121156E+02 -0.31128325573E+02  0.42547975242E+02  0.00000000000E+00 0.  1.
</event>
<event>
 4    1  0.6935156E+001  0.3392947E+02  0.7546771E-02  0.1388250E+00
          2   -1    0    0  502    0  0.00000000000E+00  0.00000000000E+00  0.56828928974E+01  0.56828928974E+01  0.00000000000E+00 0. -1.
         -2   -1    0    0    0  501 -0.00000000000E+00 -0.00000000000E+00 -0.22874127188E+03  0.22874127188E+03  0.00000000000E+00 0.  1.
          1    1    1    2  502    0  0.18917952496E+02  0.28165931622E+02 -0.15117305577E+03  0.15493386144E+03  0.00000000000E+00 0.  1.
         -1    1    1    2    0  501 -0.18917952496E+02 -0.28165931622E+02 -0.71885323213E+02  0.79490303335E+02  0.00000000000E+00 0. -1.
</event>
<event>
 4    1  0.6935156E+001  0.4136525E+02  0.7546771E-02  0.1340666E+00
          2   -1    0    0  502    0  0.00000000000E+00  0.00000000000E+00  0.17780325405E+03  0.17780325405E+03  0.00000000000E+00 0.  1.
         -2   -1    0    0    0  501 -0.00000000000E+00 -0.00000000000E+00 -0.10786563255E+02  0.10786563255E+02  0.00000000000E+00 0. -1.
          1    1    1    2  502    0 -0.41104832248E+02 -0.46343056402E+01  0.52544546606E+02  0.66873114186E+02  0.00000000000E+00 0. -1.
         -1    1    1    2    0  501  0.41104832248E+02  0.46343056402E+01  0.11447214419E+03  0.12171670312E+03  0.00000000000E+00 0.  1.
</event>
<event>
 4    1  0.6935156E+001  0.2520032E+02  0.7546771E-02  0.1466575E+00
          2   -1    0    0  502    0  0.00000000000E+00  0.00000000000E+00  0.16339854443E+04  0.16339854443E+04  0.00000000000E+00 0.  1.
         -2   -1    0    0    0  501 -0.00000000000E+00 -0.00000000000E+00 -0.46266770432E+00  0.46266770432E+00  0.00000000000E+00 0. -1.
          1    1    1    2  502    0 -0.21644277898E+02 -0.12906636694E+02  0.48990218268E+03  0.49054990025E+03  0.00000000000E+00 0. -1.
         -1    1    1    2    0  501  0.21644277898E+02  0.12906636694E+02  0.11436205940E+04  0.11438982118E+04  0.00000000000E+00 0.  1.
</event>
<event>
 4    1  0.6935156E+001  0.2293169E+02  0.7546771E-02  0.1493358E+00
          2   -1    0    0  502    0  0.00000000000E+00  0.00000000000E+00  0.34349283356E+03  0.34349283356E+03  0.00000000000E+00 0.  1.
         -2   -1    0    0    0  501 -0.00000000000E+00 -0.00000000000E+00 -0.16490499682E+01  0.16490499682E+01  0.00000000000E+00 0. -1.
          1    1    1    2  502    0 -0.22823831911E+02 -0.22214674396E+01  0.21710883088E+03  0.21831652862E+03  0.00000000000E+00 0.  1.
         -1    1    1    2    0  501  0.22823831911E+02  0.22214674396E+01  0.12473495271E+03  0.12682535491E+03  0.00000000000E+00 0. -1.
</event>
<event>
 4    1  0.6935156E+001  0.2923312E+02  0.7546771E-02  0.1426380E+00
          2   -1    0    0  502    0  0.00000000000E+00  0.00000000000E+00  0.34949979772E+03  0.34949979772E+03  0.00000000000E+00 0.  1.
         -2   -1    0    0    0  501 -0.00000000000E+00 -0.00000000000E+00 -0.31322301974E+01  0.31322301974E+01  0.00000000000E+00 0. -1.
          1    1    1    2  502    0  0.29215489818E+02  0.10151569742E+01  0.90604275332E+02  0.95203519354E+02  0.00000000000E+00 0. -1.
         -1    1    1    2    0  501 -0.29215489818E+02 -0.10151569742E+01  0.25576329219E+03  0.25742850856E+03  0.00000000000E+00 0.  1.
</event>
<event>
 4    1  0.6935156E+001  0.4029732E+02  0.7546771E-02  0.1346752E+00
          2   -1    0    0  502    0  0.00000000000E+00  0.00000000000E+00  0.35751518732E+02  0.35751518732E+02  0.00000000000E+00 0.  1.
         -2   -1    0    0    0  501 -0.00000000000E+00 -0.00000000000E+00 -0.56930774051E+02  0.56930774051E+02  0.00000000000E+00 0. -1.
          1    1    1    2  502    0  0.37845288182E+02  0.13842258126E+02 -0.31426110056E+02  0.51102586440E+02  0.00000000000E+00 0. -1.
         -1    1    1    2    0  501 -0.37845288182E+02 -0.13842258126E+02  0.10246854738E+02  0.41579706343E+02  0.00000000000E+00 0.  1.
</event>
<event>
 4    1  0.6935156E+001  0.2326005E+02  0.7546771E-02  0.1489258E+00
          2   -1    0    0  502    0  0.00000000000E+00  0.00000000000E+00  0.41463580995E+02  0.41463580995E+02  0.00000000000E+00 0. -1.
         -2   -1    0    0    0  501 -0.00000000000E+00 -0.00000000000E+00 -0.13278611826E+02  0.13278611826E+02  0.00000000000E+00 0.  1.
          1    1    1    2  502    0 -0.22815699530E+02 -0.45248006895E+01  0.17697088481E+02  0.29226989360E+02  0.00000000000E+00 0.  1.
         -1    1    1    2    0  501  0.22815699530E+02  0.45248006895E+01  0.10487880688E+02  0.25515203461E+02  0.00000000000E+00 0. -1.
</event>
<event>
 4    1  0.6935156E+001  0.2241534E+02  0.7546771E-02  0.1499973E+00
          2   -1    0    0  502    0  0.00000000000E+00  0.00000000000E+00  0.10317460599E+01  0.10317460599E+01  0.00000000000E+00 0. -1.
         -2   -1    0    0    0  501 -0.00000000000E+00 -0.00000000000E+00 -0.54068916435E+03  0.54068916435E+03  0.00000000000E+00 0.  1.
          1    1    1    2  502    0  0.77220640249E+00 -0.22402032896E+02 -0.18446645905E+03  0.18582336208E+03  0.00000000000E+00 0. -1.
         -1    1    1    2    0  501 -0.77220640249E+00  0.22402032896E+02 -0.35519095924E+03  0.35589754833E+03  0.00000000000E+00 0.  1.
</event>
<event>
 4    1  0.6935156E+001  0.2708786E+02  0.7546771E-02  0.1446728E+00
          2   -1    0    0  502    0  0.00000000000E+00  0.00000000000E+00  0.12164576492E+03  0.12164576492E+03  0.00000000000E+00 0.  1.
         -2   -1    0    0    0  501 -0.00000000000E+00 -0.00000000000E+00 -0.13025807377E+02  0.13025807377E+02  0.00000000000E+00 0. -1.
          1    1    1    2  502    0 -0.46733678704E+01 -0.26681671708E+02  0.49693882548E+01  0.27539912708E+02  0.00000000000E+00 0. -1.
         -1    1    1    2    0  501  0.46733678704E+01  0.26681671708E+02  0.10365056929E+03  0.10713165959E+03  0.00000000000E+00 0.  1.
</event>
<event>
 4    1  0.6935156E+001  0.3018376E+02  0.7546771E-02  0.1418006E+00
          2   -1    0    0  502    0  0.00000000000E+00  0.00000000000E+00  0.24360391746E+03  0.24360391746E+03  0.00000000000E+00 0. -1.
         -2   -1    0    0    0  501 -0.00000000000E+00 -0.00000000000E+00 -0.10944893101E+02  0.10944893101E+02  0.00000000000E+00 0.  1.
          1    1    1    2  502    0 -0.12356734764E+02 -0.27538525630E+02  0.21959411541E+03  0.22165882525E+03  0.00000000000E+00 0. -1.
         -1    1    1    2    0  501  0.12356734764E+02  0.27538525630E+02  0.13064908948E+02  0.32889985310E+02  0.00000000000E+00 0.  1.
</event>
<event>
 4    1  0.6935156E+001  0.4196415E+02  0.7546771E-02  0.1337345E+00
          2   -1    0    0  502    0  0.00000000000E+00  0.00000000000E+00  0.69203809409E+03  0.69203809409E+03  0.00000000000E+00 0.  1.
         -2   -1    0    0    0  501 -0.00000000000E+00 -0.00000000000E+00 -0.26948533191E+01  0.26948533191E+01  0.00000000000E+00 0. -1.
          1    1    1    2  502    0 -0.38166541815E+02 -0.17444338407E+02  0.26266096317E+03  0.26599205145E+03  0.00000000000E+00 0. -1.
         -1    1    1    2    0  501  0.38166541815E+02  0.17444338407E+02  0.42668227760E+03  0.42874089596E+03  0.00000000000E+00 0.  1.
</event>
<event>
 4    1  0.6935156E+001  0.3410531E+02  0.7546771E-02  0.1386965E+00
          2   -1    0    0  502    0  0.00000000000E+00  0.00000000000E+00  0.15704699617E+04  0.15704699617E+04  0.00000000000E+00 0.  1.
         -2   -1    0    0    0  501 -0.00000000000E+00 -0.00000000000E+00 -0.15866054954E+01  0.15866054954E+01  0.00000000000E+00 0. -1.
          1    1    1    2  502    0 -0.11343287520E+02 -0.32163675808E+02  0.13583953783E+04  0.13588234529E+04  0.00000000000E+00 0.  1.
         -1    1    1    2    0  501  0.11343287520E+02  0.32163675808E+02  0.21048797787E+03  0.21323311432E+03  0.00000000000E+00 0. -1.
</event>
<event>
 4    1  0.6935156E+001  0.2535421E+02  0.7546771E-02  0.1464880E+00
          2   -1    0    0  502    0  0.00000000000E+00  0.00000000000E+00  0.24847811317E+02  0.24847811317E+02  0.00000000000E+00 0. -1.
         -2   -1    0    0    0  501 -0.00000000000E+00 -0.00000000000E+00 -0.32614242822E+02  0.32614242822E+02  0.00000000000E+00 0.  1.
          1    1    1    2  502    0  0.16508104901E+02 -0.19243663141E+02  0.91810200469E+01  0.26965296728E+02  0.00000000000E+00 0. -1.
         -1    1    1    2    0  501 -0.16508104901E+02  0.19243663141E+02 -0.16947451551E+02  0.30496757411E+02  0.00000000000E+00 0.  1.
</event>
<event>
 4    1  0.6935156E+001  0.2435619E+02  0.7546771E-02  0.1476136E+00
          2   -1    0    0  502    0  0.00000000000E+00  0.00000000000E+00  0.63073419717E+02  0.63073419717E+02  0.00000000000E+00 0. -1.
         -2   -1    0    0    0  501 -0.00000000000E+00 -0.00000000000E+00 -0.12541602398E+02  0.12541602398E+02  0.00000000000E+00 0.  1.
          1    1    1    2  502    0 -0.13696905676E+02  0.20139984613E+02  0.44172393475E+02  0.50442289308E+02  0.00000000000E+00 0. -1.
         -1    1    1    2    0  501  0.13696905676E+02 -0.20139984613E+02  0.63594238438E+01  0.25172732806E+02  0.00000000000E+00 0.  1.
</event>
<event>
 4    1  0.6935156E+001  0.3180610E+02  0.7546771E-02  0.1404525E+00
          2   -1    0    0  502    0  0.00000000000E+00  0.00000000000E+00  0.45806232844E+03  0.45806232844E+03  0.00000000000E+00 0. -1.
         -2   -1    0    0    0  501 -0.00000000000E+00 -0.00000000000E+00 -0.22086593867E+01  0.22086593867E+01  0.00000000000E+00 0.  1.
          1    1    1    2  502    0  0.29401052822E+02  0.12132855682E+02  0.22991578548E+03  0.23210535649E+03  0.00000000000E+00 0. -1.
         -1    1    1    2    0  501 -0.29401052822E+02 -0.12132855682E+02  0.22593788357E+03  0.22816563135E+03  0.00000000000E+00 0.  1.
</event>
<event>
 4    1  0.6935156E+001  0.2625741E+02  0.7546771E-02  0.1455214E+00
          2   -1    0    0  502    0  0.00000000000E+00  0.00000000000E+00  0.23914837271E+02  0.23914837271E+02  0.00000000000E+00 0.  1.
         -2   -1    0    0    0  501 -0.00000000000E+00 -0.00000000000E+00 -0.11863061288E+03  0.11863061288E+03  0.00000000000E+00 0. -1.
          1    1    1    2  502    0 -0.14862888045E+02 -0.21645920692E+02 -0.10936849529E+03  0.11247630455E+03  0.00000000000E+00 0. -1.
         -1    1    1    2    0  501  0.14862888045E+02  0.21645920692E+02  0.14652719674E+02  0.30069145606E+02  0.00000000000E+00 0.  1.
</event>
<event>
 4    1  0.6935156E+001  0.3676689E+02  0.7546771E-02  0.1368549E+00
          2   -1    0    0  502    0  0.00000000000E+00  0.00000000000E+00  0.20570798143E+02  0.20570798143E+02  0.00000000000E+00 0. -1.
         -2   -1    0    0    0  501 -0.00000000000E+00 -0.00000000000E+00 -0.65784669634E+02  0.65784669634E+02  0.00000000000E+00 0.  1.
          1    1    1    2  502    0 -0.33781417428E+02  0.14512752521E+02 -0.24014939924E+02  0.43914934689E+02  0.00000000000E+00 0.  1.
         -1    1    1    2    0  501  0.33781417428E+02 -0.14512752521E+02 -0.21198931567E+02  0.42440533088E+02  0.00000000000E+00 0. -1.
</event>
<event>
 4    1  0.6935156E+001  0.3131786E+02  0.7546771E-02  0.1408480E+00
          2   -1    0    0  502    0  0.00000000000E+00  0.00000000000E+00  0.54990612534E+03  0.54990612534E+03  0.00000000000E+00 0. -1.
         -2   -1    0    0    0  501 -0.00000000000E+00 -0.00000000000E+00 -0.18014365203E+01  0.18014365203E+01  0.00000000000E+00 0.  1.
          1    1    1    2  502    0 -0.11387015583E+02  0.29174378290E+02  0.24659774481E+03  0.24857847095E+03  0.00000000000E+00 0. -1.
         -1    1    1    2    0  501  0.11387015583E+02 -0.29174378290E+02  0.30150694401E+03  0.30312909091E+03  0.00000000000E+00 0.  1.
</event>
<event>
 4    1  0.6935156E+001  0.3188540E+02  0.7546771E-02  0.1403890E+00
          2   -1    0    0  502    0  0.00000000000E+00  0.00000000000E+00  0.10788186868E+04  0.10788186868E+04  0.00000000000E+00 0.  1.
         -2   -1    0    0    0  501 -0.00000000000E+00 -0.00000000000E+00 -0.13094617510E+01  0.13094617510E+01  0.00000000000E+00 0. -1.
          1    1    1    2  502    0 -0.10360564974E+02 -0.30155219448E+02  0.25281881124E+03  0.25482156480E+03  0.00000000000E+00 0. -1.
         -1    1    1    2    0  501  0.10360564974E+02  0.30155219448E+02  0.82469041377E+03  0.82530658372E+03  0.00000000000E+00 0.  1.
</event>
<event>
 4    1  0.6935156E+001  0.3433114E+02  0.7546771E-02  0.1385327E+00
          2   -1    0    0  502    0  0.00000000000E+00  0.00000000000E+00  0.43163214225E+02  0.43163214225E+02  0.00000000000E+00 0. -1.
         -2   -1    0    0    0  501 -0.00000000000E+00 -0.00000000000E+00 -0.39360957537E+02  0.39360957537E+02  0.00000000000E+00 0.  1.
          1    1    1    2  502    0  0.16196880893E+02 -0.30270254400E+02  0.24735862862E+02  0.42314183953E+02  0.00000000000E+00 0. -1.
         -1    1    1    2    0  501 -0.16196880893E+02  0.30270254400E+02 -0.20933606174E+02  0.40209987808E+02  0.00000000000E+00 0.  1.
</event>
<event>
 4    1  0.6935156E+001  0.2991150E+02  0.7546771E-02  0.1420367E+00
          2   -1    0    0  502    0  0.00000000000E+00  0.00000000000E+00  0.80744235875E+00  0.80744235875E+00  0.00000000000E+00 0. -1.
         -2   -1    0    0    0  501 -0.00000000000E+00 -0.00000000000E+00 -0.11366970917E+04  0.11366970917E+04  0.00000000000E+00 0.  1.
          1    1    1    2  502    0 -0.36264573032E+01  0.29690853516E+02 -0.65821272394E+03  0.65889201538E+03  0.00000000000E+00 0.  1.
         -1    1    1    2    0  501  0.36264573032E+01 -0.29690853516E+02 -0.47767692537E+03  0.47861251865E+03  0.00000000000E+00 0. -1.
</event>
<event>
 4    1  0.6935156E+001  0.2616823E+02  0.7546771E-02  0.1456147E+00
          2   -1    0    0  502    0  0.00000000000E+00  0.00000000000E+00  0.29564502597E+03  0.29564502597E+03  0.00000000000E+00 0. -1.
         -2   -1    0    0    0  501 -0.00000000000E+00 -0.00000000000E+00 -0.45759112946E+01  0.45759112946E+01  0.00000000000E+00 0.  1.
          1    1    1    2  502    0  0.22998037897E+02  0.12484660476E+02  0.25102121397E+03  0.25238150954E+03  0.00000000000E+00 0. -1.
         -1    1    1    2    0  501 -0.22998037897E+02 -0.12484660476E+02  0.40047900713E+02  0.47839427733E+02  0.00000000000E+00 0.  1.
</event>
<event>
 4    1  0.6935156E+001  0.2041982E+02  0.7546771E-02  0.1527712E+00
          2   -1    0    0  502    0  0.00000000000E+00  0.00000000000E+00  0.49059159736E+01  0.49059159736E+01  0.00000000000E+00 0.  1.
         -2   -1    0    0    0  501 -0.00000000000E+00 -0.00000000000E+00 -0.89650105272E+02  0.89650105272E+02  0.00000000000E+00 0. -1.
          1    1    1    2  502    0 -0.15230457322E+02  0.13601555357E+02 -0.53147556839E+02  0.56935331178E+02  0.00000000000E+00 0. -1.
         -1    1    1    2    0  501  0.15230457322E+02 -0.13601555357E+02 -0.31596632460E+02  0.37620690068E+02  0.00000000000E+00 0.  1.
</event>
<event>
 4    1  0.6935156E+001  0.2379712E+02  0.7546771E-02  0.1482724E+00
          2   -1    0    0  502    0  0.00000000000E+00  0.00000000000E+00  0.15617859657E+02  0.15617859657E+02  0.00000000000E+00 0. -1.
         -2   -1    0    0    0  501 -0.00000000000E+00 -0.00000000000E+00 -0.36391625640E+02  0.36391625640E+02  0.00000000000E+00 0.  1.
          1    1    1    2  502    0  0.18375768882E+02 -0.15120652548E+02 -0.11951049145E+02  0.26629506025E+02  0.00000000000E+00 0. -1.
         -1    1    1    2    0  501 -0.18375768882E+02  0.15120652548E+02 -0.88227168381E+01  0.25379979272E+02  0.00000000000E+00 0.  1.
</event>
<event>
 4    1  0.6935156E+001  0.2929267E+02  0.7546771E-02  0.1425844E+00
          2   -1    0    0  502    0  0.00000000000E+00  0.00000000000E+00  0.12788132092E+04  0.12788132092E+04  0.00000000000E+00 0. -1.
         -2   -1    0    0    0  501 -0.00000000000E+00 -0.00000000000E+00 -0.67098194163E+00  0.67098194163E+00  0.00000000000E+00 0.  1.
          1    1    1    2  502    0  0.29224486002E+02 -0.19974908891E+01  0.63916410306E+03  0.63983498747E+03  0.00000000000E+00 0. -1.
         -1    1    1    2    0  501 -0.29224486002E+02  0.19974908891E+01  0.63897812417E+03  0.63964920364E+03  0.00000000000E+00 0.  1.
</event>
<event>
 4    1  0.6935156E+001  0.4483213E+02  0.7546771E-02  0.1322281E+00
          2   -1    0    0  502    0  0.00000000000E+00  0.00000000000E+00  0.84081837406E+02  0.84081837406E+02  0.00000000000E+00 0. -1.
         -2   -1    0    0    0  501 -0.00000000000E+00 -0.00000000000E+00 -0.51995757090E+02  0.51995757090E+02  0.00000000000E+00 0.  1.
          1    1    1    2  502    0  0.44542051766E+02  0.50917347541E+01  0.66053351954E+02  0.79830855205E+02  0.00000000000E+00 0. -1.
         -1    1    1    2    0  501 -0.44542051766E+02 -0.50917347541E+01 -0.33967271639E+02  0.56246739291E+02  0.00000000000E+00 0.  1.
</event>
<event>
 4    1  0.6935156E+001  0.2788836E+02  0.7546771E-02  0.1438883E+00
          2   -1    0    0  502    0  0.00000000000E+00  0.00000000000E+00  0.26285604809E+03  0.26285604809E+03  0.00000000000E+00 0. -1.
         -2   -1    0    0    0  501 -0.00000000000E+00 -0.00000000000E+00 -0.42477404748E+01  0.42477404748E+01  0.00000000000E+00 0.  1.
          1    1    1    2  502    0  0.27137942199E+02 -0.64259623719E+01  0.20286947293E+03  0.20477740097E+03  0.00000000000E+00 0. -1.
         -1    1    1    2    0  501 -0.27137942199E+02  0.64259623719E+01  0.55738834688E+02  0.62326387602E+02  0.00000000000E+00 0.  1.
</event>
<event>
 4    1  0.6935156E+001  0.2171015E+02  0.7546771E-02  0.1509363E+00
          2   -1    0    0  502    0  0.00000000000E+00  0.00000000000E+00  0.11631560246E+04  0.11631560246E+04  0.00000000000E+00 0.  1.
         -2   -1    0    0    0  501 -0.00000000000E+00 -0.00000000000E+00 -0.69903649292E+00  0.69903649292E+00  0.00000000000E+00 0. -1.
          1    1    1    2  502    0  0.10217629989E+02 -0.19155436328E+02  0.95850452368E+03  0.95875035990E+03  0.00000000000E+00 0.  1.
         -1    1    1    2    0  501 -0.10217629989E+02  0.19155436328E+02  0.20395246447E+03  0.20510470123E+03  0.00000000000E+00 0. -1.
</event>
<event>
 4    1  0.6935156E+001  0.3473922E+02  0.7546771E-02  0.1382406E+00
          2   -1    0    0  502    0  0.00000000000E+00  0.00000000000E+00  0.63564748528E+03  0.63564748528E+03  0.00000000000E+00 0. -1.
         -2   -1    0    0    0  501 -0.00000000000E+00 -0.00000000000E+00 -0.21321439129E+01  0.21321439129E+01  0.00000000000E+00 0.  1.
          1    1    1    2  502    0  0.28952722668E+02  0.19197747810E+02  0.42230703882E+03  0.42373346423E+03  0.00000000000E+00 0. -1.
         -1    1    1    2    0  501 -0.28952722668E+02 -0.19197747810E+02  0.21120830255E+03  0.21404616496E+03  0.00000000000E+00 0.  1.
</event>
<event>
 4    1  0.6935156E+001  0.2632764E+02  0.7546771E-02  0.1454482E+00
          2   -1    0    0  502    0  0.00000000000E+00  0.00000000000E+00  0.56845265863E+03  0.56845265863E+03  0.00000000000E+00 0. -1.
         -2   -1    0    0    0  501 -0.00000000000E+00 -0.00000000000E+00 -0.12671491992E+01  0.12671491992E+01  0.00000000000E+00 0.  1.
          1    1    1    2  502    0  0.25162740846E+02 -0.77447317933E+01  0.22826862576E+03  0.22978187462E+03  0.00000000000E+00 0.  1.
         -1    1    1    2    0  501 -0.25162740846E+02  0.77447317933E+01  0.33891688366E+03  0.33993793320E+03  0.00000000000E+00 0. -1.
</event>
<event>
 4    1  0.6935156E+001  0.4173911E+02  0.7546771E-02  0.1338585E+00
          2   -1    0    0  502    0  0.00000000000E+00  0.00000000000E+00  0.47603257213E+02  0.47603257213E+02  0.00000000000E+00 0. -1.
         -2   -1    0    0    0  501 -0.00000000000E+00 -0.00000000000E+00 -0.37056086311E+02  0.37056086311E+02  0.00000000000E+00 0.  1.
          1    1    1    2  502    0 -0.41429378588E+02 -0.50754541579E+01  0.99832602515E+01  0.42916420288E+02  0.00000000000E+00 0. -1.
         -1    1    1    2    0  501  0.41429378588E+02  0.50754541579E+01  0.56391065023E+00  0.41742923236E+02  0.00000000000E+00 0.  1.
</event>
<event>
 4    1  0.6935156E+001  0.2190821E+02  0.7546771E-02  0.1506682E+00
          2   -1    0    0  502    0  0.00000000000E+00  0.00000000000E+00  0.90272621708E+03  0.90272621708E+03  0.00000000000E+00 0.  1.
         -2   -1    0    0    0  501 -0.00000000000E+00 -0.00000000000E+00 -0.63822812777E+00  0.63822812777E+00  0.00000000000E+00 0. -1.
          1    1    1    2  502    0  0.85140444167E+01 -0.20186156414E+02  0.26650038901E+03  0.26739937772E+03  0.00000000000E+00 0.  1.
         -1    1    1    2    0  501 -0.85140444167E+01  0.20186156414E+02  0.63558759994E+03  0.63596506748E+03  0.00000000000E+00 0. -1.
</event>
<event>
 4    1  0.6935156E+001  0.3149466E+02  0.7546771E-02  0.1407038E+00
          2   -1    0    0  502    0  0.00000000000E+00  0.00000000000E+00  0.15471991908E+02  0.15471991908E+02  0.00000000000E+00 0.  1.
         -2   -1    0    0    0  501 -0.00000000000E+00 -0.00000000000E+00 -0.64119871818E+02  0.64119871818E+02  0.00000000000E+00 0. -1.
          1    1    1    2  502    0 -0.48850215367E+01  0.31113500268E+02 -0.23836550733E+02  0.39498031409E+02  0.00000000000E+00 0.  1.
         -1    1    1    2    0  501  0.48850215367E+01 -0.31113500268E+02 -0.24811329178E+02  0.40093832317E+02  0.00000000000E+00 0. -1.
</event>
<event>
 4    1  0.6935156E+001  0.3401585E+02  0.7546771E-02  0.1387617E+00
          2   -1    0    0  502    0  0.00000000000E+00  0.00000000000E+00  0.11685805613E+02  0.11685805613E+02  0.00000000000E+00 0.  1.
         -2   -1    0    0    0  501 -0.00000000000E+00 -0.00000000000E+00 -0.99089634077E+02  0.99089634077E+02  0.00000000000E+00 0. -1.
          1    1    1    2  502    0 -0.25834358645E+02  0.22128357742E+02 -0.45214784095E+02  0.56581401571E+02  0.00000000000E+00 0. -1.
         -1    1    1    2    0  501  0.25834358645E+02 -0.22128357742E+02 -0.42189044369E+02  0.54194038119E+02  0.00000000000E+00 0.  1.
</event>
<event>
 4    1  0.6935156E+001  0.3779818E+02  0.7546771E-02  0.1361895E+00
          2   -1    0    0  502    0  0.00000000000E+00  0.00000000000E+00  0.94009919559E+03  0.94009919559E+03  0.00000000000E+00 0. -1.
         -2   -1    0    0    0  501 -0.00000000000E+00 -0.00000000000E+00 -0.15221554185E+01  0.15221554185E+01  0.00000000000E+00 0.  1.
          1    1    1    2  502    0  0.31804252042E+02  0.20425272298E+02  0.48806049567E+03  0.48952196032E+03  0.00000000000E+00 0. -1.
         -1    1    1    2    0  501 -0.31804252042E+02 -0.20425272298E+02  0.45051654449E+03  0.45209939069E+03  0.00000000000E+00 0.  1.
</event>
<event>
 4    1  0.6935156E+001  0.4672625E+02  0.7546771E-02  0.1313026E+00
          2   -1    0    0  502    0  0.00000000000E+00  0.00000000000E+00  0.42127749013E+02  0.42127749013E+02  0.00000000000E+00 0.  1.
         -2   -1    0    0    0  501 -0.00000000000E+00 -0.00000000000E+00 -0.68601702255E+02  0.68601702255E+02  0.00000000000E+00 0. -1.
          1    1    1    2  502    0 -0.44857509291E+02  0.13082298099E+02 -0.40614670313E+02  0.61910371570E+02  0.00000000000E+00 0. -1.
         -1    1    1    2    0  501  0.44857509291E+02 -0.13082298099E+02  0.14140717071E+02  0.48819079698E+02  0.00000000000E+00 0.  1.
</event>
<event>
 4    1  0.6935156E+001  0.3515713E+02  0.7546771E-02  0.1379462E+00
          2   -1    0    0  502    0  0.00000000000E+00  0.00000000000E+00  0.11404381235E+04  0.11404381235E+04  0.00000000000E+00 0. -1.
         -2   -1    0    0    0  501 -0.00000000000E+00 -0.00000000000E+00 -0.22777181498E+01  0.22777181498E+01  0.00000000000E+00 0.  1.
          1    1    1    2  502    0  0.34104013736E+02 -0.85404941879E+01  0.15542086306E+03  0.15934763402E+03  0.00000000000E+00 0.  1.
         -1    1    1    2    0  501 -0.34104013736E+02  0.85404941879E+01  0.98273954227E+03  0.98336820761E+03  0.00000000000E+00 0. -1.
</event>
<event>
 4    1  0.6935156E+001  0.3118177E+02  0.7546771E-02  0.1409597E+00
          2   -1    0    0  502    0  0.00000000000E+00  0.00000000000E+00  0.11315382474E+03  0.11315382474E+03  0.00000000000E+00 0. -1.
         -2   -1    0    0    0  501 -0.00000000000E+00 -0.00000000000E+00 -0.32533312171E+02  0.32533312171E+02  0.00000000000E+00 0.  1.
          1    1    1    2  502    0 -0.31150828039E+02  0.13887084663E+01 -0.22177400443E+02  0.38264078313E+02  0.00000000000E+00 0.  1.
         -1    1    1    2    0  501  0.31150828039E+02 -0.13887084663E+01  0.10279791302E+03  0.10742305860E+03  0.00000000000E+00 0. -1.
</event>
<event>
 4    1  0.6935156E+001  0.2110038E+02  0.7546771E-02  0.1517836E+00
          2   -1    0    0  502    0  0.00000000000E+00  0.00000000000E+00  0.13337643954E+01  0.13337643954E+01  0.00000000000E+00 0.  1.
         -2   -1    0    0    0  501 -0.00000000000E+00 -0.00000000000E+00 -0.61853835388E+03  0.61853835388E+03  0.00000000000E+00 0. -1.
          1    1    1    2  502    0 -0.60907532526E+01  0.20202199951E+02 -0.51888465982E+03  0.51931350489E+03  0.00000000000E+00 0. -1.
         -1    1    1    2    0  501  0.60907532526E+01 -0.20202199951E+02 -0.98319929663E+02  0.10055861339E+03  0.00000000000E+00 0.  1.
</event>
<event>
 4    1  0.6935156E+001  0.2694604E+02  0.7546771E-02  0.1448151E+00
          2   -1    0    0  502    0  0.00000000000E+00  0.00000000000E+00  0.13199616051E+02  0.13199616051E+02  0.00000000000E+00 0.  1.
         -2   -1    0    0    0  501 -0.00000000000E+00 -0.00000000000E+00 -0.55845543601E+02  0.55845543601E+02  0.00000000000E+00 0. -1.
          1    1    1    2  502    0  0.26028413948E+02  0.69721410387E+01 -0.17096061072E+02  0.31911822065E+02  0.00000000000E+00 0. -1.
         -1    1    1    2    0  501 -0.26028413948E+02 -0.69721410387E+01 -0.25549866478E+02  0.37133337587E+02  0.00000000000E+00 0.  1.
</event>
<event>
 4    1  0.6935156E+001  0.2724514E+02  0.7546771E-02  0.1445161E+00
          2   -1    0    0  502    0  0.00000000000E+00  0.00000000000E+00  0.85044518027E+01  0.85044518027E+01  0.00000000000E+00 0. -1.
         -2   -1    0    0    0  501 -0.00000000000E+00 -0.00000000000E+00 -0.13959903394E+03  0.13959903394E+03  0.00000000000E+00 0.  1.
          1    1    1    2  502    0 -0.18364732543E+02  0.20125464447E+02 -0.20214787841E+02  0.33925438362E+02  0.00000000000E+00 0. -1.
         -1    1    1    2    0  501  0.18364732543E+02 -0.20125464447E+02 -0.11087979430E+03  0.11417804738E+03  0.00000000000E+00 0.  1.
</event>
<event>
 4    1  0.6935156E+001  0.3268524E+02  0.7546771E-02  0.1397610E+00
          2   -1    0    0  502    0  0.00000000000E+00  0.00000000000E+00  0.66070145407E+01  0.66070145407E+01  0.00000000000E+00 0. -1.
         -2   -1    0    0    0  501 -0.00000000000E+00 -0.00000000000E+00 -0.25883509700E+03  0.25883509700E+03  0.00000000000E+00 0.  1.
          1    1    1    2  502    0  0.87708195137E+01 -0.31486469276E+02 -0.44807361938E+02  0.55461921227E+02  0.00000000000E+00 0. -1.
         -1    1    1    2    0  501 -0.87708195137E+01  0.31486469276E+02 -0.20742072053E+03  0.20998019032E+03  0.00000000000E+00 0.  1.
</event>
<event>
 4    1  0.6935156E+001  0.2769150E+02  0.7546771E-02  0.1440783E+00
          2   -1    0    0  502    0  0.00000000000E+00  0.00000000000E+00  0.22411966660E+04  0.22411966660E+04  0.00000000000E+00 0. -1.
         -2   -1    0    0    0  501 -0.00000000000E+00 -0.00000000000E+00 -0.35514175800E+00  0.35514175800E+00  0.00000000000E+00 0.  1.
          1    1    1    2  502    0 -0.23321744997E+02 -0.14930359872E+02  0.13348068727E+04  0.13350940816E+04  0.00000000000E+00 0. -1.
         -1    1    1    2    0  501  0.23321744997E+02  0.14930359872E+02  0.90603465158E+03  0.90645772615E+03  0.00000000000E+00 0.  1.
</event>
<event>
 4    1  0.6935156E+001  0.7384074E+02  0.7546771E-02  0.1218917E+00
          2   -1    0    0  502    0  0.00000000000E+00  0.00000000000E+00  0.23171610037E+03  0.23171610037E+03  0.00000000000E+00 0. -1.
         -2   -1    0    0    0  501 -0.00000000000E+00 -0.00000000000E+00 -0.30218901954E+02  0.30218901954E+02  0.00000000000E+00 0.  1.
          1    1    1    2  502    0  0.56104393518E+02  0.48007835637E+02  0.39134934688E+02  0.83570319897E+02  0.00000000000E+00 0.  1.
         -1    1    1    2    0  501 -0.56104393518E+02 -0.48007835637E+02  0.16236226373E+03  0.17836468243E+03  0.00000000000E+00 0. -1.
</event>
<event>
 4    1  0.6935156E+001  0.3171988E+02  0.7546771E-02  0.1405217E+00
          2   -1    0    0  502    0  0.00000000000E+00  0.00000000000E+00  0.16257703467E+02  0.16257703467E+02  0.00000000000E+00 0.  1.
         -2   -1    0    0    0  501 -0.00000000000E+00 -0.00000000000E+00 -0.61983582797E+02  0.61983582797E+02  0.00000000000E+00 0. -1.
          1    1    1    2  502    0  0.43471378368E+01  0.31420582918E+02 -0.21323686047E+02  0.38221070432E+02  0.00000000000E+00 0. -1.
         -1    1    1    2    0  501 -0.43471378368E+01 -0.31420582918E+02 -0.24402193283E+02  0.40020215833E+02  0.00000000000E+00 0.  1.
</event>
<event>
 4    1  0.6935156E+001  0.2271627E+02  0.7546771E-02  0.1496092E+00
          2   -1    0    0  502    0  0.00000000000E+00  0.00000000000E+00  0.27544394657E+03  0.27544394657E+03  0.00000000000E+00 0.  1.
         -2   -1    0    0    0  501 -0.00000000000E+00 -0.00000000000E+00 -0.36107625824E+01  0.36107625824E+01  0.00000000000E+00 0. -1.
          1    1    1    2  502    0 -0.16283950613E+02 -0.15838612642E+02  0.23269972491E+03  0.23380588246E+03  0.00000000000E+00 0.  1.
         -1    1    1    2    0  501  0.16283950613E+02  0.15838612642E+02  0.39133459080E+02  0.45248826698E+02  0.00000000000E+00 0. -1.
</event>
<event>
 4    1  0.6935156E+001  0.2726517E+02  0.7546771E-02  0.1444962E+00
          2   -1    0    0  502    0  0.00000000000E+00  0.00000000000E+00  0.73275915582E+01  0.73275915582E+01  0.00000000000E+00 0. -1.
         -2   -1    0    0    0  501 -0.00000000000E+00 -0.00000000000E+00 -0.12027382300E+03  0.12027382300E+03  0.00000000000E+00 0.  1.
          1    1    1    2  502    0  0.20991371556E+02  0.17399769705E+02 -0.81712873854E+02  0.86141647413E+02  0.00000000000E+00 0.  1.
         -1    1    1    2    0  501 -0.20991371556E+02 -0.17399769705E+02 -0.31233357590E+02  0.41459767147E+02  0.00000000000E+00 0. -1.
</event>
<event>
 4    1  0.6935156E+001  0.3742556E+02  0.7546771E-02  0.1364270E+00
          2   -1    0    0  502    0  0.00000000000E+00  0.00000000000E+00  0.23777953063E+03  0.23777953063E+03  0.00000000000E+00 0. -1.
         -2   -1    0    0    0  501 -0.00000000000E+00 -0.00000000000E+00 -0.61771983415E+01  0.61771983415E+01  0.00000000000E+00 0.  1.
          1    1    1    2  502    0 -0.26787402693E+02  0.26136323721E+02  0.14207343352E+03  0.14692015816E+03  0.00000000000E+00 0. -1.
         -1    1    1    2    0  501  0.26787402693E+02 -0.26136323721E+02  0.89528898767E+02  0.97036570813E+02  0.00000000000E+00 0.  1.
</event>
<event>
 4    1  0.6935156E+001  0.6111085E+02  0.7546771E-02  0.1256104E+00
          2   -1    0    0  502    0  0.00000000000E+00  0.00000000000E+00  0.11024824099E+04  0.11024824099E+04  0.00000000000E+00 0.  1.
         -2   -1    0    0    0  501 -0.00000000000E+00 -0.00000000000E+00 -0.92204022018E+01  0.92204022018E+01  0.00000000000E+00 0. -1.
          1    1    1    2  502    0 -0.29723991466E+02 -0.53394946940E+02  0.98874094563E+03  0.99062767657E+03  0.00000000000E+00 0.  1.
         -1    1    1    2    0  501  0.29723991466E+02  0.53394946940E+02  0.10452106207E+03  0.12107513553E+03  0.00000000000E+00 0. -1.
</event>
<event>
 4    1  0.6935156E+001  0.2783859E+02  0.7546771E-02  0.1439361E+00
          2   -1    0    0  502    0  0.00000000000E+00  0.00000000000E+00  0.20440574734E+04  0.20440574734E+04  0.00000000000E+00 0.  1.
         -2   -1    0    0    0  501 -0.00000000000E+00 -0.00000000000E+00 -0.40822966141E+00  0.40822966141E+00  0.00000000000E+00 0. -1.
          1    1    1    2  502    0  0.23755523504E+02 -0.14514197624E+02  0.12946949881E+04  0.12949942467E+04  0.00000000000E+00 0.  1.
         -1    1    1    2    0  501 -0.23755523504E+02  0.14514197624E+02  0.74895425566E+03  0.74947145636E+03  0.00000000000E+00 0. -1.
</event>
<event>
 4    1  0.6935156E+001  0.3516272E+02  0.7546771E-02  0.1379423E+00
          2   -1    0    0  502    0  0.00000000000E+00  0.00000000000E+00  0.29501715579E+04  0.29501715579E+04  0.00000000000E+00 0.  1.
         -2   -1    0    0    0  501 -0.00000000000E+00 -0.00000000000E+00 -0.41913698004E+00  0.41913698004E+00  0.00000000000E+00 0. -1.
          1    1    1    2  502    0  0.46385601711E+01 -0.34855426677E+02  0.14887267546E+04  0.14891419566E+04  0.00000000000E+00 0.  1.
         -1    1    1    2    0  501 -0.46385601711E+01  0.34855426677E+02  0.14610256662E+04  0.14614487382E+04  0.00000000000E+00 0. -1.
</event>
<event>
 4    1  0.6935156E+001  0.2628392E+02  0.7546771E-02  0.1454937E+00
          2   -1    0    0  502    0  0.00000000000E+00  0.00000000000E+00  0.55066618065E+02  0.55066618065E+02  0.00000000000E+00 0. -1.
         -2   -1    0    0    0  501 -0.00000000000E+00 -0.00000000000E+00 -0.32004744375E+02  0.32004744375E+02  0.00000000000E+00 0.  1.
          1    1    1    2  502    0  0.25448918625E+02  0.65724431582E+01  0.45477818814E+02  0.52526911886E+02  0.00000000000E+00 0. -1.
         -1    1    1    2    0  501 -0.25448918625E+02 -0.65724431582E+01 -0.22415945123E+02  0.34544450553E+02  0.00000000000E+00 0.  1.
</event>
<event>
 4    1  0.6935156E+001  0.3182725E+02  0.7546771E-02  0.1404355E+00
          2   -1    0    0  502    0  0.00000000000E+00  0.00000000000E+00  0.29425875015E+03  0.29425875015E+03  0.00000000000E+00 0.  1.
         -2   -1    0    0    0  501 -0.00000000000E+00 -0.00000000000E+00 -0.85051552179E+01  0.85051552179E+01  0.00000000000E+00 0. -1.
          1    1    1    2  502    0  0.36837707430E+01  0.31613349158E+02  0.26081900625E+02  0.41148992115E+02  0.00000000000E+00 0. -1.
         -1    1    1    2    0  501 -0.36837707430E+01 -0.31613349158E+02  0.25967169430E+03  0.26161491325E+03  0.00000000000E+00 0.  1.
</event>
<event>
 4    1  0.6935156E+001  0.2603931E+02  0.7546771E-02  0.1457505E+00
          2   -1    0    0  502    0  0.00000000000E+00  0.00000000000E+00  0.36713199586E+03  0.36713199586E+03  0.00000000000E+00 0.  1.
         -2   -1    0    0    0  501 -0.00000000000E+00 -0.00000000000E+00 -0.18969522713E+01  0.18969522713E+01  0.00000000000E+00 0. -1.
          1    1    1    2  502    0 -0.66736749351E+01  0.25169581894E+02  0.15263723836E+03  0.15484241126E+03  0.00000000000E+00 0. -1.
         -1    1    1    2    0  501  0.66736749351E+01 -0.25169581894E+02  0.21259780523E+03  0.21418653687E+03  0.00000000000E+00 0.  1.
</event>
<event>
 4    1  0.6935156E+001  0.2063179E+02  0.7546771E-02  0.1524587E+00
          2   -1    0    0  502    0  0.00000000000E+00  0.00000000000E+00  0.22764541839E+01  0.22764541839E+01  0.00000000000E+00 0. -1.
         -2   -1    0    0    0  501 -0.00000000000E+00 -0.00000000000E+00 -0.21972972329E+03  0.21972972329E+03  0.00000000000E+00 0.  1.
          1    1    1    2  502    0  0.14545321249E+01  0.20580454232E+02 -0.65877891199E+02  0.69033088508E+02  0.00000000000E+00 0. -1.
         -1    1    1    2    0  501 -0.14545321249E+01 -0.20580454232E+02 -0.15157537791E+03  0.15297308897E+03  0.00000000000E+00 0.  1.
</event>
<event>
 4    1  0.6935156E+001  0.2644409E+02  0.7546771E-02  0.1453274E+00
          2   -1    0    0  502    0  0.00000000000E+00  0.00000000000E+00  0.86101021188E+01  0.86101021188E+01  0.00000000000E+00 0.  1.
         -2   -1    0    0    0  501 -0.00000000000E+00 -0.00000000000E+00 -0.18517117764E+03  0.18517117764E+03  0.00000000000E+00 0. -1.
          1    1    1    2  502    0  0.24210806474E+01 -0.26333026147E+02 -0.16087697685E+03  0.16303585980E+03  0.00000000000E+00 0. -1.
         -1    1    1    2    0  501 -0.24210806474E+01  0.26333026147E+02 -0.15684098662E+02  0.30745419958E+02  0.00000000000E+00 0.  1.
</event>
<event>
 4    1  0.6935156E+001  0.2174356E+02  0.7546771E-02  0.1508908E+00
          2   -1    0    0  502    0  0.00000000000E+00  0.00000000000E+00  0.14877652262E+02  0.14877652262E+02  0.00000000000E+00 0. -1.
         -2   -1    0    0    0  501 -0.00000000000E+00 -0.00000000000E+00 -0.32269723950E+02  0.32269723950E+02  0.00000000000E+00 0.  1.
          1    1    1    2  502    0  0.88826937460E+01  0.19846411745E+02 -0.57861063781E+01  0.22500251873E+02  0.00000000000E+00 0. -1.
         -1    1    1    2    0  501 -0.88826937460E+01 -0.19846411745E+02 -0.11605965310E+02  0.24647124338E+02  0.00000000000E+00 0.  1.
</event>
<event>
 4    1  0.6935156E+001  0.2749632E+02  0.7546771E-02  0.1442685E+00
          2   -1    0    0  502    0  0.00000000000E+00  0.00000000000E+00  0.62556368307E+03  0.62556368307E+03  0.00000000000E+00 0. -1.
         -2   -1    0    0    0  501 -0.00000000000E+00 -0.00000000000E+00 -0.50881556500E+01  0.50881556500E+01  0.00000000000E+00 0.  1.
          1    1    1    2  502    0  0.26730940801E+02  0.64424042842E+01  0.58557898213E+03  0.58622418245E+03  0.00000000000E+00 0. -1.
         -1    1    1    2    0  501 -0.26730940801E+02 -0.64424042842E+01  0.34896545291E+02  0.44427656277E+02  0.00000000000E+00 0.  1.
</event>
<event>
 4    1  0.6935156E+001  0.3297071E+02  0.7546771E-02  0.1395420E+00
          2   -1    0    0  502    0  0.00000000000E+00  0.00000000000E+00  0.17637087910E+04  0.17637087910E+04  0.00000000000E+00 0. -1.
         -2   -1    0    0    0  501 -0.00000000000E+00 -0.00000000000E+00 -0.61637854973E+00  0.61637854973E+00  0.00000000000E+00 0.  1.
          1    1    1    2  502    0  0.32907164016E+02  0.20460625360E+01  0.88718717477E+03  0.88779961190E+03  0.00000000000E+00 0.  1.
         -1    1    1    2    0  501 -0.32907164016E+02 -0.20460625360E+01  0.87590523772E+03  0.87652555769E+03  0.00000000000E+00 0. -1.
</event>
<event>
 4    1  0.6935156E+001  0.3316703E+02  0.7546771E-02  0.1393929E+00
          2   -1    0    0  502    0  0.00000000000E+00  0.00000000000E+00  0.16643939210E+03  0.16643939210E+03  0.00000000000E+00 0.  1.
         -2   -1    0    0    0  501 -0.00000000000E+00 -0.00000000000E+00 -0.88824680662E+01  0.88824680662E+01  0.00000000000E+00 0. -1.
          1    1    1    2  502    0 -0.10775667612E+02  0.31367766781E+02  0.34432634469E+02  0.47808556993E+02  0.00000000000E+00 0. -1.
         -1    1    1    2    0  501  0.10775667612E+02 -0.31367766781E+02  0.12312428957E+03  0.12751330318E+03  0.00000000000E+00 0.  1.
</event>
<event>
 4    1  0.6935156E+001  0.2508129E+02  0.7546771E-02  0.1467896E+00
          2   -1    0    0  502    0  0.00000000000E+00  0.00000000000E+00  0.25656976512E+02  0.25656976512E+02  0.00000000000E+00 0. -1.
         -2   -1    0    0    0  501 -0.00000000000E+00 -0.00000000000E+00 -0.27232543757E+02  0.27232543757E+02  0.00000000000E+00 0.  1.
          1    1    1    2  502    0  0.95174809722E+01  0.23205358519E+02  0.75605981010E+01  0.26196063668E+02  0.00000000000E+00 0. -1.
         -1    1    1    2    0  501 -0.95174809722E+01 -0.23205358519E+02 -0.91361653465E+01  0.26693456601E+02  0.00000000000E+00 0.  1.
</event>
<event>
 4    1  0.6935156E+001  0.2857693E+02  0.7546771E-02  0.1432380E+00
          2   -1    0    0  502    0  0.00000000000E+00  0.00000000000E+00  0.66872160281E+02  0.66872160281E+02  0.00000000000E+00 0. -1.
         -2   -1    0    0    0  501 -0.00000000000E+00 -0.00000000000E+00 -0.12859982437E+02  0.12859982437E+02  0.00000000000E+00 0.  1.
          1    1    1    2  502    0 -0.19804507765E+02 -0.20601513496E+02  0.18057087702E+02  0.33803835617E+02  0.00000000000E+00 0.  1.
         -1    1    1    2    0  501  0.19804507765E+02  0.20601513496E+02  0.35955090142E+02  0.45928307102E+02  0.00000000000E+00 0. -1.
</event>
<event>
 4    1  0.6935156E+001  0.3496764E+02  0.7546771E-02  0.1380791E+00
          2   -1    0    0  502    0  0.00000000000E+00  0.00000000000E+00  0.78092470655E+02  0.78092470655E+02  0.00000000000E+00 0.  1.
         -2   -1    0    0    0  501 -0.00000000000E+00 -0.00000000000E+00 -0.22675731199E+02  0.22675731199E+02  0.00000000000E+00 0. -1.
          1    1    1    2  502    0  0.13598447064E+02  0.32215180172E+02 -0.32179269521E+00  0.34969117040E+02  0.00000000000E+00 0. -1.
         -1    1    1    2    0  501 -0.13598447064E+02 -0.32215180172E+02  0.55738532151E+02  0.65799084814E+02  0.00000000000E+00 0.  1.
</event>
<event>
 4    1  0.6935156E+001  0.2204421E+02  0.7546771E-02  0.1504862E+00
          2   -1    0    0  502    0  0.00000000000E+00  0.00000000000E+00  0.18134526930E+02  0.18134526930E+02  0.00000000000E+00 0.  1.
         -2   -1    0    0    0  501 -0.00000000000E+00 -0.00000000000E+00 -0.26975885030E+02  0.26975885030E+02  0.00000000000E+00 0. -1.
          1    1    1    2  502    0 -0.20111663288E+02 -0.90259683153E+01 -0.25828670116E+01  0.22195006336E+02  0.00000000000E+00 0.  1.
         -1    1    1    2    0  501  0.20111663288E+02  0.90259683153E+01 -0.62584910885E+01  0.22915405625E+02  0.00000000000E+00 0. -1.
</event>
<event>
 4    1  0.6935156E+001  0.2485584E+02  0.7546771E-02  0.1470423E+00
          2   -1    0    0  502    0  0.00000000000E+00  0.00000000000E+00  0.23064747968E+04  0.23064747968E+04  0.00000000000E+00 0.  1.
         -2   -1    0    0    0  501 -0.00000000000E+00 -0.00000000000E+00 -0.26786958264E+00  0.26786958264E+00  0.00000000000E+00 0. -1.
          1    1    1    2  502    0 -0.15048721098E+02 -0.19782535610E+02  0.11599418978E+04  0.11602081791E+04  0.00000000000E+00 0.  1.
         -1    1    1    2    0  501  0.15048721098E+02  0.19782535610E+02  0.11462650294E+04  0.11465344872E+04  0.00000000000E+00 0. -1.
</event>
<event>
 4    1  0.6935156E+001  0.2126641E+02  0.7546771E-02  0.1515495E+00
          2   -1    0    0  502    0  0.00000000000E+00  0.00000000000E+00  0.16272603215E+02  0.16272603215E+02  0.00000000000E+00 0.  1.
         -2   -1    0    0    0  501 -0.00000000000E+00 -0.00000000000E+00 -0.28018747742E+02  0.28018747742E+02  0.00000000000E+00 0. -1.
          1    1    1    2  502    0 -0.12873201671E+01 -0.21227409179E+02 -0.78620700211E+01  0.22673161198E+02  0.00000000000E+00 0. -1.
         -1    1    1    2    0  501  0.12873201671E+01  0.21227409179E+02 -0.38840745062E+01  0.21618189759E+02  0.00000000000E+00 0.  1.
</event>
<event>
 4    1  0.6935156E+001  0.2036767E+02  0.7546771E-02  0.1528487E+00
          2   -1    0    0  502    0  0.00000000000E+00  0.00000000000E+00  0.34433251861E+03  0.34433251861E+03  0.00000000000E+00 0. -1.
         -2   -1    0    0    0  501 -0.00000000000E+00 -0.00000000000E+00 -0.14666575155E+01  0.14666575155E+01  0.00000000000E+00 0.  1.
          1    1    1    2  502    0 -0.29935733247E+00  0.20365467003E+02  0.98371847971E+02  0.10045826165E+03  0.00000000000E+00 0.  1.
         -1    1    1    2    0  501  0.29935733247E+00 -0.20365467003E+02  0.24449401312E+03  0.24534091447E+03  0.00000000000E+00 0. -1.
</event>
<event>
 4    1  0.6935156E+001  0.2361850E+02  0.7546771E-02  0.1484874E+00
          2   -1    0    0  502    0  0.00000000000E+00  0.00000000000E+00  0.16565720067E+04  0.16565720067E+04  0.00000000000E+00 0. -1.
         -2   -1    0    0    0  501 -0.00000000000E+00 -0.00000000000E+00 -0.33674056968E+00  0.33674056968E+00  0.00000000000E+00 0.  1.
          1    1    1    2  502    0  0.20198072677E+02  0.12242202249E+02  0.82940427495E+03  0.82974049254E+03  0.00000000000E+00 0.  1.
         -1    1    1    2    0  501 -0.20198072677E+02 -0.12242202249E+02  0.82683099122E+03  0.82716825477E+03  0.00000000000E+00 0. -1.
</event>
<event>
 4    1  0.6935156E+001  0.3552659E+02  0.7546771E-02  0.1376898E+00
          2   -1    0    0  502    0  0.00000000000E+00  0.00000000000E+00  0.20208844356E+03  0.20208844356E+03  0.00000000000E+00 0. -1.
         -2   -1    0    0    0  501 -0.00000000000E+00 -0.00000000000E+00 -0.79368776830E+01  0.79368776830E+01  0.00000000000E+00 0.  1.
          1    1    1    2  502    0 -0.31485780825E+02  0.16455530036E+02  0.14555325696E+03  0.14982619755E+03  0.00000000000E+00 0.  1.
         -1    1    1    2    0  501  0.31485780825E+02 -0.16455530036E+02  0.48598308918E+02  0.60199123686E+02  0.00000000000E+00 0. -1.
</event>
<event>
 4    1  0.6935156E+001  0.3193114E+02  0.7546771E-02  0.1403525E+00
          2   -1    0    0  502    0  0.00000000000E+00  0.00000000000E+00  0.91578726649E+03  0.91578726649E+03  0.00000000000E+00 0.  1.
         -2   -1    0    0    0  501 -0.00000000000E+00 -0.00000000000E+00 -0.11160940215E+01  0.11160940215E+01  0.00000000000E+00 0. -1.
          1    1    1    2  502    0 -0.13739025211E+02 -0.28824242561E+02  0.48004030496E+03  0.48110112467E+03  0.00000000000E+00 0.  1.
         -1    1    1    2    0  501  0.13739025211E+02  0.28824242561E+02  0.43463086750E+03  0.43580223584E+03  0.00000000000E+00 0. -1.
</event>
<event>
 4    1  0.6935156E+001  0.3100037E+02  0.7546771E-02  0.1411098E+00
          2   -1    0    0  502    0  0.00000000000E+00  0.00000000000E+00  0.14826578564E+03  0.14826578564E+03  0.00000000000E+00 0. -1.
         -2   -1    0    0    0  501 -0.00000000000E+00 -0.00000000000E+00 -0.84035065091E+01  0.84035065091E+01  0.00000000000E+00 0.  1.
          1    1    1    2  502    0  0.67860208378E+01 -0.30248522676E+02  0.10739147767E+03  0.11177635116E+03  0.00000000000E+00 0. -1.
         -1    1    1    2    0  501 -0.67860208378E+01  0.30248522676E+02  0.32470801456E+02  0.44892940983E+02  0.00000000000E+00 0.  1.
</event>
<event>
 4    1  0.6935156E+001  0.2092632E+02  0.7546771E-02  0.1520319E+00
          2   -1    0    0  502    0  0.00000000000E+00  0.00000000000E+00  0.83507792198E+03  0.83507792198E+03  0.00000000000E+00 0.  1.
         -2   -1    0    0    0  501 -0.00000000000E+00 -0.00000000000E+00 -0.65907377172E+00  0.65907377172E+00  0.00000000000E+00 0. -1.
          1    1    1    2  502    0 -0.91756116380E+01  0.18807416056E+02  0.60610512490E+03  0.60646626714E+03  0.00000000000E+00 0.  1.
         -1    1    1    2    0  501  0.91756116380E+01 -0.18807416056E+02  0.22831372330E+03  0.22927072861E+03  0.00000000000E+00 0. -1.
</event>
<event>
 4    1  0.6935156E+001  0.2019270E+02  0.7546771E-02  0.1531110E+00
          2   -1    0    0  502    0  0.00000000000E+00  0.00000000000E+00  0.85792122667E+02  0.85792122667E+02  0.00000000000E+00 0.  1.
         -2   -1    0    0    0  501 -0.00000000000E+00 -0.00000000000E+00 -0.58899497357E+01  0.58899497357E+01  0.00000000000E+00 0. -1.
          1    1    1    2  502    0  0.70959326392E+01 -0.18904834204E+02  0.60094115783E+02  0.63395960187E+02  0.00000000000E+00 0. -1.
         -1    1    1    2    0  501 -0.70959326392E+01  0.18904834204E+02  0.19808057149E+02  0.28286112216E+02  0.00000000000E+00 0.  1.
</event>
<event>
 4    1  0.6935156E+001  0.2525527E+02  0.7546771E-02  0.1465968E+00
          2   -1    0    0  502    0  0.00000000000E+00  0.00000000000E+00  0.20052908395E+01  0.20052908395E+01  0.00000000000E+00 0. -1.
         -2   -1    0    0    0  501 -0.00000000000E+00 -0.00000000000E+00 -0.35805389654E+03  0.35805389654E+03  0.00000000000E+00 0.  1.
          1    1    1    2  502    0 -0.20919371198E+02  0.14149516107E+02 -0.23818265034E+03  0.23951785700E+03  0.00000000000E+00 0.  1.
         -1    1    1    2    0  501  0.20919371198E+02 -0.14149516107E+02 -0.11786595536E+03  0.12054133038E+03  0.00000000000E+00 0. -1.
</event>
<event>
 4    1  0.6935156E+001  0.3021303E+02  0.7546771E-02  0.1417754E+00
          2   -1    0    0  502    0  0.00000000000E+00  0.00000000000E+00  0.58942752535E+01  0.58942752535E+01  0.00000000000E+00 0. -1.
         -2   -1    0    0    0  501 -0.00000000000E+00 -0.00000000000E+00 -0.31188610352E+03  0.31188610352E+03  0.00000000000E+00 0.  1.
          1    1    1    2  502    0  0.15194913875E+02  0.26114010113E+02 -0.40256509249E+02  0.50333025627E+02  0.00000000000E+00 0. -1.
         -1    1    1    2    0  501 -0.15194913875E+02 -0.26114010113E+02 -0.26573531902E+03  0.26744735314E+03  0.00000000000E+00 0.  1.
</event>
<event>
 4    1  0.6935156E+001  0.2244099E+02  0.7546771E-02  0.1499640E+00
          2   -1    0    0  502    0  0.00000000000E+00  0.00000000000E+00  0.57413572186E+01  0.57413572186E+01  0.00000000000E+00 0. -1.
         -2   -1    0    0    0  501 -0.00000000000E+00 -0.00000000000E+00 -0.20253567471E+03  0.20253567471E+03  0.00000000000E+00 0.  1.
          1    1    1    2  502    0 -0.22280746249E+02  0.26769905406E+01 -0.17680732677E+03  0.17822578021E+03  0.00000000000E+00 0.  1.
         -1    1    1    2    0  501  0.22280746249E+02 -0.26769905406E+01 -0.19986990721E+02  0.30051251719E+02  0.00000000000E+00 0. -1.
</event>
<event>
 4    1  0.6935156E+001  0.2161070E+02  0.7546771E-02  0.1510721E+00
          2   -1    0    0  502    0  0.00000000000E+00  0.00000000000E+00  0.11400917007E+03  0.11400917007E+03  0.00000000000E+00 0.  1.
         -2   -1    0    0    0  501 -0.00000000000E+00 -0.00000000000E+00 -0.41300627905E+01  0.41300627905E+01  0.00000000000E+00 0. -1.
          1    1    1    2  502    0  0.43228170047E+01 -0.21173936306E+02  0.49603324310E+02  0.54106488595E+02  0.00000000000E+00 0.  1.
         -1    1    1    2    0  501 -0.43228170047E+01  0.21173936306E+02  0.60275782969E+02  0.64032744264E+02  0.00000000000E+00 0. -1.
</event>
<event>
 4    1  0.6935156E+001  0.4133844E+02  0.7546771E-02  0.1340816E+00
          2   -1    0    0  502    0  0.00000000000E+00  0.00000000000E+00  0.11559820582E+04  0.11559820582E+04  0.00000000000E+00 0.  1.
         -2   -1    0    0    0  501 -0.00000000000E+00 -0.00000000000E+00 -0.18811074362E+01  0.18811074362E+01  0.00000000000E+00 0. -1.
          1    1    1    2  502    0  0.36115697504E+02  0.20112748365E+02  0.84495463235E+03  0.84596524573E+03  0.00000000000E+00 0.  1.
         -1    1    1    2    0  501 -0.36115697504E+02 -0.20112748365E+02  0.30914631840E+03  0.31189791989E+03  0.00000000000E+00 0. -1.
</event>
<event>
 4    1  0.6935156E+001  0.2147142E+02  0.7546771E-02  0.1512640E+00
          2   -1    0    0  502    0  0.00000000000E+00  0.00000000000E+00  0.78019727939E+03  0.78019727939E+03  0.00000000000E+00 0.  1.
         -2   -1    0    0    0  501 -0.00000000000E+00 -0.00000000000E+00 -0.89134684761E+00  0.89134684761E+00  0.00000000000E+00 0. -1.
          1    1    1    2  502    0  0.17506386594E+02  0.12431744196E+02  0.61639276402E+03  0.61676661824E+03  0.00000000000E+00 0.  1.
         -1    1    1    2    0  501 -0.17506386594E+02 -0.12431744196E+02  0.16291316852E+03  0.16432200800E+03  0.00000000000E+00 0. -1.
</event>
<event>
 4    1  0.6935156E+001  0.4051451E+02  0.7546771E-02  0.1345497E+00
          2   -1    0    0  502    0  0.00000000000E+00  0.00000000000E+00  0.75360034830E+03  0.75360034830E+03  0.00000000000E+00 0.  1.
         -2   -1    0    0    0  501 -0.00000000000E+00 -0.00000000000E+00 -0.49840783605E+01  0.49840783605E+01  0.00000000000E+00 0. -1.
          1    1    1    2  502    0  0.17080616448E+02  0.36737967901E+02  0.65890017484E+03  0.66014457973E+03  0.00000000000E+00 0.  1.
         -1    1    1    2    0  501 -0.17080616448E+02 -0.36737967901E+02  0.89716095106E+02  0.98439846936E+02  0.00000000000E+00 0. -1.
</event>
<event>
 4    1  0.6935156E+001  0.2653093E+02  0.7546771E-02  0.1452378E+00
          2   -1    0    0  502    0  0.00000000000E+00  0.00000000000E+00  0.30090117709E+03  0.30090117709E+03  0.00000000000E+00 0.  1.
         -2   -1    0    0    0  501 -0.00000000000E+00 -0.00000000000E+00 -0.29793225345E+01  0.29793225345E+01  0.00000000000E+00 0. -1.
          1    1    1    2  502    0  0.21168708874E+02  0.15992998649E+02  0.21938491216E+03  0.22098332499E+03  0.00000000000E+00 0.  1.
         -1    1    1    2    0  501 -0.21168708874E+02 -0.15992998649E+02  0.78536942396E+02  0.82897174632E+02  0.00000000000E+00 0. -1.
</event>
<event>
 4    1  0.6935156E+001  0.2730211E+02  0.7546771E-02  0.1444597E+00
          2   -1    0    0  502    0  0.00000000000E+00  0.00000000000E+00  0.14969893984E+04  0.14969893984E+04  0.00000000000E+00 0.  1.
         -2   -1    0    0    0  501 -0.00000000000E+00 -0.00000000000E+00 -0.50917054944E+00  0.50917054944E+00  0.00000000000E+00 0. -1.
          1    1    1    2  502    0 -0.20020126008E+02  0.18563397658E+02  0.85945916679E+03  0.85989270526E+03  0.00000000000E+00 0. -1.
         -1    1    1    2    0  501  0.20020126008E+02 -0.18563397658E+02  0.63702106108E+03  0.63760586371E+03  0.00000000000E+00 0.  1.
</event>
<event>
 4    1  0.6935156E+001  0.2115458E+02  0.7546771E-02  0.1517069E+00
          2   -1    0    0  502    0  0.00000000000E+00  0.00000000000E+00  0.48992845452E+03  0.48992845452E+03  0.00000000000E+00 0. -1.
         -2   -1    0    0    0  501 -0.00000000000E+00 -0.00000000000E+00 -0.10076892613E+01  0.10076892613E+01  0.00000000000E+00 0.  1.
          1    1    1    2  502    0  0.48104302021E+01 -0.20600384672E+02  0.31953450024E+03  0.32023399715E+03  0.00000000000E+00 0.  1.
         -1    1    1    2    0  501 -0.48104302021E+01  0.20600384672E+02  0.16938626502E+03  0.17070214663E+03  0.00000000000E+00 0. -1.
</event>
<event>
 4    1  0.6935156E+001  0.2338249E+02  0.7546771E-02  0.1487750E+00
          2   -1    0    0  502    0  0.00000000000E+00  0.00000000000E+00  0.87306406044E+03  0.87306406044E+03  0.00000000000E+00 0. -1.
         -2   -1    0    0    0  501 -0.00000000000E+00 -0.00000000000E+00 -0.62914078996E+00  0.62914078996E+00  0.00000000000E+00 0.  1.
          1    1    1    2  502    0 -0.19296060300E+02  0.13206168863E+02  0.46592011521E+03  0.46650647862E+03  0.00000000000E+00 0.  1.
         -1    1    1    2    0  501  0.19296060300E+02 -0.13206168863E+02  0.40651480444E+03  0.40718672261E+03  0.00000000000E+00 0. -1.
</event>
<event>
 4    1  0.6935156E+001  0.2529293E+02  0.7546771E-02  0.1465553E+00
          2   -1    0    0  502    0  0.00000000000E+00  0.00000000000E+00  0.16811004012E+04  0.16811004012E+04  0.00000000000E+00 0.  1.
         -2   -1    0    0    0  501 -0.00000000000E+00 -0.00000000000E+00 -0.59441169786E+00  0.59441169786E+00  0.00000000000E+00 0. -1.
          1    1    1    2  502    0 -0.23473330789E+02  0.94199226135E+01  0.13446196849E+04  0.13448575498E+04  0.00000000000E+00 0.  1.
         -1    1    1    2    0  501  0.23473330789E+02 -0.94199226135E+01  0.33588630466E+03  0.33683726317E+03  0.00000000000E+00 0. -1.
</event>
<event>
 4    1  0.6935156E+001  0.4607698E+02  0.7546771E-02  0.1316140E+00
          2   -1    0    0  502    0  0.00000000000E+00  0.00000000000E+00  0.66055070056E+03  0.66055070056E+03  0.00000000000E+00 0. -1.
         -2   -1    0    0    0  501 -0.00000000000E+00 -0.00000000000E+00 -0.33550947374E+01  0.33550947374E+01  0.00000000000E+00 0.  1.
          1    1    1    2  502    0  0.44779151729E+02 -0.10858881826E+02  0.26055249970E+03  0.26459533791E+03  0.00000000000E+00 0.  1.
         -1    1    1    2    0  501 -0.44779151729E+02  0.10858881826E+02  0.39664310612E+03  0.39931045738E+03  0.00000000000E+00 0. -1.
</event>
<event>
 4    1  0.6935156E+001  0.2194644E+02  0.7546771E-02  0.1506169E+00
          2   -1    0    0  502    0  0.00000000000E+00  0.00000000000E+00  0.92094686986E+03  0.92094686986E+03  0.00000000000E+00 0. -1.
         -2   -1    0    0    0  501 -0.00000000000E+00 -0.00000000000E+00 -0.96203379173E+00  0.96203379173E+00  0.00000000000E+00 0.  1.
          1    1    1    2  502    0 -0.65298677066E+01 -0.20952496986E+02  0.14859385087E+03  0.15020578823E+03  0.00000000000E+00 0.  1.
         -1    1    1    2    0  501  0.65298677066E+01  0.20952496986E+02  0.77139098520E+03  0.77170311542E+03  0.00000000000E+00 0. -1.
</event>
<event>
 4    1  0.6935156E+001  0.2338688E+02  0.7546771E-02  0.1487696E+00
          2   -1    0    0  502    0  0.00000000000E+00  0.00000000000E+00  0.27269524200E+02  0.27269524200E+02  0.00000000000E+00 0. -1.
         -2   -1    0    0    0  501 -0.00000000000E+00 -0.00000000000E+00 -0.20296368049E+02  0.20296368049E+02  0.00000000000E+00 0.  1.
          1    1    1    2  502    0 -0.22613167393E+02 -0.59657920363E+01  0.90401616398E+00  0.23404342747E+02  0.00000000000E+00 0.  1.
         -1    1    1    2    0  501  0.22613167393E+02  0.59657920363E+01  0.60691399864E+01  0.24161549502E+02  0.00000000000E+00 0. -1.
</event>
<event>
 4    1  0.6935156E+001  0.3122656E+02  0.7546771E-02  0.1409229E+00
          2   -1    0    0  502    0  0.00000000000E+00  0.00000000000E+00  0.28266622297E+03  0.28266622297E+03  0.00000000000E+00 0.  1.
         -2   -1    0    0    0  501 -0.00000000000E+00 -0.00000000000E+00 -0.42231821067E+01  0.42231821067E+01  0.00000000000E+00 0. -1.
          1    1    1    2  502    0  0.29998193632E+02  0.86721476560E+01  0.20061263805E+03  0.20302839287E+03  0.00000000000E+00 0.  1.
         -1    1    1    2    0  501 -0.29998193632E+02 -0.86721476560E+01  0.77830402813E+02  0.83861012206E+02  0.00000000000E+00 0. -1.
</event>
<event>
 4    1  0.6935156E+001  0.2045085E+02  0.7546771E-02  0.1527252E+00
          2   -1    0    0  502    0  0.00000000000E+00  0.00000000000E+00  0.77095336311E+03  0.77095336311E+03  0.00000000000E+00 0. -1.
         -2   -1    0    0    0  501 -0.00000000000E+00 -0.00000000000E+00 -0.54249469991E+00  0.54249469991E+00  0.00000000000E+00 0.  1.
          1    1    1    2  502    0 -0.31544184928E+01 -0.20206110380E+02  0.38465207648E+03  0.38519534939E+03  0.00000000000E+00 0.  1.
         -1    1    1    2    0  501  0.31544184928E+01  0.20206110380E+02  0.38575879193E+03  0.38630050842E+03  0.00000000000E+00 0. -1.
</event>
<event>
 4    1  0.6935156E+001  0.2728241E+02  0.7546771E-02  0.1444792E+00
          2   -1    0    0  502    0  0.00000000000E+00  0.00000000000E+00  0.42619236963E+02  0.42619236963E+02  0.00000000000E+00 0. -1.
         -2   -1    0    0    0  501 -0.00000000000E+00 -0.00000000000E+00 -0.32229078852E+02  0.32229078852E+02  0.00000000000E+00 0.  1.
          1    1    1    2  502    0 -0.15843552487E+02  0.22210619144E+02  0.30525156591E+02  0.40940382791E+02  0.00000000000E+00 0. -1.
         -1    1    1    2    0  501  0.15843552487E+02 -0.22210619144E+02 -0.20134998480E+02  0.33907933024E+02  0.00000000000E+00 0.  1.
</event>
<event>
 4    1  0.6935156E+001  0.2307670E+02  0.7546771E-02  0.1491537E+00
          2   -1    0    0  502    0  0.00000000000E+00  0.00000000000E+00  0.11431247636E+02  0.11431247636E+02  0.00000000000E+00 0. -1.
         -2   -1    0    0    0  501 -0.00000000000E+00 -0.00000000000E+00 -0.46686371627E+02  0.46686371627E+02  0.00000000000E+00 0.  1.
          1    1    1    2  502    0  0.18145842929E+02 -0.14257020123E+02 -0.16279093754E+02  0.28240806147E+02  0.00000000000E+00 0. -1.
         -1    1    1    2    0  501 -0.18145842929E+02  0.14257020123E+02 -0.18976030237E+02  0.29876813115E+02  0.00000000000E+00 0.  1.
</event>
<event>
 4    1  0.6935156E+001  0.3363962E+02  0.7546771E-02  0.1390388E+00
          2   -1    0    0  502    0  0.00000000000E+00  0.00000000000E+00  0.25183332357E+04  0.25183332357E+04  0.00000000000E+00 0. -1.
         -2   -1    0    0    0  501 -0.00000000000E+00 -0.00000000000E+00 -0.47087948445E+00  0.47087948445E+00  0.00000000000E+00 0.  1.
          1    1    1    2  502    0  0.28773725190E+02 -0.17426906073E+02  0.98966540124E+03  0.99023695686E+03  0.00000000000E+00 0.  1.
         -1    1    1    2    0  501 -0.28773725190E+02  0.17426906073E+02  0.15281969550E+04  0.15285671583E+04  0.00000000000E+00 0. -1.
</event>
<event>
 4    1  0.6935156E+001  0.2754824E+02  0.7546771E-02  0.1442177E+00
          2   -1    0    0  502    0  0.00000000000E+00  0.00000000000E+00  0.33989535514E+02  0.33989535514E+02  0.00000000000E+00 0. -1.
         -2   -1    0    0    0  501 -0.00000000000E+00 -0.00000000000E+00 -0.22751233299E+03  0.22751233299E+03  0.00000000000E+00 0.  1.
          1    1    1    2  502    0  0.27276296364E+02 -0.38612172421E+01  0.27408072624E+02  0.38860105338E+02  0.00000000000E+00 0. -1.
         -1    1    1    2    0  501 -0.27276296364E+02  0.38612172421E+01 -0.22093087010E+03  0.22264176316E+03  0.00000000000E+00 0.  1.
</event>
<event>
 4    1  0.6935156E+001  0.2865328E+02  0.7546771E-02  0.1431672E+00
          2   -1    0    0  502    0  0.00000000000E+00  0.00000000000E+00  0.13678962982E+03  0.13678962982E+03  0.00000000000E+00 0. -1.
         -2   -1    0    0    0  501 -0.00000000000E+00 -0.00000000000E+00 -0.89119478569E+01  0.89119478569E+01  0.00000000000E+00 0.  1.
          1    1    1    2  502    0  0.25132363628E+02  0.13761348642E+02  0.10556736920E+03  0.10938683586E+03  0.00000000000E+00 0.  1.
         -1    1    1    2    0  501 -0.25132363628E+02 -0.13761348642E+02  0.22310312755E+02  0.36314741817E+02  0.00000000000E+00 0. -1.
</event>
<event>
 4    1  0.6935156E+001  0.2163728E+02  0.7546771E-02  0.1510357E+00
          2   -1    0    0  502    0  0.00000000000E+00  0.00000000000E+00  0.13936931074E+04  0.13936931074E+04  0.00000000000E+00 0.  1.
         -2   -1    0    0    0  501 -0.00000000000E+00 -0.00000000000E+00 -0.42970449592E+00  0.42970449592E+00  0.00000000000E+00 0. -1.
          1    1    1    2  502    0  0.60543643085E+01  0.20772976324E+02  0.37098439769E+03  0.37161484793E+03  0.00000000000E+00 0. -1.
         -1    1    1    2    0  501 -0.60543643085E+01 -0.20772976324E+02  0.10222790052E+04  0.10225079639E+04  0.00000000000E+00 0.  1.
</event>
<event>
 4    1  0.6935156E+001  0.2759547E+02  0.7546771E-02  0.1441716E+00
          2   -1    0    0  502    0  0.00000000000E+00  0.00000000000E+00  0.14649277952E+03  0.14649277952E+03  0.00000000000E+00 0. -1.
         -2   -1    0    0    0  501 -0.00000000000E+00 -0.00000000000E+00 -0.63762909785E+01  0.63762909785E+01  0.00000000000E+00 0.  1.
          1    1    1    2  502    0 -0.71095590641E+01  0.26663913748E+02  0.37204816633E+02  0.46321793004E+02  0.00000000000E+00 0.  1.
         -1    1    1    2    0  501  0.71095590641E+01 -0.26663913748E+02  0.10291167191E+03  0.10654727749E+03  0.00000000000E+00 0. -1.
</event>
<event>
 4    1  0.6935156E+001  0.2467247E+02  0.7546771E-02  0.1472501E+00
          2   -1    0    0  502    0  0.00000000000E+00  0.00000000000E+00  0.25846154540E+01  0.25846154540E+01  0.00000000000E+00 0. -1.
         -2   -1    0    0    0  501 -0.00000000000E+00 -0.00000000000E+00 -0.23634250096E+03  0.23634250096E+03  0.00000000000E+00 0.  1.
          1    1    1    2  502    0  0.20083401518E+02 -0.14331361396E+02 -0.10983530128E+03  0.11257230718E+03  0.00000000000E+00 0.  1.
         -1    1    1    2    0  501 -0.20083401518E+02  0.14331361396E+02 -0.12392258423E+03  0.12635480924E+03  0.00000000000E+00 0. -1.
</event>
<event>
 4    1  0.6935156E+001  0.9442688E+02  0.7546771E-02  0.1173832E+00
          2   -1    0    0  502    0  0.00000000000E+00  0.00000000000E+00  0.41255996798E+03  0.41255996798E+03  0.00000000000E+00 0.  1.
         -2   -1    0    0    0  501 -0.00000000000E+00 -0.00000000000E+00 -0.22207063058E+02  0.22207063058E+02  0.00000000000E+00 0. -1.
          1    1    1    2  502    0 -0.59713432195E+02 -0.73148770410E+02  0.15960562947E+03  0.18544647086E+03  0.00000000000E+00 0. -1.
         -1    1    1    2    0  501  0.59713432195E+02  0.73148770410E+02  0.23074727545E+03  0.24932056018E+03  0.00000000000E+00 0.  1.
</event>
<event>
 4    1  0.6935156E+001  0.2315461E+02  0.7546771E-02  0.1490566E+00
          2   -1    0    0  502    0  0.00000000000E+00  0.00000000000E+00  0.74194651848E+03  0.74194651848E+03  0.00000000000E+00 0. -1.
         -2   -1    0    0    0  501 -0.00000000000E+00 -0.00000000000E+00 -0.72677399071E+00  0.72677399071E+00  0.00000000000E+00 0.  1.
          1    1    1    2  502    0  0.22002894651E+02 -0.72117081028E+01  0.34249383063E+03  0.34327563287E+03  0.00000000000E+00 0.  1.
         -1    1    1    2    0  501 -0.22002894651E+02  0.72117081028E+01  0.39872591386E+03  0.39939765960E+03  0.00000000000E+00 0. -1.
</event>
<event>
 4    1  0.6935156E+001  0.2184774E+02  0.7546771E-02  0.1507497E+00
          2   -1    0    0  502    0  0.00000000000E+00  0.00000000000E+00  0.99877307467E+00  0.99877307467E+00  0.00000000000E+00 0. -1.
         -2   -1    0    0    0  501 -0.00000000000E+00 -0.00000000000E+00 -0.47924377033E+03  0.47924377033E+03  0.00000000000E+00 0.  1.
          1    1    1    2  502    0 -0.12171260133E+02 -0.18143430233E+02 -0.22645491016E+03  0.22750637347E+03  0.00000000000E+00 0.  1.
         -1    1    1    2    0  501  0.12171260133E+02  0.18143430233E+02 -0.25179008710E+03  0.25273616994E+03  0.00000000000E+00 0. -1.
</event>
<event>
 4    1  0.6935156E+001  0.2159718E+02  0.7546771E-02  0.1510907E+00
          2   -1    0    0  502    0  0.00000000000E+00  0.00000000000E+00  0.21107523959E+03  0.21107523959E+03  0.00000000000E+00 0. -1.
         -2   -1    0    0    0  501 -0.00000000000E+00 -0.00000000000E+00 -0.23690699530E+01  0.23690699530E+01  0.00000000000E+00 0.  1.
          1    1    1    2  502    0  0.19553443462E+02  0.91706626377E+01  0.76683297174E+02  0.79666594441E+02  0.00000000000E+00 0.  1.
         -1    1    1    2    0  501 -0.19553443462E+02 -0.91706626377E+01  0.13202287246E+03  0.13377771510E+03  0.00000000000E+00 0. -1.
</event>
<event>
 4    1  0.6935156E+001  0.2106904E+02  0.7546771E-02  0.1518281E+00
          2   -1    0    0  502    0  0.00000000000E+00  0.00000000000E+00  0.35392066658E+03  0.35392066658E+03  0.00000000000E+00 0.  1.
         -2   -1    0    0    0  501 -0.00000000000E+00 -0.00000000000E+00 -0.26600618759E+01  0.26600618759E+01  0.00000000000E+00 0. -1.
          1    1    1    2  502    0 -0.21066475922E+02  0.32855738844E+00  0.30524250324E+03  0.30596877315E+03  0.00000000000E+00 0.  1.
         -1    1    1    2    0  501  0.21066475922E+02 -0.32855738844E+00  0.46018101468E+02  0.50611955311E+02  0.00000000000E+00 0. -1.
</event>
<event>
 4    1  0.6935156E+001  0.6954356E+02  0.7546771E-02  0.1230454E+00
          2   -1    0    0  502    0  0.00000000000E+00  0.00000000000E+00  0.84414402438E+03  0.84414402438E+03  0.00000000000E+00 0.  1.
         -2   -1    0    0    0  501 -0.00000000000E+00 -0.00000000000E+00 -0.81381759798E+01  0.81381759798E+01  0.00000000000E+00 0. -1.
          1    1    1    2  502    0  0.35042279000E+00 -0.69542673835E+02  0.64985032907E+03  0.65356082845E+03  0.00000000000E+00 0.  1.
         -1    1    1    2    0  501 -0.35042279000E+00  0.69542673835E+02  0.18615551933E+03  0.19872137192E+03  0.00000000000E+00 0. -1.
</event>
<event>
 4    1  0.6935156E+001  0.2148596E+02  0.7546771E-02  0.1512438E+00
          2   -1    0    0  502    0  0.00000000000E+00  0.00000000000E+00  0.81291134707E+01  0.81291134707E+01  0.00000000000E+00 0.  1.
         -2   -1    0    0    0  501 -0.00000000000E+00 -0.00000000000E+00 -0.58076472055E+02  0.58076472055E+02  0.00000000000E+00 0. -1.
          1    1    1    2  502    0 -0.21393233445E+02  0.19939863855E+01 -0.20045484095E+02  0.29384823490E+02  0.00000000000E+00 0.  1.
         -1    1    1    2    0  501  0.21393233445E+02 -0.19939863855E+01 -0.29901874489E+02  0.36820762036E+02  0.00000000000E+00 0. -1.
</event>
<event>
 4    1  0.6935156E+001  0.2179707E+02  0.7546771E-02  0.1508182E+00
          2   -1    0    0  502    0  0.00000000000E+00  0.00000000000E+00  0.51632574165E+03  0.51632574165E+03  0.00000000000E+00 0. -1.
         -2   -1    0    0    0  501 -0.00000000000E+00 -0.00000000000E+00 -0.10714831110E+01  0.10714831110E+01  0.00000000000E+00 0.  1.
          1    1    1    2  502    0  0.97536537321E+01 -0.19493034750E+02  0.35484064077E+03  0.35550948300E+03  0.00000000000E+00 0. -1.
         -1    1    1    2    0  501 -0.97536537321E+01  0.19493034750E+02  0.16041361777E+03  0.16188774176E+03  0.00000000000E+00 0.  1.
</event>
<event>
 4    1  0.6935156E+001  0.4030799E+02  0.7546771E-02  0.1346690E+00
          2   -1    0    0  502    0  0.00000000000E+00  0.00000000000E+00  0.86827982518E+03  0.86827982518E+03  0.00000000000E+00 0. -1.
         -2   -1    0    0    0  501 -0.00000000000E+00 -0.00000000000E+00 -0.24156894254E+01  0.24156894254E+01  0.00000000000E+00 0.  1.
          1    1    1    2  502    0  0.38753049625E+02  0.11087605022E+02  0.22624822742E+03  0.22981077923E+03  0.00000000000E+00 0.  1.
         -1    1    1    2    0  501 -0.38753049625E+02 -0.11087605022E+02  0.63961590834E+03  0.64088473538E+03  0.00000000000E+00 0. -1.
</event>
<event>
 4    1  0.6935156E+001  0.4207005E+02  0.7546771E-02  0.1336764E+00
          2   -1    0    0  502    0  0.00000000000E+00  0.00000000000E+00  0.86326488390E+03  0.86326488390E+03  0.00000000000E+00 0. -1.
         -2   -1    0    0    0  501 -0.00000000000E+00 -0.00000000000E+00 -0.22161157222E+01  0.22161157222E+01  0.00000000000E+00 0.  1.
          1    1    1    2  502    0 -0.40624779176E+02  0.10932355315E+02  0.31212768343E+03  0.31495012278E+03  0.00000000000E+00 0.  1.
         -1    1    1    2    0  501  0.40624779176E+02 -0.10932355315E+02  0.54892108474E+03  0.55053087684E+03  0.00000000000E+00 0. -1.
</event>
<event>
 4    1  0.6935156E+001  0.2811791E+02  0.7546771E-02  0.1436691E+00
          2   -1    0    0  502    0  0.00000000000E+00  0.00000000000E+00  0.40414729780E+02  0.40414729780E+02  0.00000000000E+00 0. -1.
         -2   -1    0    0    0  501 -0.00000000000E+00 -0.00000000000E+00 -0.19567677481E+02  0.19567677481E+02  0.00000000000E+00 0.  1.
          1    1    1    2  502    0  0.59543336149E+01  0.27480223548E+02  0.10907130294E+02  0.30159281595E+02  0.00000000000E+00 0. -1.
         -1    1    1    2    0  501 -0.59543336149E+01 -0.27480223548E+02  0.99399220045E+01  0.29823125667E+02  0.00000000000E+00 0.  1.
</event>
<event>
 4    1  0.6935156E+001  0.2094108E+02  0.7546771E-02  0.1520108E+00
          2   -1    0    0  502    0  0.00000000000E+00  0.00000000000E+00  0.41893994115E+01  0.41893994115E+01  0.00000000000E+00 0.  1.
         -2   -1    0    0    0  501 -0.00000000000E+00 -0.00000000000E+00 -0.10712442598E+03  0.10712442598E+03  0.00000000000E+00 0. -1.
          1    1    1    2  502    0 -0.36628297667E+01 -0.20618255550E+02 -0.59882143765E+02  0.63438158278E+02  0.00000000000E+00 0. -1.
         -1    1    1    2    0  501  0.36628297667E+01  0.20618255550E+02 -0.43052882799E+02  0.47875667109E+02  0.00000000000E+00 0.  1.
</event>
<event>
 4    1  0.6935156E+001  0.4061289E+02  0.7546771E-02  0.1344931E+00
          2   -1    0    0  502    0  0.00000000000E+00  0.00000000000E+00  0.83858096025E+01  0.83858096025E+01  0.00000000000E+00 0. -1.
         -2   -1    0    0    0  501 -0.00000000000E+00 -0.00000000000E+00 -0.23841518033E+03  0.23841518033E+03  0.00000000000E+00 0.  1.
          1    1    1    2  502    0 -0.38805951467E+02  0.11979341683E+02 -0.16663825888E+03  0.17151593459E+03  0.00000000000E+00 0.  1.
         -1    1    1    2    0  501  0.38805951467E+02 -0.11979341683E+02 -0.63391111849E+02  0.75285055342E+02  0.00000000000E+00 0. -1.
</event>
<event>
 4    1  0.6935156E+001  0.2316025E+02  0.7546771E-02  0.1490496E+00
          2   -1    0    0  502    0  0.00000000000E+00  0.00000000000E+00  0.10516474556E+04  0.10516474556E+04  0.00000000000E+00 0.  1.
         -2   -1    0    0    0  501 -0.00000000000E+00 -0.00000000000E+00 -0.51233007593E+00  0.51233007593E+00  0.00000000000E+00 0. -1.
          1    1    1    2  502    0  0.10065168800E+00  0.23160031622E+02  0.49050435654E+03  0.49105083339E+03  0.00000000000E+00 0. -1.
         -1    1    1    2    0  501 -0.10065168800E+00 -0.23160031622E+02  0.56063076900E+03  0.56110895230E+03  0.00000000000E+00 0.  1.
</event>
<event>
 4    1  0.6935156E+001  0.3764810E+02  0.7546771E-02  0.1362848E+00
          2   -1    0    0  502    0  0.00000000000E+00  0.00000000000E+00  0.17662141153E+03  0.17662141153E+03  0.00000000000E+00 0. -1.
         -2   -1    0    0    0  501 -0.00000000000E+00 -0.00000000000E+00 -0.96293570014E+01  0.96293570014E+01  0.00000000000E+00 0.  1.
          1    1    1    2  502    0 -0.13565031050E+02  0.35119356748E+02  0.45483589686E+02  0.59043511214E+02  0.00000000000E+00 0.  1.
         -1    1    1    2    0  501  0.13565031050E+02 -0.35119356748E+02  0.12150846484E+03  0.12720725732E+03  0.00000000000E+00 0. -1.
</event>
<event>
 4    1  0.6935156E+001  0.2235979E+02  0.7546771E-02  0.1500698E+00
          2   -1    0    0  502    0  0.00000000000E+00  0.00000000000E+00  0.31663629531E+02  0.31663629531E+02  0.00000000000E+00 0. -1.
         -2   -1    0    0    0  501 -0.00000000000E+00 -0.00000000000E+00 -0.15945265910E+02  0.15945265910E+02  0.00000000000E+00 0.  1.
          1    1    1    2  502    0  0.78196335600E+01 -0.20947880577E+02  0.55082048735E+01  0.23028258523E+02  0.00000000000E+00 0.  1.
         -1    1    1    2    0  501 -0.78196335600E+01  0.20947880577E+02  0.10210158748E+02  0.24580636918E+02  0.00000000000E+00 0. -1.
</event>
<event>
 4    1  0.6935156E+001  0.2186034E+02  0.7546771E-02  0.1507327E+00
          2   -1    0    0  502    0  0.00000000000E+00  0.00000000000E+00  0.69325593285E+01  0.69325593285E+01  0.00000000000E+00 0. -1.
         -2   -1    0    0    0  501 -0.00000000000E+00 -0.00000000000E+00 -0.14541216377E+03  0.14541216377E+03  0.00000000000E+00 0.  1.
          1    1    1    2  502    0  0.10294659268E+02 -0.19284560635E+02 -0.12448211103E+03  0.12638698610E+03  0.00000000000E+00 0.  1.
         -1    1    1    2    0  501 -0.10294659268E+02  0.19284560635E+02 -0.13997493409E+02  0.25957736998E+02  0.00000000000E+00 0. -1.
</event>
<event>
 4    1  0.6935156E+001  0.2246127E+02  0.7546771E-02  0.1499376E+00
          2   -1    0    0  502    0  0.00000000000E+00  0.00000000000E+00  0.19531979230E+01  0.19531979230E+01  0.00000000000E+00 0.  1.
         -2   -1    0    0    0  501 -0.00000000000E+00 -0.00000000000E+00 -0.51354138144E+03  0.51354138144E+03  0.00000000000E+00 0. -1.
          1    1    1    2  502    0  0.75881639978E+01  0.21140677105E+02 -0.74082327952E+02  0.77412529839E+02  0.00000000000E+00 0.  1.
         -1    1    1    2    0  501 -0.75881639978E+01 -0.21140677105E+02 -0.43750585557E+03  0.43808204952E+03  0.00000000000E+00 0. -1.
</event>
<event>
 4    1  0.6935156E+001  0.2128386E+02  0.7546771E-02  0.1515250E+00
          2   -1    0    0  502    0  0.00000000000E+00  0.00000000000E+00  0.22605206588E+03  0.22605206588E+03  0.00000000000E+00 0.  1.
         -2   -1    0    0    0  501 -0.00000000000E+00 -0.00000000000E+00 -0.99373687020E+01  0.99373687020E+01  0.00000000000E+00 0. -1.
          1    1    1    2  502    0  0.21005020133E+02 -0.34339382867E+01  0.21348544183E+03  0.21454378732E+03  0.00000000000E+00 0.  1.
         -1    1    1    2    0  501 -0.21005020133E+02  0.34339382867E+01  0.26292553480E+01  0.21445647265E+02  0.00000000000E+00 0. -1.
</event>
<event>
 4    1  0.6935156E+001  0.3408789E+02  0.7546771E-02  0.1387091E+00
          2   -1    0    0  502    0  0.00000000000E+00  0.00000000000E+00  0.17478780099E+03  0.17478780099E+03  0.00000000000E+00 0.  1.
         -2   -1    0    0    0  501 -0.00000000000E+00 -0.00000000000E+00 -0.10009333649E+02  0.10009333649E+02  0.00000000000E+00 0. -1.
          1    1    1    2  502    0  0.54790494877E+01 -0.33644673800E+02  0.13593441620E+03  0.14014331795E+03  0.00000000000E+00 0.  1.
         -1    1    1    2    0  501 -0.54790494877E+01  0.33644673800E+02  0.28844051135E+02  0.44653816682E+02  0.00000000000E+00 0. -1.
</event>
<event>
 4    1  0.6935156E+001  0.2176243E+02  0.7546771E-02  0.1508652E+00
          2   -1    0    0  502    0  0.00000000000E+00  0.00000000000E+00  0.11306836084E+04  0.11306836084E+04  0.00000000000E+00 0.  1.
         -2   -1    0    0    0  501 -0.00000000000E+00 -0.00000000000E+00 -0.42353754150E+00  0.42353754150E+00  0.00000000000E+00 0. -1.
          1    1    1    2  502    0 -0.12362114336E+02 -0.17910375329E+02  0.62453459286E+03  0.62491364291E+03  0.00000000000E+00 0.  1.
         -1    1    1    2    0  501  0.12362114336E+02  0.17910375329E+02  0.50572547803E+03  0.50619350307E+03  0.00000000000E+00 0. -1.
</event>
<event>
 4    1  0.6935156E+001  0.2600066E+02  0.7546771E-02  0.1457913E+00
          2   -1    0    0  502    0  0.00000000000E+00  0.00000000000E+00  0.27818033843E+02  0.27818033843E+02  0.00000000000E+00 0. -1.
         -2   -1    0    0    0  501 -0.00000000000E+00 -0.00000000000E+00 -0.45186049689E+02  0.45186049689E+02  0.00000000000E+00 0.  1.
          1    1    1    2  502    0 -0.62293305173E+01 -0.25243414717E+02 -0.33499453184E+02  0.42405753253E+02  0.00000000000E+00 0.  1.
         -1    1    1    2    0  501  0.62293305173E+01  0.25243414717E+02  0.16131437339E+02  0.30598330280E+02  0.00000000000E+00 0. -1.
</event>
<event>
 4    1  0.6935156E+001  0.3621842E+02  0.7546771E-02  0.1372194E+00
          2   -1    0    0  502    0  0.00000000000E+00  0.00000000000E+00  0.20792529960E+04  0.20792529960E+04  0.00000000000E+00 0. -1.
         -2   -1    0    0    0  501 -0.00000000000E+00 -0.00000000000E+00 -0.85822379248E+00  0.85822379248E+00  0.00000000000E+00 0.  1.
          1    1    1    2  502    0 -0.33548750386E+02 -0.13647532272E+02  0.15744898162E+04  0.15749063321E+04  0.00000000000E+00 0. -1.
         -1    1    1    2    0  501  0.33548750386E+02  0.13647532272E+02  0.50390495609E+03  0.50520488771E+03  0.00000000000E+00 0.  1.
</event>
<event>
 4    1  0.6935156E+001  0.2217545E+02  0.7546771E-02  0.1503120E+00
          2   -1    0    0  502    0  0.00000000000E+00  0.00000000000E+00  0.79036899754E+03  0.79036899754E+03  0.00000000000E+00 0. -1.
         -2   -1    0    0    0  501 -0.00000000000E+00 -0.00000000000E+00 -0.62559352791E+00  0.62559352791E+00  0.00000000000E+00 0.  1.
          1    1    1    2  502    0  0.21610310578E+02 -0.49744349663E+01  0.36565035557E+03  0.36632217112E+03  0.00000000000E+00 0.  1.
         -1    1    1    2    0  501 -0.21610310578E+02  0.49744349663E+01  0.42409304845E+03  0.42467241995E+03  0.00000000000E+00 0. -1.
</event>
<event>
 4    1  0.6935156E+001  0.2532359E+02  0.7546771E-02  0.1465216E+00
          2   -1    0    0  502    0  0.00000000000E+00  0.00000000000E+00  0.20687986053E+02  0.20687986053E+02  0.00000000000E+00 0.  1.
         -2   -1    0    0    0  501 -0.00000000000E+00 -0.00000000000E+00 -0.44424720282E+02  0.44424720282E+02  0.00000000000E+00 0. -1.
          1    1    1    2  502    0 -0.81436696631E+01  0.23978420319E+02 -0.29766597200E+02  0.39081124669E+02  0.00000000000E+00 0. -1.
         -1    1    1    2    0  501  0.81436696631E+01 -0.23978420319E+02  0.60298629707E+01  0.26031581666E+02  0.00000000000E+00 0.  1.
</event>
<event>
 4    1  0.6935156E+001  0.2772973E+02  0.7546771E-02  0.1440412E+00
          2   -1    0    0  502    0  0.00000000000E+00  0.00000000000E+00  0.20976000164E+04  0.20976000164E+04  0.00000000000E+00 0.  1.
         -2   -1    0    0    0  501 -0.00000000000E+00 -0.00000000000E+00 -0.10586989506E+01  0.10586989506E+01  0.00000000000E+00 0. -1.
          1    1    1    2  502    0  0.56159364751E+01 -0.27155097467E+02  0.18967005785E+04  0.18969032717E+04  0.00000000000E+00 0.  1.
         -1    1    1    2    0  501 -0.56159364751E+01  0.27155097467E+02  0.19984073898E+03  0.20175544359E+03  0.00000000000E+00 0. -1.
</event>
<event>
 4    1  0.6935156E+001  0.2440983E+02  0.7546771E-02  0.1475515E+00
          2   -1    0    0  502    0  0.00000000000E+00  0.00000000000E+00  0.56048629668E+03  0.56048629668E+03  0.00000000000E+00 0. -1.
         -2   -1    0    0    0  501 -0.00000000000E+00 -0.00000000000E+00 -0.14784278441E+02  0.14784278441E+02  0.00000000000E+00 0.  1.
          1    1    1    2  502    0  0.80412018499E+01 -0.23047317215E+02 -0.42500449554E+01  0.24777058746E+02  0.00000000000E+00 0.  1.
         -1    1    1    2    0  501 -0.80412018499E+01  0.23047317215E+02  0.54995206320E+03  0.55049351638E+03  0.00000000000E+00 0. -1.
</event>
<event>
 4    1  0.6935156E+001  0.2106459E+02  0.7546771E-02  0.1518345E+00
          2   -1    0    0  502    0  0.00000000000E+00  0.00000000000E+00  0.21976575565E+01  0.21976575565E+01  0.00000000000E+00 0.  1.
         -2   -1    0    0    0  501 -0.00000000000E+00 -0.00000000000E+00 -0.20222545438E+03  0.20222545438E+03  0.00000000000E+00 0. -1.
          1    1    1    2  502    0 -0.19693199780E+01  0.20972328574E+02 -0.10408633151E+03  0.10619642741E+03  0.00000000000E+00 0.  1.
         -1    1    1    2    0  501  0.19693199780E+01 -0.20972328574E+02 -0.95941465311E+02  0.98226684526E+02  0.00000000000E+00 0. -1.
</event>
<event>
 4    1  0.6935156E+001  0.2285217E+02  0.7546771E-02  0.1494363E+00
          2   -1    0    0  502    0  0.00000000000E+00  0.00000000000E+00  0.12941106323E+04  0.12941106323E+04  0.00000000000E+00 0.  1.
         -2   -1    0    0    0  501 -0.00000000000E+00 -0.00000000000E+00 -0.72614874065E+00  0.72614874065E+00  0.00000000000E+00 0. -1.
          1    1    1    2  502    0 -0.28510399778E+00  0.22850394677E+02  0.21516107631E+03  0.21637123325E+03  0.00000000000E+00 0. -1.
         -1    1    1    2    0  501  0.28510399778E+00 -0.22850394677E+02  0.10782234072E+04  0.10784655478E+04  0.00000000000E+00 0.  1.
</event>
<event>
 4    1  0.6935156E+001  0.2837871E+02  0.7546771E-02  0.1434229E+00
          2   -1    0    0  502    0  0.00000000000E+00  0.00000000000E+00  0.17136244722E+04  0.17136244722E+04  0.00000000000E+00 0. -1.
         -2   -1    0    0    0  501 -0.00000000000E+00 -0.00000000000E+00 -0.12889691158E+01  0.12889691158E+01  0.00000000000E+00 0.  1.
          1    1    1    2  502    0  0.27771577204E+02 -0.58387357974E+01  0.17267677334E+03  0.17499319812E+03  0.00000000000E+00 0.  1.
         -1    1    1    2    0  501 -0.27771577204E+02  0.58387357974E+01  0.15396587297E+04  0.15399202432E+04  0.00000000000E+00 0. -1.
</event>
<event>
 4    1  0.6935156E+001  0.4831090E+02  0.7546771E-02  0.1305667E+00
          2   -1    0    0  502    0  0.00000000000E+00  0.00000000000E+00  0.18854314409E+03  0.18854314409E+03  0.00000000000E+00 0.  1.
         -2   -1    0    0    0  501 -0.00000000000E+00 -0.00000000000E+00 -0.12392382719E+02  0.12392382719E+02  0.00000000000E+00 0. -1.
          1    1    1    2  502    0  0.31222330940E+02  0.36866094048E+02  0.84752451793E+02  0.97554707342E+02  0.00000000000E+00 0.  1.
         -1    1    1    2    0  501 -0.31222330940E+02 -0.36866094048E+02  0.91398309574E+02  0.10338081946E+03  0.00000000000E+00 0. -1.
</event>
<event>
 4    1  0.6935156E+001  0.4621181E+02  0.7546771E-02  0.1315489E+00
          2   -1    0    0  502    0  0.00000000000E+00  0.00000000000E+00  0.19163765081E+03  0.19163765081E+03  0.00000000000E+00 0.  1.
         -2   -1    0    0    0  501 -0.00000000000E+00 -0.00000000000E+00 -0.11336021755E+02  0.11336021755E+02  0.00000000000E+00 0. -1.
          1    1    1    2  502    0  0.26072388431E+02  0.38154444726E+02  0.76928130387E+02  0.89741118422E+02  0.00000000000E+00 0.  1.
         -1    1    1    2    0  501 -0.26072388431E+02 -0.38154444726E+02  0.10337349866E+03  0.11323255414E+03  0.00000000000E+00 0. -1.
</event>
<event>
 4    1  0.6935156E+001  0.7090915E+02  0.7546771E-02  0.1226687E+00
          2   -1    0    0  502    0  0.00000000000E+00  0.00000000000E+00  0.45457606401E+03  0.45457606401E+03  0.00000000000E+00 0.  1.
         -2   -1    0    0    0  501 -0.00000000000E+00 -0.00000000000E+00 -0.11310220672E+02  0.11310220672E+02  0.00000000000E+00 0. -1.
          1    1    1    2  502    0  0.19895687750E+02 -0.68060776182E+02  0.25620506334E+03  0.26583668319E+03  0.00000000000E+00 0.  1.
         -1    1    1    2    0  501 -0.19895687750E+02  0.68060776182E+02  0.18706077999E+03  0.20004960149E+03  0.00000000000E+00 0. -1.
</event>
<event>
 4    1  0.6935156E+001  0.2405603E+02  0.7546771E-02  0.1479647E+00
          2   -1    0    0  502    0  0.00000000000E+00  0.00000000000E+00  0.11922579128E+04  0.11922579128E+04  0.00000000000E+00 0. -1.
         -2   -1    0    0    0  501 -0.00000000000E+00 -0.00000000000E+00 -0.66644085370E+00  0.66644085370E+00  0.00000000000E+00 0.  1.
          1    1    1    2  502    0 -0.19318055801E+02  0.14335451025E+02  0.90669531106E+03  0.90701437669E+03  0.00000000000E+00 0. -1.
         -1    1    1    2    0  501  0.19318055801E+02 -0.14335451025E+02  0.28489616094E+03  0.28590997701E+03  0.00000000000E+00 0.  1.
</event>
<event>
 4    1  0.6935156E+001  0.2101210E+02  0.7546771E-02  0.1519092E+00
          2   -1    0    0  502    0  0.00000000000E+00  0.00000000000E+00  0.34086999665E+03  0.34086999665E+03  0.00000000000E+00 0. -1.
         -2   -1    0    0    0  501 -0.00000000000E+00 -0.00000000000E+00 -0.12953828854E+01  0.12953828854E+01  0.00000000000E+00 0.  1.
          1    1    1    2  502    0 -0.19923210702E+02  0.66763839960E+01  0.17158460101E+03  0.17286637536E+03  0.00000000000E+00 0. -1.
         -1    1    1    2    0  501  0.19923210702E+02 -0.66763839960E+01  0.16799001276E+03  0.16929900417E+03  0.00000000000E+00 0.  1.
</event>
<event>
 4    1  0.6935156E+001  0.2125869E+02  0.7546771E-02  0.1515603E+00
          2   -1    0    0  502    0  0.00000000000E+00  0.00000000000E+00  0.59702906477E+03  0.59702906477E+03  0.00000000000E+00 0. -1.
         -2   -1    0    0    0  501 -0.00000000000E+00 -0.00000000000E+00 -0.11809612369E+01  0.11809612369E+01  0.00000000000E+00 0.  1.
          1    1    1    2  502    0 -0.20036710331E+02 -0.71036570816E+01  0.11870445329E+03  0.12059303021E+03  0.00000000000E+00 0.  1.
         -1    1    1    2    0  501  0.20036710331E+02  0.71036570816E+01  0.47714365024E+03  0.47761699579E+03  0.00000000000E+00 0. -1.
</event>
<event>
 4    1  0.6935156E+001  0.2119687E+02  0.7546771E-02  0.1516473E+00
          2   -1    0    0  502    0  0.00000000000E+00  0.00000000000E+00  0.17038406249E+04  0.17038406249E+04  0.00000000000E+00 0. -1.
         -2   -1    0    0    0  501 -0.00000000000E+00 -0.00000000000E+00 -0.34361015097E+00  0.34361015097E+00  0.00000000000E+00 0.  1.
          1    1    1    2  502    0  0.20943632934E+02 -0.32667329605E+01  0.44083794698E+03  0.44134725875E+03  0.00000000000E+00 0.  1.
         -1    1    1    2    0  501 -0.20943632934E+02  0.32667329605E+01  0.12626590678E+04  0.12628369763E+04  0.00000000000E+00 0. -1.
</event>
<event>
 4    1  0.6935156E+001  0.2331254E+02  0.7546771E-02  0.1488610E+00
          2   -1    0    0  502    0  0.00000000000E+00  0.00000000000E+00  0.15889170915E+02  0.15889170915E+02  0.00000000000E+00 0. -1.
         -2   -1    0    0    0  501 -0.00000000000E+00 -0.00000000000E+00 -0.62041978138E+02  0.62041978138E+02  0.00000000000E+00 0.  1.
          1    1    1    2  502    0  0.15272256716E+02  0.17613418911E+02  0.30245603219E+01  0.23507920284E+02  0.00000000000E+00 0. -1.
         -1    1    1    2    0  501 -0.15272256716E+02 -0.17613418911E+02 -0.49177367546E+02  0.54423228769E+02  0.00000000000E+00 0.  1.
</event>
<event>
 4    1  0.6935156E+001  0.2483058E+02  0.7546771E-02  0.1470708E+00
          2   -1    0    0  502    0  0.00000000000E+00  0.00000000000E+00  0.91733509299E+03  0.91733509299E+03  0.00000000000E+00 0.  1.
         -2   -1    0    0    0  501 -0.00000000000E+00 -0.00000000000E+00 -0.67237866356E+00  0.67237866356E+00  0.00000000000E+00 0. -1.
          1    1    1    2  502    0  0.63932634531E+01 -0.23993411078E+02  0.44929694683E+03  0.44998255969E+03  0.00000000000E+00 0.  1.
         -1    1    1    2    0  501 -0.63932634531E+01  0.23993411078E+02  0.46736576749E+03  0.46802491196E+03  0.00000000000E+00 0. -1.
</event>
<event>
 4    1  0.6935156E+001  0.2131183E+02  0.7546771E-02  0.1514859E+00
          2   -1    0    0  502    0  0.00000000000E+00  0.00000000000E+00  0.62953279458E+01  0.62953279458E+01  0.00000000000E+00 0.  1.
         -2   -1    0    0    0  501 -0.00000000000E+00 -0.00000000000E+00 -0.85817122066E+02  0.85817122066E+02  0.00000000000E+00 0. -1.
          1    1    1    2  502    0  0.12124079760E+02  0.17527146046E+02 -0.21379665401E+02  0.30187485010E+02  0.00000000000E+00 0.  1.
         -1    1    1    2    0  501 -0.12124079760E+02 -0.17527146046E+02 -0.58142128719E+02  0.61924965002E+02  0.00000000000E+00 0. -1.
</event>
<event>
 4    1  0.6935156E+001  0.2001638E+02  0.7546771E-02  0.1533785E+00
          2   -1    0    0  502    0  0.00000000000E+00  0.00000000000E+00  0.18701870615E+03  0.18701870615E+03  0.00000000000E+00 0.  1.
         -2   -1    0    0    0  501 -0.00000000000E+00 -0.00000000000E+00 -0.71687240654E+01  0.71687240654E+01  0.00000000000E+00 0. -1.
          1    1    1    2  502    0  0.45511444209E+01  0.19492112482E+02  0.17122648965E+03  0.17239247699E+03  0.00000000000E+00 0.  1.
         -1    1    1    2    0  501 -0.45511444209E+01 -0.19492112482E+02  0.86234924409E+01  0.21794953233E+02  0.00000000000E+00 0. -1.
</event>
<event>
 4    1  0.6935156E+001  0.3364256E+02  0.7546771E-02  0.1390366E+00
          2   -1    0    0  502    0  0.00000000000E+00  0.00000000000E+00  0.15466948980E+04  0.15466948980E+04  0.00000000000E+00 0.  1.
         -2   -1    0    0    0  501 -0.00000000000E+00 -0.00000000000E+00 -0.73932361357E+00  0.73932361357E+00  0.00000000000E+00 0. -1.
          1    1    1    2  502    0  0.15983380615E+02 -0.29603260873E+02  0.85119561724E+03  0.85186019998E+03  0.00000000000E+00 0.  1.
         -1    1    1    2    0  501 -0.15983380615E+02  0.29603260873E+02  0.69475995716E+03  0.69557402164E+03  0.00000000000E+00 0. -1.
</event>
<event>
 4    1  0.6935156E+001  0.4163604E+02  0.7546771E-02  0.1339156E+00
          2   -1    0    0  502    0  0.00000000000E+00  0.00000000000E+00  0.88615293165E+03  0.88615293165E+03  0.00000000000E+00 0. -1.
         -2   -1    0    0    0  501 -0.00000000000E+00 -0.00000000000E+00 -0.28147166101E+01  0.28147166101E+01  0.00000000000E+00 0.  1.
          1    1    1    2  502    0 -0.41579947326E+02 -0.21605968794E+01  0.68713638800E+03  0.68839667047E+03  0.00000000000E+00 0. -1.
         -1    1    1    2    0  501  0.41579947326E+02  0.21605968794E+01  0.19620182704E+03  0.20057097779E+03  0.00000000000E+00 0.  1.
</event>
<event>
 4    1  0.6935156E+001  0.3369539E+02  0.7546771E-02  0.1389974E+00
          2   -1    0    0  502    0  0.00000000000E+00  0.00000000000E+00  0.10292625548E+02  0.10292625548E+02  0.00000000000E+00 0. -1.
         -2   -1    0    0    0  501 -0.00000000000E+00 -0.00000000000E+00 -0.16932686740E+03  0.16932686740E+03  0.00000000000E+00 0.  1.
          1    1    1    2  502    0 -0.33161475917E+02 -0.59746122380E+01 -0.13253820796E+03  0.13675436390E+03  0.00000000000E+00 0.  1.
         -1    1    1    2    0  501  0.33161475917E+02  0.59746122380E+01 -0.26496033893E+02  0.42865129049E+02  0.00000000000E+00 0. -1.
</event>
<event>
 4    1  0.6935156E+001  0.2074058E+02  0.7546771E-02  0.1523001E+00
          2   -1    0    0  502    0  0.00000000000E+00  0.00000000000E+00  0.16408606154E+04  0.16408606154E+04  0.00000000000E+00 0. -1.
         -2   -1    0    0    0  501 -0.00000000000E+00 -0.00000000000E+00 -0.28336342665E+00  0.28336342665E+00  0.00000000000E+00 0.  1.
          1    1    1    2  502    0 -0.57372484172E+01 -0.19931277430E+02  0.59583637238E+03  0.59619724462E+03  0.00000000000E+00 0.  1.
         -1    1    1    2    0  501  0.57372484172E+01  0.19931277430E+02  0.10447408796E+04  0.10449467342E+04  0.00000000000E+00 0. -1.
</event>
<event>
 4    1  0.6935156E+001  0.2156446E+02  0.7546771E-02  0.1511356E+00
          2   -1    0    0  502    0  0.00000000000E+00  0.00000000000E+00  0.27121992821E+01  0.27121992821E+01  0.00000000000E+00 0. -1.
         -2   -1    0    0    0  501 -0.00000000000E+00 -0.00000000000E+00 -0.22081337454E+03  0.22081337454E+03  0.00000000000E+00 0.  1.
          1    1    1    2  502    0  0.16501813202E+02  0.13882216494E+02 -0.16188973508E+03  0.16331966231E+03  0.00000000000E+00 0. -1.
         -1    1    1    2    0  501 -0.16501813202E+02 -0.13882216494E+02 -0.56211440173E+02  0.60205911504E+02  0.00000000000E+00 0.  1.
</event>
<event>
 4    1  0.6935156E+001  0.2043873E+02  0.7546771E-02  0.1527431E+00
          2   -1    0    0  502    0  0.00000000000E+00  0.00000000000E+00  0.14158601092E+02  0.14158601092E+02  0.00000000000E+00 0.  1.
         -2   -1    0    0    0  501 -0.00000000000E+00 -0.00000000000E+00 -0.32538053211E+02  0.32538053211E+02  0.00000000000E+00 0. -1.
          1    1    1    2  502    0  0.20297128585E+02 -0.24017497436E+01 -0.16318895008E+02  0.26154314460E+02  0.00000000000E+00 0. -1.
         -1    1    1    2    0  501 -0.20297128585E+02  0.24017497436E+01 -0.20605571102E+01  0.20542339843E+02  0.00000000000E+00 0.  1.
</event>
<event>
 4    1  0.6935156E+001  0.2201663E+02  0.7546771E-02  0.1505230E+00
          2   -1    0    0  502    0  0.00000000000E+00  0.00000000000E+00  0.44667499744E+03  0.44667499744E+03  0.00000000000E+00 0.  1.
         -2   -1    0    0    0  501 -0.00000000000E+00 -0.00000000000E+00 -0.20193720403E+01  0.20193720403E+01  0.00000000000E+00 0. -1.
          1    1    1    2  502    0  0.21928287842E+02 -0.19703160965E+01  0.37491770237E+03  0.37556359715E+03  0.00000000000E+00 0.  1.
         -1    1    1    2    0  501 -0.21928287842E+02  0.19703160965E+01  0.69737923022E+02  0.73130772324E+02  0.00000000000E+00 0. -1.
</event>
<event>
 4    1  0.6935156E+001  0.2086778E+02  0.7546771E-02  0.1521161E+00
          2   -1    0    0  502    0  0.00000000000E+00  0.00000000000E+00  0.20171781509E+01  0.20171781509E+01  0.00000000000E+00 0. -1.
         -2   -1    0    0    0  501 -0.00000000000E+00 -0.00000000000E+00 -0.36214286998E+03  0.36214286998E+03  0.00000000000E+00 0.  1.
          1    1    1    2  502    0  0.18143824135E+02 -0.10308537331E+02 -0.64347112418E+02  0.67646250248E+02  0.00000000000E+00 0. -1.
         -1    1    1    2    0  501 -0.18143824135E+02  0.10308537331E+02 -0.29577857941E+03  0.29651379788E+03  0.00000000000E+00 0.  1.
</event>
<event>
 4    1  0.6935156E+001  0.7138476E+02  0.7546771E-02  0.1225398E+00
          2   -1    0    0  502    0  0.00000000000E+00  0.00000000000E+00  0.12124080288E+04  0.12124080288E+04  0.00000000000E+00 0.  1.
         -2   -1    0    0    0  501 -0.00000000000E+00 -0.00000000000E+00 -0.86528596835E+01  0.86528596835E+01  0.00000000000E+00 0. -1.
          1    1    1    2  502    0  0.65254722531E+02 -0.28941401837E+02  0.16405381047E+03  0.17891181146E+03  0.00000000000E+00 0. -1.
         -1    1    1    2    0  501 -0.65254722531E+02  0.28941401837E+02  0.10397013586E+04  0.10421490770E+04  0.00000000000E+00 0.  1.
</event>
<event>
 4    1  0.6935156E+001  0.2132293E+02  0.7546771E-02  0.1514704E+00
          2   -1    0    0  502    0  0.00000000000E+00  0.00000000000E+00  0.42612143841E+01  0.42612143841E+01  0.00000000000E+00 0. -1.
         -2   -1    0    0    0  501 -0.00000000000E+00 -0.00000000000E+00 -0.12933637663E+03  0.12933637663E+03  0.00000000000E+00 0.  1.
          1    1    1    2  502    0  0.20365113124E+02  0.63189660374E+01 -0.90483710852E+02  0.92962191744E+02  0.00000000000E+00 0.  1.
         -1    1    1    2    0  501 -0.20365113124E+02 -0.63189660374E+01 -0.34591451397E+02  0.40635399273E+02  0.00000000000E+00 0. -1.
</event>
<event>
 4    1  0.6935156E+001  0.2875610E+02  0.7546771E-02  0.1430723E+00
          2   -1    0    0  502    0  0.00000000000E+00  0.00000000000E+00  0.15117320346E+03  0.15117320346E+03  0.00000000000E+00 0. -1.
         -2   -1    0    0    0  501 -0.00000000000E+00 -0.00000000000E+00 -0.69646848245E+01  0.69646848245E+01  0.00000000000E+00 0.  1.
          1    1    1    2  502    0  0.28620085077E+02 -0.27935799255E+01  0.10873400672E+03  0.11247220802E+03  0.00000000000E+00 0. -1.
         -1    1    1    2    0  501 -0.28620085077E+02  0.27935799255E+01  0.35474511908E+02  0.45665680261E+02  0.00000000000E+00 0.  1.
</event>
<event>
 4    1  0.6935156E+001  0.4731185E+02  0.7546771E-02  0.1310268E+00
          2   -1    0    0  502    0  0.00000000000E+00  0.00000000000E+00  0.10587069165E+02  0.10587069165E+02  0.00000000000E+00 0. -1.
         -2   -1    0    0    0  501 -0.00000000000E+00 -0.00000000000E+00 -0.21954329543E+03  0.21954329543E+03  0.00000000000E+00 0.  1.
          1    1    1    2  502    0  0.12313094435E+02 -0.45681490716E+02 -0.12659967128E+03  0.13515135093E+03  0.00000000000E+00 0. -1.
         -1    1    1    2    0  501 -0.12313094435E+02  0.45681490716E+02 -0.82356554981E+02  0.94979013665E+02  0.00000000000E+00 0.  1.
</event>
<event>
 4    1  0.6935156E+001  0.2311888E+02  0.7546771E-02  0.1491011E+00
          2   -1    0    0  502    0  0.00000000000E+00  0.00000000000E+00  0.71166125216E+02  0.71166125216E+02  0.00000000000E+00 0. -1.
         -2   -1    0    0    0  501 -0.00000000000E+00 -0.00000000000E+00 -0.10984514315E+02  0.10984514315E+02  0.00000000000E+00 0.  1.
          1    1    1    2  502    0 -0.19993173369E+02  0.11608422777E+02  0.53191005611E+02  0.57997978746E+02  0.00000000000E+00 0. -1.
         -1    1    1    2    0  501  0.19993173369E+02 -0.11608422777E+02  0.69906052902E+01  0.24152660786E+02  0.00000000000E+00 0.  1.
</event>
<event>
 4    1  0.6935156E+001  0.2467964E+02  0.7546771E-02  0.1472419E+00
          2   -1    0    0  502    0  0.00000000000E+00  0.00000000000E+00  0.98918237701E+01  0.98918237701E+01  0.00000000000E+00 0.  1.
         -2   -1    0    0    0  501 -0.00000000000E+00 -0.00000000000E+00 -0.27299096370E+03  0.27299096370E+03  0.00000000000E+00 0. -1.
          1    1    1    2  502    0  0.11126313414E+02  0.22029289225E+02 -0.70775438130E+01  0.25674424246E+02  0.00000000000E+00 0.  1.
         -1    1    1    2    0  501 -0.11126313414E+02 -0.22029289225E+02 -0.25602159612E+03  0.25720836322E+03  0.00000000000E+00 0. -1.
</event>
<event>
 4    1  0.6935156E+001  0.3096402E+02  0.7546771E-02  0.1411400E+00
          2   -1    0    0  502    0  0.00000000000E+00  0.00000000000E+00  0.20501255705E+04  0.20501255705E+04  0.00000000000E+00 0.  1.
         -2   -1    0    0    0  501 -0.00000000000E+00 -0.00000000000E+00 -0.72714730331E+00  0.72714730331E+00  0.00000000000E+00 0. -1.
          1    1    1    2  502    0  0.17365908352E+02 -0.25635828511E+02  0.16372579813E+04  0.16375507528E+04  0.00000000000E+00 0.  1.
         -1    1    1    2    0  501 -0.17365908352E+02  0.25635828511E+02  0.41214044184E+03  0.41330196501E+03  0.00000000000E+00 0. -1.
</event>
<event>
 4    1  0.6935156E+001  0.2879085E+02  0.7546771E-02  0.1430403E+00
          2   -1    0    0  502    0  0.00000000000E+00  0.00000000000E+00  0.62919087295E+02  0.62919087295E+02  0.00000000000E+00 0. -1.
         -2   -1    0    0    0  501 -0.00000000000E+00 -0.00000000000E+00 -0.14009505487E+02  0.14009505487E+02  0.00000000000E+00 0.  1.
          1    1    1    2  502    0  0.27014520613E+02  0.99563446296E+01  0.15062954139E+02  0.32493164046E+02  0.00000000000E+00 0. -1.
         -1    1    1    2    0  501 -0.27014520613E+02 -0.99563446296E+01  0.33846627670E+02  0.44435428736E+02  0.00000000000E+00 0.  1.
</event>
<event>
 4    1  0.6935156E+001  0.2674867E+02  0.7546771E-02  0.1450149E+00
          2   -1    0    0  502    0  0.00000000000E+00  0.00000000000E+00  0.31723887785E+02  0.31723887785E+02  0.00000000000E+00 0.  1.
         -2   -1    0    0    0  501 -0.00000000000E+00 -0.00000000000E+00 -0.22932916237E+02  0.22932916237E+02  0.00000000000E+00 0. -1.
          1    1    1    2  502    0 -0.40638612505E+01  0.26438162048E+02  0.79096499753E+01  0.27893618329E+02  0.00000000000E+00 0.  1.
         -1    1    1    2    0  501  0.40638612505E+01 -0.26438162048E+02  0.88132157311E+00  0.26763185693E+02  0.00000000000E+00 0. -1.
</event>
<event>
 4    1  0.6935156E+001  0.2126632E+02  0.7546771E-02  0.1515496E+00
          2   -1    0    0  502    0  0.00000000000E+00  0.00000000000E+00  0.90809552074E+03  0.90809552074E+03  0.00000000000E+00 0.  1.
         -2   -1    0    0    0  501 -0.00000000000E+00 -0.00000000000E+00 -0.54588095176E+00  0.54588095176E+00  0.00000000000E+00 0. -1.
          1    1    1    2  502    0  0.65434252744E+01  0.20234622922E+02  0.31925973062E+03  0.31996723578E+03  0.00000000000E+00 0.  1.
         -1    1    1    2    0  501 -0.65434252744E+01 -0.20234622922E+02  0.58828990917E+03  0.58867416591E+03  0.00000000000E+00 0. -1.
</event>
<event>
 4    1  0.6935156E+001  0.2869156E+02  0.7546771E-02  0.1431318E+00
          2   -1    0    0  502    0  0.00000000000E+00  0.00000000000E+00  0.46872997860E+02  0.46872997860E+02  0.00000000000E+00 0.  1.
         -2   -1    0    0    0  501 -0.00000000000E+00 -0.00000000000E+00 -0.28498061710E+02  0.28498061710E+02  0.00000000000E+00 0. -1.
          1    1    1    2  502    0  0.27839468953E+02  0.69404156545E+01 -0.14157226670E+02  0.31994256797E+02  0.00000000000E+00 0. -1.
         -1    1    1    2    0  501 -0.27839468953E+02 -0.69404156545E+01  0.32532162820E+02  0.43376802773E+02  0.00000000000E+00 0.  1.
</event>
<event>
 4    1  0.6935156E+001  0.2284379E+02  0.7546771E-02  0.1494469E+00
          2   -1    0    0  502    0  0.00000000000E+00  0.00000000000E+00  0.26713495843E+03  0.26713495843E+03  0.00000000000E+00 0. -1.
         -2   -1    0    0    0  501 -0.00000000000E+00 -0.00000000000E+00 -0.21487844736E+01  0.21487844736E+01  0.00000000000E+00 0.  1.
          1    1    1    2  502    0  0.45218585430E+01 -0.22391770431E+02  0.17308666489E+03  0.17458760595E+03  0.00000000000E+00 0.  1.
         -1    1    1    2    0  501 -0.45218585430E+01  0.22391770431E+02  0.91899509059E+02  0.94696136949E+02  0.00000000000E+00 0. -1.
</event>
<event>
 4    1  0.6935156E+001  0.2316523E+02  0.7546771E-02  0.1490434E+00
          2   -1    0    0  502    0  0.00000000000E+00  0.00000000000E+00  0.27613452734E+04  0.27613452734E+04  0.00000000000E+00 0. -1.
         -2   -1    0    0    0  501 -0.00000000000E+00 -0.00000000000E+00 -0.20438520605E+00  0.20438520605E+00  0.00000000000E+00 0.  1.
          1    1    1    2  502    0 -0.20228652350E+01 -0.23076743511E+02  0.16867453860E+04  0.16869044506E+04  0.00000000000E+00 0. -1.
         -1    1    1    2    0  501  0.20228652350E+01  0.23076743511E+02  0.10743955021E+04  0.10746452080E+04  0.00000000000E+00 0.  1.
</event>
<event>
 4    1  0.6935156E+001  0.4170245E+02  0.7546771E-02  0.1338788E+00
          2   -1    0    0  502    0  0.00000000000E+00  0.00000000000E+00  0.40065744527E+03  0.40065744527E+03  0.00000000000E+00 0. -1.
         -2   -1    0    0    0  501 -0.00000000000E+00 -0.00000000000E+00 -0.79850087444E+01  0.79850087444E+01  0.00000000000E+00 0.  1.
          1    1    1    2  502    0  0.36591355963E+02 -0.20004183435E+02  0.33437120706E+03  0.33696171711E+03  0.00000000000E+00 0. -1.
         -1    1    1    2    0  501 -0.36591355963E+02  0.20004183435E+02  0.58301229465E+02  0.71680736905E+02  0.00000000000E+00 0.  1.
</event>
<event>
 4    1  0.6935156E+001  0.2369301E+02  0.7546771E-02  0.1483975E+00
          2   -1    0    0  502    0  0.00000000000E+00  0.00000000000E+00  0.10046512238E+02  0.10046512238E+02  0.00000000000E+00 0. -1.
         -2   -1    0    0    0  501 -0.00000000000E+00 -0.00000000000E+00 -0.56977388758E+02  0.56977388758E+02  0.00000000000E+00 0.  1.
          1    1    1    2  502    0 -0.20423493462E+02 -0.12009973933E+02 -0.28124793195E+02  0.36774482339E+02  0.00000000000E+00 0. -1.
         -1    1    1    2    0  501  0.20423493462E+02  0.12009973933E+02 -0.18806083325E+02  0.30249418657E+02  0.00000000000E+00 0.  1.
</event>
<event>
 4    1  0.6935156E+001  0.3895713E+02  0.7546771E-02  0.1354708E+00
          2   -1    0    0  502    0  0.00000000000E+00  0.00000000000E+00  0.12089285653E+03  0.12089285653E+03  0.00000000000E+00 0.  1.
         -2   -1    0    0    0  501 -0.00000000000E+00 -0.00000000000E+00 -0.12608254406E+02  0.12608254406E+02  0.00000000000E+00 0. -1.
          1    1    1    2  502    0 -0.31636464373E+02 -0.22733066482E+02  0.49753358011E+02  0.63190622905E+02  0.00000000000E+00 0. -1.
         -1    1    1    2    0  501  0.31636464373E+02  0.22733066482E+02  0.58531244110E+02  0.70310488028E+02  0.00000000000E+00 0.  1.
</event>
<event>
 4    1  0.6935156E+001  0.2125593E+02  0.7546771E-02  0.1515642E+00
          2   -1    0    0  502    0  0.00000000000E+00  0.00000000000E+00  0.21120671359E+04  0.21120671359E+04  0.00000000000E+00 0. -1.
         -2   -1    0    0    0  501 -0.00000000000E+00 -0.00000000000E+00 -0.21726308444E+00  0.21726308444E+00  0.00000000000E+00 0.  1.
          1    1    1    2  502    0 -0.14032678135E+02  0.15965546695E+02  0.11869221425E+04  0.11871124576E+04  0.00000000000E+00 0.  1.
         -1    1    1    2    0  501  0.14032678135E+02 -0.15965546695E+02  0.92492773034E+03  0.92517194136E+03  0.00000000000E+00 0. -1.
</event>
<event>
 4    1  0.6935156E+001  0.2805883E+02  0.7546771E-02  0.1437252E+00
          2   -1    0    0  502    0  0.00000000000E+00  0.00000000000E+00  0.11233807229E+04  0.11233807229E+04  0.00000000000E+00 0.  1.
         -2   -1    0    0    0  501 -0.00000000000E+00 -0.00000000000E+00 -0.74310603718E+00  0.74310603718E+00  0.00000000000E+00 0. -1.
          1    1    1    2  502    0 -0.18061887528E+02 -0.21472448055E+02  0.69538243198E+03  0.69594829155E+03  0.00000000000E+00 0. -1.
         -1    1    1    2    0  501  0.18061887528E+02  0.21472448055E+02  0.42725518488E+03  0.42817553739E+03  0.00000000000E+00 0.  1.
</event>
<event>
 4    1  0.6935156E+001  0.2637187E+02  0.7546771E-02  0.1454022E+00
          2   -1    0    0  502    0  0.00000000000E+00  0.00000000000E+00  0.36027130309E+01  0.36027130309E+01  0.00000000000E+00 0.  1.
         -2   -1    0    0    0  501 -0.00000000000E+00 -0.00000000000E+00 -0.19360725016E+03  0.19360725016E+03  0.00000000000E+00 0. -1.
          1    1    1    2  502    0  0.26287450708E+02 -0.21084187267E+01 -0.10032945752E+03  0.10373753198E+03  0.00000000000E+00 0.  1.
         -1    1    1    2    0  501 -0.26287450708E+02  0.21084187267E+01 -0.89675079599E+02  0.93472431205E+02  0.00000000000E+00 0. -1.
</event>
<event>
 4    1  0.6935156E+001  0.2412732E+02  0.7546771E-02  0.1478808E+00
          2   -1    0    0  502    0  0.00000000000E+00  0.00000000000E+00  0.19720941629E+04  0.19720941629E+04  0.00000000000E+00 0. -1.
         -2   -1    0    0    0  501 -0.00000000000E+00 -0.00000000000E+00 -0.29680874534E+00  0.29680874534E+00  0.00000000000E+00 0.  1.
          1    1    1    2  502    0 -0.44048802787E+01  0.23721820783E+02  0.91290029937E+03  0.91321907796E+03  0.00000000000E+00 0.  1.
         -1    1    1    2    0  501  0.44048802787E+01 -0.23721820783E+02  0.10588970548E+04  0.10591718937E+04  0.00000000000E+00 0. -1.
</event>
<event>
 4    1  0.6935156E+001  0.2014419E+02  0.7546771E-02  0.1531843E+00
          2   -1    0    0  502    0  0.00000000000E+00  0.00000000000E+00  0.12157452633E+02  0.12157452633E+02  0.00000000000E+00 0. -1.
         -2   -1    0    0    0  501 -0.00000000000E+00 -0.00000000000E+00 -0.61528263010E+02  0.61528263010E+02  0.00000000000E+00 0.  1.
          1    1    1    2  502    0 -0.62787983777E+01  0.19140667266E+02 -0.49606040835E+02  0.53540150726E+02  0.00000000000E+00 0.  1.
         -1    1    1    2    0  501  0.62787983777E+01 -0.19140667266E+02  0.23523045726E+00  0.20145564917E+02  0.00000000000E+00 0. -1.
</event>
<event>
 4    1  0.6935156E+001  0.2758773E+02  0.7546771E-02  0.1441792E+00
          2   -1    0    0  502    0  0.00000000000E+00  0.00000000000E+00  0.23883852390E+03  0.23883852390E+03  0.00000000000E+00 0. -1.
         -2   -1    0    0    0  501 -0.00000000000E+00 -0.00000000000E+00 -0.33497391821E+01  0.33497391821E+01  0.00000000000E+00 0.  1.
          1    1    1    2  502    0 -0.27039244925E+02 -0.54737514089E+01  0.14446814281E+03  0.14707864225E+03  0.00000000000E+00 0. -1.
         -1    1    1    2    0  501  0.27039244925E+02  0.54737514089E+01  0.91020641912E+02  0.95109620832E+02  0.00000000000E+00 0.  1.
</event>
<event>
 4    1  0.6935156E+001  0.4186250E+02  0.7546771E-02  0.1337904E+00
          2   -1    0    0  502    0  0.00000000000E+00  0.00000000000E+00  0.92113539959E+02  0.92113539959E+02  0.00000000000E+00 0. -1.
         -2   -1    0    0    0  501 -0.00000000000E+00 -0.00000000000E+00 -0.19924794572E+02  0.19924794572E+02  0.00000000000E+00 0.  1.
          1    1    1    2  502    0  0.39793831986E+02  0.12996926041E+02  0.47998229326E+02  0.63689082025E+02  0.00000000000E+00 0. -1.
         -1    1    1    2    0  501 -0.39793831986E+02 -0.12996926041E+02  0.24190516060E+02  0.48349252507E+02  0.00000000000E+00 0.  1.
</event>
<event>
 4    1  0.6935156E+001  0.2187304E+02  0.7546771E-02  0.1507156E+00
          2   -1    0    0  502    0  0.00000000000E+00  0.00000000000E+00  0.69983515715E+03  0.69983515715E+03  0.00000000000E+00 0. -1.
         -2   -1    0    0    0  501 -0.00000000000E+00 -0.00000000000E+00 -0.88662312439E+00  0.88662312439E+00  0.00000000000E+00 0.  1.
          1    1    1    2  502    0 -0.21869091460E+02  0.41544625262E+00  0.51711692737E+03  0.51757931404E+03  0.00000000000E+00 0. -1.
         -1    1    1    2    0  501  0.21869091460E+02 -0.41544625262E+00  0.18183160666E+03  0.18314246623E+03  0.00000000000E+00 0.  1.
</event>
<event>
 4    1  0.6935156E+001  0.2928380E+02  0.7546771E-02  0.1425924E+00
          2   -1    0    0  502    0  0.00000000000E+00  0.00000000000E+00  0.38001178541E+03  0.38001178541E+03  0.00000000000E+00 0.  1.
         -2   -1    0    0    0  501 -0.00000000000E+00 -0.00000000000E+00 -0.23466956058E+01  0.23466956058E+01  0.00000000000E+00 0. -1.
          1    1    1    2  502    0  0.27237982619E+02 -0.10753287820E+02  0.22628878573E+03  0.22817571177E+03  0.00000000000E+00 0.  1.
         -1    1    1    2    0  501 -0.27237982619E+02  0.10753287820E+02  0.15137630408E+03  0.15418276925E+03  0.00000000000E+00 0. -1.
</event>
<event>
 4    1  0.6935156E+001  0.2583200E+02  0.7546771E-02  0.1459707E+00
          2   -1    0    0  502    0  0.00000000000E+00  0.00000000000E+00  0.10966207248E+03  0.10966207248E+03  0.00000000000E+00 0. -1.
         -2   -1    0    0    0  501 -0.00000000000E+00 -0.00000000000E+00 -0.61132917352E+01  0.61132917352E+01  0.00000000000E+00 0.  1.
          1    1    1    2  502    0 -0.18887296658E+02 -0.17622772739E+02  0.47835339984E+02  0.54364619427E+02  0.00000000000E+00 0. -1.
         -1    1    1    2    0  501  0.18887296658E+02  0.17622772739E+02  0.55713440762E+02  0.61410744790E+02  0.00000000000E+00 0.  1.
</event>
<event>
 4    1  0.6935156E+001  0.4418771E+02  0.7546771E-02  0.1325551E+00
          2   -1    0    0  502    0  0.00000000000E+00  0.00000000000E+00  0.59918463534E+03  0.59918463534E+03  0.00000000000E+00 0.  1.
         -2   -1    0    0    0  501 -0.00000000000E+00 -0.00000000000E+00 -0.43777369450E+01  0.43777369450E+01  0.00000000000E+00 0. -1.
          1    1    1    2  502    0 -0.46867552802E+01  0.43938452712E+02  0.14482518341E+03  0.15141627077E+03  0.00000000000E+00 0. -1.
         -1    1    1    2    0  501  0.46867552802E+01 -0.43938452712E+02  0.44998171498E+03  0.45214610152E+03  0.00000000000E+00 0.  1.
</event>
<event>
 4    1  0.6935156E+001  0.2182276E+02  0.7546771E-02  0.1507835E+00
          2   -1    0    0  502    0  0.00000000000E+00  0.00000000000E+00  0.27320527774E+03  0.27320527774E+03  0.00000000000E+00 0. -1.
         -2   -1    0    0    0  501 -0.00000000000E+00 -0.00000000000E+00 -0.20880909083E+01  0.20880909083E+01  0.00000000000E+00 0.  1.
          1    1    1    2  502    0 -0.16645740232E+02  0.14112127801E+02  0.19150533984E+03  0.19274472238E+03  0.00000000000E+00 0.  1.
         -1    1    1    2    0  501  0.16645740232E+02 -0.14112127801E+02  0.79611846995E+02  0.82548646269E+02  0.00000000000E+00 0. -1.
</event>
<event>
 4    1  0.6935156E+001  0.3700599E+02  0.7546771E-02  0.1366984E+00
          2   -1    0    0  502    0  0.00000000000E+00  0.00000000000E+00  0.20829318434E+03  0.20829318434E+03  0.00000000000E+00 0.  1.
         -2   -1    0    0    0  501 -0.00000000000E+00 -0.00000000000E+00 -0.71727940695E+01  0.71727940695E+01  0.00000000000E+00 0. -1.
          1    1    1    2  502    0  0.35771413627E+02  0.94788969282E+01  0.13167213292E+03  0.13677351391E+03  0.00000000000E+00 0.  1.
         -1    1    1    2    0  501 -0.35771413627E+02 -0.94788969282E+01  0.69448257355E+02  0.78692464503E+02  0.00000000000E+00 0. -1.
</event>
<event>
 4    1  0.6935156E+001  0.4326819E+02  0.7546771E-02  0.1330330E+00
          2   -1    0    0  502    0  0.00000000000E+00  0.00000000000E+00  0.47979483830E+03  0.47979483830E+03  0.00000000000E+00 0. -1.
         -2   -1    0    0    0  501 -0.00000000000E+00 -0.00000000000E+00 -0.40312146977E+01  0.40312146977E+01  0.00000000000E+00 0.  1.
          1    1    1    2  502    0  0.39764031516E+02  0.17057500123E+02  0.19456289346E+03  0.19931597032E+03  0.00000000000E+00 0.  1.
         -1    1    1    2    0  501 -0.39764031516E+02 -0.17057500123E+02  0.28120073014E+03  0.28451008267E+03  0.00000000000E+00 0. -1.
</event>
<event>
 4    1  0.6935156E+001  0.2537126E+02  0.7546771E-02  0.1464693E+00
          2   -1    0    0  502    0  0.00000000000E+00  0.00000000000E+00  0.14458050364E+03  0.14458050364E+03  0.00000000000E+00 0.  1.
         -2   -1    0    0    0  501 -0.00000000000E+00 -0.00000000000E+00 -0.26852998932E+02  0.26852998932E+02  0.00000000000E+00 0. -1.
          1    1    1    2  502    0  0.21725606991E+02 -0.13103385318E+02  0.13715281627E+03  0.13947973228E+03  0.00000000000E+00 0.  1.
         -1    1    1    2    0  501 -0.21725606991E+02  0.13103385318E+02 -0.19425311569E+02  0.31953770286E+02  0.00000000000E+00 0. -1.
</event>
<event>
 4    1  0.6935156E+001  0.2527052E+02  0.7546771E-02  0.1465800E+00
          2   -1    0    0  502    0  0.00000000000E+00  0.00000000000E+00  0.89153496611E+03  0.89153496611E+03  0.00000000000E+00 0.  1.
         -2   -1    0    0    0  501 -0.00000000000E+00 -0.00000000000E+00 -0.72164129022E+00  0.72164129022E+00  0.00000000000E+00 0. -1.
          1    1    1    2  502    0  0.11618735361E+02 -0.22441130677E+02  0.48381694187E+03  0.48447645206E+03  0.00000000000E+00 0.  1.
         -1    1    1    2    0  501 -0.11618735361E+02  0.22441130677E+02  0.40699638295E+03  0.40778015534E+03  0.00000000000E+00 0. -1.
</event>
<event>
 4    1  0.6935156E+001  0.2674951E+02  0.7546771E-02  0.1450141E+00
          2   -1    0    0  502    0  0.00000000000E+00  0.00000000000E+00  0.13627147749E+04  0.13627147749E+04  0.00000000000E+00 0.  1.
         -2   -1    0    0    0  501 -0.00000000000E+00 -0.00000000000E+00 -0.16348997796E+01  0.16348997796E+01  0.00000000000E+00 0. -1.
          1    1    1    2  502    0 -0.79076462107E+01 -0.25553971316E+02  0.11848849716E+03  0.12147040906E+03  0.00000000000E+00 0. -1.
         -1    1    1    2    0  501  0.79076462107E+01  0.25553971316E+02  0.12425913780E+04  0.12428792656E+04  0.00000000000E+00 0.  1.
</event>
<event>
 4    1  0.6935156E+001  0.2297822E+02  0.7546771E-02  0.1492772E+00
          2   -1    0    0  502    0  0.00000000000E+00  0.00000000000E+00  0.22579060226E+03  0.22579060226E+03  0.00000000000E+00 0.  1.
         -2   -1    0    0    0  501 -0.00000000000E+00 -0.00000000000E+00 -0.24384051879E+01  0.24384051879E+01  0.00000000000E+00 0. -1.
          1    1    1    2  502    0  0.15237999828E+02  0.17198887664E+02  0.88571068735E+02  0.91503183510E+02  0.00000000000E+00 0. -1.
         -1    1    1    2    0  501 -0.15237999828E+02 -0.17198887664E+02  0.13478112833E+03  0.13672582393E+03  0.00000000000E+00 0.  1.
</event>
<event>
 4    1  0.6935156E+001  0.2028318E+02  0.7546771E-02  0.1529750E+00
          2   -1    0    0  502    0  0.00000000000E+00  0.00000000000E+00  0.72443953022E+03  0.72443953022E+03  0.00000000000E+00 0.  1.
         -2   -1    0    0    0  501 -0.00000000000E+00 -0.00000000000E+00 -0.59037055082E+00  0.59037055082E+00  0.00000000000E+00 0. -1.
          1    1    1    2  502    0  0.59921335639E+01 -0.19377862478E+02  0.43265349337E+03  0.43312867897E+03  0.00000000000E+00 0.  1.
         -1    1    1    2    0  501 -0.59921335639E+01  0.19377862478E+02  0.29119566630E+03  0.29190122180E+03  0.00000000000E+00 0. -1.
</event>
<event>
 4    1  0.6935156E+001  0.2417872E+02  0.7546771E-02  0.1478205E+00
          2   -1    0    0  502    0  0.00000000000E+00  0.00000000000E+00  0.35356175500E+03  0.35356175500E+03  0.00000000000E+00 0. -1.
         -2   -1    0    0    0  501 -0.00000000000E+00 -0.00000000000E+00 -0.16693636170E+01  0.16693636170E+01  0.00000000000E+00 0.  1.
          1    1    1    2  502    0  0.14005934784E+01 -0.24138119137E+02  0.19326658898E+03  0.19477316261E+03  0.00000000000E+00 0. -1.
         -1    1    1    2    0  501 -0.14005934784E+01  0.24138119137E+02  0.15862580240E+03  0.16045795600E+03  0.00000000000E+00 0.  1.
</event>
<event>
 4    1  0.6935156E+001  0.2105887E+02  0.7546771E-02  0.1518426E+00
          2   -1    0    0  502    0  0.00000000000E+00  0.00000000000E+00  0.23832323691E+01  0.23832323691E+01  0.00000000000E+00 0.  1.
         -2   -1    0    0    0  501 -0.00000000000E+00 -0.00000000000E+00 -0.25283784336E+03  0.25283784336E+03  0.00000000000E+00 0. -1.
          1    1    1    2  502    0  0.13809632107E+02 -0.15898747534E+02 -0.59656446609E+02  0.63264269016E+02  0.00000000000E+00 0.  1.
         -1    1    1    2    0  501 -0.13809632107E+02  0.15898747534E+02 -0.19079816438E+03  0.19195680671E+03  0.00000000000E+00 0. -1.
</event>
<event>
 4    1  0.6935156E+001  0.2275018E+02  0.7546771E-02  0.1495659E+00
          2   -1    0    0  502    0  0.00000000000E+00  0.00000000000E+00  0.61440867746E+03  0.61440867746E+03  0.00000000000E+00 0.  1.
         -2   -1    0    0    0  501 -0.00000000000E+00 -0.00000000000E+00 -0.11993971330E+01  0.11993971330E+01  0.00000000000E+00 0. -1.
          1    1    1    2  502    0  0.11870108763E+02  0.19408023037E+02  0.13867315374E+03  0.14052691703E+03  0.00000000000E+00 0. -1.
         -1    1    1    2    0  501 -0.11870108763E+02 -0.19408023037E+02  0.47453612658E+03  0.47508115756E+03  0.00000000000E+00 0.  1.
</event>
<event>
 4    1  0.6935156E+001  0.2492653E+02  0.7546771E-02  0.1469627E+00
          2   -1    0    0  502    0  0.00000000000E+00  0.00000000000E+00  0.58825217968E+01  0.58825217968E+01  0.00000000000E+00 0.  1.
         -2   -1    0    0    0  501 -0.00000000000E+00 -0.00000000000E+00 -0.19083000751E+03  0.19083000751E+03  0.00000000000E+00 0. -1.
          1    1    1    2  502    0  0.34266770814E+01 -0.24689868724E+02 -0.26751038521E+02  0.36564324079E+02  0.00000000000E+00 0.  1.
         -1    1    1    2    0  501 -0.34266770814E+01  0.24689868724E+02 -0.15819644719E+03  0.16014820522E+03  0.00000000000E+00 0. -1.
</event>
<event>
 4    1  0.6935156E+001  0.2539757E+02  0.7546771E-02  0.1464405E+00
          2   -1    0    0  502    0  0.00000000000E+00  0.00000000000E+00  0.81763320095E+03  0.81763320095E+03  0.00000000000E+00 0. -1.
         -2   -1    0    0    0  501 -0.00000000000E+00 -0.00000000000E+00 -0.98637048997E+00  0.98637048997E+00  0.00000000000E+00 0.  1.
          1    1    1    2  502    0 -0.25257860455E+02  0.26602886072E+01  0.22518672144E+03  0.22661442179E+03  0.00000000000E+00 0.  1.
         -1    1    1    2    0  501  0.25257860455E+02 -0.26602886072E+01  0.59146010902E+03  0.59200514965E+03  0.00000000000E+00 0. -1.
</event>
<event>
 4    1  0.6935156E+001  0.2019365E+02  0.7546771E-02  0.1531096E+00
          2   -1    0    0  502    0  0.00000000000E+00  0.00000000000E+00  0.83982496335E+01  0.83982496335E+01  0.00000000000E+00 0. -1.
         -2   -1    0    0    0  501 -0.00000000000E+00 -0.00000000000E+00 -0.50033312425E+02  0.50033312425E+02  0.00000000000E+00 0.  1.
          1    1    1    2  502    0 -0.65660880589E+01  0.19096334129E+02 -0.15796908023E+02  0.25638365639E+02  0.00000000000E+00 0. -1.
         -1    1    1    2    0  501  0.65660880589E+01 -0.19096334129E+02 -0.25838154768E+02  0.32793196419E+02  0.00000000000E+00 0.  1.
</event>
<event>
 4    1  0.6935156E+001  0.2005183E+02  0.7546771E-02  0.1533245E+00
          2   -1    0    0  502    0  0.00000000000E+00  0.00000000000E+00  0.80444083009E+01  0.80444083009E+01  0.00000000000E+00 0.  1.
         -2   -1    0    0    0  501 -0.00000000000E+00 -0.00000000000E+00 -0.12906528494E+03  0.12906528494E+03  0.00000000000E+00 0. -1.
          1    1    1    2  502    0 -0.17530373993E+02  0.97345720651E+01 -0.68473463157E+01  0.21188724766E+02  0.00000000000E+00 0.  1.
         -1    1    1    2    0  501  0.17530373993E+02 -0.97345720651E+01 -0.11417353032E+03  0.11592096847E+03  0.00000000000E+00 0. -1.
</event>
<event>
 4    1  0.6935156E+001  0.2269266E+02  0.7546771E-02  0.1496394E+00
          2   -1    0    0  502    0  0.00000000000E+00  0.00000000000E+00  0.59011919362E+03  0.59011919362E+03  0.00000000000E+00 0. -1.
         -2   -1    0    0    0  501 -0.00000000000E+00 -0.00000000000E+00 -0.99331047215E+00  0.99331047215E+00  0.00000000000E+00 0.  1.
          1    1    1    2  502    0  0.20733664678E+02 -0.92234580210E+01  0.39758070773E+03  0.39822779434E+03  0.00000000000E+00 0. -1.
         -1    1    1    2    0  501 -0.20733664678E+02  0.92234580210E+01  0.19154517542E+03  0.19288470975E+03  0.00000000000E+00 0.  1.
</event>
<event>
 4    1  0.6935156E+001  0.2224134E+02  0.7546771E-02  0.1502251E+00
          2   -1    0    0  502    0  0.00000000000E+00  0.00000000000E+00  0.13633645821E+01  0.13633645821E+01  0.00000000000E+00 0. -1.
         -2   -1    0    0    0  501 -0.00000000000E+00 -0.00000000000E+00 -0.51897379184E+03  0.51897379184E+03  0.00000000000E+00 0.  1.
          1    1    1    2  502    0 -0.19786385936E+02 -0.10157554756E+02 -0.11610095728E+03  0.11821213673E+03  0.00000000000E+00 0. -1.
         -1    1    1    2    0  501  0.19786385936E+02  0.10157554756E+02 -0.40150946997E+03  0.40212501969E+03  0.00000000000E+00 0.  1.
</event>
<event>
 4    1  0.6935156E+001  0.2417112E+02  0.7546771E-02  0.1478294E+00
          2   -1    0    0  502    0  0.00000000000E+00  0.00000000000E+00  0.15952506429E+03  0.15952506429E+03  0.00000000000E+00 0.  1.
         -2   -1    0    0    0  501 -0.00000000000E+00 -0.00000000000E+00 -0.39065077258E+01  0.39065077258E+01  0.00000000000E+00 0. -1.
          1    1    1    2  502    0 -0.24151340181E+02 -0.97756253535E+00  0.57381927233E+02  0.62264985618E+02  0.00000000000E+00 0. -1.
         -1    1    1    2    0  501  0.24151340181E+02  0.97756253535E+00  0.98236629328E+02  0.10116658639E+03  0.00000000000E+00 0.  1.
</event>
<event>
 4    1  0.6935156E+001  0.3293400E+02  0.7546771E-02  0.1395700E+00
          2   -1    0    0  502    0  0.00000000000E+00  0.00000000000E+00  0.17595949123E+04  0.17595949123E+04  0.00000000000E+00 0.  1.
         -2   -1    0    0    0  501 -0.00000000000E+00 -0.00000000000E+00 -0.11252140779E+01  0.11252140779E+01  0.00000000000E+00 0. -1.
          1    1    1    2  502    0 -0.30803565899E+02 -0.11652845840E+02  0.14712243747E+04  0.14715929496E+04  0.00000000000E+00 0.  1.
         -1    1    1    2    0  501  0.30803565899E+02  0.11652845840E+02  0.28724532348E+03  0.28912717677E+03  0.00000000000E+00 0. -1.
</event>
<event>
 4    1  0.6935156E+001  0.3038428E+02  0.7546771E-02  0.1416286E+00
          2   -1    0    0  502    0  0.00000000000E+00  0.00000000000E+00  0.30468977086E+03  0.30468977086E+03  0.00000000000E+00 0. -1.
         -2   -1    0    0    0  501 -0.00000000000E+00 -0.00000000000E+00 -0.57237977430E+01  0.57237977430E+01  0.00000000000E+00 0.  1.
          1    1    1    2  502    0 -0.29734556608E+02  0.62498628426E+01  0.43006803863E+02  0.52657286493E+02  0.00000000000E+00 0.  1.
         -1    1    1    2    0  501  0.29734556608E+02 -0.62498628426E+01  0.25595916925E+03  0.25775628211E+03  0.00000000000E+00 0. -1.
</event>
<event>
 4    1  0.6935156E+001  0.2452507E+02  0.7546771E-02  0.1474187E+00
          2   -1    0    0  502    0  0.00000000000E+00  0.00000000000E+00  0.16377433961E+04  0.16377433961E+04  0.00000000000E+00 0. -1.
         -2   -1    0    0    0  501 -0.00000000000E+00 -0.00000000000E+00 -0.48062140022E+00  0.48062140022E+00  0.00000000000E+00 0.  1.
          1    1    1    2  502    0 -0.23946391784E+02 -0.52961848510E+01  0.12164384178E+04  0.12166856223E+04  0.00000000000E+00 0.  1.
         -1    1    1    2    0  501  0.23946391784E+02  0.52961848510E+01  0.42082435691E+03  0.42153839519E+03  0.00000000000E+00 0. -1.
</event>
<event>
 4    1  0.6935156E+001  0.2288415E+02  0.7546771E-02  0.1493958E+00
          2   -1    0    0  502    0  0.00000000000E+00  0.00000000000E+00  0.14090962322E+04  0.14090962322E+04  0.00000000000E+00 0.  1.
         -2   -1    0    0    0  501 -0.00000000000E+00 -0.00000000000E+00 -0.10327607044E+01  0.10327607044E+01  0.00000000000E+00 0. -1.
          1    1    1    2  502    0  0.18762637449E+02 -0.13101434528E+02  0.12681466671E+04  0.12683531264E+04  0.00000000000E+00 0.  1.
         -1    1    1    2    0  501 -0.18762637449E+02  0.13101434528E+02  0.13991680438E+03  0.14177586642E+03  0.00000000000E+00 0. -1.
</event>
<event>
 4    1  0.6935156E+001  0.3938051E+02  0.7546771E-02  0.1352155E+00
          2   -1    0    0  502    0  0.00000000000E+00  0.00000000000E+00  0.19680610859E+04  0.19680610859E+04  0.00000000000E+00 0.  1.
         -2   -1    0    0    0  501 -0.00000000000E+00 -0.00000000000E+00 -0.91125764252E+00  0.91125764252E+00  0.00000000000E+00 0. -1.
          1    1    1    2  502    0 -0.36251481590E+02  0.15383578947E+02  0.62149630788E+03  0.62274271182E+03  0.00000000000E+00 0.  1.
         -1    1    1    2    0  501  0.36251481590E+02 -0.15383578947E+02  0.13456535204E+04  0.13462296317E+04  0.00000000000E+00 0. -1.
</event>
<event>
 4    1  0.6935156E+001  0.2626427E+02  0.7546771E-02  0.1455142E+00
          2   -1    0    0  502    0  0.00000000000E+00  0.00000000000E+00  0.12048993436E+02  0.12048993436E+02  0.00000000000E+00 0. -1.
         -2   -1    0    0    0  501 -0.00000000000E+00 -0.00000000000E+00 -0.82652181876E+02  0.82652181876E+02  0.00000000000E+00 0.  1.
          1    1    1    2  502    0  0.16671066122E+02  0.20295010759E+02 -0.61551559464E+02  0.66920896436E+02  0.00000000000E+00 0.  1.
         -1    1    1    2    0  501 -0.16671066122E+02 -0.20295010759E+02 -0.90516289761E+01  0.27780278877E+02  0.00000000000E+00 0. -1.
</event>
<event>
 4    1  0.6935156E+001  0.2272508E+02  0.7546771E-02  0.1495980E+00
          2   -1    0    0  502    0  0.00000000000E+00  0.00000000000E+00  0.22284544563E+04  0.22284544563E+04  0.00000000000E+00 0. -1.
         -2   -1    0    0    0  501 -0.00000000000E+00 -0.00000000000E+00 -0.23702074381E+00  0.23702074381E+00  0.00000000000E+00 0.  1.
          1    1    1    2  502    0  0.22721087921E+02  0.42582079988E+00  0.12803897962E+04  0.12805914490E+04  0.00000000000E+00 0. -1.
         -1    1    1    2    0  501 -0.22721087921E+02 -0.42582079988E+00  0.94782763939E+03  0.94810002803E+03  0.00000000000E+00 0.  1.
</event>
<event>
 4    1  0.6935156E+001  0.2037269E+02  0.7546771E-02  0.1528413E+00
          2   -1    0    0  502    0  0.00000000000E+00  0.00000000000E+00  0.74816625214E+00  0.74816625214E+00  0.00000000000E+00 0.  1.
         -2   -1    0    0    0  501 -0.00000000000E+00 -0.00000000000E+00 -0.66086370782E+03  0.66086370782E+03  0.00000000000E+00 0. -1.
          1    1    1    2  502    0  0.19563022255E+02  0.56863540463E+01 -0.46261386972E+03  0.46306224087E+03  0.00000000000E+00 0. -1.
         -1    1    1    2    0  501 -0.19563022255E+02 -0.56863540463E+01 -0.19750167185E+03  0.19854963320E+03  0.00000000000E+00 0.  1.
</event>
<event>
 4    1  0.6935156E+001  0.2553586E+02  0.7546771E-02  0.1462897E+00
          2   -1    0    0  502    0  0.00000000000E+00  0.00000000000E+00  0.88163633482E+01  0.88163633482E+01  0.00000000000E+00 0.  1.
         -2   -1    0    0    0  501 -0.00000000000E+00 -0.00000000000E+00 -0.81917834487E+02  0.81917834487E+02  0.00000000000E+00 0. -1.
          1    1    1    2  502    0  0.17110823583E+02 -0.18955205302E+02 -0.50688526786E+02  0.56757438627E+02  0.00000000000E+00 0.  1.
         -1    1    1    2    0  501 -0.17110823583E+02  0.18955205302E+02 -0.22412944353E+02  0.33976759208E+02  0.00000000000E+00 0. -1.
</event>
<event>
 4    1  0.6935156E+001  0.2048454E+02  0.7546771E-02  0.1526753E+00
          2   -1    0    0  502    0  0.00000000000E+00  0.00000000000E+00  0.66091298546E+03  0.66091298546E+03  0.00000000000E+00 0.  1.
         -2   -1    0    0    0  501 -0.00000000000E+00 -0.00000000000E+00 -0.23710979323E+01  0.23710979323E+01  0.00000000000E+00 0. -1.
          1    1    1    2  502    0  0.15600028297E+02  0.13276132016E+02  0.61305886118E+03  0.61340099758E+03  0.00000000000E+00 0.  1.
         -1    1    1    2    0  501 -0.15600028297E+02 -0.13276132016E+02  0.45483026351E+02  0.49883085813E+02  0.00000000000E+00 0. -1.
</event>
<event>
 4    1  0.6935156E+001  0.4015457E+02  0.7546771E-02  0.1347582E+00
          2   -1    0    0  502    0  0.00000000000E+00  0.00000000000E+00  0.17012713434E+02  0.17012713434E+02  0.00000000000E+00 0. -1.
         -2   -1    0    0    0  501 -0.00000000000E+00 -0.00000000000E+00 -0.95307496178E+02  0.95307496178E+02  0.00000000000E+00 0.  1.
          1    1    1    2  502    0 -0.61860093657E+01 -0.39675218255E+02 -0.34951840010E+02  0.53235521745E+02  0.00000000000E+00 0. -1.
         -1    1    1    2    0  501  0.61860093657E+01  0.39675218255E+02 -0.43342942734E+02  0.59084687867E+02  0.00000000000E+00 0.  1.
</event>
<event>
 4    1  0.6935156E+001  0.3287043E+02  0.7546771E-02  0.1396186E+00
          2   -1    0    0  502    0  0.00000000000E+00  0.00000000000E+00  0.13060574974E+04  0.13060574974E+04  0.00000000000E+00 0.  1.
         -2   -1    0    0    0  501 -0.00000000000E+00 -0.00000000000E+00 -0.82800652220E+00  0.82800652220E+00  0.00000000000E+00 0. -1.
          1    1    1    2  502    0  0.27685041807E+02  0.17720145705E+02  0.67207389824E+03  0.67287724720E+03  0.00000000000E+00 0.  1.
         -1    1    1    2    0  501 -0.27685041807E+02 -0.17720145705E+02  0.63315559263E+03  0.63400825671E+03  0.00000000000E+00 0. -1.
</event>
<event>
 4    1  0.6935156E+001  0.4902145E+02  0.7546771E-02  0.1302472E+00
          2   -1    0    0  502    0  0.00000000000E+00  0.00000000000E+00  0.20540328169E+03  0.20540328169E+03  0.00000000000E+00 0.  1.
         -2   -1    0    0    0  501 -0.00000000000E+00 -0.00000000000E+00 -0.11938160803E+02  0.11938160803E+02  0.00000000000E+00 0. -1.
          1    1    1    2  502    0  0.79257285494E+01  0.48376492427E+02  0.81365380226E+02  0.94991722228E+02  0.00000000000E+00 0. -1.
         -1    1    1    2    0  501 -0.79257285494E+01 -0.48376492427E+02  0.11209974066E+03  0.12234972027E+03  0.00000000000E+00 0.  1.
</event>
<event>
 4    1  0.6935156E+001  0.2396123E+02  0.7546771E-02  0.1480768E+00
          2   -1    0    0  502    0  0.00000000000E+00  0.00000000000E+00  0.14276521824E+04  0.14276521824E+04  0.00000000000E+00 0.  1.
         -2   -1    0    0    0  501 -0.00000000000E+00 -0.00000000000E+00 -0.43680355480E+00  0.43680355480E+00  0.00000000000E+00 0. -1.
          1    1    1    2  502    0 -0.90645902031E+01  0.22180485935E+02  0.91470687804E+03  0.91502066287E+03  0.00000000000E+00 0. -1.
         -1    1    1    2    0  501  0.90645902031E+01 -0.22180485935E+02  0.51250850082E+03  0.51306832310E+03  0.00000000000E+00 0.  1.
</event>
<event>
 4    1  0.6935156E+001  0.2128510E+02  0.7546771E-02  0.1515233E+00
          2   -1    0    0  502    0  0.00000000000E+00  0.00000000000E+00  0.16205481263E+02  0.16205481263E+02  0.00000000000E+00 0.  1.
         -2   -1    0    0    0  501 -0.00000000000E+00 -0.00000000000E+00 -0.27988995016E+02  0.27988995016E+02  0.00000000000E+00 0. -1.
          1    1    1    2  502    0 -0.74745744736E+01  0.19929530042E+02 -0.51437751335E+01  0.21897804774E+02  0.00000000000E+00 0. -1.
         -1    1    1    2    0  501  0.74745744736E+01 -0.19929530042E+02 -0.66397386200E+01  0.22296671505E+02  0.00000000000E+00 0.  1.
</event>
<event>
 4    1  0.6935156E+001  0.2157240E+02  0.7546771E-02  0.1511247E+00
          2   -1    0    0  502    0  0.00000000000E+00  0.00000000000E+00  0.13007887173E+02  0.13007887173E+02  0.00000000000E+00 0. -1.
         -2   -1    0    0    0  501 -0.00000000000E+00 -0.00000000000E+00 -0.75686039966E+02  0.75686039966E+02  0.00000000000E+00 0.  1.
          1    1    1    2  502    0  0.21288577760E+02  0.34878497183E+01 -0.63542179331E+02  0.67104226341E+02  0.00000000000E+00 0.  1.
         -1    1    1    2    0  501 -0.21288577760E+02 -0.34878497183E+01  0.86402653787E+00  0.21589700798E+02  0.00000000000E+00 0. -1.
</event>
<event>
 4    1  0.6935156E+001  0.4389697E+02  0.7546771E-02  0.1327048E+00
          2   -1    0    0  502    0  0.00000000000E+00  0.00000000000E+00  0.23380575375E+03  0.23380575375E+03  0.00000000000E+00 0. -1.
         -2   -1    0    0    0  501 -0.00000000000E+00 -0.00000000000E+00 -0.13834744544E+02  0.13834744544E+02  0.00000000000E+00 0.  1.
          1    1    1    2  502    0 -0.78546623681E+01 -0.43188517209E+02  0.18871408537E+03  0.19375228968E+03  0.00000000000E+00 0. -1.
         -1    1    1    2    0  501  0.78546623681E+01  0.43188517209E+02  0.31256923831E+02  0.53888208608E+02  0.00000000000E+00 0.  1.
</event>
<event>
 4    1  0.6935156E+001  0.2521219E+02  0.7546771E-02  0.1466444E+00
          2   -1    0    0  502    0  0.00000000000E+00  0.00000000000E+00  0.43112845217E+01  0.43112845217E+01  0.00000000000E+00 0.  1.
         -2   -1    0    0    0  501 -0.00000000000E+00 -0.00000000000E+00 -0.14918543359E+03  0.14918543359E+03  0.00000000000E+00 0. -1.
          1    1    1    2  502    0  0.17461276134E+02 -0.18186763189E+02 -0.64134855114E+02  0.68912510911E+02  0.00000000000E+00 0. -1.
         -1    1    1    2    0  501 -0.17461276134E+02  0.18186763189E+02 -0.80739293949E+02  0.84584207196E+02  0.00000000000E+00 0.  1.
</event>
<event>
 4    1  0.6935156E+001  0.2074346E+02  0.7546771E-02  0.1522959E+00
          2   -1    0    0  502    0  0.00000000000E+00  0.00000000000E+00  0.21823079790E+04  0.21823079790E+04  0.00000000000E+00 0.  1.
         -2   -1    0    0    0  501 -0.00000000000E+00 -0.00000000000E+00 -0.20972506081E+00  0.20972506081E+00  0.00000000000E+00 0. -1.
          1    1    1    2  502    0 -0.12957784246E+02 -0.16198364568E+02  0.13580226847E+04  0.13581811010E+04  0.00000000000E+00 0. -1.
         -1    1    1    2    0  501  0.12957784246E+02  0.16198364568E+02  0.82407556931E+03  0.82433660305E+03  0.00000000000E+00 0.  1.
</event>
<event>
 4    1  0.6935156E+001  0.6122193E+02  0.7546771E-02  0.1255736E+00
          2   -1    0    0  502    0  0.00000000000E+00  0.00000000000E+00  0.17752231711E+04  0.17752231711E+04  0.00000000000E+00 0. -1.
         -2   -1    0    0    0  501 -0.00000000000E+00 -0.00000000000E+00 -0.66242971954E+01  0.66242971954E+01  0.00000000000E+00 0.  1.
          1    1    1    2  502    0 -0.45255806037E+02 -0.41231494927E+02  0.14893847895E+03  0.16103041535E+03  0.00000000000E+00 0.  1.
         -1    1    1    2    0  501  0.45255806037E+02  0.41231494927E+02  0.16196603949E+04  0.16208170529E+04  0.00000000000E+00 0. -1.
</event>
<event>
 4    1  0.6935156E+001  0.2527079E+02  0.7546771E-02  0.1465797E+00
          2   -1    0    0  502    0  0.00000000000E+00  0.00000000000E+00  0.20475046025E+01  0.20475046025E+01  0.00000000000E+00 0. -1.
         -2   -1    0    0    0  501 -0.00000000000E+00 -0.00000000000E+00 -0.40665472823E+03  0.40665472823E+03  0.00000000000E+00 0.  1.
          1    1    1    2  502    0  0.24652927628E+02 -0.55539257545E+01 -0.30094717423E+03  0.30200631551E+03  0.00000000000E+00 0.  1.
         -1    1    1    2    0  501 -0.24652927628E+02  0.55539257545E+01 -0.10366004940E+03  0.10669591733E+03  0.00000000000E+00 0. -1.
</event>
<event>
 4    1  0.6935156E+001  0.2675290E+02  0.7546771E-02  0.1450106E+00
          2   -1    0    0  502    0  0.00000000000E+00  0.00000000000E+00  0.12744410689E+04  0.12744410689E+04  0.00000000000E+00 0.  1.
         -2   -1    0    0    0  501 -0.00000000000E+00 -0.00000000000E+00 -0.56202030373E+00  0.56202030373E+00  0.00000000000E+00 0. -1.
          1    1    1    2  502    0  0.25646857621E+02  0.76128954284E+01  0.65451285809E+03  0.65505938577E+03  0.00000000000E+00 0.  1.
         -1    1    1    2    0  501 -0.25646857621E+02 -0.76128954284E+01  0.61936619052E+03  0.61994370345E+03  0.00000000000E+00 0. -1.
</event>
<event>
 4    1  0.6935156E+001  0.2032227E+02  0.7546771E-02  0.1529165E+00
          2   -1    0    0  502    0  0.00000000000E+00  0.00000000000E+00  0.23709432346E+02  0.23709432346E+02  0.00000000000E+00 0.  1.
         -2   -1    0    0    0  501 -0.00000000000E+00 -0.00000000000E+00 -0.17783977245E+02  0.17783977245E+02  0.00000000000E+00 0. -1.
          1    1    1    2  502    0 -0.12418040581E+02  0.16086849677E+02 -0.94245322818E-02  0.20322267424E+02  0.00000000000E+00 0. -1.
         -1    1    1    2    0  501  0.12418040581E+02 -0.16086849677E+02  0.59348796329E+01  0.21171142167E+02  0.00000000000E+00 0.  1.
</event>
<event>
 4    1  0.6935156E+001  0.2001928E+02  0.7546771E-02  0.1533741E+00
          2   -1    0    0  502    0  0.00000000000E+00  0.00000000000E+00  0.92026116627E+03  0.92026116627E+03  0.00000000000E+00 0.  1.
         -2   -1    0    0    0  501 -0.00000000000E+00 -0.00000000000E+00 -0.43620360045E+00  0.43620360045E+00  0.00000000000E+00 0. -1.
          1    1    1    2  502    0  0.87507130457E+00  0.20000141035E+02  0.47843461094E+03  0.47885326389E+03  0.00000000000E+00 0.  1.
         -1    1    1    2    0  501 -0.87507130457E+00 -0.20000141035E+02  0.44139035173E+03  0.44184410598E+03  0.00000000000E+00 0. -1.
</event>
<event>
 4    1  0.6935156E+001  0.2175641E+02  0.7546771E-02  0.1508733E+00
          2   -1    0    0  502    0  0.00000000000E+00  0.00000000000E+00  0.19238640018E+04  0.19238640018E+04  0.00000000000E+00 0.  1.
         -2   -1    0    0    0  501 -0.00000000000E+00 -0.00000000000E+00 -0.33929742216E+00  0.33929742216E+00  0.00000000000E+00 0. -1.
          1    1    1    2  502    0 -0.21745179382E+02  0.69910648605E+00  0.14661675470E+04  0.14663289595E+04  0.00000000000E+00 0.  1.
         -1    1    1    2    0  501  0.21745179382E+02 -0.69910648605E+00  0.45735715734E+03  0.45787433969E+03  0.00000000000E+00 0. -1.
</event>
<event>
 4    1  0.6935156E+001  0.2633540E+02  0.7546771E-02  0.1454401E+00
          2   -1    0    0  502    0  0.00000000000E+00  0.00000000000E+00  0.12372272974E+04  0.12372272974E+04  0.00000000000E+00 0. -1.
         -2   -1    0    0    0  501 -0.00000000000E+00 -0.00000000000E+00 -0.56787338522E+00  0.56787338522E+00  0.00000000000E+00 0.  1.
          1    1    1    2  502    0 -0.11414722005E+02  0.23733039656E+02  0.54814507307E+03  0.54877734481E+03  0.00000000000E+00 0.  1.
         -1    1    1    2    0  501  0.11414722005E+02 -0.23733039656E+02  0.68851435096E+03  0.68901782599E+03  0.00000000000E+00 0. -1.
</event>
<event>
 4    1  0.6935156E+001  0.2076142E+02  0.7546771E-02  0.1522699E+00
          2   -1    0    0  502    0  0.00000000000E+00  0.00000000000E+00  0.16661581603E+04  0.16661581603E+04  0.00000000000E+00 0.  1.
         -2   -1    0    0    0  501 -0.00000000000E+00 -0.00000000000E+00 -0.89704005357E+00  0.89704005357E+00  0.00000000000E+00 0. -1.
          1    1    1    2  502    0  0.54970508230E+01  0.20020467280E+02  0.12949381150E+03  0.13114756534E+03  0.00000000000E+00 0. -1.
         -1    1    1    2    0  501 -0.54970508230E+01 -0.20020467280E+02  0.15357673088E+04  0.15359076351E+04  0.00000000000E+00 0.  1.
</event>
<event>
 4    1  0.6935156E+001  0.2067320E+02  0.7546771E-02  0.1523982E+00
          2   -1    0    0  502    0  0.00000000000E+00  0.00000000000E+00  0.91517126711E+02  0.91517126711E+02  0.00000000000E+00 0.  1.
         -2   -1    0    0    0  501 -0.00000000000E+00 -0.00000000000E+00 -0.49413330819E+01  0.49413330819E+01  0.00000000000E+00 0. -1.
          1    1    1    2  502    0 -0.19254607715E+02 -0.75260494757E+01  0.54590318058E+02  0.58373659853E+02  0.00000000000E+00 0.  1.
         -1    1    1    2    0  501  0.19254607715E+02  0.75260494757E+01  0.31985475571E+02  0.38084799940E+02  0.00000000000E+00 0. -1.
</event>
<event>
 4    1  0.6935156E+001  0.2282793E+02  0.7546771E-02  0.1494670E+00
          2   -1    0    0  502    0  0.00000000000E+00  0.00000000000E+00  0.12222582760E+04  0.12222582760E+04  0.00000000000E+00 0.  1.
         -2   -1    0    0    0  501 -0.00000000000E+00 -0.00000000000E+00 -0.47551529185E+00  0.47551529185E+00  0.00000000000E+00 0. -1.
          1    1    1    2  502    0 -0.22034040532E+02 -0.59678725486E+01  0.80746817904E+03  0.80779079879E+03  0.00000000000E+00 0.  1.
         -1    1    1    2    0  501  0.22034040532E+02  0.59678725486E+01  0.41431458169E+03  0.41494299253E+03  0.00000000000E+00 0. -1.
</event>
<event>
 4    1  0.6935156E+001  0.2395210E+02  0.7546771E-02  0.1480877E+00
          2   -1    0    0  502    0  0.00000000000E+00  0.00000000000E+00  0.28661249926E+01  0.28661249926E+01  0.00000000000E+00 0.  1.
         -2   -1    0    0    0  501 -0.00000000000E+00 -0.00000000000E+00 -0.24942866358E+03  0.24942866358E+03  0.00000000000E+00 0. -1.
          1    1    1    2  502    0 -0.24320600211E+01 -0.23828303112E+02 -0.17934225273E+03  0.18093464721E+03  0.00000000000E+00 0.  1.
         -1    1    1    2    0  501  0.24320600211E+01  0.23828303112E+02 -0.67220285854E+02  0.71360141364E+02  0.00000000000E+00 0. -1.
</event>
<event>
 4    1  0.6935156E+001  0.2135293E+02  0.7546771E-02  0.1514285E+00
          2   -1    0    0  502    0  0.00000000000E+00  0.00000000000E+00  0.65700881375E+03  0.65700881375E+03  0.00000000000E+00 0. -1.
         -2   -1    0    0    0  501 -0.00000000000E+00 -0.00000000000E+00 -0.16157958689E+01  0.16157958689E+01  0.00000000000E+00 0.  1.
          1    1    1    2  502    0  0.13683831527E+02 -0.16392079892E+02  0.78960857094E+02  0.81797093356E+02  0.00000000000E+00 0. -1.
         -1    1    1    2    0  501 -0.13683831527E+02  0.16392079892E+02  0.57643216079E+03  0.57682751627E+03  0.00000000000E+00 0.  1.
</event>
<event>
 4    1  0.6935156E+001  0.3074866E+02  0.7546771E-02  0.1413200E+00
          2   -1    0    0  502    0  0.00000000000E+00  0.00000000000E+00  0.82997559480E+02  0.82997559480E+02  0.00000000000E+00 0. -1.
         -2   -1    0    0    0  501 -0.00000000000E+00 -0.00000000000E+00 -0.17971177914E+02  0.17971177914E+02  0.00000000000E+00 0.  1.
          1    1    1    2  502    0 -0.26928066264E+02  0.14844508692E+02  0.63059982963E+02  0.70157263646E+02  0.00000000000E+00 0. -1.
         -1    1    1    2    0  501  0.26928066264E+02 -0.14844508692E+02  0.19663986034E+01  0.30811473747E+02  0.00000000000E+00 0.  1.
</event>
<event>
 4    1  0.6935156E+001  0.2110347E+02  0.7546771E-02  0.1517793E+00
          2   -1    0    0  502    0  0.00000000000E+00  0.00000000000E+00  0.21741735260E+03  0.21741735260E+03  0.00000000000E+00 0. -1.
         -2   -1    0    0    0  501 -0.00000000000E+00 -0.00000000000E+00 -0.27251234475E+01  0.27251234475E+01  0.00000000000E+00 0.  1.
          1    1    1    2  502    0  0.10565307531E+02 -0.18268297619E+02  0.16219758421E+03  0.16356470507E+03  0.00000000000E+00 0. -1.
         -1    1    1    2    0  501 -0.10565307531E+02  0.18268297619E+02  0.52494644944E+02  0.56577770979E+02  0.00000000000E+00 0.  1.
</event>
<event>
 4    1  0.6935156E+001  0.4043076E+02  0.7546771E-02  0.1345980E+00
          2   -1    0    0  502    0  0.00000000000E+00  0.00000000000E+00  0.64948482119E+02  0.64948482119E+02  0.00000000000E+00 0. -1.
         -2   -1    0    0    0  501 -0.00000000000E+00 -0.00000000000E+00 -0.27031813620E+02  0.27031813620E+02  0.00000000000E+00 0.  1.
          1    1    1    2  502    0  0.33908273765E+02 -0.22019882937E+02  0.31033341885E+02  0.50967779850E+02  0.00000000000E+00 0. -1.
         -1    1    1    2    0  501 -0.33908273765E+02  0.22019882937E+02  0.68833266146E+01  0.41012515889E+02  0.00000000000E+00 0.  1.
</event>
<event>
 4    1  0.6935156E+001  0.3186175E+02  0.7546771E-02  0.1404079E+00
          2   -1    0    0  502    0  0.00000000000E+00  0.00000000000E+00  0.70055792950E+03  0.70055792950E+03  0.00000000000E+00 0.  1.
         -2   -1    0    0    0  501 -0.00000000000E+00 -0.00000000000E+00 -0.15345409304E+01  0.15345409304E+01  0.00000000000E+00 0. -1.
          1    1    1    2  502    0 -0.17612991537E+01  0.31813031926E+02  0.43235065122E+03  0.43352307526E+03  0.00000000000E+00 0.  1.
         -1    1    1    2    0  501  0.17612991537E+01 -0.31813031926E+02  0.26667273735E+03  0.26856939517E+03  0.00000000000E+00 0. -1.
</event>
<event>
 4    1  0.6935156E+001  0.3401361E+02  0.7546771E-02  0.1387634E+00
          2   -1    0    0  502    0  0.00000000000E+00  0.00000000000E+00  0.13915158868E+03  0.13915158868E+03  0.00000000000E+00 0.  1.
         -2   -1    0    0    0  501 -0.00000000000E+00 -0.00000000000E+00 -0.90004713453E+01  0.90004713453E+01  0.00000000000E+00 0. -1.
          1    1    1    2  502    0 -0.41295869723E+01  0.33761991075E+02  0.85531175476E+02  0.92046224845E+02  0.00000000000E+00 0. -1.
         -1    1    1    2    0  501  0.41295869723E+01 -0.33761991075E+02  0.44619941862E+02  0.56105835184E+02  0.00000000000E+00 0.  1.
</event>
<event>
 4    1  0.6935156E+001  0.2267137E+02  0.7546771E-02  0.1496666E+00
          2   -1    0    0  502    0  0.00000000000E+00  0.00000000000E+00  0.77922000069E+03  0.77922000069E+03  0.00000000000E+00 0. -1.
         -2   -1    0    0    0  501 -0.00000000000E+00 -0.00000000000E+00 -0.83290056419E+00  0.83290056419E+00  0.00000000000E+00 0.  1.
          1    1    1    2  502    0 -0.94706671624E+01 -0.20598485960E+02  0.56709074111E+03  0.56754374264E+03  0.00000000000E+00 0. -1.
         -1    1    1    2    0  501  0.94706671624E+01  0.20598485960E+02  0.21129635901E+03  0.21250915861E+03  0.00000000000E+00 0.  1.
</event>
<event>
 4    1  0.6935156E+001  0.2260577E+02  0.7546771E-02  0.1497509E+00
          2   -1    0    0  502    0  0.00000000000E+00  0.00000000000E+00  0.24634970210E+02  0.24634970210E+02  0.00000000000E+00 0.  1.
         -2   -1    0    0    0  501 -0.00000000000E+00 -0.00000000000E+00 -0.38339637505E+02  0.38339637505E+02  0.00000000000E+00 0. -1.
          1    1    1    2  502    0  0.97934181927E+01  0.20374238584E+02 -0.28183646049E+02  0.36129469169E+02  0.00000000000E+00 0. -1.
         -1    1    1    2    0  501 -0.97934181927E+01 -0.20374238584E+02  0.14478978755E+02  0.26845138546E+02  0.00000000000E+00 0.  1.
</event>
<event>
 4    1  0.6935156E+001  0.3010294E+02  0.7546771E-02  0.1418704E+00
          2   -1    0    0  502    0  0.00000000000E+00  0.00000000000E+00  0.35202523415E+01  0.35202523415E+01  0.00000000000E+00 0. -1.
         -2   -1    0    0    0  501 -0.00000000000E+00 -0.00000000000E+00 -0.32681228291E+03  0.32681228291E+03  0.00000000000E+00 0.  1.
          1    1    1    2  502    0 -0.18214057266E+02  0.23967370346E+02 -0.85538986863E+02  0.90681337644E+02  0.00000000000E+00 0. -1.
         -1    1    1    2    0  501  0.18214057266E+02 -0.23967370346E+02 -0.23775304371E+03  0.23965119761E+03  0.00000000000E+00 0.  1.
</event>
<event>
 4    1  0.6935156E+001  0.3273145E+02  0.7546771E-02  0.1397254E+00
          2   -1    0    0  502    0  0.00000000000E+00  0.00000000000E+00  0.20651196997E+04  0.20651196997E+04  0.00000000000E+00 0.  1.
         -2   -1    0    0    0  501 -0.00000000000E+00 -0.00000000000E+00 -0.56886472271E+00  0.56886472271E+00  0.00000000000E+00 0. -1.
          1    1    1    2  502    0  0.18502172323E+02 -0.27000326535E+02  0.72581666130E+03  0.72655431582E+03  0.00000000000E+00 0. -1.
         -1    1    1    2    0  501 -0.18502172323E+02  0.27000326535E+02  0.13387341737E+04  0.13391342486E+04  0.00000000000E+00 0.  1.
</event>
<event>
 4    1  0.6935156E+001  0.2738844E+02  0.7546771E-02  0.1443745E+00
          2   -1    0    0  502    0  0.00000000000E+00  0.00000000000E+00  0.12620677134E+03  0.12620677134E+03  0.00000000000E+00 0. -1.
         -2   -1    0    0    0  501 -0.00000000000E+00 -0.00000000000E+00 -0.59443500601E+01  0.59443500601E+01  0.00000000000E+00 0.  1.
          1    1    1    2  502    0 -0.18114591950E+02 -0.20542352579E+02  0.60857086440E+02  0.66736134597E+02  0.00000000000E+00 0. -1.
         -1    1    1    2    0  501  0.18114591950E+02  0.20542352579E+02  0.59405334840E+02  0.65414986803E+02  0.00000000000E+00 0.  1.
</event>
<event>
 4    1  0.6935156E+001  0.4119082E+02  0.7546771E-02  0.1341645E+00
          2   -1    0    0  502    0  0.00000000000E+00  0.00000000000E+00  0.61842364011E+02  0.61842364011E+02  0.00000000000E+00 0.  1.
         -2   -1    0    0    0  501 -0.00000000000E+00 -0.00000000000E+00 -0.36231550318E+02  0.36231550318E+02  0.00000000000E+00 0. -1.
          1    1    1    2  502    0 -0.28942855029E+02 -0.29308610938E+02  0.36966744324E+02  0.55346397518E+02  0.00000000000E+00 0.  1.
         -1    1    1    2    0  501  0.28942855029E+02  0.29308610938E+02 -0.11355930631E+02  0.42727516811E+02  0.00000000000E+00 0. -1.
</event>
<event>
 4    1  0.6935156E+001  0.6538923E+02  0.7546771E-02  0.1242545E+00
          2   -1    0    0  502    0  0.00000000000E+00  0.00000000000E+00  0.46150670106E+02  0.46150670106E+02  0.00000000000E+00 0.  1.
         -2   -1    0    0    0  501 -0.00000000000E+00 -0.00000000000E+00 -0.97452595386E+02  0.97452595386E+02  0.00000000000E+00 0. -1.
          1    1    1    2  502    0  0.62692646477E+02  0.18584506687E+02 -0.41594371269E+02  0.77497377584E+02  0.00000000000E+00 0. -1.
         -1    1    1    2    0  501 -0.62692646477E+02 -0.18584506687E+02 -0.97075540112E+01  0.66105887907E+02  0.00000000000E+00 0.  1.
</event>
<event>
 4    1  0.6935156E+001  0.2271666E+02  0.7546771E-02  0.1496087E+00
          2   -1    0    0  502    0  0.00000000000E+00  0.00000000000E+00  0.11031930685E+03  0.11031930685E+03  0.00000000000E+00 0.  1.
         -2   -1    0    0    0  501 -0.00000000000E+00 -0.00000000000E+00 -0.81310844737E+01  0.81310844737E+01  0.00000000000E+00 0. -1.
          1    1    1    2  502    0 -0.14770552540E+02 -0.17259125640E+02  0.12497310852E+02  0.25927387426E+02  0.00000000000E+00 0. -1.
         -1    1    1    2    0  501  0.14770552540E+02  0.17259125640E+02  0.89690911526E+02  0.92523003899E+02  0.00000000000E+00 0.  1.
</event>
<event>
 4    1  0.6935156E+001  0.3496654E+02  0.7546771E-02  0.1380799E+00
          2   -1    0    0  502    0  0.00000000000E+00  0.00000000000E+00  0.17661108586E+01  0.17661108586E+01  0.00000000000E+00 0.  1.
         -2   -1    0    0    0  501 -0.00000000000E+00 -0.00000000000E+00 -0.69889730301E+03  0.69889730301E+03  0.00000000000E+00 0. -1.
          1    1    1    2  502    0  0.94165165503E+01  0.33674744385E+02 -0.38263122224E+03  0.38422559965E+03  0.00000000000E+00 0.  1.
         -1    1    1    2    0  501 -0.94165165503E+01 -0.33674744385E+02 -0.31449996991E+03  0.31643781422E+03  0.00000000000E+00 0. -1.
</event>
<event>
 4    1  0.6935156E+001  0.2235729E+02  0.7546771E-02  0.1500730E+00
          2   -1    0    0  502    0  0.00000000000E+00  0.00000000000E+00  0.54234235476E+02  0.54234235476E+02  0.00000000000E+00 0.  1.
         -2   -1    0    0    0  501 -0.00000000000E+00 -0.00000000000E+00 -0.10030573699E+02  0.10030573699E+02  0.00000000000E+00 0. -1.
          1    1    1    2  502    0  0.27233811829E+00  0.22355635281E+02  0.31255986126E+02  0.38428963889E+02  0.00000000000E+00 0. -1.
         -1    1    1    2    0  501 -0.27233811829E+00 -0.22355635281E+02  0.12947675651E+02  0.25835845286E+02  0.00000000000E+00 0.  1.
</event>
<event>
 4    1  0.6935156E+001  0.2097921E+02  0.7546771E-02  0.1519562E+00
          2   -1    0    0  502    0  0.00000000000E+00  0.00000000000E+00  0.21007843311E+02  0.21007843311E+02  0.00000000000E+00 0. -1.
         -2   -1    0    0    0  501 -0.00000000000E+00 -0.00000000000E+00 -0.45636028030E+02  0.45636028030E+02  0.00000000000E+00 0.  1.
          1    1    1    2  502    0  0.10434268481E+02 -0.18200369629E+02  0.12193261853E+02  0.24265264227E+02  0.00000000000E+00 0.  1.
         -1    1    1    2    0  501 -0.10434268481E+02  0.18200369629E+02 -0.36821446572E+02  0.42378607115E+02  0.00000000000E+00 0. -1.
</event>
<event>
 4    1  0.6935156E+001  0.4857421E+02  0.7546771E-02  0.1304475E+00
          2   -1    0    0  502    0  0.00000000000E+00  0.00000000000E+00  0.59165075289E+03  0.59165075289E+03  0.00000000000E+00 0. -1.
         -2   -1    0    0    0  501 -0.00000000000E+00 -0.00000000000E+00 -0.55294307516E+01  0.55294307516E+01  0.00000000000E+00 0.  1.
          1    1    1    2  502    0  0.15733172470E+02 -0.45955644593E+02  0.13540524016E+03  0.14385420761E+03  0.00000000000E+00 0.  1.
         -1    1    1    2    0  501 -0.15733172470E+02  0.45955644593E+02  0.45071608198E+03  0.45332597603E+03  0.00000000000E+00 0. -1.
</event>
<event>
 4    1  0.6935156E+001  0.2516946E+02  0.7546771E-02  0.1466916E+00
          2   -1    0    0  502    0  0.00000000000E+00  0.00000000000E+00  0.10130525236E+03  0.10130525236E+03  0.00000000000E+00 0. -1.
         -2   -1    0    0    0  501 -0.00000000000E+00 -0.00000000000E+00 -0.62903688780E+01  0.62903688780E+01  0.00000000000E+00 0.  1.
          1    1    1    2  502    0 -0.24950173518E+02 -0.33152044965E+01  0.51631978289E+02  0.57440081141E+02  0.00000000000E+00 0. -1.
         -1    1    1    2    0  501  0.24950173518E+02  0.33152044965E+01  0.43382905188E+02  0.50155540092E+02  0.00000000000E+00 0.  1.
</event>
<event>
 4    1  0.6935156E+001  0.3268644E+02  0.7546771E-02  0.1397601E+00
          2   -1    0    0  502    0  0.00000000000E+00  0.00000000000E+00  0.47491235978E+02  0.47491235978E+02  0.00000000000E+00 0. -1.
         -2   -1    0    0    0  501 -0.00000000000E+00 -0.00000000000E+00 -0.24938333733E+02  0.24938333733E+02  0.00000000000E+00 0.  1.
          1    1    1    2  502    0  0.28912127433E+02 -0.15247693589E+02  0.22607731814E+02  0.39743085062E+02  0.00000000000E+00 0. -1.
         -1    1    1    2    0  501 -0.28912127433E+02  0.15247693589E+02 -0.54829569069E-01  0.32686484650E+02  0.00000000000E+00 0.  1.
</event>
<event>
 4    1  0.6935156E+001  0.4064609E+02  0.7546771E-02  0.1344741E+00
          2   -1    0    0  502    0  0.00000000000E+00  0.00000000000E+00  0.22291717281E+04  0.22291717281E+04  0.00000000000E+00 0. -1.
         -2   -1    0    0    0  501 -0.00000000000E+00 -0.00000000000E+00 -0.86198789832E+00  0.86198789832E+00  0.00000000000E+00 0.  1.
          1    1    1    2  502    0 -0.13155486798E+02 -0.38458263468E+02  0.15316672139E+04  0.15322064348E+04  0.00000000000E+00 0. -1.
         -1    1    1    2    0  501  0.13155486798E+02  0.38458263468E+02  0.69664252635E+03  0.69782728119E+03  0.00000000000E+00 0.  1.
</event>
<event>
 4    1  0.6935156E+001  0.2952662E+02  0.7546771E-02  0.1423755E+00
          2   -1    0    0  502    0  0.00000000000E+00  0.00000000000E+00  0.21478554640E+04  0.21478554640E+04  0.00000000000E+00 0.  1.
         -2   -1    0    0    0  501 -0.00000000000E+00 -0.00000000000E+00 -0.40596305303E+00  0.40596305303E+00  0.00000000000E+00 0. -1.
          1    1    1    2  502    0  0.28336759758E+02  0.82975609043E+01  0.10606856425E+04  0.10610965336E+04  0.00000000000E+00 0.  1.
         -1    1    1    2    0  501 -0.28336759758E+02 -0.82975609043E+01  0.10867638585E+04  0.10871648935E+04  0.00000000000E+00 0. -1.
</event>
<event>
 4    1  0.6935156E+001  0.2628024E+02  0.7546771E-02  0.1454975E+00
          2   -1    0    0  502    0  0.00000000000E+00  0.00000000000E+00  0.30062437591E+03  0.30062437591E+03  0.00000000000E+00 0.  1.
         -2   -1    0    0    0  501 -0.00000000000E+00 -0.00000000000E+00 -0.32122982109E+01  0.32122982109E+01  0.00000000000E+00 0. -1.
          1    1    1    2  502    0  0.25734922934E+02 -0.53258436700E+01  0.67630194693E+02  0.72556833610E+02  0.00000000000E+00 0. -1.
         -1    1    1    2    0  501 -0.25734922934E+02  0.53258436700E+01  0.22978188300E+03  0.23127984051E+03  0.00000000000E+00 0.  1.
</event>
<event>
 4    1  0.6935156E+001  0.2312683E+02  0.7546771E-02  0.1490912E+00
          2   -1    0    0  502    0  0.00000000000E+00  0.00000000000E+00  0.45839254917E+03  0.45839254917E+03  0.00000000000E+00 0.  1.
         -2   -1    0    0    0  501 -0.00000000000E+00 -0.00000000000E+00 -0.28939485717E+01  0.28939485717E+01  0.00000000000E+00 0. -1.
          1    1    1    2  502    0 -0.13832698305E+02  0.18533929244E+02  0.49568528370E+02  0.54698163410E+02  0.00000000000E+00 0. -1.
         -1    1    1    2    0  501  0.13832698305E+02 -0.18533929244E+02  0.40593007223E+03  0.40658833433E+03  0.00000000000E+00 0.  1.
</event>
<event>
 4    1  0.6935156E+001  0.4144342E+02  0.7546771E-02  0.1340229E+00
          2   -1    0    0  502    0  0.00000000000E+00  0.00000000000E+00  0.11289304373E+04  0.11289304373E+04  0.00000000000E+00 0.  1.
         -2   -1    0    0    0  501 -0.00000000000E+00 -0.00000000000E+00 -0.16468079191E+01  0.16468079191E+01  0.00000000000E+00 0. -1.
          1    1    1    2  502    0  0.39921639357E+00 -0.41441502130E+02  0.40764809904E+03  0.40974935036E+03  0.00000000000E+00 0. -1.
         -1    1    1    2    0  501 -0.39921639357E+00  0.41441502130E+02  0.71963553035E+03  0.72082789487E+03  0.00000000000E+00 0.  1.
</event>
<event>
 4    1  0.6935156E+001  0.2052162E+02  0.7546771E-02  0.1526206E+00
          2   -1    0    0  502    0  0.00000000000E+00  0.00000000000E+00  0.21188667675E+04  0.21188667675E+04  0.00000000000E+00 0. -1.
         -2   -1    0    0    0  501 -0.00000000000E+00 -0.00000000000E+00 -0.20566227991E+00  0.20566227991E+00  0.00000000000E+00 0.  1.
          1    1    1    2  502    0 -0.11496469147E+02  0.16999058007E+02  0.86516549956E+03  0.86540885043E+03  0.00000000000E+00 0.  1.
         -1    1    1    2    0  501  0.11496469147E+02 -0.16999058007E+02  0.12534956057E+04  0.12536635794E+04  0.00000000000E+00 0. -1.
</event>
<event>
 4    1  0.6935156E+001  0.2189978E+02  0.7546771E-02  0.1506796E+00
          2   -1    0    0  502    0  0.00000000000E+00  0.00000000000E+00  0.18970468289E+04  0.18970468289E+04  0.00000000000E+00 0.  1.
         -2   -1    0    0    0  501 -0.00000000000E+00 -0.00000000000E+00 -0.25373921606E+00  0.25373921606E+00  0.00000000000E+00 0. -1.
          1    1    1    2  502    0  0.17862189437E+01 -0.21826809675E+02  0.89111575881E+03  0.89138481914E+03  0.00000000000E+00 0. -1.
         -1    1    1    2    0  501 -0.17862189437E+01  0.21826809675E+02  0.10056773309E+04  0.10059157490E+04  0.00000000000E+00 0.  1.
</event>
<event>
 4    1  0.6935156E+001  0.3646521E+02  0.7546771E-02  0.1370545E+00
          2   -1    0    0  502    0  0.00000000000E+00  0.00000000000E+00  0.14400423587E+04  0.14400423587E+04  0.00000000000E+00 0.  1.
         -2   -1    0    0    0  501 -0.00000000000E+00 -0.00000000000E+00 -0.93860784066E+00  0.93860784066E+00  0.00000000000E+00 0. -1.
          1    1    1    2  502    0  0.35479129191E+02  0.84227707677E+01  0.62779212686E+03  0.62885027330E+03  0.00000000000E+00 0.  1.
         -1    1    1    2    0  501 -0.35479129191E+02 -0.84227707677E+01  0.81131162403E+03  0.81213069327E+03  0.00000000000E+00 0. -1.
</event>
<event>
 4    1  0.6935156E+001  0.2641167E+02  0.7546771E-02  0.1453609E+00
          2   -1    0    0  502    0  0.00000000000E+00  0.00000000000E+00  0.20176243719E+03  0.20176243719E+03  0.00000000000E+00 0.  1.
         -2   -1    0    0    0  501 -0.00000000000E+00 -0.00000000000E+00 -0.62588439572E+01  0.62588439572E+01  0.00000000000E+00 0. -1.
          1    1    1    2  502    0 -0.18959960829E+02 -0.18387389525E+02  0.16733759572E+03  0.16940911177E+03  0.00000000000E+00 0.  1.
         -1    1    1    2    0  501  0.18959960829E+02  0.18387389525E+02  0.28165997503E+02  0.38612169371E+02  0.00000000000E+00 0. -1.
</event>
<event>
 4    1  0.6935156E+001  0.2495693E+02  0.7546771E-02  0.1469286E+00
          2   -1    0    0  502    0  0.00000000000E+00  0.00000000000E+00  0.11519289396E+03  0.11519289396E+03  0.00000000000E+00 0. -1.
         -2   -1    0    0    0  501 -0.00000000000E+00 -0.00000000000E+00 -0.54816826030E+01  0.54816826030E+01  0.00000000000E+00 0.  1.
          1    1    1    2  502    0  0.95056788895E+01  0.23075752267E+02  0.61898174378E+02  0.66740034951E+02  0.00000000000E+00 0. -1.
         -1    1    1    2    0  501 -0.95056788895E+01 -0.23075752267E+02  0.47813036983E+02  0.53934541616E+02  0.00000000000E+00 0.  1.
</event>
<event>
 4    1  0.6935156E+001  0.2214406E+02  0.7546771E-02  0.1503535E+00
          2   -1    0    0  502    0  0.00000000000E+00  0.00000000000E+00  0.15060875291E+02  0.15060875291E+02  0.00000000000E+00 0.  1.
         -2   -1    0    0    0  501 -0.00000000000E+00 -0.00000000000E+00 -0.47434415913E+02  0.47434415913E+02  0.00000000000E+00 0. -1.
          1    1    1    2  502    0 -0.11858856209E+02 -0.18700990171E+02 -0.33685736147E+02  0.40312384247E+02  0.00000000000E+00 0. -1.
         -1    1    1    2    0  501  0.11858856209E+02  0.18700990171E+02  0.13121955248E+01  0.22182906957E+02  0.00000000000E+00 0.  1.
</event>
<event>
 4    1  0.6935156E+001  0.3095549E+02  0.7546771E-02  0.1411471E+00
          2   -1    0    0  502    0  0.00000000000E+00  0.00000000000E+00  0.72949967080E+02  0.72949967080E+02  0.00000000000E+00 0.  1.
         -2   -1    0    0    0  501 -0.00000000000E+00 -0.00000000000E+00 -0.19077139251E+02  0.19077139251E+02  0.00000000000E+00 0. -1.
          1    1    1    2  502    0 -0.27551658767E+02 -0.14111999206E+02  0.12574076698E+01  0.30981018325E+02  0.00000000000E+00 0. -1.
         -1    1    1    2    0  501  0.27551658767E+02  0.14111999206E+02  0.52615420159E+02  0.61046088007E+02  0.00000000000E+00 0.  1.
</event>
<event>
 4    1  0.6935156E+001  0.6299099E+02  0.7546771E-02  0.1249995E+00
          2   -1    0    0  502    0  0.00000000000E+00  0.00000000000E+00  0.13538328017E+03  0.13538328017E+03  0.00000000000E+00 0. -1.
         -2   -1    0    0    0  501 -0.00000000000E+00 -0.00000000000E+00 -0.37163128578E+02  0.37163128578E+02  0.00000000000E+00 0.  1.
          1    1    1    2  502    0  0.27947741716E+02  0.56451651922E+02  0.88773098292E+02  0.10885094511E+03  0.00000000000E+00 0. -1.
         -1    1    1    2    0  501 -0.27947741716E+02 -0.56451651922E+02  0.94470533030E+01  0.63695463637E+02  0.00000000000E+00 0.  1.
</event>
<event>
 4    1  0.6935156E+001  0.2027134E+02  0.7546771E-02  0.1529927E+00
          2   -1    0    0  502    0  0.00000000000E+00  0.00000000000E+00  0.40472465949E+03  0.40472465949E+03  0.00000000000E+00 0.  1.
         -2   -1    0    0    0  501 -0.00000000000E+00 -0.00000000000E+00 -0.13222377368E+01  0.13222377368E+01  0.00000000000E+00 0. -1.
          1    1    1    2  502    0  0.19919759331E+02 -0.37590605951E+01  0.10388780372E+03  0.10584707417E+03  0.00000000000E+00 0. -1.
         -1    1    1    2    0  501 -0.19919759331E+02  0.37590605951E+01  0.29951461803E+03  0.30019982306E+03  0.00000000000E+00 0.  1.
</event>
<event>
 4    1  0.6935156E+001  0.2103100E+02  0.7546771E-02  0.1518823E+00
          2   -1    0    0  502    0  0.00000000000E+00  0.00000000000E+00  0.79924603302E+02  0.79924603302E+02  0.00000000000E+00 0. -1.
         -2   -1    0    0    0  501 -0.00000000000E+00 -0.00000000000E+00 -0.71989187018E+01  0.71989187018E+01  0.00000000000E+00 0.  1.
          1    1    1    2  502    0  0.20737653361E+02  0.35003850765E+01  0.57312067721E+02  0.61048964521E+02  0.00000000000E+00 0. -1.
         -1    1    1    2    0  501 -0.20737653361E+02 -0.35003850765E+01  0.15413616879E+02  0.26074557483E+02  0.00000000000E+00 0.  1.
</event>
<event>
 4    1  0.6935156E+001  0.5832276E+02  0.7546771E-02  0.1265640E+00
          2   -1    0    0  502    0  0.00000000000E+00  0.00000000000E+00  0.55206703307E+02  0.55206703307E+02  0.00000000000E+00 0.  1.
         -2   -1    0    0    0  501 -0.00000000000E+00 -0.00000000000E+00 -0.62261635037E+02  0.62261635037E+02  0.00000000000E+00 0. -1.
          1    1    1    2  502    0  0.44569079983E+02 -0.37618358161E+02  0.24596155985E+01  0.58374596103E+02  0.00000000000E+00 0.  1.
         -1    1    1    2    0  501 -0.44569079983E+02  0.37618358161E+02 -0.95145473282E+01  0.59093742241E+02  0.00000000000E+00 0. -1.
</event>
<event>
 4    1  0.6935156E+001  0.3166514E+02  0.7546771E-02  0.1405658E+00
          2   -1    0    0  502    0  0.00000000000E+00  0.00000000000E+00  0.28731025530E+03  0.28731025530E+03  0.00000000000E+00 0.  1.
         -2   -1    0    0    0  501 -0.00000000000E+00 -0.00000000000E+00 -0.35796823515E+01  0.35796823515E+01  0.00000000000E+00 0. -1.
          1    1    1    2  502    0 -0.77193899392E+01  0.30709804870E+02  0.11882982626E+03  0.12297645590E+03  0.00000000000E+00 0. -1.
         -1    1    1    2    0  501  0.77193899392E+01 -0.30709804870E+02  0.16490074669E+03  0.16791348175E+03  0.00000000000E+00 0.  1.
</event>
<event>
 4    1  0.6935156E+001  0.2294692E+02  0.7546771E-02  0.1493166E+00
          2   -1    0    0  502    0  0.00000000000E+00  0.00000000000E+00  0.16333691133E+04  0.16333691133E+04  0.00000000000E+00 0. -1.
         -2   -1    0    0    0  501 -0.00000000000E+00 -0.00000000000E+00 -0.32238662563E+00  0.32238662563E+00  0.00000000000E+00 0.  1.
          1    1    1    2  502    0 -0.99281989797E+01 -0.20687971389E+02  0.81215472847E+03  0.81247883928E+03  0.00000000000E+00 0.  1.
         -1    1    1    2    0  501  0.99281989797E+01  0.20687971389E+02  0.82089199818E+03  0.82121266063E+03  0.00000000000E+00 0. -1.
</event>
<event>
 4    1  0.6935156E+001  0.2946170E+02  0.7546771E-02  0.1424333E+00
          2   -1    0    0  502    0  0.00000000000E+00  0.00000000000E+00  0.23850493786E+04  0.23850493786E+04  0.00000000000E+00 0. -1.
         -2   -1    0    0    0  501 -0.00000000000E+00 -0.00000000000E+00 -0.46836835925E+00  0.46836835925E+00  0.00000000000E+00 0.  1.
          1    1    1    2  502    0 -0.28450054637E+02  0.76541564279E+01  0.17555237649E+04  0.17557709648E+04  0.00000000000E+00 0. -1.
         -1    1    1    2    0  501  0.28450054637E+02 -0.76541564279E+01  0.62905724539E+03  0.62974678221E+03  0.00000000000E+00 0.  1.
</event>
<event>
 4    1  0.6935156E+001  0.3186950E+02  0.7546771E-02  0.1404017E+00
          2   -1    0    0  502    0  0.00000000000E+00  0.00000000000E+00  0.31664009987E+01  0.31664009987E+01  0.00000000000E+00 0. -1.
         -2   -1    0    0    0  501 -0.00000000000E+00 -0.00000000000E+00 -0.38960363908E+03  0.38960363908E+03  0.00000000000E+00 0.  1.
          1    1    1    2  502    0  0.31847939153E+02  0.11720510249E+01 -0.27576891902E+03  0.27760432567E+03  0.00000000000E+00 0.  1.
         -1    1    1    2    0  501 -0.31847939153E+02 -0.11720510249E+01 -0.11066831906E+03  0.11516571441E+03  0.00000000000E+00 0. -1.
</event>
<event>
 4    1  0.6935156E+001  0.2794380E+02  0.7546771E-02  0.1438351E+00
          2   -1    0    0  502    0  0.00000000000E+00  0.00000000000E+00  0.61713301230E+02  0.61713301230E+02  0.00000000000E+00 0. -1.
         -2   -1    0    0    0  501 -0.00000000000E+00 -0.00000000000E+00 -0.20053151544E+02  0.20053151544E+02  0.00000000000E+00 0.  1.
          1    1    1    2  502    0 -0.18573776150E+02 -0.20877524240E+02 -0.40055566317E+01  0.28229429020E+02  0.00000000000E+00 0.  1.
         -1    1    1    2    0  501  0.18573776150E+02  0.20877524240E+02  0.45665706318E+02  0.53537023754E+02  0.00000000000E+00 0. -1.
</event>
<event>
 4    1  0.6935156E+001  0.3723424E+02  0.7546771E-02  0.1365502E+00
          2   -1    0    0  502    0  0.00000000000E+00  0.00000000000E+00  0.61730880973E+03  0.61730880973E+03  0.00000000000E+00 0.  1.
         -2   -1    0    0    0  501 -0.00000000000E+00 -0.00000000000E+00 -0.57391158184E+01  0.57391158184E+01  0.00000000000E+00 0. -1.
          1    1    1    2  502    0  0.16300019950E+02  0.33476825298E+02  0.62741225211E+02  0.72957863341E+02  0.00000000000E+00 0. -1.
         -1    1    1    2    0  501 -0.16300019950E+02 -0.33476825298E+02  0.54882846870E+03  0.55009006220E+03  0.00000000000E+00 0.  1.
</event>
<event>
 4    1  0.6935156E+001  0.2390411E+02  0.7546771E-02  0.1481447E+00
          2   -1    0    0  502    0  0.00000000000E+00  0.00000000000E+00  0.14780378583E+02  0.14780378583E+02  0.00000000000E+00 0. -1.
         -2   -1    0    0    0  501 -0.00000000000E+00 -0.00000000000E+00 -0.65657077257E+02  0.65657077257E+02  0.00000000000E+00 0.  1.
          1    1    1    2  502    0 -0.58545467601E+01 -0.23176080327E+02  0.35142693704E+00  0.23906691908E+02  0.00000000000E+00 0. -1.
         -1    1    1    2    0  501  0.58545467601E+01  0.23176080327E+02 -0.51228125611E+02  0.56530763932E+02  0.00000000000E+00 0.  1.
</event>
<event>
 4    1  0.6935156E+001  0.4144602E+02  0.7546771E-02  0.1340214E+00
          2   -1    0    0  502    0  0.00000000000E+00  0.00000000000E+00  0.37442685230E+04  0.37442685230E+04  0.00000000000E+00 0.  1.
         -2   -1    0    0    0  501 -0.00000000000E+00 -0.00000000000E+00 -0.49163352493E+00  0.49163352493E+00  0.00000000000E+00 0. -1.
          1    1    1    2  502    0 -0.36730223499E+02 -0.19200611717E+02  0.13878227249E+04  0.13884414603E+04  0.00000000000E+00 0. -1.
         -1    1    1    2    0  501  0.36730223499E+02  0.19200611717E+02  0.23559541646E+04  0.23563186963E+04  0.00000000000E+00 0.  1.
</event>
<event>
 4    1  0.6935156E+001  0.3568657E+02  0.7546771E-02  0.1375800E+00
          2   -1    0    0  502    0  0.00000000000E+00  0.00000000000E+00  0.30127016833E+03  0.30127016833E+03  0.00000000000E+00 0.  1.
         -2   -1    0    0    0  501 -0.00000000000E+00 -0.00000000000E+00 -0.90364811737E+01  0.90364811737E+01  0.00000000000E+00 0. -1.
          1    1    1    2  502    0  0.26856952717E+02 -0.23499683891E+02  0.25930506286E+03  0.26174920568E+03  0.00000000000E+00 0.  1.
         -1    1    1    2    0  501 -0.26856952717E+02  0.23499683891E+02  0.32928624300E+02  0.48557443822E+02  0.00000000000E+00 0. -1.
</event>
<event>
 4    1  0.6935156E+001  0.2066535E+02  0.7546771E-02  0.1524097E+00
          2   -1    0    0  502    0  0.00000000000E+00  0.00000000000E+00  0.13541852610E+03  0.13541852610E+03  0.00000000000E+00 0.  1.
         -2   -1    0    0    0  501 -0.00000000000E+00 -0.00000000000E+00 -0.42224584669E+01  0.42224584669E+01  0.00000000000E+00 0. -1.
          1    1    1    2  502    0  0.94868471082E+01 -0.18359102073E+02  0.10072646577E+03  0.10282450002E+03  0.00000000000E+00 0. -1.
         -1    1    1    2    0  501 -0.94868471082E+01  0.18359102073E+02  0.30469601863E+02  0.36816484551E+02  0.00000000000E+00 0.  1.
</event>
<event>
 4    1  0.6935156E+001  0.2683202E+02  0.7546771E-02  0.1449303E+00
          2   -1    0    0  502    0  0.00000000000E+00  0.00000000000E+00  0.81897390247E+02  0.81897390247E+02  0.00000000000E+00 0.  1.
         -2   -1    0    0    0  501 -0.00000000000E+00 -0.00000000000E+00 -0.92020977267E+01  0.92020977267E+01  0.00000000000E+00 0. -1.
          1    1    1    2  502    0  0.22669540450E+02 -0.14354419760E+02  0.26719751073E+02  0.37866905449E+02  0.00000000000E+00 0. -1.
         -1    1    1    2    0  501 -0.22669540450E+02  0.14354419760E+02  0.45975541447E+02  0.53232582525E+02  0.00000000000E+00 0.  1.
</event>
<event>
 4    1  0.6935156E+001  0.3849358E+02  0.7546771E-02  0.1357547E+00
          2   -1    0    0  502    0  0.00000000000E+00  0.00000000000E+00  0.13368359384E+02  0.13368359384E+02  0.00000000000E+00 0. -1.
         -2   -1    0    0    0  501 -0.00000000000E+00 -0.00000000000E+00 -0.33743599244E+03  0.33743599244E+03  0.00000000000E+00 0.  1.
          1    1    1    2  502    0  0.75432731446E+01  0.37747252525E+02 -0.18298040345E+02  0.42621289556E+02  0.00000000000E+00 0. -1.
         -1    1    1    2    0  501 -0.75432731446E+01 -0.37747252525E+02 -0.30576959271E+03  0.30818306227E+03  0.00000000000E+00 0.  1.
</event>
<event>
 4    1  0.6935156E+001  0.2043880E+02  0.7546771E-02  0.1527430E+00
          2   -1    0    0  502    0  0.00000000000E+00  0.00000000000E+00  0.83542184714E+02  0.83542184714E+02  0.00000000000E+00 0. -1.
         -2   -1    0    0    0  501 -0.00000000000E+00 -0.00000000000E+00 -0.55630166005E+01  0.55630166005E+01  0.00000000000E+00 0.  1.
          1    1    1    2  502    0  0.27725419669E+01  0.20249879643E+02  0.24821116274E+02  0.32153264650E+02  0.00000000000E+00 0. -1.
         -1    1    1    2    0  501 -0.27725419669E+01 -0.20249879643E+02  0.53158051839E+02  0.56951936665E+02  0.00000000000E+00 0.  1.
</event>
<event>
 4    1  0.6935156E+001  0.2067629E+02  0.7546771E-02  0.1523937E+00
          2   -1    0    0  502    0  0.00000000000E+00  0.00000000000E+00  0.45284893181E+01  0.45284893181E+01  0.00000000000E+00 0. -1.
         -2   -1    0    0    0  501 -0.00000000000E+00 -0.00000000000E+00 -0.12559052440E+03  0.12559052440E+03  0.00000000000E+00 0.  1.
          1    1    1    2  502    0 -0.99223309833E+01  0.18139905587E+02 -0.28110959559E+02  0.34896058146E+02  0.00000000000E+00 0. -1.
         -1    1    1    2    0  501  0.99223309833E+01 -0.18139905587E+02 -0.92951075522E+02  0.95222955570E+02  0.00000000000E+00 0.  1.
</event>
<event>
 4    1  0.6935156E+001  0.2613752E+02  0.7546771E-02  0.1456470E+00
          2   -1    0    0  502    0  0.00000000000E+00  0.00000000000E+00  0.13344514377E+03  0.13344514377E+03  0.00000000000E+00 0.  1.
         -2   -1    0    0    0  501 -0.00000000000E+00 -0.00000000000E+00 -0.51318504317E+01  0.51318504317E+01  0.00000000000E+00 0. -1.
          1    1    1    2  502    0 -0.21093121396E+02  0.15435351105E+02  0.60754877645E+02  0.66138679996E+02  0.00000000000E+00 0. -1.
         -1    1    1    2    0  501  0.21093121396E+02 -0.15435351105E+02  0.67558415692E+02  0.72438314205E+02  0.00000000000E+00 0.  1.
</event>
<event>
 4    1  0.6935156E+001  0.2010417E+02  0.7546771E-02  0.1532449E+00
          2   -1    0    0  502    0  0.00000000000E+00  0.00000000000E+00  0.31844954072E+03  0.31844954072E+03  0.00000000000E+00 0. -1.
         -2   -1    0    0    0  501 -0.00000000000E+00 -0.00000000000E+00 -0.13103783633E+01  0.13103783633E+01  0.00000000000E+00 0.  1.
          1    1    1    2  502    0 -0.19885237188E+02  0.29588676942E+01  0.18691005103E+03  0.18798815051E+03  0.00000000000E+00 0. -1.
         -1    1    1    2    0  501  0.19885237188E+02 -0.29588676942E+01  0.13022911133E+03  0.13177176857E+03  0.00000000000E+00 0.  1.
</event>
<event>
 4    1  0.6935156E+001  0.2326638E+02  0.7546771E-02  0.1489180E+00
          2   -1    0    0  502    0  0.00000000000E+00  0.00000000000E+00  0.73008228648E+03  0.73008228648E+03  0.00000000000E+00 0. -1.
         -2   -1    0    0    0  501 -0.00000000000E+00 -0.00000000000E+00 -0.99863521048E+00  0.99863521048E+00  0.00000000000E+00 0.  1.
          1    1    1    2  502    0 -0.13937185696E+02  0.18630060136E+02  0.55004420795E+03  0.55053606148E+03  0.00000000000E+00 0. -1.
         -1    1    1    2    0  501  0.13937185696E+02 -0.18630060136E+02  0.17903944331E+03  0.18054486021E+03  0.00000000000E+00 0.  1.
</event>
<event>
 4    1  0.6935156E+001  0.2170305E+02  0.7546771E-02  0.1509459E+00
          2   -1    0    0  502    0  0.00000000000E+00  0.00000000000E+00  0.27462182913E+03  0.27462182913E+03  0.00000000000E+00 0.  1.
         -2   -1    0    0    0  501 -0.00000000000E+00 -0.00000000000E+00 -0.18621657886E+01  0.18621657886E+01  0.00000000000E+00 0. -1.
          1    1    1    2  502    0 -0.21515957124E+02 -0.28435456871E+01  0.17522065585E+03  0.17655962279E+03  0.00000000000E+00 0.  1.
         -1    1    1    2    0  501  0.21515957124E+02  0.28435456871E+01  0.97539007488E+02  0.99924372126E+02  0.00000000000E+00 0. -1.
</event>
<event>
 4    1  0.6935156E+001  0.2309321E+02  0.7546771E-02  0.1491331E+00
          2   -1    0    0  502    0  0.00000000000E+00  0.00000000000E+00  0.42428428244E+03  0.42428428244E+03  0.00000000000E+00 0.  1.
         -2   -1    0    0    0  501 -0.00000000000E+00 -0.00000000000E+00 -0.12681877721E+01  0.12681877721E+01  0.00000000000E+00 0. -1.
          1    1    1    2  502    0 -0.21670092466E+02 -0.79814496819E+01  0.19146235592E+03  0.19285001992E+03  0.00000000000E+00 0. -1.
         -1    1    1    2    0  501  0.21670092466E+02  0.79814496819E+01  0.23155373875E+03  0.23270245030E+03  0.00000000000E+00 0.  1.
</event>
<event>
 4    1  0.6935156E+001  0.2494408E+02  0.7546771E-02  0.1469430E+00
          2   -1    0    0  502    0  0.00000000000E+00  0.00000000000E+00  0.95802658558E+03  0.95802658558E+03  0.00000000000E+00 0. -1.
         -2   -1    0    0    0  501 -0.00000000000E+00 -0.00000000000E+00 -0.17923618467E+01  0.17923618467E+01  0.00000000000E+00 0.  1.
          1    1    1    2  502    0 -0.10606953893E+02 -0.22576525425E+02  0.86133833436E+03  0.86169944482E+03  0.00000000000E+00 0. -1.
         -1    1    1    2    0  501  0.10606953893E+02  0.22576525425E+02  0.94895889374E+02  0.98119502604E+02  0.00000000000E+00 0.  1.
</event>
<event>
 4    1  0.6935156E+001  0.3905192E+02  0.7546771E-02  0.1354133E+00
          2   -1    0    0  502    0  0.00000000000E+00  0.00000000000E+00  0.77272340412E+03  0.77272340412E+03  0.00000000000E+00 0. -1.
         -2   -1    0    0    0  501 -0.00000000000E+00 -0.00000000000E+00 -0.30462088960E+01  0.30462088960E+01  0.00000000000E+00 0.  1.
          1    1    1    2  502    0 -0.30965797802E+01 -0.38928957997E+02  0.15467208358E+03  0.15952587883E+03  0.00000000000E+00 0.  1.
         -1    1    1    2    0  501  0.30965797802E+01  0.38928957997E+02  0.61500511164E+03  0.61624373418E+03  0.00000000000E+00 0. -1.
</event>
<event>
 4    1  0.6935156E+001  0.2201724E+02  0.7546771E-02  0.1505222E+00
          2   -1    0    0  502    0  0.00000000000E+00  0.00000000000E+00  0.92148561857E+02  0.92148561857E+02  0.00000000000E+00 0.  1.
         -2   -1    0    0    0  501 -0.00000000000E+00 -0.00000000000E+00 -0.55279025215E+01  0.55279025215E+01  0.00000000000E+00 0. -1.
          1    1    1    2  502    0 -0.18704943272E+02 -0.11613958155E+02  0.54049280616E+02  0.58361662605E+02  0.00000000000E+00 0.  1.
         -1    1    1    2    0  501  0.18704943272E+02  0.11613958155E+02  0.32571378719E+02  0.39314801774E+02  0.00000000000E+00 0. -1.
</event>
<event>
 4    1  0.6935156E+001  0.2047592E+02  0.7546771E-02  0.1526881E+00
          2   -1    0    0  502    0  0.00000000000E+00  0.00000000000E+00  0.17523515939E+04  0.17523515939E+04  0.00000000000E+00 0.  1.
         -2   -1    0    0    0  501 -0.00000000000E+00 -0.00000000000E+00 -0.26758160573E+00  0.26758160573E+00  0.00000000000E+00 0. -1.
          1    1    1    2  502    0 -0.63915533833E+01 -0.19452798222E+02  0.11611486332E+04  0.11613291573E+04  0.00000000000E+00 0.  1.
         -1    1    1    2    0  501  0.63915533833E+01  0.19452798222E+02  0.59093537909E+03  0.59129001815E+03  0.00000000000E+00 0. -1.
</event>
<event>
 4    1  0.6935156E+001  0.2332880E+02  0.7546771E-02  0.1488410E+00
          2   -1    0    0  502    0  0.00000000000E+00  0.00000000000E+00  0.70916247214E+02  0.70916247214E+02  0.00000000000E+00 0.  1.
         -2   -1    0    0    0  501 -0.00000000000E+00 -0.00000000000E+00 -0.10338050770E+02  0.10338050770E+02  0.00000000000E+00 0. -1.
          1    1    1    2  502    0  0.22169678704E+02 -0.72621166033E+01  0.96665033564E+01  0.25252213340E+02  0.00000000000E+00 0. -1.
         -1    1    1    2    0  501 -0.22169678704E+02  0.72621166033E+01  0.50911693087E+02  0.56002084644E+02  0.00000000000E+00 0.  1.
</event>
<event>
 4    1  0.6935156E+001  0.2213936E+02  0.7546771E-02  0.1503598E+00
          2   -1    0    0  502    0  0.00000000000E+00  0.00000000000E+00  0.26922991687E+04  0.26922991687E+04  0.00000000000E+00 0. -1.
         -2   -1    0    0    0  501 -0.00000000000E+00 -0.00000000000E+00 -0.18933765944E+00  0.18933765944E+00  0.00000000000E+00 0.  1.
          1    1    1    2  502    0 -0.20077938878E+02 -0.93288594104E+01  0.16100513462E+04  0.16102035551E+04  0.00000000000E+00 0.  1.
         -1    1    1    2    0  501  0.20077938878E+02  0.93288594104E+01  0.10820584848E+04  0.10822849512E+04  0.00000000000E+00 0. -1.
</event>
<event>
 4    1  0.6935156E+001  0.2133704E+02  0.7546771E-02  0.1514507E+00
          2   -1    0    0  502    0  0.00000000000E+00  0.00000000000E+00  0.38628124843E+03  0.38628124843E+03  0.00000000000E+00 0.  1.
         -2   -1    0    0    0  501 -0.00000000000E+00 -0.00000000000E+00 -0.13903945988E+01  0.13903945988E+01  0.00000000000E+00 0. -1.
          1    1    1    2  502    0  0.13367295601E+02 -0.16630837594E+02  0.11679227413E+03  0.11872533279E+03  0.00000000000E+00 0. -1.
         -1    1    1    2    0  501 -0.13367295601E+02  0.16630837594E+02  0.26809857971E+03  0.26894631024E+03  0.00000000000E+00 0.  1.
</event>
<event>
 4    1  0.6935156E+001  0.8874225E+02  0.7546771E-02  0.1184889E+00
          2   -1    0    0  502    0  0.00000000000E+00  0.00000000000E+00  0.21177356242E+04  0.21177356242E+04  0.00000000000E+00 0.  1.
         -2   -1    0    0    0  501 -0.00000000000E+00 -0.00000000000E+00 -0.46980027051E+01  0.46980027051E+01  0.00000000000E+00 0. -1.
          1    1    1    2  502    0 -0.88738975379E+02  0.76238460172E+00  0.15410366681E+04  0.15435897121E+04  0.00000000000E+00 0.  1.
         -1    1    1    2    0  501  0.88738975379E+02 -0.76238460172E+00  0.57200095341E+03  0.57884391479E+03  0.00000000000E+00 0. -1.
</event>
<event>
 4    1  0.6935156E+001  0.3931111E+02  0.7546771E-02  0.1352571E+00
          2   -1    0    0  502    0  0.00000000000E+00  0.00000000000E+00  0.13321250121E+04  0.13321250121E+04  0.00000000000E+00 0.  1.
         -2   -1    0    0    0  501 -0.00000000000E+00 -0.00000000000E+00 -0.11627801398E+01  0.11627801398E+01  0.00000000000E+00 0. -1.
          1    1    1    2  502    0  0.64601399408E+01 -0.38776667862E+02  0.63331985781E+03  0.63453873457E+03  0.00000000000E+00 0.  1.
         -1    1    1    2    0  501 -0.64601399408E+01  0.38776667862E+02  0.69764237413E+03  0.69874905765E+03  0.00000000000E+00 0. -1.
</event>
<event>
 4    1  0.6935156E+001  0.3174856E+02  0.7546771E-02  0.1404986E+00
          2   -1    0    0  502    0  0.00000000000E+00  0.00000000000E+00  0.27158385761E+02  0.27158385761E+02  0.00000000000E+00 0. -1.
         -2   -1    0    0    0  501 -0.00000000000E+00 -0.00000000000E+00 -0.38171414460E+02  0.38171414460E+02  0.00000000000E+00 0.  1.
          1    1    1    2  502    0 -0.21845158600E+02 -0.23038232946E+02 -0.10941806264E+02  0.33581159240E+02  0.00000000000E+00 0. -1.
         -1    1    1    2    0  501  0.21845158600E+02  0.23038232946E+02 -0.71222434775E-01  0.31748640982E+02  0.00000000000E+00 0.  1.
</event>
<event>
 4    1  0.6935156E+001  0.2591409E+02  0.7546771E-02  0.1458832E+00
          2   -1    0    0  502    0  0.00000000000E+00  0.00000000000E+00  0.12400256510E+04  0.12400256510E+04  0.00000000000E+00 0. -1.
         -2   -1    0    0    0  501 -0.00000000000E+00 -0.00000000000E+00 -0.15961875647E+01  0.15961875647E+01  0.00000000000E+00 0.  1.
          1    1    1    2  502    0 -0.23466048754E+02  0.10994757502E+02  0.11238391928E+04  0.11241379237E+04  0.00000000000E+00 0. -1.
         -1    1    1    2    0  501  0.23466048754E+02 -0.10994757502E+02  0.11459027055E+03  0.11748391482E+03  0.00000000000E+00 0.  1.
</event>
<event>
 4    1  0.6935156E+001  0.8241692E+02  0.7546771E-02  0.1198345E+00
          2   -1    0    0  502    0  0.00000000000E+00  0.00000000000E+00  0.19146350772E+04  0.19146350772E+04  0.00000000000E+00 0. -1.
         -2   -1    0    0    0  501 -0.00000000000E+00 -0.00000000000E+00 -0.37249319663E+01  0.37249319663E+01  0.00000000000E+00 0.  1.
          1    1    1    2  502    0 -0.67854728864E+02 -0.46779094503E+02  0.74622993563E+03  0.75076738391E+03  0.00000000000E+00 0.  1.
         -1    1    1    2    0  501  0.67854728864E+02  0.46779094503E+02  0.11646802096E+04  0.11675926252E+04  0.00000000000E+00 0. -1.
</event>
<event>
 4    1  0.6935156E+001  0.2041250E+02  0.7546771E-02  0.1527821E+00
          2   -1    0    0  502    0  0.00000000000E+00  0.00000000000E+00  0.10553399615E+03  0.10553399615E+03  0.00000000000E+00 0. -1.
         -2   -1    0    0    0  501 -0.00000000000E+00 -0.00000000000E+00 -0.39545830177E+01  0.39545830177E+01  0.00000000000E+00 0.  1.
          1    1    1    2  502    0 -0.10646841151E+01  0.20384711445E+02  0.48591446023E+02  0.52704825582E+02  0.00000000000E+00 0.  1.
         -1    1    1    2    0  501  0.10646841151E+01 -0.20384711445E+02  0.52987967111E+02  0.56783753588E+02  0.00000000000E+00 0. -1.
</event>
<event>
 4    1  0.6935156E+001  0.2080684E+02  0.7546771E-02  0.1522041E+00
          2   -1    0    0  502    0  0.00000000000E+00  0.00000000000E+00  0.49866374771E+02  0.49866374771E+02  0.00000000000E+00 0.  1.
         -2   -1    0    0    0  501 -0.00000000000E+00 -0.00000000000E+00 -0.89320287780E+01  0.89320287780E+01  0.00000000000E+00 0. -1.
          1    1    1    2  502    0  0.19483618294E+02  0.73015906641E+01  0.25388940015E+02  0.32825643682E+02  0.00000000000E+00 0. -1.
         -1    1    1    2    0  501 -0.19483618294E+02 -0.73015906641E+01  0.15545405978E+02  0.25972759867E+02  0.00000000000E+00 0.  1.
</event>
<event>
 4    1  0.6935156E+001  0.2894175E+02  0.7546771E-02  0.1429021E+00
          2   -1    0    0  502    0  0.00000000000E+00  0.00000000000E+00  0.14967763510E+03  0.14967763510E+03  0.00000000000E+00 0.  1.
         -2   -1    0    0    0  501 -0.00000000000E+00 -0.00000000000E+00 -0.59000393151E+01  0.59000393151E+01  0.00000000000E+00 0. -1.
          1    1    1    2  502    0 -0.78392656917E+01 -0.27859843557E+02  0.89541721551E+02  0.94102841976E+02  0.00000000000E+00 0.  1.
         -1    1    1    2    0  501  0.78392656917E+01  0.27859843557E+02  0.54235874237E+02  0.61474832442E+02  0.00000000000E+00 0. -1.
</event>
<event>
 4    1  0.6935156E+001  0.2691280E+02  0.7546771E-02  0.1448486E+00
          2   -1    0    0  502    0  0.00000000000E+00  0.00000000000E+00  0.46585439239E+03  0.46585439239E+03  0.00000000000E+00 0.  1.
         -2   -1    0    0    0  501 -0.00000000000E+00 -0.00000000000E+00 -0.15564303445E+01  0.15564303445E+01  0.00000000000E+00 0. -1.
          1    1    1    2  502    0  0.55812640140E+01 -0.26327710262E+02  0.23977025621E+03  0.24127593041E+03  0.00000000000E+00 0. -1.
         -1    1    1    2    0  501 -0.55812640140E+01  0.26327710262E+02  0.22452770584E+03  0.22613489233E+03  0.00000000000E+00 0.  1.
</event>
<event>
 4    1  0.6935156E+001  0.2582339E+02  0.7546771E-02  0.1459799E+00
          2   -1    0    0  502    0  0.00000000000E+00  0.00000000000E+00  0.16389321388E+04  0.16389321388E+04  0.00000000000E+00 0.  1.
         -2   -1    0    0    0  501 -0.00000000000E+00 -0.00000000000E+00 -0.43596277615E+00  0.43596277615E+00  0.00000000000E+00 0. -1.
          1    1    1    2  502    0 -0.20519289568E+01 -0.25741734958E+02  0.10309603371E+04  0.10312836972E+04  0.00000000000E+00 0. -1.
         -1    1    1    2    0  501  0.20519289568E+01  0.25741734958E+02  0.60753583886E+03  0.60808440437E+03  0.00000000000E+00 0.  1.
</event>
<event>
 4    1  0.6935156E+001  0.2659004E+02  0.7546771E-02  0.1451770E+00
          2   -1    0    0  502    0  0.00000000000E+00  0.00000000000E+00  0.44223975227E+02  0.44223975227E+02  0.00000000000E+00 0. -1.
         -2   -1    0    0    0  501 -0.00000000000E+00 -0.00000000000E+00 -0.16741014630E+02  0.16741014630E+02  0.00000000000E+00 0.  1.
          1    1    1    2  502    0  0.25031291847E+01  0.26471955444E+02  0.20208589271E+02  0.33397861625E+02  0.00000000000E+00 0. -1.
         -1    1    1    2    0  501 -0.25031291847E+01 -0.26471955444E+02  0.72743713259E+01  0.27567128232E+02  0.00000000000E+00 0.  1.
</event>
<event>
 4    1  0.6935156E+001  0.3391383E+02  0.7546771E-02  0.1388364E+00
          2   -1    0    0  502    0  0.00000000000E+00  0.00000000000E+00  0.99077790706E+02  0.99077790706E+02  0.00000000000E+00 0.  1.
         -2   -1    0    0    0  501 -0.00000000000E+00 -0.00000000000E+00 -0.16972040527E+02  0.16972040527E+02  0.00000000000E+00 0. -1.
          1    1    1    2  502    0  0.28325258478E+02  0.18650139741E+02  0.73671966685E+02  0.81103061936E+02  0.00000000000E+00 0.  1.
         -1    1    1    2    0  501 -0.28325258478E+02 -0.18650139741E+02  0.84337834949E+01  0.34946769297E+02  0.00000000000E+00 0. -1.
</event>
<event>
 4    1  0.6935156E+001  0.2935252E+02  0.7546771E-02  0.1425308E+00
          2   -1    0    0  502    0  0.00000000000E+00  0.00000000000E+00  0.14149120656E+02  0.14149120656E+02  0.00000000000E+00 0.  1.
         -2   -1    0    0    0  501 -0.00000000000E+00 -0.00000000000E+00 -0.10174418914E+03  0.10174418914E+03  0.00000000000E+00 0. -1.
          1    1    1    2  502    0 -0.29344801788E+02 -0.67329667218E+00 -0.70794254990E+01  0.30194187947E+02  0.00000000000E+00 0.  1.
         -1    1    1    2    0  501  0.29344801788E+02  0.67329667218E+00 -0.80515642988E+02  0.85699121852E+02  0.00000000000E+00 0. -1.
</event>
<event>
 4    1  0.6935156E+001  0.3694974E+02  0.7546771E-02  0.1367351E+00
          2   -1    0    0  502    0  0.00000000000E+00  0.00000000000E+00  0.83962020384E+03  0.83962020384E+03  0.00000000000E+00 0. -1.
         -2   -1    0    0    0  501 -0.00000000000E+00 -0.00000000000E+00 -0.21188979863E+01  0.21188979863E+01  0.00000000000E+00 0.  1.
          1    1    1    2  502    0  0.27925185967E+02  0.24196430753E+02  0.21577727053E+03  0.21891805259E+03  0.00000000000E+00 0.  1.
         -1    1    1    2    0  501 -0.27925185967E+02 -0.24196430753E+02  0.62172403533E+03  0.62282104924E+03  0.00000000000E+00 0. -1.
</event>
<event>
 4    1  0.6935156E+001  0.3794224E+02  0.7546771E-02  0.1360985E+00
          2   -1    0    0  502    0  0.00000000000E+00  0.00000000000E+00  0.17888464922E+03  0.17888464922E+03  0.00000000000E+00 0.  1.
         -2   -1    0    0    0  501 -0.00000000000E+00 -0.00000000000E+00 -0.12725066898E+02  0.12725066898E+02  0.00000000000E+00 0. -1.
          1    1    1    2  502    0 -0.31324889712E+02  0.21409449244E+02  0.14116390561E+03  0.14617407937E+03  0.00000000000E+00 0.  1.
         -1    1    1    2    0  501  0.31324889712E+02 -0.21409449244E+02  0.24995676710E+02  0.45435636747E+02  0.00000000000E+00 0. -1.
</event>
<event>
 4    1  0.6935156E+001  0.2004948E+02  0.7546771E-02  0.1533281E+00
          2   -1    0    0  502    0  0.00000000000E+00  0.00000000000E+00  0.68810314268E+03  0.68810314268E+03  0.00000000000E+00 0. -1.
         -2   -1    0    0    0  501 -0.00000000000E+00 -0.00000000000E+00 -0.76366029527E+00  0.76366029527E+00  0.00000000000E+00 0.  1.
          1    1    1    2  502    0  0.16143273974E+02  0.11890178538E+02  0.51064564025E+03  0.51103909003E+03  0.00000000000E+00 0. -1.
         -1    1    1    2    0  501 -0.16143273974E+02 -0.11890178538E+02  0.17669384214E+03  0.17782771294E+03  0.00000000000E+00 0.  1.
</event>
<event>
 4    1  0.6935156E+001  0.3424828E+02  0.7546771E-02  0.1385926E+00
          2   -1    0    0  502    0  0.00000000000E+00  0.00000000000E+00  0.44712398778E+02  0.44712398778E+02  0.00000000000E+00 0.  1.
         -2   -1    0    0    0  501 -0.00000000000E+00 -0.00000000000E+00 -0.26400329955E+02  0.26400329955E+02  0.00000000000E+00 0. -1.
          1    1    1    2  502    0  0.68429588889E+01  0.33557691824E+02  0.63261317895E+01  0.34827642905E+02  0.00000000000E+00 0. -1.
         -1    1    1    2    0  501 -0.68429588889E+01 -0.33557691824E+02  0.11985937034E+02  0.36285085828E+02  0.00000000000E+00 0.  1.
</event>
<event>
 4    1  0.6935156E+001  0.3257196E+02  0.7546771E-02  0.1398487E+00
          2   -1    0    0  502    0  0.00000000000E+00  0.00000000000E+00  0.76341913789E+02  0.76341913789E+02  0.00000000000E+00 0. -1.
         -2   -1    0    0    0  501 -0.00000000000E+00 -0.00000000000E+00 -0.13919129233E+02  0.13919129233E+02  0.00000000000E+00 0.  1.
          1    1    1    2  502    0 -0.30884668417E+02  0.10347440220E+02  0.33006242038E+02  0.46371804750E+02  0.00000000000E+00 0. -1.
         -1    1    1    2    0  501  0.30884668417E+02 -0.10347440220E+02  0.29416542518E+02  0.43889238272E+02  0.00000000000E+00 0.  1.
</event>
<event>
 4    1  0.6935156E+001  0.2130997E+02  0.7546771E-02  0.1514885E+00
          2   -1    0    0  502    0  0.00000000000E+00  0.00000000000E+00  0.96128624955E+02  0.96128624955E+02  0.00000000000E+00 0. -1.
         -2   -1    0    0    0  501 -0.00000000000E+00 -0.00000000000E+00 -0.60094889254E+01  0.60094889254E+01  0.00000000000E+00 0.  1.
          1    1    1    2  502    0  0.16893528634E+02 -0.12989368089E+02  0.21440251917E+02  0.30229115027E+02  0.00000000000E+00 0.  1.
         -1    1    1    2    0  501 -0.16893528634E+02  0.12989368089E+02  0.68678884113E+02  0.71908998853E+02  0.00000000000E+00 0. -1.
</event>
<event>
 4    1  0.6935156E+001  0.3438900E+02  0.7546771E-02  0.1384910E+00
          2   -1    0    0  502    0  0.00000000000E+00  0.00000000000E+00  0.20854562017E+04  0.20854562017E+04  0.00000000000E+00 0.  1.
         -2   -1    0    0    0  501 -0.00000000000E+00 -0.00000000000E+00 -0.10559050020E+01  0.10559050020E+01  0.00000000000E+00 0. -1.
          1    1    1    2  502    0  0.46379331620E+01 -0.34074812355E+02  0.17520375320E+04  0.17523749932E+04  0.00000000000E+00 0.  1.
         -1    1    1    2    0  501 -0.46379331620E+01  0.34074812355E+02  0.33236276475E+03  0.33413711355E+03  0.00000000000E+00 0. -1.
</event>
<event>
 4    1  0.6935156E+001  0.3577783E+02  0.7546771E-02  0.1375176E+00
          2   -1    0    0  502    0  0.00000000000E+00  0.00000000000E+00  0.16814494244E+03  0.16814494244E+03  0.00000000000E+00 0. -1.
         -2   -1    0    0    0  501 -0.00000000000E+00 -0.00000000000E+00 -0.31663497696E+02  0.31663497696E+02  0.00000000000E+00 0.  1.
          1    1    1    2  502    0  0.16384955718E+01 -0.35740296666E+02  0.15531066299E+03  0.15937834079E+03  0.00000000000E+00 0. -1.
         -1    1    1    2    0  501 -0.16384955718E+01  0.35740296666E+02 -0.18829218246E+02  0.40430099348E+02  0.00000000000E+00 0.  1.
</event>
<event>
 4    1  0.6935156E+001  0.2430454E+02  0.7546771E-02  0.1476736E+00
          2   -1    0    0  502    0  0.00000000000E+00  0.00000000000E+00  0.28693897679E+03  0.28693897679E+03  0.00000000000E+00 0. -1.
         -2   -1    0    0    0  501 -0.00000000000E+00 -0.00000000000E+00 -0.29748527352E+01  0.29748527352E+01  0.00000000000E+00 0.  1.
          1    1    1    2  502    0 -0.89823554980E+01 -0.22583800222E+02  0.22242702189E+03  0.22375095712E+03  0.00000000000E+00 0. -1.
         -1    1    1    2    0  501  0.89823554980E+01  0.22583800222E+02  0.61537102159E+02  0.66162872405E+02  0.00000000000E+00 0.  1.
</event>
<event>
 4    1  0.6935156E+001  0.2977783E+02  0.7546771E-02  0.1421537E+00
          2   -1    0    0  502    0  0.00000000000E+00  0.00000000000E+00  0.20218278924E+03  0.20218278924E+03  0.00000000000E+00 0. -1.
         -2   -1    0    0    0  501 -0.00000000000E+00 -0.00000000000E+00 -0.59295966700E+01  0.59295966700E+01  0.00000000000E+00 0.  1.
          1    1    1    2  502    0  0.29759164573E+02  0.10541231709E+01  0.15122241256E+03  0.15412636735E+03  0.00000000000E+00 0. -1.
         -1    1    1    2    0  501 -0.29759164573E+02 -0.10541231709E+01  0.45030780008E+02  0.53986018559E+02  0.00000000000E+00 0.  1.
</event>
<event>
 4    1  0.6935156E+001  0.2307956E+02  0.7546771E-02  0.1491501E+00
          2   -1    0    0  502    0  0.00000000000E+00  0.00000000000E+00  0.13103528475E+03  0.13103528475E+03  0.00000000000E+00 0. -1.
         -2   -1    0    0    0  501 -0.00000000000E+00 -0.00000000000E+00 -0.43506123865E+01  0.43506123865E+01  0.00000000000E+00 0.  1.
          1    1    1    2  502    0 -0.22291377697E+02  0.59800210181E+01  0.80684842052E+02  0.83920855024E+02  0.00000000000E+00 0. -1.
         -1    1    1    2    0  501  0.22291377697E+02 -0.59800210181E+01  0.45999830316E+02  0.51465042117E+02  0.00000000000E+00 0.  1.
</event>
<event>
 4    1  0.6935156E+001  0.2073248E+02  0.7546771E-02  0.1523119E+00
          2   -1    0    0  502    0  0.00000000000E+00  0.00000000000E+00  0.14678160259E+04  0.14678160259E+04  0.00000000000E+00 0. -1.
         -2   -1    0    0    0  501 -0.00000000000E+00 -0.00000000000E+00 -0.72965854667E+00  0.72965854667E+00  0.00000000000E+00 0.  1.
          1    1    1    2  502    0  0.18702273758E+02  0.89476582567E+01  0.16541277839E+03  0.16670699711E+03  0.00000000000E+00 0.  1.
         -1    1    1    2    0  501 -0.18702273758E+02 -0.89476582567E+01  0.13016735890E+04  0.13018386874E+04  0.00000000000E+00 0. -1.
</event>
<event>
 4    1  0.6935156E+001  0.2013012E+02  0.7546771E-02  0.1532056E+00
          2   -1    0    0  502    0  0.00000000000E+00  0.00000000000E+00  0.10508355089E+04  0.10508355089E+04  0.00000000000E+00 0.  1.
         -2   -1    0    0    0  501 -0.00000000000E+00 -0.00000000000E+00 -0.47182686582E+00  0.47182686582E+00  0.00000000000E+00 0. -1.
          1    1    1    2  502    0 -0.19751926487E+02 -0.38837071238E+01  0.30049239726E+03  0.30116590543E+03  0.00000000000E+00 0. -1.
         -1    1    1    2    0  501  0.19751926487E+02  0.38837071238E+01  0.74987128474E+03  0.75014143030E+03  0.00000000000E+00 0.  1.
</event>
<event>
 4    1  0.6935156E+001  0.2397685E+02  0.7546771E-02  0.1480583E+00
          2   -1    0    0  502    0  0.00000000000E+00  0.00000000000E+00  0.31047972437E+03  0.31047972437E+03  0.00000000000E+00 0. -1.
         -2   -1    0    0    0  501 -0.00000000000E+00 -0.00000000000E+00 -0.18531959283E+01  0.18531959283E+01  0.00000000000E+00 0.  1.
          1    1    1    2  502    0  0.23044577593E+02  0.66209208725E+01  0.14975311258E+03  0.15166042291E+03  0.00000000000E+00 0. -1.
         -1    1    1    2    0  501 -0.23044577593E+02 -0.66209208725E+01  0.15887341587E+03  0.16067249739E+03  0.00000000000E+00 0.  1.
</event>
<event>
 4    1  0.6935156E+001  0.2077204E+02  0.7546771E-02  0.1522545E+00
          2   -1    0    0  502    0  0.00000000000E+00  0.00000000000E+00  0.21075003176E+03  0.21075003176E+03  0.00000000000E+00 0.  1.
         -2   -1    0    0    0  501 -0.00000000000E+00 -0.00000000000E+00 -0.21685945735E+01  0.21685945735E+01  0.00000000000E+00 0. -1.
          1    1    1    2  502    0  0.19734896794E+02 -0.64816276389E+01  0.79117556238E+02  0.81798932471E+02  0.00000000000E+00 0. -1.
         -1    1    1    2    0  501 -0.19734896794E+02  0.64816276389E+01  0.12946388094E+03  0.13111969386E+03  0.00000000000E+00 0.  1.
</event>
<event>
 4    1  0.6935156E+001  0.2251098E+02  0.7546771E-02  0.1498732E+00
          2   -1    0    0  502    0  0.00000000000E+00  0.00000000000E+00  0.56661347075E+03  0.56661347075E+03  0.00000000000E+00 0.  1.
         -2   -1    0    0    0  501 -0.00000000000E+00 -0.00000000000E+00 -0.30397222007E+01  0.30397222007E+01  0.00000000000E+00 0. -1.
          1    1    1    2  502    0  0.45932370090E+01  0.22037390511E+02  0.42501556611E+02  0.48094976049E+02  0.00000000000E+00 0. -1.
         -1    1    1    2    0  501 -0.45932370090E+01 -0.22037390511E+02  0.52107219194E+03  0.52155821691E+03  0.00000000000E+00 0.  1.
</event>
<event>
 4    1  0.6935156E+001  0.2550243E+02  0.7546771E-02  0.1463261E+00
          2   -1    0    0  502    0  0.00000000000E+00  0.00000000000E+00  0.51619226787E+01  0.51619226787E+01  0.00000000000E+00 0.  1.
         -2   -1    0    0    0  501 -0.00000000000E+00 -0.00000000000E+00 -0.12656772580E+03  0.12656772580E+03  0.00000000000E+00 0. -1.
          1    1    1    2  502    0  0.25480793802E+02 -0.10502030864E+01 -0.56270272934E+02  0.61779587206E+02  0.00000000000E+00 0.  1.
         -1    1    1    2    0  501 -0.25480793802E+02  0.10502030864E+01 -0.65135530188E+02  0.69950061274E+02  0.00000000000E+00 0. -1.
</event>
<event>
 4    1  0.6935156E+001  0.2114295E+02  0.7546771E-02  0.1517234E+00
          2   -1    0    0  502    0  0.00000000000E+00  0.00000000000E+00  0.19680707943E+01  0.19680707943E+01  0.00000000000E+00 0. -1.
         -2   -1    0    0    0  501 -0.00000000000E+00 -0.00000000000E+00 -0.25037356346E+03  0.25037356346E+03  0.00000000000E+00 0.  1.
          1    1    1    2  502    0  0.14882683684E+01  0.21090509585E+02 -0.16263865370E+03  0.16400718342E+03  0.00000000000E+00 0. -1.
         -1    1    1    2    0  501 -0.14882683684E+01 -0.21090509585E+02 -0.85766838964E+02  0.88334450828E+02  0.00000000000E+00 0.  1.
</event>
<event>
 4    1  0.6935156E+001  0.2057253E+02  0.7546771E-02  0.1525456E+00
          2   -1    0    0  502    0  0.00000000000E+00  0.00000000000E+00  0.98566137412E+03  0.98566137412E+03  0.00000000000E+00 0.  1.
         -2   -1    0    0    0  501 -0.00000000000E+00 -0.00000000000E+00 -0.66742189287E+00  0.66742189287E+00  0.00000000000E+00 0. -1.
          1    1    1    2  502    0  0.16937680786E+02  0.11676649056E+02  0.19797836365E+03  0.19904437102E+03  0.00000000000E+00 0. -1.
         -1    1    1    2    0  501 -0.16937680786E+02 -0.11676649056E+02  0.78701558858E+03  0.78728442499E+03  0.00000000000E+00 0.  1.
</event>
<event>
 4    1  0.6935156E+001  0.2469590E+02  0.7546771E-02  0.1472234E+00
          2   -1    0    0  502    0  0.00000000000E+00  0.00000000000E+00  0.39942821189E+02  0.39942821189E+02  0.00000000000E+00 0. -1.
         -2   -1    0    0    0  501 -0.00000000000E+00 -0.00000000000E+00 -0.15430847923E+02  0.15430847923E+02  0.00000000000E+00 0.  1.
          1    1    1    2  502    0 -0.23670153060E+02  0.70435369241E+01  0.15091365490E+02  0.28941956925E+02  0.00000000000E+00 0.  1.
         -1    1    1    2    0  501  0.23670153060E+02 -0.70435369241E+01  0.94206077754E+01  0.26431712187E+02  0.00000000000E+00 0. -1.
</event>
<event>
 4    1  0.6935156E+001  0.3044602E+02  0.7546771E-02  0.1415759E+00
          2   -1    0    0  502    0  0.00000000000E+00  0.00000000000E+00  0.18007317402E+02  0.18007317402E+02  0.00000000000E+00 0. -1.
         -2   -1    0    0    0  501 -0.00000000000E+00 -0.00000000000E+00 -0.78330272426E+02  0.78330272426E+02  0.00000000000E+00 0.  1.
          1    1    1    2  502    0  0.17435763472E+02  0.24959055639E+02 -0.19581314263E+01  0.30508926315E+02  0.00000000000E+00 0. -1.
         -1    1    1    2    0  501 -0.17435763472E+02 -0.24959055639E+02 -0.58364823598E+02  0.65828663512E+02  0.00000000000E+00 0.  1.
</event>
<event>
 4    1  0.6935156E+001  0.2341391E+02  0.7546771E-02  0.1487365E+00
          2   -1    0    0  502    0  0.00000000000E+00  0.00000000000E+00  0.76766116693E+01  0.76766116693E+01  0.00000000000E+00 0.  1.
         -2   -1    0    0    0  501 -0.00000000000E+00 -0.00000000000E+00 -0.71905773912E+02  0.71905773912E+02  0.00000000000E+00 0. -1.
          1    1    1    2  502    0 -0.88511052135E+01 -0.21676467356E+02 -0.28821163946E+02  0.37133149499E+02  0.00000000000E+00 0.  1.
         -1    1    1    2    0  501  0.88511052135E+01  0.21676467356E+02 -0.35407998297E+02  0.42449236082E+02  0.00000000000E+00 0. -1.
</event>
<event>
 4    1  0.6935156E+001  0.2282394E+02  0.7546771E-02  0.1494721E+00
          2   -1    0    0  502    0  0.00000000000E+00  0.00000000000E+00  0.29876651787E+03  0.29876651787E+03  0.00000000000E+00 0.  1.
         -2   -1    0    0    0  501 -0.00000000000E+00 -0.00000000000E+00 -0.19855551694E+01  0.19855551694E+01  0.00000000000E+00 0. -1.
          1    1    1    2  502    0 -0.11050405188E+02 -0.19970497153E+02  0.95898089364E+02  0.98576750580E+02  0.00000000000E+00 0. -1.
         -1    1    1    2    0  501  0.11050405188E+02  0.19970497153E+02  0.20088287333E+03  0.20217532246E+03  0.00000000000E+00 0.  1.
</event>
<event>
 4    1  0.6935156E+001  0.3055652E+02  0.7546771E-02  0.1414821E+00
          2   -1    0    0  502    0  0.00000000000E+00  0.00000000000E+00  0.21294353791E+04  0.21294353791E+04  0.00000000000E+00 0.  1.
         -2   -1    0    0    0  501 -0.00000000000E+00 -0.00000000000E+00 -0.44042476641E+00  0.44042476641E+00  0.00000000000E+00 0. -1.
          1    1    1    2  502    0 -0.26341093445E+02  0.15487018093E+02  0.11353816596E+04  0.11357927689E+04  0.00000000000E+00 0. -1.
         -1    1    1    2    0  501  0.26341093445E+02 -0.15487018093E+02  0.99361329470E+03  0.99408303493E+03  0.00000000000E+00 0.  1.
</event>
<event>
 4    1  0.6935156E+001  0.2465304E+02  0.7546771E-02  0.1472722E+00
          2   -1    0    0  502    0  0.00000000000E+00  0.00000000000E+00  0.32408237174E+01  0.32408237174E+01  0.00000000000E+00 0. -1.
         -2   -1    0    0    0  501 -0.00000000000E+00 -0.00000000000E+00 -0.27756510272E+03  0.27756510272E+03  0.00000000000E+00 0.  1.
          1    1    1    2  502    0  0.20316591940E+02  0.13964544691E+02 -0.21712426612E+03  0.21851937981E+03  0.00000000000E+00 0.  1.
         -1    1    1    2    0  501 -0.20316591940E+02 -0.13964544691E+02 -0.57200012892E+02  0.62286546632E+02  0.00000000000E+00 0. -1.
</event>
<event>
 4    1  0.6935156E+001  0.3265361E+02  0.7546771E-02  0.1397855E+00
          2   -1    0    0  502    0  0.00000000000E+00  0.00000000000E+00  0.91702556046E+03  0.91702556046E+03  0.00000000000E+00 0.  1.
         -2   -1    0    0    0  501 -0.00000000000E+00 -0.00000000000E+00 -0.11661369636E+01  0.11661369636E+01  0.00000000000E+00 0. -1.
          1    1    1    2  502    0 -0.31646970770E+02  0.80453254643E+01  0.48272516996E+03  0.48382832465E+03  0.00000000000E+00 0.  1.
         -1    1    1    2    0  501  0.31646970770E+02 -0.80453254643E+01  0.43313425353E+03  0.43436337277E+03  0.00000000000E+00 0. -1.
</event>
<event>
 4    1  0.6935156E+001  0.2535657E+02  0.7546771E-02  0.1464854E+00
          2   -1    0    0  502    0  0.00000000000E+00  0.00000000000E+00  0.19419835262E+01  0.19419835262E+01  0.00000000000E+00 0. -1.
         -2   -1    0    0    0  501 -0.00000000000E+00 -0.00000000000E+00 -0.37649677461E+03  0.37649677461E+03  0.00000000000E+00 0.  1.
          1    1    1    2  502    0  0.23229826853E+02  0.10165169769E+02 -0.25299537453E+03  0.25426288574E+03  0.00000000000E+00 0.  1.
         -1    1    1    2    0  501 -0.23229826853E+02 -0.10165169769E+02 -0.12155941655E+03  0.12417587240E+03  0.00000000000E+00 0. -1.
</event>
<event>
 4    1  0.6935156E+001  0.3950874E+02  0.7546771E-02  0.1351389E+00
          2   -1    0    0  502    0  0.00000000000E+00  0.00000000000E+00  0.83037419906E+03  0.83037419906E+03  0.00000000000E+00 0.  1.
         -2   -1    0    0    0  501 -0.00000000000E+00 -0.00000000000E+00 -0.56134454973E+01  0.56134454973E+01  0.00000000000E+00 0. -1.
          1    1    1    2  502    0  0.19607239196E+01  0.39460056179E+02  0.71484746526E+02  0.81676247819E+02  0.00000000000E+00 0. -1.
         -1    1    1    2    0  501 -0.19607239196E+01 -0.39460056179E+02  0.75327600703E+03  0.75431139673E+03  0.00000000000E+00 0.  1.
</event>
<event>
 4    1  0.6935156E+001  0.3726826E+02  0.7546771E-02  0.1365283E+00
          2   -1    0    0  502    0  0.00000000000E+00  0.00000000000E+00  0.22511740642E+01  0.22511740642E+01  0.00000000000E+00 0. -1.
         -2   -1    0    0    0  501 -0.00000000000E+00 -0.00000000000E+00 -0.70073398162E+03  0.70073398162E+03  0.00000000000E+00 0.  1.
          1    1    1    2  502    0 -0.50099080828E+01 -0.36929983659E+02 -0.47076197124E+03  0.47223485305E+03  0.00000000000E+00 0.  1.
         -1    1    1    2    0  501  0.50099080828E+01  0.36929983659E+02 -0.22772083631E+03  0.23075030263E+03  0.00000000000E+00 0. -1.
</event>
<event>
 4    1  0.6935156E+001  0.2336773E+02  0.7546771E-02  0.1487931E+00
          2   -1    0    0  502    0  0.00000000000E+00  0.00000000000E+00  0.35976769403E+03  0.35976769403E+03  0.00000000000E+00 0.  1.
         -2   -1    0    0    0  501 -0.00000000000E+00 -0.00000000000E+00 -0.34631840427E+01  0.34631840427E+01  0.00000000000E+00 0. -1.
          1    1    1    2  502    0 -0.58477014741E+01 -0.22624214317E+02  0.42033139595E+02  0.48091948497E+02  0.00000000000E+00 0. -1.
         -1    1    1    2    0  501  0.58477014741E+01  0.22624214317E+02  0.31427137039E+03  0.31513892957E+03  0.00000000000E+00 0.  1.
</event>
<event>
 4    1  0.6935156E+001  0.3839053E+02  0.7546771E-02  0.1358184E+00
          2   -1    0    0  502    0  0.00000000000E+00  0.00000000000E+00  0.80100607614E+03  0.80100607614E+03  0.00000000000E+00 0. -1.
         -2   -1    0    0    0  501 -0.00000000000E+00 -0.00000000000E+00 -0.19700774393E+01  0.19700774393E+01  0.00000000000E+00 0.  1.
          1    1    1    2  502    0 -0.77069267282E+01 -0.37608987244E+02  0.29634391423E+03  0.29882026060E+03  0.00000000000E+00 0. -1.
         -1    1    1    2    0  501  0.77069267282E+01  0.37608987244E+02  0.50269208446E+03  0.50415589298E+03  0.00000000000E+00 0.  1.
</event>
<event>
 4    1  0.6935156E+001  0.2807379E+02  0.7546771E-02  0.1437110E+00
          2   -1    0    0  502    0  0.00000000000E+00  0.00000000000E+00  0.10935531635E+04  0.10935531635E+04  0.00000000000E+00 0. -1.
         -2   -1    0    0    0  501 -0.00000000000E+00 -0.00000000000E+00 -0.11437426329E+01  0.11437426329E+01  0.00000000000E+00 0.  1.
          1    1    1    2  502    0 -0.13425888238E+00 -0.28073469773E+02  0.87908283276E+03  0.87953099126E+03  0.00000000000E+00 0.  1.
         -1    1    1    2    0  501  0.13425888238E+00  0.28073469773E+02  0.21332658815E+03  0.21516591492E+03  0.00000000000E+00 0. -1.
</event>
<event>
 4    1  0.6935156E+001  0.3524602E+02  0.7546771E-02  0.1378842E+00
          2   -1    0    0  502    0  0.00000000000E+00  0.00000000000E+00  0.14814345207E+04  0.14814345207E+04  0.00000000000E+00 0. -1.
         -2   -1    0    0    0  501 -0.00000000000E+00 -0.00000000000E+00 -0.84692700185E+00  0.84692700185E+00  0.00000000000E+00 0.  1.
          1    1    1    2  502    0 -0.33260421824E+02  0.11663032722E+02  0.81392854335E+03  0.81469132540E+03  0.00000000000E+00 0. -1.
         -1    1    1    2    0  501  0.33260421824E+02 -0.11663032722E+02  0.66665905037E+03  0.66759012233E+03  0.00000000000E+00 0.  1.
</event>
<event>
 4    1  0.6935156E+001  0.7035790E+02  0.7546771E-02  0.1228196E+00
          2   -1    0    0  502    0  0.00000000000E+00  0.00000000000E+00  0.29816774967E+03  0.29816774967E+03  0.00000000000E+00 0. -1.
         -2   -1    0    0    0  501 -0.00000000000E+00 -0.00000000000E+00 -0.26377870910E+02  0.26377870910E+02  0.00000000000E+00 0.  1.
          1    1    1    2  502    0 -0.12309779911E+02  0.69272678815E+02  0.23468189788E+03  0.24500168960E+03  0.00000000000E+00 0. -1.
         -1    1    1    2    0  501  0.12309779911E+02 -0.69272678815E+02  0.37107980880E+02  0.79543930986E+02  0.00000000000E+00 0.  1.
</event>
<event>
 4    1  0.6935156E+001  0.2379733E+02  0.7546771E-02  0.1482722E+00
          2   -1    0    0  502    0  0.00000000000E+00  0.00000000000E+00  0.70239707674E+01  0.70239707674E+01  0.00000000000E+00 0. -1.
         -2   -1    0    0    0  501 -0.00000000000E+00 -0.00000000000E+00 -0.13891124960E+03  0.13891124960E+03  0.00000000000E+00 0.  1.
          1    1    1    2  502    0 -0.12771306462E+02 -0.20080006892E+02 -0.18678422323E+02  0.30252213242E+02  0.00000000000E+00 0. -1.
         -1    1    1    2    0  501  0.12771306462E+02  0.20080006892E+02 -0.11320885651E+03  0.11568300713E+03  0.00000000000E+00 0.  1.
</event>
<event>
 4    1  0.6935156E+001  0.5426664E+02  0.7546771E-02  0.1280663E+00
          2   -1    0    0  502    0  0.00000000000E+00  0.00000000000E+00  0.10352351985E+03  0.10352351985E+03  0.00000000000E+00 0.  1.
         -2   -1    0    0    0  501 -0.00000000000E+00 -0.00000000000E+00 -0.41714821795E+02  0.41714821795E+02  0.00000000000E+00 0. -1.
          1    1    1    2  502    0 -0.20617114024E+02  0.50197635158E+02 -0.10051532261E+02  0.55189684425E+02  0.00000000000E+00 0. -1.
         -1    1    1    2    0  501  0.20617114024E+02 -0.50197635158E+02  0.71860230314E+02  0.90048657219E+02  0.00000000000E+00 0.  1.
</event>
<event>
 4    1  0.6935156E+001  0.2263375E+02  0.7546771E-02  0.1497149E+00
          2   -1    0    0  502    0  0.00000000000E+00  0.00000000000E+00  0.33963536465E+02  0.33963536465E+02  0.00000000000E+00 0. -1.
         -2   -1    0    0    0  501 -0.00000000000E+00 -0.00000000000E+00 -0.16454655941E+02  0.16454655941E+02  0.00000000000E+00 0.  1.
          1    1    1    2  502    0 -0.16167902661E+02  0.15839361711E+02  0.16031704940E+02  0.27736294258E+02  0.00000000000E+00 0. -1.
         -1    1    1    2    0  501  0.16167902661E+02 -0.15839361711E+02  0.14771755835E+01  0.22681898148E+02  0.00000000000E+00 0.  1.
</event>
<event>
 4    1  0.6935156E+001  0.2067534E+02  0.7546771E-02  0.1523951E+00
          2   -1    0    0  502    0  0.00000000000E+00  0.00000000000E+00  0.22907651140E+03  0.22907651140E+03  0.00000000000E+00 0. -1.
         -2   -1    0    0    0  501 -0.00000000000E+00 -0.00000000000E+00 -0.20658088931E+01  0.20658088931E+01  0.00000000000E+00 0.  1.
          1    1    1    2  502    0 -0.18579604788E+02 -0.90701604799E+01  0.77567567704E+02  0.80275756520E+02  0.00000000000E+00 0.  1.
         -1    1    1    2    0  501  0.18579604788E+02  0.90701604799E+01  0.14944313480E+03  0.15086656377E+03  0.00000000000E+00 0. -1.
</event>
<event>
 4    1  0.6935156E+001  0.3077681E+02  0.7546771E-02  0.1412964E+00
          2   -1    0    0  502    0  0.00000000000E+00  0.00000000000E+00  0.65902436814E+01  0.65902436814E+01  0.00000000000E+00 0. -1.
         -2   -1    0    0    0  501 -0.00000000000E+00 -0.00000000000E+00 -0.14475635028E+03  0.14475635028E+03  0.00000000000E+00 0.  1.
          1    1    1    2  502    0  0.15930790099E+02 -0.26332908482E+02 -0.62709426774E+02  0.69854737482E+02  0.00000000000E+00 0. -1.
         -1    1    1    2    0  501 -0.15930790099E+02  0.26332908482E+02 -0.75456679821E+02  0.81491856476E+02  0.00000000000E+00 0.  1.
</event>
<event>
 4    1  0.6935156E+001  0.2081506E+02  0.7546771E-02  0.1521922E+00
          2   -1    0    0  502    0  0.00000000000E+00  0.00000000000E+00  0.14010992160E+02  0.14010992160E+02  0.00000000000E+00 0. -1.
         -2   -1    0    0    0  501 -0.00000000000E+00 -0.00000000000E+00 -0.41000012971E+02  0.41000012971E+02  0.00000000000E+00 0.  1.
          1    1    1    2  502    0 -0.20799744438E+02 -0.79843739723E+00  0.14145425733E+00  0.20815544198E+02  0.00000000000E+00 0. -1.
         -1    1    1    2    0  501  0.20799744438E+02  0.79843739723E+00 -0.27130475068E+02  0.34195460932E+02  0.00000000000E+00 0.  1.
</event>
<event>
 4    1  0.6935156E+001  0.2250478E+02  0.7546771E-02  0.1498812E+00
          2   -1    0    0  502    0  0.00000000000E+00  0.00000000000E+00  0.14568891915E+02  0.14568891915E+02  0.00000000000E+00 0.  1.
         -2   -1    0    0    0  501 -0.00000000000E+00 -0.00000000000E+00 -0.34775642064E+02  0.34775642064E+02  0.00000000000E+00 0. -1.
          1    1    1    2  502    0  0.10196234445E+02  0.20062450680E+02 -0.10565108964E+02  0.24861348547E+02  0.00000000000E+00 0. -1.
         -1    1    1    2    0  501 -0.10196234445E+02 -0.20062450680E+02 -0.96416411854E+01  0.24483185432E+02  0.00000000000E+00 0.  1.
</event>
<event>
 4    1  0.6935156E+001  0.2246685E+02  0.7546771E-02  0.1499304E+00
          2   -1    0    0  502    0  0.00000000000E+00  0.00000000000E+00  0.76519239957E+02  0.76519239957E+02  0.00000000000E+00 0. -1.
         -2   -1    0    0    0  501 -0.00000000000E+00 -0.00000000000E+00 -0.13824569276E+02  0.13824569276E+02  0.00000000000E+00 0.  1.
          1    1    1    2  502    0  0.15791418676E+02 -0.15980939194E+02 -0.13154856094E+01  0.22505328785E+02  0.00000000000E+00 0.  1.
         -1    1    1    2    0  501 -0.15791418676E+02  0.15980939194E+02  0.64010156290E+02  0.67838480448E+02  0.00000000000E+00 0. -1.
</event>
<event>
 4    1  0.6935156E+001  0.2020328E+02  0.7546771E-02  0.1530951E+00
          2   -1    0    0  502    0  0.00000000000E+00  0.00000000000E+00  0.18057091130E+04  0.18057091130E+04  0.00000000000E+00 0.  1.
         -2   -1    0    0    0  501 -0.00000000000E+00 -0.00000000000E+00 -0.27630284385E+00  0.27630284385E+00  0.00000000000E+00 0. -1.
          1    1    1    2  502    0  0.18894539235E+02 -0.71532495474E+01  0.51760097583E+03  0.51799511849E+03  0.00000000000E+00 0. -1.
         -1    1    1    2    0  501 -0.18894539235E+02  0.71532495474E+01  0.12878318344E+04  0.12879902974E+04  0.00000000000E+00 0.  1.
</event>
<event>
 4    1  0.6935156E+001  0.2009838E+02  0.7546771E-02  0.1532537E+00
          2   -1    0    0  502    0  0.00000000000E+00  0.00000000000E+00  0.65970966200E+02  0.65970966200E+02  0.00000000000E+00 0. -1.
         -2   -1    0    0    0  501 -0.00000000000E+00 -0.00000000000E+00 -0.61332692064E+01  0.61332692064E+01  0.00000000000E+00 0.  1.
          1    1    1    2  502    0  0.17357650762E+02  0.10131967762E+02  0.28448640744E+02  0.34832025075E+02  0.00000000000E+00 0. -1.
         -1    1    1    2    0  501 -0.17357650762E+02 -0.10131967762E+02  0.31389056250E+02  0.37272210331E+02  0.00000000000E+00 0.  1.
</event>
<event>
 4    1  0.6935156E+001  0.4263922E+02  0.7546771E-02  0.1333677E+00
          2   -1    0    0  502    0  0.00000000000E+00  0.00000000000E+00  0.33152367109E+01  0.33152367109E+01  0.00000000000E+00 0. -1.
         -2   -1    0    0    0  501 -0.00000000000E+00 -0.00000000000E+00 -0.56565199388E+03  0.56565199388E+03  0.00000000000E+00 0.  1.
          1    1    1    2  502    0  0.47028209387E+01 -0.42379080367E+02 -0.23149781546E+03  0.23539188928E+03  0.00000000000E+00 0. -1.
         -1    1    1    2    0  501 -0.47028209387E+01  0.42379080367E+02 -0.33083894171E+03  0.33357534131E+03  0.00000000000E+00 0.  1.
</event>
<event>
 4    1  0.6935156E+001  0.2319425E+02  0.7546771E-02  0.1490073E+00
          2   -1    0    0  502    0  0.00000000000E+00  0.00000000000E+00  0.21258614854E+03  0.21258614854E+03  0.00000000000E+00 0. -1.
         -2   -1    0    0    0  501 -0.00000000000E+00 -0.00000000000E+00 -0.26566155506E+01  0.26566155506E+01  0.00000000000E+00 0.  1.
          1    1    1    2  502    0  0.22830351120E+02  0.40924717509E+01  0.81526580845E+02  0.84761764030E+02  0.00000000000E+00 0. -1.
         -1    1    1    2    0  501 -0.22830351120E+02 -0.40924717509E+01  0.12840295214E+03  0.13048100006E+03  0.00000000000E+00 0.  1.
</event>
<event>
 4    1  0.6935156E+001  0.2235416E+02  0.7546771E-02  0.1500771E+00
          2   -1    0    0  502    0  0.00000000000E+00  0.00000000000E+00  0.98740852255E+01  0.98740852255E+01  0.00000000000E+00 0. -1.
         -2   -1    0    0    0  501 -0.00000000000E+00 -0.00000000000E+00 -0.50921049206E+02  0.50921049206E+02  0.00000000000E+00 0.  1.
          1    1    1    2  502    0  0.20698753820E+02  0.84421629150E+01 -0.18140400484E+02  0.28788585483E+02  0.00000000000E+00 0.  1.
         -1    1    1    2    0  501 -0.20698753820E+02 -0.84421629150E+01 -0.22906563497E+02  0.32006548949E+02  0.00000000000E+00 0. -1.
</event>
<event>
 4    1  0.6935156E+001  0.2476455E+02  0.7546771E-02  0.1471455E+00
          2   -1    0    0  502    0  0.00000000000E+00  0.00000000000E+00  0.74984053272E+03  0.74984053272E+03  0.00000000000E+00 0.  1.
         -2   -1    0    0    0  501 -0.00000000000E+00 -0.00000000000E+00 -0.13894619037E+01  0.13894619037E+01  0.00000000000E+00 0. -1.
          1    1    1    2  502    0  0.22440090941E+02  0.10474985814E+02  0.61513679457E+03  0.61563508594E+03  0.00000000000E+00 0.  1.
         -1    1    1    2    0  501 -0.22440090941E+02 -0.10474985814E+02  0.13331427625E+03  0.13559490868E+03  0.00000000000E+00 0. -1.
</event>
<event>
 4    1  0.6935156E+001  0.2541992E+02  0.7546771E-02  0.1464160E+00
          2   -1    0    0  502    0  0.00000000000E+00  0.00000000000E+00  0.91079415461E+02  0.91079415461E+02  0.00000000000E+00 0.  1.
         -2   -1    0    0    0  501 -0.00000000000E+00 -0.00000000000E+00 -0.79562359147E+01  0.79562359147E+01  0.00000000000E+00 0. -1.
          1    1    1    2  502    0  0.21551624739E+02 -0.13479605572E+02  0.25266045220E+02  0.35840554353E+02  0.00000000000E+00 0. -1.
         -1    1    1    2    0  501 -0.21551624739E+02  0.13479605572E+02  0.57857134326E+02  0.63195097023E+02  0.00000000000E+00 0.  1.
</event>
<event>
 4    1  0.6935156E+001  0.2228070E+02  0.7546771E-02  0.1501734E+00
          2   -1    0    0  502    0  0.00000000000E+00  0.00000000000E+00  0.69690287340E+03  0.69690287340E+03  0.00000000000E+00 0.  1.
         -2   -1    0    0    0  501 -0.00000000000E+00 -0.00000000000E+00 -0.91118685274E+00  0.91118685274E+00  0.00000000000E+00 0. -1.
          1    1    1    2  502    0 -0.20553144608E+02 -0.86021899035E+01  0.18500279958E+03  0.18633965031E+03  0.00000000000E+00 0. -1.
         -1    1    1    2    0  501  0.20553144608E+02  0.86021899035E+01  0.51098888697E+03  0.51147440995E+03  0.00000000000E+00 0.  1.
</event>
<event>
 4    1  0.6935156E+001  0.5529118E+02  0.7546771E-02  0.1276729E+00
          2   -1    0    0  502    0  0.00000000000E+00  0.00000000000E+00  0.29900363202E+03  0.29900363202E+03  0.00000000000E+00 0. -1.
         -2   -1    0    0    0  501 -0.00000000000E+00 -0.00000000000E+00 -0.10325378534E+02  0.10325378534E+02  0.00000000000E+00 0.  1.
          1    1    1    2  502    0  0.53470703035E+02  0.14071206816E+02  0.12903952556E+03  0.14038630311E+03  0.00000000000E+00 0.  1.
         -1    1    1    2    0  501 -0.53470703035E+02 -0.14071206816E+02  0.15963872792E+03  0.16894270744E+03  0.00000000000E+00 0. -1.
</event>
<event>
 4    1  0.6935156E+001  0.3035913E+02  0.7546771E-02  0.1416501E+00
          2   -1    0    0  502    0  0.00000000000E+00  0.00000000000E+00  0.20824540775E+03  0.20824540775E+03  0.00000000000E+00 0. -1.
         -2   -1    0    0    0  501 -0.00000000000E+00 -0.00000000000E+00 -0.78291948042E+01  0.78291948042E+01  0.00000000000E+00 0.  1.
          1    1    1    2  502    0  0.19832421150E+02  0.22985904420E+02  0.17143826767E+03  0.17410558966E+03  0.00000000000E+00 0. -1.
         -1    1    1    2    0  501 -0.19832421150E+02 -0.22985904420E+02  0.28977945281E+02  0.41969012895E+02  0.00000000000E+00 0.  1.
</event>
<event>
 4    1  0.6935156E+001  0.2441070E+02  0.7546771E-02  0.1475505E+00
          2   -1    0    0  502    0  0.00000000000E+00  0.00000000000E+00  0.30171941421E+03  0.30171941421E+03  0.00000000000E+00 0. -1.
         -2   -1    0    0    0  501 -0.00000000000E+00 -0.00000000000E+00 -0.22394795827E+01  0.22394795827E+01  0.00000000000E+00 0.  1.
          1    1    1    2  502    0 -0.10014878245E+02  0.22261729550E+02  0.20197284941E+03  0.20344265602E+03  0.00000000000E+00 0.  1.
         -1    1    1    2    0  501  0.10014878245E+02 -0.22261729550E+02  0.97507085215E+02  0.10051623777E+03  0.00000000000E+00 0. -1.
</event>
<event>
 4    1  0.6935156E+001  0.3209385E+02  0.7546771E-02  0.1402233E+00
          2   -1    0    0  502    0  0.00000000000E+00  0.00000000000E+00  0.24587650026E+02  0.24587650026E+02  0.00000000000E+00 0.  1.
         -2   -1    0    0    0  501 -0.00000000000E+00 -0.00000000000E+00 -0.50281464367E+02  0.50281464367E+02  0.00000000000E+00 0. -1.
          1    1    1    2  502    0  0.31453153047E+02 -0.63807957927E+01 -0.28138293192E+02  0.42682302367E+02  0.00000000000E+00 0. -1.
         -1    1    1    2    0  501 -0.31453153047E+02  0.63807957927E+01  0.24444788511E+01  0.32186812026E+02  0.00000000000E+00 0.  1.
</event>
<event>
 4    1  0.6935156E+001  0.2698279E+02  0.7546771E-02  0.1447781E+00
          2   -1    0    0  502    0  0.00000000000E+00  0.00000000000E+00  0.47783140607E+02  0.47783140607E+02  0.00000000000E+00 0. -1.
         -2   -1    0    0    0  501 -0.00000000000E+00 -0.00000000000E+00 -0.26366751533E+02  0.26366751533E+02  0.00000000000E+00 0.  1.
          1    1    1    2  502    0  0.19271482065E+02 -0.18885995744E+02  0.34795892626E+02  0.44032090569E+02  0.00000000000E+00 0. -1.
         -1    1    1    2    0  501 -0.19271482065E+02  0.18885995744E+02 -0.13379503552E+02  0.30117801572E+02  0.00000000000E+00 0.  1.
</event>
<event>
 4    1  0.6935156E+001  0.2025509E+02  0.7546771E-02  0.1530171E+00
          2   -1    0    0  502    0  0.00000000000E+00  0.00000000000E+00  0.11536272002E+04  0.11536272002E+04  0.00000000000E+00 0.  1.
         -2   -1    0    0    0  501 -0.00000000000E+00 -0.00000000000E+00 -0.35787062321E+00  0.35787062321E+00  0.00000000000E+00 0. -1.
          1    1    1    2  502    0  0.20134108794E+02 -0.22104871509E+01  0.53101598206E+03  0.53140214696E+03  0.00000000000E+00 0.  1.
         -1    1    1    2    0  501 -0.20134108794E+02  0.22104871509E+01  0.62225334750E+03  0.62258292385E+03  0.00000000000E+00 0. -1.
</event>
<event>
 4    1  0.6935156E+001  0.2094169E+02  0.7546771E-02  0.1520099E+00
          2   -1    0    0  502    0  0.00000000000E+00  0.00000000000E+00  0.28870667378E+01  0.28870667378E+01  0.00000000000E+00 0.  1.
         -2   -1    0    0    0  501 -0.00000000000E+00 -0.00000000000E+00 -0.42674767403E+03  0.42674767403E+03  0.00000000000E+00 0. -1.
          1    1    1    2  502    0  0.18441359088E+02 -0.99232359474E+01 -0.38432639391E+03  0.38489652037E+03  0.00000000000E+00 0. -1.
         -1    1    1    2    0  501 -0.18441359088E+02  0.99232359474E+01 -0.39534213384E+02  0.44738220400E+02  0.00000000000E+00 0.  1.
</event>
<event>
 4    1  0.6935156E+001  0.3454688E+02  0.7546771E-02  0.1383777E+00
          2   -1    0    0  502    0  0.00000000000E+00  0.00000000000E+00  0.27307799331E+03  0.27307799331E+03  0.00000000000E+00 0. -1.
         -2   -1    0    0    0  501 -0.00000000000E+00 -0.00000000000E+00 -0.61930269168E+01  0.61930269168E+01  0.00000000000E+00 0.  1.
          1    1    1    2  502    0 -0.96315948371E+01  0.33177091228E+02  0.57692676593E+02  0.67245311613E+02  0.00000000000E+00 0.  1.
         -1    1    1    2    0  501  0.96315948371E+01 -0.33177091228E+02  0.20919228980E+03  0.21202570862E+03  0.00000000000E+00 0. -1.
</event>
<event>
 4    1  0.6935156E+001  0.5625199E+02  0.7546771E-02  0.1273128E+00
          2   -1    0    0  502    0  0.00000000000E+00  0.00000000000E+00  0.14943518767E+04  0.14943518767E+04  0.00000000000E+00 0. -1.
         -2   -1    0    0    0  501 -0.00000000000E+00 -0.00000000000E+00 -0.22932216712E+01  0.22932216712E+01  0.00000000000E+00 0.  1.
          1    1    1    2  502    0  0.38815419308E+02 -0.40714249051E+02  0.53888112891E+03  0.54180915270E+03  0.00000000000E+00 0.  1.
         -1    1    1    2    0  501 -0.38815419308E+02  0.40714249051E+02  0.95317752610E+03  0.95483594566E+03  0.00000000000E+00 0. -1.
</event>
<event>
 4    1  0.6935156E+001  0.2280978E+02  0.7546771E-02  0.1494901E+00
          2   -1    0    0  502    0  0.00000000000E+00  0.00000000000E+00  0.73678286407E+03  0.73678286407E+03  0.00000000000E+00 0.  1.
         -2   -1    0    0    0  501 -0.00000000000E+00 -0.00000000000E+00 -0.74413526932E+00  0.74413526932E+00  0.00000000000E+00 0. -1.
          1    1    1    2  502    0  0.19606101849E+02 -0.11657044984E+02  0.28471312394E+03  0.28562536454E+03  0.00000000000E+00 0. -1.
         -1    1    1    2    0  501 -0.19606101849E+02  0.11657044984E+02  0.45132560486E+03  0.45190163480E+03  0.00000000000E+00 0.  1.
</event>
<event>
 4    1  0.6935156E+001  0.2200126E+02  0.7546771E-02  0.1505435E+00
          2   -1    0    0  502    0  0.00000000000E+00  0.00000000000E+00  0.78690022338E+03  0.78690022338E+03  0.00000000000E+00 0.  1.
         -2   -1    0    0    0  501 -0.00000000000E+00 -0.00000000000E+00 -0.71947696765E+00  0.71947696765E+00  0.00000000000E+00 0. -1.
          1    1    1    2  502    0  0.16990540437E+02  0.13977734280E+02  0.24312441310E+03  0.24411787269E+03  0.00000000000E+00 0.  1.
         -1    1    1    2    0  501 -0.16990540437E+02 -0.13977734280E+02  0.54305633331E+03  0.54350182766E+03  0.00000000000E+00 0. -1.
</event>
<event>
 4    1  0.6935156E+001  0.4336561E+02  0.7546771E-02  0.1329817E+00
          2   -1    0    0  502    0  0.00000000000E+00  0.00000000000E+00  0.43425946226E+03  0.43425946226E+03  0.00000000000E+00 0.  1.
         -2   -1    0    0    0  501 -0.00000000000E+00 -0.00000000000E+00 -0.46243112219E+01  0.46243112219E+01  0.00000000000E+00 0. -1.
          1    1    1    2  502    0  0.27388862412E+02 -0.33621815824E+02  0.15950759577E+03  0.16529745731E+03  0.00000000000E+00 0. -1.
         -1    1    1    2    0  501 -0.27388862412E+02  0.33621815824E+02  0.27012755526E+03  0.27358631617E+03  0.00000000000E+00 0.  1.
</event>
<event>
 4    1  0.6935156E+001  0.2988896E+02  0.7546771E-02  0.1420564E+00
          2   -1    0    0  502    0  0.00000000000E+00  0.00000000000E+00  0.39435190998E+03  0.39435190998E+03  0.00000000000E+00 0. -1.
         -2   -1    0    0    0  501 -0.00000000000E+00 -0.00000000000E+00 -0.76222684576E+02  0.76222684576E+02  0.00000000000E+00 0.  1.
          1    1    1    2  502    0  0.29870612228E+02  0.10471824438E+01 -0.72699905713E+02  0.78604238795E+02  0.00000000000E+00 0.  1.
         -1    1    1    2    0  501 -0.29870612228E+02 -0.10471824438E+01  0.39082913112E+03  0.39197035576E+03  0.00000000000E+00 0. -1.
</event>
<event>
 4    1  0.6935156E+001  0.2812210E+02  0.7546771E-02  0.1436651E+00
          2   -1    0    0  502    0  0.00000000000E+00  0.00000000000E+00  0.18856685306E+04  0.18856685306E+04  0.00000000000E+00 0. -1.
         -2   -1    0    0    0  501 -0.00000000000E+00 -0.00000000000E+00 -0.42258029760E+00  0.42258029760E+00  0.00000000000E+00 0.  1.
          1    1    1    2  502    0  0.28071806863E+02 -0.16811753979E+01  0.10244114409E+04  0.10247973717E+04  0.00000000000E+00 0.  1.
         -1    1    1    2    0  501 -0.28071806863E+02  0.16811753979E+01  0.86083450938E+03  0.86129373923E+03  0.00000000000E+00 0. -1.
</event>
<event>
 4    1  0.6935156E+001  0.2041630E+02  0.7546771E-02  0.1527764E+00
          2   -1    0    0  502    0  0.00000000000E+00  0.00000000000E+00  0.67707267778E+00  0.67707267778E+00  0.00000000000E+00 0. -1.
         -2   -1    0    0    0  501 -0.00000000000E+00 -0.00000000000E+00 -0.64367208883E+03  0.64367208883E+03  0.00000000000E+00 0.  1.
          1    1    1    2  502    0 -0.74801171811E+01  0.18996665417E+02 -0.25425044947E+03  0.25506884660E+03  0.00000000000E+00 0. -1.
         -1    1    1    2    0  501  0.74801171811E+01 -0.18996665417E+02 -0.38874456668E+03  0.38928031490E+03  0.00000000000E+00 0.  1.
</event>
<event>
 4    1  0.6935156E+001  0.2929474E+02  0.7546771E-02  0.1425826E+00
          2   -1    0    0  502    0  0.00000000000E+00  0.00000000000E+00  0.52928267059E+03  0.52928267059E+03  0.00000000000E+00 0. -1.
         -2   -1    0    0    0  501 -0.00000000000E+00 -0.00000000000E+00 -0.32217575123E+01  0.32217575123E+01  0.00000000000E+00 0.  1.
          1    1    1    2  502    0  0.17827219663E+02  0.23245903708E+02  0.75377862820E+02  0.80870291229E+02  0.00000000000E+00 0.  1.
         -1    1    1    2    0  501 -0.17827219663E+02 -0.23245903708E+02  0.45068305026E+03  0.45163413687E+03  0.00000000000E+00 0. -1.
</event>
<event>
 4    1  0.6935156E+001  0.2697223E+02  0.7546771E-02  0.1447887E+00
          2   -1    0    0  502    0  0.00000000000E+00  0.00000000000E+00  0.66578109377E+03  0.66578109377E+03  0.00000000000E+00 0. -1.
         -2   -1    0    0    0  501 -0.00000000000E+00 -0.00000000000E+00 -0.11126842814E+01  0.11126842814E+01  0.00000000000E+00 0.  1.
          1    1    1    2  502    0 -0.20254482507E+02  0.17811707888E+02  0.37701823583E+03  0.37798181325E+03  0.00000000000E+00 0. -1.
         -1    1    1    2    0  501  0.20254482507E+02 -0.17811707888E+02  0.28765017366E+03  0.28891196480E+03  0.00000000000E+00 0.  1.
</event>
<event>
 4    1  0.6935156E+001  0.6629104E+02  0.7546771E-02  0.1239836E+00
          2   -1    0    0  502    0  0.00000000000E+00  0.00000000000E+00  0.86608239014E+02  0.86608239014E+02  0.00000000000E+00 0. -1.
         -2   -1    0    0    0  501 -0.00000000000E+00 -0.00000000000E+00 -0.62567934816E+02  0.62567934816E+02  0.00000000000E+00 0.  1.
          1    1    1    2  502    0  0.66195330906E+02 -0.35610031125E+01  0.44450223662E+02  0.79814315511E+02  0.00000000000E+00 0.  1.
         -1    1    1    2    0  501 -0.66195330906E+02  0.35610031125E+01 -0.20409919463E+02  0.69361858319E+02  0.00000000000E+00 0. -1.
</event>
<event>
 4    1  0.6935156E+001  0.4156834E+02  0.7546771E-02  0.1339533E+00
          2   -1    0    0  502    0  0.00000000000E+00  0.00000000000E+00  0.12091257948E+04  0.12091257948E+04  0.00000000000E+00 0. -1.
         -2   -1    0    0    0  501 -0.00000000000E+00 -0.00000000000E+00 -0.15281198419E+01  0.15281198419E+01  0.00000000000E+00 0.  1.
          1    1    1    2  502    0 -0.19467242242E+02  0.36728095607E+02  0.44968694414E+03  0.45160411231E+03  0.00000000000E+00 0.  1.
         -1    1    1    2    0  501  0.19467242242E+02 -0.36728095607E+02  0.75791073085E+03  0.75904980236E+03  0.00000000000E+00 0. -1.
</event>
<event>
 4    1  0.6935156E+001  0.2189392E+02  0.7546771E-02  0.1506875E+00
          2   -1    0    0  502    0  0.00000000000E+00  0.00000000000E+00  0.67876033405E+01  0.67876033405E+01  0.00000000000E+00 0.  1.
         -2   -1    0    0    0  501 -0.00000000000E+00 -0.00000000000E+00 -0.72124888374E+02  0.72124888374E+02  0.00000000000E+00 0. -1.
          1    1    1    2  502    0 -0.18215292913E+02 -0.12146888610E+02 -0.26970199534E+02  0.34738098131E+02  0.00000000000E+00 0. -1.
         -1    1    1    2    0  501  0.18215292913E+02  0.12146888610E+02 -0.38367085499E+02  0.44174393584E+02  0.00000000000E+00 0.  1.
</event>
<event>
 4    1  0.6935156E+001  0.4199958E+02  0.7546771E-02  0.1337151E+00
          2   -1    0    0  502    0  0.00000000000E+00  0.00000000000E+00  0.28276940048E+03  0.28276940048E+03  0.00000000000E+00 0. -1.
         -2   -1    0    0    0  501 -0.00000000000E+00 -0.00000000000E+00 -0.63159448086E+01  0.63159448086E+01  0.00000000000E+00 0.  1.
          1    1    1    2  502    0  0.36618373685E+02  0.20568405768E+02  0.15426606287E+03  0.15988115199E+03  0.00000000000E+00 0. -1.
         -1    1    1    2    0  501 -0.36618373685E+02 -0.20568405768E+02  0.12218739280E+03  0.12920419330E+03  0.00000000000E+00 0.  1.
</event>
<event>
 4    1  0.6935156E+001  0.4118527E+02  0.7546771E-02  0.1341677E+00
          2   -1    0    0  502    0  0.00000000000E+00  0.00000000000E+00  0.96040428845E+01  0.96040428845E+01  0.00000000000E+00 0.  1.
         -2   -1    0    0    0  501 -0.00000000000E+00 -0.00000000000E+00 -0.18077211425E+03  0.18077211425E+03  0.00000000000E+00 0. -1.
          1    1    1    2  502    0  0.28840078215E+02  0.29401974004E+02 -0.71150641400E+02  0.82210947923E+02  0.00000000000E+00 0.  1.
         -1    1    1    2    0  501 -0.28840078215E+02 -0.29401974004E+02 -0.10001742996E+03  0.10816520921E+03  0.00000000000E+00 0. -1.
</event>
<event>
 4    1  0.6935156E+001  0.2509074E+02  0.7546771E-02  0.1467791E+00
          2   -1    0    0  502    0  0.00000000000E+00  0.00000000000E+00  0.27096369397E+01  0.27096369397E+01  0.00000000000E+00 0. -1.
         -2   -1    0    0    0  501 -0.00000000000E+00 -0.00000000000E+00 -0.23270675167E+03  0.23270675167E+03  0.00000000000E+00 0.  1.
          1    1    1    2  502    0 -0.13668322838E+01  0.25053487759E+02 -0.11969859352E+03  0.12230003585E+03  0.00000000000E+00 0.  1.
         -1    1    1    2    0  501  0.13668322838E+01 -0.25053487759E+02 -0.11029852121E+03  0.11311635276E+03  0.00000000000E+00 0. -1.
</event>
<event>
 4    1  0.6935156E+001  0.3326012E+02  0.7546771E-02  0.1393226E+00
          2   -1    0    0  502    0  0.00000000000E+00  0.00000000000E+00  0.32399940701E+02  0.32399940701E+02  0.00000000000E+00 0. -1.
         -2   -1    0    0    0  501 -0.00000000000E+00 -0.00000000000E+00 -0.34997350327E+02  0.34997350327E+02  0.00000000000E+00 0.  1.
          1    1    1    2  502    0  0.31416329218E+02  0.10920162942E+02  0.39660404086E+01  0.33495748636E+02  0.00000000000E+00 0.  1.
         -1    1    1    2    0  501 -0.31416329218E+02 -0.10920162942E+02 -0.65634500339E+01  0.33901542392E+02  0.00000000000E+00 0. -1.
</event>
<event>
 4    1  0.6935156E+001  0.4318384E+02  0.7546771E-02  0.1330775E+00
          2   -1    0    0  502    0  0.00000000000E+00  0.00000000000E+00  0.16470360590E+04  0.16470360590E+04  0.00000000000E+00 0. -1.
         -2   -1    0    0    0  501 -0.00000000000E+00 -0.00000000000E+00 -0.20038068482E+01  0.20038068482E+01  0.00000000000E+00 0.  1.
          1    1    1    2  502    0 -0.33504560160E+02  0.27244977118E+02  0.13662957671E+04  0.13669780420E+04  0.00000000000E+00 0.  1.
         -1    1    1    2    0  501  0.33504560160E+02 -0.27244977118E+02  0.27873648513E+03  0.28206182385E+03  0.00000000000E+00 0. -1.
</event>
<event>
 4    1  0.6935156E+001  0.2574436E+02  0.7546771E-02  0.1460646E+00
          2   -1    0    0  502    0  0.00000000000E+00  0.00000000000E+00  0.20494558361E+02  0.20494558361E+02  0.00000000000E+00 0.  1.
         -2   -1    0    0    0  501 -0.00000000000E+00 -0.00000000000E+00 -0.33602886151E+02  0.33602886151E+02  0.00000000000E+00 0. -1.
          1    1    1    2  502    0 -0.24720715947E+02  0.71873527497E+01 -0.13081845281E+01  0.25777571322E+02  0.00000000000E+00 0.  1.
         -1    1    1    2    0  501  0.24720715947E+02 -0.71873527497E+01 -0.11800143262E+02  0.28319873190E+02  0.00000000000E+00 0. -1.
</event>
<event>
 4    1  0.6935156E+001  0.2084669E+02  0.7546771E-02  0.1521465E+00
          2   -1    0    0  502    0  0.00000000000E+00  0.00000000000E+00  0.24249816068E+02  0.24249816068E+02  0.00000000000E+00 0. -1.
         -2   -1    0    0    0  501 -0.00000000000E+00 -0.00000000000E+00 -0.64317567098E+02  0.64317567098E+02  0.00000000000E+00 0.  1.
          1    1    1    2  502    0  0.20590764807E+02 -0.32564860121E+01 -0.57645430782E+02  0.61299102657E+02  0.00000000000E+00 0.  1.
         -1    1    1    2    0  501 -0.20590764807E+02  0.32564860121E+01  0.17577679753E+02  0.27268280510E+02  0.00000000000E+00 0. -1.
</event>
<event>
 4    1  0.6935156E+001  0.2036665E+02  0.7546771E-02  0.1528503E+00
          2   -1    0    0  502    0  0.00000000000E+00  0.00000000000E+00  0.17053378115E+03  0.17053378115E+03  0.00000000000E+00 0. -1.
         -2   -1    0    0    0  501 -0.00000000000E+00 -0.00000000000E+00 -0.26133570523E+01  0.26133570523E+01  0.00000000000E+00 0.  1.
          1    1    1    2  502    0  0.85838717702E+01 -0.18469368787E+02  0.61176974586E+02  0.64478078891E+02  0.00000000000E+00 0.  1.
         -1    1    1    2    0  501 -0.85838717702E+01  0.18469368787E+02  0.10674344951E+03  0.10866905931E+03  0.00000000000E+00 0. -1.
</event>
<event>
 4    1  0.6935156E+001  0.2611792E+02  0.7546771E-02  0.1456676E+00
          2   -1    0    0  502    0  0.00000000000E+00  0.00000000000E+00  0.14728694716E+03  0.14728694716E+03  0.00000000000E+00 0. -1.
         -2   -1    0    0    0  501 -0.00000000000E+00 -0.00000000000E+00 -0.46707065823E+01  0.46707065823E+01  0.00000000000E+00 0.  1.
          1    1    1    2  502    0  0.23929668971E+02 -0.10465022802E+02  0.78277541501E+02  0.82519811335E+02  0.00000000000E+00 0.  1.
         -1    1    1    2    0  501 -0.23929668971E+02  0.10465022802E+02  0.64338699081E+02  0.69437842412E+02  0.00000000000E+00 0. -1.
</event>
<event>
 4    1  0.6935156E+001  0.2960091E+02  0.7546771E-02  0.1423097E+00
          2   -1    0    0  502    0  0.00000000000E+00  0.00000000000E+00  0.11301598093E+04  0.11301598093E+04  0.00000000000E+00 0.  1.
         -2   -1    0    0    0  501 -0.00000000000E+00 -0.00000000000E+00 -0.84469833270E+00  0.84469833270E+00  0.00000000000E+00 0. -1.
          1    1    1    2  502    0 -0.28305992968E+01  0.29465257548E+02  0.72674741288E+03  0.72734999541E+03  0.00000000000E+00 0.  1.
         -1    1    1    2    0  501  0.28305992968E+01 -0.29465257548E+02  0.40256769813E+03  0.40365451226E+03  0.00000000000E+00 0. -1.
</event>
<event>
 4    1  0.6935156E+001  0.2850316E+02  0.7546771E-02  0.1433066E+00
          2   -1    0    0  502    0  0.00000000000E+00  0.00000000000E+00  0.67896510063E+03  0.67896510063E+03  0.00000000000E+00 0.  1.
         -2   -1    0    0    0  501 -0.00000000000E+00 -0.00000000000E+00 -0.13744846639E+01  0.13744846639E+01  0.00000000000E+00 0. -1.
          1    1    1    2  502    0 -0.25817749612E+02 -0.12077832976E+02  0.21640982179E+03  0.21827881531E+03  0.00000000000E+00 0. -1.
         -1    1    1    2    0  501  0.25817749612E+02  0.12077832976E+02  0.46118079417E+03  0.46206076998E+03  0.00000000000E+00 0.  1.
</event>
<event>
 4    1  0.6935156E+001  0.3903929E+02  0.7546771E-02  0.1354209E+00
          2   -1    0    0  502    0  0.00000000000E+00  0.00000000000E+00  0.31400201882E+03  0.31400201882E+03  0.00000000000E+00 0. -1.
         -2   -1    0    0    0  501 -0.00000000000E+00 -0.00000000000E+00 -0.66610702218E+01  0.66610702218E+01  0.00000000000E+00 0.  1.
          1    1    1    2  502    0 -0.36867187695E+02  0.12840431826E+02  0.70153915713E+02  0.80284731474E+02  0.00000000000E+00 0.  1.
         -1    1    1    2    0  501  0.36867187695E+02 -0.12840431826E+02  0.23718703288E+03  0.24037835757E+03  0.00000000000E+00 0. -1.
</event>
<event>
 4    1  0.6935156E+001  0.2452360E+02  0.7546771E-02  0.1474204E+00
          2   -1    0    0  502    0  0.00000000000E+00  0.00000000000E+00  0.11630066148E+02  0.11630066148E+02  0.00000000000E+00 0. -1.
         -2   -1    0    0    0  501 -0.00000000000E+00 -0.00000000000E+00 -0.86853070470E+02  0.86853070470E+02  0.00000000000E+00 0.  1.
          1    1    1    2  502    0 -0.24306398698E+02  0.32567088252E+01 -0.62894361678E+01  0.25317270338E+02  0.00000000000E+00 0. -1.
         -1    1    1    2    0  501  0.24306398698E+02 -0.32567088252E+01 -0.68933568154E+02  0.73165866280E+02  0.00000000000E+00 0.  1.
</event>
<event>
 4    1  0.6935156E+001  0.2359997E+02  0.7546771E-02  0.1485099E+00
          2   -1    0    0  502    0  0.00000000000E+00  0.00000000000E+00  0.96321343926E+03  0.96321343926E+03  0.00000000000E+00 0. -1.
         -2   -1    0    0    0  501 -0.00000000000E+00 -0.00000000000E+00 -0.57846155441E+00  0.57846155441E+00  0.00000000000E+00 0.  1.
          1    1    1    2  502    0 -0.21104033824E+02  0.10563059544E+02  0.47166660643E+03  0.47225665277E+03  0.00000000000E+00 0.  1.
         -1    1    1    2    0  501  0.21104033824E+02 -0.10563059544E+02  0.49096837128E+03  0.49153524804E+03  0.00000000000E+00 0. -1.
</event>
<event>
 4    1  0.6935156E+001  0.2180831E+02  0.7546771E-02  0.1508030E+00
          2   -1    0    0  502    0  0.00000000000E+00  0.00000000000E+00  0.13122924275E+02  0.13122924275E+02  0.00000000000E+00 0.  1.
         -2   -1    0    0    0  501 -0.00000000000E+00 -0.00000000000E+00 -0.38792180022E+02  0.38792180022E+02  0.00000000000E+00 0. -1.
          1    1    1    2  502    0  0.20383924984E+02 -0.77522969592E+01 -0.19489924706E+02  0.29248242186E+02  0.00000000000E+00 0. -1.
         -1    1    1    2    0  501 -0.20383924984E+02  0.77522969592E+01 -0.61793310403E+01  0.22666862112E+02  0.00000000000E+00 0.  1.
</event>
<event>
 4    1  0.6935156E+001  0.2331639E+02  0.7546771E-02  0.1488563E+00
          2   -1    0    0  502    0  0.00000000000E+00  0.00000000000E+00  0.10965926868E+04  0.10965926868E+04  0.00000000000E+00 0.  1.
         -2   -1    0    0    0  501 -0.00000000000E+00 -0.00000000000E+00 -0.70794995047E+00  0.70794995047E+00  0.00000000000E+00 0. -1.
          1    1    1    2  502    0 -0.19745848103E+02 -0.12399825428E+02  0.24757699870E+03  0.24867252457E+03  0.00000000000E+00 0. -1.
         -1    1    1    2    0  501  0.19745848103E+02  0.12399825428E+02  0.84830773811E+03  0.84862811215E+03  0.00000000000E+00 0.  1.
</event>
<event>
 4    1  0.6935156E+001  0.2179486E+02  0.7546771E-02  0.1508212E+00
          2   -1    0    0  502    0  0.00000000000E+00  0.00000000000E+00  0.70914880964E+03  0.70914880964E+03  0.00000000000E+00 0. -1.
         -2   -1    0    0    0  501 -0.00000000000E+00 -0.00000000000E+00 -0.67948783364E+00  0.67948783364E+00  0.00000000000E+00 0.  1.
          1    1    1    2  502    0 -0.63689385842E+01 -0.20843527570E+02  0.39652627934E+03  0.39712479932E+03  0.00000000000E+00 0.  1.
         -1    1    1    2    0  501  0.63689385842E+01  0.20843527570E+02  0.31194304246E+03  0.31270349816E+03  0.00000000000E+00 0. -1.
</event>
<event>
 4    1  0.6935156E+001  0.2456048E+02  0.7546771E-02  0.1473781E+00
          2   -1    0    0  502    0  0.00000000000E+00  0.00000000000E+00  0.20957099167E+02  0.20957099167E+02  0.00000000000E+00 0. -1.
         -2   -1    0    0    0  501 -0.00000000000E+00 -0.00000000000E+00 -0.30533261968E+02  0.30533261968E+02  0.00000000000E+00 0.  1.
          1    1    1    2  502    0  0.75041547293E+01 -0.23386001605E+02  0.13751185255E+01  0.24598950389E+02  0.00000000000E+00 0. -1.
         -1    1    1    2    0  501 -0.75041547293E+01  0.23386001605E+02 -0.10951281326E+02  0.26891410746E+02  0.00000000000E+00 0.  1.
</event>
<event>
 4    1  0.6935156E+001  0.6055899E+02  0.7546771E-02  0.1257945E+00
          2   -1    0    0  502    0  0.00000000000E+00  0.00000000000E+00  0.30859557469E+03  0.30859557469E+03  0.00000000000E+00 0.  1.
         -2   -1    0    0    0  501 -0.00000000000E+00 -0.00000000000E+00 -0.11884798889E+02  0.11884798889E+02  0.00000000000E+00 0. -1.
          1    1    1    2  502    0  0.76472882191E+01 -0.60074205109E+02  0.14955399361E+03  0.16134989353E+03  0.00000000000E+00 0. -1.
         -1    1    1    2    0  501 -0.76472882191E+01  0.60074205109E+02  0.14715678218E+03  0.15913048005E+03  0.00000000000E+00 0.  1.
</event>
<event>
 4    1  0.6935156E+001  0.2470844E+02  0.7546771E-02  0.1472092E+00
          2   -1    0    0  502    0  0.00000000000E+00  0.00000000000E+00  0.69027322138E+03  0.69027322138E+03  0.00000000000E+00 0. -1.
         -2   -1    0    0    0  501 -0.00000000000E+00 -0.00000000000E+00 -0.10133221525E+01  0.10133221525E+01  0.00000000000E+00 0.  1.
          1    1    1    2  502    0  0.72797810937E+01 -0.23611689640E+02  0.22136312531E+03  0.22273782873E+03  0.00000000000E+00 0.  1.
         -1    1    1    2    0  501 -0.72797810937E+01  0.23611689640E+02  0.46789677392E+03  0.46854871481E+03  0.00000000000E+00 0. -1.
</event>
<event>
 4    1  0.6935156E+001  0.3439297E+02  0.7546771E-02  0.1384882E+00
          2   -1    0    0  502    0  0.00000000000E+00  0.00000000000E+00  0.30876653995E+03  0.30876653995E+03  0.00000000000E+00 0.  1.
         -2   -1    0    0    0  501 -0.00000000000E+00 -0.00000000000E+00 -0.38363165396E+01  0.38363165396E+01  0.00000000000E+00 0. -1.
          1    1    1    2  502    0 -0.30101887791E+02  0.16635880259E+02  0.15829869877E+03  0.16199183373E+03  0.00000000000E+00 0.  1.
         -1    1    1    2    0  501  0.30101887791E+02 -0.16635880259E+02  0.14663152464E+03  0.15061102276E+03  0.00000000000E+00 0. -1.
</event>
<event>
 4    1  0.6935156E+001  0.2639981E+02  0.7546771E-02  0.1453732E+00
          2   -1    0    0  502    0  0.00000000000E+00  0.00000000000E+00  0.29813845356E+01  0.29813845356E+01  0.00000000000E+00 0.  1.
         -2   -1    0    0    0  501 -0.00000000000E+00 -0.00000000000E+00 -0.30249590743E+03  0.30249590743E+03  0.00000000000E+00 0. -1.
          1    1    1    2  502    0 -0.13352896620E+02 -0.22773894750E+02 -0.76952791441E+02  0.81355284037E+02  0.00000000000E+00 0. -1.
         -1    1    1    2    0  501  0.13352896620E+02  0.22773894750E+02 -0.22256173145E+03  0.22412200792E+03  0.00000000000E+00 0.  1.
</event>
<event>
 4    1  0.6935156E+001  0.2380915E+02  0.7546771E-02  0.1482580E+00
          2   -1    0    0  502    0  0.00000000000E+00  0.00000000000E+00  0.10405608847E+03  0.10405608847E+03  0.00000000000E+00 0. -1.
         -2   -1    0    0    0  501 -0.00000000000E+00 -0.00000000000E+00 -0.78701541596E+01  0.78701541596E+01  0.00000000000E+00 0.  1.
          1    1    1    2  502    0  0.22541407204E+02 -0.76655590406E+01  0.79140702343E+02  0.82644579989E+02  0.00000000000E+00 0. -1.
         -1    1    1    2    0  501 -0.22541407204E+02  0.76655590406E+01  0.17045231965E+02  0.29281662639E+02  0.00000000000E+00 0.  1.
</event>
<event>
 4    1  0.6935156E+001  0.4974947E+02  0.7546771E-02  0.1299262E+00
          2   -1    0    0  502    0  0.00000000000E+00  0.00000000000E+00  0.75627337658E+02  0.75627337658E+02  0.00000000000E+00 0. -1.
         -2   -1    0    0    0  501 -0.00000000000E+00 -0.00000000000E+00 -0.34726388930E+02  0.34726388930E+02  0.00000000000E+00 0.  1.
          1    1    1    2  502    0  0.49700303735E+02  0.22111646018E+01  0.72088117772E+01  0.50269040248E+02  0.00000000000E+00 0.  1.
         -1    1    1    2    0  501 -0.49700303735E+02 -0.22111646018E+01  0.33692136951E+02  0.60084686340E+02  0.00000000000E+00 0. -1.
</event>
<event>
 4    1  0.6935156E+001  0.2481549E+02  0.7546771E-02  0.1470878E+00
          2   -1    0    0  502    0  0.00000000000E+00  0.00000000000E+00  0.13825693871E+03  0.13825693871E+03  0.00000000000E+00 0. -1.
         -2   -1    0    0    0  501 -0.00000000000E+00 -0.00000000000E+00 -0.54766245929E+01  0.54766245929E+01  0.00000000000E+00 0.  1.
          1    1    1    2  502    0 -0.22517084548E+02  0.10430228854E+02  0.97443676960E+02  0.10055386094E+03  0.00000000000E+00 0. -1.
         -1    1    1    2    0  501  0.22517084548E+02 -0.10430228854E+02  0.35336637155E+02  0.43179702361E+02  0.00000000000E+00 0.  1.
</event>
<event>
 4    1  0.6935156E+001  0.2339689E+02  0.7546771E-02  0.1487574E+00
          2   -1    0    0  502    0  0.00000000000E+00  0.00000000000E+00  0.43644972183E+03  0.43644972183E+03  0.00000000000E+00 0. -1.
         -2   -1    0    0    0  501 -0.00000000000E+00 -0.00000000000E+00 -0.17165562813E+01  0.17165562813E+01  0.00000000000E+00 0.  1.
          1    1    1    2  502    0 -0.22245367786E+02  0.72496964996E+01  0.10366995049E+03  0.10627734058E+03  0.00000000000E+00 0.  1.
         -1    1    1    2    0  501  0.22245367786E+02 -0.72496964996E+01  0.33106321506E+03  0.33188893753E+03  0.00000000000E+00 0. -1.
</event>
<event>
 4    1  0.6935156E+001  0.2245575E+02  0.7546771E-02  0.1499448E+00
          2   -1    0    0  502    0  0.00000000000E+00  0.00000000000E+00  0.23836978685E+04  0.23836978685E+04  0.00000000000E+00 0.  1.
         -2   -1    0    0    0  501 -0.00000000000E+00 -0.00000000000E+00 -0.22285757644E+00  0.22285757644E+00  0.00000000000E+00 0. -1.
          1    1    1    2  502    0 -0.12079286320E+02  0.18930174067E+02  0.14602834181E+04  0.14604560664E+04  0.00000000000E+00 0.  1.
         -1    1    1    2    0  501  0.12079286320E+02 -0.18930174067E+02  0.92319159282E+03  0.92346465969E+03  0.00000000000E+00 0. -1.
</event>
<event>
 4    1  0.6935156E+001  0.2500982E+02  0.7546771E-02  0.1468694E+00
          2   -1    0    0  502    0  0.00000000000E+00  0.00000000000E+00  0.21393459316E+03  0.21393459316E+03  0.00000000000E+00 0. -1.
         -2   -1    0    0    0  501 -0.00000000000E+00 -0.00000000000E+00 -0.50741752104E+01  0.50741752104E+01  0.00000000000E+00 0.  1.
          1    1    1    2  502    0  0.55629204987E+01  0.24383297484E+02  0.17571730810E+03  0.17748820706E+03  0.00000000000E+00 0. -1.
         -1    1    1    2    0  501 -0.55629204987E+01 -0.24383297484E+02  0.33143109846E+02  0.41520561303E+02  0.00000000000E+00 0.  1.
</event>
<event>
 4    1  0.6935156E+001  0.5507951E+02  0.7546771E-02  0.1277534E+00
          2   -1    0    0  502    0  0.00000000000E+00  0.00000000000E+00  0.50665439476E+03  0.50665439476E+03  0.00000000000E+00 0. -1.
         -2   -1    0    0    0  501 -0.00000000000E+00 -0.00000000000E+00 -0.83773655660E+01  0.83773655660E+01  0.00000000000E+00 0.  1.
          1    1    1    2  502    0  0.37238774642E+02 -0.40583570218E+02  0.11160503074E+03  0.12445656028E+03  0.00000000000E+00 0.  1.
         -1    1    1    2    0  501 -0.37238774642E+02  0.40583570218E+02  0.38667199845E+03  0.39057520005E+03  0.00000000000E+00 0. -1.
</event>
<event>
 4    1  0.6935156E+001  0.2108418E+02  0.7546771E-02  0.1518066E+00
          2   -1    0    0  502    0  0.00000000000E+00  0.00000000000E+00  0.86628113740E+03  0.86628113740E+03  0.00000000000E+00 0. -1.
         -2   -1    0    0    0  501 -0.00000000000E+00 -0.00000000000E+00 -0.17781586156E+01  0.17781586156E+01  0.00000000000E+00 0.  1.
          1    1    1    2  502    0  0.16074777829E+01 -0.21022810174E+02  0.79833387669E+03  0.79861224709E+03  0.00000000000E+00 0. -1.
         -1    1    1    2    0  501 -0.16074777829E+01  0.21022810174E+02  0.66169102098E+02  0.69447048929E+02  0.00000000000E+00 0.  1.
</event>
<event>
 4    1  0.6935156E+001  0.2124654E+02  0.7546771E-02  0.1515774E+00
          2   -1    0    0  502    0  0.00000000000E+00  0.00000000000E+00  0.80286388179E+03  0.80286388179E+03  0.00000000000E+00 0.  1.
         -2   -1    0    0    0  501 -0.00000000000E+00 -0.00000000000E+00 -0.11184902315E+01  0.11184902315E+01  0.00000000000E+00 0. -1.
          1    1    1    2  502    0  0.20057105441E+02 -0.70091258565E+01  0.68435708528E+03  0.68468681563E+03  0.00000000000E+00 0.  1.
         -1    1    1    2    0  501 -0.20057105441E+02  0.70091258565E+01  0.11738830628E+03  0.11929555639E+03  0.00000000000E+00 0. -1.
</event>
<event>
 4    1  0.6935156E+001  0.2121218E+02  0.7546771E-02  0.1516257E+00
          2   -1    0    0  502    0  0.00000000000E+00  0.00000000000E+00  0.42483690262E+02  0.42483690262E+02  0.00000000000E+00 0. -1.
         -2   -1    0    0    0  501 -0.00000000000E+00 -0.00000000000E+00 -0.10658566913E+02  0.10658566913E+02  0.00000000000E+00 0.  1.
          1    1    1    2  502    0 -0.18693212446E+02 -0.10025981294E+02  0.18023806262E+02  0.27835482475E+02  0.00000000000E+00 0. -1.
         -1    1    1    2    0  501  0.18693212446E+02  0.10025981294E+02  0.13801317086E+02  0.25306774701E+02  0.00000000000E+00 0.  1.
</event>
<event>
 4    1  0.6935156E+001  0.2569964E+02  0.7546771E-02  0.1461127E+00
          2   -1    0    0  502    0  0.00000000000E+00  0.00000000000E+00  0.20751516762E+04  0.20751516762E+04  0.00000000000E+00 0.  1.
         -2   -1    0    0    0  501 -0.00000000000E+00 -0.00000000000E+00 -0.39280001092E+00  0.39280001092E+00  0.00000000000E+00 0. -1.
          1    1    1    2  502    0 -0.14550567598E+01 -0.25658420766E+02  0.58535352716E+03  0.58591742038E+03  0.00000000000E+00 0. -1.
         -1    1    1    2    0  501  0.14550567598E+01  0.25658420766E+02  0.14894053491E+04  0.14896270559E+04  0.00000000000E+00 0.  1.
</event>
<event>
 4    1  0.6935156E+001  0.2590376E+02  0.7546771E-02  0.1458942E+00
          2   -1    0    0  502    0  0.00000000000E+00  0.00000000000E+00  0.21984276263E+04  0.21984276263E+04  0.00000000000E+00 0. -1.
         -2   -1    0    0    0  501 -0.00000000000E+00 -0.00000000000E+00 -0.30565488730E+00  0.30565488730E+00  0.00000000000E+00 0.  1.
          1    1    1    2  502    0 -0.24572129617E+02 -0.81985032173E+01  0.11405090433E+04  0.11408031745E+04  0.00000000000E+00 0. -1.
         -1    1    1    2    0  501  0.24572129617E+02  0.81985032173E+01  0.10576129281E+04  0.10579301067E+04  0.00000000000E+00 0.  1.
</event>
<event>
 4    1  0.6935156E+001  0.2150896E+02  0.7546771E-02  0.1512121E+00
          2   -1    0    0  502    0  0.00000000000E+00  0.00000000000E+00  0.39498289971E+02  0.39498289971E+02  0.00000000000E+00 0.  1.
         -2   -1    0    0    0  501 -0.00000000000E+00 -0.00000000000E+00 -0.11723362506E+02  0.11723362506E+02  0.00000000000E+00 0. -1.
          1    1    1    2  502    0  0.12668146279E+02 -0.17382564176E+02  0.14656301565E+02  0.26027728349E+02  0.00000000000E+00 0.  1.
         -1    1    1    2    0  501 -0.12668146279E+02  0.17382564176E+02  0.13118625899E+02  0.25193924128E+02  0.00000000000E+00 0. -1.
</event>
<event>
 4    1  0.6935156E+001  0.3388536E+02  0.7546771E-02  0.1388573E+00
          2   -1    0    0  502    0  0.00000000000E+00  0.00000000000E+00  0.71209571793E+03  0.71209571793E+03  0.00000000000E+00 0.  1.
         -2   -1    0    0    0  501 -0.00000000000E+00 -0.00000000000E+00 -0.30223051129E+01  0.30223051129E+01  0.00000000000E+00 0. -1.
          1    1    1    2  502    0  0.32838396012E+02  0.83580542775E+01  0.59874821321E+03  0.59970629490E+03  0.00000000000E+00 0.  1.
         -1    1    1    2    0  501 -0.32838396012E+02 -0.83580542775E+01  0.11032519961E+03  0.11541172814E+03  0.00000000000E+00 0. -1.
</event>
<event>
 4    1  0.6935156E+001  0.2419562E+02  0.7546771E-02  0.1478007E+00
          2   -1    0    0  502    0  0.00000000000E+00  0.00000000000E+00  0.17918884641E+02  0.17918884641E+02  0.00000000000E+00 0.  1.
         -2   -1    0    0    0  501 -0.00000000000E+00 -0.00000000000E+00 -0.32765145720E+02  0.32765145720E+02  0.00000000000E+00 0. -1.
          1    1    1    2  502    0 -0.22552236756E+02 -0.87649597571E+01 -0.87815457531E+01  0.25739919348E+02  0.00000000000E+00 0. -1.
         -1    1    1    2    0  501  0.22552236756E+02  0.87649597571E+01 -0.60647153255E+01  0.24944111013E+02  0.00000000000E+00 0.  1.
</event>
<event>
 4    1  0.6935156E+001  0.5525610E+02  0.7546771E-02  0.1276862E+00
          2   -1    0    0  502    0  0.00000000000E+00  0.00000000000E+00  0.18644140213E+04  0.18644140213E+04  0.00000000000E+00 0.  1.
         -2   -1    0    0    0  501 -0.00000000000E+00 -0.00000000000E+00 -0.16904938024E+01  0.16904938024E+01  0.00000000000E+00 0. -1.
          1    1    1    2  502    0  0.33073123564E+02  0.44265174028E+02  0.10963455849E+04  0.10977371629E+04  0.00000000000E+00 0.  1.
         -1    1    1    2    0  501 -0.33073123564E+02 -0.44265174028E+02  0.76637794256E+03  0.76836735223E+03  0.00000000000E+00 0. -1.
</event>
<event>
 4    1  0.6935156E+001  0.4016920E+02  0.7546771E-02  0.1347497E+00
          2   -1    0    0  502    0  0.00000000000E+00  0.00000000000E+00  0.11781812651E+04  0.11781812651E+04  0.00000000000E+00 0. -1.
         -2   -1    0    0    0  501 -0.00000000000E+00 -0.00000000000E+00 -0.15032606794E+01  0.15032606794E+01  0.00000000000E+00 0.  1.
          1    1    1    2  502    0  0.29766522339E+02  0.26972553548E+02  0.41241681880E+03  0.41436843138E+03  0.00000000000E+00 0. -1.
         -1    1    1    2    0  501 -0.29766522339E+02 -0.26972553548E+02  0.76426118563E+03  0.76531609440E+03  0.00000000000E+00 0.  1.
</event>
<event>
 4    1  0.6935156E+001  0.9904005E+02  0.7546771E-02  0.1165482E+00
          2   -1    0    0  502    0  0.00000000000E+00  0.00000000000E+00  0.17080350523E+04  0.17080350523E+04  0.00000000000E+00 0. -1.
         -2   -1    0    0    0  501 -0.00000000000E+00 -0.00000000000E+00 -0.96072114024E+01  0.96072114024E+01  0.00000000000E+00 0.  1.
          1    1    1    2  502    0  0.61015047793E+02 -0.78013427686E+02  0.13938981850E+04  0.13974122803E+04  0.00000000000E+00 0. -1.
         -1    1    1    2    0  501 -0.61015047793E+02  0.78013427686E+02  0.30452965592E+03  0.32022998343E+03  0.00000000000E+00 0.  1.
</event>
<event>
 4    1  0.6935156E+001  0.2982918E+02  0.7546771E-02  0.1421087E+00
          2   -1    0    0  502    0  0.00000000000E+00  0.00000000000E+00  0.48976617512E+03  0.48976617512E+03  0.00000000000E+00 0. -1.
         -2   -1    0    0    0  501 -0.00000000000E+00 -0.00000000000E+00 -0.22885235572E+01  0.22885235572E+01  0.00000000000E+00 0.  1.
          1    1    1    2  502    0  0.25086307066E+02 -0.16138682310E+02  0.35544447859E+03  0.35669392654E+03  0.00000000000E+00 0. -1.
         -1    1    1    2    0  501 -0.25086307066E+02  0.16138682310E+02  0.13203317297E+03  0.13536077214E+03  0.00000000000E+00 0.  1.
</event>
<event>
 4    1  0.6935156E+001  0.2013003E+02  0.7546771E-02  0.1532057E+00
          2   -1    0    0  502    0  0.00000000000E+00  0.00000000000E+00  0.37418628954E+01  0.37418628954E+01  0.00000000000E+00 0. -1.
         -2   -1    0    0    0  501 -0.00000000000E+00 -0.00000000000E+00 -0.11770684558E+03  0.11770684558E+03  0.00000000000E+00 0.  1.
          1    1    1    2  502    0 -0.20106615547E+02  0.97054186395E+00 -0.39809607739E+02  0.44609671694E+02  0.00000000000E+00 0. -1.
         -1    1    1    2    0  501  0.20106615547E+02 -0.97054186395E+00 -0.74155374942E+02  0.76839036778E+02  0.00000000000E+00 0.  1.
</event>
<event>
 4    1  0.6935156E+001  0.2082453E+02  0.7546771E-02  0.1521785E+00
          2   -1    0    0  502    0  0.00000000000E+00  0.00000000000E+00  0.26859616698E+01  0.26859616698E+01  0.00000000000E+00 0. -1.
         -2   -1    0    0    0  501 -0.00000000000E+00 -0.00000000000E+00 -0.16147271540E+03  0.16147271540E+03  0.00000000000E+00 0.  1.
          1    1    1    2  502    0 -0.90435994974E+01 -0.18758312222E+02 -0.80261839818E+02  0.82919381934E+02  0.00000000000E+00 0. -1.
         -1    1    1    2    0  501  0.90435994974E+01  0.18758312222E+02 -0.78524913914E+02  0.81239295138E+02  0.00000000000E+00 0.  1.
</event>
<event>
 4    1  0.6935156E+001  0.3876531E+02  0.7546771E-02  0.1355877E+00
          2   -1    0    0  502    0  0.00000000000E+00  0.00000000000E+00  0.53457878062E+03  0.53457878062E+03  0.00000000000E+00 0. -1.
         -2   -1    0    0    0  501 -0.00000000000E+00 -0.00000000000E+00 -0.34476933083E+01  0.34476933083E+01  0.00000000000E+00 0.  1.
          1    1    1    2  502    0 -0.38440476532E+02  0.50079111560E+01  0.14996934244E+03  0.15489852511E+03  0.00000000000E+00 0. -1.
         -1    1    1    2    0  501  0.38440476532E+02 -0.50079111560E+01  0.38116174487E+03  0.38312794882E+03  0.00000000000E+00 0.  1.
</event>
<event>
 4    1  0.6935156E+001  0.3331564E+02  0.7546771E-02  0.1392808E+00
          2   -1    0    0  502    0  0.00000000000E+00  0.00000000000E+00  0.16783382361E+04  0.16783382361E+04  0.00000000000E+00 0. -1.
         -2   -1    0    0    0  501 -0.00000000000E+00 -0.00000000000E+00 -0.12379664544E+01  0.12379664544E+01  0.00000000000E+00 0.  1.
          1    1    1    2  502    0  0.30393474972E+02  0.13644363360E+02  0.26540171319E+03  0.26748458149E+03  0.00000000000E+00 0.  1.
         -1    1    1    2    0  501 -0.30393474972E+02 -0.13644363360E+02  0.14116985565E+04  0.14120916211E+04  0.00000000000E+00 0. -1.
</event>
<event>
 4    1  0.6935156E+001  0.2066276E+02  0.7546771E-02  0.1524135E+00
          2   -1    0    0  502    0  0.00000000000E+00  0.00000000000E+00  0.54588070401E+02  0.54588070401E+02  0.00000000000E+00 0.  1.
         -2   -1    0    0    0  501 -0.00000000000E+00 -0.00000000000E+00 -0.10980550900E+02  0.10980550900E+02  0.00000000000E+00 0. -1.
          1    1    1    2  502    0 -0.17898451180E+02  0.10324494017E+02  0.42186137009E+01  0.21089012137E+02  0.00000000000E+00 0. -1.
         -1    1    1    2    0  501  0.17898451180E+02 -0.10324494017E+02  0.39388905800E+02  0.44479609165E+02  0.00000000000E+00 0.  1.
</event>
<event>
 4    1  0.6935156E+001  0.2134470E+02  0.7546771E-02  0.1514400E+00
          2   -1    0    0  502    0  0.00000000000E+00  0.00000000000E+00  0.53071420859E+01  0.53071420859E+01  0.00000000000E+00 0. -1.
         -2   -1    0    0    0  501 -0.00000000000E+00 -0.00000000000E+00 -0.86155244750E+02  0.86155244750E+02  0.00000000000E+00 0.  1.
          1    1    1    2  502    0  0.21335599428E+02  0.62329410045E+00 -0.37683707892E+02  0.43308869056E+02  0.00000000000E+00 0.  1.
         -1    1    1    2    0  501 -0.21335599428E+02 -0.62329410045E+00 -0.43164394772E+02  0.48153517779E+02  0.00000000000E+00 0. -1.
</event>
<event>
 4    1  0.6935156E+001  0.2450646E+02  0.7546771E-02  0.1474401E+00
          2   -1    0    0  502    0  0.00000000000E+00  0.00000000000E+00  0.87552965342E+02  0.87552965342E+02  0.00000000000E+00 0. -1.
         -2   -1    0    0    0  501 -0.00000000000E+00 -0.00000000000E+00 -0.75680881336E+01  0.75680881336E+01  0.00000000000E+00 0.  1.
          1    1    1    2  502    0 -0.39414707003E+01 -0.24187420513E+02  0.25439147209E+02  0.35323033746E+02  0.00000000000E+00 0.  1.
         -1    1    1    2    0  501  0.39414707003E+01  0.24187420513E+02  0.54545730000E+02  0.59798019729E+02  0.00000000000E+00 0. -1.
</event>
<event>
 4    1  0.6935156E+001  0.2648695E+02  0.7546771E-02  0.1452831E+00
          2   -1    0    0  502    0  0.00000000000E+00  0.00000000000E+00  0.67146196362E+00  0.67146196362E+00  0.00000000000E+00 0. -1.
         -2   -1    0    0    0  501 -0.00000000000E+00 -0.00000000000E+00 -0.12947497213E+04  0.12947497213E+04  0.00000000000E+00 0.  1.
          1    1    1    2  502    0 -0.21751048826E+02 -0.15114582309E+02 -0.93161276665E+03  0.93198921974E+03  0.00000000000E+00 0. -1.
         -1    1    1    2    0  501  0.21751048826E+02  0.15114582309E+02 -0.36246549269E+03  0.36343196353E+03  0.00000000000E+00 0.  1.
</event>
<event>
 4    1  0.6935156E+001  0.3758880E+02  0.7546771E-02  0.1363226E+00
          2   -1    0    0  502    0  0.00000000000E+00  0.00000000000E+00  0.15200742459E+04  0.15200742459E+04  0.00000000000E+00 0.  1.
         -2   -1    0    0    0  501 -0.00000000000E+00 -0.00000000000E+00 -0.13737820100E+01  0.13737820100E+01  0.00000000000E+00 0. -1.
          1    1    1    2  502    0 -0.36553955542E+02  0.87593586348E+01  0.11919583629E+04  0.11925509033E+04  0.00000000000E+00 0.  1.
         -1    1    1    2    0  501  0.36553955542E+02 -0.87593586348E+01  0.32674210093E+03  0.32889712456E+03  0.00000000000E+00 0. -1.
</event>
<event>
 4    1  0.6935156E+001  0.3434762E+02  0.7546771E-02  0.1385208E+00
          2   -1    0    0  502    0  0.00000000000E+00  0.00000000000E+00  0.15268066135E+03  0.15268066135E+03  0.00000000000E+00 0. -1.
         -2   -1    0    0    0  501 -0.00000000000E+00 -0.00000000000E+00 -0.81553037740E+01  0.81553037740E+01  0.00000000000E+00 0.  1.
          1    1    1    2  502    0  0.32491511834E+02  0.11138255008E+02  0.90692608461E+02  0.96978906445E+02  0.00000000000E+00 0. -1.
         -1    1    1    2    0  501 -0.32491511834E+02 -0.11138255008E+02  0.53832749118E+02  0.63857058682E+02  0.00000000000E+00 0.  1.
</event>
<event>
 4    1  0.6935156E+001  0.2425537E+02  0.7546771E-02  0.1477309E+00
          2   -1    0    0  502    0  0.00000000000E+00  0.00000000000E+00  0.23764389880E+01  0.23764389880E+01  0.00000000000E+00 0. -1.
         -2   -1    0    0    0  501 -0.00000000000E+00 -0.00000000000E+00 -0.34243454579E+03  0.34243454579E+03  0.00000000000E+00 0.  1.
          1    1    1    2  502    0 -0.23693339793E+02  0.51911889438E+01 -0.79283357559E+02  0.82910636103E+02  0.00000000000E+00 0. -1.
         -1    1    1    2    0  501  0.23693339793E+02 -0.51911889438E+01 -0.26077474924E+03  0.26190034867E+03  0.00000000000E+00 0.  1.
</event>
<event>
 4    1  0.6935156E+001  0.3106377E+02  0.7546771E-02  0.1410572E+00
          2   -1    0    0  502    0  0.00000000000E+00  0.00000000000E+00  0.77137239891E+03  0.77137239891E+03  0.00000000000E+00 0. -1.
         -2   -1    0    0    0  501 -0.00000000000E+00 -0.00000000000E+00 -0.12684179696E+01  0.12684179696E+01  0.00000000000E+00 0.  1.
          1    1    1    2  502    0  0.77566989197E+01 -0.30079750224E+02  0.33973246668E+03  0.34114968367E+03  0.00000000000E+00 0.  1.
         -1    1    1    2    0  501 -0.77566989197E+01  0.30079750224E+02  0.43037151426E+03  0.43149113321E+03  0.00000000000E+00 0. -1.
</event>
<event>
 4    1  0.6935156E+001  0.6751260E+02  0.7546771E-02  0.1236243E+00
          2   -1    0    0  502    0  0.00000000000E+00  0.00000000000E+00  0.71433148683E+03  0.71433148683E+03  0.00000000000E+00 0. -1.
         -2   -1    0    0    0  501 -0.00000000000E+00 -0.00000000000E+00 -0.98037054826E+01  0.98037054826E+01  0.00000000000E+00 0.  1.
          1    1    1    2  502    0  0.23089618947E+02  0.63441478716E+02  0.56620627692E+03  0.57021706372E+03  0.00000000000E+00 0. -1.
         -1    1    1    2    0  501 -0.23089618947E+02 -0.63441478716E+02  0.13832150443E+03  0.15391812860E+03  0.00000000000E+00 0.  1.
</event>
<event>
 4    1  0.6935156E+001  0.3152488E+02  0.7546771E-02  0.1406792E+00
          2   -1    0    0  502    0  0.00000000000E+00  0.00000000000E+00  0.59453817026E+03  0.59453817026E+03  0.00000000000E+00 0.  1.
         -2   -1    0    0    0  501 -0.00000000000E+00 -0.00000000000E+00 -0.17243566326E+01  0.17243566326E+01  0.00000000000E+00 0. -1.
          1    1    1    2  502    0  0.31492727807E+02 -0.14233963150E+01  0.34856429921E+03  0.34998698354E+03  0.00000000000E+00 0.  1.
         -1    1    1    2    0  501 -0.31492727807E+02  0.14233963150E+01  0.24424951442E+03  0.24627554335E+03  0.00000000000E+00 0. -1.
</event>
<event>
 4    1  0.6935156E+001  0.5986421E+02  0.7546771E-02  0.1260295E+00
          2   -1    0    0  502    0  0.00000000000E+00  0.00000000000E+00  0.14778303881E+04  0.14778303881E+04  0.00000000000E+00 0. -1.
         -2   -1    0    0    0  501 -0.00000000000E+00 -0.00000000000E+00 -0.41849309153E+01  0.41849309153E+01  0.00000000000E+00 0.  1.
          1    1    1    2  502    0 -0.28175489327E+02 -0.52819173785E+02  0.12173606265E+04  0.12188316612E+04  0.00000000000E+00 0. -1.
         -1    1    1    2    0  501  0.28175489327E+02  0.52819173785E+02  0.25628483072E+03  0.26318365788E+03  0.00000000000E+00 0.  1.
</event>
<event>
 4    1  0.6935156E+001  0.2612615E+02  0.7546771E-02  0.1456589E+00
          2   -1    0    0  502    0  0.00000000000E+00  0.00000000000E+00  0.37796847117E+03  0.37796847117E+03  0.00000000000E+00 0.  1.
         -2   -1    0    0    0  501 -0.00000000000E+00 -0.00000000000E+00 -0.39796018941E+01  0.39796018941E+01  0.00000000000E+00 0. -1.
          1    1    1    2  502    0  0.24585793165E+02  0.88382350799E+01  0.45853210231E+02  0.52773975721E+02  0.00000000000E+00 0. -1.
         -1    1    1    2    0  501 -0.24585793165E+02 -0.88382350799E+01  0.32813565904E+03  0.32917409734E+03  0.00000000000E+00 0.  1.
</event>
<event>
 4    1  0.6935156E+001  0.2449609E+02  0.7546771E-02  0.1474520E+00
          2   -1    0    0  502    0  0.00000000000E+00  0.00000000000E+00  0.67279425406E+01  0.67279425406E+01  0.00000000000E+00 0.  1.
         -2   -1    0    0    0  501 -0.00000000000E+00 -0.00000000000E+00 -0.91613247008E+02  0.91613247008E+02  0.00000000000E+00 0. -1.
          1    1    1    2  502    0 -0.21042590571E+02  0.12540655439E+02 -0.50441220103E+02  0.56074729979E+02  0.00000000000E+00 0.  1.
         -1    1    1    2    0  501  0.21042590571E+02 -0.12540655439E+02 -0.34444084365E+02  0.42266459569E+02  0.00000000000E+00 0. -1.
</event>
<event>
 4    1  0.6935156E+001  0.2518683E+02  0.7546771E-02  0.1466724E+00
          2   -1    0    0  502    0  0.00000000000E+00  0.00000000000E+00  0.94564166986E+03  0.94564166986E+03  0.00000000000E+00 0. -1.
         -2   -1    0    0    0  501 -0.00000000000E+00 -0.00000000000E+00 -0.67432890582E+00  0.67432890582E+00  0.00000000000E+00 0.  1.
          1    1    1    2  502    0  0.13804235286E+02  0.21067019279E+02  0.43845960627E+03  0.43918242513E+03  0.00000000000E+00 0. -1.
         -1    1    1    2    0  501 -0.13804235286E+02 -0.21067019279E+02  0.50650773468E+03  0.50713357364E+03  0.00000000000E+00 0.  1.
</event>
<event>
 4    1  0.6935156E+001  0.2177278E+02  0.7546771E-02  0.1508511E+00
          2   -1    0    0  502    0  0.00000000000E+00  0.00000000000E+00  0.17083997604E+02  0.17083997604E+02  0.00000000000E+00 0.  1.
         -2   -1    0    0    0  501 -0.00000000000E+00 -0.00000000000E+00 -0.43610672682E+02  0.43610672682E+02  0.00000000000E+00 0. -1.
          1    1    1    2  502    0 -0.21544976529E+02 -0.31413474677E+01  0.50389970451E+01  0.22348278877E+02  0.00000000000E+00 0.  1.
         -1    1    1    2    0  501  0.21544976529E+02  0.31413474677E+01 -0.31565672123E+02  0.38346391409E+02  0.00000000000E+00 0. -1.
</event>
<event>
 4    1  0.6935156E+001  0.2613368E+02  0.7546771E-02  0.1456510E+00
          2   -1    0    0  502    0  0.00000000000E+00  0.00000000000E+00  0.27710352060E+04  0.27710352060E+04  0.00000000000E+00 0.  1.
         -2   -1    0    0    0  501 -0.00000000000E+00 -0.00000000000E+00 -0.24736688636E+00  0.24736688636E+00  0.00000000000E+00 0. -1.
          1    1    1    2  502    0  0.19130097482E+02  0.17804735912E+02  0.14689597801E+04  0.14691922286E+04  0.00000000000E+00 0.  1.
         -1    1    1    2    0  501 -0.19130097482E+02 -0.17804735912E+02  0.13018280591E+04  0.13020903443E+04  0.00000000000E+00 0. -1.
</event>
<event>
 4    1  0.6935156E+001  0.3161916E+02  0.7546771E-02  0.1406029E+00
          2   -1    0    0  502    0  0.00000000000E+00  0.00000000000E+00  0.34301065259E+03  0.34301065259E+03  0.00000000000E+00 0. -1.
         -2   -1    0    0    0  501 -0.00000000000E+00 -0.00000000000E+00 -0.30765776467E+01  0.30765776467E+01  0.00000000000E+00 0.  1.
          1    1    1    2  502    0 -0.18629699615E+02  0.25548102947E+02  0.13027326083E+03  0.13405556221E+03  0.00000000000E+00 0.  1.
         -1    1    1    2    0  501  0.18629699615E+02 -0.25548102947E+02  0.20966081411E+03  0.21203166802E+03  0.00000000000E+00 0. -1.
</event>
<event>
 4    1  0.6935156E+001  0.2074286E+02  0.7546771E-02  0.1522968E+00
          2   -1    0    0  502    0  0.00000000000E+00  0.00000000000E+00  0.54483071320E+03  0.54483071320E+03  0.00000000000E+00 0. -1.
         -2   -1    0    0    0  501 -0.00000000000E+00 -0.00000000000E+00 -0.89537095610E+00  0.89537095610E+00  0.00000000000E+00 0.  1.
          1    1    1    2  502    0  0.62458963395E+01 -0.19780167603E+02  0.36569588620E+03  0.36628369802E+03  0.00000000000E+00 0. -1.
         -1    1    1    2    0  501 -0.62458963395E+01  0.19780167603E+02  0.17823945605E+03  0.17944238614E+03  0.00000000000E+00 0.  1.
</event>
<event>
 4    1  0.6935156E+001  0.2086765E+02  0.7546771E-02  0.1521163E+00
          2   -1    0    0  502    0  0.00000000000E+00  0.00000000000E+00  0.30780537017E+01  0.30780537017E+01  0.00000000000E+00 0.  1.
         -2   -1    0    0    0  501 -0.00000000000E+00 -0.00000000000E+00 -0.14240536016E+03  0.14240536016E+03  0.00000000000E+00 0. -1.
          1    1    1    2  502    0 -0.12722180993E+02 -0.16541004202E+02 -0.63774910512E+02  0.67102145420E+02  0.00000000000E+00 0. -1.
         -1    1    1    2    0  501  0.12722180993E+02  0.16541004202E+02 -0.75552395949E+02  0.78381268444E+02  0.00000000000E+00 0.  1.
</event>
<event>
 4    1  0.6935156E+001  0.2005643E+02  0.7546771E-02  0.1533175E+00
          2   -1    0    0  502    0  0.00000000000E+00  0.00000000000E+00  0.66967428693E+03  0.66967428693E+03  0.00000000000E+00 0. -1.
         -2   -1    0    0    0  501 -0.00000000000E+00 -0.00000000000E+00 -0.67667321992E+00  0.67667321992E+00  0.00000000000E+00 0.  1.
          1    1    1    2  502    0 -0.19763825909E+02  0.34134187049E+01  0.44682186687E+03  0.44727177527E+03  0.00000000000E+00 0. -1.
         -1    1    1    2    0  501  0.19763825909E+02 -0.34134187049E+01  0.22217574684E+03  0.22307918488E+03  0.00000000000E+00 0.  1.
</event>
<event>
 4    1  0.6935156E+001  0.2133828E+02  0.7546771E-02  0.1514490E+00
          2   -1    0    0  502    0  0.00000000000E+00  0.00000000000E+00  0.15246889758E+01  0.15246889758E+01  0.00000000000E+00 0.  1.
         -2   -1    0    0    0  501 -0.00000000000E+00 -0.00000000000E+00 -0.36414453698E+03  0.36414453698E+03  0.00000000000E+00 0. -1.
          1    1    1    2  502    0 -0.21333363850E+02 -0.45787144700E+00 -0.10376002343E+03  0.10593141423E+03  0.00000000000E+00 0. -1.
         -1    1    1    2    0  501  0.21333363850E+02  0.45787144700E+00 -0.25885982458E+03  0.25973781172E+03  0.00000000000E+00 0.  1.
</event>
<event>
 4    1  0.6935156E+001  0.3699207E+02  0.7546771E-02  0.1367075E+00
          2   -1    0    0  502    0  0.00000000000E+00  0.00000000000E+00  0.17471213940E+04  0.17471213940E+04  0.00000000000E+00 0. -1.
         -2   -1    0    0    0  501 -0.00000000000E+00 -0.00000000000E+00 -0.83189616126E+00  0.83189616126E+00  0.00000000000E+00 0.  1.
          1    1    1    2  502    0 -0.23591944985E+01  0.36916763887E+02  0.66177658835E+03  0.66280967565E+03  0.00000000000E+00 0.  1.
         -1    1    1    2    0  501  0.23591944985E+01 -0.36916763887E+02  0.10845129095E+04  0.10851436145E+04  0.00000000000E+00 0. -1.
</event>
<event>
 4    1  0.6935156E+001  0.4084153E+02  0.7546771E-02  0.1343624E+00
          2   -1    0    0  502    0  0.00000000000E+00  0.00000000000E+00  0.48724413485E+02  0.48724413485E+02  0.00000000000E+00 0.  1.
         -2   -1    0    0    0  501 -0.00000000000E+00 -0.00000000000E+00 -0.37146615880E+02  0.37146615880E+02  0.00000000000E+00 0. -1.
          1    1    1    2  502    0  0.39041842400E+02 -0.11990222515E+02  0.17811534530E+02  0.44556499596E+02  0.00000000000E+00 0.  1.
         -1    1    1    2    0  501 -0.39041842400E+02  0.11990222515E+02 -0.62337369245E+01  0.41314529769E+02  0.00000000000E+00 0. -1.
</event>
<event>
 4    1  0.6935156E+001  0.2971367E+02  0.7546771E-02  0.1422101E+00
          2   -1    0    0  502    0  0.00000000000E+00  0.00000000000E+00  0.19148889994E+02  0.19148889994E+02  0.00000000000E+00 0. -1.
         -2   -1    0    0    0  501 -0.00000000000E+00 -0.00000000000E+00 -0.20384228402E+03  0.20384228402E+03  0.00000000000E+00 0.  1.
          1    1    1    2  502    0 -0.10494272207E+02  0.27798786589E+02  0.57319912111E+01  0.30261493820E+02  0.00000000000E+00 0. -1.
         -1    1    1    2    0  501  0.10494272207E+02 -0.27798786589E+02 -0.19042538524E+03  0.19272968019E+03  0.00000000000E+00 0.  1.
</event>
<event>
 4    1  0.6935156E+001  0.2807125E+02  0.7546771E-02  0.1437134E+00
          2   -1    0    0  502    0  0.00000000000E+00  0.00000000000E+00  0.14510178555E+04  0.14510178555E+04  0.00000000000E+00 0.  1.
         -2   -1    0    0    0  501 -0.00000000000E+00 -0.00000000000E+00 -0.80828565568E+00  0.80828565568E+00  0.00000000000E+00 0. -1.
          1    1    1    2  502    0  0.49556277297E+01  0.27630364195E+02  0.11409261831E+04  0.11412714623E+04  0.00000000000E+00 0. -1.
         -1    1    1    2    0  501 -0.49556277297E+01 -0.27630364195E+02  0.30928338671E+03  0.31055467887E+03  0.00000000000E+00 0.  1.
</event>
<event>
 4    1  0.6935156E+001  0.3567983E+02  0.7546771E-02  0.1375846E+00
          2   -1    0    0  502    0  0.00000000000E+00  0.00000000000E+00  0.64496540722E+03  0.64496540722E+03  0.00000000000E+00 0.  1.
         -2   -1    0    0    0  501 -0.00000000000E+00 -0.00000000000E+00 -0.41909793109E+01  0.41909793109E+01  0.00000000000E+00 0. -1.
          1    1    1    2  502    0  0.32461205114E+02  0.14809477334E+02  0.84307160115E+02  0.91546423759E+02  0.00000000000E+00 0. -1.
         -1    1    1    2    0  501 -0.32461205114E+02 -0.14809477334E+02  0.55646726779E+03  0.55760996277E+03  0.00000000000E+00 0.  1.
</event>
<event>
 4    1  0.6935156E+001  0.2289558E+02  0.7546771E-02  0.1493814E+00
          2   -1    0    0  502    0  0.00000000000E+00  0.00000000000E+00  0.16680163120E+01  0.16680163120E+01  0.00000000000E+00 0. -1.
         -2   -1    0    0    0  501 -0.00000000000E+00 -0.00000000000E+00 -0.31537078874E+03  0.31537078874E+03  0.00000000000E+00 0.  1.
          1    1    1    2  502    0 -0.22634991306E+02  0.34445280119E+01 -0.16621642749E+03  0.16778590040E+03  0.00000000000E+00 0.  1.
         -1    1    1    2    0  501  0.22634991306E+02 -0.34445280119E+01 -0.14748634494E+03  0.14925290465E+03  0.00000000000E+00 0. -1.
</event>
<event>
 4    1  0.6935156E+001  0.2131063E+02  0.7546771E-02  0.1514876E+00
          2   -1    0    0  502    0  0.00000000000E+00  0.00000000000E+00  0.35769566290E+03  0.35769566290E+03  0.00000000000E+00 0.  1.
         -2   -1    0    0    0  501 -0.00000000000E+00 -0.00000000000E+00 -0.13484830132E+01  0.13484830132E+01  0.00000000000E+00 0. -1.
          1    1    1    2  502    0 -0.44239197118E+01 -0.20846391468E+02  0.22158352976E+03  0.22260593829E+03  0.00000000000E+00 0. -1.
         -1    1    1    2    0  501  0.44239197118E+01  0.20846391468E+02  0.13476365013E+03  0.13643820763E+03  0.00000000000E+00 0.  1.
</event>
<event>
 4    1  0.6935156E+001  0.3439894E+02  0.7546771E-02  0.1384839E+00
          2   -1    0    0  502    0  0.00000000000E+00  0.00000000000E+00  0.66559262039E+02  0.66559262039E+02  0.00000000000E+00 0.  1.
         -2   -1    0    0    0  501 -0.00000000000E+00 -0.00000000000E+00 -0.23589313296E+02  0.23589313296E+02  0.00000000000E+00 0. -1.
          1    1    1    2  502    0  0.23560128834E+01  0.34318161685E+02  0.43857260049E+02  0.55738194060E+02  0.00000000000E+00 0.  1.
         -1    1    1    2    0  501 -0.23560128834E+01 -0.34318161685E+02 -0.88731130559E+00  0.34410381275E+02  0.00000000000E+00 0. -1.
</event>
<event>
 4    1  0.6935156E+001  0.3108761E+02  0.7546771E-02  0.1410375E+00
          2   -1    0    0  502    0  0.00000000000E+00  0.00000000000E+00  0.17489631725E+03  0.17489631725E+03  0.00000000000E+00 0. -1.
         -2   -1    0    0    0  501 -0.00000000000E+00 -0.00000000000E+00 -0.55392002660E+01  0.55392002660E+01  0.00000000000E+00 0.  1.
          1    1    1    2  502    0  0.93793384059E+01  0.29638953982E+02  0.80238838402E+02  0.86050629110E+02  0.00000000000E+00 0.  1.
         -1    1    1    2    0  501 -0.93793384059E+01 -0.29638953982E+02  0.89118278584E+02  0.94384888408E+02  0.00000000000E+00 0. -1.
</event>
<event>
 4    1  0.6935156E+001  0.3109537E+02  0.7546771E-02  0.1410310E+00
          2   -1    0    0  502    0  0.00000000000E+00  0.00000000000E+00  0.80964024290E+03  0.80964024290E+03  0.00000000000E+00 0.  1.
         -2   -1    0    0    0  501 -0.00000000000E+00 -0.00000000000E+00 -0.31824016566E+01  0.31824016566E+01  0.00000000000E+00 0. -1.
          1    1    1    2  502    0  0.27439947073E+02 -0.14627768515E+02  0.82002112104E+02  0.87699878543E+02  0.00000000000E+00 0. -1.
         -1    1    1    2    0  501 -0.27439947073E+02  0.14627768515E+02  0.72445572914E+03  0.72512276601E+03  0.00000000000E+00 0.  1.
</event>
<event>
 4    1  0.6935156E+001  0.2855510E+02  0.7546771E-02  0.1432583E+00
          2   -1    0    0  502    0  0.00000000000E+00  0.00000000000E+00  0.17497857657E+04  0.17497857657E+04  0.00000000000E+00 0. -1.
         -2   -1    0    0    0  501 -0.00000000000E+00 -0.00000000000E+00 -0.46806292382E+00  0.46806292382E+00  0.00000000000E+00 0.  1.
          1    1    1    2  502    0  0.22428210388E+00  0.28554220444E+02  0.93280791524E+03  0.93324487705E+03  0.00000000000E+00 0.  1.
         -1    1    1    2    0  501 -0.22428210388E+00 -0.28554220444E+02  0.81650978750E+03  0.81700895153E+03  0.00000000000E+00 0. -1.
</event>
<event>
 4    1  0.6935156E+001  0.2005026E+02  0.7546771E-02  0.1533269E+00
          2   -1    0    0  502    0  0.00000000000E+00  0.00000000000E+00  0.75386873989E+02  0.75386873989E+02  0.00000000000E+00 0. -1.
         -2   -1    0    0    0  501 -0.00000000000E+00 -0.00000000000E+00 -0.24891209812E+02  0.24891209812E+02  0.00000000000E+00 0.  1.
          1    1    1    2  502    0  0.19590506518E+02 -0.42690952142E+01  0.69692664399E+02  0.72519518688E+02  0.00000000000E+00 0. -1.
         -1    1    1    2    0  501 -0.19590506518E+02  0.42690952142E+01 -0.19197000222E+02  0.27758565113E+02  0.00000000000E+00 0.  1.
</event>
<event>
 4    1  0.6935156E+001  0.2264454E+02  0.7546771E-02  0.1497011E+00
          2   -1    0    0  502    0  0.00000000000E+00  0.00000000000E+00  0.35648286333E+02  0.35648286333E+02  0.00000000000E+00 0.  1.
         -2   -1    0    0    0  501 -0.00000000000E+00 -0.00000000000E+00 -0.17554250963E+02  0.17554250963E+02  0.00000000000E+00 0. -1.
          1    1    1    2  502    0 -0.30963586613E+01  0.22431851123E+02 -0.22571339825E+01  0.22756758020E+02  0.00000000000E+00 0. -1.
         -1    1    1    2    0  501  0.30963586613E+01 -0.22431851123E+02  0.20351169353E+02  0.30445779277E+02  0.00000000000E+00 0.  1.
</event>
<event>
 4    1  0.6935156E+001  0.2164430E+02  0.7546771E-02  0.1510261E+00
          2   -1    0    0  502    0  0.00000000000E+00  0.00000000000E+00  0.45649286096E+03  0.45649286096E+03  0.00000000000E+00 0. -1.
         -2   -1    0    0    0  501 -0.00000000000E+00 -0.00000000000E+00 -0.10510914692E+01  0.10510914692E+01  0.00000000000E+00 0.  1.
          1    1    1    2  502    0 -0.17794236497E+02  0.12322380129E+02  0.26289062639E+03  0.26378013070E+03  0.00000000000E+00 0. -1.
         -1    1    1    2    0  501  0.17794236497E+02 -0.12322380129E+02  0.19255114310E+03  0.19376382173E+03  0.00000000000E+00 0.  1.
</event>
<event>
 4    1  0.6935156E+001  0.5634487E+02  0.7546771E-02  0.1272784E+00
          2   -1    0    0  502    0  0.00000000000E+00  0.00000000000E+00  0.57298112559E+02  0.57298112559E+02  0.00000000000E+00 0. -1.
         -2   -1    0    0    0  501 -0.00000000000E+00 -0.00000000000E+00 -0.59771912228E+02  0.59771912228E+02  0.00000000000E+00 0.  1.
          1    1    1    2  502    0 -0.51196546767E+02 -0.23529929777E+02 -0.17054152139E+02  0.58869245802E+02  0.00000000000E+00 0. -1.
         -1    1    1    2    0  501  0.51196546767E+02  0.23529929777E+02  0.14580352470E+02  0.58200778984E+02  0.00000000000E+00 0.  1.
</event>
<event>
 4    1  0.6935156E+001  0.2633599E+02  0.7546771E-02  0.1454395E+00
          2   -1    0    0  502    0  0.00000000000E+00  0.00000000000E+00  0.46919367095E+03  0.46919367095E+03  0.00000000000E+00 0.  1.
         -2   -1    0    0    0  501 -0.00000000000E+00 -0.00000000000E+00 -0.20654122965E+01  0.20654122965E+01  0.00000000000E+00 0. -1.
          1    1    1    2  502    0 -0.26211389398E+02  0.25587534645E+01  0.10793031785E+03  0.11109697415E+03  0.00000000000E+00 0. -1.
         -1    1    1    2    0  501  0.26211389398E+02 -0.25587534645E+01  0.35919794080E+03  0.36016210910E+03  0.00000000000E+00 0.  1.
</event>
<event>
 4    1  0.6935156E+001  0.2119947E+02  0.7546771E-02  0.1516436E+00
          2   -1    0    0  502    0  0.00000000000E+00  0.00000000000E+00  0.45022886824E+03  0.45022886824E+03  0.00000000000E+00 0. -1.
         -2   -1    0    0    0  501 -0.00000000000E+00 -0.00000000000E+00 -0.10874842836E+01  0.10874842836E+01  0.00000000000E+00 0.  1.
          1    1    1    2  502    0 -0.77070963644E+01  0.19748880209E+02  0.15991128861E+03  0.16131037731E+03  0.00000000000E+00 0. -1.
         -1    1    1    2    0  501  0.77070963644E+01 -0.19748880209E+02  0.28923009535E+03  0.29000597521E+03  0.00000000000E+00 0.  1.
</event>
<event>
 4    1  0.6935156E+001  0.6876371E+02  0.7546771E-02  0.1232650E+00
          2   -1    0    0  502    0  0.00000000000E+00  0.00000000000E+00  0.12371183971E+03  0.12371183971E+03  0.00000000000E+00 0.  1.
         -2   -1    0    0    0  501 -0.00000000000E+00 -0.00000000000E+00 -0.52115403606E+02  0.52115403606E+02  0.00000000000E+00 0. -1.
          1    1    1    2  502    0  0.27617850034E+02  0.62973824789E+02  0.81190889607E+02  0.10639740976E+03  0.00000000000E+00 0.  1.
         -1    1    1    2    0  501 -0.27617850034E+02 -0.62973824789E+02 -0.95944535046E+01  0.69429833552E+02  0.00000000000E+00 0. -1.
</event>
<event>
 4    1  0.6935156E+001  0.2974677E+02  0.7546771E-02  0.1421810E+00
          2   -1    0    0  502    0  0.00000000000E+00  0.00000000000E+00  0.10979471041E+01  0.10979471041E+01  0.00000000000E+00 0.  1.
         -2   -1    0    0    0  501 -0.00000000000E+00 -0.00000000000E+00 -0.10043259493E+04  0.10043259493E+04  0.00000000000E+00 0. -1.
          1    1    1    2  502    0 -0.34757577506E+01 -0.29543010005E+02 -0.72504655473E+03  0.72565651438E+03  0.00000000000E+00 0. -1.
         -1    1    1    2    0  501  0.34757577506E+01  0.29543010005E+02 -0.27818144748E+03  0.27976738204E+03  0.00000000000E+00 0.  1.
</event>
<event>
 4    1  0.6935156E+001  0.3958737E+02  0.7546771E-02  0.1350921E+00
          2   -1    0    0  502    0  0.00000000000E+00  0.00000000000E+00  0.14744351076E+03  0.14744351076E+03  0.00000000000E+00 0.  1.
         -2   -1    0    0    0  501 -0.00000000000E+00 -0.00000000000E+00 -0.60739637335E+02  0.60739637335E+02  0.00000000000E+00 0. -1.
          1    1    1    2  502    0 -0.28371795519E+02  0.27607983722E+02  0.13789832800E+03  0.14346814424E+03  0.00000000000E+00 0.  1.
         -1    1    1    2    0  501  0.28371795519E+02 -0.27607983722E+02 -0.51194454570E+02  0.64715003862E+02  0.00000000000E+00 0. -1.
</event>
<event>
 4    1  0.6935156E+001  0.2304878E+02  0.7546771E-02  0.1491887E+00
          2   -1    0    0  502    0  0.00000000000E+00  0.00000000000E+00  0.12055504108E+02  0.12055504108E+02  0.00000000000E+00 0. -1.
         -2   -1    0    0    0  501 -0.00000000000E+00 -0.00000000000E+00 -0.11591390876E+03  0.11591390876E+03  0.00000000000E+00 0.  1.
          1    1    1    2  502    0 -0.14679522970E+02 -0.17769570861E+02 -0.15543928510E+01  0.23101129418E+02  0.00000000000E+00 0. -1.
         -1    1    1    2    0  501  0.14679522970E+02  0.17769570861E+02 -0.10230401180E+03  0.10486828345E+03  0.00000000000E+00 0.  1.
</event>
<event>
 4    1  0.6935156E+001  0.2176575E+02  0.7546771E-02  0.1508607E+00
          2   -1    0    0  502    0  0.00000000000E+00  0.00000000000E+00  0.99095232937E+00  0.99095232937E+00  0.00000000000E+00 0.  1.
         -2   -1    0    0    0  501 -0.00000000000E+00 -0.00000000000E+00 -0.56251451314E+03  0.56251451314E+03  0.00000000000E+00 0. -1.
          1    1    1    2  502    0 -0.21691893211E+02 -0.17916015110E+01 -0.17159815752E+03  0.17297304915E+03  0.00000000000E+00 0.  1.
         -1    1    1    2    0  501  0.21691893211E+02  0.17916015110E+01 -0.38992540329E+03  0.39053241632E+03  0.00000000000E+00 0. -1.
</event>
<event>
 4    1  0.6935156E+001  0.2757398E+02  0.7546771E-02  0.1441926E+00
          2   -1    0    0  502    0  0.00000000000E+00  0.00000000000E+00  0.86882807520E+02  0.86882807520E+02  0.00000000000E+00 0.  1.
         -2   -1    0    0    0  501 -0.00000000000E+00 -0.00000000000E+00 -0.30904450501E+02  0.30904450501E+02  0.00000000000E+00 0. -1.
          1    1    1    2  502    0 -0.73596930411E+01 -0.26573659289E+02 -0.21873663263E+02  0.35196329272E+02  0.00000000000E+00 0.  1.
         -1    1    1    2    0  501  0.73596930411E+01  0.26573659289E+02  0.77852020282E+02  0.82590928749E+02  0.00000000000E+00 0. -1.
</event>
<event>
 4    1  0.6935156E+001  0.2541768E+02  0.7546771E-02  0.1464185E+00
          2   -1    0    0  502    0  0.00000000000E+00  0.00000000000E+00  0.34203163232E+02  0.34203163232E+02  0.00000000000E+00 0.  1.
         -2   -1    0    0    0  501 -0.00000000000E+00 -0.00000000000E+00 -0.22264582233E+02  0.22264582233E+02  0.00000000000E+00 0. -1.
          1    1    1    2  502    0 -0.11512614443E+02 -0.22660938312E+02 -0.50244929697E+01  0.25909533885E+02  0.00000000000E+00 0. -1.
         -1    1    1    2    0  501  0.11512614443E+02  0.22660938312E+02  0.16963073969E+02  0.30558211581E+02  0.00000000000E+00 0.  1.
</event>
<event>
 4    1  0.6935156E+001  0.2007123E+02  0.7546771E-02  0.1532950E+00
          2   -1    0    0  502    0  0.00000000000E+00  0.00000000000E+00  0.74851047000E+03  0.74851047000E+03  0.00000000000E+00 0.  1.
         -2   -1    0    0    0  501 -0.00000000000E+00 -0.00000000000E+00 -0.60641577368E+00  0.60641577368E+00  0.00000000000E+00 0. -1.
          1    1    1    2  502    0  0.12650243288E+02  0.15582862135E+02  0.49956994895E+03  0.49997298742E+03  0.00000000000E+00 0.  1.
         -1    1    1    2    0  501 -0.12650243288E+02 -0.15582862135E+02  0.24833410527E+03  0.24914389836E+03  0.00000000000E+00 0. -1.
</event>
<event>
 4    1  0.6935156E+001  0.3286484E+02  0.7546771E-02  0.1396229E+00
          2   -1    0    0  502    0  0.00000000000E+00  0.00000000000E+00  0.12615224310E+02  0.12615224310E+02  0.00000000000E+00 0. -1.
         -2   -1    0    0    0  501 -0.00000000000E+00 -0.00000000000E+00 -0.85634405029E+02  0.85634405029E+02  0.00000000000E+00 0.  1.
          1    1    1    2  502    0 -0.55738504250E+01 -0.32388733006E+02 -0.35842192023E+02  0.48628803844E+02  0.00000000000E+00 0.  1.
         -1    1    1    2    0  501  0.55738504250E+01  0.32388733006E+02 -0.37176988696E+02  0.49620825495E+02  0.00000000000E+00 0. -1.
</event>
<event>
 4    1  0.6935156E+001  0.2522637E+02  0.7546771E-02  0.1466287E+00
          2   -1    0    0  502    0  0.00000000000E+00  0.00000000000E+00  0.49377886709E+01  0.49377886709E+01  0.00000000000E+00 0.  1.
         -2   -1    0    0    0  501 -0.00000000000E+00 -0.00000000000E+00 -0.15186687070E+03  0.15186687070E+03  0.00000000000E+00 0. -1.
          1    1    1    2  502    0 -0.23723547164E+02  0.85768829239E+01 -0.42960212952E+02  0.49819168074E+02  0.00000000000E+00 0.  1.
         -1    1    1    2    0  501  0.23723547164E+02 -0.85768829239E+01 -0.10396886907E+03  0.10698549129E+03  0.00000000000E+00 0. -1.
</event>
<event>
 4    1  0.6935156E+001  0.3937527E+02  0.7546771E-02  0.1352186E+00
          2   -1    0    0  502    0  0.00000000000E+00  0.00000000000E+00  0.15117275571E+02  0.15117275571E+02  0.00000000000E+00 0. -1.
         -2   -1    0    0    0  501 -0.00000000000E+00 -0.00000000000E+00 -0.10537508690E+03  0.10537508690E+03  0.00000000000E+00 0.  1.
          1    1    1    2  502    0  0.22800762134E+02 -0.32101974156E+02 -0.35279964843E+02  0.52868586305E+02  0.00000000000E+00 0.  1.
         -1    1    1    2    0  501 -0.22800762134E+02  0.32101974156E+02 -0.54977846483E+02  0.67623776163E+02  0.00000000000E+00 0. -1.
</event>
<event>
 4    1  0.6935156E+001  0.2899120E+02  0.7546771E-02  0.1428570E+00
          2   -1    0    0  502    0  0.00000000000E+00  0.00000000000E+00  0.96667611699E+03  0.96667611699E+03  0.00000000000E+00 0. -1.
         -2   -1    0    0    0  501 -0.00000000000E+00 -0.00000000000E+00 -0.13911626978E+01  0.13911626978E+01  0.00000000000E+00 0.  1.
          1    1    1    2  502    0  0.25600827526E+02  0.13604669745E+02  0.18622981599E+03  0.18847289931E+03  0.00000000000E+00 0.  1.
         -1    1    1    2    0  501 -0.25600827526E+02 -0.13604669745E+02  0.77905513830E+03  0.77959438038E+03  0.00000000000E+00 0. -1.
</event>
<event>
 4    1  0.6935156E+001  0.3639120E+02  0.7546771E-02  0.1371038E+00
          2   -1    0    0  502    0  0.00000000000E+00  0.00000000000E+00  0.22809703669E+03  0.22809703669E+03  0.00000000000E+00 0.  1.
         -2   -1    0    0    0  501 -0.00000000000E+00 -0.00000000000E+00 -0.59484283248E+01  0.59484283248E+01  0.00000000000E+00 0. -1.
          1    1    1    2  502    0  0.14211922124E+02 -0.33501354774E+02  0.12918548552E+03  0.13421329730E+03  0.00000000000E+00 0.  1.
         -1    1    1    2    0  501 -0.14211922124E+02  0.33501354774E+02  0.92963122842E+02  0.99832167716E+02  0.00000000000E+00 0. -1.
</event>
<event>
 4    1  0.6935156E+001  0.2349046E+02  0.7546771E-02  0.1486430E+00
          2   -1    0    0  502    0  0.00000000000E+00  0.00000000000E+00  0.20021416987E+03  0.20021416987E+03  0.00000000000E+00 0.  1.
         -2   -1    0    0    0  501 -0.00000000000E+00 -0.00000000000E+00 -0.33745672840E+01  0.33745672840E+01  0.00000000000E+00 0. -1.
          1    1    1    2  502    0  0.10166511523E+02  0.21176495178E+02  0.54839748875E+02  0.59659030844E+02  0.00000000000E+00 0. -1.
         -1    1    1    2    0  501 -0.10166511523E+02 -0.21176495178E+02  0.14199985371E+03  0.14392970631E+03  0.00000000000E+00 0.  1.
</event>
<event>
 4    1  0.6935156E+001  0.3663901E+02  0.7546771E-02  0.1369393E+00
          2   -1    0    0  502    0  0.00000000000E+00  0.00000000000E+00  0.28987133749E+01  0.28987133749E+01  0.00000000000E+00 0. -1.
         -2   -1    0    0    0  501 -0.00000000000E+00 -0.00000000000E+00 -0.46597376454E+03  0.46597376454E+03  0.00000000000E+00 0.  1.
          1    1    1    2  502    0 -0.27761590307E+02 -0.23910486667E+02 -0.24992264586E+03  0.25259403434E+03  0.00000000000E+00 0. -1.
         -1    1    1    2    0  501  0.27761590307E+02  0.23910486667E+02 -0.21315240530E+03  0.21627844357E+03  0.00000000000E+00 0.  1.
</event>
<event>
 4    1  0.6935156E+001  0.2340440E+02  0.7546771E-02  0.1487482E+00
          2   -1    0    0  502    0  0.00000000000E+00  0.00000000000E+00  0.20403236523E+04  0.20403236523E+04  0.00000000000E+00 0.  1.
         -2   -1    0    0    0  501 -0.00000000000E+00 -0.00000000000E+00 -0.31972588761E+00  0.31972588761E+00  0.00000000000E+00 0. -1.
          1    1    1    2  502    0 -0.26033182447E+01  0.23259162220E+02  0.14285279403E+04  0.14287196513E+04  0.00000000000E+00 0.  1.
         -1    1    1    2    0  501  0.26033182447E+01 -0.23259162220E+02  0.61147598612E+03  0.61192372686E+03  0.00000000000E+00 0. -1.
</event>
<event>
 4    1  0.6935156E+001  0.2164044E+02  0.7546771E-02  0.1510314E+00
          2   -1    0    0  502    0  0.00000000000E+00  0.00000000000E+00  0.63237251079E+03  0.63237251079E+03  0.00000000000E+00 0.  1.
         -2   -1    0    0    0  501 -0.00000000000E+00 -0.00000000000E+00 -0.10732137662E+01  0.10732137662E+01  0.00000000000E+00 0. -1.
          1    1    1    2  502    0  0.21637995979E+02  0.32542370330E+00  0.13931666029E+03  0.14098737747E+03  0.00000000000E+00 0. -1.
         -1    1    1    2    0  501 -0.21637995979E+02 -0.32542370330E+00  0.49198263673E+03  0.49245834709E+03  0.00000000000E+00 0.  1.
</event>
<event>
 4    1  0.6935156E+001  0.2276824E+02  0.7546771E-02  0.1495429E+00
          2   -1    0    0  502    0  0.00000000000E+00  0.00000000000E+00  0.19517397103E+01  0.19517397103E+01  0.00000000000E+00 0. -1.
         -2   -1    0    0    0  501 -0.00000000000E+00 -0.00000000000E+00 -0.26595657741E+03  0.26595657741E+03  0.00000000000E+00 0.  1.
          1    1    1    2  502    0  0.84753164402E+01 -0.21132011087E+02 -0.13686903407E+03  0.13874986620E+03  0.00000000000E+00 0.  1.
         -1    1    1    2    0  501 -0.84753164402E+01  0.21132011087E+02 -0.12713580363E+03  0.12915845093E+03  0.00000000000E+00 0. -1.
</event>
<event>
 4    1  0.6935156E+001  0.2440321E+02  0.7546771E-02  0.1475592E+00
          2   -1    0    0  502    0  0.00000000000E+00  0.00000000000E+00  0.31020928153E+02  0.31020928153E+02  0.00000000000E+00 0.  1.
         -2   -1    0    0    0  501 -0.00000000000E+00 -0.00000000000E+00 -0.25339625252E+02  0.25339625252E+02  0.00000000000E+00 0. -1.
          1    1    1    2  502    0  0.24345532489E+02  0.16767444339E+01 -0.11033723694E+02  0.26781700517E+02  0.00000000000E+00 0. -1.
         -1    1    1    2    0  501 -0.24345532489E+02 -0.16767444339E+01  0.16715026595E+02  0.29578852887E+02  0.00000000000E+00 0.  1.
</event>
<event>
 4    1  0.6935156E+001  0.5027826E+02  0.7546771E-02  0.1296970E+00
          2   -1    0    0  502    0  0.00000000000E+00  0.00000000000E+00  0.20915187928E+02  0.20915187928E+02  0.00000000000E+00 0.  1.
         -2   -1    0    0    0  501 -0.00000000000E+00 -0.00000000000E+00 -0.12086582933E+03  0.12086582933E+03  0.00000000000E+00 0. -1.
          1    1    1    2  502    0  0.58312348522E-01  0.50278226889E+02 -0.50211398870E+02  0.71056935453E+02  0.00000000000E+00 0. -1.
         -1    1    1    2    0  501 -0.58312348522E-01 -0.50278226889E+02 -0.49739242534E+02  0.70724081806E+02  0.00000000000E+00 0.  1.
</event>
<event>
 4    1  0.6935156E+001  0.2111116E+02  0.7546771E-02  0.1517684E+00
          2   -1    0    0  502    0  0.00000000000E+00  0.00000000000E+00  0.87200070211E+02  0.87200070211E+02  0.00000000000E+00 0. -1.
         -2   -1    0    0    0  501 -0.00000000000E+00 -0.00000000000E+00 -0.67634075107E+01  0.67634075107E+01  0.00000000000E+00 0.  1.
          1    1    1    2  502    0 -0.82300523160E+01  0.19440867741E+02  0.16996173809E+02  0.27102601790E+02  0.00000000000E+00 0.  1.
         -1    1    1    2    0  501  0.82300523160E+01 -0.19440867741E+02  0.63440488891E+02  0.66860875932E+02  0.00000000000E+00 0. -1.
</event>
<event>
 4    1  0.6935156E+001  0.3869581E+02  0.7546771E-02  0.1356303E+00
          2   -1    0    0  502    0  0.00000000000E+00  0.00000000000E+00  0.23339492184E+02  0.23339492184E+02  0.00000000000E+00 0.  1.
         -2   -1    0    0    0  501 -0.00000000000E+00 -0.00000000000E+00 -0.64406472600E+02  0.64406472600E+02  0.00000000000E+00 0. -1.
          1    1    1    2  502    0  0.51403996049E+01 -0.38352860849E+02 -0.23270126810E+02  0.45153786609E+02  0.00000000000E+00 0. -1.
         -1    1    1    2    0  501 -0.51403996049E+01  0.38352860849E+02 -0.17796853606E+02  0.42592178175E+02  0.00000000000E+00 0.  1.
</event>
<event>
 4    1  0.6935156E+001  0.2163821E+02  0.7546771E-02  0.1510345E+00
          2   -1    0    0  502    0  0.00000000000E+00  0.00000000000E+00  0.23816169646E+04  0.23816169646E+04  0.00000000000E+00 0. -1.
         -2   -1    0    0    0  501 -0.00000000000E+00 -0.00000000000E+00 -0.19792949960E+00  0.19792949960E+00  0.00000000000E+00 0.  1.
          1    1    1    2  502    0 -0.17050698095E+02  0.13322388675E+02  0.12885219596E+04  0.12887036326E+04  0.00000000000E+00 0.  1.
         -1    1    1    2    0  501  0.17050698095E+02 -0.13322388675E+02  0.10928970755E+04  0.10931112615E+04  0.00000000000E+00 0. -1.
</event>
<event>
 4    1  0.6935156E+001  0.6676693E+02  0.7546771E-02  0.1238426E+00
          2   -1    0    0  502    0  0.00000000000E+00  0.00000000000E+00  0.20648280446E+02  0.20648280446E+02  0.00000000000E+00 0. -1.
         -2   -1    0    0    0  501 -0.00000000000E+00 -0.00000000000E+00 -0.22794320371E+03  0.22794320371E+03  0.00000000000E+00 0.  1.
          1    1    1    2  502    0  0.64507232663E+02 -0.17223229882E+02 -0.75069117291E+02  0.10046489479E+03  0.00000000000E+00 0.  1.
         -1    1    1    2    0  501 -0.64507232663E+02  0.17223229882E+02 -0.13222580597E+03  0.14812658937E+03  0.00000000000E+00 0. -1.
</event>
<event>
 4    1  0.6935156E+001  0.2142702E+02  0.7546771E-02  0.1513255E+00
          2   -1    0    0  502    0  0.00000000000E+00  0.00000000000E+00  0.49219953982E+03  0.49219953982E+03  0.00000000000E+00 0. -1.
         -2   -1    0    0    0  501 -0.00000000000E+00 -0.00000000000E+00 -0.13403470752E+01  0.13403470752E+01  0.00000000000E+00 0.  1.
          1    1    1    2  502    0  0.17892809305E+02  0.11788318480E+02  0.38150502742E+03  0.38210627190E+03  0.00000000000E+00 0. -1.
         -1    1    1    2    0  501 -0.17892809305E+02 -0.11788318480E+02  0.10935416533E+03  0.11143361500E+03  0.00000000000E+00 0.  1.
</event>
<event>
 4    1  0.6935156E+001  0.2149287E+02  0.7546771E-02  0.1512343E+00
          2   -1    0    0  502    0  0.00000000000E+00  0.00000000000E+00  0.69924257116E+02  0.69924257116E+02  0.00000000000E+00 0.  1.
         -2   -1    0    0    0  501 -0.00000000000E+00 -0.00000000000E+00 -0.75786852639E+01  0.75786852639E+01  0.00000000000E+00 0. -1.
          1    1    1    2  502    0 -0.76407803583E+01  0.20088850801E+02  0.17292404466E+02  0.27585697439E+02  0.00000000000E+00 0. -1.
         -1    1    1    2    0  501  0.76407803583E+01 -0.20088850801E+02  0.45053167387E+02  0.49917244942E+02  0.00000000000E+00 0.  1.
</event>
<event>
 4    1  0.6935156E+001  0.2307550E+02  0.7546771E-02  0.1491552E+00
          2   -1    0    0  502    0  0.00000000000E+00  0.00000000000E+00  0.42163103577E+02  0.42163103577E+02  0.00000000000E+00 0.  1.
         -2   -1    0    0    0  501 -0.00000000000E+00 -0.00000000000E+00 -0.14789053015E+02  0.14789053015E+02  0.00000000000E+00 0. -1.
          1    1    1    2  502    0  0.34231609777E+00  0.23072962536E+02  0.28042428581E+01  0.23245269594E+02  0.00000000000E+00 0. -1.
         -1    1    1    2    0  501 -0.34231609777E+00 -0.23072962536E+02  0.24569807704E+02  0.33706886998E+02  0.00000000000E+00 0.  1.
</event>
<event>
 4    1  0.6935156E+001  0.6056984E+02  0.7546771E-02  0.1257909E+00
          2   -1    0    0  502    0  0.00000000000E+00  0.00000000000E+00  0.37377328269E+04  0.37377328269E+04  0.00000000000E+00 0.  1.
         -2   -1    0    0    0  501 -0.00000000000E+00 -0.00000000000E+00 -0.98279836110E+00  0.98279836110E+00  0.00000000000E+00 0. -1.
          1    1    1    2  502    0  0.39530783153E+01  0.60440706634E+02  0.19354671435E+04  0.19364146688E+04  0.00000000000E+00 0. -1.
         -1    1    1    2    0  501 -0.39530783153E+01 -0.60440706634E+02  0.18012828850E+04  0.18023009565E+04  0.00000000000E+00 0.  1.
</event>
<event>
 4    1  0.6935156E+001  0.2430800E+02  0.7546771E-02  0.1476696E+00
          2   -1    0    0  502    0  0.00000000000E+00  0.00000000000E+00  0.11370812422E+01  0.11370812422E+01  0.00000000000E+00 0.  1.
         -2   -1    0    0    0  501 -0.00000000000E+00 -0.00000000000E+00 -0.68314405009E+03  0.68314405009E+03  0.00000000000E+00 0. -1.
          1    1    1    2  502    0 -0.10087551884E+01 -0.24287058914E+02 -0.50838433316E+03  0.50896513537E+03  0.00000000000E+00 0. -1.
         -1    1    1    2    0  501  0.10087551884E+01  0.24287058914E+02 -0.17362263569E+03  0.17531599596E+03  0.00000000000E+00 0.  1.
</event>
<event>
 4    1  0.6935156E+001  0.2705767E+02  0.7546771E-02  0.1447030E+00
          2   -1    0    0  502    0  0.00000000000E+00  0.00000000000E+00  0.16550398630E+02  0.16550398630E+02  0.00000000000E+00 0.  1.
         -2   -1    0    0    0  501 -0.00000000000E+00 -0.00000000000E+00 -0.62041944885E+02  0.62041944885E+02  0.00000000000E+00 0. -1.
          1    1    1    2  502    0  0.20812962822E+02  0.17289832425E+02 -0.43797816651E+02  0.51481710054E+02  0.00000000000E+00 0. -1.
         -1    1    1    2    0  501 -0.20812962822E+02 -0.17289832425E+02 -0.16937296034E+01  0.27110633461E+02  0.00000000000E+00 0.  1.
</event>
<event>
 4    1  0.6935156E+001  0.3386557E+02  0.7546771E-02  0.1388719E+00
          2   -1    0    0  502    0  0.00000000000E+00  0.00000000000E+00  0.18574421389E+02  0.18574421389E+02  0.00000000000E+00 0. -1.
         -2   -1    0    0    0  501 -0.00000000000E+00 -0.00000000000E+00 -0.61939735991E+02  0.61939735991E+02  0.00000000000E+00 0.  1.
          1    1    1    2  502    0  0.19836757283E+02  0.27447764849E+02 -0.23940197831E+02  0.41473000939E+02  0.00000000000E+00 0.  1.
         -1    1    1    2    0  501 -0.19836757283E+02 -0.27447764849E+02 -0.19425116770E+02  0.39041156441E+02  0.00000000000E+00 0. -1.
</event>
<event>
 4    1  0.6935156E+001  0.2381843E+02  0.7546771E-02  0.1482469E+00
          2   -1    0    0  502    0  0.00000000000E+00  0.00000000000E+00  0.33090025072E+04  0.33090025072E+04  0.00000000000E+00 0. -1.
         -2   -1    0    0    0  501 -0.00000000000E+00 -0.00000000000E+00 -0.17165303721E+00  0.17165303721E+00  0.00000000000E+00 0.  1.
          1    1    1    2  502    0 -0.12758971171E+02  0.20112843819E+02  0.15970610934E+04  0.15972386966E+04  0.00000000000E+00 0. -1.
         -1    1    1    2    0  501  0.12758971171E+02 -0.20112843819E+02  0.17117697608E+04  0.17119354637E+04  0.00000000000E+00 0.  1.
</event>
<event>
 4    1  0.6935156E+001  0.3104264E+02  0.7546771E-02  0.1410747E+00
          2   -1    0    0  502    0  0.00000000000E+00  0.00000000000E+00  0.44371877189E+02  0.44371877189E+02  0.00000000000E+00 0. -1.
         -2   -1    0    0    0  501 -0.00000000000E+00 -0.00000000000E+00 -0.23274458807E+02  0.23274458807E+02  0.00000000000E+00 0.  1.
          1    1    1    2  502    0  0.22954639908E+02  0.20898091661E+02  0.18005905268E+01  0.31094820382E+02  0.00000000000E+00 0. -1.
         -1    1    1    2    0  501 -0.22954639908E+02 -0.20898091661E+02  0.19296827856E+02  0.36551515613E+02  0.00000000000E+00 0.  1.
</event>
<event>
 4    1  0.6935156E+001  0.2213255E+02  0.7546771E-02  0.1503688E+00
          2   -1    0    0  502    0  0.00000000000E+00  0.00000000000E+00  0.63182298437E+02  0.63182298437E+02  0.00000000000E+00 0. -1.
         -2   -1    0    0    0  501 -0.00000000000E+00 -0.00000000000E+00 -0.19100810479E+02  0.19100810479E+02  0.00000000000E+00 0.  1.
          1    1    1    2  502    0  0.35295639613E+01 -0.21849295953E+02  0.53751871589E+02  0.58130140674E+02  0.00000000000E+00 0. -1.
         -1    1    1    2    0  501 -0.35295639613E+01  0.21849295953E+02 -0.96703836313E+01  0.24152968243E+02  0.00000000000E+00 0.  1.
</event>
<event>
 4    1  0.6935156E+001  0.2135197E+02  0.7546771E-02  0.1514299E+00
          2   -1    0    0  502    0  0.00000000000E+00  0.00000000000E+00  0.83163494379E+03  0.83163494379E+03  0.00000000000E+00 0.  1.
         -2   -1    0    0    0  501 -0.00000000000E+00 -0.00000000000E+00 -0.15380193843E+01  0.15380193843E+01  0.00000000000E+00 0. -1.
          1    1    1    2  502    0  0.20602594082E+02 -0.56071035311E+01  0.74924437426E+03  0.74954855670E+03  0.00000000000E+00 0.  1.
         -1    1    1    2    0  501 -0.20602594082E+02  0.56071035311E+01  0.80852550149E+02  0.83624406476E+02  0.00000000000E+00 0. -1.
</event>
<event>
 4    1  0.6935156E+001  0.2204694E+02  0.7546771E-02  0.1504826E+00
          2   -1    0    0  502    0  0.00000000000E+00  0.00000000000E+00  0.87015640967E+01  0.87015640967E+01  0.00000000000E+00 0. -1.
         -2   -1    0    0    0  501 -0.00000000000E+00 -0.00000000000E+00 -0.57220951946E+02  0.57220951946E+02  0.00000000000E+00 0.  1.
          1    1    1    2  502    0  0.21824524833E+02 -0.31236985075E+01 -0.19175943839E+02  0.29219585874E+02  0.00000000000E+00 0. -1.
         -1    1    1    2    0  501 -0.21824524833E+02  0.31236985075E+01 -0.29343444010E+02  0.36702930168E+02  0.00000000000E+00 0.  1.
</event>
<event>
 4    1  0.6935156E+001  0.2071189E+02  0.7546771E-02  0.1523418E+00
          2   -1    0    0  502    0  0.00000000000E+00  0.00000000000E+00  0.20864136747E+04  0.20864136747E+04  0.00000000000E+00 0. -1.
         -2   -1    0    0    0  501 -0.00000000000E+00 -0.00000000000E+00 -0.22481940798E+00  0.22481940798E+00  0.00000000000E+00 0.  1.
          1    1    1    2  502    0 -0.18102123312E+02 -0.10064570665E+02  0.13480838292E+04  0.13482429280E+04  0.00000000000E+00 0. -1.
         -1    1    1    2    0  501  0.18102123312E+02  0.10064570665E+02  0.73810502613E+03  0.73839556611E+03  0.00000000000E+00 0.  1.
</event>
<event>
 4    1  0.6935156E+001  0.5028684E+02  0.7546771E-02  0.1296934E+00
          2   -1    0    0  502    0  0.00000000000E+00  0.00000000000E+00  0.18837482640E+04  0.18837482640E+04  0.00000000000E+00 0. -1.
         -2   -1    0    0    0  501 -0.00000000000E+00 -0.00000000000E+00 -0.15292917414E+01  0.15292917414E+01  0.00000000000E+00 0.  1.
          1    1    1    2  502    0  0.41522102394E+02 -0.28366900268E+02  0.61158977327E+03  0.61365366192E+03  0.00000000000E+00 0.  1.
         -1    1    1    2    0  501 -0.41522102394E+02  0.28366900268E+02  0.12706291990E+04  0.12716238939E+04  0.00000000000E+00 0. -1.
</event>
<event>
 4    1  0.6935156E+001  0.2029014E+02  0.7546771E-02  0.1529646E+00
          2   -1    0    0  502    0  0.00000000000E+00  0.00000000000E+00  0.29969245730E+02  0.29969245730E+02  0.00000000000E+00 0. -1.
         -2   -1    0    0    0  501 -0.00000000000E+00 -0.00000000000E+00 -0.16057861814E+02  0.16057861814E+02  0.00000000000E+00 0.  1.
          1    1    1    2  502    0  0.89451645387E+01  0.18211915749E+02 -0.17932844001E+01  0.20369234468E+02  0.00000000000E+00 0.  1.
         -1    1    1    2    0  501 -0.89451645387E+01 -0.18211915749E+02  0.15704668317E+02  0.25657873076E+02  0.00000000000E+00 0. -1.
</event>
<event>
 4    1  0.6935156E+001  0.3603248E+02  0.7546771E-02  0.1373446E+00
          2   -1    0    0  502    0  0.00000000000E+00  0.00000000000E+00  0.99427109821E+03  0.99427109821E+03  0.00000000000E+00 0. -1.
         -2   -1    0    0    0  501 -0.00000000000E+00 -0.00000000000E+00 -0.24327635569E+01  0.24327635569E+01  0.00000000000E+00 0.  1.
          1    1    1    2  502    0 -0.20012003919E+02 -0.29964302855E+02  0.15673376821E+03  0.16082230519E+03  0.00000000000E+00 0.  1.
         -1    1    1    2    0  501  0.20012003919E+02  0.29964302855E+02  0.83510456644E+03  0.83588155658E+03  0.00000000000E+00 0. -1.
</event>
<event>
 4    1  0.6935156E+001  0.2487448E+02  0.7546771E-02  0.1470213E+00
          2   -1    0    0  502    0  0.00000000000E+00  0.00000000000E+00  0.19472276691E+03  0.19472276691E+03  0.00000000000E+00 0.  1.
         -2   -1    0    0    0  501 -0.00000000000E+00 -0.00000000000E+00 -0.12816580413E+02  0.12816580413E+02  0.00000000000E+00 0. -1.
          1    1    1    2  502    0  0.24486097016E+02 -0.43784442535E+01  0.96164754156E+00  0.24893061024E+02  0.00000000000E+00 0. -1.
         -1    1    1    2    0  501 -0.24486097016E+02  0.43784442535E+01  0.18094453895E+03  0.18264628630E+03  0.00000000000E+00 0.  1.
</event>
<event>
 4    1  0.6935156E+001  0.2320448E+02  0.7546771E-02  0.1489946E+00
          2   -1    0    0  502    0  0.00000000000E+00  0.00000000000E+00  0.31733867430E+03  0.31733867430E+03  0.00000000000E+00 0.  1.
         -2   -1    0    0    0  501 -0.00000000000E+00 -0.00000000000E+00 -0.19437241475E+01  0.19437241475E+01  0.00000000000E+00 0. -1.
          1    1    1    2  502    0 -0.21800524465E+02 -0.79488885448E+01  0.21460166818E+03  0.21585255079E+03  0.00000000000E+00 0.  1.
         -1    1    1    2    0  501  0.21800524465E+02  0.79488885448E+01  0.10079328197E+03  0.10342984766E+03  0.00000000000E+00 0. -1.
</event>
<event>
 4    1  0.6935156E+001  0.2455572E+02  0.7546771E-02  0.1473835E+00
          2   -1    0    0  502    0  0.00000000000E+00  0.00000000000E+00  0.18749869661E+04  0.18749869661E+04  0.00000000000E+00 0.  1.
         -2   -1    0    0    0  501 -0.00000000000E+00 -0.00000000000E+00 -0.32798739758E+00  0.32798739758E+00  0.00000000000E+00 0. -1.
          1    1    1    2  502    0  0.15563042346E+02  0.18994074606E+02  0.10682497553E+04  0.10685319475E+04  0.00000000000E+00 0. -1.
         -1    1    1    2    0  501 -0.15563042346E+02 -0.18994074606E+02  0.80640922343E+03  0.80678300601E+03  0.00000000000E+00 0.  1.
</event>
<event>
 4    1  0.6935156E+001  0.2003222E+02  0.7546771E-02  0.1533544E+00
          2   -1    0    0  502    0  0.00000000000E+00  0.00000000000E+00  0.47379453999E+02  0.47379453999E+02  0.00000000000E+00 0.  1.
         -2   -1    0    0    0  501 -0.00000000000E+00 -0.00000000000E+00 -0.87277024279E+01  0.87277024279E+01  0.00000000000E+00 0. -1.
          1    1    1    2  502    0 -0.36294646774E+01 -0.19700685147E+02  0.24149192685E+02  0.31376320951E+02  0.00000000000E+00 0. -1.
         -1    1    1    2    0  501  0.36294646774E+01  0.19700685147E+02  0.14502558886E+02  0.24730835476E+02  0.00000000000E+00 0.  1.
</event>
<event>
 4    1  0.6935156E+001  0.2032857E+02  0.7546771E-02  0.1529071E+00
          2   -1    0    0  502    0  0.00000000000E+00  0.00000000000E+00  0.81586955073E+00  0.81586955073E+00  0.00000000000E+00 0.  1.
         -2   -1    0    0    0  501 -0.00000000000E+00 -0.00000000000E+00 -0.51736922578E+03  0.51736922578E+03  0.00000000000E+00 0. -1.
          1    1    1    2  502    0  0.16736420130E+02  0.11538765411E+02 -0.22075028071E+03  0.22168431902E+03  0.00000000000E+00 0.  1.
         -1    1    1    2    0  501 -0.16736420130E+02 -0.11538765411E+02 -0.29580307553E+03  0.29650077632E+03  0.00000000000E+00 0. -1.
</event>
<event>
 4    1  0.6935156E+001  0.2652732E+02  0.7546771E-02  0.1452415E+00
          2   -1    0    0  502    0  0.00000000000E+00  0.00000000000E+00  0.22518641127E+01  0.22518641127E+01  0.00000000000E+00 0. -1.
         -2   -1    0    0    0  501 -0.00000000000E+00 -0.00000000000E+00 -0.41776434014E+03  0.41776434014E+03  0.00000000000E+00 0.  1.
          1    1    1    2  502    0  0.26163392708E+02  0.43789899918E+01 -0.10233718200E+03  0.10571942816E+03  0.00000000000E+00 0. -1.
         -1    1    1    2    0  501 -0.26163392708E+02 -0.43789899918E+01 -0.31317529403E+03  0.31429677609E+03  0.00000000000E+00 0.  1.
</event>
<event>
 4    1  0.6935156E+001  0.2166019E+02  0.7546771E-02  0.1510044E+00
          2   -1    0    0  502    0  0.00000000000E+00  0.00000000000E+00  0.21296220747E+03  0.21296220747E+03  0.00000000000E+00 0.  1.
         -2   -1    0    0    0  501 -0.00000000000E+00 -0.00000000000E+00 -0.35310911077E+01  0.35310911077E+01  0.00000000000E+00 0. -1.
          1    1    1    2  502    0  0.16971941168E+02  0.13457965465E+02  0.38330875152E+02  0.44027486998E+02  0.00000000000E+00 0. -1.
         -1    1    1    2    0  501 -0.16971941168E+02 -0.13457965465E+02  0.17110024121E+03  0.17246581157E+03  0.00000000000E+00 0.  1.
</event>
<event>
 4    1  0.6935156E+001  0.2194757E+02  0.7546771E-02  0.1506154E+00
          2   -1    0    0  502    0  0.00000000000E+00  0.00000000000E+00  0.38480006430E+01  0.38480006430E+01  0.00000000000E+00 0.  1.
         -2   -1    0    0    0  501 -0.00000000000E+00 -0.00000000000E+00 -0.52354632863E+03  0.52354632863E+03  0.00000000000E+00 0. -1.
          1    1    1    2  502    0 -0.20560305662E+02  0.76791818728E+01 -0.48987083150E+03  0.49036224116E+03  0.00000000000E+00 0. -1.
         -1    1    1    2    0  501  0.20560305662E+02 -0.76791818728E+01 -0.29827496488E+02  0.37032088112E+02  0.00000000000E+00 0.  1.
</event>
<event>
 4    1  0.6935156E+001  0.3372348E+02  0.7546771E-02  0.1389767E+00
          2   -1    0    0  502    0  0.00000000000E+00  0.00000000000E+00  0.80781868022E+01  0.80781868022E+01  0.00000000000E+00 0. -1.
         -2   -1    0    0    0  501 -0.00000000000E+00 -0.00000000000E+00 -0.24013632087E+03  0.24013632087E+03  0.00000000000E+00 0.  1.
          1    1    1    2  502    0 -0.24048619195E+02  0.23641847194E+02 -0.36200379911E+02  0.49474645321E+02  0.00000000000E+00 0. -1.
         -1    1    1    2    0  501  0.24048619195E+02 -0.23641847194E+02 -0.19585775416E+03  0.19873986235E+03  0.00000000000E+00 0.  1.
</event>
<event>
 4    1  0.6935156E+001  0.2972178E+02  0.7546771E-02  0.1422030E+00
          2   -1    0    0  502    0  0.00000000000E+00  0.00000000000E+00  0.14467480752E+03  0.14467480752E+03  0.00000000000E+00 0.  1.
         -2   -1    0    0    0  501 -0.00000000000E+00 -0.00000000000E+00 -0.61306675025E+01  0.61306675025E+01  0.00000000000E+00 0. -1.
          1    1    1    2  502    0 -0.27652484060E+02  0.10896079380E+02  0.74054989104E+02  0.79796778329E+02  0.00000000000E+00 0. -1.
         -1    1    1    2    0  501  0.27652484060E+02 -0.10896079380E+02  0.64489150916E+02  0.71008696696E+02  0.00000000000E+00 0.  1.
</event>
<event>
 4    1  0.6935156E+001  0.2351166E+02  0.7546771E-02  0.1486171E+00
          2   -1    0    0  502    0  0.00000000000E+00  0.00000000000E+00  0.47792520836E+03  0.47792520836E+03  0.00000000000E+00 0.  1.
         -2   -1    0    0    0  501 -0.00000000000E+00 -0.00000000000E+00 -0.11809860521E+01  0.11809860521E+01  0.00000000000E+00 0. -1.
          1    1    1    2  502    0  0.14210927775E+02  0.18730929438E+02  0.27275105578E+03  0.27376255517E+03  0.00000000000E+00 0.  1.
         -1    1    1    2    0  501 -0.14210927775E+02 -0.18730929438E+02  0.20399316653E+03  0.20534363924E+03  0.00000000000E+00 0. -1.
</event>
<event>
 4    1  0.6935156E+001  0.2153881E+02  0.7546771E-02  0.1511709E+00
          2   -1    0    0  502    0  0.00000000000E+00  0.00000000000E+00  0.28029897396E+03  0.28029897396E+03  0.00000000000E+00 0. -1.
         -2   -1    0    0    0  501 -0.00000000000E+00 -0.00000000000E+00 -0.19390578917E+01  0.19390578917E+01  0.00000000000E+00 0.  1.
          1    1    1    2  502    0 -0.20145121385E+02  0.76219611156E+01  0.85176162494E+02  0.87857264151E+02  0.00000000000E+00 0.  1.
         -1    1    1    2    0  501  0.20145121385E+02 -0.76219611156E+01  0.19318375358E+03  0.19438076770E+03  0.00000000000E+00 0. -1.
</event>
<event>
 4    1  0.6935156E+001  0.2156318E+02  0.7546771E-02  0.1511374E+00
          2   -1    0    0  502    0  0.00000000000E+00  0.00000000000E+00  0.17655794976E+02  0.17655794976E+02  0.00000000000E+00 0.  1.
         -2   -1    0    0    0  501 -0.00000000000E+00 -0.00000000000E+00 -0.26340575957E+02  0.26340575957E+02  0.00000000000E+00 0. -1.
          1    1    1    2  502    0  0.13828700526E+02  0.16545017338E+02 -0.40308898199E+01  0.21936695961E+02  0.00000000000E+00 0.  1.
         -1    1    1    2    0  501 -0.13828700526E+02 -0.16545017338E+02 -0.46538911612E+01  0.22059674972E+02  0.00000000000E+00 0. -1.
</event>
<event>
 4    1  0.6935156E+001  0.2447117E+02  0.7546771E-02  0.1474807E+00
          2   -1    0    0  502    0  0.00000000000E+00  0.00000000000E+00  0.23994329689E+03  0.23994329689E+03  0.00000000000E+00 0.  1.
         -2   -1    0    0    0  501 -0.00000000000E+00 -0.00000000000E+00 -0.36041550116E+01  0.36041550116E+01  0.00000000000E+00 0. -1.
          1    1    1    2  502    0 -0.23414252692E+02  0.71141347486E+01  0.18570029131E+03  0.18730572958E+03  0.00000000000E+00 0.  1.
         -1    1    1    2    0  501  0.23414252692E+02 -0.71141347486E+01  0.50638850567E+02  0.56241722316E+02  0.00000000000E+00 0. -1.
</event>
<event>
 4    1  0.6935156E+001  0.2363701E+02  0.7546771E-02  0.1484650E+00
          2   -1    0    0  502    0  0.00000000000E+00  0.00000000000E+00  0.57473910902E+03  0.57473910902E+03  0.00000000000E+00 0.  1.
         -2   -1    0    0    0  501 -0.00000000000E+00 -0.00000000000E+00 -0.15999138438E+01  0.15999138438E+01  0.00000000000E+00 0. -1.
          1    1    1    2  502    0  0.95603890303E+01  0.21617287751E+02  0.10605488667E+03  0.10865701614E+03  0.00000000000E+00 0. -1.
         -1    1    1    2    0  501 -0.95603890303E+01 -0.21617287751E+02  0.46708430850E+03  0.46768200672E+03  0.00000000000E+00 0.  1.
</event>
<event>
 4    1  0.6935156E+001  0.4255881E+02  0.7546771E-02  0.1334110E+00
          2   -1    0    0  502    0  0.00000000000E+00  0.00000000000E+00  0.88826675639E+03  0.88826675639E+03  0.00000000000E+00 0. -1.
         -2   -1    0    0    0  501 -0.00000000000E+00 -0.00000000000E+00 -0.20988201873E+01  0.20988201873E+01  0.00000000000E+00 0.  1.
          1    1    1    2  502    0  0.41802221178E+02 -0.79891702758E+01  0.51818766030E+03  0.51993240313E+03  0.00000000000E+00 0.  1.
         -1    1    1    2    0  501 -0.41802221178E+02  0.79891702758E+01  0.36798027590E+03  0.37043317345E+03  0.00000000000E+00 0. -1.
</event>
<event>
 4    1  0.6935156E+001  0.2167315E+02  0.7546771E-02  0.1509867E+00
          2   -1    0    0  502    0  0.00000000000E+00  0.00000000000E+00  0.38518974149E+03  0.38518974149E+03  0.00000000000E+00 0.  1.
         -2   -1    0    0    0  501 -0.00000000000E+00 -0.00000000000E+00 -0.52808201651E+01  0.52808201651E+01  0.00000000000E+00 0. -1.
          1    1    1    2  502    0 -0.21523983374E+02  0.25384211742E+01  0.18738955031E+02  0.28650896635E+02  0.00000000000E+00 0. -1.
         -1    1    1    2    0  501  0.21523983374E+02 -0.25384211742E+01  0.36116996630E+03  0.36181966502E+03  0.00000000000E+00 0.  1.
</event>
<event>
 4    1  0.6935156E+001  0.3193102E+02  0.7546771E-02  0.1403526E+00
          2   -1    0    0  502    0  0.00000000000E+00  0.00000000000E+00  0.23504260694E+04  0.23504260694E+04  0.00000000000E+00 0. -1.
         -2   -1    0    0    0  501 -0.00000000000E+00 -0.00000000000E+00 -0.47620376141E+00  0.47620376141E+00  0.00000000000E+00 0.  1.
          1    1    1    2  502    0  0.22639983219E+02  0.22517135649E+02  0.15257784435E+04  0.15261125282E+04  0.00000000000E+00 0. -1.
         -1    1    1    2    0  501 -0.22639983219E+02 -0.22517135649E+02  0.82417142213E+03  0.82478974490E+03  0.00000000000E+00 0.  1.
</event>
<event>
 4    1  0.6935156E+001  0.2667097E+02  0.7546771E-02  0.1450942E+00
          2   -1    0    0  502    0  0.00000000000E+00  0.00000000000E+00  0.12324569655E+04  0.12324569655E+04  0.00000000000E+00 0. -1.
         -2   -1    0    0    0  501 -0.00000000000E+00 -0.00000000000E+00 -0.79557256902E+00  0.79557256902E+00  0.00000000000E+00 0.  1.
          1    1    1    2  502    0  0.13802781664E+02  0.22821569521E+02  0.29275219141E+03  0.29396460058E+03  0.00000000000E+00 0.  1.
         -1    1    1    2    0  501 -0.13802781664E+02 -0.22821569521E+02  0.93890920147E+03  0.93928793744E+03  0.00000000000E+00 0. -1.
</event>
<event>
 4    1  0.6935156E+001  0.4216218E+02  0.7546771E-02  0.1336261E+00
          2   -1    0    0  502    0  0.00000000000E+00  0.00000000000E+00  0.13302393466E+03  0.13302393466E+03  0.00000000000E+00 0.  1.
         -2   -1    0    0    0  501 -0.00000000000E+00 -0.00000000000E+00 -0.14153985049E+02  0.14153985049E+02  0.00000000000E+00 0. -1.
          1    1    1    2  502    0  0.22942310173E+02 -0.35373716748E+02  0.42042835808E+02  0.59541997577E+02  0.00000000000E+00 0. -1.
         -1    1    1    2    0  501 -0.22942310173E+02  0.35373716748E+02  0.76827113798E+02  0.87635922128E+02  0.00000000000E+00 0.  1.
</event>
<event>
 4    1  0.6935156E+001  0.2950632E+02  0.7546771E-02  0.1423936E+00
          2   -1    0    0  502    0  0.00000000000E+00  0.00000000000E+00  0.83719706938E+03  0.83719706938E+03  0.00000000000E+00 0.  1.
         -2   -1    0    0    0  501 -0.00000000000E+00 -0.00000000000E+00 -0.13708717085E+01  0.13708717085E+01  0.00000000000E+00 0. -1.
          1    1    1    2  502    0  0.27161382982E+02 -0.11527465403E+02  0.62392299575E+03  0.62462030692E+03  0.00000000000E+00 0. -1.
         -1    1    1    2    0  501 -0.27161382982E+02  0.11527465403E+02  0.21190320192E+03  0.21394763417E+03  0.00000000000E+00 0.  1.
</event>
<event>
 4    1  0.6935156E+001  0.3098855E+02  0.7546771E-02  0.1411196E+00
          2   -1    0    0  502    0  0.00000000000E+00  0.00000000000E+00  0.45819588895E+03  0.45819588895E+03  0.00000000000E+00 0. -1.
         -2   -1    0    0    0  501 -0.00000000000E+00 -0.00000000000E+00 -0.27761221348E+01  0.27761221348E+01  0.00000000000E+00 0.  1.
          1    1    1    2  502    0 -0.23405623090E+02  0.20309283344E+02  0.34180848505E+03  0.34321033002E+03  0.00000000000E+00 0. -1.
         -1    1    1    2    0  501  0.23405623090E+02 -0.20309283344E+02  0.11361128176E+03  0.11776168106E+03  0.00000000000E+00 0.  1.
</event>
<event>
 4    1  0.6935156E+001  0.2464296E+02  0.7546771E-02  0.1472837E+00
          2   -1    0    0  502    0  0.00000000000E+00  0.00000000000E+00  0.80243786306E+02  0.80243786306E+02  0.00000000000E+00 0.  1.
         -2   -1    0    0    0  501 -0.00000000000E+00 -0.00000000000E+00 -0.75731004502E+01  0.75731004502E+01  0.00000000000E+00 0. -1.
          1    1    1    2  502    0  0.22792024088E+02  0.93701053571E+01  0.35182363156E+02  0.42954323574E+02  0.00000000000E+00 0. -1.
         -1    1    1    2    0  501 -0.22792024088E+02 -0.93701053571E+01  0.37488322700E+02  0.44862563182E+02  0.00000000000E+00 0.  1.
</event>
<event>
 4    1  0.6935156E+001  0.4505723E+02  0.7546771E-02  0.1321153E+00
          2   -1    0    0  502    0  0.00000000000E+00  0.00000000000E+00  0.15471132438E+04  0.15471132438E+04  0.00000000000E+00 0. -1.
         -2   -1    0    0    0  501 -0.00000000000E+00 -0.00000000000E+00 -0.13782692720E+01  0.13782692720E+01  0.00000000000E+00 0.  1.
          1    1    1    2  502    0 -0.34612389581E+02 -0.28846778782E+02  0.60337782022E+03  0.60505780558E+03  0.00000000000E+00 0. -1.
         -1    1    1    2    0  501  0.34612389581E+02  0.28846778782E+02  0.94235715435E+03  0.94343370754E+03  0.00000000000E+00 0.  1.
</event>
<event>
 4    1  0.6935156E+001  0.2728969E+02  0.7546771E-02  0.1444720E+00
          2   -1    0    0  502    0  0.00000000000E+00  0.00000000000E+00  0.35689772386E+02  0.35689772386E+02  0.00000000000E+00 0.  1.
         -2   -1    0    0    0  501 -0.00000000000E+00 -0.00000000000E+00 -0.26261424452E+02  0.26261424452E+02  0.00000000000E+00 0. -1.
          1    1    1    2  502    0  0.26866680986E+02 -0.47862788639E+01  0.18753493459E+02  0.33112241385E+02  0.00000000000E+00 0.  1.
         -1    1    1    2    0  501 -0.26866680986E+02  0.47862788639E+01 -0.93251455245E+01  0.28838955453E+02  0.00000000000E+00 0. -1.
</event>
<event>
 4    1  0.6935156E+001  0.2705686E+02  0.7546771E-02  0.1447038E+00
          2   -1    0    0  502    0  0.00000000000E+00  0.00000000000E+00  0.32013908150E+00  0.32013908150E+00  0.00000000000E+00 0.  1.
         -2   -1    0    0    0  501 -0.00000000000E+00 -0.00000000000E+00 -0.26251639728E+04  0.26251639728E+04  0.00000000000E+00 0. -1.
          1    1    1    2  502    0 -0.15582171746E+02  0.22119435503E+02 -0.17837620568E+04  0.17839672499E+04  0.00000000000E+00 0. -1.
         -1    1    1    2    0  501  0.15582171746E+02 -0.22119435503E+02 -0.84108177695E+03  0.84151686199E+03  0.00000000000E+00 0.  1.
</event>
<event>
 4    1  0.6935156E+001  0.2381200E+02  0.7546771E-02  0.1482546E+00
          2   -1    0    0  502    0  0.00000000000E+00  0.00000000000E+00  0.10063377659E+04  0.10063377659E+04  0.00000000000E+00 0. -1.
         -2   -1    0    0    0  501 -0.00000000000E+00 -0.00000000000E+00 -0.72437624204E+00  0.72437624204E+00  0.00000000000E+00 0.  1.
          1    1    1    2  502    0 -0.13087387204E+02  0.19893005082E+02  0.26546690057E+03  0.26653271216E+03  0.00000000000E+00 0. -1.
         -1    1    1    2    0  501  0.13087387204E+02 -0.19893005082E+02  0.74014648910E+03  0.74052942999E+03  0.00000000000E+00 0.  1.
</event>
<event>
 4    1  0.6935156E+001  0.3518631E+02  0.7546771E-02  0.1379258E+00
          2   -1    0    0  502    0  0.00000000000E+00  0.00000000000E+00  0.12440899578E+03  0.12440899578E+03  0.00000000000E+00 0. -1.
         -2   -1    0    0    0  501 -0.00000000000E+00 -0.00000000000E+00 -0.20840789863E+02  0.20840789863E+02  0.00000000000E+00 0.  1.
          1    1    1    2  502    0 -0.50889974938E+01 -0.34816354273E+02  0.10427994940E+03  0.11005627773E+03  0.00000000000E+00 0. -1.
         -1    1    1    2    0  501  0.50889974938E+01  0.34816354273E+02 -0.71174348624E+00  0.35193507912E+02  0.00000000000E+00 0.  1.
</event>
<event>
 4    1  0.6935156E+001  0.4467230E+02  0.7546771E-02  0.1323086E+00
          2   -1    0    0  502    0  0.00000000000E+00  0.00000000000E+00  0.31978773153E+04  0.31978773153E+04  0.00000000000E+00 0. -1.
         -2   -1    0    0    0  501 -0.00000000000E+00 -0.00000000000E+00 -0.16770566598E+01  0.16770566598E+01  0.00000000000E+00 0.  1.
          1    1    1    2  502    0  0.44057174016E+02 -0.73878057908E+01  0.28657594376E+04  0.28661075989E+04  0.00000000000E+00 0. -1.
         -1    1    1    2    0  501 -0.44057174016E+02  0.73878057908E+01  0.33044082101E+03  0.33344677304E+03  0.00000000000E+00 0.  1.
</event>
<event>
 4    1  0.6935156E+001  0.3856660E+02  0.7546771E-02  0.1357097E+00
          2   -1    0    0  502    0  0.00000000000E+00  0.00000000000E+00  0.26169249968E+03  0.26169249968E+03  0.00000000000E+00 0. -1.
         -2   -1    0    0    0  501 -0.00000000000E+00 -0.00000000000E+00 -0.77742893927E+01  0.77742893927E+01  0.00000000000E+00 0.  1.
          1    1    1    2  502    0  0.12753419371E+02 -0.36396877547E+02  0.19682721231E+03  0.20057002245E+03  0.00000000000E+00 0. -1.
         -1    1    1    2    0  501 -0.12753419371E+02  0.36396877547E+02  0.57090997981E+02  0.68896766624E+02  0.00000000000E+00 0.  1.
</event>
<event>
 4    1  0.6935156E+001  0.2243798E+02  0.7546771E-02  0.1499679E+00
          2   -1    0    0  502    0  0.00000000000E+00  0.00000000000E+00  0.51461918985E+03  0.51461918985E+03  0.00000000000E+00 0.  1.
         -2   -1    0    0    0  501 -0.00000000000E+00 -0.00000000000E+00 -0.11134454525E+01  0.11134454525E+01  0.00000000000E+00 0. -1.
          1    1    1    2  502    0 -0.57057710139E+01  0.21700396411E+02  0.16692186150E+03  0.16842318983E+03  0.00000000000E+00 0. -1.
         -1    1    1    2    0  501  0.57057710139E+01 -0.21700396411E+02  0.34658388290E+03  0.34730944547E+03  0.00000000000E+00 0.  1.
</event>
<event>
 4    1  0.6935156E+001  0.2625621E+02  0.7546771E-02  0.1455226E+00
          2   -1    0    0  502    0  0.00000000000E+00  0.00000000000E+00  0.15239447220E+04  0.15239447220E+04  0.00000000000E+00 0. -1.
         -2   -1    0    0    0  501 -0.00000000000E+00 -0.00000000000E+00 -0.78312324050E+00  0.78312324050E+00  0.00000000000E+00 0.  1.
          1    1    1    2  502    0 -0.24440116842E+02  0.95952734279E+01  0.12570293897E+04  0.12573035732E+04  0.00000000000E+00 0. -1.
         -1    1    1    2    0  501  0.24440116842E+02 -0.95952734279E+01  0.26613220899E+03  0.26742427198E+03  0.00000000000E+00 0.  1.
</event>
<event>
 4    1  0.6935156E+001  0.3146633E+02  0.7546771E-02  0.1407268E+00
          2   -1    0    0  502    0  0.00000000000E+00  0.00000000000E+00  0.18743340131E+01  0.18743340131E+01  0.00000000000E+00 0. -1.
         -2   -1    0    0    0  501 -0.00000000000E+00 -0.00000000000E+00 -0.53350890479E+03  0.53350890479E+03  0.00000000000E+00 0.  1.
          1    1    1    2  502    0  0.27050472537E+02 -0.16074880896E+02 -0.29237720935E+03  0.29406557501E+03  0.00000000000E+00 0.  1.
         -1    1    1    2    0  501 -0.27050472537E+02  0.16074880896E+02 -0.23925736143E+03  0.24131766380E+03  0.00000000000E+00 0. -1.
</event>
<event>
 4    1  0.6935156E+001  0.2229245E+02  0.7546771E-02  0.1501579E+00
          2   -1    0    0  502    0  0.00000000000E+00  0.00000000000E+00  0.75844608793E+03  0.75844608793E+03  0.00000000000E+00 0. -1.
         -2   -1    0    0    0  501 -0.00000000000E+00 -0.00000000000E+00 -0.84862776175E+00  0.84862776175E+00  0.00000000000E+00 0.  1.
          1    1    1    2  502    0 -0.19099875384E+02  0.11495572151E+02  0.19755948685E+03  0.19881323965E+03  0.00000000000E+00 0.  1.
         -1    1    1    2    0  501  0.19099875384E+02 -0.11495572151E+02  0.56003797332E+03  0.56048147603E+03  0.00000000000E+00 0. -1.
</event>
<event>
 4    1  0.6935156E+001  0.2657155E+02  0.7546771E-02  0.1451960E+00
          2   -1    0    0  502    0  0.00000000000E+00  0.00000000000E+00  0.53932957268E+01  0.53932957268E+01  0.00000000000E+00 0. -1.
         -2   -1    0    0    0  501 -0.00000000000E+00 -0.00000000000E+00 -0.15176329751E+03  0.15176329751E+03  0.00000000000E+00 0.  1.
          1    1    1    2  502    0 -0.15629849382E+02 -0.21488489961E+02 -0.10231129758E+03  0.10570548238E+03  0.00000000000E+00 0.  1.
         -1    1    1    2    0  501  0.15629849382E+02  0.21488489961E+02 -0.44058704209E+02  0.51451110863E+02  0.00000000000E+00 0. -1.
</event>
<event>
 4    1  0.6935156E+001  0.2197696E+02  0.7546771E-02  0.1505760E+00
          2   -1    0    0  502    0  0.00000000000E+00  0.00000000000E+00  0.95325960291E+03  0.95325960291E+03  0.00000000000E+00 0. -1.
         -2   -1    0    0    0  501 -0.00000000000E+00 -0.00000000000E+00 -0.17694460169E+01  0.17694460169E+01  0.00000000000E+00 0.  1.
          1    1    1    2  502    0  0.21470781435E+02  0.46896030780E+01  0.87914081891E+03  0.87941546854E+03  0.00000000000E+00 0. -1.
         -1    1    1    2    0  501 -0.21470781435E+02 -0.46896030780E+01  0.72349337989E+02  0.75613580394E+02  0.00000000000E+00 0.  1.
</event>
<event>
 4    1  0.6935156E+001  0.2171145E+02  0.7546771E-02  0.1509345E+00
          2   -1    0    0  502    0  0.00000000000E+00  0.00000000000E+00  0.52470210932E+03  0.52470210932E+03  0.00000000000E+00 0. -1.
         -2   -1    0    0    0  501 -0.00000000000E+00 -0.00000000000E+00 -0.99919579323E+00  0.99919579323E+00  0.00000000000E+00 0.  1.
          1    1    1    2  502    0 -0.20353934945E+02  0.75567495387E+01  0.17836298854E+03  0.17967955591E+03  0.00000000000E+00 0.  1.
         -1    1    1    2    0  501  0.20353934945E+02 -0.75567495387E+01  0.34533992499E+03  0.34602174921E+03  0.00000000000E+00 0. -1.
</event>
<event>
 4    1  0.6935156E+001  0.2744181E+02  0.7546771E-02  0.1443220E+00
          2   -1    0    0  502    0  0.00000000000E+00  0.00000000000E+00  0.32253723944E+01  0.32253723944E+01  0.00000000000E+00 0. -1.
         -2   -1    0    0    0  501 -0.00000000000E+00 -0.00000000000E+00 -0.23947607976E+03  0.23947607976E+03  0.00000000000E+00 0.  1.
          1    1    1    2  502    0  0.22223910196E+02  0.16098153228E+02 -0.13733087575E+03  0.14004578592E+03  0.00000000000E+00 0.  1.
         -1    1    1    2    0  501 -0.22223910196E+02 -0.16098153228E+02 -0.98919831623E+02  0.10265566623E+03  0.00000000000E+00 0. -1.
</event>
<event>
 4    1  0.6935156E+001  0.2357736E+02  0.7546771E-02  0.1485373E+00
          2   -1    0    0  502    0  0.00000000000E+00  0.00000000000E+00  0.11577540675E+04  0.11577540675E+04  0.00000000000E+00 0. -1.
         -2   -1    0    0    0  501 -0.00000000000E+00 -0.00000000000E+00 -0.20331013350E+01  0.20331013350E+01  0.00000000000E+00 0.  1.
          1    1    1    2  502    0 -0.43997712241E+01 -0.23163203526E+02  0.10846739578E+04  0.10849301760E+04  0.00000000000E+00 0. -1.
         -1    1    1    2    0  501  0.43997712241E+01  0.23163203526E+02  0.71047008378E+02  0.74856992886E+02  0.00000000000E+00 0.  1.
</event>
<event>
 4    1  0.6935156E+001  0.3058020E+02  0.7546771E-02  0.1414620E+00
          2   -1    0    0  502    0  0.00000000000E+00  0.00000000000E+00  0.95104175213E+03  0.95104175213E+03  0.00000000000E+00 0. -1.
         -2   -1    0    0    0  501 -0.00000000000E+00 -0.00000000000E+00 -0.98726262138E+00  0.98726262138E+00  0.00000000000E+00 0.  1.
          1    1    1    2  502    0 -0.30510932773E+02 -0.20570614530E+01  0.50522804907E+03  0.50615267468E+03  0.00000000000E+00 0. -1.
         -1    1    1    2    0  501  0.30510932773E+02  0.20570614530E+01  0.44482644044E+03  0.44587634007E+03  0.00000000000E+00 0.  1.
</event>
<event>
 4    1  0.6935156E+001  0.2057469E+02  0.7546771E-02  0.1525425E+00
          2   -1    0    0  502    0  0.00000000000E+00  0.00000000000E+00  0.17822731543E+04  0.17822731543E+04  0.00000000000E+00 0.  1.
         -2   -1    0    0    0  501 -0.00000000000E+00 -0.00000000000E+00 -0.28595688975E+00  0.28595688975E+00  0.00000000000E+00 0. -1.
          1    1    1    2  502    0  0.12786012752E+02 -0.16119419966E+02  0.52415827574E+03  0.52456192757E+03  0.00000000000E+00 0. -1.
         -1    1    1    2    0  501 -0.12786012752E+02  0.16119419966E+02  0.12578289217E+04  0.12579971837E+04  0.00000000000E+00 0.  1.
</event>
<event>
 4    1  0.6935156E+001  0.2116327E+02  0.7546771E-02  0.1516946E+00
          2   -1    0    0  502    0  0.00000000000E+00  0.00000000000E+00  0.77443612956E+03  0.77443612956E+03  0.00000000000E+00 0. -1.
         -2   -1    0    0    0  501 -0.00000000000E+00 -0.00000000000E+00 -0.74372723821E+00  0.74372723821E+00  0.00000000000E+00 0.  1.
          1    1    1    2  502    0 -0.11661252978E+02 -0.17660667512E+02  0.56962355678E+03  0.57001656155E+03  0.00000000000E+00 0.  1.
         -1    1    1    2    0  501  0.11661252978E+02  0.17660667512E+02  0.20406884554E+03  0.20516329525E+03  0.00000000000E+00 0. -1.
</event>
<event>
 4    1  0.6935156E+001  0.3142752E+02  0.7546771E-02  0.1407584E+00
          2   -1    0    0  502    0  0.00000000000E+00  0.00000000000E+00  0.48058452230E+03  0.48058452230E+03  0.00000000000E+00 0.  1.
         -2   -1    0    0    0  501 -0.00000000000E+00 -0.00000000000E+00 -0.59697642071E+01  0.59697642071E+01  0.00000000000E+00 0. -1.
          1    1    1    2  502    0  0.12174942072E+02 -0.28973437541E+02  0.43430698331E+03  0.43544258525E+03  0.00000000000E+00 0.  1.
         -1    1    1    2    0  501 -0.12174942072E+02  0.28973437541E+02  0.40307774780E+02  0.51111701254E+02  0.00000000000E+00 0. -1.
</event>
<event>
 4    1  0.6935156E+001  0.2063010E+02  0.7546771E-02  0.1524612E+00
          2   -1    0    0  502    0  0.00000000000E+00  0.00000000000E+00  0.10402249828E+02  0.10402249828E+02  0.00000000000E+00 0. -1.
         -2   -1    0    0    0  501 -0.00000000000E+00 -0.00000000000E+00 -0.43312892546E+02  0.43312892546E+02  0.00000000000E+00 0.  1.
          1    1    1    2  502    0  0.18395103371E+02  0.93392346881E+01 -0.22775556366E+02  0.30729905636E+02  0.00000000000E+00 0. -1.
         -1    1    1    2    0  501 -0.18395103371E+02 -0.93392346881E+01 -0.10135086352E+02  0.22985236739E+02  0.00000000000E+00 0.  1.
</event>
<event>
 4    1  0.6935156E+001  0.2780820E+02  0.7546771E-02  0.1439654E+00
          2   -1    0    0  502    0  0.00000000000E+00  0.00000000000E+00  0.96695131084E+03  0.96695131084E+03  0.00000000000E+00 0. -1.
         -2   -1    0    0    0  501 -0.00000000000E+00 -0.00000000000E+00 -0.80312470760E+00  0.80312470760E+00  0.00000000000E+00 0.  1.
          1    1    1    2  502    0  0.26765868307E+02 -0.75421490276E+01  0.51455346628E+03  0.51530434248E+03  0.00000000000E+00 0. -1.
         -1    1    1    2    0  501 -0.26765868307E+02  0.75421490276E+01  0.45159471986E+03  0.45245009307E+03  0.00000000000E+00 0.  1.
</event>
<event>
 4    1  0.6935156E+001  0.3728158E+02  0.7546771E-02  0.1365197E+00
          2   -1    0    0  502    0  0.00000000000E+00  0.00000000000E+00  0.18597466503E+02  0.18597466503E+02  0.00000000000E+00 0. -1.
         -2   -1    0    0    0  501 -0.00000000000E+00 -0.00000000000E+00 -0.77408888808E+02  0.77408888808E+02  0.00000000000E+00 0.  1.
          1    1    1    2  502    0  0.20686269797E+02  0.31016031581E+02 -0.38324304252E+02  0.53466515405E+02  0.00000000000E+00 0.  1.
         -1    1    1    2    0  501 -0.20686269797E+02 -0.31016031581E+02 -0.20487118052E+02  0.42539839906E+02  0.00000000000E+00 0. -1.
</event>
<event>
 4    1  0.6935156E+001  0.2137522E+02  0.7546771E-02  0.1513975E+00
          2   -1    0    0  502    0  0.00000000000E+00  0.00000000000E+00  0.26732237341E+02  0.26732237341E+02  0.00000000000E+00 0.  1.
         -2   -1    0    0    0  501 -0.00000000000E+00 -0.00000000000E+00 -0.30504258074E+02  0.30504258074E+02  0.00000000000E+00 0. -1.
          1    1    1    2  502    0 -0.18951618976E+01  0.21291039320E+02  0.17090582565E+02  0.27367645247E+02  0.00000000000E+00 0.  1.
         -1    1    1    2    0  501  0.18951618976E+01 -0.21291039320E+02 -0.20862603298E+02  0.29868850168E+02  0.00000000000E+00 0. -1.
</event>
<event>
 4    1  0.6935156E+001  0.3958669E+02  0.7546771E-02  0.1350925E+00
          2   -1    0    0  502    0  0.00000000000E+00  0.00000000000E+00  0.34774493848E+03  0.34774493848E+03  0.00000000000E+00 0.  1.
         -2   -1    0    0    0  501 -0.00000000000E+00 -0.00000000000E+00 -0.54482115112E+01  0.54482115112E+01  0.00000000000E+00 0. -1.
          1    1    1    2  502    0  0.33526807969E+02 -0.21048970967E+02  0.97727655374E+02  0.10544098186E+03  0.00000000000E+00 0. -1.
         -1    1    1    2    0  501 -0.33526807969E+02  0.21048970967E+02  0.24456907160E+03  0.24775216813E+03  0.00000000000E+00 0.  1.
</event>
<event>
 4    1  0.6935156E+001  0.2531316E+02  0.7546771E-02  0.1465330E+00
          2   -1    0    0  502    0  0.00000000000E+00  0.00000000000E+00  0.28590815442E+04  0.28590815442E+04  0.00000000000E+00 0.  1.
         -2   -1    0    0    0  501 -0.00000000000E+00 -0.00000000000E+00 -0.22495905027E+00  0.22495905027E+00  0.00000000000E+00 0. -1.
          1    1    1    2  502    0 -0.24882280647E+02 -0.46506299530E+01  0.13417332268E+04  0.13419719848E+04  0.00000000000E+00 0.  1.
         -1    1    1    2    0  501  0.24882280647E+02  0.46506299530E+01  0.15171233584E+04  0.15173345184E+04  0.00000000000E+00 0. -1.
</event>
<event>
 4    1  0.6935156E+001  0.3614720E+02  0.7546771E-02  0.1372673E+00
          2   -1    0    0  502    0  0.00000000000E+00  0.00000000000E+00  0.14199054368E+04  0.14199054368E+04  0.00000000000E+00 0.  1.
         -2   -1    0    0    0  501 -0.00000000000E+00 -0.00000000000E+00 -0.95883888482E+00  0.95883888482E+00  0.00000000000E+00 0. -1.
          1    1    1    2  502    0  0.13141456016E+02 -0.33673765393E+02  0.85205690659E+03  0.85282330667E+03  0.00000000000E+00 0. -1.
         -1    1    1    2    0  501 -0.13141456016E+02  0.33673765393E+02  0.56688969137E+03  0.56804096906E+03  0.00000000000E+00 0.  1.
</event>
<event>
 4    1  0.6935156E+001  0.2445724E+02  0.7546771E-02  0.1474968E+00
          2   -1    0    0  502    0  0.00000000000E+00  0.00000000000E+00  0.10191825111E+02  0.10191825111E+02  0.00000000000E+00 0.  1.
         -2   -1    0    0    0  501 -0.00000000000E+00 -0.00000000000E+00 -0.65047430256E+02  0.65047430256E+02  0.00000000000E+00 0. -1.
          1    1    1    2  502    0 -0.22023180831E+02  0.10636556438E+02 -0.39188819588E+02  0.46194376362E+02  0.00000000000E+00 0.  1.
         -1    1    1    2    0  501  0.22023180831E+02 -0.10636556438E+02 -0.15666785557E+02  0.29044879006E+02  0.00000000000E+00 0. -1.
</event>
<event>
 4    1  0.6935156E+001  0.3427080E+02  0.7546771E-02  0.1385763E+00
          2   -1    0    0  502    0  0.00000000000E+00  0.00000000000E+00  0.34582668775E+03  0.34582668775E+03  0.00000000000E+00 0.  1.
         -2   -1    0    0    0  501 -0.00000000000E+00 -0.00000000000E+00 -0.35122455184E+01  0.35122455184E+01  0.00000000000E+00 0. -1.
          1    1    1    2  502    0 -0.46833918299E+01 -0.33949281406E+02  0.13940413227E+03  0.14355486743E+03  0.00000000000E+00 0. -1.
         -1    1    1    2    0  501  0.46833918299E+01  0.33949281406E+02  0.20291030996E+03  0.20578406584E+03  0.00000000000E+00 0.  1.
</event>
<event>
 4    1  0.6935156E+001  0.8573115E+02  0.7546771E-02  0.1191133E+00
          2   -1    0    0  502    0  0.00000000000E+00  0.00000000000E+00  0.28310560524E+03  0.28310560524E+03  0.00000000000E+00 0.  1.
         -2   -1    0    0    0  501 -0.00000000000E+00 -0.00000000000E+00 -0.38899389037E+02  0.38899389037E+02  0.00000000000E+00 0. -1.
          1    1    1    2  502    0 -0.69278792428E-01  0.85731124145E+02  0.29250551728E+02  0.90583802212E+02  0.00000000000E+00 0. -1.
         -1    1    1    2    0  501  0.69278792428E-01 -0.85731124145E+02  0.21495566448E+03  0.23142119207E+03  0.00000000000E+00 0.  1.
</event>
<event>
 4    1  0.6935156E+001  0.2839217E+02  0.7546771E-02  0.1434103E+00
          2   -1    0    0  502    0  0.00000000000E+00  0.00000000000E+00  0.68983692084E+02  0.68983692084E+02  0.00000000000E+00 0. -1.
         -2   -1    0    0    0  501 -0.00000000000E+00 -0.00000000000E+00 -0.42216012533E+02  0.42216012533E+02  0.00000000000E+00 0.  1.
          1    1    1    2  502    0  0.26874173980E+02 -0.91593613089E+01 -0.33898770264E+02  0.44218115655E+02  0.00000000000E+00 0.  1.
         -1    1    1    2    0  501 -0.26874173980E+02  0.91593613089E+01  0.60666449815E+02  0.66981588962E+02  0.00000000000E+00 0. -1.
</event>
<event>
 4    1  0.6935156E+001  0.4407127E+02  0.7546771E-02  0.1326149E+00
          2   -1    0    0  502    0  0.00000000000E+00  0.00000000000E+00  0.29088131976E+04  0.29088131976E+04  0.00000000000E+00 0.  1.
         -2   -1    0    0    0  501 -0.00000000000E+00 -0.00000000000E+00 -0.10763687773E+01  0.10763687773E+01  0.00000000000E+00 0. -1.
          1    1    1    2  502    0  0.35862228633E+00  0.44069811977E+02  0.55738903903E+03  0.55912862364E+03  0.00000000000E+00 0. -1.
         -1    1    1    2    0  501 -0.35862228633E+00 -0.44069811977E+02  0.23503477898E+04  0.23507609428E+04  0.00000000000E+00 0.  1.
</event>
<event>
 4    1  0.6935156E+001  0.2006989E+02  0.7546771E-02  0.1532970E+00
          2   -1    0    0  502    0  0.00000000000E+00  0.00000000000E+00  0.64027278385E+02  0.64027278385E+02  0.00000000000E+00 0. -1.
         -2   -1    0    0    0  501 -0.00000000000E+00 -0.00000000000E+00 -0.62912066923E+01  0.62912066923E+01  0.00000000000E+00 0.  1.
          1    1    1    2  502    0 -0.19329480233E+02 -0.54010983001E+01  0.28709659691E+02  0.35029205365E+02  0.00000000000E+00 0. -1.
         -1    1    1    2    0  501  0.19329480233E+02  0.54010983001E+01  0.29026412002E+02  0.35289279712E+02  0.00000000000E+00 0.  1.
</event>
<event>
 4    1  0.6935156E+001  0.2028754E+02  0.7546771E-02  0.1529685E+00
          2   -1    0    0  502    0  0.00000000000E+00  0.00000000000E+00  0.17291636852E+04  0.17291636852E+04  0.00000000000E+00 0.  1.
         -2   -1    0    0    0  501 -0.00000000000E+00 -0.00000000000E+00 -0.24038677585E+00  0.24038677585E+00  0.00000000000E+00 0. -1.
          1    1    1    2  502    0 -0.11058407926E+02 -0.17008696344E+02  0.77875132473E+03  0.77901553894E+03  0.00000000000E+00 0.  1.
         -1    1    1    2    0  501  0.11058407926E+02  0.17008696344E+02  0.95017197371E+03  0.95038853305E+03  0.00000000000E+00 0. -1.
</event>
<event>
 4    1  0.6935156E+001  0.3105002E+02  0.7546771E-02  0.1410686E+00
          2   -1    0    0  502    0  0.00000000000E+00  0.00000000000E+00  0.87019015944E+01  0.87019015944E+01  0.00000000000E+00 0.  1.
         -2   -1    0    0    0  501 -0.00000000000E+00 -0.00000000000E+00 -0.15127350057E+03  0.15127350057E+03  0.00000000000E+00 0. -1.
          1    1    1    2  502    0 -0.30344660785E+02  0.65806971693E+01 -0.29907915231E+02  0.43111337336E+02  0.00000000000E+00 0.  1.
         -1    1    1    2    0  501  0.30344660785E+02 -0.65806971693E+01 -0.11266368374E+03  0.11686406483E+03  0.00000000000E+00 0. -1.
</event>
<event>
 4    1  0.6935156E+001  0.2544557E+02  0.7546771E-02  0.1463880E+00
          2   -1    0    0  502    0  0.00000000000E+00  0.00000000000E+00  0.69010671247E+02  0.69010671247E+02  0.00000000000E+00 0.  1.
         -2   -1    0    0    0  501 -0.00000000000E+00 -0.00000000000E+00 -0.10725765951E+02  0.10725765951E+02  0.00000000000E+00 0. -1.
          1    1    1    2  502    0 -0.23813783931E+02 -0.89655235570E+01  0.15032340613E+02  0.29554156765E+02  0.00000000000E+00 0. -1.
         -1    1    1    2    0  501  0.23813783931E+02  0.89655235570E+01  0.43252564683E+02  0.50182280433E+02  0.00000000000E+00 0.  1.
</event>
<event>
 4    1  0.6935156E+001  0.3241397E+02  0.7546771E-02  0.1399716E+00
          2   -1    0    0  502    0  0.00000000000E+00  0.00000000000E+00  0.78564080499E+03  0.78564080499E+03  0.00000000000E+00 0.  1.
         -2   -1    0    0    0  501 -0.00000000000E+00 -0.00000000000E+00 -0.13375116023E+01  0.13375116023E+01  0.00000000000E+00 0. -1.
          1    1    1    2  502    0 -0.11405694087E+02  0.30340986651E+02  0.38763638930E+03  0.38898924874E+03  0.00000000000E+00 0. -1.
         -1    1    1    2    0  501  0.11405694087E+02 -0.30340986651E+02  0.39666690409E+03  0.39798906785E+03  0.00000000000E+00 0.  1.
</event>
<event>
 4    1  0.6935156E+001  0.3104878E+02  0.7546771E-02  0.1410696E+00
          2   -1    0    0  502    0  0.00000000000E+00  0.00000000000E+00  0.10544422111E+03  0.10544422111E+03  0.00000000000E+00 0. -1.
         -2   -1    0    0    0  501 -0.00000000000E+00 -0.00000000000E+00 -0.10087306250E+02  0.10087306250E+02  0.00000000000E+00 0.  1.
          1    1    1    2  502    0 -0.18014210706E+02 -0.25288636802E+02  0.29999875120E+02  0.43174291493E+02  0.00000000000E+00 0.  1.
         -1    1    1    2    0  501  0.18014210706E+02  0.25288636802E+02  0.65357039742E+02  0.72357235868E+02  0.00000000000E+00 0. -1.
</event>
<event>
 4    1  0.6935156E+001  0.3013229E+02  0.7546771E-02  0.1418450E+00
          2   -1    0    0  502    0  0.00000000000E+00  0.00000000000E+00  0.10422298200E+04  0.10422298200E+04  0.00000000000E+00 0.  1.
         -2   -1    0    0    0  501 -0.00000000000E+00 -0.00000000000E+00 -0.92768561456E+00  0.92768561456E+00  0.00000000000E+00 0. -1.
          1    1    1    2  502    0 -0.27334387288E+02 -0.12680147253E+02  0.64939306906E+03  0.65009177276E+03  0.00000000000E+00 0.  1.
         -1    1    1    2    0  501  0.27334387288E+02  0.12680147253E+02  0.39190906529E+03  0.39306573283E+03  0.00000000000E+00 0. -1.
</event>
<event>
 4    1  0.6935156E+001  0.2267809E+02  0.7546771E-02  0.1496580E+00
          2   -1    0    0  502    0  0.00000000000E+00  0.00000000000E+00  0.33503415661E+03  0.33503415661E+03  0.00000000000E+00 0.  1.
         -2   -1    0    0    0  501 -0.00000000000E+00 -0.00000000000E+00 -0.24001486319E+01  0.24001486319E+01  0.00000000000E+00 0. -1.
          1    1    1    2  502    0  0.22607890542E+02  0.17830447620E+01  0.65025820130E+02  0.68866924187E+02  0.00000000000E+00 0. -1.
         -1    1    1    2    0  501 -0.22607890542E+02 -0.17830447620E+01  0.26760818785E+03  0.26856738106E+03  0.00000000000E+00 0.  1.
</event>
<event>
 4    1  0.6935156E+001  0.2120141E+02  0.7546771E-02  0.1516409E+00
          2   -1    0    0  502    0  0.00000000000E+00  0.00000000000E+00  0.10676016871E+04  0.10676016871E+04  0.00000000000E+00 0. -1.
         -2   -1    0    0    0  501 -0.00000000000E+00 -0.00000000000E+00 -0.47373197216E+00  0.47373197216E+00  0.00000000000E+00 0.  1.
          1    1    1    2  502    0 -0.21074818289E+02 -0.23133748989E+01  0.35545298866E+03  0.35608471859E+03  0.00000000000E+00 0.  1.
         -1    1    1    2    0  501  0.21074818289E+02  0.23133748989E+01  0.71167496649E+03  0.71199070049E+03  0.00000000000E+00 0. -1.
</event>
<event>
 4    1  0.6935156E+001  0.2246156E+02  0.7546771E-02  0.1499372E+00
          2   -1    0    0  502    0  0.00000000000E+00  0.00000000000E+00  0.54660468462E+03  0.54660468462E+03  0.00000000000E+00 0.  1.
         -2   -1    0    0    0  501 -0.00000000000E+00 -0.00000000000E+00 -0.92320273924E+00  0.92320273924E+00  0.00000000000E+00 0. -1.
          1    1    1    2  502    0 -0.19034040740E+02  0.11925894848E+02  0.26888673061E+03  0.26982326729E+03  0.00000000000E+00 0.  1.
         -1    1    1    2    0  501  0.19034040740E+02 -0.11925894848E+02  0.27679475128E+03  0.27770462007E+03  0.00000000000E+00 0. -1.
</event>
<event>
 4    1  0.6935156E+001  0.6937252E+02  0.7546771E-02  0.1230933E+00
          2   -1    0    0  502    0  0.00000000000E+00  0.00000000000E+00  0.23502393109E+04  0.23502393109E+04  0.00000000000E+00 0. -1.
         -2   -1    0    0    0  501 -0.00000000000E+00 -0.00000000000E+00 -0.51093337482E+01  0.51093337482E+01  0.00000000000E+00 0.  1.
          1    1    1    2  502    0 -0.68192576053E+02 -0.12740459019E+02  0.26093029571E+03  0.26999475170E+03  0.00000000000E+00 0.  1.
         -1    1    1    2    0  501  0.68192576053E+02  0.12740459019E+02  0.20841996814E+04  0.20853538929E+04  0.00000000000E+00 0. -1.
</event>
<event>
 4    1  0.6935156E+001  0.2101581E+02  0.7546771E-02  0.1519039E+00
          2   -1    0    0  502    0  0.00000000000E+00  0.00000000000E+00  0.11713119666E+04  0.11713119666E+04  0.00000000000E+00 0.  1.
         -2   -1    0    0    0  501 -0.00000000000E+00 -0.00000000000E+00 -0.37707368010E+00  0.37707368010E+00  0.00000000000E+00 0. -1.
          1    1    1    2  502    0 -0.19131809470E+02  0.86970304342E+01  0.58770481717E+03  0.58808045079E+03  0.00000000000E+00 0. -1.
         -1    1    1    2    0  501  0.19131809470E+02 -0.86970304342E+01  0.58323007577E+03  0.58360858951E+03  0.00000000000E+00 0.  1.
</event>
<event>
 4    1  0.6935156E+001  0.2533438E+02  0.7546771E-02  0.1465097E+00
          2   -1    0    0  502    0  0.00000000000E+00  0.00000000000E+00  0.10727887956E+03  0.10727887956E+03  0.00000000000E+00 0.  1.
         -2   -1    0    0    0  501 -0.00000000000E+00 -0.00000000000E+00 -0.79453387202E+01  0.79453387202E+01  0.00000000000E+00 0. -1.
          1    1    1    2  502    0 -0.43043615638E+01 -0.24966047510E+02  0.21033983988E+02  0.32928096501E+02  0.00000000000E+00 0. -1.
         -1    1    1    2    0  501  0.43043615638E+01  0.24966047510E+02  0.78299556857E+02  0.82296121784E+02  0.00000000000E+00 0.  1.
</event>
<event>
 4    1  0.6935156E+001  0.2712616E+02  0.7546771E-02  0.1446345E+00
          2   -1    0    0  502    0  0.00000000000E+00  0.00000000000E+00  0.16217867613E+03  0.16217867613E+03  0.00000000000E+00 0. -1.
         -2   -1    0    0    0  501 -0.00000000000E+00 -0.00000000000E+00 -0.12486192557E+02  0.12486192557E+02  0.00000000000E+00 0.  1.
          1    1    1    2  502    0  0.26860869256E+02 -0.37845017396E+01  0.51646598349E+01  0.27613447120E+02  0.00000000000E+00 0.  1.
         -1    1    1    2    0  501 -0.26860869256E+02  0.37845017396E+01  0.14452782373E+03  0.14705142156E+03  0.00000000000E+00 0. -1.
</event>
<event>
 4    1  0.6935156E+001  0.3737501E+02  0.7546771E-02  0.1364595E+00
          2   -1    0    0  502    0  0.00000000000E+00  0.00000000000E+00  0.11724146537E+04  0.11724146537E+04  0.00000000000E+00 0.  1.
         -2   -1    0    0    0  501 -0.00000000000E+00 -0.00000000000E+00 -0.12341657607E+01  0.12341657607E+01  0.00000000000E+00 0. -1.
          1    1    1    2  502    0  0.31397259371E+02 -0.20275688269E+02  0.69474369492E+03  0.69574829721E+03  0.00000000000E+00 0.  1.
         -1    1    1    2    0  501 -0.31397259371E+02  0.20275688269E+02  0.47643679298E+03  0.47790052222E+03  0.00000000000E+00 0. -1.
</event>
<event>
 4    1  0.6935156E+001  0.3370485E+02  0.7546771E-02  0.1389904E+00
          2   -1    0    0  502    0  0.00000000000E+00  0.00000000000E+00  0.18581317033E+04  0.18581317033E+04  0.00000000000E+00 0.  1.
         -2   -1    0    0    0  501 -0.00000000000E+00 -0.00000000000E+00 -0.16231178280E+01  0.16231178280E+01  0.00000000000E+00 0. -1.
          1    1    1    2  502    0 -0.14500815042E+02 -0.30426035017E+02  0.16624054924E+04  0.16627471361E+04  0.00000000000E+00 0.  1.
         -1    1    1    2    0  501  0.14500815042E+02  0.30426035017E+02  0.19410309301E+03  0.19700768503E+03  0.00000000000E+00 0. -1.
</event>
<event>
 4    1  0.6935156E+001  0.2056012E+02  0.7546771E-02  0.1525639E+00
          2   -1    0    0  502    0  0.00000000000E+00  0.00000000000E+00  0.10468195693E+03  0.10468195693E+03  0.00000000000E+00 0. -1.
         -2   -1    0    0    0  501 -0.00000000000E+00 -0.00000000000E+00 -0.75341936680E+01  0.75341936680E+01  0.00000000000E+00 0.  1.
          1    1    1    2  502    0 -0.14831263406E+02 -0.14239100796E+02  0.86794458031E+02  0.89196391803E+02  0.00000000000E+00 0. -1.
         -1    1    1    2    0  501  0.14831263406E+02  0.14239100796E+02  0.10353305228E+02  0.23019758793E+02  0.00000000000E+00 0.  1.
</event>
<event>
 4    1  0.6935156E+001  0.2345907E+02  0.7546771E-02  0.1486813E+00
          2   -1    0    0  502    0  0.00000000000E+00  0.00000000000E+00  0.24655100292E+03  0.24655100292E+03  0.00000000000E+00 0. -1.
         -2   -1    0    0    0  501 -0.00000000000E+00 -0.00000000000E+00 -0.23933781904E+01  0.23933781904E+01  0.00000000000E+00 0.  1.
          1    1    1    2  502    0  0.18189186692E+02  0.14814901259E+02  0.89768043679E+02  0.92782700315E+02  0.00000000000E+00 0.  1.
         -1    1    1    2    0  501 -0.18189186692E+02 -0.14814901259E+02  0.15438958105E+03  0.15616168080E+03  0.00000000000E+00 0. -1.
</event>
<event>
 4    1  0.6935156E+001  0.2486696E+02  0.7546771E-02  0.1470297E+00
          2   -1    0    0  502    0  0.00000000000E+00  0.00000000000E+00  0.11130863363E+01  0.11130863363E+01  0.00000000000E+00 0.  1.
         -2   -1    0    0    0  501 -0.00000000000E+00 -0.00000000000E+00 -0.58530565369E+03  0.58530565369E+03  0.00000000000E+00 0. -1.
          1    1    1    2  502    0 -0.19335168821E+02  0.15637030417E+02 -0.22597604243E+03  0.22734013554E+03  0.00000000000E+00 0.  1.
         -1    1    1    2    0  501  0.19335168821E+02 -0.15637030417E+02 -0.35821652493E+03  0.35907860449E+03  0.00000000000E+00 0. -1.
</event>
<event>
 4    1  0.6935156E+001  0.3280556E+02  0.7546771E-02  0.1396684E+00
          2   -1    0    0  502    0  0.00000000000E+00  0.00000000000E+00  0.15323301763E+02  0.15323301763E+02  0.00000000000E+00 0.  1.
         -2   -1    0    0    0  501 -0.00000000000E+00 -0.00000000000E+00 -0.73176913811E+02  0.73176913811E+02  0.00000000000E+00 0. -1.
          1    1    1    2  502    0 -0.15655278783E+02  0.28829095276E+02 -0.20051665843E+02  0.38448326248E+02  0.00000000000E+00 0. -1.
         -1    1    1    2    0  501  0.15655278783E+02 -0.28829095276E+02 -0.37801946205E+02  0.50051889326E+02  0.00000000000E+00 0.  1.
</event>
<event>
 4    1  0.6935156E+001  0.4255514E+02  0.7546771E-02  0.1334130E+00
          2   -1    0    0  502    0  0.00000000000E+00  0.00000000000E+00  0.24510613944E+02  0.24510613944E+02  0.00000000000E+00 0. -1.
         -2   -1    0    0    0  501 -0.00000000000E+00 -0.00000000000E+00 -0.16439201756E+03  0.16439201756E+03  0.00000000000E+00 0.  1.
          1    1    1    2  502    0  0.30468989059E+02 -0.29708262855E+02 -0.14002349036E+03  0.14634725153E+03  0.00000000000E+00 0.  1.
         -1    1    1    2    0  501 -0.30468989059E+02  0.29708262855E+02  0.14208674957E+00  0.42555379975E+02  0.00000000000E+00 0. -1.
</event>
<event>
 4    1  0.6935156E+001  0.3068479E+02  0.7546771E-02  0.1413737E+00
          2   -1    0    0  502    0  0.00000000000E+00  0.00000000000E+00  0.49239023047E+03  0.49239023047E+03  0.00000000000E+00 0. -1.
         -2   -1    0    0    0  501 -0.00000000000E+00 -0.00000000000E+00 -0.23935545228E+01  0.23935545228E+01  0.00000000000E+00 0.  1.
          1    1    1    2  502    0 -0.15967972938E+02  0.26202680219E+02  0.13405812670E+03  0.13752504479E+03  0.00000000000E+00 0.  1.
         -1    1    1    2    0  501  0.15967972938E+02 -0.26202680219E+02  0.35593854925E+03  0.35725874021E+03  0.00000000000E+00 0. -1.
</event>
<event>
 4    1  0.6935156E+001  0.3654781E+02  0.7546771E-02  0.1369996E+00
          2   -1    0    0  502    0  0.00000000000E+00  0.00000000000E+00  0.11365333893E+03  0.11365333893E+03  0.00000000000E+00 0. -1.
         -2   -1    0    0    0  501 -0.00000000000E+00 -0.00000000000E+00 -0.14897690960E+02  0.14897690960E+02  0.00000000000E+00 0.  1.
          1    1    1    2  502    0 -0.16861964510E+02 -0.32425559322E+02  0.19846002984E+02  0.41588539033E+02  0.00000000000E+00 0. -1.
         -1    1    1    2    0  501  0.16861964510E+02  0.32425559322E+02  0.78909644991E+02  0.86962490862E+02  0.00000000000E+00 0.  1.
</event>
<event>
 4    1  0.6935156E+001  0.3347386E+02  0.7546771E-02  0.1391622E+00
          2   -1    0    0  502    0  0.00000000000E+00  0.00000000000E+00  0.18762295828E+02  0.18762295828E+02  0.00000000000E+00 0. -1.
         -2   -1    0    0    0  501 -0.00000000000E+00 -0.00000000000E+00 -0.11078636959E+03  0.11078636959E+03  0.00000000000E+00 0.  1.
          1    1    1    2  502    0  0.33473859174E+02 -0.80315027300E-02 -0.20352116806E+01  0.33535673530E+02  0.00000000000E+00 0. -1.
         -1    1    1    2    0  501 -0.33473859174E+02  0.80315027300E-02 -0.89988862082E+02  0.96012991888E+02  0.00000000000E+00 0.  1.
</event>
<event>
 4    1  0.6935156E+001  0.5157285E+02  0.7546771E-02  0.1291493E+00
          2   -1    0    0  502    0  0.00000000000E+00  0.00000000000E+00  0.21629299383E+01  0.21629299383E+01  0.00000000000E+00 0. -1.
         -2   -1    0    0    0  501 -0.00000000000E+00 -0.00000000000E+00 -0.13909405983E+04  0.13909405983E+04  0.00000000000E+00 0.  1.
          1    1    1    2  502    0 -0.50173805171E+02  0.11930984325E+02 -0.93154461242E+03  0.93297112712E+03  0.00000000000E+00 0.  1.
         -1    1    1    2    0  501  0.50173805171E+02 -0.11930984325E+02 -0.45723305591E+03  0.46013240108E+03  0.00000000000E+00 0. -1.
</event>
<event>
 4    1  0.6935156E+001  0.3030995E+02  0.7546771E-02  0.1416922E+00
          2   -1    0    0  502    0  0.00000000000E+00  0.00000000000E+00  0.28213010866E+02  0.28213010866E+02  0.00000000000E+00 0.  1.
         -2   -1    0    0    0  501 -0.00000000000E+00 -0.00000000000E+00 -0.45326540362E+02  0.45326540362E+02  0.00000000000E+00 0. -1.
          1    1    1    2  502    0  0.19465552324E+02  0.23233278862E+02  0.10955364903E+02  0.32229070637E+02  0.00000000000E+00 0.  1.
         -1    1    1    2    0  501 -0.19465552324E+02 -0.23233278862E+02 -0.28068894398E+02  0.41310480591E+02  0.00000000000E+00 0. -1.
</event>
<event>
 4    1  0.6935156E+001  0.6519958E+02  0.7546771E-02  0.1243121E+00
          2   -1    0    0  502    0  0.00000000000E+00  0.00000000000E+00  0.77656918514E+02  0.77656918514E+02  0.00000000000E+00 0. -1.
         -2   -1    0    0    0  501 -0.00000000000E+00 -0.00000000000E+00 -0.58692256230E+02  0.58692256230E+02  0.00000000000E+00 0.  1.
          1    1    1    2  502    0  0.48955893588E+02  0.43061648662E+02 -0.82074537081E+01  0.65714133935E+02  0.00000000000E+00 0. -1.
         -1    1    1    2    0  501 -0.48955893588E+02 -0.43061648662E+02  0.27172115993E+02  0.70635040809E+02  0.00000000000E+00 0.  1.
</event>
<event>
 4    1  0.6935156E+001  0.2150775E+02  0.7546771E-02  0.1512138E+00
          2   -1    0    0  502    0  0.00000000000E+00  0.00000000000E+00  0.11163126696E+03  0.11163126696E+03  0.00000000000E+00 0. -1.
         -2   -1    0    0    0  501 -0.00000000000E+00 -0.00000000000E+00 -0.45936264739E+01  0.45936264739E+01  0.00000000000E+00 0.  1.
          1    1    1    2  502    0  0.19569550884E+02  0.89227768728E+01  0.71702823576E+02  0.74859055415E+02  0.00000000000E+00 0. -1.
         -1    1    1    2    0  501 -0.19569550884E+02 -0.89227768728E+01  0.35334816910E+02  0.41365838019E+02  0.00000000000E+00 0.  1.
</event>
<event>
 4    1  0.6935156E+001  0.2786373E+02  0.7546771E-02  0.1439120E+00
          2   -1    0    0  502    0  0.00000000000E+00  0.00000000000E+00  0.16439259583E+04  0.16439259583E+04  0.00000000000E+00 0.  1.
         -2   -1    0    0    0  501 -0.00000000000E+00 -0.00000000000E+00 -0.57416911861E+00  0.57416911861E+00  0.00000000000E+00 0. -1.
          1    1    1    2  502    0  0.23031389294E+02 -0.15682554419E+02  0.11680581305E+04  0.11683904243E+04  0.00000000000E+00 0.  1.
         -1    1    1    2    0  501 -0.23031389294E+02  0.15682554419E+02  0.47529365873E+03  0.47610970315E+03  0.00000000000E+00 0. -1.
</event>
<event>
 4    1  0.6935156E+001  0.2328378E+02  0.7546771E-02  0.1488965E+00
          2   -1    0    0  502    0  0.00000000000E+00  0.00000000000E+00  0.69735375200E+02  0.69735375200E+02  0.00000000000E+00 0.  1.
         -2   -1    0    0    0  501 -0.00000000000E+00 -0.00000000000E+00 -0.10589479182E+02  0.10589479182E+02  0.00000000000E+00 0. -1.
          1    1    1    2  502    0  0.13281832883E+02 -0.19123994389E+02  0.88645664234E+01  0.24914148270E+02  0.00000000000E+00 0. -1.
         -1    1    1    2    0  501 -0.13281832883E+02  0.19123994389E+02  0.50281329594E+02  0.55410706113E+02  0.00000000000E+00 0.  1.
</event>
<event>
 4    1  0.6935156E+001  0.3523664E+02  0.7546771E-02  0.1378907E+00
          2   -1    0    0  502    0  0.00000000000E+00  0.00000000000E+00  0.90178567145E+00  0.90178567145E+00  0.00000000000E+00 0.  1.
         -2   -1    0    0    0  501 -0.00000000000E+00 -0.00000000000E+00 -0.14118486849E+04  0.14118486849E+04  0.00000000000E+00 0. -1.
          1    1    1    2  502    0  0.22756562388E+02 -0.26902779019E+02 -0.59425225544E+03  0.59529603035E+03  0.00000000000E+00 0. -1.
         -1    1    1    2    0  501 -0.22756562388E+02  0.26902779019E+02 -0.81669464374E+03  0.81745444018E+03  0.00000000000E+00 0.  1.
</event>
<event>
 4    1  0.6935156E+001  0.2531012E+02  0.7546771E-02  0.1465364E+00
          2   -1    0    0  502    0  0.00000000000E+00  0.00000000000E+00  0.75372314740E+02  0.75372314740E+02  0.00000000000E+00 0.  1.
         -2   -1    0    0    0  501 -0.00000000000E+00 -0.00000000000E+00 -0.12066538682E+02  0.12066538682E+02  0.00000000000E+00 0. -1.
          1    1    1    2  502    0  0.24506020062E+02 -0.63290839069E+01  0.78813689821E+01  0.26508834366E+02  0.00000000000E+00 0. -1.
         -1    1    1    2    0  501 -0.24506020062E+02  0.63290839069E+01  0.55424407077E+02  0.60930019056E+02  0.00000000000E+00 0.  1.
</event>
<event>
 4    1  0.6935156E+001  0.2050312E+02  0.7546771E-02  0.1526479E+00
          2   -1    0    0  502    0  0.00000000000E+00  0.00000000000E+00  0.56640673508E+03  0.56640673508E+03  0.00000000000E+00 0.  1.
         -2   -1    0    0    0  501 -0.00000000000E+00 -0.00000000000E+00 -0.94748094033E+00  0.94748094033E+00  0.00000000000E+00 0. -1.
          1    1    1    2  502    0 -0.12565852862E+02  0.16201150104E+02  0.15068204218E+03  0.15207056178E+03  0.00000000000E+00 0. -1.
         -1    1    1    2    0  501  0.12565852862E+02 -0.16201150104E+02  0.41477721196E+03  0.41528365425E+03  0.00000000000E+00 0.  1.
</event>
<event>
 4    1  0.6935156E+001  0.2530985E+02  0.7546771E-02  0.1465367E+00
          2   -1    0    0  502    0  0.00000000000E+00  0.00000000000E+00  0.41757569111E+03  0.41757569111E+03  0.00000000000E+00 0. -1.
         -2   -1    0    0    0  501 -0.00000000000E+00 -0.00000000000E+00 -0.17650628187E+01  0.17650628187E+01  0.00000000000E+00 0.  1.
          1    1    1    2  502    0  0.12686180916E+02 -0.21900896061E+02  0.28375617649E+03  0.28488270592E+03  0.00000000000E+00 0. -1.
         -1    1    1    2    0  501 -0.12686180916E+02  0.21900896061E+02  0.13205445180E+03  0.13445804801E+03  0.00000000000E+00 0.  1.
</event>
<event>
 4    1  0.6935156E+001  0.2215225E+02  0.7546771E-02  0.1503427E+00
          2   -1    0    0  502    0  0.00000000000E+00  0.00000000000E+00  0.15346775389E+04  0.15346775389E+04  0.00000000000E+00 0.  1.
         -2   -1    0    0    0  501 -0.00000000000E+00 -0.00000000000E+00 -0.34394823532E+00  0.34394823532E+00  0.00000000000E+00 0. -1.
          1    1    1    2  502    0  0.10167140570E+02  0.19681248418E+02  0.97071922797E+03  0.97097195728E+03  0.00000000000E+00 0. -1.
         -1    1    1    2    0  501 -0.10167140570E+02 -0.19681248418E+02  0.56361436272E+03  0.56404952987E+03  0.00000000000E+00 0.  1.
</event>
<event>
 4    1  0.6935156E+001  0.2140472E+02  0.7546771E-02  0.1513564E+00
          2   -1    0    0  502    0  0.00000000000E+00  0.00000000000E+00  0.73864622054E+01  0.73864622054E+01  0.00000000000E+00 0.  1.
         -2   -1    0    0    0  501 -0.00000000000E+00 -0.00000000000E+00 -0.73565105039E+02  0.73565105039E+02  0.00000000000E+00 0. -1.
          1    1    1    2  502    0  0.20600231296E+02 -0.58131198006E+01 -0.49118895891E+02  0.53580106615E+02  0.00000000000E+00 0.  1.
         -1    1    1    2    0  501 -0.20600231296E+02  0.58131198006E+01 -0.17059746942E+02  0.27371460629E+02  0.00000000000E+00 0. -1.
</event>
<event>
 4    1  0.6935156E+001  0.2313554E+02  0.7546771E-02  0.1490803E+00
          2   -1    0    0  502    0  0.00000000000E+00  0.00000000000E+00  0.49757153604E+03  0.49757153604E+03  0.00000000000E+00 0.  1.
         -2   -1    0    0    0  501 -0.00000000000E+00 -0.00000000000E+00 -0.10879946811E+01  0.10879946811E+01  0.00000000000E+00 0. -1.
          1    1    1    2  502    0  0.23060940793E+02  0.18563493109E+01  0.22177049737E+03  0.22297400415E+03  0.00000000000E+00 0. -1.
         -1    1    1    2    0  501 -0.23060940793E+02 -0.18563493109E+01  0.27471304398E+03  0.27568552656E+03  0.00000000000E+00 0.  1.
</event>
<event>
 4    1  0.6935156E+001  0.2150900E+02  0.7546771E-02  0.1512120E+00
          2   -1    0    0  502    0  0.00000000000E+00  0.00000000000E+00  0.90478562354E+02  0.90478562354E+02  0.00000000000E+00 0.  1.
         -2   -1    0    0    0  501 -0.00000000000E+00 -0.00000000000E+00 -0.83720990789E+01  0.83720990789E+01  0.00000000000E+00 0. -1.
          1    1    1    2  502    0 -0.34844614806E+01 -0.21224884090E+02  0.10216648757E+02  0.23812120617E+02  0.00000000000E+00 0.  1.
         -1    1    1    2    0  501  0.34844614806E+01  0.21224884090E+02  0.71889814517E+02  0.75038540816E+02  0.00000000000E+00 0. -1.
</event>
<event>
 4    1  0.6935156E+001  0.7676553E+02  0.7546771E-02  0.1211562E+00
          2   -1    0    0  502    0  0.00000000000E+00  0.00000000000E+00  0.43099911122E+03  0.43099911122E+03  0.00000000000E+00 0. -1.
         -2   -1    0    0    0  501 -0.00000000000E+00 -0.00000000000E+00 -0.20387449582E+02  0.20387449582E+02  0.00000000000E+00 0.  1.
          1    1    1    2  502    0  0.33486787452E+02 -0.69076633633E+02  0.33482982727E+03  0.34351704394E+03  0.00000000000E+00 0. -1.
         -1    1    1    2    0  501 -0.33486787452E+02  0.69076633633E+02  0.75781834373E+02  0.10786951687E+03  0.00000000000E+00 0.  1.
</event>
<event>
 4    1  0.6935156E+001  0.2235282E+02  0.7546771E-02  0.1500789E+00
          2   -1    0    0  502    0  0.00000000000E+00  0.00000000000E+00  0.23160679481E+02  0.23160679481E+02  0.00000000000E+00 0.  1.
         -2   -1    0    0    0  501 -0.00000000000E+00 -0.00000000000E+00 -0.21603843780E+02  0.21603843780E+02  0.00000000000E+00 0. -1.
          1    1    1    2  502    0 -0.67054441633E+01  0.21323361550E+02 -0.65284168230E-01  0.22352919077E+02  0.00000000000E+00 0. -1.
         -1    1    1    2    0  501  0.67054441633E+01 -0.21323361550E+02  0.16221198688E+01  0.22411604184E+02  0.00000000000E+00 0.  1.
</event>
<event>
 4    1  0.6935156E+001  0.2322076E+02  0.7546771E-02  0.1489745E+00
          2   -1    0    0  502    0  0.00000000000E+00  0.00000000000E+00  0.15959082635E+03  0.15959082635E+03  0.00000000000E+00 0.  1.
         -2   -1    0    0    0  501 -0.00000000000E+00 -0.00000000000E+00 -0.33786719957E+01  0.33786719957E+01  0.00000000000E+00 0. -1.
          1    1    1    2  502    0  0.12300675287E+02  0.19695101121E+02  0.78239011956E+02  0.81612171963E+02  0.00000000000E+00 0. -1.
         -1    1    1    2    0  501 -0.12300675287E+02 -0.19695101121E+02  0.77973142400E+02  0.81357326384E+02  0.00000000000E+00 0.  1.
</event>
<event>
 4    1  0.6935156E+001  0.2062112E+02  0.7546771E-02  0.1524744E+00
          2   -1    0    0  502    0  0.00000000000E+00  0.00000000000E+00  0.27225293065E+03  0.27225293065E+03  0.00000000000E+00 0.  1.
         -2   -1    0    0    0  501 -0.00000000000E+00 -0.00000000000E+00 -0.19480448820E+01  0.19480448820E+01  0.00000000000E+00 0. -1.
          1    1    1    2  502    0  0.15046234545E+02 -0.14101111459E+02  0.19619284945E+03  0.19727357829E+03  0.00000000000E+00 0. -1.
         -1    1    1    2    0  501 -0.15046234545E+02  0.14101111459E+02  0.74112036323E+02  0.76927397241E+02  0.00000000000E+00 0.  1.
</event>
<event>
 4    1  0.6935156E+001  0.3598418E+02  0.7546771E-02  0.1373773E+00
          2   -1    0    0  502    0  0.00000000000E+00  0.00000000000E+00  0.75910821413E+02  0.75910821413E+02  0.00000000000E+00 0.  1.
         -2   -1    0    0    0  501 -0.00000000000E+00 -0.00000000000E+00 -0.10270720865E+03  0.10270720865E+03  0.00000000000E+00 0. -1.
          1    1    1    2  502    0  0.21885030435E+02 -0.28564080955E+02  0.68158078452E+02  0.77073892702E+02  0.00000000000E+00 0.  1.
         -1    1    1    2    0  501 -0.21885030435E+02  0.28564080955E+02 -0.94954465687E+02  0.10154413736E+03  0.00000000000E+00 0. -1.
</event>
<event>
 4    1  0.6935156E+001  0.4938943E+02  0.7546771E-02  0.1300842E+00
          2   -1    0    0  502    0  0.00000000000E+00  0.00000000000E+00  0.26275213334E+02  0.26275213334E+02  0.00000000000E+00 0.  1.
         -2   -1    0    0    0  501 -0.00000000000E+00 -0.00000000000E+00 -0.97590481994E+02  0.97590481994E+02  0.00000000000E+00 0. -1.
          1    1    1    2  502    0  0.14098374207E+02  0.47334469206E+02 -0.21989286283E+02  0.54063341014E+02  0.00000000000E+00 0.  1.
         -1    1    1    2    0  501 -0.14098374207E+02 -0.47334469206E+02 -0.49325982376E+02  0.69802354314E+02  0.00000000000E+00 0. -1.
</event>
<event>
 4    1  0.6935156E+001  0.2005397E+02  0.7546771E-02  0.1533212E+00
          2   -1    0    0  502    0  0.00000000000E+00  0.00000000000E+00  0.88593635118E+02  0.88593635118E+02  0.00000000000E+00 0. -1.
         -2   -1    0    0    0  501 -0.00000000000E+00 -0.00000000000E+00 -0.50563955841E+01  0.50563955841E+01  0.00000000000E+00 0.  1.
          1    1    1    2  502    0 -0.12679251950E+02  0.15537003455E+02  0.26795888934E+02  0.33469113674E+02  0.00000000000E+00 0.  1.
         -1    1    1    2    0  501  0.12679251950E+02 -0.15537003455E+02  0.56741350600E+02  0.60180917028E+02  0.00000000000E+00 0. -1.
</event>
<event>
 4    1  0.6935156E+001  0.2407983E+02  0.7546771E-02  0.1479366E+00
          2   -1    0    0  502    0  0.00000000000E+00  0.00000000000E+00  0.17535998594E+03  0.17535998594E+03  0.00000000000E+00 0.  1.
         -2   -1    0    0    0  501 -0.00000000000E+00 -0.00000000000E+00 -0.46218047634E+01  0.46218047634E+01  0.00000000000E+00 0. -1.
          1    1    1    2  502    0 -0.21865076734E+02  0.10087451951E+02  0.37363025415E+02  0.44450353605E+02  0.00000000000E+00 0. -1.
         -1    1    1    2    0  501  0.21865076734E+02 -0.10087451951E+02  0.13337515576E+03  0.13553143710E+03  0.00000000000E+00 0.  1.
</event>
<event>
 4    1  0.6935156E+001  0.3101460E+02  0.7546771E-02  0.1410980E+00
          2   -1    0    0  502    0  0.00000000000E+00  0.00000000000E+00  0.58249827995E+03  0.58249827995E+03  0.00000000000E+00 0.  1.
         -2   -1    0    0    0  501 -0.00000000000E+00 -0.00000000000E+00 -0.16603508902E+01  0.16603508902E+01  0.00000000000E+00 0. -1.
          1    1    1    2  502    0  0.30318803503E+02 -0.65326574202E+01  0.31193047696E+03  0.31346854374E+03  0.00000000000E+00 0.  1.
         -1    1    1    2    0  501 -0.30318803503E+02  0.65326574202E+01  0.26890745211E+03  0.27069008710E+03  0.00000000000E+00 0. -1.
</event>
<event>
 4    1  0.6935156E+001  0.3264534E+02  0.7546771E-02  0.1397918E+00
          2   -1    0    0  502    0  0.00000000000E+00  0.00000000000E+00  0.16266317462E+03  0.16266317462E+03  0.00000000000E+00 0. -1.
         -2   -1    0    0    0  501 -0.00000000000E+00 -0.00000000000E+00 -0.66460632655E+01  0.66460632655E+01  0.00000000000E+00 0.  1.
          1    1    1    2  502    0  0.32627929240E+02 -0.10661682338E+01  0.67920768014E+02  0.75358803127E+02  0.00000000000E+00 0.  1.
         -1    1    1    2    0  501 -0.32627929240E+02  0.10661682338E+01  0.88096343339E+02  0.93950434757E+02  0.00000000000E+00 0. -1.
</event>
<event>
 4    1  0.6935156E+001  0.3029177E+02  0.7546771E-02  0.1417077E+00
          2   -1    0    0  502    0  0.00000000000E+00  0.00000000000E+00  0.19711708584E+01  0.19711708584E+01  0.00000000000E+00 0. -1.
         -2   -1    0    0    0  501 -0.00000000000E+00 -0.00000000000E+00 -0.63027894257E+03  0.63027894257E+03  0.00000000000E+00 0.  1.
          1    1    1    2  502    0 -0.43050896958E+00  0.30288715292E+02 -0.15251880043E+03  0.15549783309E+03  0.00000000000E+00 0. -1.
         -1    1    1    2    0  501  0.43050896958E+00 -0.30288715292E+02 -0.47578897128E+03  0.47675228034E+03  0.00000000000E+00 0.  1.
</event>
<event>
 4    1  0.6935156E+001  0.2027383E+02  0.7546771E-02  0.1529890E+00
          2   -1    0    0  502    0  0.00000000000E+00  0.00000000000E+00  0.37631740552E+03  0.37631740552E+03  0.00000000000E+00 0.  1.
         -2   -1    0    0    0  501 -0.00000000000E+00 -0.00000000000E+00 -0.17060736360E+01  0.17060736360E+01  0.00000000000E+00 0. -1.
          1    1    1    2  502    0  0.20101053983E+02  0.26411826124E+01  0.73931031850E+02  0.76660457129E+02  0.00000000000E+00 0. -1.
         -1    1    1    2    0  501 -0.20101053983E+02 -0.26411826124E+01  0.30068030004E+03  0.30136302203E+03  0.00000000000E+00 0.  1.
</event>
<event>
 4    1  0.6935156E+001  0.2406800E+02  0.7546771E-02  0.1479506E+00
          2   -1    0    0  502    0  0.00000000000E+00  0.00000000000E+00  0.59197581655E+03  0.59197581655E+03  0.00000000000E+00 0. -1.
         -2   -1    0    0    0  501 -0.00000000000E+00 -0.00000000000E+00 -0.21371919908E+01  0.21371919908E+01  0.00000000000E+00 0.  1.
          1    1    1    2  502    0 -0.20040348717E+02 -0.13328649274E+02  0.76196074501E+02  0.79906884794E+02  0.00000000000E+00 0.  1.
         -1    1    1    2    0  501  0.20040348717E+02  0.13328649274E+02  0.51364255006E+03  0.51420612375E+03  0.00000000000E+00 0. -1.
</event>
<event>
 4    1  0.6935156E+001  0.2141118E+02  0.7546771E-02  0.1513474E+00
          2   -1    0    0  502    0  0.00000000000E+00  0.00000000000E+00  0.65434205267E+03  0.65434205267E+03  0.00000000000E+00 0.  1.
         -2   -1    0    0    0  501 -0.00000000000E+00 -0.00000000000E+00 -0.11783797812E+01  0.11783797812E+01  0.00000000000E+00 0. -1.
          1    1    1    2  502    0 -0.13028078281E+02  0.16991409713E+02  0.53528198911E+03  0.53571003975E+03  0.00000000000E+00 0.  1.
         -1    1    1    2    0  501  0.13028078281E+02 -0.16991409713E+02  0.11788168378E+03  0.11981039270E+03  0.00000000000E+00 0. -1.
</event>
<event>
 4    1  0.6935156E+001  0.3411485E+02  0.7546771E-02  0.1386895E+00
          2   -1    0    0  502    0  0.00000000000E+00  0.00000000000E+00  0.21507076281E+03  0.21507076281E+03  0.00000000000E+00 0. -1.
         -2   -1    0    0    0  501 -0.00000000000E+00 -0.00000000000E+00 -0.10344603538E+02  0.10344603538E+02  0.00000000000E+00 0.  1.
          1    1    1    2  502    0 -0.13289049002E+02 -0.31420123463E+02  0.24530154216E+02  0.42018465556E+02  0.00000000000E+00 0.  1.
         -1    1    1    2    0  501  0.13289049002E+02  0.31420123463E+02  0.18019600505E+03  0.18339690079E+03  0.00000000000E+00 0. -1.
</event>
<event>
 4    1  0.6935156E+001  0.2101808E+02  0.7546771E-02  0.1519007E+00
          2   -1    0    0  502    0  0.00000000000E+00  0.00000000000E+00  0.18072708949E+04  0.18072708949E+04  0.00000000000E+00 0.  1.
         -2   -1    0    0    0  501 -0.00000000000E+00 -0.00000000000E+00 -0.46602064203E+00  0.46602064203E+00  0.00000000000E+00 0. -1.
          1    1    1    2  502    0 -0.26833147889E+01 -0.20846086879E+02  0.15266690542E+04  0.15268137282E+04  0.00000000000E+00 0.  1.
         -1    1    1    2    0  501  0.26833147889E+01  0.20846086879E+02  0.28013582010E+03  0.28092318740E+03  0.00000000000E+00 0. -1.
</event>
<event>
 4    1  0.6935156E+001  0.2289939E+02  0.7546771E-02  0.1493765E+00
          2   -1    0    0  502    0  0.00000000000E+00  0.00000000000E+00  0.34217602281E+02  0.34217602281E+02  0.00000000000E+00 0.  1.
         -2   -1    0    0    0  501 -0.00000000000E+00 -0.00000000000E+00 -0.15459081879E+02  0.15459081879E+02  0.00000000000E+00 0. -1.
          1    1    1    2  502    0 -0.80970102782E+01  0.21420095373E+02  0.11693153104E+02  0.25712096195E+02  0.00000000000E+00 0. -1.
         -1    1    1    2    0  501  0.80970102782E+01 -0.21420095373E+02  0.70653672987E+01  0.23964587965E+02  0.00000000000E+00 0.  1.
</event>
<event>
 4    1  0.6935156E+001  0.2704429E+02  0.7546771E-02  0.1447164E+00
          2   -1    0    0  502    0  0.00000000000E+00  0.00000000000E+00  0.66115597499E+02  0.66115597499E+02  0.00000000000E+00 0.  1.
         -2   -1    0    0    0  501 -0.00000000000E+00 -0.00000000000E+00 -0.14048392577E+02  0.14048392577E+02  0.00000000000E+00 0. -1.
          1    1    1    2  502    0 -0.17938196891E+02 -0.20238939823E+02  0.75543530862E+01  0.28079562735E+02  0.00000000000E+00 0. -1.
         -1    1    1    2    0  501  0.17938196891E+02  0.20238939823E+02  0.44512851836E+02  0.52084427341E+02  0.00000000000E+00 0.  1.
</event>
<event>
 4    1  0.6935156E+001  0.2299716E+02  0.7546771E-02  0.1492534E+00
          2   -1    0    0  502    0  0.00000000000E+00  0.00000000000E+00  0.17065571280E+04  0.17065571280E+04  0.00000000000E+00 0.  1.
         -2   -1    0    0    0  501 -0.00000000000E+00 -0.00000000000E+00 -0.51185976987E+00  0.51185976987E+00  0.00000000000E+00 0. -1.
          1    1    1    2  502    0 -0.14802970298E+02  0.17599466449E+02  0.31688839701E+03  0.31772177342E+03  0.00000000000E+00 0. -1.
         -1    1    1    2    0  501  0.14802970298E+02 -0.17599466449E+02  0.13891568712E+04  0.13893472143E+04  0.00000000000E+00 0.  1.
</event>
<event>
 4    1  0.6935156E+001  0.2676623E+02  0.7546771E-02  0.1449971E+00
          2   -1    0    0  502    0  0.00000000000E+00  0.00000000000E+00  0.60434283834E+00  0.60434283834E+00  0.00000000000E+00 0. -1.
         -2   -1    0    0    0  501 -0.00000000000E+00 -0.00000000000E+00 -0.15228143801E+04  0.15228143801E+04  0.00000000000E+00 0.  1.
          1    1    1    2  502    0  0.11760790167E+02 -0.24044024399E+02 -0.40259483729E+03  0.40348362335E+03  0.00000000000E+00 0. -1.
         -1    1    1    2    0  501 -0.11760790167E+02  0.24044024399E+02 -0.11196152000E+04  0.11199350996E+04  0.00000000000E+00 0.  1.
</event>
<event>
 4    1  0.6935156E+001  0.2078327E+02  0.7546771E-02  0.1522382E+00
          2   -1    0    0  502    0  0.00000000000E+00  0.00000000000E+00  0.11174560913E+03  0.11174560913E+03  0.00000000000E+00 0.  1.
         -2   -1    0    0    0  501 -0.00000000000E+00 -0.00000000000E+00 -0.45721787643E+01  0.45721787643E+01  0.00000000000E+00 0. -1.
          1    1    1    2  502    0  0.20771561594E+02  0.69741788285E+00  0.30720783543E+02  0.37090574331E+02  0.00000000000E+00 0. -1.
         -1    1    1    2    0  501 -0.20771561594E+02 -0.69741788285E+00  0.76452646826E+02  0.79227213566E+02  0.00000000000E+00 0.  1.
</event>
<event>
 4    1  0.6935156E+001  0.2584435E+02  0.7546771E-02  0.1459575E+00
          2   -1    0    0  502    0  0.00000000000E+00  0.00000000000E+00  0.11854586381E+03  0.11854586381E+03  0.00000000000E+00 0. -1.
         -2   -1    0    0    0  501 -0.00000000000E+00 -0.00000000000E+00 -0.56481140488E+01  0.56481140488E+01  0.00000000000E+00 0.  1.
          1    1    1    2  502    0 -0.15052938327E+00  0.25843909665E+02  0.59512957318E+02  0.64882373682E+02  0.00000000000E+00 0. -1.
         -1    1    1    2    0  501  0.15052938327E+00 -0.25843909665E+02  0.53384792444E+02  0.59311604178E+02  0.00000000000E+00 0.  1.
</event>
<event>
 4    1  0.6935156E+001  0.3795730E+02  0.7546771E-02  0.1360890E+00
          2   -1    0    0  502    0  0.00000000000E+00  0.00000000000E+00  0.22698757716E+03  0.22698757716E+03  0.00000000000E+00 0.  1.
         -2   -1    0    0    0  501 -0.00000000000E+00 -0.00000000000E+00 -0.64080838735E+01  0.64080838735E+01  0.00000000000E+00 0. -1.
          1    1    1    2  502    0  0.36155125003E+02  0.11556954962E+02  0.98923319298E+02  0.10595555376E+03  0.00000000000E+00 0. -1.
         -1    1    1    2    0  501 -0.36155125003E+02 -0.11556954962E+02  0.12165617399E+03  0.12744010727E+03  0.00000000000E+00 0.  1.
</event>
<event>
 4    1  0.6935156E+001  0.4876544E+02  0.7546771E-02  0.1303616E+00
          2   -1    0    0  502    0  0.00000000000E+00  0.00000000000E+00  0.45058955170E+03  0.45058955170E+03  0.00000000000E+00 0. -1.
         -2   -1    0    0    0  501 -0.00000000000E+00 -0.00000000000E+00 -0.58975723418E+01  0.58975723418E+01  0.00000000000E+00 0.  1.
          1    1    1    2  502    0 -0.10003266241E+02 -0.47728430415E+02  0.14834810541E+03  0.15615770485E+03  0.00000000000E+00 0.  1.
         -1    1    1    2    0  501  0.10003266241E+02  0.47728430415E+02  0.29634387394E+03  0.30032941919E+03  0.00000000000E+00 0. -1.
</event>
<event>
 4    1  0.6935156E+001  0.2122810E+02  0.7546771E-02  0.1516033E+00
          2   -1    0    0  502    0  0.00000000000E+00  0.00000000000E+00  0.15265418187E+04  0.15265418187E+04  0.00000000000E+00 0.  1.
         -2   -1    0    0    0  501 -0.00000000000E+00 -0.00000000000E+00 -0.30724219393E+00  0.30724219393E+00  0.00000000000E+00 0. -1.
          1    1    1    2  502    0  0.11286854018E+02 -0.17978849626E+02  0.91426945138E+03  0.91451586199E+03  0.00000000000E+00 0.  1.
         -1    1    1    2    0  501 -0.11286854018E+02  0.17978849626E+02  0.61196512518E+03  0.61233319895E+03  0.00000000000E+00 0. -1.
</event>
<event>
 4    1  0.6935156E+001  0.2389395E+02  0.7546771E-02  0.1481568E+00
          2   -1    0    0  502    0  0.00000000000E+00  0.00000000000E+00  0.18159190508E+04  0.18159190508E+04  0.00000000000E+00 0.  1.
         -2   -1    0    0    0  501 -0.00000000000E+00 -0.00000000000E+00 -0.37714448232E+00  0.37714448232E+00  0.00000000000E+00 0. -1.
          1    1    1    2  502    0  0.63940512763E+01  0.23022535196E+02  0.53734785457E+03  0.53787883193E+03  0.00000000000E+00 0. -1.
         -1    1    1    2    0  501 -0.63940512763E+01 -0.23022535196E+02  0.12781940517E+04  0.12784173633E+04  0.00000000000E+00 0.  1.
</event>
<event>
 4    1  0.6935156E+001  0.3356570E+02  0.7546771E-02  0.1390937E+00
          2   -1    0    0  502    0  0.00000000000E+00  0.00000000000E+00  0.98131266606E+02  0.98131266606E+02  0.00000000000E+00 0.  1.
         -2   -1    0    0    0  501 -0.00000000000E+00 -0.00000000000E+00 -0.11493694298E+02  0.11493694298E+02  0.00000000000E+00 0. -1.
          1    1    1    2  502    0 -0.33565662205E+02 -0.53541377580E-01  0.45131981539E+02  0.56245464738E+02  0.00000000000E+00 0.  1.
         -1    1    1    2    0  501  0.33565662205E+02  0.53541377580E-01  0.41505590769E+02  0.53379496166E+02  0.00000000000E+00 0. -1.
</event>
<event>
 4    1  0.6935156E+001  0.3260200E+02  0.7546771E-02  0.1398254E+00
          2   -1    0    0  502    0  0.00000000000E+00  0.00000000000E+00  0.49729222093E+02  0.49729222093E+02  0.00000000000E+00 0. -1.
         -2   -1    0    0    0  501 -0.00000000000E+00 -0.00000000000E+00 -0.24303101199E+02  0.24303101199E+02  0.00000000000E+00 0.  1.
          1    1    1    2  502    0  0.24371103257E+02 -0.21655023174E+02  0.25564744978E+02  0.41430023997E+02  0.00000000000E+00 0. -1.
         -1    1    1    2    0  501 -0.24371103257E+02  0.21655023174E+02 -0.13862408422E+00  0.32602299294E+02  0.00000000000E+00 0.  1.
</event>
<event>
 4    1  0.6935156E+001  0.3286138E+02  0.7546771E-02  0.1396256E+00
          2   -1    0    0  502    0  0.00000000000E+00  0.00000000000E+00  0.10536425018E+04  0.10536425018E+04  0.00000000000E+00 0.  1.
         -2   -1    0    0    0  501 -0.00000000000E+00 -0.00000000000E+00 -0.11703973267E+01  0.11703973267E+01  0.00000000000E+00 0. -1.
          1    1    1    2  502    0 -0.67572073009E+01  0.32159137882E+02  0.34027675435E+03  0.34185982442E+03  0.00000000000E+00 0. -1.
         -1    1    1    2    0  501  0.67572073009E+01 -0.32159137882E+02  0.71219535008E+03  0.71295307467E+03  0.00000000000E+00 0.  1.
</event>
<event>
 4    1  0.6935156E+001  0.2546794E+02  0.7546771E-02  0.1463636E+00
          2   -1    0    0  502    0  0.00000000000E+00  0.00000000000E+00  0.45768149749E+01  0.45768149749E+01  0.00000000000E+00 0. -1.
         -2   -1    0    0    0  501 -0.00000000000E+00 -0.00000000000E+00 -0.11252070223E+04  0.11252070223E+04  0.00000000000E+00 0.  1.
          1    1    1    2  502    0  0.10004836474E+02  0.23420487951E+02 -0.32193474802E+02  0.41049187916E+02  0.00000000000E+00 0. -1.
         -1    1    1    2    0  501 -0.10004836474E+02 -0.23420487951E+02 -0.10884367325E+04  0.10887346494E+04  0.00000000000E+00 0.  1.
</event>
<event>
 4    1  0.6935156E+001  0.2406994E+02  0.7546771E-02  0.1479483E+00
          2   -1    0    0  502    0  0.00000000000E+00  0.00000000000E+00  0.23344112386E+03  0.23344112386E+03  0.00000000000E+00 0.  1.
         -2   -1    0    0    0  501 -0.00000000000E+00 -0.00000000000E+00 -0.27706933670E+01  0.27706933670E+01  0.00000000000E+00 0. -1.
          1    1    1    2  502    0 -0.21583723357E+02 -0.10653859810E+02  0.15347001824E+03  0.15534609213E+03  0.00000000000E+00 0.  1.
         -1    1    1    2    0  501  0.21583723357E+02  0.10653859810E+02  0.77200412257E+02  0.80865725096E+02  0.00000000000E+00 0. -1.
</event>
<event>
 4    1  0.6935156E+001  0.8484079E+02  0.7546771E-02  0.1193034E+00
          2   -1    0    0  502    0  0.00000000000E+00  0.00000000000E+00  0.10412165532E+04  0.10412165532E+04  0.00000000000E+00 0. -1.
         -2   -1    0    0    0  501 -0.00000000000E+00 -0.00000000000E+00 -0.48255929558E+02  0.48255929558E+02  0.00000000000E+00 0.  1.
          1    1    1    2  502    0 -0.82732439800E+02 -0.18796337201E+02  0.10006902542E+04  0.10042803113E+04  0.00000000000E+00 0. -1.
         -1    1    1    2    0  501  0.82732439800E+02  0.18796337201E+02 -0.77296305332E+01  0.85192171446E+02  0.00000000000E+00 0.  1.
</event>
<event>
 4    1  0.6935156E+001  0.3687554E+02  0.7546771E-02  0.1367836E+00
          2   -1    0    0  502    0  0.00000000000E+00  0.00000000000E+00  0.47414335384E+02  0.47414335384E+02  0.00000000000E+00 0. -1.
         -2   -1    0    0    0  501 -0.00000000000E+00 -0.00000000000E+00 -0.37558832851E+02  0.37558832851E+02  0.00000000000E+00 0.  1.
          1    1    1    2  502    0 -0.57127173399E+01  0.36430351955E+02 -0.15730475049E+02  0.40090566574E+02  0.00000000000E+00 0.  1.
         -1    1    1    2    0  501  0.57127173399E+01 -0.36430351955E+02  0.25585977583E+02  0.44882601661E+02  0.00000000000E+00 0. -1.
</event>
<event>
 4    1  0.6935156E+001  0.4039365E+02  0.7546771E-02  0.1346194E+00
          2   -1    0    0  502    0  0.00000000000E+00  0.00000000000E+00  0.49166857183E+02  0.49166857183E+02  0.00000000000E+00 0.  1.
         -2   -1    0    0    0  501 -0.00000000000E+00 -0.00000000000E+00 -0.33276050717E+02  0.33276050717E+02  0.00000000000E+00 0. -1.
          1    1    1    2  502    0  0.38743207048E+01 -0.40207424047E+02  0.58000553102E+01  0.40807939804E+02  0.00000000000E+00 0. -1.
         -1    1    1    2    0  501 -0.38743207048E+01  0.40207424047E+02  0.10090751157E+02  0.41634968096E+02  0.00000000000E+00 0.  1.
</event>
<event>
 4    1  0.6935156E+001  0.3256651E+02  0.7546771E-02  0.1398529E+00
          2   -1    0    0  502    0  0.00000000000E+00  0.00000000000E+00  0.42004798317E+01  0.42004798317E+01  0.00000000000E+00 0.  1.
         -2   -1    0    0    0  501 -0.00000000000E+00 -0.00000000000E+00 -0.41774629138E+03  0.41774629138E+03  0.00000000000E+00 0. -1.
          1    1    1    2  502    0 -0.32565568715E+02  0.24781409010E+00 -0.74079044045E+02  0.80921458491E+02  0.00000000000E+00 0.  1.
         -1    1    1    2    0  501  0.32565568715E+02 -0.24781409010E+00 -0.33946676750E+03  0.34102531272E+03  0.00000000000E+00 0. -1.
</event>
<event>
 4    1  0.6935156E+001  0.2316962E+02  0.7546771E-02  0.1490379E+00
          2   -1    0    0  502    0  0.00000000000E+00  0.00000000000E+00  0.68934768383E+03  0.68934768383E+03  0.00000000000E+00 0. -1.
         -2   -1    0    0    0  501 -0.00000000000E+00 -0.00000000000E+00 -0.82780577300E+00  0.82780577300E+00  0.00000000000E+00 0.  1.
          1    1    1    2  502    0  0.23152544447E+02  0.88949593509E+00  0.26025642102E+03  0.26128573669E+03  0.00000000000E+00 0. -1.
         -1    1    1    2    0  501 -0.23152544447E+02 -0.88949593509E+00  0.42826345705E+03  0.42888975292E+03  0.00000000000E+00 0.  1.
</event>
<event>
 4    1  0.6935156E+001  0.3637840E+02  0.7546771E-02  0.1371123E+00
          2   -1    0    0  502    0  0.00000000000E+00  0.00000000000E+00  0.66541821815E+03  0.66541821815E+03  0.00000000000E+00 0. -1.
         -2   -1    0    0    0  501 -0.00000000000E+00 -0.00000000000E+00 -0.41323590062E+01  0.41323590062E+01  0.00000000000E+00 0.  1.
          1    1    1    2  502    0  0.43082337618E+01  0.36122387926E+02  0.57175640215E+03  0.57291253362E+03  0.00000000000E+00 0. -1.
         -1    1    1    2    0  501 -0.43082337618E+01 -0.36122387926E+02  0.89529457003E+02  0.96638043538E+02  0.00000000000E+00 0.  1.
</event>
<event>
 4    1  0.6935156E+001  0.7304716E+02  0.7546771E-02  0.1220979E+00
          2   -1    0    0  502    0  0.00000000000E+00  0.00000000000E+00  0.77097813962E+03  0.77097813962E+03  0.00000000000E+00 0. -1.
         -2   -1    0    0    0  501 -0.00000000000E+00 -0.00000000000E+00 -0.70535634576E+01  0.70535634576E+01  0.00000000000E+00 0.  1.
          1    1    1    2  502    0  0.35175967294E+02  0.64019827269E+02  0.32861811854E+03  0.33663890861E+03  0.00000000000E+00 0.  1.
         -1    1    1    2    0  501 -0.35175967294E+02 -0.64019827269E+02  0.43530645762E+03  0.44139279447E+03  0.00000000000E+00 0. -1.
</event>
<event>
 4    1  0.6935156E+001  0.3549277E+02  0.7546771E-02  0.1377132E+00
          2   -1    0    0  502    0  0.00000000000E+00  0.00000000000E+00  0.81547493117E+03  0.81547493117E+03  0.00000000000E+00 0. -1.
         -2   -1    0    0    0  501 -0.00000000000E+00 -0.00000000000E+00 -0.19077232356E+01  0.19077232356E+01  0.00000000000E+00 0.  1.
          1    1    1    2  502    0  0.29764777043E+02 -0.19333774499E+02  0.22852453127E+03  0.23126434697E+03  0.00000000000E+00 0.  1.
         -1    1    1    2    0  501 -0.29764777043E+02  0.19333774499E+02  0.58504267666E+03  0.58611830743E+03  0.00000000000E+00 0. -1.
</event>
<event>
 4    1  0.6935156E+001  0.3186991E+02  0.7546771E-02  0.1404014E+00
          2   -1    0    0  502    0  0.00000000000E+00  0.00000000000E+00  0.10619159062E+04  0.10619159062E+04  0.00000000000E+00 0. -1.
         -2   -1    0    0    0  501 -0.00000000000E+00 -0.00000000000E+00 -0.23715196290E+01  0.23715196290E+01  0.00000000000E+00 0.  1.
          1    1    1    2  502    0  0.18264188952E+02  0.26117242771E+02  0.94082855300E+03  0.94136818361E+03  0.00000000000E+00 0. -1.
         -1    1    1    2    0  501 -0.18264188952E+02 -0.26117242771E+02  0.11871583359E+03  0.12291924224E+03  0.00000000000E+00 0.  1.
</event>
<event>
 4    1  0.6935156E+001  0.8579451E+02  0.7546771E-02  0.1190998E+00
          2   -1    0    0  502    0  0.00000000000E+00  0.00000000000E+00  0.11130784808E+03  0.11130784808E+03  0.00000000000E+00 0. -1.
         -2   -1    0    0    0  501 -0.00000000000E+00 -0.00000000000E+00 -0.72529253125E+02  0.72529253125E+02  0.00000000000E+00 0.  1.
          1    1    1    2  502    0 -0.73085967441E+02  0.44934825672E+02 -0.79154955324E+01  0.86158878037E+02  0.00000000000E+00 0.  1.
         -1    1    1    2    0  501  0.73085967441E+02 -0.44934825672E+02  0.46694090488E+02  0.97678223170E+02  0.00000000000E+00 0. -1.
</event>
<event>
 4    1  0.6935156E+001  0.2910771E+02  0.7546771E-02  0.1427512E+00
          2   -1    0    0  502    0  0.00000000000E+00  0.00000000000E+00  0.18929533351E+03  0.18929533351E+03  0.00000000000E+00 0. -1.
         -2   -1    0    0    0  501 -0.00000000000E+00 -0.00000000000E+00 -0.53273418555E+01  0.53273418555E+01  0.00000000000E+00 0.  1.
          1    1    1    2  502    0  0.24165146256E+02 -0.16226656097E+02  0.13088822980E+03  0.13408574630E+03  0.00000000000E+00 0.  1.
         -1    1    1    2    0  501 -0.24165146256E+02  0.16226656097E+02  0.53079761854E+02  0.60536929061E+02  0.00000000000E+00 0. -1.
</event>
<event>
 4    1  0.6935156E+001  0.2231719E+02  0.7546771E-02  0.1501255E+00
          2   -1    0    0  502    0  0.00000000000E+00  0.00000000000E+00  0.19417107699E+03  0.19417107699E+03  0.00000000000E+00 0.  1.
         -2   -1    0    0    0  501 -0.00000000000E+00 -0.00000000000E+00 -0.42233018908E+01  0.42233018908E+01  0.00000000000E+00 0. -1.
          1    1    1    2  502    0 -0.17251096771E+02 -0.14158266937E+02  0.32815509558E+02  0.39685192831E+02  0.00000000000E+00 0. -1.
         -1    1    1    2    0  501  0.17251096771E+02  0.14158266937E+02  0.15713226554E+03  0.15870918605E+03  0.00000000000E+00 0.  1.
</event>
<event>
 4    1  0.6935156E+001  0.9937146E+02  0.7546771E-02  0.1164902E+00
          2   -1    0    0  502    0  0.00000000000E+00  0.00000000000E+00  0.14378630382E+03  0.14378630382E+03  0.00000000000E+00 0. -1.
         -2   -1    0    0    0  501 -0.00000000000E+00 -0.00000000000E+00 -0.80989719071E+02  0.80989719071E+02  0.00000000000E+00 0.  1.
          1    1    1    2  502    0  0.75134930931E+01 -0.99087006504E+02 -0.12424223021E+02  0.10014513844E+03  0.00000000000E+00 0.  1.
         -1    1    1    2    0  501 -0.75134930931E+01  0.99087006504E+02  0.75220807772E+02  0.12463088445E+03  0.00000000000E+00 0. -1.
</event>
<event>
 4    1  0.6935156E+001  0.2982941E+02  0.7546771E-02  0.1421085E+00
          2   -1    0    0  502    0  0.00000000000E+00  0.00000000000E+00  0.99006725194E+01  0.99006725194E+01  0.00000000000E+00 0.  1.
         -2   -1    0    0    0  501 -0.00000000000E+00 -0.00000000000E+00 -0.12038115441E+03  0.12038115441E+03  0.00000000000E+00 0. -1.
          1    1    1    2  502    0  0.26672754874E+02 -0.13355076025E+02 -0.88033848719E+02  0.92950268577E+02  0.00000000000E+00 0. -1.
         -1    1    1    2    0  501 -0.26672754874E+02  0.13355076025E+02 -0.22446633169E+02  0.37331558350E+02  0.00000000000E+00 0.  1.
</event>
<event>
 4    1  0.6935156E+001  0.2532042E+02  0.7546771E-02  0.1465251E+00
          2   -1    0    0  502    0  0.00000000000E+00  0.00000000000E+00  0.35939160759E+03  0.35939160759E+03  0.00000000000E+00 0. -1.
         -2   -1    0    0    0  501 -0.00000000000E+00 -0.00000000000E+00 -0.19515562671E+01  0.19515562671E+01  0.00000000000E+00 0.  1.
          1    1    1    2  502    0  0.24666900804E+02  0.57155813736E+01  0.23167302287E+03  0.23305259791E+03  0.00000000000E+00 0. -1.
         -1    1    1    2    0  501 -0.24666900804E+02 -0.57155813736E+01  0.12576702845E+03  0.12829056594E+03  0.00000000000E+00 0.  1.
</event>
<event>
 4    1  0.6935156E+001  0.3416067E+02  0.7546771E-02  0.1386562E+00
          2   -1    0    0  502    0  0.00000000000E+00  0.00000000000E+00  0.17735353165E+03  0.17735353165E+03  0.00000000000E+00 0. -1.
         -2   -1    0    0    0  501 -0.00000000000E+00 -0.00000000000E+00 -0.13746771796E+02  0.13746771796E+02  0.00000000000E+00 0.  1.
          1    1    1    2  502    0  0.25282180800E+02 -0.22973084582E+02  0.15079538700E+03  0.15461629934E+03  0.00000000000E+00 0. -1.
         -1    1    1    2    0  501 -0.25282180800E+02  0.22973084582E+02  0.12811372854E+02  0.36484004106E+02  0.00000000000E+00 0.  1.
</event>
<event>
 4    1  0.6935156E+001  0.2863456E+02  0.7546771E-02  0.1431845E+00
          2   -1    0    0  502    0  0.00000000000E+00  0.00000000000E+00  0.84608583785E+01  0.84608583785E+01  0.00000000000E+00 0.  1.
         -2   -1    0    0    0  501 -0.00000000000E+00 -0.00000000000E+00 -0.98105474976E+02  0.98105474976E+02  0.00000000000E+00 0. -1.
          1    1    1    2  502    0 -0.28389970947E+02  0.37346693163E+01 -0.38939421418E+02  0.48334426092E+02  0.00000000000E+00 0. -1.
         -1    1    1    2    0  501  0.28389970947E+02 -0.37346693163E+01 -0.50705195180E+02  0.58231907263E+02  0.00000000000E+00 0.  1.
</event>
<event>
 4    1  0.6935156E+001  0.3839171E+02  0.7546771E-02  0.1358177E+00
          2   -1    0    0  502    0  0.00000000000E+00  0.00000000000E+00  0.53824094315E+03  0.53824094315E+03  0.00000000000E+00 0. -1.
         -2   -1    0    0    0  501 -0.00000000000E+00 -0.00000000000E+00 -0.34486275712E+01  0.34486275712E+01  0.00000000000E+00 0.  1.
          1    1    1    2  502    0 -0.22784961768E+02 -0.30899336117E+02  0.14448436233E+03  0.14949800805E+03  0.00000000000E+00 0.  1.
         -1    1    1    2    0  501  0.22784961768E+02  0.30899336117E+02  0.39030795325E+03  0.39219156266E+03  0.00000000000E+00 0. -1.
</event>
<event>
 4    1  0.6935156E+001  0.2029603E+02  0.7546771E-02  0.1529558E+00
          2   -1    0    0  502    0  0.00000000000E+00  0.00000000000E+00  0.15037082234E+01  0.15037082234E+01  0.00000000000E+00 0. -1.
         -2   -1    0    0    0  501 -0.00000000000E+00 -0.00000000000E+00 -0.27986403484E+03  0.27986403484E+03  0.00000000000E+00 0.  1.
          1    1    1    2  502    0  0.10971009461E+02 -0.17075292638E+02 -0.15964510028E+03  0.16093006777E+03  0.00000000000E+00 0. -1.
         -1    1    1    2    0  501 -0.10971009461E+02  0.17075292638E+02 -0.11871522633E+03  0.12043767529E+03  0.00000000000E+00 0.  1.
</event>
<event>
 4    1  0.6935156E+001  0.2497911E+02  0.7546771E-02  0.1469037E+00
          2   -1    0    0  502    0  0.00000000000E+00  0.00000000000E+00  0.15184657858E+04  0.15184657858E+04  0.00000000000E+00 0. -1.
         -2   -1    0    0    0  501 -0.00000000000E+00 -0.00000000000E+00 -0.41171929052E+00  0.41171929052E+00  0.00000000000E+00 0.  1.
          1    1    1    2  502    0  0.78289350425E+01 -0.23720532534E+02  0.72539958917E+03  0.72582953911E+03  0.00000000000E+00 0.  1.
         -1    1    1    2    0  501 -0.78289350425E+01  0.23720532534E+02  0.79265447736E+03  0.79304796600E+03  0.00000000000E+00 0. -1.
</event>
<event>
 4    1  0.6935156E+001  0.4280912E+02  0.7546771E-02  0.1332767E+00
          2   -1    0    0  502    0  0.00000000000E+00  0.00000000000E+00  0.10073533164E+04  0.10073533164E+04  0.00000000000E+00 0.  1.
         -2   -1    0    0    0  501 -0.00000000000E+00 -0.00000000000E+00 -0.21078598029E+01  0.21078598029E+01  0.00000000000E+00 0. -1.
          1    1    1    2  502    0 -0.84046921775E+01  0.41975966918E+02  0.31585603252E+03  0.31874386884E+03  0.00000000000E+00 0. -1.
         -1    1    1    2    0  501  0.84046921775E+01 -0.41975966918E+02  0.68938942407E+03  0.69071730735E+03  0.00000000000E+00 0.  1.
</event>
<event>
 4    1  0.6935156E+001  0.2065171E+02  0.7546771E-02  0.1524296E+00
          2   -1    0    0  502    0  0.00000000000E+00  0.00000000000E+00  0.35674410806E+01  0.35674410806E+01  0.00000000000E+00 0. -1.
         -2   -1    0    0    0  501 -0.00000000000E+00 -0.00000000000E+00 -0.20258412558E+03  0.20258412558E+03  0.00000000000E+00 0.  1.
          1    1    1    2  502    0 -0.11704427847E+02 -0.17014690134E+02 -0.16549832971E+03  0.16678186486E+03  0.00000000000E+00 0.  1.
         -1    1    1    2    0  501  0.11704427847E+02  0.17014690134E+02 -0.33518354791E+02  0.39369701796E+02  0.00000000000E+00 0. -1.
</event>
<event>
 4    1  0.6935156E+001  0.3298914E+02  0.7546771E-02  0.1395279E+00
          2   -1    0    0  502    0  0.00000000000E+00  0.00000000000E+00  0.25336082129E+04  0.25336082129E+04  0.00000000000E+00 0. -1.
         -2   -1    0    0    0  501 -0.00000000000E+00 -0.00000000000E+00 -0.78478903079E+00  0.78478903079E+00  0.00000000000E+00 0.  1.
          1    1    1    2  502    0 -0.47841791378E+01  0.32640385582E+02  0.21189907701E+04  0.21192475473E+04  0.00000000000E+00 0. -1.
         -1    1    1    2    0  501  0.47841791378E+01 -0.32640385582E+02  0.41383265374E+03  0.41514545457E+03  0.00000000000E+00 0.  1.
</event>
<event>
 4    1  0.6935156E+001  0.3853100E+02  0.7546771E-02  0.1357316E+00
          2   -1    0    0  502    0  0.00000000000E+00  0.00000000000E+00  0.18112325009E+04  0.18112325009E+04  0.00000000000E+00 0.  1.
         -2   -1    0    0    0  501 -0.00000000000E+00 -0.00000000000E+00 -0.82083087733E+00  0.82083087733E+00  0.00000000000E+00 0. -1.
          1    1    1    2  502    0  0.26665795886E+02 -0.27813188063E+02  0.93907415149E+03  0.93986429877E+03  0.00000000000E+00 0.  1.
         -1    1    1    2    0  501 -0.26665795886E+02  0.27813188063E+02  0.87133751849E+03  0.87218903296E+03  0.00000000000E+00 0. -1.
</event>
<event>
 4    1  0.6935156E+001  0.2381439E+02  0.7546771E-02  0.1482517E+00
          2   -1    0    0  502    0  0.00000000000E+00  0.00000000000E+00  0.23822234573E+02  0.23822234573E+02  0.00000000000E+00 0. -1.
         -2   -1    0    0    0  501 -0.00000000000E+00 -0.00000000000E+00 -0.23925155683E+02  0.23925155683E+02  0.00000000000E+00 0.  1.
          1    1    1    2  502    0 -0.11702438998E+02 -0.20740730954E+02  0.16295168363E+01  0.23870071724E+02  0.00000000000E+00 0. -1.
         -1    1    1    2    0  501  0.11702438998E+02  0.20740730954E+02 -0.17324379465E+01  0.23877318531E+02  0.00000000000E+00 0.  1.
</event>
<event>
 4    1  0.6935156E+001  0.3914011E+02  0.7546771E-02  0.1353600E+00
          2   -1    0    0  502    0  0.00000000000E+00  0.00000000000E+00  0.13245023674E+03  0.13245023674E+03  0.00000000000E+00 0.  1.
         -2   -1    0    0    0  501 -0.00000000000E+00 -0.00000000000E+00 -0.11782461370E+02  0.11782461370E+02  0.00000000000E+00 0. -1.
          1    1    1    2  502    0  0.33098167713E+02  0.20891621431E+02  0.70103679370E+02  0.80289939676E+02  0.00000000000E+00 0. -1.
         -1    1    1    2    0  501 -0.33098167713E+02 -0.20891621431E+02  0.50564096005E+02  0.63942758439E+02  0.00000000000E+00 0.  1.
</event>
<event>
 4    1  0.6935156E+001  0.5233747E+02  0.7546771E-02  0.1288344E+00
          2   -1    0    0  502    0  0.00000000000E+00  0.00000000000E+00  0.12325453676E+04  0.12325453676E+04  0.00000000000E+00 0. -1.
         -2   -1    0    0    0  501 -0.00000000000E+00 -0.00000000000E+00 -0.25524242237E+01  0.25524242237E+01  0.00000000000E+00 0.  1.
          1    1    1    2  502    0 -0.38786586602E+02 -0.35139884686E+02  0.83705465254E+03  0.83868927628E+03  0.00000000000E+00 0. -1.
         -1    1    1    2    0  501  0.38786586602E+02  0.35139884686E+02  0.39293829084E+03  0.39640851556E+03  0.00000000000E+00 0.  1.
</event>
<event>
 4    1  0.6935156E+001  0.2221146E+02  0.7546771E-02  0.1502645E+00
          2   -1    0    0  502    0  0.00000000000E+00  0.00000000000E+00  0.23220954155E+04  0.23220954155E+04  0.00000000000E+00 0.  1.
         -2   -1    0    0    0  501 -0.00000000000E+00 -0.00000000000E+00 -0.21551983392E+00  0.21551983392E+00  0.00000000000E+00 0. -1.
          1    1    1    2  502    0  0.22723753249E+01 -0.22094911598E+02  0.12993300968E+04  0.12995199303E+04  0.00000000000E+00 0. -1.
         -1    1    1    2    0  501 -0.22723753249E+01  0.22094911598E+02  0.10225497988E+04  0.10227910050E+04  0.00000000000E+00 0.  1.
</event>
<event>
 4    1  0.6935156E+001  0.2123221E+02  0.7546771E-02  0.1515975E+00
          2   -1    0    0  502    0  0.00000000000E+00  0.00000000000E+00  0.26971480331E+03  0.26971480331E+03  0.00000000000E+00 0. -1.
         -2   -1    0    0    0  501 -0.00000000000E+00 -0.00000000000E+00 -0.16790850392E+01  0.16790850392E+01  0.00000000000E+00 0.  1.
          1    1    1    2  502    0  0.21060351025E+02 -0.26959909280E+01  0.14318612397E+03  0.14475176286E+03  0.00000000000E+00 0.  1.
         -1    1    1    2    0  501 -0.21060351025E+02  0.26959909280E+01  0.12484959430E+03  0.12664212550E+03  0.00000000000E+00 0. -1.
</event>
<event>
 4    1  0.6935156E+001  0.2260171E+02  0.7546771E-02  0.1497561E+00
          2   -1    0    0  502    0  0.00000000000E+00  0.00000000000E+00  0.23027724324E+02  0.23027724324E+02  0.00000000000E+00 0. -1.
         -2   -1    0    0    0  501 -0.00000000000E+00 -0.00000000000E+00 -0.58012546951E+02  0.58012546951E+02  0.00000000000E+00 0.  1.
          1    1    1    2  502    0 -0.20192225924E+02  0.10154362728E+02 -0.49336376815E+02  0.54267072405E+02  0.00000000000E+00 0.  1.
         -1    1    1    2    0  501  0.20192225924E+02 -0.10154362728E+02  0.14351554188E+02  0.26773198871E+02  0.00000000000E+00 0. -1.
</event>
<event>
 4    1  0.6935156E+001  0.3240450E+02  0.7546771E-02  0.1399790E+00
          2   -1    0    0  502    0  0.00000000000E+00  0.00000000000E+00  0.85663496564E+03  0.85663496564E+03  0.00000000000E+00 0.  1.
         -2   -1    0    0    0  501 -0.00000000000E+00 -0.00000000000E+00 -0.13241429815E+01  0.13241429815E+01  0.00000000000E+00 0. -1.
          1    1    1    2  502    0  0.96807156346E+01  0.30924675717E+02  0.54457035038E+03  0.54553360881E+03  0.00000000000E+00 0.  1.
         -1    1    1    2    0  501 -0.96807156346E+01 -0.30924675717E+02  0.31074047227E+03  0.31242549981E+03  0.00000000000E+00 0. -1.
</event>
<event>
 4    1  0.6935156E+001  0.2733280E+02  0.7546771E-02  0.1444293E+00
          2   -1    0    0  502    0  0.00000000000E+00  0.00000000000E+00  0.11240936049E+03  0.11240936049E+03  0.00000000000E+00 0. -1.
         -2   -1    0    0    0  501 -0.00000000000E+00 -0.00000000000E+00 -0.80517065685E+01  0.80517065685E+01  0.00000000000E+00 0.  1.
          1    1    1    2  502    0  0.13736700619E+02 -0.23630167836E+02  0.27013215848E+02  0.38429098432E+02  0.00000000000E+00 0.  1.
         -1    1    1    2    0  501 -0.13736700619E+02  0.23630167836E+02  0.77344438078E+02  0.82031968630E+02  0.00000000000E+00 0. -1.
</event>
<event>
 4    1  0.6935156E+001  0.6188050E+02  0.7546771E-02  0.1253574E+00
          2   -1    0    0  502    0  0.00000000000E+00  0.00000000000E+00  0.11871040759E+03  0.11871040759E+03  0.00000000000E+00 0. -1.
         -2   -1    0    0    0  501 -0.00000000000E+00 -0.00000000000E+00 -0.33526711398E+02  0.33526711398E+02  0.00000000000E+00 0.  1.
          1    1    1    2  502    0 -0.60763818660E+02  0.11702756493E+02  0.57407237132E+02  0.84408453622E+02  0.00000000000E+00 0.  1.
         -1    1    1    2    0  501  0.60763818660E+02 -0.11702756493E+02  0.27776459065E+02  0.67828665370E+02  0.00000000000E+00 0. -1.
</event>
<event>
 4    1  0.6935156E+001  0.3720549E+02  0.7546771E-02  0.1365688E+00
          2   -1    0    0  502    0  0.00000000000E+00  0.00000000000E+00  0.95180053721E+03  0.95180053721E+03  0.00000000000E+00 0.  1.
         -2   -1    0    0    0  501 -0.00000000000E+00 -0.00000000000E+00 -0.17520264762E+01  0.17520264762E+01  0.00000000000E+00 0. -1.
          1    1    1    2  502    0  0.36354198492E+02 -0.79133151479E+01  0.67154966902E+03  0.67257951669E+03  0.00000000000E+00 0.  1.
         -1    1    1    2    0  501 -0.36354198492E+02  0.79133151479E+01  0.27849884171E+03  0.28097304700E+03  0.00000000000E+00 0. -1.
</event>
<event>
 4    1  0.6935156E+001  0.2485942E+02  0.7546771E-02  0.1470382E+00
          2   -1    0    0  502    0  0.00000000000E+00  0.00000000000E+00  0.90756385452E+01  0.90756385452E+01  0.00000000000E+00 0.  1.
         -2   -1    0    0    0  501 -0.00000000000E+00 -0.00000000000E+00 -0.69748499933E+02  0.69748499933E+02  0.00000000000E+00 0. -1.
          1    1    1    2  502    0 -0.17165297562E+02 -0.17981750555E+02 -0.24265180403E+02  0.34738879853E+02  0.00000000000E+00 0.  1.
         -1    1    1    2    0  501  0.17165297562E+02  0.17981750555E+02 -0.36407680985E+02  0.44085258626E+02  0.00000000000E+00 0. -1.
</event>
<event>
 4    1  0.6935156E+001  0.3143163E+02  0.7546771E-02  0.1407551E+00
          2   -1    0    0  502    0  0.00000000000E+00  0.00000000000E+00  0.33132550086E+03  0.33132550086E+03  0.00000000000E+00 0. -1.
         -2   -1    0    0    0  501 -0.00000000000E+00 -0.00000000000E+00 -0.31049842288E+01  0.31049842288E+01  0.00000000000E+00 0.  1.
          1    1    1    2  502    0 -0.29334477308E+02 -0.11288755507E+02  0.19741587141E+03  0.19990241081E+03  0.00000000000E+00 0. -1.
         -1    1    1    2    0  501  0.29334477308E+02  0.11288755507E+02  0.13080464521E+03  0.13452807428E+03  0.00000000000E+00 0.  1.
</event>
<event>
 4    1  0.6935156E+001  0.2294883E+02  0.7546771E-02  0.1493142E+00
          2   -1    0    0  502    0  0.00000000000E+00  0.00000000000E+00  0.73854160854E+03  0.73854160854E+03  0.00000000000E+00 0. -1.
         -2   -1    0    0    0  501 -0.00000000000E+00 -0.00000000000E+00 -0.71997185734E+00  0.71997185734E+00  0.00000000000E+00 0.  1.
          1    1    1    2  502    0  0.16676043621E+02 -0.15765736965E+02  0.33278091893E+03  0.33357126509E+03  0.00000000000E+00 0.  1.
         -1    1    1    2    0  501 -0.16676043621E+02  0.15765736965E+02  0.40504071775E+03  0.40569031530E+03  0.00000000000E+00 0. -1.
</event>
<event>
 4    1  0.6935156E+001  0.2032968E+02  0.7546771E-02  0.1529054E+00
          2   -1    0    0  502    0  0.00000000000E+00  0.00000000000E+00  0.15205431974E+01  0.15205431974E+01  0.00000000000E+00 0.  1.
         -2   -1    0    0    0  501 -0.00000000000E+00 -0.00000000000E+00 -0.57331812832E+03  0.57331812832E+03  0.00000000000E+00 0. -1.
          1    1    1    2  502    0  0.19705834274E+02 -0.49976041279E+01 -0.77464569516E+02  0.80087798583E+02  0.00000000000E+00 0.  1.
         -1    1    1    2    0  501 -0.19705834274E+02  0.49976041279E+01 -0.49433301560E+03  0.49475087293E+03  0.00000000000E+00 0. -1.
</event>
<event>
 4    1  0.6935156E+001  0.2150707E+02  0.7546771E-02  0.1512147E+00
          2   -1    0    0  502    0  0.00000000000E+00  0.00000000000E+00  0.57955985813E+03  0.57955985813E+03  0.00000000000E+00 0.  1.
         -2   -1    0    0    0  501 -0.00000000000E+00 -0.00000000000E+00 -0.85811867042E+00  0.85811867042E+00  0.00000000000E+00 0. -1.
          1    1    1    2  502    0 -0.65011911348E+01  0.20500941168E+02  0.36609310892E+03  0.36672430854E+03  0.00000000000E+00 0.  1.
         -1    1    1    2    0  501  0.65011911348E+01 -0.20500941168E+02  0.21260863054E+03  0.21369366826E+03  0.00000000000E+00 0. -1.
</event>
<event>
 4    1  0.6935156E+001  0.2497480E+02  0.7546771E-02  0.1469086E+00
          2   -1    0    0  502    0  0.00000000000E+00  0.00000000000E+00  0.12105162056E+04  0.12105162056E+04  0.00000000000E+00 0. -1.
         -2   -1    0    0    0  501 -0.00000000000E+00 -0.00000000000E+00 -0.53589481195E+00  0.53589481195E+00  0.00000000000E+00 0.  1.
          1    1    1    2  502    0 -0.15189528180E+02 -0.19824697683E+02  0.72378781636E+03  0.72421857441E+03  0.00000000000E+00 0. -1.
         -1    1    1    2    0  501  0.15189528180E+02  0.19824697683E+02  0.48619249447E+03  0.48683352605E+03  0.00000000000E+00 0.  1.
</event>
<event>
 4    1  0.6935156E+001  0.2716722E+02  0.7546771E-02  0.1445936E+00
          2   -1    0    0  502    0  0.00000000000E+00  0.00000000000E+00  0.46789103013E+03  0.46789103013E+03  0.00000000000E+00 0.  1.
         -2   -1    0    0    0  501 -0.00000000000E+00 -0.00000000000E+00 -0.16683226237E+01  0.16683226237E+01  0.00000000000E+00 0. -1.
          1    1    1    2  502    0 -0.18710509899E+02 -0.19697076396E+02  0.28791662330E+03  0.28919550475E+03  0.00000000000E+00 0.  1.
         -1    1    1    2    0  501  0.18710509899E+02  0.19697076396E+02  0.17830608421E+03  0.18036384800E+03  0.00000000000E+00 0. -1.
</event>
<event>
 4    1  0.6935156E+001  0.2519489E+02  0.7546771E-02  0.1466635E+00
          2   -1    0    0  502    0  0.00000000000E+00  0.00000000000E+00  0.51721780063E+03  0.51721780063E+03  0.00000000000E+00 0.  1.
         -2   -1    0    0    0  501 -0.00000000000E+00 -0.00000000000E+00 -0.12874291056E+01  0.12874291056E+01  0.00000000000E+00 0. -1.
          1    1    1    2  502    0 -0.97310293866E+01 -0.23239829437E+02  0.20193842842E+03  0.20350408221E+03  0.00000000000E+00 0. -1.
         -1    1    1    2    0  501  0.97310293866E+01  0.23239829437E+02  0.31399194310E+03  0.31500114752E+03  0.00000000000E+00 0.  1.
</event>
<event>
 4    1  0.6935156E+001  0.2139462E+02  0.7546771E-02  0.1513705E+00
          2   -1    0    0  502    0  0.00000000000E+00  0.00000000000E+00  0.42349593912E+00  0.42349593912E+00  0.00000000000E+00 0. -1.
         -2   -1    0    0    0  501 -0.00000000000E+00 -0.00000000000E+00 -0.10823962979E+04  0.10823962979E+04  0.00000000000E+00 0.  1.
          1    1    1    2  502    0 -0.21377658378E+02  0.85164644728E+00 -0.52042928201E+03  0.52086885792E+03  0.00000000000E+00 0. -1.
         -1    1    1    2    0  501  0.21377658378E+02 -0.85164644728E+00 -0.56154351994E+03  0.56195093590E+03  0.00000000000E+00 0.  1.
</event>
<event>
 4    1  0.6935156E+001  0.2096597E+02  0.7546771E-02  0.1519751E+00
          2   -1    0    0  502    0  0.00000000000E+00  0.00000000000E+00  0.21332656984E+02  0.21332656984E+02  0.00000000000E+00 0.  1.
         -2   -1    0    0    0  501 -0.00000000000E+00 -0.00000000000E+00 -0.24574816293E+02  0.24574816293E+02  0.00000000000E+00 0. -1.
          1    1    1    2  502    0 -0.20698755456E+02  0.33366515135E+01 -0.10845983708E+02  0.23605234236E+02  0.00000000000E+00 0. -1.
         -1    1    1    2    0  501  0.20698755456E+02 -0.33366515135E+01  0.76038243987E+01  0.22302239041E+02  0.00000000000E+00 0.  1.
</event>
<event>
 4    1  0.6935156E+001  0.8369221E+02  0.7546771E-02  0.1195526E+00
          2   -1    0    0  502    0  0.00000000000E+00  0.00000000000E+00  0.20456946391E+04  0.20456946391E+04  0.00000000000E+00 0. -1.
         -2   -1    0    0    0  501 -0.00000000000E+00 -0.00000000000E+00 -0.35240198622E+01  0.35240198622E+01  0.00000000000E+00 0.  1.
          1    1    1    2  502    0  0.62049049356E+02  0.56163165105E+02  0.84843812161E+03  0.85255594060E+03  0.00000000000E+00 0. -1.
         -1    1    1    2    0  501 -0.62049049356E+02 -0.56163165105E+02  0.11937324977E+04  0.11966627184E+04  0.00000000000E+00 0.  1.
</event>
<event>
 4    1  0.6935156E+001  0.3869127E+02  0.7546771E-02  0.1356330E+00
          2   -1    0    0  502    0  0.00000000000E+00  0.00000000000E+00  0.19237168987E+03  0.19237168987E+03  0.00000000000E+00 0.  1.
         -2   -1    0    0    0  501 -0.00000000000E+00 -0.00000000000E+00 -0.86449225919E+01  0.86449225919E+01  0.00000000000E+00 0. -1.
          1    1    1    2  502    0  0.25293855076E+02  0.29278577195E+02  0.12362016600E+03  0.12953362355E+03  0.00000000000E+00 0. -1.
         -1    1    1    2    0  501 -0.25293855076E+02 -0.29278577195E+02  0.60106601278E+02  0.71482988916E+02  0.00000000000E+00 0.  1.
</event>
<event>
 4    1  0.6935156E+001  0.3007421E+02  0.7546771E-02  0.1418953E+00
          2   -1    0    0  502    0  0.00000000000E+00  0.00000000000E+00  0.31407959840E+02  0.31407959840E+02  0.00000000000E+00 0. -1.
         -2   -1    0    0    0  501 -0.00000000000E+00 -0.00000000000E+00 -0.34147839145E+02  0.34147839145E+02  0.00000000000E+00 0.  1.
          1    1    1    2  502    0  0.24687685921E+02 -0.17174869273E+02  0.11605038650E+02  0.32235615284E+02  0.00000000000E+00 0. -1.
         -1    1    1    2    0  501 -0.24687685921E+02  0.17174869273E+02 -0.14344917956E+02  0.33320183701E+02  0.00000000000E+00 0.  1.
</event>
<event>
 4    1  0.6935156E+001  0.2326034E+02  0.7546771E-02  0.1489255E+00
          2   -1    0    0  502    0  0.00000000000E+00  0.00000000000E+00  0.12045027258E+02  0.12045027258E+02  0.00000000000E+00 0.  1.
         -2   -1    0    0    0  501 -0.00000000000E+00 -0.00000000000E+00 -0.78063127678E+02  0.78063127678E+02  0.00000000000E+00 0. -1.
          1    1    1    2  502    0 -0.12618524851E+02  0.19540117733E+02 -0.36515991650E+01  0.23545223441E+02  0.00000000000E+00 0.  1.
         -1    1    1    2    0  501  0.12618524851E+02 -0.19540117733E+02 -0.62366501255E+02  0.66562931495E+02  0.00000000000E+00 0. -1.
</event>
<event>
 4    1  0.6935156E+001  0.3303098E+02  0.7546771E-02  0.1394961E+00
          2   -1    0    0  502    0  0.00000000000E+00  0.00000000000E+00  0.36744077054E+01  0.36744077054E+01  0.00000000000E+00 0.  1.
         -2   -1    0    0    0  501 -0.00000000000E+00 -0.00000000000E+00 -0.29848707906E+03  0.29848707906E+03  0.00000000000E+00 0. -1.
          1    1    1    2  502    0  0.24796809982E+02 -0.21821177947E+02 -0.13649794372E+03  0.14043765248E+03  0.00000000000E+00 0. -1.
         -1    1    1    2    0  501 -0.24796809982E+02  0.21821177947E+02 -0.15831472763E+03  0.16172383429E+03  0.00000000000E+00 0.  1.
</event>
<event>
 4    1  0.6935156E+001  0.4250536E+02  0.7546771E-02  0.1334398E+00
          2   -1    0    0  502    0  0.00000000000E+00  0.00000000000E+00  0.51954257148E+02  0.51954257148E+02  0.00000000000E+00 0.  1.
         -2   -1    0    0    0  501 -0.00000000000E+00 -0.00000000000E+00 -0.35008491793E+02  0.35008491793E+02  0.00000000000E+00 0. -1.
          1    1    1    2  502    0 -0.18880257823E+02 -0.38082036952E+02  0.49213392086E+01  0.42789312375E+02  0.00000000000E+00 0.  1.
         -1    1    1    2    0  501  0.18880257823E+02  0.38082036952E+02  0.12024426146E+02  0.44173436566E+02  0.00000000000E+00 0. -1.
</event>
<event>
 4    1  0.6935156E+001  0.2368973E+02  0.7546771E-02  0.1484014E+00
          2   -1    0    0  502    0  0.00000000000E+00  0.00000000000E+00  0.47317292793E+03  0.47317292793E+03  0.00000000000E+00 0.  1.
         -2   -1    0    0    0  501 -0.00000000000E+00 -0.00000000000E+00 -0.13877129559E+01  0.13877129559E+01  0.00000000000E+00 0. -1.
          1    1    1    2  502    0  0.19864117772E+02  0.12908142555E+02  0.14543756683E+03  0.14735429808E+03  0.00000000000E+00 0. -1.
         -1    1    1    2    0  501 -0.19864117772E+02 -0.12908142555E+02  0.32634764815E+03  0.32720634280E+03  0.00000000000E+00 0.  1.
</event>
<event>
 4    1  0.6935156E+001  0.2334958E+02  0.7546771E-02  0.1488154E+00
          2   -1    0    0  502    0  0.00000000000E+00  0.00000000000E+00  0.95249811710E+02  0.95249811710E+02  0.00000000000E+00 0.  1.
         -2   -1    0    0    0  501 -0.00000000000E+00 -0.00000000000E+00 -0.77211828331E+01  0.77211828331E+01  0.00000000000E+00 0. -1.
          1    1    1    2  502    0 -0.16552886682E+02  0.16468297448E+02  0.69949758673E+02  0.73743959866E+02  0.00000000000E+00 0.  1.
         -1    1    1    2    0  501  0.16552886682E+02 -0.16468297448E+02  0.17578870204E+02  0.29227034677E+02  0.00000000000E+00 0. -1.
</event>
<event>
 4    1  0.6935156E+001  0.2575492E+02  0.7546771E-02  0.1460533E+00
          2   -1    0    0  502    0  0.00000000000E+00  0.00000000000E+00  0.71631041243E+03  0.71631041243E+03  0.00000000000E+00 0.  1.
         -2   -1    0    0    0  501 -0.00000000000E+00 -0.00000000000E+00 -0.92667475911E+00  0.92667475911E+00  0.00000000000E+00 0. -1.
          1    1    1    2  502    0 -0.13126852754E+02 -0.22158555417E+02  0.34813974213E+03  0.34909109970E+03  0.00000000000E+00 0. -1.
         -1    1    1    2    0  501  0.13126852754E+02  0.22158555417E+02  0.36724399554E+03  0.36814598749E+03  0.00000000000E+00 0.  1.
</event>
<event>
 4    1  0.6935156E+001  0.2490158E+02  0.7546771E-02  0.1469908E+00
          2   -1    0    0  502    0  0.00000000000E+00  0.00000000000E+00  0.13698080472E+04  0.13698080472E+04  0.00000000000E+00 0.  1.
         -2   -1    0    0    0  501 -0.00000000000E+00 -0.00000000000E+00 -0.62983379926E+00  0.62983379926E+00  0.00000000000E+00 0. -1.
          1    1    1    2  502    0  0.21578335684E+02  0.12428349973E+02  0.32118631450E+03  0.32215017783E+03  0.00000000000E+00 0. -1.
         -1    1    1    2    0  501 -0.21578335684E+02 -0.12428349973E+02  0.10479918989E+04  0.10482877032E+04  0.00000000000E+00 0.  1.
</event>
<event>
 4    1  0.6935156E+001  0.2280028E+02  0.7546771E-02  0.1495021E+00
          2   -1    0    0  502    0  0.00000000000E+00  0.00000000000E+00  0.46781147583E+02  0.46781147583E+02  0.00000000000E+00 0.  1.
         -2   -1    0    0    0  501 -0.00000000000E+00 -0.00000000000E+00 -0.13169405117E+02  0.13169405117E+02  0.00000000000E+00 0. -1.
          1    1    1    2  502    0  0.17654699551E+02 -0.14427899098E+02  0.49592747430E+01  0.23333390122E+02  0.00000000000E+00 0. -1.
         -1    1    1    2    0  501 -0.17654699551E+02  0.14427899098E+02  0.28652467722E+02  0.36617162577E+02  0.00000000000E+00 0.  1.
</event>
<event>
 4    1  0.6935156E+001  0.1272140E+03  0.7546771E-02  0.1123565E+00
          2   -1    0    0  502    0  0.00000000000E+00  0.00000000000E+00  0.65295909251E+03  0.65295909251E+03  0.00000000000E+00 0. -1.
         -2   -1    0    0    0  501 -0.00000000000E+00 -0.00000000000E+00 -0.25584693224E+02  0.25584693224E+02  0.00000000000E+00 0.  1.
          1    1    1    2  502    0  0.44232175536E+02 -0.11927661883E+03  0.25369426232E+03  0.28380305828E+03  0.00000000000E+00 0. -1.
         -1    1    1    2    0  501 -0.44232175536E+02  0.11927661883E+03  0.37368013697E+03  0.39474072746E+03  0.00000000000E+00 0.  1.
</event>
<event>
 4    1  0.6935156E+001  0.2090857E+02  0.7546771E-02  0.1520574E+00
          2   -1    0    0  502    0  0.00000000000E+00  0.00000000000E+00  0.30798151927E+03  0.30798151927E+03  0.00000000000E+00 0.  1.
         -2   -1    0    0    0  501 -0.00000000000E+00 -0.00000000000E+00 -0.14936227085E+01  0.14936227085E+01  0.00000000000E+00 0. -1.
          1    1    1    2  502    0  0.88499260317E+01 -0.18943264984E+02  0.18772323747E+03  0.18888404476E+03  0.00000000000E+00 0.  1.
         -1    1    1    2    0  501 -0.88499260317E+01  0.18943264984E+02  0.11876465910E+03  0.12059109722E+03  0.00000000000E+00 0. -1.
</event>
<event>
 4    1  0.6935156E+001  0.2638139E+02  0.7546771E-02  0.1453923E+00
          2   -1    0    0  502    0  0.00000000000E+00  0.00000000000E+00  0.60697698988E+03  0.60697698988E+03  0.00000000000E+00 0.  1.
         -2   -1    0    0    0  501 -0.00000000000E+00 -0.00000000000E+00 -0.14252926632E+01  0.14252926632E+01  0.00000000000E+00 0. -1.
          1    1    1    2  502    0  0.22764575023E+02 -0.13332358955E+02  0.16826767950E+03  0.17032319171E+03  0.00000000000E+00 0. -1.
         -1    1    1    2    0  501 -0.22764575023E+02  0.13332358955E+02  0.43728401772E+03  0.43807909083E+03  0.00000000000E+00 0.  1.
</event>
<event>
 4    1  0.6935156E+001  0.2063939E+02  0.7546771E-02  0.1524476E+00
          2   -1    0    0  502    0  0.00000000000E+00  0.00000000000E+00  0.45583224252E+01  0.45583224252E+01  0.00000000000E+00 0. -1.
         -2   -1    0    0    0  501 -0.00000000000E+00 -0.00000000000E+00 -0.11233219144E+03  0.11233219144E+03  0.00000000000E+00 0.  1.
          1    1    1    2  502    0 -0.14309207811E+02 -0.14873834906E+02 -0.29926193883E+02  0.36353286967E+02  0.00000000000E+00 0.  1.
         -1    1    1    2    0  501  0.14309207811E+02  0.14873834906E+02 -0.77847675131E+02  0.80537226897E+02  0.00000000000E+00 0. -1.
</event>
<event>
 4    1  0.6935156E+001  0.2139483E+02  0.7546771E-02  0.1513702E+00
          2   -1    0    0  502    0  0.00000000000E+00  0.00000000000E+00  0.20083566897E+03  0.20083566897E+03  0.00000000000E+00 0. -1.
         -2   -1    0    0    0  501 -0.00000000000E+00 -0.00000000000E+00 -0.22795602332E+01  0.22795602332E+01  0.00000000000E+00 0.  1.
          1    1    1    2  502    0 -0.10377598678E+02 -0.18709463037E+02  0.10060741678E+03  0.10285713817E+03  0.00000000000E+00 0.  1.
         -1    1    1    2    0  501  0.10377598678E+02  0.18709463037E+02  0.97948691958E+02  0.10025809103E+03  0.00000000000E+00 0. -1.
</event>
<event>
 4    1  0.6935156E+001  0.2553362E+02  0.7546771E-02  0.1462921E+00
          2   -1    0    0  502    0  0.00000000000E+00  0.00000000000E+00  0.88119996307E+03  0.88119996307E+03  0.00000000000E+00 0.  1.
         -2   -1    0    0    0  501 -0.00000000000E+00 -0.00000000000E+00 -0.10102612229E+01  0.10102612229E+01  0.00000000000E+00 0. -1.
          1    1    1    2  502    0 -0.16738331865E+02  0.19281957014E+02  0.21188801493E+03  0.21342093733E+03  0.00000000000E+00 0. -1.
         -1    1    1    2    0  501  0.16738331865E+02 -0.19281957014E+02  0.66830168692E+03  0.66878928697E+03  0.00000000000E+00 0.  1.
</event>
<event>
 4    1  0.6935156E+001  0.2306895E+02  0.7546771E-02  0.1491634E+00
          2   -1    0    0  502    0  0.00000000000E+00  0.00000000000E+00  0.16728990243E+02  0.16728990243E+02  0.00000000000E+00 0. -1.
         -2   -1    0    0    0  501 -0.00000000000E+00 -0.00000000000E+00 -0.48890961335E+02  0.48890961335E+02  0.00000000000E+00 0.  1.
          1    1    1    2  502    0  0.12904625612E+01 -0.23032823567E+02 -0.35473190831E+02  0.42314578136E+02  0.00000000000E+00 0.  1.
         -1    1    1    2    0  501 -0.12904625612E+01  0.23032823567E+02  0.33112197398E+01  0.23305373442E+02  0.00000000000E+00 0. -1.
</event>
<event>
 4    1  0.6935156E+001  0.3250793E+02  0.7546771E-02  0.1398984E+00
          2   -1    0    0  502    0  0.00000000000E+00  0.00000000000E+00  0.29413109278E+03  0.29413109278E+03  0.00000000000E+00 0. -1.
         -2   -1    0    0    0  501 -0.00000000000E+00 -0.00000000000E+00 -0.39321221984E+01  0.39321221984E+01  0.00000000000E+00 0.  1.
          1    1    1    2  502    0  0.31616317930E+02 -0.75613340506E+01  0.18887656387E+03  0.19165365040E+03  0.00000000000E+00 0. -1.
         -1    1    1    2    0  501 -0.31616317930E+02  0.75613340506E+01  0.10132240671E+03  0.10640956458E+03  0.00000000000E+00 0.  1.
</event>
<event>
 4    1  0.6935156E+001  0.2555891E+02  0.7546771E-02  0.1462647E+00
          2   -1    0    0  502    0  0.00000000000E+00  0.00000000000E+00  0.12729485752E+02  0.12729485752E+02  0.00000000000E+00 0. -1.
         -2   -1    0    0    0  501 -0.00000000000E+00 -0.00000000000E+00 -0.51534008291E+02  0.51534008291E+02  0.00000000000E+00 0.  1.
          1    1    1    2  502    0 -0.21303035961E+02  0.14122272234E+02 -0.21480211920E+02  0.33386485564E+02  0.00000000000E+00 0. -1.
         -1    1    1    2    0  501  0.21303035961E+02 -0.14122272234E+02 -0.17324310619E+02  0.30877008479E+02  0.00000000000E+00 0.  1.
</event>
<event>
 4    1  0.6935156E+001  0.2258793E+02  0.7546771E-02  0.1497738E+00
          2   -1    0    0  502    0  0.00000000000E+00  0.00000000000E+00  0.14044175415E+02  0.14044175415E+02  0.00000000000E+00 0. -1.
         -2   -1    0    0    0  501 -0.00000000000E+00 -0.00000000000E+00 -0.36862919411E+02  0.36862919411E+02  0.00000000000E+00 0.  1.
          1    1    1    2  502    0  0.21323266995E+02 -0.74520248503E+01 -0.14471961146E+02  0.26826331265E+02  0.00000000000E+00 0. -1.
         -1    1    1    2    0  501 -0.21323266995E+02  0.74520248503E+01 -0.83467828507E+01  0.24080763561E+02  0.00000000000E+00 0.  1.
</event>
<event>
 4    1  0.6935156E+001  0.2649613E+02  0.7546771E-02  0.1452736E+00
          2   -1    0    0  502    0  0.00000000000E+00  0.00000000000E+00  0.11723421214E+03  0.11723421214E+03  0.00000000000E+00 0. -1.
         -2   -1    0    0    0  501 -0.00000000000E+00 -0.00000000000E+00 -0.61495054035E+01  0.61495054035E+01  0.00000000000E+00 0.  1.
          1    1    1    2  502    0  0.86572729259E+01  0.25041893857E+02  0.45556873298E+02  0.52701741215E+02  0.00000000000E+00 0.  1.
         -1    1    1    2    0  501 -0.86572729259E+01 -0.25041893857E+02  0.65527833438E+02  0.70681976328E+02  0.00000000000E+00 0. -1.
</event>
<event>
 4    1  0.6935156E+001  0.4235819E+02  0.7546771E-02  0.1335195E+00
          2   -1    0    0  502    0  0.00000000000E+00  0.00000000000E+00  0.29372864130E+02  0.29372864130E+02  0.00000000000E+00 0.  1.
         -2   -1    0    0    0  501 -0.00000000000E+00 -0.00000000000E+00 -0.89090611349E+02  0.89090611349E+02  0.00000000000E+00 0. -1.
          1    1    1    2  502    0  0.38040511043E+02  0.18631587270E+02  0.33510289378E+01  0.42490539177E+02  0.00000000000E+00 0.  1.
         -1    1    1    2    0  501 -0.38040511043E+02 -0.18631587270E+02 -0.63068776157E+02  0.75972936303E+02  0.00000000000E+00 0. -1.
</event>
<event>
 4    1  0.6935156E+001  0.3428859E+02  0.7546771E-02  0.1385635E+00
          2   -1    0    0  502    0  0.00000000000E+00  0.00000000000E+00  0.60139038431E+01  0.60139038431E+01  0.00000000000E+00 0.  1.
         -2   -1    0    0    0  501 -0.00000000000E+00 -0.00000000000E+00 -0.22550732229E+03  0.22550732229E+03  0.00000000000E+00 0. -1.
          1    1    1    2  502    0 -0.19203956375E+02 -0.28406256491E+02 -0.15197535695E+03  0.15579543148E+03  0.00000000000E+00 0. -1.
         -1    1    1    2    0  501  0.19203956375E+02  0.28406256491E+02 -0.67518061491E+02  0.75725794653E+02  0.00000000000E+00 0.  1.
</event>
<event>
 4    1  0.6935156E+001  0.2128474E+02  0.7546771E-02  0.1515238E+00
          2   -1    0    0  502    0  0.00000000000E+00  0.00000000000E+00  0.80277129978E+03  0.80277129978E+03  0.00000000000E+00 0.  1.
         -2   -1    0    0    0  501 -0.00000000000E+00 -0.00000000000E+00 -0.65572482047E+00  0.65572482047E+00  0.00000000000E+00 0. -1.
          1    1    1    2  502    0 -0.71772671389E+01  0.20038136636E+02  0.25109605788E+03  0.25199656816E+03  0.00000000000E+00 0. -1.
         -1    1    1    2    0  501  0.71772671389E+01 -0.20038136636E+02  0.55101951708E+03  0.55143045644E+03  0.00000000000E+00 0.  1.
</event>
<event>
 4    1  0.6935156E+001  0.3600121E+02  0.7546771E-02  0.1373658E+00
          2   -1    0    0  502    0  0.00000000000E+00  0.00000000000E+00  0.14497678451E+02  0.14497678451E+02  0.00000000000E+00 0.  1.
         -2   -1    0    0    0  501 -0.00000000000E+00 -0.00000000000E+00 -0.97412705780E+02  0.97412705780E+02  0.00000000000E+00 0. -1.
          1    1    1    2  502    0  0.12087002260E+02 -0.33911523515E+02 -0.57505933784E+02  0.67845556016E+02  0.00000000000E+00 0. -1.
         -1    1    1    2    0  501 -0.12087002260E+02  0.33911523515E+02 -0.25409093545E+02  0.44064828215E+02  0.00000000000E+00 0.  1.
</event>
<event>
 4    1  0.6935156E+001  0.4061322E+02  0.7546771E-02  0.1344929E+00
          2   -1    0    0  502    0  0.00000000000E+00  0.00000000000E+00  0.64139982883E+03  0.64139982883E+03  0.00000000000E+00 0. -1.
         -2   -1    0    0    0  501 -0.00000000000E+00 -0.00000000000E+00 -0.30038582276E+01  0.30038582276E+01  0.00000000000E+00 0.  1.
          1    1    1    2  502    0 -0.11199316177E+02 -0.39038562100E+02  0.19697526668E+03  0.20111859610E+03  0.00000000000E+00 0.  1.
         -1    1    1    2    0  501  0.11199316177E+02  0.39038562100E+02  0.44142070392E+03  0.44328509096E+03  0.00000000000E+00 0. -1.
</event>
<event>
 4    1  0.6935156E+001  0.3290314E+02  0.7546771E-02  0.1395936E+00
          2   -1    0    0  502    0  0.00000000000E+00  0.00000000000E+00  0.18939130905E+02  0.18939130905E+02  0.00000000000E+00 0.  1.
         -2   -1    0    0    0  501 -0.00000000000E+00 -0.00000000000E+00 -0.57215689537E+02  0.57215689537E+02  0.00000000000E+00 0. -1.
          1    1    1    2  502    0 -0.31252007309E+02  0.10292152699E+02 -0.17982095497E+02  0.37496294837E+02  0.00000000000E+00 0. -1.
         -1    1    1    2    0  501  0.31252007309E+02 -0.10292152699E+02 -0.20294463134E+02  0.38658525605E+02  0.00000000000E+00 0.  1.
</event>
<event>
 4    1  0.6935156E+001  0.4998509E+02  0.7546771E-02  0.1298237E+00
          2   -1    0    0  502    0  0.00000000000E+00  0.00000000000E+00  0.92448676229E+03  0.92448676229E+03  0.00000000000E+00 0.  1.
         -2   -1    0    0    0  501 -0.00000000000E+00 -0.00000000000E+00 -0.37048369014E+01  0.37048369014E+01  0.00000000000E+00 0. -1.
          1    1    1    2  502    0 -0.32387103242E+02  0.38073408522E+02  0.21900589437E+03  0.22463768753E+03  0.00000000000E+00 0. -1.
         -1    1    1    2    0  501  0.32387103242E+02 -0.38073408522E+02  0.70177603102E+03  0.70355391165E+03  0.00000000000E+00 0.  1.
</event>
<event>
 4    1  0.6935156E+001  0.2599163E+02  0.7546771E-02  0.1458009E+00
          2   -1    0    0  502    0  0.00000000000E+00  0.00000000000E+00  0.14290333668E+04  0.14290333668E+04  0.00000000000E+00 0.  1.
         -2   -1    0    0    0  501 -0.00000000000E+00 -0.00000000000E+00 -0.50492391201E+00  0.50492391201E+00  0.00000000000E+00 0. -1.
          1    1    1    2  502    0  0.10260008145E+02 -0.23880890766E+02  0.53381466193E+03  0.53444705818E+03  0.00000000000E+00 0. -1.
         -1    1    1    2    0  501 -0.10260008145E+02  0.23880890766E+02  0.89471378093E+03  0.89509123250E+03  0.00000000000E+00 0.  1.
</event>
<event>
 4    1  0.6935156E+001  0.2703078E+02  0.7546771E-02  0.1447299E+00
          2   -1    0    0  502    0  0.00000000000E+00  0.00000000000E+00  0.62964377713E+01  0.62964377713E+01  0.00000000000E+00 0.  1.
         -2   -1    0    0    0  501 -0.00000000000E+00 -0.00000000000E+00 -0.15478865537E+03  0.15478865537E+03  0.00000000000E+00 0. -1.
          1    1    1    2  502    0 -0.15017153187E+02  0.22475506944E+02 -0.11454212934E+03  0.11768841361E+03  0.00000000000E+00 0.  1.
         -1    1    1    2    0  501  0.15017153187E+02 -0.22475506944E+02 -0.33950088253E+02  0.43396679534E+02  0.00000000000E+00 0. -1.
</event>
<event>
 4    1  0.6935156E+001  0.2421112E+02  0.7546771E-02  0.1477825E+00
          2   -1    0    0  502    0  0.00000000000E+00  0.00000000000E+00  0.40632932316E+02  0.40632932316E+02  0.00000000000E+00 0. -1.
         -2   -1    0    0    0  501 -0.00000000000E+00 -0.00000000000E+00 -0.16480349793E+02  0.16480349793E+02  0.00000000000E+00 0.  1.
          1    1    1    2  502    0  0.22338170926E+02 -0.93372616050E+01  0.22158163674E+02  0.32820154662E+02  0.00000000000E+00 0. -1.
         -1    1    1    2    0  501 -0.22338170926E+02  0.93372616050E+01  0.19944188488E+01  0.24293127447E+02  0.00000000000E+00 0.  1.
</event>
<event>
 4    1  0.6935156E+001  0.2148772E+02  0.7546771E-02  0.1512414E+00
          2   -1    0    0  502    0  0.00000000000E+00  0.00000000000E+00  0.71188369980E+02  0.71188369980E+02  0.00000000000E+00 0. -1.
         -2   -1    0    0    0  501 -0.00000000000E+00 -0.00000000000E+00 -0.68369370753E+01  0.68369370753E+01  0.00000000000E+00 0.  1.
          1    1    1    2  502    0 -0.16624598180E+02 -0.13614135470E+02  0.23335968272E+02  0.31722064316E+02  0.00000000000E+00 0.  1.
         -1    1    1    2    0  501  0.16624598180E+02  0.13614135470E+02  0.41015464633E+02  0.46303242740E+02  0.00000000000E+00 0. -1.
</event>
<event>
 4    1  0.6935156E+001  0.2122326E+02  0.7546771E-02  0.1516101E+00
          2   -1    0    0  502    0  0.00000000000E+00  0.00000000000E+00  0.17441355491E+02  0.17441355491E+02  0.00000000000E+00 0. -1.
         -2   -1    0    0    0  501 -0.00000000000E+00 -0.00000000000E+00 -0.22602359887E+03  0.22602359887E+03  0.00000000000E+00 0.  1.
          1    1    1    2  502    0  0.19325486332E+02 -0.87722455465E+01  0.10275960639E+02  0.23580120461E+02  0.00000000000E+00 0. -1.
         -1    1    1    2    0  501 -0.19325486332E+02  0.87722455465E+01 -0.21885820402E+03  0.21988483390E+03  0.00000000000E+00 0.  1.
</event>
<event>
 4    1  0.6935156E+001  0.2171863E+02  0.7546771E-02  0.1509247E+00
          2   -1    0    0  502    0  0.00000000000E+00  0.00000000000E+00  0.12262321242E+02  0.12262321242E+02  0.00000000000E+00 0. -1.
         -2   -1    0    0    0  501 -0.00000000000E+00 -0.00000000000E+00 -0.41270530092E+02  0.41270530092E+02  0.00000000000E+00 0.  1.
          1    1    1    2  502    0  0.21228808146E+02 -0.45865447737E+01 -0.21479965860E+02  0.30546482966E+02  0.00000000000E+00 0.  1.
         -1    1    1    2    0  501 -0.21228808146E+02  0.45865447737E+01 -0.75282429898E+01  0.22986368368E+02  0.00000000000E+00 0. -1.
</event>
<event>
 4    1  0.6935156E+001  0.3103497E+02  0.7546771E-02  0.1410811E+00
          2   -1    0    0  502    0  0.00000000000E+00  0.00000000000E+00  0.11719979181E+03  0.11719979181E+03  0.00000000000E+00 0.  1.
         -2   -1    0    0    0  501 -0.00000000000E+00 -0.00000000000E+00 -0.87370081949E+01  0.87370081949E+01  0.00000000000E+00 0. -1.
          1    1    1    2  502    0  0.22750254186E+02 -0.21109135421E+02  0.38886965793E+02  0.49753047870E+02  0.00000000000E+00 0.  1.
         -1    1    1    2    0  501 -0.22750254186E+02  0.21109135421E+02  0.69575817818E+02  0.76183752131E+02  0.00000000000E+00 0. -1.
</event>
<event>
 4    1  0.6935156E+001  0.3354401E+02  0.7546771E-02  0.1391099E+00
          2   -1    0    0  502    0  0.00000000000E+00  0.00000000000E+00  0.10370952133E+03  0.10370952133E+03  0.00000000000E+00 0.  1.
         -2   -1    0    0    0  501 -0.00000000000E+00 -0.00000000000E+00 -0.11067960005E+02  0.11067960005E+02  0.00000000000E+00 0. -1.
          1    1    1    2  502    0 -0.13374830805E+02 -0.30762230542E+02  0.54382654114E+02  0.63895805773E+02  0.00000000000E+00 0.  1.
         -1    1    1    2    0  501  0.13374830805E+02  0.30762230542E+02  0.38258907210E+02  0.50881675561E+02  0.00000000000E+00 0. -1.
</event>
<event>
 4    1  0.6935156E+001  0.2379381E+02  0.7546771E-02  0.1482764E+00
          2   -1    0    0  502    0  0.00000000000E+00  0.00000000000E+00  0.13640287759E+04  0.13640287759E+04  0.00000000000E+00 0. -1.
         -2   -1    0    0    0  501 -0.00000000000E+00 -0.00000000000E+00 -0.19156576062E+01  0.19156576062E+01  0.00000000000E+00 0.  1.
          1    1    1    2  502    0 -0.13752953174E+02 -0.19416536826E+02  0.12855298044E+04  0.12857499849E+04  0.00000000000E+00 0. -1.
         -1    1    1    2    0  501  0.13752953174E+02  0.19416536826E+02  0.76583313913E+02  0.80194448644E+02  0.00000000000E+00 0.  1.
</event>
<event>
 4    1  0.6935156E+001  0.2463896E+02  0.7546771E-02  0.1472883E+00
          2   -1    0    0  502    0  0.00000000000E+00  0.00000000000E+00  0.33420412870E+03  0.33420412870E+03  0.00000000000E+00 0. -1.
         -2   -1    0    0    0  501 -0.00000000000E+00 -0.00000000000E+00 -0.19540450773E+01  0.19540450773E+01  0.00000000000E+00 0.  1.
          1    1    1    2  502    0 -0.12980897371E+02  0.20942175000E+02  0.21071992414E+03  0.21215552036E+03  0.00000000000E+00 0.  1.
         -1    1    1    2    0  501  0.12980897371E+02 -0.20942175000E+02  0.12153015948E+03  0.12400265341E+03  0.00000000000E+00 0. -1.
</event>
<event>
 4    1  0.6935156E+001  0.2005470E+02  0.7546771E-02  0.1533201E+00
          2   -1    0    0  502    0  0.00000000000E+00  0.00000000000E+00  0.12706473883E+03  0.12706473883E+03  0.00000000000E+00 0. -1.
         -2   -1    0    0    0  501 -0.00000000000E+00 -0.00000000000E+00 -0.33836200993E+01  0.33836200993E+01  0.00000000000E+00 0.  1.
          1    1    1    2  502    0 -0.16855305234E+02  0.10866916100E+02  0.78410395123E+02  0.80934425577E+02  0.00000000000E+00 0.  1.
         -1    1    1    2    0  501  0.16855305234E+02 -0.10866916100E+02  0.45270723607E+02  0.49513933352E+02  0.00000000000E+00 0. -1.
</event>
<event>
 4    1  0.6935156E+001  0.2172609E+02  0.7546771E-02  0.1509146E+00
          2   -1    0    0  502    0  0.00000000000E+00  0.00000000000E+00  0.11329561242E+03  0.11329561242E+03  0.00000000000E+00 0.  1.
         -2   -1    0    0    0  501 -0.00000000000E+00 -0.00000000000E+00 -0.48150738760E+01  0.48150738760E+01  0.00000000000E+00 0. -1.
          1    1    1    2  502    0 -0.66160150014E+01  0.20694236968E+02  0.32562948030E+02  0.39145480999E+02  0.00000000000E+00 0. -1.
         -1    1    1    2    0  501  0.66160150014E+01 -0.20694236968E+02  0.75917590509E+02  0.78965205293E+02  0.00000000000E+00 0.  1.
</event>
<event>
 4    1  0.6935156E+001  0.2341278E+02  0.7546771E-02  0.1487379E+00
          2   -1    0    0  502    0  0.00000000000E+00  0.00000000000E+00  0.88409501071E+03  0.88409501071E+03  0.00000000000E+00 0. -1.
         -2   -1    0    0    0  501 -0.00000000000E+00 -0.00000000000E+00 -0.63910497220E+00  0.63910497220E+00  0.00000000000E+00 0.  1.
          1    1    1    2  502    0 -0.23383640788E+02  0.11677260533E+01  0.36528786394E+03  0.36603740489E+03  0.00000000000E+00 0.  1.
         -1    1    1    2    0  501  0.23383640788E+02 -0.11677260533E+01  0.51816804180E+03  0.51869671078E+03  0.00000000000E+00 0. -1.
</event>
<event>
 4    1  0.6935156E+001  0.2556162E+02  0.7546771E-02  0.1462618E+00
          2   -1    0    0  502    0  0.00000000000E+00  0.00000000000E+00  0.35210643036E+03  0.35210643036E+03  0.00000000000E+00 0.  1.
         -2   -1    0    0    0  501 -0.00000000000E+00 -0.00000000000E+00 -0.23943079847E+01  0.23943079847E+01  0.00000000000E+00 0. -1.
          1    1    1    2  502    0 -0.17979479261E+02  0.18169604334E+02  0.90785807258E+02  0.94315740975E+02  0.00000000000E+00 0. -1.
         -1    1    1    2    0  501  0.17979479261E+02 -0.18169604334E+02  0.25892631512E+03  0.26018499737E+03  0.00000000000E+00 0.  1.
</event>
<event>
 4    1  0.6935156E+001  0.3916028E+02  0.7546771E-02  0.1353478E+00
          2   -1    0    0  502    0  0.00000000000E+00  0.00000000000E+00  0.10168889490E+04  0.10168889490E+04  0.00000000000E+00 0.  1.
         -2   -1    0    0    0  501 -0.00000000000E+00 -0.00000000000E+00 -0.15501486831E+01  0.15501486831E+01  0.00000000000E+00 0. -1.
          1    1    1    2  502    0 -0.32122372363E+02  0.22398235162E+02  0.42376007838E+03  0.42556566094E+03  0.00000000000E+00 0. -1.
         -1    1    1    2    0  501  0.32122372363E+02 -0.22398235162E+02  0.59157872194E+03  0.59287343674E+03  0.00000000000E+00 0.  1.
</event>
<event>
 4    1  0.6935156E+001  0.2167825E+02  0.7546771E-02  0.1509797E+00
          2   -1    0    0  502    0  0.00000000000E+00  0.00000000000E+00  0.32005397542E+03  0.32005397542E+03  0.00000000000E+00 0. -1.
         -2   -1    0    0    0  501 -0.00000000000E+00 -0.00000000000E+00 -0.30106750918E+01  0.30106750918E+01  0.00000000000E+00 0.  1.
          1    1    1    2  502    0  0.20531324582E+02  0.69578317814E+01  0.27413752250E+03  0.27499332348E+03  0.00000000000E+00 0. -1.
         -1    1    1    2    0  501 -0.20531324582E+02 -0.69578317814E+01  0.42905777822E+02  0.48071327032E+02  0.00000000000E+00 0.  1.
</event>
<event>
 4    1  0.6935156E+001  0.3013596E+02  0.7546771E-02  0.1418419E+00
          2   -1    0    0  502    0  0.00000000000E+00  0.00000000000E+00  0.14947990707E+04  0.14947990707E+04  0.00000000000E+00 0.  1.
         -2   -1    0    0    0  501 -0.00000000000E+00 -0.00000000000E+00 -0.78257627425E+00  0.78257627425E+00  0.00000000000E+00 0. -1.
          1    1    1    2  502    0 -0.37181937200E+00  0.30133666592E+02  0.39336991015E+03  0.39452257518E+03  0.00000000000E+00 0. -1.
         -1    1    1    2    0  501  0.37181937200E+00 -0.30133666592E+02  0.11006465843E+04  0.11010590718E+04  0.00000000000E+00 0.  1.
</event>
<event>
 4    1  0.6935156E+001  0.2079068E+02  0.7546771E-02  0.1522275E+00
          2   -1    0    0  502    0  0.00000000000E+00  0.00000000000E+00  0.23645664268E+03  0.23645664268E+03  0.00000000000E+00 0.  1.
         -2   -1    0    0    0  501 -0.00000000000E+00 -0.00000000000E+00 -0.19547859850E+01  0.19547859850E+01  0.00000000000E+00 0. -1.
          1    1    1    2  502    0  0.90037685010E+01 -0.18739918449E+02  0.14760473741E+03  0.14906176873E+03  0.00000000000E+00 0.  1.
         -1    1    1    2    0  501 -0.90037685010E+01  0.18739918449E+02  0.86897119292E+02  0.89349659943E+02  0.00000000000E+00 0. -1.
</event>
<event>
 4    1  0.6935156E+001  0.2227933E+02  0.7546771E-02  0.1501751E+00
          2   -1    0    0  502    0  0.00000000000E+00  0.00000000000E+00  0.37681686594E+01  0.37681686594E+01  0.00000000000E+00 0. -1.
         -2   -1    0    0    0  501 -0.00000000000E+00 -0.00000000000E+00 -0.61670578181E+03  0.61670578181E+03  0.00000000000E+00 0.  1.
          1    1    1    2  502    0  0.19835264981E+02 -0.10145479681E+02 -0.58158492933E+03  0.58201151064E+03  0.00000000000E+00 0.  1.
         -1    1    1    2    0  501 -0.19835264981E+02  0.10145479681E+02 -0.31352683822E+02  0.38462439830E+02  0.00000000000E+00 0. -1.
</event>
<event>
 4    1  0.6935156E+001  0.3027702E+02  0.7546771E-02  0.1417204E+00
          2   -1    0    0  502    0  0.00000000000E+00  0.00000000000E+00  0.28671550591E+03  0.28671550591E+03  0.00000000000E+00 0. -1.
         -2   -1    0    0    0  501 -0.00000000000E+00 -0.00000000000E+00 -0.41069303343E+01  0.41069303343E+01  0.00000000000E+00 0.  1.
          1    1    1    2  502    0 -0.19607706985E+02 -0.23070238037E+02  0.72868034597E+02  0.78907848293E+02  0.00000000000E+00 0. -1.
         -1    1    1    2    0  501  0.19607706985E+02  0.23070238037E+02  0.20974054098E+03  0.21191458795E+03  0.00000000000E+00 0.  1.
</event>
<event>
 4    1  0.6935156E+001  0.2586351E+02  0.7546771E-02  0.1459371E+00
          2   -1    0    0  502    0  0.00000000000E+00  0.00000000000E+00  0.54269047093E+01  0.54269047093E+01  0.00000000000E+00 0.  1.
         -2   -1    0    0    0  501 -0.00000000000E+00 -0.00000000000E+00 -0.14262764748E+03  0.14262764748E+03  0.00000000000E+00 0. -1.
          1    1    1    2  502    0  0.13603979706E+02 -0.21996652442E+02 -0.41321469552E+02  0.48748177693E+02  0.00000000000E+00 0.  1.
         -1    1    1    2    0  501 -0.13603979706E+02  0.21996652442E+02 -0.95879273218E+02  0.99306374495E+02  0.00000000000E+00 0. -1.
</event>
<event>
 4    1  0.6935156E+001  0.3055576E+02  0.7546771E-02  0.1414827E+00
          2   -1    0    0  502    0  0.00000000000E+00  0.00000000000E+00  0.17247609366E+04  0.17247609366E+04  0.00000000000E+00 0.  1.
         -2   -1    0    0    0  501 -0.00000000000E+00 -0.00000000000E+00 -0.54233983590E+00  0.54233983590E+00  0.00000000000E+00 0. -1.
          1    1    1    2  502    0  0.16042344015E+02  0.26005722523E+02  0.82477380762E+03  0.82533961988E+03  0.00000000000E+00 0. -1.
         -1    1    1    2    0  501 -0.16042344015E+02 -0.26005722523E+02  0.89944478911E+03  0.89996365653E+03  0.00000000000E+00 0.  1.
</event>
<event>
 4    1  0.6935156E+001  0.4846650E+02  0.7546771E-02  0.1304962E+00
          2   -1    0    0  502    0  0.00000000000E+00  0.00000000000E+00  0.21035878324E+02  0.21035878324E+02  0.00000000000E+00 0.  1.
         -2   -1    0    0    0  501 -0.00000000000E+00 -0.00000000000E+00 -0.23254542983E+03  0.23254542983E+03  0.00000000000E+00 0. -1.
          1    1    1    2  502    0 -0.31274063447E+02  0.37026138150E+02 -0.14341615615E+02  0.50543880829E+02  0.00000000000E+00 0.  1.
         -1    1    1    2    0  501  0.31274063447E+02 -0.37026138150E+02 -0.19716793589E+03  0.20303742732E+03  0.00000000000E+00 0. -1.
</event>
<event>
 4    1  0.6935156E+001  0.2350216E+02  0.7546771E-02  0.1486287E+00
          2   -1    0    0  502    0  0.00000000000E+00  0.00000000000E+00  0.48380747117E+02  0.48380747117E+02  0.00000000000E+00 0.  1.
         -2   -1    0    0    0  501 -0.00000000000E+00 -0.00000000000E+00 -0.14538971298E+02  0.14538971298E+02  0.00000000000E+00 0. -1.
          1    1    1    2  502    0  0.11671267529E+01 -0.23473162272E+02  0.23421187320E+01  0.23618574302E+02  0.00000000000E+00 0. -1.
         -1    1    1    2    0  501 -0.11671267529E+01  0.23473162272E+02  0.31499657087E+02  0.39301144112E+02  0.00000000000E+00 0.  1.
</event>
<event>
 4    1  0.6935156E+001  0.2918148E+02  0.7546771E-02  0.1426845E+00
          2   -1    0    0  502    0  0.00000000000E+00  0.00000000000E+00  0.67105336789E+03  0.67105336789E+03  0.00000000000E+00 0. -1.
         -2   -1    0    0    0  501 -0.00000000000E+00 -0.00000000000E+00 -0.13623173018E+01  0.13623173018E+01  0.00000000000E+00 0.  1.
          1    1    1    2  502    0 -0.21694570507E+02 -0.19516774926E+02  0.24684668611E+03  0.24856557553E+03  0.00000000000E+00 0. -1.
         -1    1    1    2    0  501  0.21694570507E+02  0.19516774926E+02  0.42284436448E+03  0.42385010966E+03  0.00000000000E+00 0.  1.
</event>
<event>
 4    1  0.6935156E+001  0.2315988E+02  0.7546771E-02  0.1490500E+00
          2   -1    0    0  502    0  0.00000000000E+00  0.00000000000E+00  0.34540045272E+03  0.34540045272E+03  0.00000000000E+00 0.  1.
         -2   -1    0    0    0  501 -0.00000000000E+00 -0.00000000000E+00 -0.28147475689E+01  0.28147475689E+01  0.00000000000E+00 0. -1.
          1    1    1    2  502    0  0.23154389527E+02  0.50424542524E+00  0.28786576230E+03  0.28879590912E+03  0.00000000000E+00 0.  1.
         -1    1    1    2    0  501 -0.23154389527E+02 -0.50424542524E+00  0.54719942848E+02  0.59419291169E+02  0.00000000000E+00 0. -1.
</event>
<event>
 4    1  0.6935156E+001  0.2228981E+02  0.7546771E-02  0.1501614E+00
          2   -1    0    0  502    0  0.00000000000E+00  0.00000000000E+00  0.96658791563E+02  0.96658791563E+02  0.00000000000E+00 0.  1.
         -2   -1    0    0    0  501 -0.00000000000E+00 -0.00000000000E+00 -0.53367350958E+01  0.53367350958E+01  0.00000000000E+00 0. -1.
          1    1    1    2  502    0  0.20982413549E+02 -0.75215639223E+01  0.35871839399E+02  0.42232978394E+02  0.00000000000E+00 0. -1.
         -1    1    1    2    0  501 -0.20982413549E+02  0.75215639223E+01  0.55450217068E+02  0.59762548264E+02  0.00000000000E+00 0.  1.
</event>
<event>
 4    1  0.6935156E+001  0.1113630E+03  0.7546771E-02  0.1145452E+00
          2   -1    0    0  502    0  0.00000000000E+00  0.00000000000E+00  0.57419667707E+03  0.57419667707E+03  0.00000000000E+00 0.  1.
         -2   -1    0    0    0  501 -0.00000000000E+00 -0.00000000000E+00 -0.30386502574E+02  0.30386502574E+02  0.00000000000E+00 0. -1.
          1    1    1    2  502    0 -0.12602442427E+02  0.11064761929E+03  0.10933756207E+03  0.15606543400E+03  0.00000000000E+00 0. -1.
         -1    1    1    2    0  501  0.12602442427E+02 -0.11064761929E+03  0.43447261242E+03  0.44851774564E+03  0.00000000000E+00 0.  1.
</event>
<event>
 4    1  0.6935156E+001  0.2451195E+02  0.7546771E-02  0.1474338E+00
          2   -1    0    0  502    0  0.00000000000E+00  0.00000000000E+00  0.93180182012E+02  0.93180182012E+02  0.00000000000E+00 0.  1.
         -2   -1    0    0    0  501 -0.00000000000E+00 -0.00000000000E+00 -0.96424383094E+01  0.96424383094E+01  0.00000000000E+00 0. -1.
          1    1    1    2  502    0 -0.23702739108E+02 -0.62462629125E+01  0.12178166333E+02  0.27370483679E+02  0.00000000000E+00 0. -1.
         -1    1    1    2    0  501  0.23702739108E+02  0.62462629125E+01  0.71359577370E+02  0.75452136643E+02  0.00000000000E+00 0.  1.
</event>
<event>
 4    1  0.6935156E+001  0.2292265E+02  0.7546771E-02  0.1493472E+00
          2   -1    0    0  502    0  0.00000000000E+00  0.00000000000E+00  0.16141777785E+04  0.16141777785E+04  0.00000000000E+00 0. -1.
         -2   -1    0    0    0  501 -0.00000000000E+00 -0.00000000000E+00 -0.12942587141E+01  0.12942587141E+01  0.00000000000E+00 0.  1.
          1    1    1    2  502    0 -0.22160474049E+02 -0.58618547189E+01  0.10762692261E+03  0.11004091248E+03  0.00000000000E+00 0.  1.
         -1    1    1    2    0  501  0.22160474049E+02  0.58618547189E+01  0.15052565971E+04  0.15054311247E+04  0.00000000000E+00 0. -1.
</event>
<event>
 4    1  0.6935156E+001  0.2155438E+02  0.7546771E-02  0.1511495E+00
          2   -1    0    0  502    0  0.00000000000E+00  0.00000000000E+00  0.53459743477E+00  0.53459743477E+00  0.00000000000E+00 0.  1.
         -2   -1    0    0    0  501 -0.00000000000E+00 -0.00000000000E+00 -0.11535236514E+04  0.11535236514E+04  0.00000000000E+00 0. -1.
          1    1    1    2  502    0 -0.20932960692E+02  0.51383294971E+01 -0.86304847833E+03  0.86331759348E+03  0.00000000000E+00 0. -1.
         -1    1    1    2    0  501  0.20932960692E+02 -0.51383294971E+01 -0.28994057560E+03  0.29074065531E+03  0.00000000000E+00 0.  1.
</event>
<event>
 4    1  0.6935156E+001  0.5368806E+02  0.7546771E-02  0.1282928E+00
          2   -1    0    0  502    0  0.00000000000E+00  0.00000000000E+00  0.31417559318E+04  0.31417559318E+04  0.00000000000E+00 0.  1.
         -2   -1    0    0    0  501 -0.00000000000E+00 -0.00000000000E+00 -0.12697470006E+01  0.12697470006E+01  0.00000000000E+00 0. -1.
          1    1    1    2  502    0 -0.45212539196E+02  0.28952278636E+02  0.74246678356E+03  0.74440535519E+03  0.00000000000E+00 0. -1.
         -1    1    1    2    0  501  0.45212539196E+02 -0.28952278636E+02  0.23980194012E+04  0.23986203236E+04  0.00000000000E+00 0.  1.
</event>
<event>
 4    1  0.6935156E+001  0.2036461E+02  0.7546771E-02  0.1528533E+00
          2   -1    0    0  502    0  0.00000000000E+00  0.00000000000E+00  0.57802832057E+02  0.57802832057E+02  0.00000000000E+00 0.  1.
         -2   -1    0    0    0  501 -0.00000000000E+00 -0.00000000000E+00 -0.77155387664E+01  0.77155387664E+01  0.00000000000E+00 0. -1.
          1    1    1    2  502    0  0.12238229203E+02 -0.16277069309E+02  0.33717039360E+02  0.39389795411E+02  0.00000000000E+00 0.  1.
         -1    1    1    2    0  501 -0.12238229203E+02  0.16277069309E+02  0.16370253931E+02  0.26128575413E+02  0.00000000000E+00 0. -1.
</event>
<event>
 4    1  0.6935156E+001  0.2224198E+02  0.7546771E-02  0.1502242E+00
          2   -1    0    0  502    0  0.00000000000E+00  0.00000000000E+00  0.50262316518E+03  0.50262316518E+03  0.00000000000E+00 0. -1.
         -2   -1    0    0    0  501 -0.00000000000E+00 -0.00000000000E+00 -0.99300592419E+00  0.99300592419E+00  0.00000000000E+00 0.  1.
          1    1    1    2  502    0  0.22173222687E+02 -0.17475293908E+01  0.22716659536E+03  0.22825285915E+03  0.00000000000E+00 0. -1.
         -1    1    1    2    0  501 -0.22173222687E+02  0.17475293908E+01  0.27446356390E+03  0.27536331196E+03  0.00000000000E+00 0.  1.
</event>
<event>
 4    1  0.6935156E+001  0.2823592E+02  0.7546771E-02  0.1435573E+00
          2   -1    0    0  502    0  0.00000000000E+00  0.00000000000E+00  0.16519753980E+01  0.16519753980E+01  0.00000000000E+00 0.  1.
         -2   -1    0    0    0  501 -0.00000000000E+00 -0.00000000000E+00 -0.85406710758E+03  0.85406710758E+03  0.00000000000E+00 0. -1.
          1    1    1    2  502    0 -0.60127701645E+01 -0.27588290032E+02 -0.14404007637E+03  0.14678150684E+03  0.00000000000E+00 0.  1.
         -1    1    1    2    0  501  0.60127701645E+01  0.27588290032E+02 -0.70837505582E+03  0.70893757613E+03  0.00000000000E+00 0. -1.
</event>
<event>
 4    1  0.6935156E+001  0.2656994E+02  0.7546771E-02  0.1451977E+00
          2   -1    0    0  502    0  0.00000000000E+00  0.00000000000E+00  0.30819541821E+03  0.30819541821E+03  0.00000000000E+00 0.  1.
         -2   -1    0    0    0  501 -0.00000000000E+00 -0.00000000000E+00 -0.27404644560E+01  0.27404644560E+01  0.00000000000E+00 0. -1.
          1    1    1    2  502    0  0.15924367450E+02  0.21269144062E+02  0.89739935766E+02  0.93590694191E+02  0.00000000000E+00 0.  1.
         -1    1    1    2    0  501 -0.15924367450E+02 -0.21269144062E+02  0.21571501799E+03  0.21734518848E+03  0.00000000000E+00 0. -1.
</event>
<event>
 4    1  0.6935156E+001  0.3469327E+02  0.7546771E-02  0.1382732E+00
          2   -1    0    0  502    0  0.00000000000E+00  0.00000000000E+00  0.20461287247E+02  0.20461287247E+02  0.00000000000E+00 0.  1.
         -2   -1    0    0    0  501 -0.00000000000E+00 -0.00000000000E+00 -0.82581683751E+02  0.82581683751E+02  0.00000000000E+00 0. -1.
          1    1    1    2  502    0  0.22594114526E+02 -0.26327344794E+02 -0.58694267099E+02  0.68180936378E+02  0.00000000000E+00 0.  1.
         -1    1    1    2    0  501 -0.22594114526E+02  0.26327344794E+02 -0.34261294059E+01  0.34862034620E+02  0.00000000000E+00 0. -1.
</event>
<event>
 4    1  0.6935156E+001  0.2288242E+02  0.7546771E-02  0.1493980E+00
          2   -1    0    0  502    0  0.00000000000E+00  0.00000000000E+00  0.25438552397E+04  0.25438552397E+04  0.00000000000E+00 0. -1.
         -2   -1    0    0    0  501 -0.00000000000E+00 -0.00000000000E+00 -0.22430441138E+00  0.22430441138E+00  0.00000000000E+00 0.  1.
          1    1    1    2  502    0  0.50129360995E+01  0.22326568503E+02  0.90676654165E+03  0.90705521675E+03  0.00000000000E+00 0.  1.
         -1    1    1    2    0  501 -0.50129360995E+01 -0.22326568503E+02  0.16368643937E+04  0.16370243274E+04  0.00000000000E+00 0. -1.
</event>
<event>
 4    1  0.6935156E+001  0.4446977E+02  0.7546771E-02  0.1324112E+00
          2   -1    0    0  502    0  0.00000000000E+00  0.00000000000E+00  0.33514728697E+02  0.33514728697E+02  0.00000000000E+00 0.  1.
         -2   -1    0    0    0  501 -0.00000000000E+00 -0.00000000000E+00 -0.88803012217E+02  0.88803012217E+02  0.00000000000E+00 0. -1.
          1    1    1    2  502    0 -0.44398400450E+02  0.25183854561E+01  0.77828363726E+01  0.45145683845E+02  0.00000000000E+00 0.  1.
         -1    1    1    2    0  501  0.44398400450E+02 -0.25183854561E+01 -0.63071119893E+02  0.77172057069E+02  0.00000000000E+00 0. -1.
</event>
<event>
 4    1  0.6935156E+001  0.2171814E+02  0.7546771E-02  0.1509254E+00
          2   -1    0    0  502    0  0.00000000000E+00  0.00000000000E+00  0.24739805346E+02  0.24739805346E+02  0.00000000000E+00 0.  1.
         -2   -1    0    0    0  501 -0.00000000000E+00 -0.00000000000E+00 -0.22194597138E+02  0.22194597138E+02  0.00000000000E+00 0. -1.
          1    1    1    2  502    0 -0.19223044909E+02  0.10107038060E+02 -0.75387898775E+01  0.22989367689E+02  0.00000000000E+00 0. -1.
         -1    1    1    2    0  501  0.19223044909E+02 -0.10107038060E+02  0.10083998086E+02  0.23945034795E+02  0.00000000000E+00 0.  1.
</event>
<event>
 4    1  0.6935156E+001  0.2437121E+02  0.7546771E-02  0.1475962E+00
          2   -1    0    0  502    0  0.00000000000E+00  0.00000000000E+00  0.38036917395E+03  0.38036917395E+03  0.00000000000E+00 0.  1.
         -2   -1    0    0    0  501 -0.00000000000E+00 -0.00000000000E+00 -0.16536680410E+01  0.16536680410E+01  0.00000000000E+00 0. -1.
          1    1    1    2  502    0  0.47333856070E+01  0.23907133577E+02  0.14426918580E+03  0.14631320496E+03  0.00000000000E+00 0. -1.
         -1    1    1    2    0  501 -0.47333856070E+01 -0.23907133577E+02  0.23444632011E+03  0.23570963703E+03  0.00000000000E+00 0.  1.
</event>
<event>
 4    1  0.6935156E+001  0.2161815E+02  0.7546771E-02  0.1510619E+00
          2   -1    0    0  502    0  0.00000000000E+00  0.00000000000E+00  0.11424119896E+02  0.11424119896E+02  0.00000000000E+00 0. -1.
         -2   -1    0    0    0  501 -0.00000000000E+00 -0.00000000000E+00 -0.43538750076E+02  0.43538750076E+02  0.00000000000E+00 0.  1.
          1    1    1    2  502    0  0.15545800790E+02  0.15022406389E+02 -0.93028234261E+01  0.23534806981E+02  0.00000000000E+00 0. -1.
         -1    1    1    2    0  501 -0.15545800790E+02 -0.15022406389E+02 -0.22811806754E+02  0.31428062990E+02  0.00000000000E+00 0.  1.
</event>
<event>
 4    1  0.6935156E+001  0.3016066E+02  0.7546771E-02  0.1418205E+00
          2   -1    0    0  502    0  0.00000000000E+00  0.00000000000E+00  0.10696387738E+03  0.10696387738E+03  0.00000000000E+00 0.  1.
         -2   -1    0    0    0  501 -0.00000000000E+00 -0.00000000000E+00 -0.85234678602E+01  0.85234678602E+01  0.00000000000E+00 0. -1.
          1    1    1    2  502    0  0.14772614807E+02  0.26295152633E+02  0.46490116734E+02  0.55416569311E+02  0.00000000000E+00 0.  1.
         -1    1    1    2    0  501 -0.14772614807E+02 -0.26295152633E+02  0.51950292785E+02  0.60070775928E+02  0.00000000000E+00 0. -1.
</event>
<event>
 4    1  0.6935156E+001  0.3035095E+02  0.7546771E-02  0.1416571E+00
          2   -1    0    0  502    0  0.00000000000E+00  0.00000000000E+00  0.39721827695E+02  0.39721827695E+02  0.00000000000E+00 0. -1.
         -2   -1    0    0    0  501 -0.00000000000E+00 -0.00000000000E+00 -0.34901863610E+02  0.34901863610E+02  0.00000000000E+00 0.  1.
          1    1    1    2  502    0 -0.23790885365E+01  0.30257559010E+02  0.24023281503E+02  0.38707854418E+02  0.00000000000E+00 0.  1.
         -1    1    1    2    0  501  0.23790885365E+01 -0.30257559010E+02 -0.19203317417E+02  0.35915836887E+02  0.00000000000E+00 0. -1.
</event>
<event>
 4    1  0.6935156E+001  0.3857710E+02  0.7546771E-02  0.1357032E+00
          2   -1    0    0  502    0  0.00000000000E+00  0.00000000000E+00  0.15001400566E+03  0.15001400566E+03  0.00000000000E+00 0. -1.
         -2   -1    0    0    0  501 -0.00000000000E+00 -0.00000000000E+00 -0.12408597675E+02  0.12408597675E+02  0.00000000000E+00 0.  1.
          1    1    1    2  502    0 -0.33166554641E+02  0.19702083015E+02  0.10516919119E+03  0.11202120869E+03  0.00000000000E+00 0. -1.
         -1    1    1    2    0  501  0.33166554641E+02 -0.19702083015E+02  0.32436216798E+02  0.50401394644E+02  0.00000000000E+00 0.  1.
</event>
<event>
 4    1  0.6935156E+001  0.2429239E+02  0.7546771E-02  0.1476877E+00
          2   -1    0    0  502    0  0.00000000000E+00  0.00000000000E+00  0.30591140780E+04  0.30591140780E+04  0.00000000000E+00 0. -1.
         -2   -1    0    0    0  501 -0.00000000000E+00 -0.00000000000E+00 -0.19291513878E+00  0.19291513878E+00  0.00000000000E+00 0.  1.
          1    1    1    2  502    0 -0.17395477522E+02 -0.16956336892E+02  0.15402604348E+04  0.15404519879E+04  0.00000000000E+00 0.  1.
         -1    1    1    2    0  501  0.17395477522E+02  0.16956336892E+02  0.15186607281E+04  0.15188550053E+04  0.00000000000E+00 0. -1.
</event>
<event>
 4    1  0.6935156E+001  0.3455755E+02  0.7546771E-02  0.1383701E+00
          2   -1    0    0  502    0  0.00000000000E+00  0.00000000000E+00  0.14092111763E+04  0.14092111763E+04  0.00000000000E+00 0.  1.
         -2   -1    0    0    0  501 -0.00000000000E+00 -0.00000000000E+00 -0.13009115349E+01  0.13009115349E+01  0.00000000000E+00 0. -1.
          1    1    1    2  502    0 -0.12706102283E+02  0.32136879694E+02  0.11203421866E+04  0.11208750328E+04  0.00000000000E+00 0.  1.
         -1    1    1    2    0  501  0.12706102283E+02 -0.32136879694E+02  0.28756807820E+03  0.28963705508E+03  0.00000000000E+00 0. -1.
</event>
<event>
 4    1  0.6935156E+001  0.3111994E+02  0.7546771E-02  0.1410107E+00
          2   -1    0    0  502    0  0.00000000000E+00  0.00000000000E+00  0.11158588641E+04  0.11158588641E+04  0.00000000000E+00 0.  1.
         -2   -1    0    0    0  501 -0.00000000000E+00 -0.00000000000E+00 -0.13587603544E+01  0.13587603544E+01  0.00000000000E+00 0. -1.
          1    1    1    2  502    0  0.21260978338E+02 -0.22724906074E+02  0.89300054291E+03  0.89354262360E+03  0.00000000000E+00 0.  1.
         -1    1    1    2    0  501 -0.21260978338E+02  0.22724906074E+02  0.22149956083E+03  0.22367500084E+03  0.00000000000E+00 0. -1.
</event>
<event>
 4    1  0.6935156E+001  0.3249987E+02  0.7546771E-02  0.1399047E+00
          2   -1    0    0  502    0  0.00000000000E+00  0.00000000000E+00  0.81877686038E+01  0.81877686038E+01  0.00000000000E+00 0. -1.
         -2   -1    0    0    0  501 -0.00000000000E+00 -0.00000000000E+00 -0.13515891742E+03  0.13515891742E+03  0.00000000000E+00 0.  1.
          1    1    1    2  502    0  0.18488605876E+02 -0.26728507520E+02 -0.78782475717E+02  0.85222767742E+02  0.00000000000E+00 0. -1.
         -1    1    1    2    0  501 -0.18488605876E+02  0.26728507520E+02 -0.48188673103E+02  0.58123918286E+02  0.00000000000E+00 0.  1.
</event>
<event>
 4    1  0.6935156E+001  0.2415264E+02  0.7546771E-02  0.1478510E+00
          2   -1    0    0  502    0  0.00000000000E+00  0.00000000000E+00  0.75137196181E+02  0.75137196181E+02  0.00000000000E+00 0.  1.
         -2   -1    0    0    0  501 -0.00000000000E+00 -0.00000000000E+00 -0.81946736301E+01  0.81946736301E+01  0.00000000000E+00 0. -1.
          1    1    1    2  502    0 -0.14285539770E+01 -0.24110353733E+02  0.43025407165E+02  0.49341013217E+02  0.00000000000E+00 0.  1.
         -1    1    1    2    0  501  0.14285539770E+01  0.24110353733E+02  0.23917115386E+02  0.33990856594E+02  0.00000000000E+00 0. -1.
</event>
<event>
 4    1  0.6935156E+001  0.2318081E+02  0.7546771E-02  0.1490240E+00
          2   -1    0    0  502    0  0.00000000000E+00  0.00000000000E+00  0.64652058239E+02  0.64652058239E+02  0.00000000000E+00 0. -1.
         -2   -1    0    0    0  501 -0.00000000000E+00 -0.00000000000E+00 -0.83696261788E+01  0.83696261788E+01  0.00000000000E+00 0.  1.
          1    1    1    2  502    0  0.21408768581E+02  0.88890073906E+01  0.31186214921E+02  0.38857815503E+02  0.00000000000E+00 0.  1.
         -1    1    1    2    0  501 -0.21408768581E+02 -0.88890073906E+01  0.25096217139E+02  0.34163868915E+02  0.00000000000E+00 0. -1.
</event>
<event>
 4    1  0.6935156E+001  0.2692645E+02  0.7546771E-02  0.1448348E+00
          2   -1    0    0  502    0  0.00000000000E+00  0.00000000000E+00  0.26471596883E+02  0.26471596883E+02  0.00000000000E+00 0.  1.
         -2   -1    0    0    0  501 -0.00000000000E+00 -0.00000000000E+00 -0.10097277632E+03  0.10097277632E+03  0.00000000000E+00 0. -1.
          1    1    1    2  502    0  0.58196684851E+01  0.26290017795E+02 -0.91648124895E+02  0.95521790047E+02  0.00000000000E+00 0. -1.
         -1    1    1    2    0  501 -0.58196684851E+01 -0.26290017795E+02  0.17146945456E+02  0.31922583157E+02  0.00000000000E+00 0.  1.
</event>
<event>
 4    1  0.6935156E+001  0.4607889E+02  0.7546771E-02  0.1316131E+00
          2   -1    0    0  502    0  0.00000000000E+00  0.00000000000E+00  0.53429104138E+01  0.53429104138E+01  0.00000000000E+00 0. -1.
         -2   -1    0    0    0  501 -0.00000000000E+00 -0.00000000000E+00 -0.49452976865E+03  0.49452976865E+03  0.00000000000E+00 0.  1.
          1    1    1    2  502    0 -0.20267816635E+02 -0.41382113580E+02 -0.35536111414E+03  0.35833613432E+03  0.00000000000E+00 0.  1.
         -1    1    1    2    0  501  0.20267816635E+02  0.41382113580E+02 -0.13382574409E+03  0.14153654474E+03  0.00000000000E+00 0. -1.
</event>
<event>
 4    1  0.6935156E+001  0.2390878E+02  0.7546771E-02  0.1481391E+00
          2   -1    0    0  502    0  0.00000000000E+00  0.00000000000E+00  0.65175542029E+01  0.65175542029E+01  0.00000000000E+00 0. -1.
         -2   -1    0    0    0  501 -0.00000000000E+00 -0.00000000000E+00 -0.26069131819E+03  0.26069131819E+03  0.00000000000E+00 0.  1.
          1    1    1    2  502    0 -0.19806732163E+02 -0.13391157177E+02 -0.23592023294E+03  0.23712862762E+03  0.00000000000E+00 0.  1.
         -1    1    1    2    0  501  0.19806732163E+02  0.13391157177E+02 -0.18253531047E+02  0.30080244766E+02  0.00000000000E+00 0. -1.
</event>
<event>
 4    1  0.6935156E+001  0.2299362E+02  0.7546771E-02  0.1492578E+00
          2   -1    0    0  502    0  0.00000000000E+00  0.00000000000E+00  0.90435278399E+01  0.90435278399E+01  0.00000000000E+00 0.  1.
         -2   -1    0    0    0  501 -0.00000000000E+00 -0.00000000000E+00 -0.72658254028E+02  0.72658254028E+02  0.00000000000E+00 0. -1.
          1    1    1    2  502    0 -0.43204646615E+01 -0.22584066296E+02 -0.13750612159E+02  0.26791524782E+02  0.00000000000E+00 0.  1.
         -1    1    1    2    0  501  0.43204646615E+01  0.22584066296E+02 -0.49864114029E+02  0.54910257086E+02  0.00000000000E+00 0. -1.
</event>
<event>
 4    1  0.6935156E+001  0.2049760E+02  0.7546771E-02  0.1526560E+00
          2   -1    0    0  502    0  0.00000000000E+00  0.00000000000E+00  0.12931144763E+04  0.12931144763E+04  0.00000000000E+00 0. -1.
         -2   -1    0    0    0  501 -0.00000000000E+00 -0.00000000000E+00 -0.44147637371E+00  0.44147637371E+00  0.00000000000E+00 0.  1.
          1    1    1    2  502    0  0.66466742151E+01 -0.19390031967E+02  0.31399866453E+03  0.31466698738E+03  0.00000000000E+00 0.  1.
         -1    1    1    2    0  501 -0.66466742151E+01  0.19390031967E+02  0.97867433540E+03  0.97888896530E+03  0.00000000000E+00 0. -1.
</event>
<event>
 4    1  0.6935156E+001  0.2386834E+02  0.7546771E-02  0.1481873E+00
          2   -1    0    0  502    0  0.00000000000E+00  0.00000000000E+00  0.10643381202E+04  0.10643381202E+04  0.00000000000E+00 0.  1.
         -2   -1    0    0    0  501 -0.00000000000E+00 -0.00000000000E+00 -0.85405631059E+00  0.85405631059E+00  0.00000000000E+00 0. -1.
          1    1    1    2  502    0 -0.17530047493E+02 -0.16198616964E+02  0.85713733267E+03  0.85746959410E+03  0.00000000000E+00 0.  1.
         -1    1    1    2    0  501  0.17530047493E+02  0.16198616964E+02  0.20634673123E+03  0.20772258242E+03  0.00000000000E+00 0. -1.
</event>
<event>
 4    1  0.6935156E+001  0.3360042E+02  0.7546771E-02  0.1390679E+00
          2   -1    0    0  502    0  0.00000000000E+00  0.00000000000E+00  0.23733351076E+03  0.23733351076E+03  0.00000000000E+00 0.  1.
         -2   -1    0    0    0  501 -0.00000000000E+00 -0.00000000000E+00 -0.77583377226E+01  0.77583377226E+01  0.00000000000E+00 0. -1.
          1    1    1    2  502    0  0.14021700784E+02 -0.30534898963E+02  0.38566662518E+02  0.51150519111E+02  0.00000000000E+00 0. -1.
         -1    1    1    2    0  501 -0.14021700784E+02  0.30534898963E+02  0.19100851052E+03  0.19394132937E+03  0.00000000000E+00 0.  1.
</event>
<event>
 4    1  0.6935156E+001  0.2167321E+02  0.7546771E-02  0.1509866E+00
          2   -1    0    0  502    0  0.00000000000E+00  0.00000000000E+00  0.85929163493E+02  0.85929163493E+02  0.00000000000E+00 0.  1.
         -2   -1    0    0    0  501 -0.00000000000E+00 -0.00000000000E+00 -0.54712265805E+01  0.54712265805E+01  0.00000000000E+00 0. -1.
          1    1    1    2  502    0 -0.20551443804E+02 -0.68823234967E+01  0.38879879428E+02  0.44512618924E+02  0.00000000000E+00 0.  1.
         -1    1    1    2    0  501  0.20551443804E+02  0.68823234967E+01  0.41578057485E+02  0.46887771149E+02  0.00000000000E+00 0. -1.
</event>
<event>
 4    1  0.6935156E+001  0.3540642E+02  0.7546771E-02  0.1377728E+00
          2   -1    0    0  502    0  0.00000000000E+00  0.00000000000E+00  0.58592254115E+03  0.58592254115E+03  0.00000000000E+00 0. -1.
         -2   -1    0    0    0  501 -0.00000000000E+00 -0.00000000000E+00 -0.29286429098E+01  0.29286429098E+01  0.00000000000E+00 0.  1.
          1    1    1    2  502    0  0.31320615083E+02 -0.16511630276E+02  0.13866843109E+03  0.14311725488E+03  0.00000000000E+00 0.  1.
         -1    1    1    2    0  501 -0.31320615083E+02  0.16511630276E+02  0.44432546715E+03  0.44573392918E+03  0.00000000000E+00 0. -1.
</event>
<event>
 4    1  0.6935156E+001  0.2452017E+02  0.7546771E-02  0.1474243E+00
          2   -1    0    0  502    0  0.00000000000E+00  0.00000000000E+00  0.17145871169E+01  0.17145871169E+01  0.00000000000E+00 0.  1.
         -2   -1    0    0    0  501 -0.00000000000E+00 -0.00000000000E+00 -0.35641029067E+03  0.35641029067E+03  0.00000000000E+00 0. -1.
          1    1    1    2  502    0 -0.24502050538E+02  0.94235343087E+00 -0.20009063510E+03  0.20158745190E+03  0.00000000000E+00 0. -1.
         -1    1    1    2    0  501  0.24502050538E+02 -0.94235343087E+00 -0.15460506846E+03  0.15653742589E+03  0.00000000000E+00 0.  1.
</event>
<event>
 4    1  0.6935156E+001  0.5315804E+02  0.7546771E-02  0.1285032E+00
          2   -1    0    0  502    0  0.00000000000E+00  0.00000000000E+00  0.34511541396E+03  0.34511541396E+03  0.00000000000E+00 0.  1.
         -2   -1    0    0    0  501 -0.00000000000E+00 -0.00000000000E+00 -0.19511854329E+02  0.19511854329E+02  0.00000000000E+00 0. -1.
          1    1    1    2  502    0  0.12458477559E+01  0.53143441728E+02  0.30169099990E+03  0.30633843533E+03  0.00000000000E+00 0.  1.
         -1    1    1    2    0  501 -0.12458477559E+01 -0.53143441728E+02  0.23912559724E+02  0.58288832960E+02  0.00000000000E+00 0. -1.
</event>
<event>
 4    1  0.6935156E+001  0.4304148E+02  0.7546771E-02  0.1331529E+00
          2   -1    0    0  502    0  0.00000000000E+00  0.00000000000E+00  0.64545513484E+02  0.64545513484E+02  0.00000000000E+00 0.  1.
         -2   -1    0    0    0  501 -0.00000000000E+00 -0.00000000000E+00 -0.41328753214E+02  0.41328753214E+02  0.00000000000E+00 0. -1.
          1    1    1    2  502    0  0.37587331480E+02  0.20970499006E+02  0.40869057803E+02  0.59353594685E+02  0.00000000000E+00 0.  1.
         -1    1    1    2    0  501 -0.37587331480E+02 -0.20970499006E+02 -0.17652297533E+02  0.46520672013E+02  0.00000000000E+00 0. -1.
</event>
<event>
 4    1  0.6935156E+001  0.2288983E+02  0.7546771E-02  0.1493886E+00
          2   -1    0    0  502    0  0.00000000000E+00  0.00000000000E+00  0.49354515254E+03  0.49354515254E+03  0.00000000000E+00 0.  1.
         -2   -1    0    0    0  501 -0.00000000000E+00 -0.00000000000E+00 -0.11938223404E+01  0.11938223404E+01  0.00000000000E+00 0. -1.
          1    1    1    2  502    0  0.11247489358E+01  0.22862179232E+02  0.32850212887E+03  0.32929863797E+03  0.00000000000E+00 0.  1.
         -1    1    1    2    0  501 -0.11247489358E+01 -0.22862179232E+02  0.16384920133E+03  0.16544033691E+03  0.00000000000E+00 0. -1.
</event>
<event>
 4    1  0.6935156E+001  0.3174068E+02  0.7546771E-02  0.1405050E+00
          2   -1    0    0  502    0  0.00000000000E+00  0.00000000000E+00  0.17365704579E+04  0.17365704579E+04  0.00000000000E+00 0.  1.
         -2   -1    0    0    0  501 -0.00000000000E+00 -0.00000000000E+00 -0.69673741477E+00  0.69673741477E+00  0.00000000000E+00 0. -1.
          1    1    1    2  502    0  0.25113918609E+02 -0.19410361134E+02  0.51260983464E+03  0.51359158249E+03  0.00000000000E+00 0.  1.
         -1    1    1    2    0  501 -0.25113918609E+02  0.19410361134E+02  0.12232638859E+04  0.12236756128E+04  0.00000000000E+00 0. -1.
</event>
<event>
 4    1  0.6935156E+001  0.2044280E+02  0.7546771E-02  0.1527371E+00
          2   -1    0    0  502    0  0.00000000000E+00  0.00000000000E+00  0.10537973545E+01  0.10537973545E+01  0.00000000000E+00 0. -1.
         -2   -1    0    0    0  501 -0.00000000000E+00 -0.00000000000E+00 -0.41251190665E+03  0.41251190665E+03  0.00000000000E+00 0.  1.
          1    1    1    2  502    0 -0.35404765369E+01 -0.20133881994E+02 -0.24637505186E+03  0.24722171094E+03  0.00000000000E+00 0. -1.
         -1    1    1    2    0  501  0.35404765369E+01  0.20133881994E+02 -0.16508305743E+03  0.16634399307E+03  0.00000000000E+00 0.  1.
</event>
<event>
 4    1  0.6935156E+001  0.2095358E+02  0.7546771E-02  0.1519929E+00
          2   -1    0    0  502    0  0.00000000000E+00  0.00000000000E+00  0.22751890206E+04  0.22751890206E+04  0.00000000000E+00 0.  1.
         -2   -1    0    0    0  501 -0.00000000000E+00 -0.00000000000E+00 -0.21571540610E+00  0.21571540610E+00  0.00000000000E+00 0. -1.
          1    1    1    2  502    0 -0.19380396093E+02 -0.79657186155E+01  0.15068861659E+04  0.15070318409E+04  0.00000000000E+00 0.  1.
         -1    1    1    2    0  501  0.19380396093E+02  0.79657186155E+01  0.76808713931E+03  0.76837289515E+03  0.00000000000E+00 0. -1.
</event>
<event>
 4    1  0.6935156E+001  0.2240091E+02  0.7546771E-02  0.1500161E+00
          2   -1    0    0  502    0  0.00000000000E+00  0.00000000000E+00  0.13407024029E+01  0.13407024029E+01  0.00000000000E+00 0.  1.
         -2   -1    0    0    0  501 -0.00000000000E+00 -0.00000000000E+00 -0.45089571622E+03  0.45089571622E+03  0.00000000000E+00 0. -1.
          1    1    1    2  502    0 -0.22055570760E+02  0.39182562360E+01 -0.13157010212E+03  0.13346345082E+03  0.00000000000E+00 0.  1.
         -1    1    1    2    0  501  0.22055570760E+02 -0.39182562360E+01 -0.31798491170E+03  0.31877296780E+03  0.00000000000E+00 0. -1.
</event>
<event>
 4    1  0.6935156E+001  0.2037758E+02  0.7546771E-02  0.1528340E+00
          2   -1    0    0  502    0  0.00000000000E+00  0.00000000000E+00  0.15743628521E+03  0.15743628521E+03  0.00000000000E+00 0.  1.
         -2   -1    0    0    0  501 -0.00000000000E+00 -0.00000000000E+00 -0.33662361313E+01  0.33662361313E+01  0.00000000000E+00 0. -1.
          1    1    1    2  502    0  0.17100696537E+02 -0.11082048660E+02  0.11444278191E+03  0.11624283184E+03  0.00000000000E+00 0.  1.
         -1    1    1    2    0  501 -0.17100696537E+02  0.11082048660E+02  0.39627267168E+02  0.44559689494E+02  0.00000000000E+00 0. -1.
</event>
<event>
 4    1  0.6935156E+001  0.2215188E+02  0.7546771E-02  0.1503432E+00
          2   -1    0    0  502    0  0.00000000000E+00  0.00000000000E+00  0.96504566570E+03  0.96504566570E+03  0.00000000000E+00 0. -1.
         -2   -1    0    0    0  501 -0.00000000000E+00 -0.00000000000E+00 -0.61120408765E+00  0.61120408765E+00  0.00000000000E+00 0.  1.
          1    1    1    2  502    0  0.11524952715E+02 -0.18917744335E+02  0.68015910937E+03  0.68051974229E+03  0.00000000000E+00 0. -1.
         -1    1    1    2    0  501 -0.11524952715E+02  0.18917744335E+02  0.28427535225E+03  0.28513712750E+03  0.00000000000E+00 0.  1.
</event>
<event>
 4    1  0.6935156E+001  0.2652160E+02  0.7546771E-02  0.1452474E+00
          2   -1    0    0  502    0  0.00000000000E+00  0.00000000000E+00  0.24802558492E+02  0.24802558492E+02  0.00000000000E+00 0.  1.
         -2   -1    0    0    0  501 -0.00000000000E+00 -0.00000000000E+00 -0.30761951941E+02  0.30761951941E+02  0.00000000000E+00 0. -1.
          1    1    1    2  502    0 -0.66226055602E+01  0.25681436401E+02 -0.10743288262E+02  0.28614914340E+02  0.00000000000E+00 0. -1.
         -1    1    1    2    0  501  0.66226055602E+01 -0.25681436401E+02  0.47838948130E+01  0.26949596094E+02  0.00000000000E+00 0.  1.
</event>
<event>
 4    1  0.6935156E+001  0.3018181E+02  0.7546771E-02  0.1418023E+00
          2   -1    0    0  502    0  0.00000000000E+00  0.00000000000E+00  0.31142808446E+03  0.31142808446E+03  0.00000000000E+00 0.  1.
         -2   -1    0    0    0  501 -0.00000000000E+00 -0.00000000000E+00 -0.35493815977E+01  0.35493815977E+01  0.00000000000E+00 0. -1.
          1    1    1    2  502    0  0.73817661651E+01 -0.29265186676E+02  0.87887951962E+02  0.92925958284E+02  0.00000000000E+00 0. -1.
         -1    1    1    2    0  501 -0.73817661651E+01  0.29265186676E+02  0.21999075090E+03  0.22205150777E+03  0.00000000000E+00 0.  1.
</event>
<event>
 4    1  0.6935156E+001  0.2282814E+02  0.7546771E-02  0.1494668E+00
          2   -1    0    0  502    0  0.00000000000E+00  0.00000000000E+00  0.37538859298E+01  0.37538859298E+01  0.00000000000E+00 0.  1.
         -2   -1    0    0    0  501 -0.00000000000E+00 -0.00000000000E+00 -0.14566844058E+03  0.14566844058E+03  0.00000000000E+00 0. -1.
          1    1    1    2  502    0 -0.22744766918E+02 -0.19492561246E+01 -0.54760906847E+02  0.59328584513E+02  0.00000000000E+00 0.  1.
         -1    1    1    2    0  501  0.22744766918E+02  0.19492561246E+01 -0.87153647799E+02  0.90093741993E+02  0.00000000000E+00 0. -1.
</event>
<event>
 4    1  0.6935156E+001  0.3473103E+02  0.7546771E-02  0.1382464E+00
          2   -1    0    0  502    0  0.00000000000E+00  0.00000000000E+00  0.20612767486E+03  0.20612767486E+03  0.00000000000E+00 0. -1.
         -2   -1    0    0    0  501 -0.00000000000E+00 -0.00000000000E+00 -0.58970907730E+01  0.58970907730E+01  0.00000000000E+00 0.  1.
          1    1    1    2  502    0 -0.19486807449E+02  0.28749071006E+02  0.10939251119E+03  0.11477354335E+03  0.00000000000E+00 0. -1.
         -1    1    1    2    0  501  0.19486807449E+02 -0.28749071006E+02  0.90838072901E+02  0.97251222288E+02  0.00000000000E+00 0.  1.
</event>
<event>
 4    1  0.6935156E+001  0.2429653E+02  0.7546771E-02  0.1476829E+00
          2   -1    0    0  502    0  0.00000000000E+00  0.00000000000E+00  0.20166556750E+02  0.20166556750E+02  0.00000000000E+00 0. -1.
         -2   -1    0    0    0  501 -0.00000000000E+00 -0.00000000000E+00 -0.36789774006E+02  0.36789774006E+02  0.00000000000E+00 0.  1.
          1    1    1    2  502    0  0.24155383770E+02  0.26151232953E+01 -0.21184749068E+02  0.32235307165E+02  0.00000000000E+00 0.  1.
         -1    1    1    2    0  501 -0.24155383770E+02 -0.26151232953E+01  0.45615318110E+01  0.24721023591E+02  0.00000000000E+00 0. -1.
</event>
<event>
 4    1  0.6935156E+001  0.2337367E+02  0.7546771E-02  0.1487859E+00
          2   -1    0    0  502    0  0.00000000000E+00  0.00000000000E+00  0.60280527087E+02  0.60280527087E+02  0.00000000000E+00 0. -1.
         -2   -1    0    0    0  501 -0.00000000000E+00 -0.00000000000E+00 -0.91009010864E+01  0.91009010864E+01  0.00000000000E+00 0.  1.
          1    1    1    2  502    0  0.15222482631E+02  0.17737088541E+02  0.27825640058E+02  0.36339985306E+02  0.00000000000E+00 0. -1.
         -1    1    1    2    0  501 -0.15222482631E+02 -0.17737088541E+02  0.23353985942E+02  0.33041442867E+02  0.00000000000E+00 0.  1.
</event>
<event>
 4    1  0.6935156E+001  0.4123367E+02  0.7546771E-02  0.1341404E+00
          2   -1    0    0  502    0  0.00000000000E+00  0.00000000000E+00  0.96953221871E+03  0.96953221871E+03  0.00000000000E+00 0. -1.
         -2   -1    0    0    0  501 -0.00000000000E+00 -0.00000000000E+00 -0.17560059316E+01  0.17560059316E+01  0.00000000000E+00 0.  1.
          1    1    1    2  502    0 -0.22223948294E+02 -0.34731997351E+02  0.50169461634E+03  0.50338623698E+03  0.00000000000E+00 0. -1.
         -1    1    1    2    0  501  0.22223948294E+02  0.34731997351E+02  0.46608159644E+03  0.46790198766E+03  0.00000000000E+00 0.  1.
</event>
<event>
 4    1  0.6935156E+001  0.2166629E+02  0.7546771E-02  0.1509961E+00
          2   -1    0    0  502    0  0.00000000000E+00  0.00000000000E+00  0.12328486268E+01  0.12328486268E+01  0.00000000000E+00 0. -1.
         -2   -1    0    0    0  501 -0.00000000000E+00 -0.00000000000E+00 -0.38342941466E+03  0.38342941466E+03  0.00000000000E+00 0.  1.
          1    1    1    2  502    0  0.21163899356E+01 -0.21562680211E+02 -0.20712449016E+03  0.20825461029E+03  0.00000000000E+00 0.  1.
         -1    1    1    2    0  501 -0.21163899356E+01  0.21562680211E+02 -0.17507207587E+03  0.17640765299E+03  0.00000000000E+00 0. -1.
</event>
<event>
 4    1  0.6935156E+001  0.2396669E+02  0.7546771E-02  0.1480703E+00
          2   -1    0    0  502    0  0.00000000000E+00  0.00000000000E+00  0.93387828996E+03  0.93387828996E+03  0.00000000000E+00 0. -1.
         -2   -1    0    0    0  501 -0.00000000000E+00 -0.00000000000E+00 -0.65752117795E+00  0.65752117795E+00  0.00000000000E+00 0.  1.
          1    1    1    2  502    0 -0.23175830778E+02 -0.61059973359E+01  0.34788433799E+03  0.34870892583E+03  0.00000000000E+00 0.  1.
         -1    1    1    2    0  501  0.23175830778E+02  0.61059973359E+01  0.58533643079E+03  0.58582688531E+03  0.00000000000E+00 0. -1.
</event>
<event>
 4    1  0.6935156E+001  0.3306971E+02  0.7546771E-02  0.1394666E+00
          2   -1    0    0  502    0  0.00000000000E+00  0.00000000000E+00  0.29377337560E+04  0.29377337560E+04  0.00000000000E+00 0.  1.
         -2   -1    0    0    0  501 -0.00000000000E+00 -0.00000000000E+00 -0.42793057350E+00  0.42793057350E+00  0.00000000000E+00 0. -1.
          1    1    1    2  502    0  0.27432186809E+02  0.18468377374E+02  0.19985178187E+04  0.19987914042E+04  0.00000000000E+00 0.  1.
         -1    1    1    2    0  501 -0.27432186809E+02 -0.18468377374E+02  0.93878800672E+03  0.93937028237E+03  0.00000000000E+00 0. -1.
</event>
<event>
 4    1  0.6935156E+001  0.2128696E+02  0.7546771E-02  0.1515207E+00
          2   -1    0    0  502    0  0.00000000000E+00  0.00000000000E+00  0.81405655673E+03  0.81405655673E+03  0.00000000000E+00 0.  1.
         -2   -1    0    0    0  501 -0.00000000000E+00 -0.00000000000E+00 -0.11304904824E+01  0.11304904824E+01  0.00000000000E+00 0. -1.
          1    1    1    2  502    0  0.21283650552E+02  0.37555258552E+00  0.69686125222E+03  0.69718630198E+03  0.00000000000E+00 0. -1.
         -1    1    1    2    0  501 -0.21283650552E+02 -0.37555258552E+00  0.11606481403E+03  0.11800074524E+03  0.00000000000E+00 0.  1.
</event>
<event>
 4    1  0.6935156E+001  0.3242435E+02  0.7546771E-02  0.1399635E+00
          2   -1    0    0  502    0  0.00000000000E+00  0.00000000000E+00  0.48149785333E+01  0.48149785333E+01  0.00000000000E+00 0. -1.
         -2   -1    0    0    0  501 -0.00000000000E+00 -0.00000000000E+00 -0.37900817064E+03  0.37900817064E+03  0.00000000000E+00 0.  1.
          1    1    1    2  502    0 -0.32071167908E+02  0.47727255332E+01 -0.62147932429E+02  0.70097818976E+02  0.00000000000E+00 0. -1.
         -1    1    1    2    0  501  0.32071167908E+02 -0.47727255332E+01 -0.31204525968E+03  0.31372533020E+03  0.00000000000E+00 0.  1.
</event>
<event>
 4    1  0.6935156E+001  0.3461358E+02  0.7546771E-02  0.1383300E+00
          2   -1    0    0  502    0  0.00000000000E+00  0.00000000000E+00  0.22718877509E+02  0.22718877509E+02  0.00000000000E+00 0.  1.
         -2   -1    0    0    0  501 -0.00000000000E+00 -0.00000000000E+00 -0.54942348503E+02  0.54942348503E+02  0.00000000000E+00 0. -1.
          1    1    1    2  502    0 -0.18682392343E+02  0.29138774435E+02 -0.23893349267E+02  0.42059387756E+02  0.00000000000E+00 0. -1.
         -1    1    1    2    0  501  0.18682392343E+02 -0.29138774435E+02 -0.83301217264E+01  0.35601838256E+02  0.00000000000E+00 0.  1.
</event>
<event>
 4    1  0.6935156E+001  0.2357961E+02  0.7546771E-02  0.1485345E+00
          2   -1    0    0  502    0  0.00000000000E+00  0.00000000000E+00  0.17757694578E+01  0.17757694578E+01  0.00000000000E+00 0.  1.
         -2   -1    0    0    0  501 -0.00000000000E+00 -0.00000000000E+00 -0.36683951635E+03  0.36683951635E+03  0.00000000000E+00 0. -1.
          1    1    1    2  502    0  0.89583852806E+00 -0.23562590945E+02 -0.25307281297E+03  0.25416893375E+03  0.00000000000E+00 0. -1.
         -1    1    1    2    0  501 -0.89583852806E+00  0.23562590945E+02 -0.11199093393E+03  0.11444635207E+03  0.00000000000E+00 0.  1.
</event>
<event>
 4    1  0.6935156E+001  0.2305364E+02  0.7546771E-02  0.1491826E+00
          2   -1    0    0  502    0  0.00000000000E+00  0.00000000000E+00  0.50058763035E+03  0.50058763035E+03  0.00000000000E+00 0. -1.
         -2   -1    0    0    0  501 -0.00000000000E+00 -0.00000000000E+00 -0.10843029712E+01  0.10843029712E+01  0.00000000000E+00 0.  1.
          1    1    1    2  502    0  0.17906032012E+02 -0.14520473167E+02  0.21352991023E+03  0.21477079105E+03  0.00000000000E+00 0. -1.
         -1    1    1    2    0  501 -0.17906032012E+02  0.14520473167E+02  0.28597341714E+03  0.28690114227E+03  0.00000000000E+00 0.  1.
</event>
<event>
 4    1  0.6935156E+001  0.2324891E+02  0.7546771E-02  0.1489396E+00
          2   -1    0    0  502    0  0.00000000000E+00  0.00000000000E+00  0.15677737366E+02  0.15677737366E+02  0.00000000000E+00 0. -1.
         -2   -1    0    0    0  501 -0.00000000000E+00 -0.00000000000E+00 -0.48208114941E+02  0.48208114941E+02  0.00000000000E+00 0.  1.
          1    1    1    2  502    0 -0.19343371596E+02  0.12897518595E+02  0.78294894996E+00  0.23262094052E+02  0.00000000000E+00 0. -1.
         -1    1    1    2    0  501  0.19343371596E+02 -0.12897518595E+02 -0.33313326525E+02  0.40623758255E+02  0.00000000000E+00 0.  1.
</event>
<event>
 4    1  0.6935156E+001  0.4544605E+02  0.7546771E-02  0.1319224E+00
          2   -1    0    0  502    0  0.00000000000E+00  0.00000000000E+00  0.20822394359E+02  0.20822394359E+02  0.00000000000E+00 0. -1.
         -2   -1    0    0    0  501 -0.00000000000E+00 -0.00000000000E+00 -0.10310257908E+03  0.10310257908E+03  0.00000000000E+00 0.  1.
          1    1    1    2  502    0 -0.18588917463E+02 -0.41470415584E+02 -0.53212830645E+02  0.69978200651E+02  0.00000000000E+00 0.  1.
         -1    1    1    2    0  501  0.18588917463E+02  0.41470415584E+02 -0.29067354074E+02  0.53946772786E+02  0.00000000000E+00 0. -1.
</event>
<event>
 4    1  0.6935156E+001  0.4038512E+02  0.7546771E-02  0.1346244E+00
          2   -1    0    0  502    0  0.00000000000E+00  0.00000000000E+00  0.22852445426E+03  0.22852445426E+03  0.00000000000E+00 0. -1.
         -2   -1    0    0    0  501 -0.00000000000E+00 -0.00000000000E+00 -0.92406121110E+01  0.92406121110E+01  0.00000000000E+00 0.  1.
          1    1    1    2  502    0  0.40173014840E+02 -0.41336376081E+01  0.16636502323E+03  0.17119660930E+03  0.00000000000E+00 0. -1.
         -1    1    1    2    0  501 -0.40173014840E+02  0.41336376081E+01  0.52918818924E+02  0.66568457076E+02  0.00000000000E+00 0.  1.
</event>
<event>
 4    1  0.6935156E+001  0.2455116E+02  0.7546771E-02  0.1473888E+00
          2   -1    0    0  502    0  0.00000000000E+00  0.00000000000E+00  0.16184115816E+04  0.16184115816E+04  0.00000000000E+00 0.  1.
         -2   -1    0    0    0  501 -0.00000000000E+00 -0.00000000000E+00 -0.41795083716E+00  0.41795083716E+00  0.00000000000E+00 0. -1.
          1    1    1    2  502    0  0.11379601959E+02 -0.21754635978E+02  0.10760949744E+04  0.10763750060E+04  0.00000000000E+00 0.  1.
         -1    1    1    2    0  501 -0.11379601959E+02  0.21754635978E+02  0.54189865634E+03  0.54245452645E+03  0.00000000000E+00 0. -1.
</event>
<event>
 4    1  0.6935156E+001  0.2335572E+02  0.7546771E-02  0.1488079E+00
          2   -1    0    0  502    0  0.00000000000E+00  0.00000000000E+00  0.54061156851E+01  0.54061156851E+01  0.00000000000E+00 0.  1.
         -2   -1    0    0    0  501 -0.00000000000E+00 -0.00000000000E+00 -0.10394065622E+03  0.10394065622E+03  0.00000000000E+00 0. -1.
          1    1    1    2  502    0  0.11854184330E+02  0.20123818127E+02 -0.39919684124E+02  0.46250091056E+02  0.00000000000E+00 0.  1.
         -1    1    1    2    0  501 -0.11854184330E+02 -0.20123818127E+02 -0.58614856410E+02  0.63096680849E+02  0.00000000000E+00 0. -1.
</event>
<event>
 4    1  0.6935156E+001  0.2088946E+02  0.7546771E-02  0.1520849E+00
          2   -1    0    0  502    0  0.00000000000E+00  0.00000000000E+00  0.56045445458E+03  0.56045445458E+03  0.00000000000E+00 0. -1.
         -2   -1    0    0    0  501 -0.00000000000E+00 -0.00000000000E+00 -0.84742731271E+00  0.84742731271E+00  0.00000000000E+00 0.  1.
          1    1    1    2  502    0 -0.14829932936E+02  0.14711987700E+02  0.19982052558E+03  0.20090946204E+03  0.00000000000E+00 0.  1.
         -1    1    1    2    0  501  0.14829932936E+02 -0.14711987700E+02  0.35978650168E+03  0.36039241985E+03  0.00000000000E+00 0. -1.
</event>
<event>
 4    1  0.6935156E+001  0.3325509E+02  0.7546771E-02  0.1393264E+00
          2   -1    0    0  502    0  0.00000000000E+00  0.00000000000E+00  0.11502650252E+04  0.11502650252E+04  0.00000000000E+00 0.  1.
         -2   -1    0    0    0  501 -0.00000000000E+00 -0.00000000000E+00 -0.10346175050E+01  0.10346175050E+01  0.00000000000E+00 0. -1.
          1    1    1    2  502    0 -0.29675337263E+02  0.15009183671E+02  0.72771758608E+03  0.72847703212E+03  0.00000000000E+00 0.  1.
         -1    1    1    2    0  501  0.29675337263E+02 -0.15009183671E+02  0.42151282162E+03  0.42282261059E+03  0.00000000000E+00 0. -1.
</event>
<event>
 4    1  0.6935156E+001  0.3859949E+02  0.7546771E-02  0.1356894E+00
          2   -1    0    0  502    0  0.00000000000E+00  0.00000000000E+00  0.20816783304E+02  0.20816783304E+02  0.00000000000E+00 0. -1.
         -2   -1    0    0    0  501 -0.00000000000E+00 -0.00000000000E+00 -0.72012826051E+02  0.72012826051E+02  0.00000000000E+00 0.  1.
          1    1    1    2  502    0 -0.38194688706E+02  0.55754960560E+01 -0.29225240606E+02  0.48415236136E+02  0.00000000000E+00 0.  1.
         -1    1    1    2    0  501  0.38194688706E+02 -0.55754960560E+01 -0.21970802141E+02  0.44414373218E+02  0.00000000000E+00 0. -1.
</event>
<event>
 4    1  0.6935156E+001  0.2050419E+02  0.7546771E-02  0.1526463E+00
          2   -1    0    0  502    0  0.00000000000E+00  0.00000000000E+00  0.10563384518E+03  0.10563384518E+03  0.00000000000E+00 0. -1.
         -2   -1    0    0    0  501 -0.00000000000E+00 -0.00000000000E+00 -0.48086471542E+01  0.48086471542E+01  0.00000000000E+00 0.  1.
          1    1    1    2  502    0  0.20469025513E+02  0.12003142566E+01  0.73336150946E+02  0.76148623070E+02  0.00000000000E+00 0. -1.
         -1    1    1    2    0  501 -0.20469025513E+02 -0.12003142566E+01  0.27489047077E+02  0.34293869262E+02  0.00000000000E+00 0.  1.
</event>
<event>
 4    1  0.6935156E+001  0.4233366E+02  0.7546771E-02  0.1335328E+00
          2   -1    0    0  502    0  0.00000000000E+00  0.00000000000E+00  0.36141762434E+02  0.36141762434E+02  0.00000000000E+00 0.  1.
         -2   -1    0    0    0  501 -0.00000000000E+00 -0.00000000000E+00 -0.56456216905E+02  0.56456216905E+02  0.00000000000E+00 0. -1.
          1    1    1    2  502    0  0.27120696153E+01  0.42246699947E+02  0.59933855592E+01  0.42755814207E+02  0.00000000000E+00 0.  1.
         -1    1    1    2    0  501 -0.27120696153E+01 -0.42246699947E+02 -0.26307840030E+02  0.49842165132E+02  0.00000000000E+00 0. -1.
</event>
<event>
 4    1  0.6935156E+001  0.2397427E+02  0.7546771E-02  0.1480614E+00
          2   -1    0    0  502    0  0.00000000000E+00  0.00000000000E+00  0.16278447593E+03  0.16278447593E+03  0.00000000000E+00 0.  1.
         -2   -1    0    0    0  501 -0.00000000000E+00 -0.00000000000E+00 -0.35364976145E+01  0.35364976145E+01  0.00000000000E+00 0. -1.
          1    1    1    2  502    0  0.20668188720E+02 -0.12148734199E+02  0.82950488376E+02  0.86345522695E+02  0.00000000000E+00 0.  1.
         -1    1    1    2    0  501 -0.20668188720E+02  0.12148734199E+02  0.76297489939E+02  0.79975450850E+02  0.00000000000E+00 0. -1.
</event>
<event>
 4    1  0.6935156E+001  0.2086101E+02  0.7546771E-02  0.1521259E+00
          2   -1    0    0  502    0  0.00000000000E+00  0.00000000000E+00  0.36423571944E+02  0.36423571944E+02  0.00000000000E+00 0. -1.
         -2   -1    0    0    0  501 -0.00000000000E+00 -0.00000000000E+00 -0.12184054903E+02  0.12184054903E+02  0.00000000000E+00 0.  1.
          1    1    1    2  502    0 -0.57637492409E+01  0.20048968314E+02  0.87355333439E+01  0.22616177364E+02  0.00000000000E+00 0.  1.
         -1    1    1    2    0  501  0.57637492409E+01 -0.20048968314E+02  0.15503983698E+02  0.25991449483E+02  0.00000000000E+00 0. -1.
</event>
<event>
 4    1  0.6935156E+001  0.2340236E+02  0.7546771E-02  0.1487507E+00
          2   -1    0    0  502    0  0.00000000000E+00  0.00000000000E+00  0.47284300071E+03  0.47284300071E+03  0.00000000000E+00 0.  1.
         -2   -1    0    0    0  501 -0.00000000000E+00 -0.00000000000E+00 -0.13718786016E+01  0.13718786016E+01  0.00000000000E+00 0. -1.
          1    1    1    2  502    0  0.20299715416E+02 -0.11644397998E+02  0.32930131936E+03  0.33013183636E+03  0.00000000000E+00 0.  1.
         -1    1    1    2    0  501 -0.20299715416E+02  0.11644397998E+02  0.14216980275E+03  0.14408304295E+03  0.00000000000E+00 0. -1.
</event>
<event>
 4    1  0.6935156E+001  0.2980693E+02  0.7546771E-02  0.1421282E+00
          2   -1    0    0  502    0  0.00000000000E+00  0.00000000000E+00  0.22058759569E+03  0.22058759569E+03  0.00000000000E+00 0. -1.
         -2   -1    0    0    0  501 -0.00000000000E+00 -0.00000000000E+00 -0.40764504839E+01  0.40764504839E+01  0.00000000000E+00 0.  1.
          1    1    1    2  502    0 -0.93721966396E+01 -0.28295140364E+02  0.95966876723E+02  0.10048927538E+03  0.00000000000E+00 0. -1.
         -1    1    1    2    0  501  0.93721966396E+01  0.28295140364E+02  0.12054426849E+03  0.12417477080E+03  0.00000000000E+00 0.  1.
</event>
<event>
 4    1  0.6935156E+001  0.2828561E+02  0.7546771E-02  0.1435104E+00
          2   -1    0    0  502    0  0.00000000000E+00  0.00000000000E+00  0.97197381049E+03  0.97197381049E+03  0.00000000000E+00 0.  1.
         -2   -1    0    0    0  501 -0.00000000000E+00 -0.00000000000E+00 -0.97759016084E+00  0.97759016084E+00  0.00000000000E+00 0. -1.
          1    1    1    2  502    0  0.27838278772E+02 -0.50106096770E+01  0.67885917862E+03  0.67944820286E+03  0.00000000000E+00 0.  1.
         -1    1    1    2    0  501 -0.27838278772E+02  0.50106096770E+01  0.29213704171E+03  0.29350319779E+03  0.00000000000E+00 0. -1.
</event>
<event>
 4    1  0.6935156E+001  0.7584593E+02  0.7546771E-02  0.1213834E+00
          2   -1    0    0  502    0  0.00000000000E+00  0.00000000000E+00  0.24200151228E+04  0.24200151228E+04  0.00000000000E+00 0.  1.
         -2   -1    0    0    0  501 -0.00000000000E+00 -0.00000000000E+00 -0.24542279937E+01  0.24542279937E+01  0.00000000000E+00 0. -1.
          1    1    1    2  502    0 -0.73739543027E+02 -0.17750615772E+02  0.99405059374E+03  0.99693991167E+03  0.00000000000E+00 0.  1.
         -1    1    1    2    0  501  0.73739543027E+02  0.17750615772E+02  0.14235103011E+04  0.14255294392E+04  0.00000000000E+00 0. -1.
</event>
<event>
 4    1  0.6935156E+001  0.2785742E+02  0.7546771E-02  0.1439180E+00
          2   -1    0    0  502    0  0.00000000000E+00  0.00000000000E+00  0.13353500512E+04  0.13353500512E+04  0.00000000000E+00 0.  1.
         -2   -1    0    0    0  501 -0.00000000000E+00 -0.00000000000E+00 -0.15016321767E+01  0.15016321767E+01  0.00000000000E+00 0. -1.
          1    1    1    2  502    0 -0.26002468098E+02  0.99953607092E+01  0.11902590979E+04  0.11905850476E+04  0.00000000000E+00 0.  1.
         -1    1    1    2    0  501  0.26002468098E+02 -0.99953607092E+01  0.14358932118E+03  0.14626663577E+03  0.00000000000E+00 0. -1.
</event>
<event>
 4    1  0.6935156E+001  0.2022312E+02  0.7546771E-02  0.1530652E+00
          2   -1    0    0  502    0  0.00000000000E+00  0.00000000000E+00  0.46818558723E+02  0.46818558723E+02  0.00000000000E+00 0. -1.
         -2   -1    0    0    0  501 -0.00000000000E+00 -0.00000000000E+00 -0.10454981846E+02  0.10454981846E+02  0.00000000000E+00 0.  1.
          1    1    1    2  502    0  0.27013408245E+00 -0.20221312096E+02  0.65676848774E+01  0.21262853053E+02  0.00000000000E+00 0.  1.
         -1    1    1    2    0  501 -0.27013408245E+00  0.20221312096E+02  0.29795892000E+02  0.36010687516E+02  0.00000000000E+00 0. -1.
</event>
<event>
 4    1  0.6935156E+001  0.2710293E+02  0.7546771E-02  0.1446577E+00
          2   -1    0    0  502    0  0.00000000000E+00  0.00000000000E+00  0.32606411545E+03  0.32606411545E+03  0.00000000000E+00 0. -1.
         -2   -1    0    0    0  501 -0.00000000000E+00 -0.00000000000E+00 -0.62578954164E+01  0.62578954164E+01  0.00000000000E+00 0.  1.
          1    1    1    2  502    0 -0.27032875320E+02  0.19473684627E+01  0.29283203937E+03  0.29408361374E+03  0.00000000000E+00 0.  1.
         -1    1    1    2    0  501  0.27032875320E+02 -0.19473684627E+01  0.26974180668E+02  0.38238397125E+02  0.00000000000E+00 0. -1.
</event>
<event>
 4    1  0.6935156E+001  0.2112455E+02  0.7546771E-02  0.1517494E+00
          2   -1    0    0  502    0  0.00000000000E+00  0.00000000000E+00  0.60233987603E+03  0.60233987603E+03  0.00000000000E+00 0.  1.
         -2   -1    0    0    0  501 -0.00000000000E+00 -0.00000000000E+00 -0.90080022959E+00  0.90080022959E+00  0.00000000000E+00 0. -1.
          1    1    1    2  502    0 -0.20932804850E+02  0.28397372176E+01  0.42781563378E+03  0.42833685685E+03  0.00000000000E+00 0.  1.
         -1    1    1    2    0  501  0.20932804850E+02 -0.28397372176E+01  0.17362344202E+03  0.17490381941E+03  0.00000000000E+00 0. -1.
</event>
<event>
 4    1  0.6935156E+001  0.2409747E+02  0.7546771E-02  0.1479159E+00
          2   -1    0    0  502    0  0.00000000000E+00  0.00000000000E+00  0.27147956822E+03  0.27147956822E+03  0.00000000000E+00 0. -1.
         -2   -1    0    0    0  501 -0.00000000000E+00 -0.00000000000E+00 -0.22508187273E+01  0.22508187273E+01  0.00000000000E+00 0.  1.
          1    1    1    2  502    0 -0.23845619443E+02  0.34748043046E+01  0.16512350616E+03  0.16687258648E+03  0.00000000000E+00 0.  1.
         -1    1    1    2    0  501  0.23845619443E+02 -0.34748043046E+01  0.10410524333E+03  0.10685780047E+03  0.00000000000E+00 0. -1.
</event>
<event>
 4    1  0.6935156E+001  0.3169599E+02  0.7546771E-02  0.1405409E+00
          2   -1    0    0  502    0  0.00000000000E+00  0.00000000000E+00  0.14939218552E+04  0.14939218552E+04  0.00000000000E+00 0. -1.
         -2   -1    0    0    0  501 -0.00000000000E+00 -0.00000000000E+00 -0.69433950808E+00  0.69433950808E+00  0.00000000000E+00 0.  1.
          1    1    1    2  502    0 -0.29090104950E+02  0.12585776325E+02  0.61402359148E+03  0.61484112327E+03  0.00000000000E+00 0.  1.
         -1    1    1    2    0  501  0.29090104950E+02 -0.12585776325E+02  0.87920392420E+03  0.87977507143E+03  0.00000000000E+00 0. -1.
</event>
<event>
 4    1  0.6935156E+001  0.2533587E+02  0.7546771E-02  0.1465081E+00
          2   -1    0    0  502    0  0.00000000000E+00  0.00000000000E+00  0.19151022582E+03  0.19151022582E+03  0.00000000000E+00 0. -1.
         -2   -1    0    0    0  501 -0.00000000000E+00 -0.00000000000E+00 -0.33732904132E+01  0.33732904132E+01  0.00000000000E+00 0.  1.
          1    1    1    2  502    0  0.21339137055E+02  0.13658239543E+02  0.86293132900E+02  0.89935593973E+02  0.00000000000E+00 0. -1.
         -1    1    1    2    0  501 -0.21339137055E+02 -0.13658239543E+02  0.10184380251E+03  0.10494792226E+03  0.00000000000E+00 0.  1.
</event>
<event>
 4    1  0.6935156E+001  0.2316336E+02  0.7546771E-02  0.1490457E+00
          2   -1    0    0  502    0  0.00000000000E+00  0.00000000000E+00  0.41679137570E+02  0.41679137570E+02  0.00000000000E+00 0. -1.
         -2   -1    0    0    0  501 -0.00000000000E+00 -0.00000000000E+00 -0.16725102561E+02  0.16725102561E+02  0.00000000000E+00 0.  1.
          1    1    1    2  502    0 -0.20466184499E+02  0.10847892124E+02  0.26491300495E+02  0.35189920054E+02  0.00000000000E+00 0. -1.
         -1    1    1    2    0  501  0.20466184499E+02 -0.10847892124E+02 -0.15372654855E+01  0.23214320077E+02  0.00000000000E+00 0.  1.
</event>
<event>
 4    1  0.6935156E+001  0.4539992E+02  0.7546771E-02  0.1319452E+00
          2   -1    0    0  502    0  0.00000000000E+00  0.00000000000E+00  0.48747557709E+03  0.48747557709E+03  0.00000000000E+00 0. -1.
         -2   -1    0    0    0  501 -0.00000000000E+00 -0.00000000000E+00 -0.42818140189E+01  0.42818140189E+01  0.00000000000E+00 0.  1.
          1    1    1    2  502    0  0.24626063813E+01  0.45333081931E+02  0.21408784096E+03  0.21884870663E+03  0.00000000000E+00 0.  1.
         -1    1    1    2    0  501 -0.24626063813E+01 -0.45333081931E+02  0.26910592211E+03  0.27290868448E+03  0.00000000000E+00 0. -1.
</event>
<event>
 4    1  0.6935156E+001  0.2080989E+02  0.7546771E-02  0.1521997E+00
          2   -1    0    0  502    0  0.00000000000E+00  0.00000000000E+00  0.11507550781E+04  0.11507550781E+04  0.00000000000E+00 0. -1.
         -2   -1    0    0    0  501 -0.00000000000E+00 -0.00000000000E+00 -0.47625244371E+00  0.47625244371E+00  0.00000000000E+00 0.  1.
          1    1    1    2  502    0 -0.77799492861E+01 -0.19300875995E+02  0.31146461562E+03  0.31215902712E+03  0.00000000000E+00 0.  1.
         -1    1    1    2    0  501  0.77799492861E+01  0.19300875995E+02  0.83881421002E+03  0.83907230341E+03  0.00000000000E+00 0. -1.
</event>
<event>
 4    1  0.6935156E+001  0.2254675E+02  0.7546771E-02  0.1498269E+00
          2   -1    0    0  502    0  0.00000000000E+00  0.00000000000E+00  0.63754515915E+03  0.63754515915E+03  0.00000000000E+00 0. -1.
         -2   -1    0    0    0  501 -0.00000000000E+00 -0.00000000000E+00 -0.83146520600E+00  0.83146520600E+00  0.00000000000E+00 0.  1.
          1    1    1    2  502    0 -0.11677759488E+02 -0.19286931152E+02  0.25371591703E+03  0.25471576774E+03  0.00000000000E+00 0. -1.
         -1    1    1    2    0  501  0.11677759488E+02  0.19286931152E+02  0.38299777691E+03  0.38366085662E+03  0.00000000000E+00 0.  1.
</event>
<event>
 4    1  0.6935156E+001  0.2238467E+02  0.7546771E-02  0.1500373E+00
          2   -1    0    0  502    0  0.00000000000E+00  0.00000000000E+00  0.82083186269E+03  0.82083186269E+03  0.00000000000E+00 0.  1.
         -2   -1    0    0    0  501 -0.00000000000E+00 -0.00000000000E+00 -0.95048755622E+00  0.95048755622E+00  0.00000000000E+00 0. -1.
          1    1    1    2  502    0  0.19613287866E+02  0.10788529059E+02  0.65570548553E+03  0.65608746153E+03  0.00000000000E+00 0. -1.
         -1    1    1    2    0  501 -0.19613287866E+02 -0.10788529059E+02  0.16417588961E+03  0.16569488872E+03  0.00000000000E+00 0.  1.
</event>
<event>
 4    1  0.6935156E+001  0.2324936E+02  0.7546771E-02  0.1489390E+00
          2   -1    0    0  502    0  0.00000000000E+00  0.00000000000E+00  0.33188028071E+03  0.33188028071E+03  0.00000000000E+00 0. -1.
         -2   -1    0    0    0  501 -0.00000000000E+00 -0.00000000000E+00 -0.16535400016E+01  0.16535400016E+01  0.00000000000E+00 0.  1.
          1    1    1    2  502    0  0.18489213966E+02  0.14095446670E+02  0.14467254422E+03  0.14652876066E+03  0.00000000000E+00 0.  1.
         -1    1    1    2    0  501 -0.18489213966E+02 -0.14095446670E+02  0.18555419649E+03  0.18700506005E+03  0.00000000000E+00 0. -1.
</event>
<event>
 4    1  0.6935156E+001  0.2379112E+02  0.7546771E-02  0.1482796E+00
          2   -1    0    0  502    0  0.00000000000E+00  0.00000000000E+00  0.90859830683E+03  0.90859830683E+03  0.00000000000E+00 0.  1.
         -2   -1    0    0    0  501 -0.00000000000E+00 -0.00000000000E+00 -0.94235576536E+00  0.94235576536E+00  0.00000000000E+00 0. -1.
          1    1    1    2  502    0  0.13773021264E+02  0.19398999953E+02  0.71858748337E+03  0.71898121573E+03  0.00000000000E+00 0.  1.
         -1    1    1    2    0  501 -0.13773021264E+02 -0.19398999953E+02  0.18906846770E+03  0.19055944687E+03  0.00000000000E+00 0. -1.
</event>
<event>
 4    1  0.6935156E+001  0.2551783E+02  0.7546771E-02  0.1463093E+00
          2   -1    0    0  502    0  0.00000000000E+00  0.00000000000E+00  0.20178933881E+02  0.20178933881E+02  0.00000000000E+00 0.  1.
         -2   -1    0    0    0  501 -0.00000000000E+00 -0.00000000000E+00 -0.33685338651E+02  0.33685338651E+02  0.00000000000E+00 0. -1.
          1    1    1    2  502    0  0.15839072238E+02  0.20007081848E+02 -0.12312585640E+01  0.25547515164E+02  0.00000000000E+00 0. -1.
         -1    1    1    2    0  501 -0.15839072238E+02 -0.20007081848E+02 -0.12275146206E+02  0.28316757368E+02  0.00000000000E+00 0.  1.
</event>
<event>
 4    1  0.6935156E+001  0.4104524E+02  0.7546771E-02  0.1342467E+00
          2   -1    0    0  502    0  0.00000000000E+00  0.00000000000E+00  0.13449454172E+03  0.13449454172E+03  0.00000000000E+00 0.  1.
         -2   -1    0    0    0  501 -0.00000000000E+00 -0.00000000000E+00 -0.17448293185E+02  0.17448293185E+02  0.00000000000E+00 0. -1.
          1    1    1    2  502    0  0.31891762442E+02 -0.25838479276E+02  0.18172830233E+02  0.44888342380E+02  0.00000000000E+00 0. -1.
         -1    1    1    2    0  501 -0.31891762442E+02  0.25838479276E+02  0.98873418303E+02  0.10705449253E+03  0.00000000000E+00 0.  1.
</event>
<event>
 4    1  0.6935156E+001  0.3469293E+02  0.7546771E-02  0.1382735E+00
          2   -1    0    0  502    0  0.00000000000E+00  0.00000000000E+00  0.97225122966E+03  0.97225122966E+03  0.00000000000E+00 0.  1.
         -2   -1    0    0    0  501 -0.00000000000E+00 -0.00000000000E+00 -0.17511497953E+01  0.17511497953E+01  0.00000000000E+00 0. -1.
          1    1    1    2  502    0  0.29615162213E+02 -0.18070465460E+02  0.22161015572E+03  0.22430929689E+03  0.00000000000E+00 0. -1.
         -1    1    1    2    0  501 -0.29615162213E+02  0.18070465460E+02  0.74888992414E+03  0.74969308256E+03  0.00000000000E+00 0.  1.
</event>
<event>
 4    1  0.6935156E+001  0.2458391E+02  0.7546771E-02  0.1473512E+00
          2   -1    0    0  502    0  0.00000000000E+00  0.00000000000E+00  0.15500131410E+04  0.15500131410E+04  0.00000000000E+00 0. -1.
         -2   -1    0    0    0  501 -0.00000000000E+00 -0.00000000000E+00 -0.43318258876E+00  0.43318258876E+00  0.00000000000E+00 0.  1.
          1    1    1    2  502    0  0.22712211618E+02 -0.94087229620E+01  0.10198023249E+04  0.10200985984E+04  0.00000000000E+00 0. -1.
         -1    1    1    2    0  501 -0.22712211618E+02  0.94087229620E+01  0.52977763355E+03  0.53034772521E+03  0.00000000000E+00 0.  1.
</event>
<event>
 4    1  0.6935156E+001  0.4120364E+02  0.7546771E-02  0.1341573E+00
          2   -1    0    0  502    0  0.00000000000E+00  0.00000000000E+00  0.55607626042E+01  0.55607626042E+01  0.00000000000E+00 0. -1.
         -2   -1    0    0    0  501 -0.00000000000E+00 -0.00000000000E+00 -0.30728697892E+03  0.30728697892E+03  0.00000000000E+00 0.  1.
          1    1    1    2  502    0 -0.39250175933E+02 -0.12536498047E+02 -0.16341919802E+03  0.16853360014E+03  0.00000000000E+00 0.  1.
         -1    1    1    2    0  501  0.39250175933E+02  0.12536498047E+02 -0.13830701829E+03  0.14431414138E+03  0.00000000000E+00 0. -1.
</event>
<event>
 4    1  0.6935156E+001  0.2042035E+02  0.7546771E-02  0.1527704E+00
          2   -1    0    0  502    0  0.00000000000E+00  0.00000000000E+00  0.68500681849E+03  0.68500681849E+03  0.00000000000E+00 0. -1.
         -2   -1    0    0    0  501 -0.00000000000E+00 -0.00000000000E+00 -0.99922586232E+00  0.99922586232E+00  0.00000000000E+00 0.  1.
          1    1    1    2  502    0 -0.18399113440E+02  0.88579576471E+01  0.55642561895E+03  0.55680019775E+03  0.00000000000E+00 0. -1.
         -1    1    1    2    0  501  0.18399113440E+02 -0.88579576471E+01  0.12758197367E+03  0.12920584660E+03  0.00000000000E+00 0.  1.
</event>
<event>
 4    1  0.6935156E+001  0.2756613E+02  0.7546771E-02  0.1442003E+00
          2   -1    0    0  502    0  0.00000000000E+00  0.00000000000E+00  0.99753214626E+03  0.99753214626E+03  0.00000000000E+00 0.  1.
         -2   -1    0    0    0  501 -0.00000000000E+00 -0.00000000000E+00 -0.79178876809E+00  0.79178876809E+00  0.00000000000E+00 0. -1.
          1    1    1    2  502    0 -0.23557980588E+02 -0.14314783317E+02  0.40117985166E+03  0.40212580724E+03  0.00000000000E+00 0.  1.
         -1    1    1    2    0  501  0.23557980588E+02  0.14314783317E+02  0.59556050583E+03  0.59619812779E+03  0.00000000000E+00 0. -1.
</event>
<event>
 4    1  0.6935156E+001  0.3052226E+02  0.7546771E-02  0.1415111E+00
          2   -1    0    0  502    0  0.00000000000E+00  0.00000000000E+00  0.38514277170E+02  0.38514277170E+02  0.00000000000E+00 0. -1.
         -2   -1    0    0    0  501 -0.00000000000E+00 -0.00000000000E+00 -0.38076010574E+02  0.38076010574E+02  0.00000000000E+00 0.  1.
          1    1    1    2  502    0 -0.29460206916E+02  0.79815175863E+01 -0.22908320609E+02  0.38162803457E+02  0.00000000000E+00 0.  1.
         -1    1    1    2    0  501  0.29460206916E+02 -0.79815175863E+01  0.23346587206E+02  0.38427484288E+02  0.00000000000E+00 0. -1.
</event>
<event>
 4    1  0.6935156E+001  0.2300438E+02  0.7546771E-02  0.1492443E+00
          2   -1    0    0  502    0  0.00000000000E+00  0.00000000000E+00  0.57222524895E+02  0.57222524895E+02  0.00000000000E+00 0. -1.
         -2   -1    0    0    0  501 -0.00000000000E+00 -0.00000000000E+00 -0.98427976143E+01  0.98427976143E+01  0.00000000000E+00 0.  1.
          1    1    1    2  502    0  0.20614389046E+02  0.10210217917E+02  0.15447640296E+02  0.27709766804E+02  0.00000000000E+00 0.  1.
         -1    1    1    2    0  501 -0.20614389046E+02 -0.10210217917E+02  0.31932086986E+02  0.39355555706E+02  0.00000000000E+00 0. -1.
</event>
<event>
 4    1  0.6935156E+001  0.2222303E+02  0.7546771E-02  0.1502492E+00
          2   -1    0    0  502    0  0.00000000000E+00  0.00000000000E+00  0.72238756616E+01  0.72238756616E+01  0.00000000000E+00 0.  1.
         -2   -1    0    0    0  501 -0.00000000000E+00 -0.00000000000E+00 -0.79803238583E+02  0.79803238583E+02  0.00000000000E+00 0. -1.
          1    1    1    2  502    0  0.85477769253E+00  0.22206581884E+02 -0.52763220249E+02  0.57252251789E+02  0.00000000000E+00 0. -1.
         -1    1    1    2    0  501 -0.85477769253E+00 -0.22206581884E+02 -0.19816142673E+02  0.29774862456E+02  0.00000000000E+00 0.  1.
</event>
<event>
 4    1  0.6935156E+001  0.3609372E+02  0.7546771E-02  0.1373033E+00
          2   -1    0    0  502    0  0.00000000000E+00  0.00000000000E+00  0.10949356746E+03  0.10949356746E+03  0.00000000000E+00 0. -1.
         -2   -1    0    0    0  501 -0.00000000000E+00 -0.00000000000E+00 -0.24930547128E+02  0.24930547128E+02  0.00000000000E+00 0.  1.
          1    1    1    2  502    0  0.17345992272E+02  0.31652374915E+02  0.90876965885E+02  0.97782305220E+02  0.00000000000E+00 0. -1.
         -1    1    1    2    0  501 -0.17345992272E+02 -0.31652374915E+02 -0.63139455481E+01  0.36641809372E+02  0.00000000000E+00 0.  1.
</event>
<event>
 4    1  0.6935156E+001  0.2978846E+02  0.7546771E-02  0.1421444E+00
          2   -1    0    0  502    0  0.00000000000E+00  0.00000000000E+00  0.10145984803E+02  0.10145984803E+02  0.00000000000E+00 0. -1.
         -2   -1    0    0    0  501 -0.00000000000E+00 -0.00000000000E+00 -0.94689194366E+02  0.94689194366E+02  0.00000000000E+00 0.  1.
          1    1    1    2  502    0  0.29672718842E+02  0.26233615926E+01 -0.56756583155E+02  0.64098845551E+02  0.00000000000E+00 0.  1.
         -1    1    1    2    0  501 -0.29672718842E+02 -0.26233615926E+01 -0.27786626408E+02  0.40736333618E+02  0.00000000000E+00 0. -1.
</event>
<event>
 4    1  0.6935156E+001  0.2255148E+02  0.7546771E-02  0.1498208E+00
          2   -1    0    0  502    0  0.00000000000E+00  0.00000000000E+00  0.65063999976E+01  0.65063999976E+01  0.00000000000E+00 0. -1.
         -2   -1    0    0    0  501 -0.00000000000E+00 -0.00000000000E+00 -0.78165598221E+02  0.78165598221E+02  0.00000000000E+00 0.  1.
          1    1    1    2  502    0 -0.76586987994E+01  0.21211161199E+02 -0.35665710729E+02  0.42197297882E+02  0.00000000000E+00 0.  1.
         -1    1    1    2    0  501  0.76586987994E+01 -0.21211161199E+02 -0.35993487494E+02  0.42474700337E+02  0.00000000000E+00 0. -1.
</event>
<event>
 4    1  0.6935156E+001  0.6675374E+02  0.7546771E-02  0.1238465E+00
          2   -1    0    0  502    0  0.00000000000E+00  0.00000000000E+00  0.27882120964E+04  0.27882120964E+04  0.00000000000E+00 0. -1.
         -2   -1    0    0    0  501 -0.00000000000E+00 -0.00000000000E+00 -0.29941231948E+01  0.29941231948E+01  0.00000000000E+00 0.  1.
          1    1    1    2  502    0 -0.53358721425E+02  0.40111207255E+02  0.23455392503E+04  0.23464889595E+04  0.00000000000E+00 0. -1.
         -1    1    1    2    0  501  0.53358721425E+02 -0.40111207255E+02  0.43967872290E+03  0.44471726014E+03  0.00000000000E+00 0.  1.
</event>
<event>
 4    1  0.6935156E+001  0.3113866E+02  0.7546771E-02  0.1409953E+00
          2   -1    0    0  502    0  0.00000000000E+00  0.00000000000E+00  0.93393044373E+03  0.93393044373E+03  0.00000000000E+00 0.  1.
         -2   -1    0    0    0  501 -0.00000000000E+00 -0.00000000000E+00 -0.11252376356E+01  0.11252376356E+01  0.00000000000E+00 0. -1.
          1    1    1    2  502    0 -0.30164646698E+02 -0.77272437908E+01  0.33638169511E+03  0.33781986474E+03  0.00000000000E+00 0. -1.
         -1    1    1    2    0  501  0.30164646698E+02  0.77272437908E+01  0.59642351098E+03  0.59723581662E+03  0.00000000000E+00 0.  1.
</event>
<event>
 4    1  0.6935156E+001  0.2074350E+02  0.7546771E-02  0.1522959E+00
          2   -1    0    0  502    0  0.00000000000E+00  0.00000000000E+00  0.21644955592E+03  0.21644955592E+03  0.00000000000E+00 0. -1.
         -2   -1    0    0    0  501 -0.00000000000E+00 -0.00000000000E+00 -0.20104852730E+01  0.20104852730E+01  0.00000000000E+00 0.  1.
          1    1    1    2  502    0 -0.14435945150E+02 -0.14896189155E+02  0.95657591630E+02  0.97880885775E+02  0.00000000000E+00 0.  1.
         -1    1    1    2    0  501  0.14435945150E+02  0.14896189155E+02  0.11878147902E+03  0.12057915542E+03  0.00000000000E+00 0. -1.
</event>
<event>
 4    1  0.6935156E+001  0.2061965E+02  0.7546771E-02  0.1524765E+00
          2   -1    0    0  502    0  0.00000000000E+00  0.00000000000E+00  0.16784226440E+04  0.16784226440E+04  0.00000000000E+00 0. -1.
         -2   -1    0    0    0  501 -0.00000000000E+00 -0.00000000000E+00 -0.55648494377E+00  0.55648494377E+00  0.00000000000E+00 0.  1.
          1    1    1    2  502    0  0.10784148212E+02 -0.17574758114E+02  0.21930439033E+03  0.22027161777E+03  0.00000000000E+00 0.  1.
         -1    1    1    2    0  501 -0.10784148212E+02  0.17574758114E+02  0.14585617688E+04  0.14587075112E+04  0.00000000000E+00 0. -1.
</event>
<event>
 4    1  0.6935156E+001  0.7726634E+02  0.7546771E-02  0.1210340E+00
          2   -1    0    0  502    0  0.00000000000E+00  0.00000000000E+00  0.18024519146E+04  0.18024519146E+04  0.00000000000E+00 0.  1.
         -2   -1    0    0    0  501 -0.00000000000E+00 -0.00000000000E+00 -0.33548321872E+01  0.33548321872E+01  0.00000000000E+00 0. -1.
          1    1    1    2  502    0 -0.61691265121E+02 -0.46521763815E+02  0.10013277867E+04  0.10043044474E+04  0.00000000000E+00 0. -1.
         -1    1    1    2    0  501  0.61691265121E+02  0.46521763815E+02  0.79776929575E+03  0.80150229940E+03  0.00000000000E+00 0.  1.
</event>
<event>
 4    1  0.6935156E+001  0.2227991E+02  0.7546771E-02  0.1501744E+00
          2   -1    0    0  502    0  0.00000000000E+00  0.00000000000E+00  0.13215236188E+04  0.13215236188E+04  0.00000000000E+00 0. -1.
         -2   -1    0    0    0  501 -0.00000000000E+00 -0.00000000000E+00 -0.42525390537E+00  0.42525390537E+00  0.00000000000E+00 0.  1.
          1    1    1    2  502    0 -0.11440216251E+02  0.19118463008E+02  0.88635661407E+03  0.88663658930E+03  0.00000000000E+00 0. -1.
         -1    1    1    2    0  501  0.11440216251E+02 -0.19118463008E+02  0.43474175087E+03  0.43531228345E+03  0.00000000000E+00 0.  1.
</event>
<event>
 4    1  0.6935156E+001  0.3754830E+02  0.7546771E-02  0.1363484E+00
          2   -1    0    0  502    0  0.00000000000E+00  0.00000000000E+00  0.23057647014E+01  0.23057647014E+01  0.00000000000E+00 0.  1.
         -2   -1    0    0    0  501 -0.00000000000E+00 -0.00000000000E+00 -0.69723278453E+03  0.69723278453E+03  0.00000000000E+00 0. -1.
          1    1    1    2  502    0 -0.43684788170E+01 -0.37293308960E+02 -0.22478267689E+03  0.22789718368E+03  0.00000000000E+00 0.  1.
         -1    1    1    2    0  501  0.43684788170E+01  0.37293308960E+02 -0.47014434294E+03  0.47164136555E+03  0.00000000000E+00 0. -1.
</event>
<event>
 4    1  0.6935156E+001  0.2535781E+02  0.7546771E-02  0.1464840E+00
          2   -1    0    0  502    0  0.00000000000E+00  0.00000000000E+00  0.59200547434E+03  0.59200547434E+03  0.00000000000E+00 0. -1.
         -2   -1    0    0    0  501 -0.00000000000E+00 -0.00000000000E+00 -0.11280421187E+01  0.11280421187E+01  0.00000000000E+00 0.  1.
          1    1    1    2  502    0 -0.25353965027E+02 -0.44142542735E+00  0.23830086292E+03  0.23964623858E+03  0.00000000000E+00 0. -1.
         -1    1    1    2    0  501  0.25353965027E+02  0.44142542735E+00  0.35257656931E+03  0.35348727788E+03  0.00000000000E+00 0.  1.
</event>
<event>
 4    1  0.6935156E+001  0.2095325E+02  0.7546771E-02  0.1519933E+00
          2   -1    0    0  502    0  0.00000000000E+00  0.00000000000E+00  0.13508504470E+02  0.13508504470E+02  0.00000000000E+00 0. -1.
         -2   -1    0    0    0  501 -0.00000000000E+00 -0.00000000000E+00 -0.32507462851E+02  0.32507462851E+02  0.00000000000E+00 0.  1.
          1    1    1    2  502    0  0.16805613614E+02  0.12514400577E+02 -0.98258065192E+01  0.23142716878E+02  0.00000000000E+00 0.  1.
         -1    1    1    2    0  501 -0.16805613614E+02 -0.12514400577E+02 -0.91731518617E+01  0.22873250443E+02  0.00000000000E+00 0. -1.
</event>
<event>
 4    1  0.6935156E+001  0.6812239E+02  0.7546771E-02  0.1234481E+00
          2   -1    0    0  502    0  0.00000000000E+00  0.00000000000E+00  0.14299400401E+04  0.14299400401E+04  0.00000000000E+00 0. -1.
         -2   -1    0    0    0  501 -0.00000000000E+00 -0.00000000000E+00 -0.32482108778E+01  0.32482108778E+01  0.00000000000E+00 0.  1.
          1    1    1    2  502    0  0.40780788427E+01  0.68000217077E+02  0.73460136299E+03  0.73775322619E+03  0.00000000000E+00 0. -1.
         -1    1    1    2    0  501 -0.40780788427E+01 -0.68000217077E+02  0.69209046620E+03  0.69543502476E+03  0.00000000000E+00 0.  1.
</event>
<event>
 4    1  0.6935156E+001  0.3796050E+02  0.7546771E-02  0.1360870E+00
          2   -1    0    0  502    0  0.00000000000E+00  0.00000000000E+00  0.26562908863E+03  0.26562908863E+03  0.00000000000E+00 0.  1.
         -2   -1    0    0    0  501 -0.00000000000E+00 -0.00000000000E+00 -0.86722775098E+01  0.86722775098E+01  0.00000000000E+00 0. -1.
          1    1    1    2  502    0 -0.20836212978E+02 -0.31730923754E+02  0.21240522962E+03  0.21577066729E+03  0.00000000000E+00 0.  1.
         -1    1    1    2    0  501  0.20836212978E+02  0.31730923754E+02  0.44551581503E+02  0.58530698850E+02  0.00000000000E+00 0. -1.
</event>
<event>
 4    1  0.6935156E+001  0.2507818E+02  0.7546771E-02  0.1467931E+00
          2   -1    0    0  502    0  0.00000000000E+00  0.00000000000E+00  0.82030504652E+03  0.82030504652E+03  0.00000000000E+00 0.  1.
         -2   -1    0    0    0  501 -0.00000000000E+00 -0.00000000000E+00 -0.94643747841E+00  0.94643747841E+00  0.00000000000E+00 0. -1.
          1    1    1    2  502    0 -0.20836162409E+02  0.13955979090E+02  0.23072651503E+03  0.23208541478E+03  0.00000000000E+00 0. -1.
         -1    1    1    2    0  501  0.20836162409E+02 -0.13955979090E+02  0.58863209401E+03  0.58916606922E+03  0.00000000000E+00 0.  1.
</event>
<event>
 4    1  0.6935156E+001  0.2075707E+02  0.7546771E-02  0.1522762E+00
          2   -1    0    0  502    0  0.00000000000E+00  0.00000000000E+00  0.53419936041E+01  0.53419936041E+01  0.00000000000E+00 0. -1.
         -2   -1    0    0    0  501 -0.00000000000E+00 -0.00000000000E+00 -0.83526497880E+02  0.83526497880E+02  0.00000000000E+00 0.  1.
          1    1    1    2  502    0  0.17232185331E+02 -0.11571860296E+02 -0.30852902402E+02  0.37185450766E+02  0.00000000000E+00 0. -1.
         -1    1    1    2    0  501 -0.17232185331E+02  0.11571860296E+02 -0.47331601874E+02  0.51683040718E+02  0.00000000000E+00 0.  1.
</event>
<event>
 4    1  0.6935156E+001  0.2969629E+02  0.7546771E-02  0.1422254E+00
          2   -1    0    0  502    0  0.00000000000E+00  0.00000000000E+00  0.16986607613E+04  0.16986607613E+04  0.00000000000E+00 0. -1.
         -2   -1    0    0    0  501 -0.00000000000E+00 -0.00000000000E+00 -0.56942810033E+00  0.56942810033E+00  0.00000000000E+00 0.  1.
          1    1    1    2  502    0  0.88086434349E+01 -0.28359785611E+02  0.11014908085E+04  0.11018910431E+04  0.00000000000E+00 0.  1.
         -1    1    1    2    0  501 -0.88086434349E+01  0.28359785611E+02  0.59660052476E+03  0.59733914637E+03  0.00000000000E+00 0. -1.
</event>
<event>
 4    1  0.6935156E+001  0.2182050E+02  0.7546771E-02  0.1507865E+00
          2   -1    0    0  502    0  0.00000000000E+00  0.00000000000E+00  0.26155588461E+04  0.26155588461E+04  0.00000000000E+00 0. -1.
         -2   -1    0    0    0  501 -0.00000000000E+00 -0.00000000000E+00 -0.19127535491E+00  0.19127535491E+00  0.00000000000E+00 0.  1.
          1    1    1    2  502    0  0.20558365924E+02 -0.73135261150E+01  0.10202857146E+04  0.10205190217E+04  0.00000000000E+00 0.  1.
         -1    1    1    2    0  501 -0.20558365924E+02  0.73135261150E+01  0.15950818561E+04  0.15952310998E+04  0.00000000000E+00 0. -1.
</event>
<event>
 4    1  0.6935156E+001  0.2602707E+02  0.7546771E-02  0.1457634E+00
          2   -1    0    0  502    0  0.00000000000E+00  0.00000000000E+00  0.22878117152E+04  0.22878117152E+04  0.00000000000E+00 0.  1.
         -2   -1    0    0    0  501 -0.00000000000E+00 -0.00000000000E+00 -0.32505839486E+00  0.32505839486E+00  0.00000000000E+00 0. -1.
          1    1    1    2  502    0  0.15688519366E+02 -0.20767253273E+02  0.14852505017E+04  0.14854785293E+04  0.00000000000E+00 0.  1.
         -1    1    1    2    0  501 -0.15688519366E+02  0.20767253273E+02  0.80223615510E+03  0.80265824421E+03  0.00000000000E+00 0. -1.
</event>
<event>
 4    1  0.6935156E+001  0.2053905E+02  0.7546771E-02  0.1525949E+00
          2   -1    0    0  502    0  0.00000000000E+00  0.00000000000E+00  0.86519301813E+01  0.86519301813E+01  0.00000000000E+00 0.  1.
         -2   -1    0    0    0  501 -0.00000000000E+00 -0.00000000000E+00 -0.53523990075E+02  0.53523990075E+02  0.00000000000E+00 0. -1.
          1    1    1    2  502    0  0.14250071249E+02  0.14791489874E+02 -0.13159520501E+02  0.24393148282E+02  0.00000000000E+00 0.  1.
         -1    1    1    2    0  501 -0.14250071249E+02 -0.14791489874E+02 -0.31712539393E+02  0.37782771974E+02  0.00000000000E+00 0. -1.
</event>
<event>
 4    1  0.6935156E+001  0.2146974E+02  0.7546771E-02  0.1512663E+00
          2   -1    0    0  502    0  0.00000000000E+00  0.00000000000E+00  0.22256145573E+03  0.22256145573E+03  0.00000000000E+00 0.  1.
         -2   -1    0    0    0  501 -0.00000000000E+00 -0.00000000000E+00 -0.38920216894E+01  0.38920216894E+01  0.00000000000E+00 0. -1.
          1    1    1    2  502    0 -0.19245391915E+02 -0.95165487816E+01  0.31887553308E+02  0.38441720391E+02  0.00000000000E+00 0. -1.
         -1    1    1    2    0  501  0.19245391915E+02  0.95165487816E+01  0.18678188074E+03  0.18801175703E+03  0.00000000000E+00 0.  1.
</event>
<event>
 4    1  0.6935156E+001  0.2409971E+02  0.7546771E-02  0.1479132E+00
          2   -1    0    0  502    0  0.00000000000E+00  0.00000000000E+00  0.17013790346E+03  0.17013790346E+03  0.00000000000E+00 0.  1.
         -2   -1    0    0    0  501 -0.00000000000E+00 -0.00000000000E+00 -0.34311941579E+01  0.34311941579E+01  0.00000000000E+00 0. -1.
          1    1    1    2  502    0  0.24021453035E+02 -0.19405101482E+01  0.77152434703E+02  0.80828794165E+02  0.00000000000E+00 0.  1.
         -1    1    1    2    0  501 -0.24021453035E+02  0.19405101482E+01  0.89554274595E+02  0.92740303448E+02  0.00000000000E+00 0. -1.
</event>
<event>
 4    1  0.6935156E+001  0.4818980E+02  0.7546771E-02  0.1306218E+00
          2   -1    0    0  502    0  0.00000000000E+00  0.00000000000E+00  0.81483573115E+03  0.81483573115E+03  0.00000000000E+00 0.  1.
         -2   -1    0    0    0  501 -0.00000000000E+00 -0.00000000000E+00 -0.42600826381E+01  0.42600826381E+01  0.00000000000E+00 0. -1.
          1    1    1    2  502    0 -0.40978603219E+02  0.25357658184E+02  0.16966208943E+03  0.17637313101E+03  0.00000000000E+00 0. -1.
         -1    1    1    2    0  501  0.40978603219E+02 -0.25357658184E+02  0.64091355907E+03  0.64272268278E+03  0.00000000000E+00 0.  1.
</event>
<event>
 4    1  0.6935156E+001  0.2954098E+02  0.7546771E-02  0.1423628E+00
          2   -1    0    0  502    0  0.00000000000E+00  0.00000000000E+00  0.74557745272E+03  0.74557745272E+03  0.00000000000E+00 0. -1.
         -2   -1    0    0    0  501 -0.00000000000E+00 -0.00000000000E+00 -0.13582086229E+01  0.13582086229E+01  0.00000000000E+00 0.  1.
          1    1    1    2  502    0  0.12046373326E+02  0.26973219345E+02  0.51096306457E+03  0.51181629812E+03  0.00000000000E+00 0. -1.
         -1    1    1    2    0  501 -0.12046373326E+02 -0.26973219345E+02  0.23325617953E+03  0.23511936322E+03  0.00000000000E+00 0.  1.
</event>
<event>
 4    1  0.6935156E+001  0.2175037E+02  0.7546771E-02  0.1508816E+00
          2   -1    0    0  502    0  0.00000000000E+00  0.00000000000E+00  0.11375835370E+01  0.11375835370E+01  0.00000000000E+00 0. -1.
         -2   -1    0    0    0  501 -0.00000000000E+00 -0.00000000000E+00 -0.45430080536E+03  0.45430080536E+03  0.00000000000E+00 0.  1.
          1    1    1    2  502    0  0.21146399899E+02  0.50900165059E+01 -0.16034330875E+03  0.16181178930E+03  0.00000000000E+00 0. -1.
         -1    1    1    2    0  501 -0.21146399899E+02 -0.50900165059E+01 -0.29281991308E+03  0.29362659960E+03  0.00000000000E+00 0.  1.
</event>
<event>
 4    1  0.6935156E+001  0.2187278E+02  0.7546771E-02  0.1507159E+00
          2   -1    0    0  502    0  0.00000000000E+00  0.00000000000E+00  0.34154576318E+03  0.34154576318E+03  0.00000000000E+00 0. -1.
         -2   -1    0    0    0  501 -0.00000000000E+00 -0.00000000000E+00 -0.14756862180E+01  0.14756862180E+01  0.00000000000E+00 0.  1.
          1    1    1    2  502    0 -0.21090223628E+02 -0.57983507980E+01  0.13138449331E+03  0.13319273061E+03  0.00000000000E+00 0.  1.
         -1    1    1    2    0  501  0.21090223628E+02  0.57983507980E+01  0.20868558365E+03  0.20982871879E+03  0.00000000000E+00 0. -1.
</event>
<event>
 4    1  0.6935156E+001  0.2266112E+02  0.7546771E-02  0.1496798E+00
          2   -1    0    0  502    0  0.00000000000E+00  0.00000000000E+00  0.61221215003E+02  0.61221215003E+02  0.00000000000E+00 0. -1.
         -2   -1    0    0    0  501 -0.00000000000E+00 -0.00000000000E+00 -0.83880480957E+01  0.83880480957E+01  0.00000000000E+00 0.  1.
          1    1    1    2  502    0 -0.76230526696E+01 -0.21340466811E+02  0.26406846034E+02  0.34797240885E+02  0.00000000000E+00 0.  1.
         -1    1    1    2    0  501  0.76230526696E+01  0.21340466811E+02  0.26426320873E+02  0.34812022214E+02  0.00000000000E+00 0. -1.
</event>
<event>
 4    1  0.6935156E+001  0.3384620E+02  0.7546771E-02  0.1388861E+00
          2   -1    0    0  502    0  0.00000000000E+00  0.00000000000E+00  0.10887795714E+04  0.10887795714E+04  0.00000000000E+00 0.  1.
         -2   -1    0    0    0  501 -0.00000000000E+00 -0.00000000000E+00 -0.10521551918E+01  0.10521551918E+01  0.00000000000E+00 0. -1.
          1    1    1    2  502    0 -0.28611655647E+02 -0.18081433439E+02  0.54382867452E+03  0.54488089736E+03  0.00000000000E+00 0. -1.
         -1    1    1    2    0  501  0.28611655647E+02  0.18081433439E+02  0.54389874167E+03  0.54495082921E+03  0.00000000000E+00 0.  1.
</event>
<event>
 4    1  0.6935156E+001  0.2403732E+02  0.7546771E-02  0.1479868E+00
          2   -1    0    0  502    0  0.00000000000E+00  0.00000000000E+00  0.81288290629E+03  0.81288290629E+03  0.00000000000E+00 0.  1.
         -2   -1    0    0    0  501 -0.00000000000E+00 -0.00000000000E+00 -0.80548095449E+00  0.80548095449E+00  0.00000000000E+00 0. -1.
          1    1    1    2  502    0  0.52676299586E+01 -0.23453034608E+02  0.26654833637E+03  0.26762998408E+03  0.00000000000E+00 0. -1.
         -1    1    1    2    0  501 -0.52676299586E+01  0.23453034608E+02  0.54552908896E+03  0.54605840316E+03  0.00000000000E+00 0.  1.
</event>
<event>
 4    1  0.6935156E+001  0.2295390E+02  0.7546771E-02  0.1493078E+00
          2   -1    0    0  502    0  0.00000000000E+00  0.00000000000E+00  0.44984661362E+01  0.44984661362E+01  0.00000000000E+00 0.  1.
         -2   -1    0    0    0  501 -0.00000000000E+00 -0.00000000000E+00 -0.12127584373E+03  0.12127584373E+03  0.00000000000E+00 0. -1.
          1    1    1    2  502    0  0.84944434358E+01 -0.21324302553E+02 -0.46753880317E+02  0.52084611675E+02  0.00000000000E+00 0.  1.
         -1    1    1    2    0  501 -0.84944434358E+01  0.21324302553E+02 -0.70023497279E+02  0.73689698193E+02  0.00000000000E+00 0. -1.
</event>
<event>
 4    1  0.6935156E+001  0.2151753E+02  0.7546771E-02  0.1512003E+00
          2   -1    0    0  502    0  0.00000000000E+00  0.00000000000E+00  0.15724469518E+04  0.15724469518E+04  0.00000000000E+00 0.  1.
         -2   -1    0    0    0  501 -0.00000000000E+00 -0.00000000000E+00 -0.32153344090E+00  0.32153344090E+00  0.00000000000E+00 0. -1.
          1    1    1    2  502    0  0.21290278060E+02 -0.31189772405E+01  0.10143013537E+04  0.10145295659E+04  0.00000000000E+00 0.  1.
         -1    1    1    2    0  501 -0.21290278060E+02  0.31189772405E+01  0.55782406470E+03  0.55823891938E+03  0.00000000000E+00 0. -1.
</event>
<event>
 4    1  0.6935156E+001  0.2098886E+02  0.7546771E-02  0.1519424E+00
          2   -1    0    0  502    0  0.00000000000E+00  0.00000000000E+00  0.12624628993E+02  0.12624628993E+02  0.00000000000E+00 0.  1.
         -2   -1    0    0    0  501 -0.00000000000E+00 -0.00000000000E+00 -0.39288794601E+02  0.39288794601E+02  0.00000000000E+00 0. -1.
          1    1    1    2  502    0 -0.20746769301E+02  0.31786274496E+01 -0.22012730049E+02  0.30415331547E+02  0.00000000000E+00 0. -1.
         -1    1    1    2    0  501  0.20746769301E+02 -0.31786274496E+01 -0.46514355587E+01  0.21498092047E+02  0.00000000000E+00 0.  1.
</event>
<event>
 4    1  0.6935156E+001  0.2076010E+02  0.7546771E-02  0.1522718E+00
          2   -1    0    0  502    0  0.00000000000E+00  0.00000000000E+00  0.40680968414E+03  0.40680968414E+03  0.00000000000E+00 0. -1.
         -2   -1    0    0    0  501 -0.00000000000E+00 -0.00000000000E+00 -0.16264351014E+01  0.16264351014E+01  0.00000000000E+00 0.  1.
          1    1    1    2  502    0 -0.15970636815E+02 -0.13263505523E+02  0.32317114610E+03  0.32383726081E+03  0.00000000000E+00 0. -1.
         -1    1    1    2    0  501  0.15970636815E+02  0.13263505523E+02  0.82012102938E+02  0.84598858429E+02  0.00000000000E+00 0.  1.
</event>
<event>
 4    1  0.6935156E+001  0.2140361E+02  0.7546771E-02  0.1513580E+00
          2   -1    0    0  502    0  0.00000000000E+00  0.00000000000E+00  0.14098621850E+04  0.14098621850E+04  0.00000000000E+00 0.  1.
         -2   -1    0    0    0  501 -0.00000000000E+00 -0.00000000000E+00 -0.32717325637E+00  0.32717325637E+00  0.00000000000E+00 0. -1.
          1    1    1    2  502    0 -0.21301972946E+02  0.20833533587E+01  0.76307916533E+03  0.76337928120E+03  0.00000000000E+00 0.  1.
         -1    1    1    2    0  501  0.21301972946E+02 -0.20833533587E+01  0.64645584644E+03  0.64681007707E+03  0.00000000000E+00 0. -1.
</event>
<event>
 4    1  0.6935156E+001  0.6503994E+02  0.7546771E-02  0.1243607E+00
          2   -1    0    0  502    0  0.00000000000E+00  0.00000000000E+00  0.97009522272E+02  0.97009522272E+02  0.00000000000E+00 0. -1.
         -2   -1    0    0    0  501 -0.00000000000E+00 -0.00000000000E+00 -0.19400641322E+03  0.19400641322E+03  0.00000000000E+00 0.  1.
          1    1    1    2  502    0 -0.52400471967E+02  0.38527716713E+02  0.79617530231E+02  0.10280634969E+03  0.00000000000E+00 0. -1.
         -1    1    1    2    0  501  0.52400471967E+02 -0.38527716713E+02 -0.17661442117E+03  0.18820958579E+03  0.00000000000E+00 0.  1.
</event>
<event>
 4    1  0.6935156E+001  0.2029738E+02  0.7546771E-02  0.1529537E+00
          2   -1    0    0  502    0  0.00000000000E+00  0.00000000000E+00  0.32958425275E+03  0.32958425275E+03  0.00000000000E+00 0. -1.
         -2   -1    0    0    0  501 -0.00000000000E+00 -0.00000000000E+00 -0.21614448136E+01  0.21614448136E+01  0.00000000000E+00 0.  1.
          1    1    1    2  502    0 -0.19594351878E+02  0.52957454690E+01  0.27142389806E+03  0.27218177012E+03  0.00000000000E+00 0. -1.
         -1    1    1    2    0  501  0.19594351878E+02 -0.52957454690E+01  0.55998909877E+02  0.59563927448E+02  0.00000000000E+00 0.  1.
</event>
<event>
 4    1  0.6935156E+001  0.2536661E+02  0.7546771E-02  0.1464744E+00
          2   -1    0    0  502    0  0.00000000000E+00  0.00000000000E+00  0.65539328821E+03  0.65539328821E+03  0.00000000000E+00 0.  1.
         -2   -1    0    0    0  501 -0.00000000000E+00 -0.00000000000E+00 -0.40165621631E+01  0.40165621631E+01  0.00000000000E+00 0. -1.
          1    1    1    2  502    0 -0.25362933267E+02  0.43184741422E+00  0.61227804232E+03  0.61280328490E+03  0.00000000000E+00 0.  1.
         -1    1    1    2    0  501  0.25362933267E+02 -0.43184741422E+00  0.39098683726E+02  0.46606565473E+02  0.00000000000E+00 0. -1.
</event>
<event>
 4    1  0.6935156E+001  0.2139198E+02  0.7546771E-02  0.1513741E+00
          2   -1    0    0  502    0  0.00000000000E+00  0.00000000000E+00  0.41371508556E+03  0.41371508556E+03  0.00000000000E+00 0. -1.
         -2   -1    0    0    0  501 -0.00000000000E+00 -0.00000000000E+00 -0.13159258461E+01  0.13159258461E+01  0.00000000000E+00 0.  1.
          1    1    1    2  502    0  0.19010370815E+02 -0.98093122249E+01  0.28906015702E+03  0.28985063599E+03  0.00000000000E+00 0. -1.
         -1    1    1    2    0  501 -0.19010370815E+02  0.98093122249E+01  0.12333900269E+03  0.12518037542E+03  0.00000000000E+00 0.  1.
</event>
<event>
 4    1  0.6935156E+001  0.2043613E+02  0.7546771E-02  0.1527470E+00
          2   -1    0    0  502    0  0.00000000000E+00  0.00000000000E+00  0.15057036041E+03  0.15057036041E+03  0.00000000000E+00 0. -1.
         -2   -1    0    0    0  501 -0.00000000000E+00 -0.00000000000E+00 -0.36958286806E+01  0.36958286806E+01  0.00000000000E+00 0.  1.
          1    1    1    2  502    0 -0.18936728210E+02 -0.76834669574E+01  0.34908667085E+02  0.40450591805E+02  0.00000000000E+00 0.  1.
         -1    1    1    2    0  501  0.18936728210E+02  0.76834669574E+01  0.11196586464E+03  0.11381559728E+03  0.00000000000E+00 0. -1.
</event>
<event>
 4    1  0.6935156E+001  0.2440437E+02  0.7546771E-02  0.1475578E+00
          2   -1    0    0  502    0  0.00000000000E+00  0.00000000000E+00  0.16223650296E+01  0.16223650296E+01  0.00000000000E+00 0.  1.
         -2   -1    0    0    0  501 -0.00000000000E+00 -0.00000000000E+00 -0.37134552219E+03  0.37134552219E+03  0.00000000000E+00 0. -1.
          1    1    1    2  502    0 -0.37951983253E-01 -0.24404335503E+02 -0.16492600708E+03  0.16672180674E+03  0.00000000000E+00 0.  1.
         -1    1    1    2    0  501  0.37951983253E-01  0.24404335503E+02 -0.20479715008E+03  0.20624608048E+03  0.00000000000E+00 0. -1.
</event>
<event>
 4    1  0.6935156E+001  0.2690965E+02  0.7546771E-02  0.1448518E+00
          2   -1    0    0  502    0  0.00000000000E+00  0.00000000000E+00  0.26689818937E+03  0.26689818937E+03  0.00000000000E+00 0.  1.
         -2   -1    0    0    0  501 -0.00000000000E+00 -0.00000000000E+00 -0.37853469873E+01  0.37853469873E+01  0.00000000000E+00 0. -1.
          1    1    1    2  502    0  0.52322668702E+01 -0.26396072946E+02  0.20358759507E+03  0.20535831649E+03  0.00000000000E+00 0.  1.
         -1    1    1    2    0  501 -0.52322668702E+01  0.26396072946E+02  0.59525247313E+02  0.65325219872E+02  0.00000000000E+00 0. -1.
</event>
<event>
 4    1  0.6935156E+001  0.2251408E+02  0.7546771E-02  0.1498692E+00
          2   -1    0    0  502    0  0.00000000000E+00  0.00000000000E+00  0.15354002578E+03  0.15354002578E+03  0.00000000000E+00 0. -1.
         -2   -1    0    0    0  501 -0.00000000000E+00 -0.00000000000E+00 -0.33931696935E+01  0.33931696935E+01  0.00000000000E+00 0.  1.
          1    1    1    2  502    0 -0.12032347693E+02  0.19029088398E+02  0.62163055523E+02  0.66114514808E+02  0.00000000000E+00 0. -1.
         -1    1    1    2    0  501  0.12032347693E+02 -0.19029088398E+02  0.87983800560E+02  0.90818680663E+02  0.00000000000E+00 0.  1.
</event>
<event>
 4    1  0.6935156E+001  0.3558868E+02  0.7546771E-02  0.1376471E+00
          2   -1    0    0  502    0  0.00000000000E+00  0.00000000000E+00  0.40158358453E+03  0.40158358453E+03  0.00000000000E+00 0.  1.
         -2   -1    0    0    0  501 -0.00000000000E+00 -0.00000000000E+00 -0.33180189399E+01  0.33180189399E+01  0.00000000000E+00 0. -1.
          1    1    1    2  502    0  0.62247377694E+01  0.35040074967E+02  0.15410710527E+03  0.15816306178E+03  0.00000000000E+00 0. -1.
         -1    1    1    2    0  501 -0.62247377694E+01 -0.35040074967E+02  0.24415846032E+03  0.24673854170E+03  0.00000000000E+00 0.  1.
</event>
<event>
 4    1  0.6935156E+001  0.2755376E+02  0.7546771E-02  0.1442123E+00
          2   -1    0    0  502    0  0.00000000000E+00  0.00000000000E+00  0.16817918528E+04  0.16817918528E+04  0.00000000000E+00 0. -1.
         -2   -1    0    0    0  501 -0.00000000000E+00 -0.00000000000E+00 -0.54453084134E+00  0.54453084134E+00  0.00000000000E+00 0.  1.
          1    1    1    2  502    0  0.71536685793E+01 -0.26608918001E+02  0.11884407422E+04  0.11887601134E+04  0.00000000000E+00 0. -1.
         -1    1    1    2    0  501 -0.71536685793E+01  0.26608918001E+02  0.49280657973E+03  0.49357627022E+03  0.00000000000E+00 0.  1.
</event>
<event>
 4    1  0.6935156E+001  0.2348006E+02  0.7546771E-02  0.1486556E+00
          2   -1    0    0  502    0  0.00000000000E+00  0.00000000000E+00  0.12976933247E+04  0.12976933247E+04  0.00000000000E+00 0. -1.
         -2   -1    0    0    0  501 -0.00000000000E+00 -0.00000000000E+00 -0.45907162310E+00  0.45907162310E+00  0.00000000000E+00 0.  1.
          1    1    1    2  502    0 -0.16460617264E+02  0.16743999014E+02  0.82585739647E+03  0.82619111150E+03  0.00000000000E+00 0. -1.
         -1    1    1    2    0  501  0.16460617264E+02 -0.16743999014E+02  0.47137685663E+03  0.47196128484E+03  0.00000000000E+00 0.  1.
</event>
<event>
 4    1  0.6935156E+001  0.2198905E+02  0.7546771E-02  0.1505598E+00
          2   -1    0    0  502    0  0.00000000000E+00  0.00000000000E+00  0.10759100482E+02  0.10759100482E+02  0.00000000000E+00 0.  1.
         -2   -1    0    0    0  501 -0.00000000000E+00 -0.00000000000E+00 -0.45917466110E+02  0.45917466110E+02  0.00000000000E+00 0. -1.
          1    1    1    2  502    0  0.74719895722E+01  0.20680612216E+02 -0.13445424335E+02  0.25773974962E+02  0.00000000000E+00 0.  1.
         -1    1    1    2    0  501 -0.74719895722E+01 -0.20680612216E+02 -0.21712941293E+02  0.30902591629E+02  0.00000000000E+00 0. -1.
</event>
<event>
 4    1  0.6935156E+001  0.2134053E+02  0.7546771E-02  0.1514458E+00
          2   -1    0    0  502    0  0.00000000000E+00  0.00000000000E+00  0.15359492871E+03  0.15359492871E+03  0.00000000000E+00 0.  1.
         -2   -1    0    0    0  501 -0.00000000000E+00 -0.00000000000E+00 -0.30338665270E+01  0.30338665270E+01  0.00000000000E+00 0. -1.
          1    1    1    2  502    0 -0.63360670431E+01  0.20378232428E+02  0.87074494453E+02  0.89651467844E+02  0.00000000000E+00 0. -1.
         -1    1    1    2    0  501  0.63360670431E+01 -0.20378232428E+02  0.63486567729E+02  0.66977327392E+02  0.00000000000E+00 0.  1.
</event>
<event>
 4    1  0.6935156E+001  0.2063138E+02  0.7546771E-02  0.1524593E+00
          2   -1    0    0  502    0  0.00000000000E+00  0.00000000000E+00  0.43383250882E+01  0.43383250882E+01  0.00000000000E+00 0.  1.
         -2   -1    0    0    0  501 -0.00000000000E+00 -0.00000000000E+00 -0.23917222224E+03  0.23917222224E+03  0.00000000000E+00 0. -1.
          1    1    1    2  502    0  0.20391191773E+02  0.31389542104E+01 -0.21092100266E+03  0.21192763647E+03  0.00000000000E+00 0. -1.
         -1    1    1    2    0  501 -0.20391191773E+02 -0.31389542104E+01 -0.23912894491E+02  0.31582910860E+02  0.00000000000E+00 0.  1.
</event>
<event>
 4    1  0.6935156E+001  0.3142992E+02  0.7546771E-02  0.1407564E+00
          2   -1    0    0  502    0  0.00000000000E+00  0.00000000000E+00  0.19242774888E+03  0.19242774888E+03  0.00000000000E+00 0. -1.
         -2   -1    0    0    0  501 -0.00000000000E+00 -0.00000000000E+00 -0.51392291314E+01  0.51392291314E+01  0.00000000000E+00 0.  1.
          1    1    1    2  502    0  0.15286995386E+02  0.27461744716E+02  0.96924779345E+02  0.10189333885E+03  0.00000000000E+00 0. -1.
         -1    1    1    2    0  501 -0.15286995386E+02 -0.27461744716E+02  0.90363740400E+02  0.95673639159E+02  0.00000000000E+00 0.  1.
</event>
<event>
 4    1  0.6935156E+001  0.4612957E+02  0.7546771E-02  0.1315886E+00
          2   -1    0    0  502    0  0.00000000000E+00  0.00000000000E+00  0.29693256421E+03  0.29693256421E+03  0.00000000000E+00 0. -1.
         -2   -1    0    0    0  501 -0.00000000000E+00 -0.00000000000E+00 -0.11725800741E+02  0.11725800741E+02  0.00000000000E+00 0.  1.
          1    1    1    2  502    0 -0.81601851579E+01  0.45402072524E+02  0.23883788266E+03  0.24325186743E+03  0.00000000000E+00 0. -1.
         -1    1    1    2    0  501  0.81601851579E+01 -0.45402072524E+02  0.46368880809E+02  0.65406497527E+02  0.00000000000E+00 0.  1.
</event>
<event>
 4    1  0.6935156E+001  0.2030613E+02  0.7546771E-02  0.1529406E+00
          2   -1    0    0  502    0  0.00000000000E+00  0.00000000000E+00  0.86863089632E+03  0.86863089632E+03  0.00000000000E+00 0. -1.
         -2   -1    0    0    0  501 -0.00000000000E+00 -0.00000000000E+00 -0.59212318067E+00  0.59212318067E+00  0.00000000000E+00 0.  1.
          1    1    1    2  502    0  0.20198077663E+02  0.20920634127E+01  0.24047875869E+03  0.24133456539E+03  0.00000000000E+00 0.  1.
         -1    1    1    2    0  501 -0.20198077663E+02 -0.20920634127E+01  0.62756001445E+03  0.62788845411E+03  0.00000000000E+00 0. -1.
</event>
<event>
 4    1  0.6935156E+001  0.2100923E+02  0.7546771E-02  0.1519133E+00
          2   -1    0    0  502    0  0.00000000000E+00  0.00000000000E+00  0.10104967761E+03  0.10104967761E+03  0.00000000000E+00 0.  1.
         -2   -1    0    0    0  501 -0.00000000000E+00 -0.00000000000E+00 -0.54190218028E+01  0.54190218028E+01  0.00000000000E+00 0. -1.
          1    1    1    2  502    0  0.20474968514E+02  0.47077985285E+01  0.24371321894E+02  0.32176840018E+02  0.00000000000E+00 0.  1.
         -1    1    1    2    0  501 -0.20474968514E+02 -0.47077985285E+01  0.71259333910E+02  0.74291859392E+02  0.00000000000E+00 0. -1.
</event>
<event>
 4    1  0.6935156E+001  0.2914092E+02  0.7546771E-02  0.1427212E+00
          2   -1    0    0  502    0  0.00000000000E+00  0.00000000000E+00  0.50685198008E+03  0.50685198008E+03  0.00000000000E+00 0.  1.
         -2   -1    0    0    0  501 -0.00000000000E+00 -0.00000000000E+00 -0.21608809981E+01  0.21608809981E+01  0.00000000000E+00 0. -1.
          1    1    1    2  502    0  0.10766691457E+02  0.27078991456E+02  0.37297613537E+03  0.37411280515E+03  0.00000000000E+00 0.  1.
         -1    1    1    2    0  501 -0.10766691457E+02 -0.27078991456E+02  0.13171496371E+03  0.13490005592E+03  0.00000000000E+00 0. -1.
</event>
<event>
 4    1  0.6935156E+001  0.3149790E+02  0.7546771E-02  0.1407011E+00
          2   -1    0    0  502    0  0.00000000000E+00  0.00000000000E+00  0.56439579113E+02  0.56439579113E+02  0.00000000000E+00 0. -1.
         -2   -1    0    0    0  501 -0.00000000000E+00 -0.00000000000E+00 -0.17801388875E+02  0.17801388875E+02  0.00000000000E+00 0.  1.
          1    1    1    2  502    0 -0.31026313015E+02 -0.54300764851E+01  0.23473631323E+02  0.39282683175E+02  0.00000000000E+00 0.  1.
         -1    1    1    2    0  501  0.31026313015E+02  0.54300764851E+01  0.15164558915E+02  0.34958284813E+02  0.00000000000E+00 0. -1.
</event>
<event>
 4    1  0.6935156E+001  0.3477033E+02  0.7546771E-02  0.1382185E+00
          2   -1    0    0  502    0  0.00000000000E+00  0.00000000000E+00  0.90419000753E+03  0.90419000753E+03  0.00000000000E+00 0. -1.
         -2   -1    0    0    0  501 -0.00000000000E+00 -0.00000000000E+00 -0.13499586191E+01  0.13499586191E+01  0.00000000000E+00 0.  1.
          1    1    1    2  502    0  0.39451932885E+01 -0.34545788388E+02  0.40719980416E+03  0.40868160780E+03  0.00000000000E+00 0.  1.
         -1    1    1    2    0  501 -0.39451932885E+01  0.34545788388E+02  0.49564024476E+03  0.49685835836E+03  0.00000000000E+00 0. -1.
</event>
<event>
 4    1  0.6935156E+001  0.3433096E+02  0.7546771E-02  0.1385329E+00
          2   -1    0    0  502    0  0.00000000000E+00  0.00000000000E+00  0.89699795049E+03  0.89699795049E+03  0.00000000000E+00 0. -1.
         -2   -1    0    0    0  501 -0.00000000000E+00 -0.00000000000E+00 -0.50663110821E+01  0.50663110821E+01  0.00000000000E+00 0.  1.
          1    1    1    2  502    0  0.28148762035E+02 -0.19653543503E+02  0.57803297893E+02  0.67229724256E+02  0.00000000000E+00 0.  1.
         -1    1    1    2    0  501 -0.28148762035E+02  0.19653543503E+02  0.83412834152E+03  0.83483453732E+03  0.00000000000E+00 0. -1.
</event>
<event>
 4    1  0.6935156E+001  0.2749865E+02  0.7546771E-02  0.1442662E+00
          2   -1    0    0  502    0  0.00000000000E+00  0.00000000000E+00  0.18837113564E+04  0.18837113564E+04  0.00000000000E+00 0.  1.
         -2   -1    0    0    0  501 -0.00000000000E+00 -0.00000000000E+00 -0.25504895720E+01  0.25504895720E+01  0.00000000000E+00 0. -1.
          1    1    1    2  502    0  0.18382456498E+02  0.20451435666E+02  0.74846261469E+02  0.79737938169E+02  0.00000000000E+00 0. -1.
         -1    1    1    2    0  501 -0.18382456498E+02 -0.20451435666E+02  0.18063146053E+04  0.18065239078E+04  0.00000000000E+00 0.  1.
</event>
<event>
 4    1  0.6935156E+001  0.2647807E+02  0.7546771E-02  0.1452923E+00
          2   -1    0    0  502    0  0.00000000000E+00  0.00000000000E+00  0.18816799857E+03  0.18816799857E+03  0.00000000000E+00 0.  1.
         -2   -1    0    0    0  501 -0.00000000000E+00 -0.00000000000E+00 -0.55168145511E+01  0.55168145511E+01  0.00000000000E+00 0. -1.
          1    1    1    2  502    0 -0.90404380878E+00 -0.26462633197E+02  0.36147934907E+02  0.44808051163E+02  0.00000000000E+00 0. -1.
         -1    1    1    2    0  501  0.90404380878E+00  0.26462633197E+02  0.14650324911E+03  0.14887676196E+03  0.00000000000E+00 0.  1.
</event>
<event>
 4    1  0.6935156E+001  0.2395814E+02  0.7546771E-02  0.1480805E+00
          2   -1    0    0  502    0  0.00000000000E+00  0.00000000000E+00  0.92168150653E+03  0.92168150653E+03  0.00000000000E+00 0.  1.
         -2   -1    0    0    0  501 -0.00000000000E+00 -0.00000000000E+00 -0.12287223341E+01  0.12287223341E+01  0.00000000000E+00 0. -1.
          1    1    1    2  502    0  0.22602811483E+02  0.79439044958E+01  0.78428453669E+03  0.78465038533E+03  0.00000000000E+00 0.  1.
         -1    1    1    2    0  501 -0.22602811483E+02 -0.79439044958E+01  0.13616824751E+03  0.13825984354E+03  0.00000000000E+00 0. -1.
</event>
<event>
 4    1  0.6935156E+001  0.2120984E+02  0.7546771E-02  0.1516290E+00
          2   -1    0    0  502    0  0.00000000000E+00  0.00000000000E+00  0.54250427923E+01  0.54250427923E+01  0.00000000000E+00 0.  1.
         -2   -1    0    0    0  501 -0.00000000000E+00 -0.00000000000E+00 -0.84234819504E+02  0.84234819504E+02  0.00000000000E+00 0. -1.
          1    1    1    2  502    0  0.13796004463E+02 -0.16109855464E+02 -0.45000793752E+02  0.49748654460E+02  0.00000000000E+00 0. -1.
         -1    1    1    2    0  501 -0.13796004463E+02  0.16109855464E+02 -0.33808982960E+02  0.39911207837E+02  0.00000000000E+00 0.  1.
</event>
<event>
 4    1  0.6935156E+001  0.5157846E+02  0.7546771E-02  0.1291470E+00
          2   -1    0    0  502    0  0.00000000000E+00  0.00000000000E+00  0.79444845017E+02  0.79444845017E+02  0.00000000000E+00 0. -1.
         -2   -1    0    0    0  501 -0.00000000000E+00 -0.00000000000E+00 -0.43171393191E+02  0.43171393191E+02  0.00000000000E+00 0.  1.
          1    1    1    2  502    0  0.44386580850E+02 -0.26271068858E+02  0.47174623710E+02  0.69898374377E+02  0.00000000000E+00 0. -1.
         -1    1    1    2    0  501 -0.44386580850E+02  0.26271068858E+02 -0.10901171883E+02  0.52717863831E+02  0.00000000000E+00 0.  1.
</event>
<event>
 4    1  0.6935156E+001  0.2702070E+02  0.7546771E-02  0.1447400E+00
          2   -1    0    0  502    0  0.00000000000E+00  0.00000000000E+00  0.24409142271E+02  0.24409142271E+02  0.00000000000E+00 0. -1.
         -2   -1    0    0    0  501 -0.00000000000E+00 -0.00000000000E+00 -0.31376123637E+02  0.31376123637E+02  0.00000000000E+00 0.  1.
          1    1    1    2  502    0  0.15391513590E+02  0.22208542023E+02  0.25425043615E+01  0.27140050807E+02  0.00000000000E+00 0. -1.
         -1    1    1    2    0  501 -0.15391513590E+02 -0.22208542023E+02 -0.95094857269E+01  0.28645215101E+02  0.00000000000E+00 0.  1.
</event>
<event>
 4    1  0.6935156E+001  0.2652189E+02  0.7546771E-02  0.1452471E+00
          2   -1    0    0  502    0  0.00000000000E+00  0.00000000000E+00  0.89789340549E+03  0.89789340549E+03  0.00000000000E+00 0. -1.
         -2   -1    0    0    0  501 -0.00000000000E+00 -0.00000000000E+00 -0.78345521024E+00  0.78345521024E+00  0.00000000000E+00 0.  1.
          1    1    1    2  502    0 -0.23247341053E+02  0.12766041876E+02  0.44482107284E+03  0.44561103839E+03  0.00000000000E+00 0.  1.
         -1    1    1    2    0  501  0.23247341053E+02 -0.12766041876E+02  0.45228887743E+03  0.45306582231E+03  0.00000000000E+00 0. -1.
</event>
<event>
 4    1  0.6935156E+001  0.2017266E+02  0.7546771E-02  0.1531413E+00
          2   -1    0    0  502    0  0.00000000000E+00  0.00000000000E+00  0.25582935771E+01  0.25582935771E+01  0.00000000000E+00 0.  1.
         -2   -1    0    0    0  501 -0.00000000000E+00 -0.00000000000E+00 -0.16758372004E+03  0.16758372004E+03  0.00000000000E+00 0. -1.
          1    1    1    2  502    0 -0.71983045916E+01  0.18844641348E+02 -0.10169240333E+03  0.10367391664E+03  0.00000000000E+00 0.  1.
         -1    1    1    2    0  501  0.71983045916E+01 -0.18844641348E+02 -0.63333023132E+02  0.66468096976E+02  0.00000000000E+00 0. -1.
</event>
<event>
 4    1  0.6935156E+001  0.2614379E+02  0.7546771E-02  0.1456404E+00
          2   -1    0    0  502    0  0.00000000000E+00  0.00000000000E+00  0.42564273541E+01  0.42564273541E+01  0.00000000000E+00 0.  1.
         -2   -1    0    0    0  501 -0.00000000000E+00 -0.00000000000E+00 -0.16389908073E+03  0.16389908073E+03  0.00000000000E+00 0. -1.
          1    1    1    2  502    0  0.81096335351E+01 -0.24854208424E+02 -0.91785716720E+02  0.95436448102E+02  0.00000000000E+00 0. -1.
         -1    1    1    2    0  501 -0.81096335351E+01  0.24854208424E+02 -0.67856936657E+02  0.72719059984E+02  0.00000000000E+00 0.  1.
</event>
<event>
 4    1  0.6935156E+001  0.2189443E+02  0.7546771E-02  0.1506868E+00
          2   -1    0    0  502    0  0.00000000000E+00  0.00000000000E+00  0.13617619992E+04  0.13617619992E+04  0.00000000000E+00 0.  1.
         -2   -1    0    0    0  501 -0.00000000000E+00 -0.00000000000E+00 -0.38031147804E+00  0.38031147804E+00  0.00000000000E+00 0. -1.
          1    1    1    2  502    0 -0.20784575412E+02 -0.68823907494E+01  0.86645396662E+03  0.86673054761E+03  0.00000000000E+00 0.  1.
         -1    1    1    2    0  501  0.20784575412E+02  0.68823907494E+01  0.49492772113E+03  0.49541176310E+03  0.00000000000E+00 0. -1.
</event>
<event>
 4    1  0.6935156E+001  0.2826072E+02  0.7546771E-02  0.1435339E+00
          2   -1    0    0  502    0  0.00000000000E+00  0.00000000000E+00  0.15482409398E+02  0.15482409398E+02  0.00000000000E+00 0.  1.
         -2   -1    0    0    0  501 -0.00000000000E+00 -0.00000000000E+00 -0.24642302318E+03  0.24642302318E+03  0.00000000000E+00 0. -1.
          1    1    1    2  502    0 -0.15195783117E+02 -0.23827643619E+02  0.97181953442E+00  0.28277426654E+02  0.00000000000E+00 0.  1.
         -1    1    1    2    0  501  0.15195783117E+02  0.23827643619E+02 -0.23191243331E+03  0.23362800592E+03  0.00000000000E+00 0. -1.
</event>
<event>
 4    1  0.6935156E+001  0.2173894E+02  0.7546771E-02  0.1508971E+00
          2   -1    0    0  502    0  0.00000000000E+00  0.00000000000E+00  0.51428655268E+01  0.51428655268E+01  0.00000000000E+00 0. -1.
         -2   -1    0    0    0  501 -0.00000000000E+00 -0.00000000000E+00 -0.97191990552E+02  0.97191990552E+02  0.00000000000E+00 0.  1.
          1    1    1    2  502    0 -0.10491073999E+02  0.19039929021E+02 -0.57974593001E+02  0.61916354580E+02  0.00000000000E+00 0. -1.
         -1    1    1    2    0  501  0.10491073999E+02 -0.19039929021E+02 -0.34074532024E+02  0.40418501499E+02  0.00000000000E+00 0.  1.
</event>
<event>
 4    1  0.6935156E+001  0.2641862E+02  0.7546771E-02  0.1453537E+00
          2   -1    0    0  502    0  0.00000000000E+00  0.00000000000E+00  0.35866507364E+03  0.35866507364E+03  0.00000000000E+00 0. -1.
         -2   -1    0    0    0  501 -0.00000000000E+00 -0.00000000000E+00 -0.24316907929E+01  0.24316907929E+01  0.00000000000E+00 0.  1.
          1    1    1    2  502    0 -0.17518253930E+02  0.19775096406E+02  0.25881092746E+03  0.26015579915E+03  0.00000000000E+00 0. -1.
         -1    1    1    2    0  501  0.17518253930E+02 -0.19775096406E+02  0.97422455389E+02  0.10094096529E+03  0.00000000000E+00 0.  1.
</event>
<event>
 4    1  0.6935156E+001  0.2122191E+02  0.7546771E-02  0.1516120E+00
          2   -1    0    0  502    0  0.00000000000E+00  0.00000000000E+00  0.41862372399E+02  0.41862372399E+02  0.00000000000E+00 0.  1.
         -2   -1    0    0    0  501 -0.00000000000E+00 -0.00000000000E+00 -0.12813893280E+02  0.12813893280E+02  0.00000000000E+00 0. -1.
          1    1    1    2  502    0 -0.60170935544E+00  0.21213377011E+02  0.25473712511E+02  0.33155383386E+02  0.00000000000E+00 0.  1.
         -1    1    1    2    0  501  0.60170935544E+00 -0.21213377011E+02  0.35747666084E+01  0.21520882293E+02  0.00000000000E+00 0. -1.
</event>
<event>
 4    1  0.6935156E+001  0.2324116E+02  0.7546771E-02  0.1489492E+00
          2   -1    0    0  502    0  0.00000000000E+00  0.00000000000E+00  0.60498861288E+01  0.60498861288E+01  0.00000000000E+00 0.  1.
         -2   -1    0    0    0  501 -0.00000000000E+00 -0.00000000000E+00 -0.90152410735E+02  0.90152410735E+02  0.00000000000E+00 0. -1.
          1    1    1    2  502    0 -0.19639132543E+02 -0.12428033622E+02 -0.46775125277E+02  0.52230871058E+02  0.00000000000E+00 0. -1.
         -1    1    1    2    0  501  0.19639132543E+02  0.12428033622E+02 -0.37327399330E+02  0.43971425806E+02  0.00000000000E+00 0.  1.
</event>
<event>
 4    1  0.6935156E+001  0.4985170E+02  0.7546771E-02  0.1298817E+00
          2   -1    0    0  502    0  0.00000000000E+00  0.00000000000E+00  0.20989617628E+04  0.20989617628E+04  0.00000000000E+00 0.  1.
         -2   -1    0    0    0  501 -0.00000000000E+00 -0.00000000000E+00 -0.11861240954E+01  0.11861240954E+01  0.00000000000E+00 0. -1.
          1    1    1    2  502    0  0.48657829708E+02  0.10844694766E+02  0.10932193999E+04  0.10943554487E+04  0.00000000000E+00 0.  1.
         -1    1    1    2    0  501 -0.48657829708E+02 -0.10844694766E+02  0.10045562389E+04  0.10057924382E+04  0.00000000000E+00 0. -1.
</event>
<event>
 4    1  0.6935156E+001  0.5927933E+02  0.7546771E-02  0.1262301E+00
          2   -1    0    0  502    0  0.00000000000E+00  0.00000000000E+00  0.22952418178E+04  0.22952418178E+04  0.00000000000E+00 0. -1.
         -2   -1    0    0    0  501 -0.00000000000E+00 -0.00000000000E+00 -0.18500475377E+01  0.18500475377E+01  0.00000000000E+00 0.  1.
          1    1    1    2  502    0  0.23352736585E+02  0.54485668964E+02  0.66974051649E+03  0.67235883117E+03  0.00000000000E+00 0.  1.
         -1    1    1    2    0  501 -0.23352736585E+02 -0.54485668964E+02  0.16236512537E+04  0.16247330341E+04  0.00000000000E+00 0. -1.
</event>
<event>
 4    1  0.6935156E+001  0.2735135E+02  0.7546771E-02  0.1444110E+00
          2   -1    0    0  502    0  0.00000000000E+00  0.00000000000E+00  0.11574485143E+03  0.11574485143E+03  0.00000000000E+00 0.  1.
         -2   -1    0    0    0  501 -0.00000000000E+00 -0.00000000000E+00 -0.84473378250E+01  0.84473378250E+01  0.00000000000E+00 0. -1.
          1    1    1    2  502    0  0.24961730186E+02 -0.11180724248E+02  0.23554985556E+02  0.36096175880E+02  0.00000000000E+00 0. -1.
         -1    1    1    2    0  501 -0.24961730186E+02  0.11180724248E+02  0.83742528045E+02  0.88096013371E+02  0.00000000000E+00 0.  1.
</event>
<event>
 4    1  0.6935156E+001  0.4053013E+02  0.7546771E-02  0.1345407E+00
          2   -1    0    0  502    0  0.00000000000E+00  0.00000000000E+00  0.21289049276E+03  0.21289049276E+03  0.00000000000E+00 0.  1.
         -2   -1    0    0    0  501 -0.00000000000E+00 -0.00000000000E+00 -0.81531117719E+01  0.81531117719E+01  0.00000000000E+00 0. -1.
          1    1    1    2  502    0  0.97972830595E+01  0.39328162350E+02  0.76781829635E+02  0.86822465245E+02  0.00000000000E+00 0. -1.
         -1    1    1    2    0  501 -0.97972830595E+01 -0.39328162350E+02  0.12795555135E+03  0.13422113928E+03  0.00000000000E+00 0.  1.
</event>
<event>
 4    1  0.6935156E+001  0.2679054E+02  0.7546771E-02  0.1449724E+00
          2   -1    0    0  502    0  0.00000000000E+00  0.00000000000E+00  0.10215420984E+02  0.10215420984E+02  0.00000000000E+00 0.  1.
         -2   -1    0    0    0  501 -0.00000000000E+00 -0.00000000000E+00 -0.88974827544E+02  0.88974827544E+02  0.00000000000E+00 0. -1.
          1    1    1    2  502    0  0.25937179789E+02 -0.67079018366E+01 -0.62125484606E+02  0.67655813349E+02  0.00000000000E+00 0. -1.
         -1    1    1    2    0  501 -0.25937179789E+02  0.67079018366E+01 -0.16633921954E+02  0.31534435179E+02  0.00000000000E+00 0.  1.
</event>
<event>
 4    1  0.6935156E+001  0.3034185E+02  0.7546771E-02  0.1416649E+00
          2   -1    0    0  502    0  0.00000000000E+00  0.00000000000E+00  0.12874609307E+01  0.12874609307E+01  0.00000000000E+00 0.  1.
         -2   -1    0    0    0  501 -0.00000000000E+00 -0.00000000000E+00 -0.88111953645E+03  0.88111953645E+03  0.00000000000E+00 0. -1.
          1    1    1    2  502    0  0.29937588366E+02  0.49364444574E+01 -0.63144626574E+03  0.63217482882E+03  0.00000000000E+00 0. -1.
         -1    1    1    2    0  501 -0.29937588366E+02 -0.49364444574E+01 -0.24838580978E+03  0.25023216855E+03  0.00000000000E+00 0.  1.
</event>
<event>
 4    1  0.6935156E+001  0.5014896E+02  0.7546771E-02  0.1297528E+00
          2   -1    0    0  502    0  0.00000000000E+00  0.00000000000E+00  0.11944258110E+03  0.11944258110E+03  0.00000000000E+00 0. -1.
         -2   -1    0    0    0  501 -0.00000000000E+00 -0.00000000000E+00 -0.36325070646E+02  0.36325070646E+02  0.00000000000E+00 0.  1.
          1    1    1    2  502    0 -0.24356049956E+02 -0.43837215237E+02  0.92054875386E+02  0.10482852041E+03  0.00000000000E+00 0. -1.
         -1    1    1    2    0  501  0.24356049956E+02  0.43837215237E+02 -0.89373649328E+01  0.50939131335E+02  0.00000000000E+00 0.  1.
</event>
<event>
 4    1  0.6935156E+001  0.2462925E+02  0.7546771E-02  0.1472994E+00
          2   -1    0    0  502    0  0.00000000000E+00  0.00000000000E+00  0.48923668641E+03  0.48923668641E+03  0.00000000000E+00 0. -1.
         -2   -1    0    0    0  501 -0.00000000000E+00 -0.00000000000E+00 -0.21184614861E+01  0.21184614861E+01  0.00000000000E+00 0.  1.
          1    1    1    2  502    0 -0.10383041379E+02  0.22333665326E+02  0.40177261241E+03  0.40252680934E+03  0.00000000000E+00 0. -1.
         -1    1    1    2    0  501  0.10383041379E+02 -0.22333665326E+02  0.85345612516E+02  0.88828338558E+02  0.00000000000E+00 0.  1.
</event>
<event>
 4    1  0.6935156E+001  0.3170236E+02  0.7546771E-02  0.1405358E+00
          2   -1    0    0  502    0  0.00000000000E+00  0.00000000000E+00  0.21520012523E+02  0.21520012523E+02  0.00000000000E+00 0.  1.
         -2   -1    0    0    0  501 -0.00000000000E+00 -0.00000000000E+00 -0.98203466973E+02  0.98203466973E+02  0.00000000000E+00 0. -1.
          1    1    1    2  502    0 -0.29094124107E+02  0.12592528436E+02 -0.81692149556E+02  0.87627890132E+02  0.00000000000E+00 0. -1.
         -1    1    1    2    0  501  0.29094124107E+02 -0.12592528436E+02  0.50086951059E+01  0.32095589364E+02  0.00000000000E+00 0.  1.
</event>
<event>
 4    1  0.6935156E+001  0.2569675E+02  0.7546771E-02  0.1461158E+00
          2   -1    0    0  502    0  0.00000000000E+00  0.00000000000E+00  0.34929086024E+01  0.34929086024E+01  0.00000000000E+00 0.  1.
         -2   -1    0    0    0  501 -0.00000000000E+00 -0.00000000000E+00 -0.20940500358E+03  0.20940500358E+03  0.00000000000E+00 0. -1.
          1    1    1    2  502    0 -0.25674351482E+02 -0.10725874363E+01 -0.69765156775E+02  0.74347157764E+02  0.00000000000E+00 0.  1.
         -1    1    1    2    0  501  0.25674351482E+02  0.10725874363E+01 -0.13614693820E+03  0.13855075442E+03  0.00000000000E+00 0. -1.
</event>
<event>
 4    1  0.6935156E+001  0.3836944E+02  0.7546771E-02  0.1358315E+00
          2   -1    0    0  502    0  0.00000000000E+00  0.00000000000E+00  0.17946414769E+04  0.17946414769E+04  0.00000000000E+00 0.  1.
         -2   -1    0    0    0  501 -0.00000000000E+00 -0.00000000000E+00 -0.96802542831E+00  0.96802542831E+00  0.00000000000E+00 0. -1.
          1    1    1    2  502    0  0.18186178993E+02 -0.33785752982E+02  0.12475150807E+04  0.12481049999E+04  0.00000000000E+00 0.  1.
         -1    1    1    2    0  501 -0.18186178993E+02  0.33785752982E+02  0.54615837070E+03  0.54750450236E+03  0.00000000000E+00 0. -1.
</event>
<event>
 4    1  0.6935156E+001  0.5546487E+02  0.7546771E-02  0.1276072E+00
          2   -1    0    0  502    0  0.00000000000E+00  0.00000000000E+00  0.11897018608E+02  0.11897018608E+02  0.00000000000E+00 0.  1.
         -2   -1    0    0    0  501 -0.00000000000E+00 -0.00000000000E+00 -0.27027481794E+03  0.27027481794E+03  0.00000000000E+00 0. -1.
          1    1    1    2  502    0  0.52352527578E+02  0.18318412149E+02 -0.15853469820E+03  0.16795714305E+03  0.00000000000E+00 0. -1.
         -1    1    1    2    0  501 -0.52352527578E+02 -0.18318412149E+02 -0.99843101129E+02  0.11421469350E+03  0.00000000000E+00 0.  1.
</event>
<event>
 4    1  0.6935156E+001  0.2334092E+02  0.7546771E-02  0.1488261E+00
          2   -1    0    0  502    0  0.00000000000E+00  0.00000000000E+00  0.19144288720E+04  0.19144288720E+04  0.00000000000E+00 0.  1.
         -2   -1    0    0    0  501 -0.00000000000E+00 -0.00000000000E+00 -0.35235761418E+00  0.35235761418E+00  0.00000000000E+00 0. -1.
          1    1    1    2  502    0  0.78443167497E+01  0.21983294836E+02  0.13769485867E+04  0.13771464007E+04  0.00000000000E+00 0. -1.
         -1    1    1    2    0  501 -0.78443167497E+01 -0.21983294836E+02  0.53712792768E+03  0.53763482891E+03  0.00000000000E+00 0.  1.
</event>
<event>
 4    1  0.6935156E+001  0.2111988E+02  0.7546771E-02  0.1517560E+00
          2   -1    0    0  502    0  0.00000000000E+00  0.00000000000E+00  0.10775407252E+03  0.10775407252E+03  0.00000000000E+00 0. -1.
         -2   -1    0    0    0  501 -0.00000000000E+00 -0.00000000000E+00 -0.45076977744E+01  0.45076977744E+01  0.00000000000E+00 0.  1.
          1    1    1    2  502    0  0.14995432566E+02  0.14872337245E+02  0.67665140739E+02  0.70884558857E+02  0.00000000000E+00 0.  1.
         -1    1    1    2    0  501 -0.14995432566E+02 -0.14872337245E+02  0.35581234008E+02  0.41377211439E+02  0.00000000000E+00 0. -1.
</event>
<event>
 4    1  0.6935156E+001  0.2456739E+02  0.7546771E-02  0.1473702E+00
          2   -1    0    0  502    0  0.00000000000E+00  0.00000000000E+00  0.48303441150E+03  0.48303441150E+03  0.00000000000E+00 0.  1.
         -2   -1    0    0    0  501 -0.00000000000E+00 -0.00000000000E+00 -0.15162826151E+01  0.15162826151E+01  0.00000000000E+00 0. -1.
          1    1    1    2  502    0 -0.13839647373E+02 -0.20298297120E+02  0.34238139087E+03  0.34326166916E+03  0.00000000000E+00 0.  1.
         -1    1    1    2    0  501  0.13839647373E+02  0.20298297120E+02  0.13913673802E+03  0.14128902496E+03  0.00000000000E+00 0. -1.
</event>
<event>
 4    1  0.6935156E+001  0.2618129E+02  0.7546771E-02  0.1456010E+00
          2   -1    0    0  502    0  0.00000000000E+00  0.00000000000E+00  0.18140947292E+04  0.18140947292E+04  0.00000000000E+00 0.  1.
         -2   -1    0    0    0  501 -0.00000000000E+00 -0.00000000000E+00 -0.43305706939E+00  0.43305706939E+00  0.00000000000E+00 0. -1.
          1    1    1    2  502    0 -0.13856491548E+02 -0.22213907489E+02  0.58290247409E+03  0.58349014931E+03  0.00000000000E+00 0. -1.
         -1    1    1    2    0  501  0.13856491548E+02  0.22213907489E+02  0.12307591981E+04  0.12310376370E+04  0.00000000000E+00 0.  1.
</event>
<event>
 4    1  0.6935156E+001  0.2717911E+02  0.7546771E-02  0.1445817E+00
          2   -1    0    0  502    0  0.00000000000E+00  0.00000000000E+00  0.62422641099E+01  0.62422641099E+01  0.00000000000E+00 0. -1.
         -2   -1    0    0    0  501 -0.00000000000E+00 -0.00000000000E+00 -0.13285849503E+03  0.13285849503E+03  0.00000000000E+00 0.  1.
          1    1    1    2  502    0  0.17498315817E+02  0.20796951947E+02 -0.40316035441E+02  0.48621877590E+02  0.00000000000E+00 0. -1.
         -1    1    1    2    0  501 -0.17498315817E+02 -0.20796951947E+02 -0.86300195483E+02  0.90478881553E+02  0.00000000000E+00 0.  1.
</event>
<event>
 4    1  0.6935156E+001  0.3336959E+02  0.7546771E-02  0.1392402E+00
          2   -1    0    0  502    0  0.00000000000E+00  0.00000000000E+00  0.70066471633E+02  0.70066471633E+02  0.00000000000E+00 0. -1.
         -2   -1    0    0    0  501 -0.00000000000E+00 -0.00000000000E+00 -0.18044780581E+02  0.18044780581E+02  0.00000000000E+00 0.  1.
          1    1    1    2  502    0  0.13433549874E+02 -0.30546182222E+02  0.10795642915E+02  0.35072431003E+02  0.00000000000E+00 0.  1.
         -1    1    1    2    0  501 -0.13433549874E+02  0.30546182222E+02  0.41226048137E+02  0.53038821211E+02  0.00000000000E+00 0. -1.
</event>
<event>
 4    1  0.6935156E+001  0.2299534E+02  0.7546771E-02  0.1492557E+00
          2   -1    0    0  502    0  0.00000000000E+00  0.00000000000E+00  0.10858830732E+03  0.10858830732E+03  0.00000000000E+00 0. -1.
         -2   -1    0    0    0  501 -0.00000000000E+00 -0.00000000000E+00 -0.21492289921E+02  0.21492289921E+02  0.00000000000E+00 0.  1.
          1    1    1    2  502    0 -0.65510643608E+01 -0.22042443312E+02  0.10074739067E+03  0.10333838821E+03  0.00000000000E+00 0. -1.
         -1    1    1    2    0  501  0.65510643608E+01  0.22042443312E+02 -0.13651373273E+02  0.26742209027E+02  0.00000000000E+00 0.  1.
</event>
<event>
 4    1  0.6935156E+001  0.4274453E+02  0.7546771E-02  0.1333112E+00
          2   -1    0    0  502    0  0.00000000000E+00  0.00000000000E+00  0.37740923098E+01  0.37740923098E+01  0.00000000000E+00 0.  1.
         -2   -1    0    0    0  501 -0.00000000000E+00 -0.00000000000E+00 -0.52785517857E+03  0.52785517857E+03  0.00000000000E+00 0. -1.
          1    1    1    2  502    0 -0.38872396676E+02  0.17777281546E+02 -0.33855815805E+03  0.34124583711E+03  0.00000000000E+00 0. -1.
         -1    1    1    2    0  501  0.38872396676E+02 -0.17777281546E+02 -0.18552292822E+03  0.19038343378E+03  0.00000000000E+00 0.  1.
</event>
<event>
 4    1  0.6935156E+001  0.3226749E+02  0.7546771E-02  0.1400863E+00
          2   -1    0    0  502    0  0.00000000000E+00  0.00000000000E+00  0.91303198061E+01  0.91303198061E+01  0.00000000000E+00 0. -1.
         -2   -1    0    0    0  501 -0.00000000000E+00 -0.00000000000E+00 -0.16026967484E+03  0.16026967484E+03  0.00000000000E+00 0.  1.
          1    1    1    2  502    0 -0.31593484581E+02  0.65606808717E+01 -0.12106157149E+03  0.12528804769E+03  0.00000000000E+00 0.  1.
         -1    1    1    2    0  501  0.31593484581E+02 -0.65606808717E+01 -0.30077783539E+02  0.44111946954E+02  0.00000000000E+00 0. -1.
</event>
<event>
 4    1  0.6935156E+001  0.2441959E+02  0.7546771E-02  0.1475402E+00
          2   -1    0    0  502    0  0.00000000000E+00  0.00000000000E+00  0.75328992386E+01  0.75328992386E+01  0.00000000000E+00 0.  1.
         -2   -1    0    0    0  501 -0.00000000000E+00 -0.00000000000E+00 -0.79447160178E+02  0.79447160178E+02  0.00000000000E+00 0. -1.
          1    1    1    2  502    0 -0.16708349948E+02  0.17808626385E+02 -0.33349644291E+02  0.41334185683E+02  0.00000000000E+00 0.  1.
         -1    1    1    2    0  501  0.16708349948E+02 -0.17808626385E+02 -0.38564616649E+02  0.45645873734E+02  0.00000000000E+00 0. -1.
</event>
<event>
 4    1  0.6935156E+001  0.3398767E+02  0.7546771E-02  0.1387823E+00
          2   -1    0    0  502    0  0.00000000000E+00  0.00000000000E+00  0.23300026178E+02  0.23300026178E+02  0.00000000000E+00 0. -1.
         -2   -1    0    0    0  501 -0.00000000000E+00 -0.00000000000E+00 -0.50928739574E+02  0.50928739574E+02  0.00000000000E+00 0.  1.
          1    1    1    2  502    0 -0.33987177845E+02  0.18219494770E+00 -0.19859360435E+02  0.39364395712E+02  0.00000000000E+00 0.  1.
         -1    1    1    2    0  501  0.33987177845E+02 -0.18219494770E+00 -0.77693529609E+01  0.34864370040E+02  0.00000000000E+00 0. -1.
</event>
<event>
 4    1  0.6935156E+001  0.2995926E+02  0.7546771E-02  0.1419951E+00
          2   -1    0    0  502    0  0.00000000000E+00  0.00000000000E+00  0.15843553464E+04  0.15843553464E+04  0.00000000000E+00 0. -1.
         -2   -1    0    0    0  501 -0.00000000000E+00 -0.00000000000E+00 -0.65503244462E+00  0.65503244462E+00  0.00000000000E+00 0.  1.
          1    1    1    2  502    0  0.29852478839E+02 -0.25271747341E+01  0.10831842300E+04  0.10835984650E+04  0.00000000000E+00 0. -1.
         -1    1    1    2    0  501 -0.29852478839E+02  0.25271747341E+01  0.50051608392E+03  0.50141191386E+03  0.00000000000E+00 0.  1.
</event>
<event>
 4    1  0.6935156E+001  0.2945537E+02  0.7546771E-02  0.1424389E+00
          2   -1    0    0  502    0  0.00000000000E+00  0.00000000000E+00  0.10965663872E+04  0.10965663872E+04  0.00000000000E+00 0. -1.
         -2   -1    0    0    0  501 -0.00000000000E+00 -0.00000000000E+00 -0.26119099146E+01  0.26119099146E+01  0.00000000000E+00 0.  1.
          1    1    1    2  502    0  0.82212655223E+01  0.28284789624E+02  0.10058346778E+04  0.10062658782E+04  0.00000000000E+00 0. -1.
         -1    1    1    2    0  501 -0.82212655223E+01 -0.28284789624E+02  0.88119799545E+02  0.92912418991E+02  0.00000000000E+00 0.  1.
</event>
<event>
 4    1  0.6935156E+001  0.2060923E+02  0.7546771E-02  0.1524918E+00
          2   -1    0    0  502    0  0.00000000000E+00  0.00000000000E+00  0.36794914649E+02  0.36794914649E+02  0.00000000000E+00 0. -1.
         -2   -1    0    0    0  501 -0.00000000000E+00 -0.00000000000E+00 -0.12021562596E+02  0.12021562596E+02  0.00000000000E+00 0.  1.
          1    1    1    2  502    0 -0.77962967974E+01 -0.19077683052E+02  0.17254348600E+02  0.26878481728E+02  0.00000000000E+00 0.  1.
         -1    1    1    2    0  501  0.77962967974E+01  0.19077683052E+02  0.75190034519E+01  0.21937995517E+02  0.00000000000E+00 0. -1.
</event>
<event>
 4    1  0.6935156E+001  0.4059709E+02  0.7546771E-02  0.1345022E+00
          2   -1    0    0  502    0  0.00000000000E+00  0.00000000000E+00  0.66440035329E+02  0.66440035329E+02  0.00000000000E+00 0. -1.
         -2   -1    0    0    0  501 -0.00000000000E+00 -0.00000000000E+00 -0.25057920515E+02  0.25057920515E+02  0.00000000000E+00 0.  1.
          1    1    1    2  502    0  0.17355116013E+02  0.36700463012E+02  0.25276467156E+02  0.47822837944E+02  0.00000000000E+00 0. -1.
         -1    1    1    2    0  501 -0.17355116013E+02 -0.36700463012E+02  0.16105647658E+02  0.43675117900E+02  0.00000000000E+00 0.  1.
</event>
<event>
 4    1  0.6935156E+001  0.9714319E+02  0.7546771E-02  0.1168852E+00
          2   -1    0    0  502    0  0.00000000000E+00  0.00000000000E+00  0.15283553407E+03  0.15283553407E+03  0.00000000000E+00 0.  1.
         -2   -1    0    0    0  501 -0.00000000000E+00 -0.00000000000E+00 -0.12627938136E+03  0.12627938136E+03  0.00000000000E+00 0. -1.
          1    1    1    2  502    0  0.35870254252E+02 -0.90278035651E+02 -0.86488045128E+02  0.13006529441E+03  0.00000000000E+00 0.  1.
         -1    1    1    2    0  501 -0.35870254252E+02  0.90278035651E+02  0.11304419784E+03  0.14904962102E+03  0.00000000000E+00 0. -1.
</event>
<event>
 4    1  0.6935156E+001  0.2120546E+02  0.7546771E-02  0.1516352E+00
          2   -1    0    0  502    0  0.00000000000E+00  0.00000000000E+00  0.67994595400E+02  0.67994595400E+02  0.00000000000E+00 0. -1.
         -2   -1    0    0    0  501 -0.00000000000E+00 -0.00000000000E+00 -0.12105124350E+02  0.12105124350E+02  0.00000000000E+00 0.  1.
          1    1    1    2  502    0 -0.99324536764E+01  0.18735470061E+02  0.54920456114E+02  0.58872132407E+02  0.00000000000E+00 0. -1.
         -1    1    1    2    0  501  0.99324536764E+01 -0.18735470061E+02  0.96901493626E+00  0.21227587343E+02  0.00000000000E+00 0.  1.
</event>
<event>
 4    1  0.6935156E+001  0.2334621E+02  0.7546771E-02  0.1488196E+00
          2   -1    0    0  502    0  0.00000000000E+00  0.00000000000E+00  0.37673653276E+02  0.37673653276E+02  0.00000000000E+00 0. -1.
         -2   -1    0    0    0  501 -0.00000000000E+00 -0.00000000000E+00 -0.14715973788E+02  0.14715973788E+02  0.00000000000E+00 0.  1.
          1    1    1    2  502    0 -0.23061937367E+02 -0.36321553855E+01  0.80754134907E+01  0.24703396748E+02  0.00000000000E+00 0.  1.
         -1    1    1    2    0  501  0.23061937367E+02  0.36321553855E+01  0.14882265998E+02  0.27686230316E+02  0.00000000000E+00 0. -1.
</event>
<event>
 4    1  0.6935156E+001  0.5948934E+02  0.7546771E-02  0.1261578E+00
          2   -1    0    0  502    0  0.00000000000E+00  0.00000000000E+00  0.10338920254E+04  0.10338920254E+04  0.00000000000E+00 0. -1.
         -2   -1    0    0    0  501 -0.00000000000E+00 -0.00000000000E+00 -0.46798784653E+01  0.46798784653E+01  0.00000000000E+00 0.  1.
          1    1    1    2  502    0 -0.20705553993E+01  0.59453298000E+02  0.78372301340E+03  0.78597757193E+03  0.00000000000E+00 0. -1.
         -1    1    1    2    0  501  0.20705553993E+01 -0.59453298000E+02  0.24548913355E+03  0.25259433195E+03  0.00000000000E+00 0.  1.
</event>
<event>
 4    1  0.6935156E+001  0.2367038E+02  0.7546771E-02  0.1484247E+00
          2   -1    0    0  502    0  0.00000000000E+00  0.00000000000E+00  0.48057956015E+01  0.48057956015E+01  0.00000000000E+00 0. -1.
         -2   -1    0    0    0  501 -0.00000000000E+00 -0.00000000000E+00 -0.14949581811E+03  0.14949581811E+03  0.00000000000E+00 0.  1.
          1    1    1    2  502    0  0.21204220089E+02  0.10519886692E+02 -0.10854352827E+03  0.11109448454E+03  0.00000000000E+00 0. -1.
         -1    1    1    2    0  501 -0.21204220089E+02 -0.10519886692E+02 -0.36146494238E+02  0.43207129172E+02  0.00000000000E+00 0.  1.
</event>
<event>
 4    1  0.6935156E+001  0.2796210E+02  0.7546771E-02  0.1438176E+00
          2   -1    0    0  502    0  0.00000000000E+00  0.00000000000E+00  0.21457854269E+03  0.21457854269E+03  0.00000000000E+00 0.  1.
         -2   -1    0    0    0  501 -0.00000000000E+00 -0.00000000000E+00 -0.38826868521E+01  0.38826868521E+01  0.00000000000E+00 0. -1.
          1    1    1    2  502    0  0.22896081074E+02 -0.16051441777E+02  0.78253329660E+02  0.83099115005E+02  0.00000000000E+00 0. -1.
         -1    1    1    2    0  501 -0.22896081074E+02  0.16051441777E+02  0.13244252618E+03  0.13536211454E+03  0.00000000000E+00 0.  1.
</event>
<event>
 4    1  0.6935156E+001  0.3962136E+02  0.7546771E-02  0.1350719E+00
          2   -1    0    0  502    0  0.00000000000E+00  0.00000000000E+00  0.78158382876E+03  0.78158382876E+03  0.00000000000E+00 0. -1.
         -2   -1    0    0    0  501 -0.00000000000E+00 -0.00000000000E+00 -0.22796579908E+01  0.22796579908E+01  0.00000000000E+00 0.  1.
          1    1    1    2  502    0 -0.26829273714E+02 -0.29155485981E+02  0.52481097244E+03  0.52630448325E+03  0.00000000000E+00 0. -1.
         -1    1    1    2    0  501  0.26829273714E+02  0.29155485981E+02  0.25449319832E+03  0.25755900350E+03  0.00000000000E+00 0.  1.
</event>
<event>
 4    1  0.6935156E+001  0.6946726E+02  0.7546771E-02  0.1230668E+00
          2   -1    0    0  502    0  0.00000000000E+00  0.00000000000E+00  0.41036164786E+04  0.41036164786E+04  0.00000000000E+00 0.  1.
         -2   -1    0    0    0  501 -0.00000000000E+00 -0.00000000000E+00 -0.13414333451E+01  0.13414333451E+01  0.00000000000E+00 0. -1.
          1    1    1    2  502    0  0.60752006926E+02  0.33688177764E+02  0.27720038230E+04  0.27728741216E+04  0.00000000000E+00 0.  1.
         -1    1    1    2    0  501 -0.60752006926E+02 -0.33688177764E+02  0.13302712223E+04  0.13320837904E+04  0.00000000000E+00 0. -1.
</event>
<event>
 4    1  0.6935156E+001  0.3296133E+02  0.7546771E-02  0.1395491E+00
          2   -1    0    0  502    0  0.00000000000E+00  0.00000000000E+00  0.12625103001E+03  0.12625103001E+03  0.00000000000E+00 0. -1.
         -2   -1    0    0    0  501 -0.00000000000E+00 -0.00000000000E+00 -0.15476149323E+02  0.15476149323E+02  0.00000000000E+00 0.  1.
          1    1    1    2  502    0 -0.86023249204E+01  0.31819003132E+02  0.81711724342E+01  0.33959049064E+02  0.00000000000E+00 0.  1.
         -1    1    1    2    0  501  0.86023249204E+01 -0.31819003132E+02  0.10260370825E+03  0.10776813027E+03  0.00000000000E+00 0. -1.
</event>
<event>
 4    1  0.6935156E+001  0.2276146E+02  0.7546771E-02  0.1495515E+00
          2   -1    0    0  502    0  0.00000000000E+00  0.00000000000E+00  0.11768768876E+03  0.11768768876E+03  0.00000000000E+00 0. -1.
         -2   -1    0    0    0  501 -0.00000000000E+00 -0.00000000000E+00 -0.56493780590E+01  0.56493780590E+01  0.00000000000E+00 0.  1.
          1    1    1    2  502    0 -0.97277563948E+01  0.20578014042E+02  0.84994510653E+02  0.87989492257E+02  0.00000000000E+00 0. -1.
         -1    1    1    2    0  501  0.97277563948E+01 -0.20578014042E+02  0.27043800046E+02  0.35347574561E+02  0.00000000000E+00 0.  1.
</event>
<event>
 4    1  0.6935156E+001  0.3309280E+02  0.7546771E-02  0.1394491E+00
          2   -1    0    0  502    0  0.00000000000E+00  0.00000000000E+00  0.80691141945E+02  0.80691141945E+02  0.00000000000E+00 0.  1.
         -2   -1    0    0    0  501 -0.00000000000E+00 -0.00000000000E+00 -0.14147216133E+02  0.14147216133E+02  0.00000000000E+00 0. -1.
          1    1    1    2  502    0  0.30849374041E+02  0.11977034488E+02  0.23709570686E+02  0.40709666861E+02  0.00000000000E+00 0. -1.
         -1    1    1    2    0  501 -0.30849374041E+02 -0.11977034488E+02  0.42834355126E+02  0.54128691217E+02  0.00000000000E+00 0.  1.
</event>
<event>
 4    1  0.6935156E+001  0.2051905E+02  0.7546771E-02  0.1526244E+00
          2   -1    0    0  502    0  0.00000000000E+00  0.00000000000E+00  0.91868378542E+02  0.91868378542E+02  0.00000000000E+00 0. -1.
         -2   -1    0    0    0  501 -0.00000000000E+00 -0.00000000000E+00 -0.48909444962E+01  0.48909444962E+01  0.00000000000E+00 0.  1.
          1    1    1    2  502    0  0.17068575953E+02  0.11388378986E+02  0.55628552383E+02  0.59292219567E+02  0.00000000000E+00 0. -1.
         -1    1    1    2    0  501 -0.17068575953E+02 -0.11388378986E+02  0.31348881663E+02  0.37467103471E+02  0.00000000000E+00 0.  1.
</event>
<event>
 4    1  0.6935156E+001  0.2914438E+02  0.7546771E-02  0.1427180E+00
          2   -1    0    0  502    0  0.00000000000E+00  0.00000000000E+00  0.19849083742E+04  0.19849083742E+04  0.00000000000E+00 0. -1.
         -2   -1    0    0    0  501 -0.00000000000E+00 -0.00000000000E+00 -0.91309336103E+00  0.91309336103E+00  0.00000000000E+00 0.  1.
          1    1    1    2  502    0  0.96050167290E+01  0.27516153162E+02  0.26823169224E+03  0.26981036999E+03  0.00000000000E+00 0.  1.
         -1    1    1    2    0  501 -0.96050167290E+01 -0.27516153162E+02  0.17157635886E+04  0.17160110976E+04  0.00000000000E+00 0. -1.
</event>
<event>
 4    1  0.6935156E+001  0.2689253E+02  0.7546771E-02  0.1448691E+00
          2   -1    0    0  502    0  0.00000000000E+00  0.00000000000E+00  0.18815422402E+04  0.18815422402E+04  0.00000000000E+00 0.  1.
         -2   -1    0    0    0  501 -0.00000000000E+00 -0.00000000000E+00 -0.38629245942E+00  0.38629245942E+00  0.00000000000E+00 0. -1.
          1    1    1    2  502    0  0.15287950675E+02  0.22124353089E+02  0.10069585366E+04  0.10073175780E+04  0.00000000000E+00 0. -1.
         -1    1    1    2    0  501 -0.15287950675E+02 -0.22124353089E+02  0.87419741116E+03  0.87461095472E+03  0.00000000000E+00 0.  1.
</event>
<event>
 4    1  0.6935156E+001  0.2126352E+02  0.7546771E-02  0.1515536E+00
          2   -1    0    0  502    0  0.00000000000E+00  0.00000000000E+00  0.40712478634E+03  0.40712478634E+03  0.00000000000E+00 0.  1.
         -2   -1    0    0    0  501 -0.00000000000E+00 -0.00000000000E+00 -0.29572267907E+01  0.29572267907E+01  0.00000000000E+00 0. -1.
          1    1    1    2  502    0  0.57896412388E+01  0.20460136188E+02  0.40054873326E+02  0.45348980095E+02  0.00000000000E+00 0. -1.
         -1    1    1    2    0  501 -0.57896412388E+01 -0.20460136188E+02  0.36411268623E+03  0.36473303304E+03  0.00000000000E+00 0.  1.
</event>
<event>
 4    1  0.6935156E+001  0.2675916E+02  0.7546771E-02  0.1450043E+00
          2   -1    0    0  502    0  0.00000000000E+00  0.00000000000E+00  0.41024773110E+03  0.41024773110E+03  0.00000000000E+00 0. -1.
         -2   -1    0    0    0  501 -0.00000000000E+00 -0.00000000000E+00 -0.64445336002E+01  0.64445336002E+01  0.00000000000E+00 0.  1.
          1    1    1    2  502    0 -0.13516799974E+02  0.23094339166E+02  0.23992599052E+02  0.35940189097E+02  0.00000000000E+00 0.  1.
         -1    1    1    2    0  501  0.13516799974E+02 -0.23094339166E+02  0.37981059844E+03  0.38075207560E+03  0.00000000000E+00 0. -1.
</event>
<event>
 4    1  0.6935156E+001  0.3020079E+02  0.7546771E-02  0.1417859E+00
          2   -1    0    0  502    0  0.00000000000E+00  0.00000000000E+00  0.44948852355E+01  0.44948852355E+01  0.00000000000E+00 0. -1.
         -2   -1    0    0    0  501 -0.00000000000E+00 -0.00000000000E+00 -0.22249305075E+03  0.22249305075E+03  0.00000000000E+00 0.  1.
          1    1    1    2  502    0 -0.14832480977E+02 -0.26307511358E+02 -0.75334013048E+02  0.81162190505E+02  0.00000000000E+00 0. -1.
         -1    1    1    2    0  501  0.14832480977E+02  0.26307511358E+02 -0.14266415247E+03  0.14582574548E+03  0.00000000000E+00 0.  1.
</event>
<event>
 4    1  0.6935156E+001  0.2415150E+02  0.7546771E-02  0.1478524E+00
          2   -1    0    0  502    0  0.00000000000E+00  0.00000000000E+00  0.15248220396E+02  0.15248220396E+02  0.00000000000E+00 0.  1.
         -2   -1    0    0    0  501 -0.00000000000E+00 -0.00000000000E+00 -0.38556008624E+02  0.38556008624E+02  0.00000000000E+00 0. -1.
          1    1    1    2  502    0  0.70894071845E+01 -0.23087552259E+02 -0.92701913064E+01  0.25869503482E+02  0.00000000000E+00 0.  1.
         -1    1    1    2    0  501 -0.70894071845E+01  0.23087552259E+02 -0.14037596922E+02  0.27934725538E+02  0.00000000000E+00 0. -1.
</event>
<event>
 4    1  0.6935156E+001  0.4605650E+02  0.7546771E-02  0.1316239E+00
          2   -1    0    0  502    0  0.00000000000E+00  0.00000000000E+00  0.21124245563E+03  0.21124245563E+03  0.00000000000E+00 0.  1.
         -2   -1    0    0    0  501 -0.00000000000E+00 -0.00000000000E+00 -0.14046253856E+02  0.14046253856E+02  0.00000000000E+00 0. -1.
          1    1    1    2  502    0 -0.35736813767E+02 -0.29053085015E+02  0.15874515992E+03  0.16529134099E+03  0.00000000000E+00 0.  1.
         -1    1    1    2    0  501  0.35736813767E+02  0.29053085015E+02  0.38451041854E+02  0.59997368499E+02  0.00000000000E+00 0. -1.
</event>
<event>
 4    1  0.6935156E+001  0.4457868E+02  0.7546771E-02  0.1323560E+00
          2   -1    0    0  502    0  0.00000000000E+00  0.00000000000E+00  0.20781385973E+04  0.20781385973E+04  0.00000000000E+00 0. -1.
         -2   -1    0    0    0  501 -0.00000000000E+00 -0.00000000000E+00 -0.11816696857E+01  0.11816696857E+01  0.00000000000E+00 0.  1.
          1    1    1    2  502    0  0.44002621476E+02  0.71433741309E+01  0.14925470285E+04  0.14932126074E+04  0.00000000000E+00 0. -1.
         -1    1    1    2    0  501 -0.44002621476E+02 -0.71433741309E+01  0.58440989912E+03  0.58610765963E+03  0.00000000000E+00 0.  1.
</event>
<event>
 4    1  0.6935156E+001  0.2440839E+02  0.7546771E-02  0.1475532E+00
          2   -1    0    0  502    0  0.00000000000E+00  0.00000000000E+00  0.24684094900E+01  0.24684094900E+01  0.00000000000E+00 0.  1.
         -2   -1    0    0    0  501 -0.00000000000E+00 -0.00000000000E+00 -0.24796624928E+03  0.24796624928E+03  0.00000000000E+00 0. -1.
          1    1    1    2  502    0 -0.77436181879E+01  0.23147481181E+02 -0.10230694074E+03  0.10517832301E+03  0.00000000000E+00 0.  1.
         -1    1    1    2    0  501  0.77436181879E+01 -0.23147481181E+02 -0.14319089905E+03  0.14525633576E+03  0.00000000000E+00 0. -1.
</event>
<event>
 4    1  0.6935156E+001  0.3252310E+02  0.7546771E-02  0.1398866E+00
          2   -1    0    0  502    0  0.00000000000E+00  0.00000000000E+00  0.77407713412E+02  0.77407713412E+02  0.00000000000E+00 0. -1.
         -2   -1    0    0    0  501 -0.00000000000E+00 -0.00000000000E+00 -0.29940302806E+02  0.29940302806E+02  0.00000000000E+00 0.  1.
          1    1    1    2  502    0  0.13870992983E+00 -0.32522804967E+02 -0.15839813068E+02  0.36175292140E+02  0.00000000000E+00 0.  1.
         -1    1    1    2    0  501 -0.13870992983E+00  0.32522804967E+02  0.63307223674E+02  0.71172724078E+02  0.00000000000E+00 0. -1.
</event>
<event>
 4    1  0.6935156E+001  0.4743265E+02  0.7546771E-02  0.1309704E+00
          2   -1    0    0  502    0  0.00000000000E+00  0.00000000000E+00  0.13969057340E+03  0.13969057340E+03  0.00000000000E+00 0. -1.
         -2   -1    0    0    0  501 -0.00000000000E+00 -0.00000000000E+00 -0.16662073809E+02  0.16662073809E+02  0.00000000000E+00 0.  1.
          1    1    1    2  502    0 -0.27483449328E+02  0.38658969298E+02  0.75795896353E+02  0.89414058168E+02  0.00000000000E+00 0. -1.
         -1    1    1    2    0  501  0.27483449328E+02 -0.38658969298E+02  0.47232603239E+02  0.66938589041E+02  0.00000000000E+00 0.  1.
</event>
<event>
 4    1  0.6935156E+001  0.4075071E+02  0.7546771E-02  0.1344142E+00
          2   -1    0    0  502    0  0.00000000000E+00  0.00000000000E+00  0.30276753961E+02  0.30276753961E+02  0.00000000000E+00 0. -1.
         -2   -1    0    0    0  501 -0.00000000000E+00 -0.00000000000E+00 -0.19341343823E+03  0.19341343823E+03  0.00000000000E+00 0.  1.
          1    1    1    2  502    0  0.35600917094E+02  0.19829146097E+02 -0.17623586995E+03  0.18088588168E+03  0.00000000000E+00 0.  1.
         -1    1    1    2    0  501 -0.35600917094E+02 -0.19829146097E+02  0.13099185684E+02  0.42804310513E+02  0.00000000000E+00 0. -1.
</event>
<event>
 4    1  0.6935156E+001  0.5087689E+02  0.7546771E-02  0.1294415E+00
          2   -1    0    0  502    0  0.00000000000E+00  0.00000000000E+00  0.23611958233E+03  0.23611958233E+03  0.00000000000E+00 0.  1.
         -2   -1    0    0    0  501 -0.00000000000E+00 -0.00000000000E+00 -0.16082410949E+02  0.16082410949E+02  0.00000000000E+00 0. -1.
          1    1    1    2  502    0 -0.47603132704E+02 -0.17955496485E+02  0.38868626995E+02  0.64025215827E+02  0.00000000000E+00 0. -1.
         -1    1    1    2    0  501  0.47603132704E+02  0.17955496485E+02  0.18116854438E+03  0.18817677745E+03  0.00000000000E+00 0.  1.
</event>
<event>
 4    1  0.6935156E+001  0.2602068E+02  0.7546771E-02  0.1457701E+00
          2   -1    0    0  502    0  0.00000000000E+00  0.00000000000E+00  0.73264422468E+02  0.73264422468E+02  0.00000000000E+00 0. -1.
         -2   -1    0    0    0  501 -0.00000000000E+00 -0.00000000000E+00 -0.92430230628E+01  0.92430230628E+01  0.00000000000E+00 0.  1.
          1    1    1    2  502    0  0.16708518012E+02  0.19947467808E+02  0.31488032596E+02  0.40848160826E+02  0.00000000000E+00 0. -1.
         -1    1    1    2    0  501 -0.16708518012E+02 -0.19947467808E+02  0.32533366809E+02  0.41659284704E+02  0.00000000000E+00 0.  1.
</event>
<event>
 4    1  0.6935156E+001  0.2342206E+02  0.7546771E-02  0.1487265E+00
          2   -1    0    0  502    0  0.00000000000E+00  0.00000000000E+00  0.85463531348E+02  0.85463531348E+02  0.00000000000E+00 0. -1.
         -2   -1    0    0    0  501 -0.00000000000E+00 -0.00000000000E+00 -0.64397280902E+01  0.64397280902E+01  0.00000000000E+00 0.  1.
          1    1    1    2  502    0  0.23291116592E+02 -0.24732484742E+01  0.42116976444E+02  0.48191625569E+02  0.00000000000E+00 0. -1.
         -1    1    1    2    0  501 -0.23291116592E+02  0.24732484742E+01  0.36906826814E+02  0.43711633870E+02  0.00000000000E+00 0.  1.
</event>
<event>
 4    1  0.6935156E+001  0.5733106E+02  0.7546771E-02  0.1269181E+00
          2   -1    0    0  502    0  0.00000000000E+00  0.00000000000E+00  0.16612331944E+04  0.16612331944E+04  0.00000000000E+00 0.  1.
         -2   -1    0    0    0  501 -0.00000000000E+00 -0.00000000000E+00 -0.21777350906E+01  0.21777350906E+01  0.00000000000E+00 0. -1.
          1    1    1    2  502    0  0.54695721694E+02 -0.17182205292E+02  0.10810544613E+04  0.10825735996E+04  0.00000000000E+00 0. -1.
         -1    1    1    2    0  501 -0.54695721694E+02  0.17182205292E+02  0.57800099799E+03  0.58083732992E+03  0.00000000000E+00 0.  1.
</event>
<event>
 4    1  0.6935156E+001  0.3612618E+02  0.7546771E-02  0.1372814E+00
          2   -1    0    0  502    0  0.00000000000E+00  0.00000000000E+00  0.37456793873E+01  0.37456793873E+01  0.00000000000E+00 0.  1.
         -2   -1    0    0    0  501 -0.00000000000E+00 -0.00000000000E+00 -0.36297778382E+03  0.36297778382E+03  0.00000000000E+00 0. -1.
          1    1    1    2  502    0 -0.36009498154E+02  0.29011670464E+01 -0.21632672699E+03  0.21932248754E+03  0.00000000000E+00 0. -1.
         -1    1    1    2    0  501  0.36009498154E+02 -0.29011670464E+01 -0.14290537743E+03  0.14740097567E+03  0.00000000000E+00 0.  1.
</event>
<event>
 4    1  0.6935156E+001  0.3601316E+02  0.7546771E-02  0.1373577E+00
          2   -1    0    0  502    0  0.00000000000E+00  0.00000000000E+00  0.73444060352E+02  0.73444060352E+02  0.00000000000E+00 0. -1.
         -2   -1    0    0    0  501 -0.00000000000E+00 -0.00000000000E+00 -0.17953014581E+02  0.17953014581E+02  0.00000000000E+00 0.  1.
          1    1    1    2  502    0 -0.27899029175E+02 -0.22772605367E+02  0.21897206066E+02  0.42147775951E+02  0.00000000000E+00 0.  1.
         -1    1    1    2    0  501  0.27899029175E+02  0.22772605367E+02  0.33593839705E+02  0.49249298982E+02  0.00000000000E+00 0. -1.
</event>
<event>
 4    1  0.6935156E+001  0.2244997E+02  0.7546771E-02  0.1499523E+00
          2   -1    0    0  502    0  0.00000000000E+00  0.00000000000E+00  0.72181761676E+03  0.72181761676E+03  0.00000000000E+00 0.  1.
         -2   -1    0    0    0  501 -0.00000000000E+00 -0.00000000000E+00 -0.11298253022E+01  0.11298253022E+01  0.00000000000E+00 0. -1.
          1    1    1    2  502    0 -0.86834671021E+01 -0.20702617904E+02  0.58375515807E+03  0.58418668725E+03  0.00000000000E+00 0.  1.
         -1    1    1    2    0  501  0.86834671021E+01  0.20702617904E+02  0.13693263339E+03  0.13876075481E+03  0.00000000000E+00 0. -1.
</event>
<event>
 4    1  0.6935156E+001  0.3428353E+02  0.7546771E-02  0.1385671E+00
          2   -1    0    0  502    0  0.00000000000E+00  0.00000000000E+00  0.19098407048E+04  0.19098407048E+04  0.00000000000E+00 0. -1.
         -2   -1    0    0    0  501 -0.00000000000E+00 -0.00000000000E+00 -0.93894196500E+00  0.93894196500E+00  0.00000000000E+00 0.  1.
          1    1    1    2  502    0 -0.75632627679E+01 -0.33438860865E+02  0.15152546784E+04  0.15156424712E+04  0.00000000000E+00 0. -1.
         -1    1    1    2    0  501  0.75632627679E+01  0.33438860865E+02  0.39364708446E+03  0.39513717550E+03  0.00000000000E+00 0.  1.
</event>
<event>
 4    1  0.6935156E+001  0.2275452E+02  0.7546771E-02  0.1495604E+00
          2   -1    0    0  502    0  0.00000000000E+00  0.00000000000E+00  0.50173915674E+03  0.50173915674E+03  0.00000000000E+00 0. -1.
         -2   -1    0    0    0  501 -0.00000000000E+00 -0.00000000000E+00 -0.12425900847E+01  0.12425900847E+01  0.00000000000E+00 0.  1.
          1    1    1    2  502    0  0.91983955529E+01  0.20812439232E+02  0.35379399476E+03  0.35452497632E+03  0.00000000000E+00 0. -1.
         -1    1    1    2    0  501 -0.91983955529E+01 -0.20812439232E+02  0.14670257190E+03  0.14845677050E+03  0.00000000000E+00 0.  1.
</event>
<event>
 4    1  0.6935156E+001  0.5756766E+02  0.7546771E-02  0.1268329E+00
          2   -1    0    0  502    0  0.00000000000E+00  0.00000000000E+00  0.54446135641E+01  0.54446135641E+01  0.00000000000E+00 0.  1.
         -2   -1    0    0    0  501 -0.00000000000E+00 -0.00000000000E+00 -0.77636751664E+03  0.77636751664E+03  0.00000000000E+00 0. -1.
          1    1    1    2  502    0  0.49829846871E+02  0.28827447196E+02 -0.56713311903E+03  0.57004737527E+03  0.00000000000E+00 0. -1.
         -1    1    1    2    0  501 -0.49829846871E+02 -0.28827447196E+02 -0.20378978404E+03  0.21176475493E+03  0.00000000000E+00 0.  1.
</event>
<event>
 4    1  0.6935156E+001  0.2124743E+02  0.7546771E-02  0.1515761E+00
          2   -1    0    0  502    0  0.00000000000E+00  0.00000000000E+00  0.41380914192E+03  0.41380914192E+03  0.00000000000E+00 0. -1.
         -2   -1    0    0    0  501 -0.00000000000E+00 -0.00000000000E+00 -0.15894652844E+01  0.15894652844E+01  0.00000000000E+00 0.  1.
          1    1    1    2  502    0  0.18606836864E+02 -0.10258596219E+02  0.89793629361E+02  0.92273230400E+02  0.00000000000E+00 0.  1.
         -1    1    1    2    0  501 -0.18606836864E+02  0.10258596219E+02  0.32242604727E+03  0.32312537680E+03  0.00000000000E+00 0. -1.
</event>
<event>
 4    1  0.6935156E+001  0.6686255E+02  0.7546771E-02  0.1238144E+00
          2   -1    0    0  502    0  0.00000000000E+00  0.00000000000E+00  0.24952264276E+04  0.24952264276E+04  0.00000000000E+00 0.  1.
         -2   -1    0    0    0  501 -0.00000000000E+00 -0.00000000000E+00 -0.20472514931E+01  0.20472514931E+01  0.00000000000E+00 0. -1.
          1    1    1    2  502    0  0.39094516411E+02  0.54242226801E+02  0.80540257310E+03  0.80817319006E+03  0.00000000000E+00 0. -1.
         -1    1    1    2    0  501 -0.39094516411E+02 -0.54242226801E+02  0.16877766030E+04  0.16891004890E+04  0.00000000000E+00 0.  1.
</event>
<event>
 4    1  0.6935156E+001  0.7156543E+02  0.7546771E-02  0.1224911E+00
          2   -1    0    0  502    0  0.00000000000E+00  0.00000000000E+00  0.54561883319E+02  0.54561883319E+02  0.00000000000E+00 0. -1.
         -2   -1    0    0    0  501 -0.00000000000E+00 -0.00000000000E+00 -0.15460693359E+03  0.15460693359E+03  0.00000000000E+00 0.  1.
          1    1    1    2  502    0  0.70928681715E+02 -0.95253651894E+01 -0.11557458301E+03  0.13593783399E+03  0.00000000000E+00 0.  1.
         -1    1    1    2    0  501 -0.70928681715E+02  0.95253651894E+01  0.15529532742E+02  0.73230982917E+02  0.00000000000E+00 0. -1.
</event>
<event>
 4    1  0.6935156E+001  0.2985589E+02  0.7546771E-02  0.1420853E+00
          2   -1    0    0  502    0  0.00000000000E+00  0.00000000000E+00  0.36652147448E+03  0.36652147448E+03  0.00000000000E+00 0.  1.
         -2   -1    0    0    0  501 -0.00000000000E+00 -0.00000000000E+00 -0.24483349170E+01  0.24483349170E+01  0.00000000000E+00 0. -1.
          1    1    1    2  502    0 -0.98978163867E+01 -0.28167489984E+02  0.16696008421E+03  0.16960850208E+03  0.00000000000E+00 0. -1.
         -1    1    1    2    0  501  0.98978163867E+01  0.28167489984E+02  0.19711305536E+03  0.19936130732E+03  0.00000000000E+00 0.  1.
</event>
<event>
 4    1  0.6935156E+001  0.3800750E+02  0.7546771E-02  0.1360575E+00
          2   -1    0    0  502    0  0.00000000000E+00  0.00000000000E+00  0.16636998521E+02  0.16636998521E+02  0.00000000000E+00 0.  1.
         -2   -1    0    0    0  501 -0.00000000000E+00 -0.00000000000E+00 -0.24654459220E+03  0.24654459220E+03  0.00000000000E+00 0. -1.
          1    1    1    2  502    0  0.28633644524E+02 -0.24993687571E+02 -0.22086740183E+03  0.22411376399E+03  0.00000000000E+00 0. -1.
         -1    1    1    2    0  501 -0.28633644524E+02  0.24993687571E+02 -0.90401918499E+01  0.39067826735E+02  0.00000000000E+00 0.  1.
</event>
<event>
 4    1  0.6935156E+001  0.3753514E+02  0.7546771E-02  0.1363568E+00
          2   -1    0    0  502    0  0.00000000000E+00  0.00000000000E+00  0.11369197872E+04  0.11369197872E+04  0.00000000000E+00 0. -1.
         -2   -1    0    0    0  501 -0.00000000000E+00 -0.00000000000E+00 -0.14379939358E+01  0.14379939358E+01  0.00000000000E+00 0.  1.
          1    1    1    2  502    0  0.29005083740E+02  0.23824184298E+02  0.35612085447E+03  0.35809349286E+03  0.00000000000E+00 0.  1.
         -1    1    1    2    0  501 -0.29005083740E+02 -0.23824184298E+02  0.77936093877E+03  0.78026428825E+03  0.00000000000E+00 0. -1.
</event>
<event>
 4    1  0.6935156E+001  0.2815502E+02  0.7546771E-02  0.1436338E+00
          2   -1    0    0  502    0  0.00000000000E+00  0.00000000000E+00  0.86065475384E+03  0.86065475384E+03  0.00000000000E+00 0. -1.
         -2   -1    0    0    0  501 -0.00000000000E+00 -0.00000000000E+00 -0.17144870173E+01  0.17144870173E+01  0.00000000000E+00 0.  1.
          1    1    1    2  502    0  0.13837186706E+02  0.24520141505E+02  0.13614268519E+03  0.13902350810E+03  0.00000000000E+00 0.  1.
         -1    1    1    2    0  501 -0.13837186706E+02 -0.24520141505E+02  0.72279758164E+03  0.72334573276E+03  0.00000000000E+00 0. -1.
</event>
<event>
 4    1  0.6935156E+001  0.2195933E+02  0.7546771E-02  0.1505996E+00
          2   -1    0    0  502    0  0.00000000000E+00  0.00000000000E+00  0.67116727451E+03  0.67116727451E+03  0.00000000000E+00 0.  1.
         -2   -1    0    0    0  501 -0.00000000000E+00 -0.00000000000E+00 -0.10320688919E+01  0.10320688919E+01  0.00000000000E+00 0. -1.
          1    1    1    2  502    0  0.13691655317E+02 -0.17168309586E+02  0.14979879083E+03  0.15139976886E+03  0.00000000000E+00 0.  1.
         -1    1    1    2    0  501 -0.13691655317E+02  0.17168309586E+02  0.52033641479E+03  0.52079957453E+03  0.00000000000E+00 0. -1.
</event>
<event>
 4    1  0.6935156E+001  0.6029954E+02  0.7546771E-02  0.1258818E+00
          2   -1    0    0  502    0  0.00000000000E+00  0.00000000000E+00  0.14794167020E+04  0.14794167020E+04  0.00000000000E+00 0. -1.
         -2   -1    0    0    0  501 -0.00000000000E+00 -0.00000000000E+00 -0.50043578055E+01  0.50043578055E+01  0.00000000000E+00 0.  1.
          1    1    1    2  502    0 -0.60182215954E+02 -0.37597721176E+01  0.12666672605E+04  0.12681017245E+04  0.00000000000E+00 0. -1.
         -1    1    1    2    0  501  0.60182215954E+02  0.37597721176E+01  0.20774508374E+03  0.21631933529E+03  0.00000000000E+00 0.  1.
</event>
<event>
 4    1  0.6935156E+001  0.3051207E+02  0.7546771E-02  0.1415198E+00
          2   -1    0    0  502    0  0.00000000000E+00  0.00000000000E+00  0.26897955029E+03  0.26897955029E+03  0.00000000000E+00 0. -1.
         -2   -1    0    0    0  501 -0.00000000000E+00 -0.00000000000E+00 -0.43839050093E+01  0.43839050093E+01  0.00000000000E+00 0.  1.
          1    1    1    2  502    0  0.19043062229E+02  0.23840052501E+02  0.19500486478E+03  0.19737751546E+03  0.00000000000E+00 0. -1.
         -1    1    1    2    0  501 -0.19043062229E+02 -0.23840052501E+02  0.69590780507E+02  0.75985939843E+02  0.00000000000E+00 0.  1.
</event>
<event>
 4    1  0.6935156E+001  0.3150319E+02  0.7546771E-02  0.1406968E+00
          2   -1    0    0  502    0  0.00000000000E+00  0.00000000000E+00  0.12626589641E+03  0.12626589641E+03  0.00000000000E+00 0. -1.
         -2   -1    0    0    0  501 -0.00000000000E+00 -0.00000000000E+00 -0.83485444046E+01  0.83485444046E+01  0.00000000000E+00 0.  1.
          1    1    1    2  502    0 -0.26938671833E+02  0.16332759111E+02  0.75240549411E+02  0.81569549072E+02  0.00000000000E+00 0. -1.
         -1    1    1    2    0  501  0.26938671833E+02 -0.16332759111E+02  0.42676802598E+02  0.53044891745E+02  0.00000000000E+00 0.  1.
</event>
<event>
 4    1  0.6935156E+001  0.2530701E+02  0.7546771E-02  0.1465398E+00
          2   -1    0    0  502    0  0.00000000000E+00  0.00000000000E+00  0.41488220039E+03  0.41488220039E+03  0.00000000000E+00 0. -1.
         -2   -1    0    0    0  501 -0.00000000000E+00 -0.00000000000E+00 -0.15667779618E+01  0.15667779618E+01  0.00000000000E+00 0.  1.
          1    1    1    2  502    0  0.16568382117E+02 -0.19129388304E+02  0.18137475374E+03  0.18313177244E+03  0.00000000000E+00 0. -1.
         -1    1    1    2    0  501 -0.16568382117E+02  0.19129388304E+02  0.23194066868E+03  0.23331720591E+03  0.00000000000E+00 0.  1.
</event>
<event>
 4    1  0.6935156E+001  0.1082725E+03  0.7546771E-02  0.1150197E+00
          2   -1    0    0  502    0  0.00000000000E+00  0.00000000000E+00  0.80366666114E+03  0.80366666114E+03  0.00000000000E+00 0.  1.
         -2   -1    0    0    0  501 -0.00000000000E+00 -0.00000000000E+00 -0.30272692880E+02  0.30272692880E+02  0.00000000000E+00 0. -1.
          1    1    1    2  502    0  0.10048999244E+03  0.40307449004E+02  0.86550337014E+02  0.13861417627E+03  0.00000000000E+00 0. -1.
         -1    1    1    2    0  501 -0.10048999244E+03 -0.40307449004E+02  0.68684363125E+03  0.69532517775E+03  0.00000000000E+00 0.  1.
</event>
<event>
 4    1  0.6935156E+001  0.3522600E+02  0.7546771E-02  0.1378981E+00
          2   -1    0    0  502    0  0.00000000000E+00  0.00000000000E+00  0.88616282407E+02  0.88616282407E+02  0.00000000000E+00 0. -1.
         -2   -1    0    0    0  501 -0.00000000000E+00 -0.00000000000E+00 -0.14005818722E+02  0.14005818722E+02  0.00000000000E+00 0.  1.
          1    1    1    2  502    0 -0.14814081225E+02  0.31959570637E+02  0.38065430131E+02  0.51863745805E+02  0.00000000000E+00 0. -1.
         -1    1    1    2    0  501  0.14814081225E+02 -0.31959570637E+02  0.36545033553E+02  0.50758355324E+02  0.00000000000E+00 0.  1.
</event>
<event>
 4    1  0.6935156E+001  0.3260729E+02  0.7546771E-02  0.1398213E+00
          2   -1    0    0  502    0  0.00000000000E+00  0.00000000000E+00  0.56661993069E+01  0.56661993069E+01  0.00000000000E+00 0.  1.
         -2   -1    0    0    0  501 -0.00000000000E+00 -0.00000000000E+00 -0.22593464993E+03  0.22593464993E+03  0.00000000000E+00 0. -1.
          1    1    1    2  502    0  0.22524508900E+02  0.23577140201E+02 -0.15780567469E+03  0.16113927518E+03  0.00000000000E+00 0.  1.
         -1    1    1    2    0  501 -0.22524508900E+02 -0.23577140201E+02 -0.62462775928E+02  0.70461574052E+02  0.00000000000E+00 0. -1.
</event>
<event>
 4    1  0.6935156E+001  0.3339064E+02  0.7546771E-02  0.1392245E+00
          2   -1    0    0  502    0  0.00000000000E+00  0.00000000000E+00  0.19065836085E+04  0.19065836085E+04  0.00000000000E+00 0.  1.
         -2   -1    0    0    0  501 -0.00000000000E+00 -0.00000000000E+00 -0.12630486527E+01  0.12630486527E+01  0.00000000000E+00 0. -1.
          1    1    1    2  502    0 -0.27189507234E+01 -0.33279757942E+02  0.25361743349E+03  0.25580605456E+03  0.00000000000E+00 0. -1.
         -1    1    1    2    0  501  0.27189507234E+01  0.33279757942E+02  0.16517031264E+04  0.16520406026E+04  0.00000000000E+00 0.  1.
</event>
<event>
 4    1  0.6935156E+001  0.2103861E+02  0.7546771E-02  0.1518714E+00
          2   -1    0    0  502    0  0.00000000000E+00  0.00000000000E+00  0.33133660185E+01  0.33133660185E+01  0.00000000000E+00 0. -1.
         -2   -1    0    0    0  501 -0.00000000000E+00 -0.00000000000E+00 -0.15562963150E+03  0.15562963150E+03  0.00000000000E+00 0.  1.
          1    1    1    2  502    0  0.25010494118E+01 -0.20889420705E+02 -0.10606668803E+03  0.10813309140E+03  0.00000000000E+00 0.  1.
         -1    1    1    2    0  501 -0.25010494118E+01  0.20889420705E+02 -0.46249577453E+02  0.50809906122E+02  0.00000000000E+00 0. -1.
</event>
<event>
 4    1  0.6935156E+001  0.2169614E+02  0.7546771E-02  0.1509554E+00
          2   -1    0    0  502    0  0.00000000000E+00  0.00000000000E+00  0.91709485023E+02  0.91709485023E+02  0.00000000000E+00 0.  1.
         -2   -1    0    0    0  501 -0.00000000000E+00 -0.00000000000E+00 -0.71078261892E+01  0.71078261892E+01  0.00000000000E+00 0. -1.
          1    1    1    2  502    0 -0.20637408650E+02 -0.66947565444E+01  0.16255736290E+02  0.27110355278E+02  0.00000000000E+00 0. -1.
         -1    1    1    2    0  501  0.20637408650E+02  0.66947565444E+01  0.68345922544E+02  0.71706955934E+02  0.00000000000E+00 0.  1.
</event>
<event>
 4    1  0.6935156E+001  0.2384612E+02  0.7546771E-02  0.1482138E+00
          2   -1    0    0  502    0  0.00000000000E+00  0.00000000000E+00  0.19474562588E+01  0.19474562588E+01  0.00000000000E+00 0. -1.
         -2   -1    0    0    0  501 -0.00000000000E+00 -0.00000000000E+00 -0.33185425504E+03  0.33185425504E+03  0.00000000000E+00 0.  1.
          1    1    1    2  502    0 -0.20915015031E+02 -0.11454239179E+02 -0.22279996037E+03  0.22407244317E+03  0.00000000000E+00 0.  1.
         -1    1    1    2    0  501  0.20915015031E+02  0.11454239179E+02 -0.10710683842E+03  0.10972926813E+03  0.00000000000E+00 0. -1.
</event>
<event>
 4    1  0.6935156E+001  0.2104412E+02  0.7546771E-02  0.1518636E+00
          2   -1    0    0  502    0  0.00000000000E+00  0.00000000000E+00  0.83845588088E+03  0.83845588088E+03  0.00000000000E+00 0. -1.
         -2   -1    0    0    0  501 -0.00000000000E+00 -0.00000000000E+00 -0.53512401477E+00  0.53512401477E+00  0.00000000000E+00 0.  1.
          1    1    1    2  502    0 -0.20813535181E+02  0.31066979114E+01  0.37117054033E+03  0.37176662684E+03  0.00000000000E+00 0. -1.
         -1    1    1    2    0  501  0.20813535181E+02 -0.31066979114E+01  0.46675021653E+03  0.46722437806E+03  0.00000000000E+00 0.  1.
</event>
<event>
 4    1  0.6935156E+001  0.5585713E+02  0.7546771E-02  0.1274598E+00
          2   -1    0    0  502    0  0.00000000000E+00  0.00000000000E+00  0.81939088265E+03  0.81939088265E+03  0.00000000000E+00 0. -1.
         -2   -1    0    0    0  501 -0.00000000000E+00 -0.00000000000E+00 -0.40003974683E+01  0.40003974683E+01  0.00000000000E+00 0.  1.
          1    1    1    2  502    0  0.53676081937E+02  0.15456282638E+02  0.31734486076E+03  0.32222318212E+03  0.00000000000E+00 0.  1.
         -1    1    1    2    0  501 -0.53676081937E+02 -0.15456282638E+02  0.49804562442E+03  0.50116809800E+03  0.00000000000E+00 0. -1.
</event>
<event>
 4    1  0.6935156E+001  0.2986184E+02  0.7546771E-02  0.1420801E+00
          2   -1    0    0  502    0  0.00000000000E+00  0.00000000000E+00  0.82924335120E+03  0.82924335120E+03  0.00000000000E+00 0.  1.
         -2   -1    0    0    0  501 -0.00000000000E+00 -0.00000000000E+00 -0.10884443955E+01  0.10884443955E+01  0.00000000000E+00 0. -1.
          1    1    1    2  502    0  0.28832508503E+02  0.77727863270E+01  0.36854689756E+03  0.36975470985E+03  0.00000000000E+00 0. -1.
         -1    1    1    2    0  501 -0.28832508503E+02 -0.77727863270E+01  0.45960800924E+03  0.46057708575E+03  0.00000000000E+00 0.  1.
</event>
<event>
 4    1  0.6935156E+001  0.3246216E+02  0.7546771E-02  0.1399340E+00
          2   -1    0    0  502    0  0.00000000000E+00  0.00000000000E+00  0.80886893390E+03  0.80886893390E+03  0.00000000000E+00 0.  1.
         -2   -1    0    0    0  501 -0.00000000000E+00 -0.00000000000E+00 -0.20311319630E+01  0.20311319630E+01  0.00000000000E+00 0. -1.
          1    1    1    2  502    0  0.32400383740E+02 -0.20017784105E+01  0.16062718608E+03  0.16387460112E+03  0.00000000000E+00 0. -1.
         -1    1    1    2    0  501 -0.32400383740E+02  0.20017784105E+01  0.64621061586E+03  0.64702546475E+03  0.00000000000E+00 0.  1.
</event>
<event>
 4    1  0.6935156E+001  0.2375037E+02  0.7546771E-02  0.1483285E+00
          2   -1    0    0  502    0  0.00000000000E+00  0.00000000000E+00  0.56682917700E+02  0.56682917700E+02  0.00000000000E+00 0. -1.
         -2   -1    0    0    0  501 -0.00000000000E+00 -0.00000000000E+00 -0.10363558517E+02  0.10363558517E+02  0.00000000000E+00 0.  1.
          1    1    1    2  502    0 -0.23793204347E+01  0.23630891528E+02  0.16475169048E+02  0.28905213981E+02  0.00000000000E+00 0. -1.
         -1    1    1    2    0  501  0.23793204347E+01 -0.23630891528E+02  0.29844190135E+02  0.38141262236E+02  0.00000000000E+00 0.  1.
</event>
<event>
 4    1  0.6935156E+001  0.4375425E+02  0.7546771E-02  0.1327787E+00
          2   -1    0    0  502    0  0.00000000000E+00  0.00000000000E+00  0.20368416686E+02  0.20368416686E+02  0.00000000000E+00 0.  1.
         -2   -1    0    0    0  501 -0.00000000000E+00 -0.00000000000E+00 -0.98755599995E+02  0.98755599995E+02  0.00000000000E+00 0. -1.
          1    1    1    2  502    0 -0.37161120448E+02  0.23097308832E+02 -0.52277318164E+02  0.68171493622E+02  0.00000000000E+00 0. -1.
         -1    1    1    2    0  501  0.37161120448E+02 -0.23097308832E+02 -0.26109865144E+02  0.50952523059E+02  0.00000000000E+00 0.  1.
</event>
<event>
 4    1  0.6935156E+001  0.3682566E+02  0.7546771E-02  0.1368163E+00
          2   -1    0    0  502    0  0.00000000000E+00  0.00000000000E+00  0.23652878557E+03  0.23652878557E+03  0.00000000000E+00 0. -1.
         -2   -1    0    0    0  501 -0.00000000000E+00 -0.00000000000E+00 -0.60265044989E+01  0.60265044989E+01  0.00000000000E+00 0.  1.
          1    1    1    2  502    0 -0.19010716669E+02 -0.31539217548E+02  0.88508095913E+02  0.95863510440E+02  0.00000000000E+00 0.  1.
         -1    1    1    2    0  501  0.19010716669E+02  0.31539217548E+02  0.14199418516E+03  0.14669177963E+03  0.00000000000E+00 0. -1.
</event>
<event>
 4    1  0.6935156E+001  0.3391507E+02  0.7546771E-02  0.1388355E+00
          2   -1    0    0  502    0  0.00000000000E+00  0.00000000000E+00  0.71650828608E+03  0.71650828608E+03  0.00000000000E+00 0.  1.
         -2   -1    0    0    0  501 -0.00000000000E+00 -0.00000000000E+00 -0.21467392137E+01  0.21467392137E+01  0.00000000000E+00 0. -1.
          1    1    1    2  502    0  0.33890085867E+02 -0.13015912820E+01  0.17672792065E+03  0.17995274379E+03  0.00000000000E+00 0. -1.
         -1    1    1    2    0  501 -0.33890085867E+02  0.13015912820E+01  0.53763362622E+03  0.53870228151E+03  0.00000000000E+00 0.  1.
</event>
<event>
 4    1  0.6935156E+001  0.3176042E+02  0.7546771E-02  0.1404891E+00
          2   -1    0    0  502    0  0.00000000000E+00  0.00000000000E+00  0.34412172483E+02  0.34412172483E+02  0.00000000000E+00 0.  1.
         -2   -1    0    0    0  501 -0.00000000000E+00 -0.00000000000E+00 -0.30689768044E+02  0.30689768044E+02  0.00000000000E+00 0. -1.
          1    1    1    2  502    0  0.19523717652E+02 -0.25050920811E+02  0.87556062974E+01  0.32945179102E+02  0.00000000000E+00 0. -1.
         -1    1    1    2    0  501 -0.19523717652E+02  0.25050920811E+02 -0.50332018578E+01  0.32156761425E+02  0.00000000000E+00 0.  1.
</event>
