<event>
 4    1  0.3069799E+006  0.2185331E+02  0.7546771E-02  0.1507422E+00
         21   -1    0    0  502  501  0.00000000000E+00  0.00000000000E+00  0.23069748427E+02  0.23069748427E+02  0.00000000000E+00 0. -1.
         21   -1    0    0  503  502 -0.00000000000E+00 -0.00000000000E+00 -0.32345867886E+02  0.32345867886E+02  0.00000000000E+00 0. -1.
         21    1    1    2  503  504 -0.38366778117E+00  0.21849946370E+02 -0.21262983034E+02  0.30490683902E+02  0.00000000000E+00 0. -1.
         21    1    1    2  504  501  0.38366778117E+00 -0.21849946370E+02  0.11986863575E+02  0.24924932411E+02  0.00000000000E+00 0. -1.
</event>
<event>
 4    1  0.3069799E+006  0.3066170E+02  0.7546771E-02  0.1413932E+00
         21   -1    0    0  504  501  0.00000000000E+00  0.00000000000E+00  0.21451840000E+02  0.21451840000E+02  0.00000000000E+00 0. -1.
         21   -1    0    0  501  502 -0.00000000000E+00 -0.00000000000E+00 -0.24299773420E+03  0.24299773420E+03  0.00000000000E+00 0. -1.
         21    1    1    2  503  502  0.30643477025E+02  0.10570926142E+01 -0.23048173518E+03  0.23251230157E+03  0.00000000000E+00 0. -1.
         21    1    1    2  504  503 -0.30643477025E+02 -0.10570926142E+01  0.89358409817E+01  0.31937272629E+02  0.00000000000E+00 0. -1.
</event>
<event>
 4    1  0.3069799E+006  0.5408625E+02  0.7546771E-02  0.1281366E+00
         21   -1    0    0  503  501  0.00000000000E+00  0.00000000000E+00  0.12420651696E+03  0.12420651696E+03  0.00000000000E+00 0. -1.
         21   -1    0    0  501  502 -0.00000000000E+00 -0.00000000000E+00 -0.64704645556E+02  0.64704645556E+02  0.00000000000E+00 0. -1.
         21    1    1    2  503  504 -0.36290241380E+02  0.40104131394E+02  0.10507925930E+03  0.11818195170E+03  0.00000000000E+00 0. -1.
         21    1    1    2  504  502  0.36290241380E+02 -0.40104131394E+02 -0.45577387895E+02  0.70729210809E+02  0.00000000000E+00 0. -1.
</event>
<event>
 4    1  0.3069799E+006  0.2056454E+02  0.7546771E-02  0.1525574E+00
         21   -1    0    0  504  501  0.00000000000E+00  0.00000000000E+00  0.16270918646E+03  0.16270918646E+03  0.00000000000E+00 0.  1.
         21   -1    0    0  503  502 -0.00000000000E+00 -0.00000000000E+00 -0.77534098535E+01  0.77534098535E+01  0.00000000000E+00 0.  1.
         21    1    1    2  503  501 -0.16374625751E+02  0.12440728769E+02  0.79854889987E+01  0.22060556097E+02  0.00000000000E+00 0.  1.
         21    1    1    2  504  502  0.16374625751E+02 -0.12440728769E+02  0.14697028761E+03  0.14840204022E+03  0.00000000000E+00 0.  1.
</event>
<event>
 4    1  0.3069799E+006  0.3027212E+02  0.7546771E-02  0.1417246E+00
         21   -1    0    0  502  501  0.00000000000E+00  0.00000000000E+00  0.59549926171E+01  0.59549926171E+01  0.00000000000E+00 0. -1.
         21   -1    0    0  503  502 -0.00000000000E+00 -0.00000000000E+00 -0.50746439027E+03  0.50746439027E+03  0.00000000000E+00 0. -1.
         21    1    1    2  503  504 -0.16742764955E+02  0.25220645814E+02 -0.46503447533E+03  0.46601873825E+03  0.00000000000E+00 0. -1.
         21    1    1    2  504  501  0.16742764955E+02 -0.25220645814E+02 -0.36474922321E+02  0.47400644636E+02  0.00000000000E+00 0. -1.
</event>
<event>
 4    1  0.3069799E+006  0.2398612E+02  0.7546771E-02  0.1480473E+00
         21   -1    0    0  502  501  0.00000000000E+00  0.00000000000E+00  0.57772073442E+03  0.57772073442E+03  0.00000000000E+00 0. -1.
         21   -1    0    0  504  502 -0.00000000000E+00 -0.00000000000E+00 -0.19674936981E+01  0.19674936981E+01  0.00000000000E+00 0.  1.
         21    1    1    2  503  501  0.23592464238E+02  0.43277601573E+01  0.49156075244E+03  0.49214561587E+03  0.00000000000E+00 0. -1.
         21    1    1    2  504  503 -0.23592464238E+02 -0.43277601573E+01  0.84192488281E+02  0.87542612251E+02  0.00000000000E+00 0.  1.
</event>
<event>
 4    1  0.3069799E+006  0.2096788E+02  0.7546771E-02  0.1519724E+00
         21   -1    0    0  504  501  0.00000000000E+00  0.00000000000E+00  0.14115863794E+03  0.14115863794E+03  0.00000000000E+00 0. -1.
         21   -1    0    0  501  502 -0.00000000000E+00 -0.00000000000E+00 -0.68363820268E+02  0.68363820268E+02  0.00000000000E+00 0. -1.
         21    1    1    2  503  502  0.17736416145E+02  0.11183529986E+02 -0.65949588873E+02  0.69202601636E+02  0.00000000000E+00 0. -1.
         21    1    1    2  504  503 -0.17736416145E+02 -0.11183529986E+02  0.13874440655E+03  0.14031985658E+03  0.00000000000E+00 0. -1.
</event>
<event>
 4    1  0.3069799E+006  0.2573344E+02  0.7546771E-02  0.1460763E+00
         21   -1    0    0  503  501  0.00000000000E+00  0.00000000000E+00  0.29339185972E+03  0.29339185972E+03  0.00000000000E+00 0. -1.
         21   -1    0    0  504  502 -0.00000000000E+00 -0.00000000000E+00 -0.48964639474E+01  0.48964639474E+01  0.00000000000E+00 0.  1.
         21    1    1    2  503  502  0.25676300617E+02  0.17139232413E+01  0.25374816429E+03  0.25504968306E+03  0.00000000000E+00 0. -1.
         21    1    1    2  504  501 -0.25676300617E+02 -0.17139232413E+01  0.34747231482E+02  0.43238640611E+02  0.00000000000E+00 0.  1.
</event>
<event>
 4    1  0.3069799E+006  0.3907785E+02  0.7546771E-02  0.1353976E+00
         21   -1    0    0  504  501  0.00000000000E+00  0.00000000000E+00  0.31267090619E+03  0.31267090619E+03  0.00000000000E+00 0. -1.
         21   -1    0    0  503  502 -0.00000000000E+00 -0.00000000000E+00 -0.48986965017E+01  0.48986965017E+01  0.00000000000E+00 0.  1.
         21    1    1    2  503  501  0.21760883345E+02  0.32458311996E+02  0.16258951391E+03  0.16721970008E+03  0.00000000000E+00 0. -1.
         21    1    1    2  504  502 -0.21760883345E+02 -0.32458311996E+02  0.14518269578E+03  0.15034990261E+03  0.00000000000E+00 0.  1.
</event>
<event>
 4    1  0.3069799E+006  0.2879272E+02  0.7546771E-02  0.1430386E+00
         21   -1    0    0  504  501  0.00000000000E+00  0.00000000000E+00  0.12884865554E+03  0.12884865554E+03  0.00000000000E+00 0.  1.
         21   -1    0    0  501  502 -0.00000000000E+00 -0.00000000000E+00 -0.12209034867E+02  0.12209034867E+02  0.00000000000E+00 0.  1.
         21    1    1    2  503  502  0.43475622477E+01 -0.28462597426E+02  0.98131995709E+01  0.30419066974E+02  0.00000000000E+00 0.  1.
         21    1    1    2  504  503 -0.43475622477E+01  0.28462597426E+02  0.10682642110E+03  0.11063862343E+03  0.00000000000E+00 0.  1.
</event>
<event>
 4    1  0.3069799E+006  0.2477174E+02  0.7546771E-02  0.1471373E+00
         21   -1    0    0  504  501  0.00000000000E+00  0.00000000000E+00  0.44663284114E+03  0.44663284114E+03  0.00000000000E+00 0. -1.
         21   -1    0    0  503  502 -0.00000000000E+00 -0.00000000000E+00 -0.22078577636E+02  0.22078577636E+02  0.00000000000E+00 0. -1.
         21    1    1    2  503  501 -0.20131398345E+02  0.14434883157E+02  0.43922389325E+03  0.43992188790E+03  0.00000000000E+00 0. -1.
         21    1    1    2  504  502  0.20131398345E+02 -0.14434883157E+02 -0.14669629748E+02  0.28789530876E+02  0.00000000000E+00 0. -1.
</event>
<event>
 4    1  0.3069799E+006  0.2129565E+02  0.7546771E-02  0.1515085E+00
         21   -1    0    0  503  501  0.00000000000E+00  0.00000000000E+00  0.15383705184E+02  0.15383705184E+02  0.00000000000E+00 0. -1.
         21   -1    0    0  504  502 -0.00000000000E+00 -0.00000000000E+00 -0.30779733954E+02  0.30779733954E+02  0.00000000000E+00 0. -1.
         21    1    1    2  503  502 -0.21084881048E+02  0.29887109474E+01 -0.29540735741E+01  0.21499561685E+02  0.00000000000E+00 0. -1.
         21    1    1    2  504  501  0.21084881048E+02 -0.29887109474E+01 -0.12441955196E+02  0.24663877454E+02  0.00000000000E+00 0. -1.
</event>
<event>
 4    1  0.3069799E+006  0.2202500E+02  0.7546771E-02  0.1505118E+00
         21   -1    0    0  503  501  0.00000000000E+00  0.00000000000E+00  0.24344241425E+02  0.24344241425E+02  0.00000000000E+00 0. -1.
         21   -1    0    0  504  502 -0.00000000000E+00 -0.00000000000E+00 -0.20687972007E+02  0.20687972007E+02  0.00000000000E+00 0. -1.
         21    1    1    2  503  502 -0.14998014415E+02 -0.16129486426E+02 -0.24910312969E+01  0.22165423652E+02  0.00000000000E+00 0. -1.
         21    1    1    2  504  501  0.14998014415E+02  0.16129486426E+02  0.61473007150E+01  0.22866789780E+02  0.00000000000E+00 0. -1.
</event>
<event>
 4    1  0.3069799E+006  0.2271491E+02  0.7546771E-02  0.1496109E+00
         21   -1    0    0  504  501  0.00000000000E+00  0.00000000000E+00  0.49423879649E+02  0.49423879649E+02  0.00000000000E+00 0. -1.
         21   -1    0    0  503  502 -0.00000000000E+00 -0.00000000000E+00 -0.18866584267E+02  0.18866584267E+02  0.00000000000E+00 0. -1.
         21    1    1    2  503  501 -0.20126753129E+02 -0.10529991498E+02  0.38098813748E+02  0.44356358298E+02  0.00000000000E+00 0. -1.
         21    1    1    2  504  502  0.20126753129E+02  0.10529991498E+02 -0.75415183660E+01  0.23934105618E+02  0.00000000000E+00 0. -1.
</event>
<event>
 4    1  0.3069799E+006  0.2216377E+02  0.7546771E-02  0.1503274E+00
         21   -1    0    0  502  501  0.00000000000E+00  0.00000000000E+00  0.20020333551E+02  0.20020333551E+02  0.00000000000E+00 0.  1.
         21   -1    0    0  504  502 -0.00000000000E+00 -0.00000000000E+00 -0.26811142041E+02  0.26811142041E+02  0.00000000000E+00 0.  1.
         21    1    1    2  503  501  0.77867365918E+01 -0.20750894732E+02  0.34246482710E+01  0.22426794570E+02  0.00000000000E+00 0.  1.
         21    1    1    2  504  503 -0.77867365918E+01  0.20750894732E+02 -0.10215456762E+02  0.24404681022E+02  0.00000000000E+00 0.  1.
</event>
<event>
 4    1  0.3069799E+006  0.2077254E+02  0.7546771E-02  0.1522537E+00
         21   -1    0    0  503  501  0.00000000000E+00  0.00000000000E+00  0.76996064115E+02  0.76996064115E+02  0.00000000000E+00 0.  1.
         21   -1    0    0  504  502 -0.00000000000E+00 -0.00000000000E+00 -0.51817804409E+02  0.51817804409E+02  0.00000000000E+00 0.  1.
         21    1    1    2  503  502  0.16265704341E+02 -0.12919957686E+02 -0.48235324529E+02  0.52518044297E+02  0.00000000000E+00 0.  1.
         21    1    1    2  504  501 -0.16265704341E+02  0.12919957686E+02  0.73413584235E+02  0.76295824227E+02  0.00000000000E+00 0.  1.
</event>
<event>
 4    1  0.3069799E+006  0.2048820E+02  0.7546771E-02  0.1526699E+00
         21   -1    0    0  503  501  0.00000000000E+00  0.00000000000E+00  0.78149850314E+02  0.78149850314E+02  0.00000000000E+00 0.  1.
         21   -1    0    0  504  502 -0.00000000000E+00 -0.00000000000E+00 -0.93610235005E+02  0.93610235005E+02  0.00000000000E+00 0.  1.
         21    1    1    2  503  502 -0.15834201321E+02 -0.13001701882E+02 -0.91109966799E+02  0.93385182087E+02  0.00000000000E+00 0.  1.
         21    1    1    2  504  501  0.15834201321E+02  0.13001701882E+02  0.75649582109E+02  0.78374903232E+02  0.00000000000E+00 0.  1.
</event>
<event>
 4    1  0.3069799E+006  0.2614360E+02  0.7546771E-02  0.1456406E+00
         21   -1    0    0  504  501  0.00000000000E+00  0.00000000000E+00  0.61727543757E+02  0.61727543757E+02  0.00000000000E+00 0. -1.
         21   -1    0    0  503  502 -0.00000000000E+00 -0.00000000000E+00 -0.18629351227E+02  0.18629351227E+02  0.00000000000E+00 0. -1.
         21    1    1    2  503  501 -0.26043113930E+02  0.22899349306E+01 -0.40403192533E+01  0.26453955561E+02  0.00000000000E+00 0. -1.
         21    1    1    2  504  502  0.26043113930E+02 -0.22899349306E+01  0.47138511783E+02  0.53902939422E+02  0.00000000000E+00 0. -1.
</event>
<event>
 4    1  0.3069799E+006  0.2122722E+02  0.7546771E-02  0.1516045E+00
         21   -1    0    0  504  501  0.00000000000E+00  0.00000000000E+00  0.35754291026E+02  0.35754291026E+02  0.00000000000E+00 0. -1.
         21   -1    0    0  503  502 -0.00000000000E+00 -0.00000000000E+00 -0.13839885141E+02  0.13839885141E+02  0.00000000000E+00 0.  1.
         21    1    1    2  503  501 -0.17915232988E+02  0.11385924803E+02  0.18371671009E+02  0.28073353064E+02  0.00000000000E+00 0. -1.
         21    1    1    2  504  502  0.17915232988E+02 -0.11385924803E+02  0.35427348762E+01  0.21520823103E+02  0.00000000000E+00 0.  1.
</event>
<event>
 4    1  0.3069799E+006  0.2038086E+02  0.7546771E-02  0.1528291E+00
         21   -1    0    0  503  501  0.00000000000E+00  0.00000000000E+00  0.35498352600E+00  0.35498352600E+00  0.00000000000E+00 0.  1.
         21   -1    0    0  504  502 -0.00000000000E+00 -0.00000000000E+00 -0.15542838668E+04  0.15542838668E+04  0.00000000000E+00 0.  1.
         21    1    1    2  503  502 -0.17243668759E+02 -0.10864415247E+02 -0.11634048787E+04  0.11635833839E+04  0.00000000000E+00 0.  1.
         21    1    1    2  504  501  0.17243668759E+02  0.10864415247E+02 -0.39052400459E+03  0.39105546639E+03  0.00000000000E+00 0.  1.
</event>
<event>
 4    1  0.3069799E+006  0.2359084E+02  0.7546771E-02  0.1485209E+00
         21   -1    0    0  504  501  0.00000000000E+00  0.00000000000E+00  0.55606281338E+02  0.55606281338E+02  0.00000000000E+00 0. -1.
         21   -1    0    0  501  502 -0.00000000000E+00 -0.00000000000E+00 -0.10807863317E+02  0.10807863317E+02  0.00000000000E+00 0.  1.
         21    1    1    2  503  502 -0.23587158267E+02 -0.41685772340E+00  0.13367494573E+02  0.27114898425E+02  0.00000000000E+00 0.  1.
         21    1    1    2  504  503  0.23587158267E+02  0.41685772340E+00  0.31430923448E+02  0.39299246230E+02  0.00000000000E+00 0. -1.
</event>
<event>
 4    1  0.3069799E+006  0.3234670E+02  0.7546771E-02  0.1400242E+00
         21   -1    0    0  503  501  0.00000000000E+00  0.00000000000E+00  0.49289882175E+01  0.49289882175E+01  0.00000000000E+00 0.  1.
         21   -1    0    0  504  502 -0.00000000000E+00 -0.00000000000E+00 -0.21467053814E+03  0.21467053814E+03  0.00000000000E+00 0.  1.
         21    1    1    2  503  502  0.20568034234E+02  0.24965272256E+02 -0.93275746679E+02  0.98725243831E+02  0.00000000000E+00 0.  1.
         21    1    1    2  504  501 -0.20568034234E+02 -0.24965272256E+02 -0.11646580325E+03  0.12087428253E+03  0.00000000000E+00 0.  1.
</event>
<event>
 4    1  0.3069799E+006  0.2243479E+02  0.7546771E-02  0.1499720E+00
         21   -1    0    0  503  501  0.00000000000E+00  0.00000000000E+00  0.98656651620E+03  0.98656651620E+03  0.00000000000E+00 0. -1.
         21   -1    0    0  504  502 -0.00000000000E+00 -0.00000000000E+00 -0.75635145773E+00  0.75635145773E+00  0.00000000000E+00 0.  1.
         21    1    1    2  503  502 -0.18156955301E+02  0.13177440485E+02  0.77454361553E+03  0.77486846130E+03  0.00000000000E+00 0. -1.
         21    1    1    2  504  501  0.18156955301E+02 -0.13177440485E+02  0.21126654921E+03  0.21245440636E+03  0.00000000000E+00 0.  1.
</event>
<event>
 4    1  0.3069799E+006  0.2283534E+02  0.7546771E-02  0.1494576E+00
         21   -1    0    0  503  501  0.00000000000E+00  0.00000000000E+00  0.12002328687E+04  0.12002328687E+04  0.00000000000E+00 0. -1.
         21   -1    0    0  504  502 -0.00000000000E+00 -0.00000000000E+00 -0.90779310906E+00  0.90779310906E+00  0.00000000000E+00 0. -1.
         21    1    1    2  503  502  0.20644119180E+02 -0.97607925651E+01  0.10333272098E+04  0.10335794963E+04  0.00000000000E+00 0. -1.
         21    1    1    2  504  501 -0.20644119180E+02  0.97607925651E+01  0.16599786575E+03  0.16756116543E+03  0.00000000000E+00 0. -1.
</event>
<event>
 4    1  0.3069799E+006  0.2627386E+02  0.7546771E-02  0.1455042E+00
         21   -1    0    0  504  501  0.00000000000E+00  0.00000000000E+00  0.37703258242E+02  0.37703258242E+02  0.00000000000E+00 0. -1.
         21   -1    0    0  501  502 -0.00000000000E+00 -0.00000000000E+00 -0.23994405688E+02  0.23994405688E+02  0.00000000000E+00 0. -1.
         21    1    1    2  503  502  0.25112948892E+02  0.77236932996E+01 -0.81616921182E+01  0.27512340113E+02  0.00000000000E+00 0. -1.
         21    1    1    2  504  503 -0.25112948892E+02 -0.77236932996E+01  0.21870544672E+02  0.34185323817E+02  0.00000000000E+00 0. -1.
</event>
<event>
 4    1  0.3069799E+006  0.2457099E+02  0.7546771E-02  0.1473660E+00
         21   -1    0    0  504  501  0.00000000000E+00  0.00000000000E+00  0.53740605021E+02  0.53740605021E+02  0.00000000000E+00 0. -1.
         21   -1    0    0  503  502 -0.00000000000E+00 -0.00000000000E+00 -0.14232559499E+02  0.14232559499E+02  0.00000000000E+00 0. -1.
         21    1    1    2  503  501  0.24556128969E+02 -0.85451825250E+00  0.41546714637E+01  0.24919770592E+02  0.00000000000E+00 0. -1.
         21    1    1    2  504  502 -0.24556128969E+02  0.85451825250E+00  0.35353374059E+02  0.43053393928E+02  0.00000000000E+00 0. -1.
</event>
<event>
 4    1  0.3069799E+006  0.2017226E+02  0.7546771E-02  0.1531419E+00
         21   -1    0    0  502  501  0.00000000000E+00  0.00000000000E+00  0.67760697925E+03  0.67760697925E+03  0.00000000000E+00 0. -1.
         21   -1    0    0  503  502 -0.00000000000E+00 -0.00000000000E+00 -0.16013255795E+01  0.16013255795E+01  0.00000000000E+00 0.  1.
         21    1    1    2  503  504  0.94774356846E+01  0.17807248653E+02  0.69525906164E+02  0.72393173156E+02  0.00000000000E+00 0.  1.
         21    1    1    2  504  501 -0.94774356846E+01 -0.17807248653E+02  0.60647974751E+03  0.60681513167E+03  0.00000000000E+00 0. -1.
</event>
<event>
 4    1  0.3069799E+006  0.2162712E+02  0.7546771E-02  0.1510497E+00
         21   -1    0    0  504  501  0.00000000000E+00  0.00000000000E+00  0.10464662695E+03  0.10464662695E+03  0.00000000000E+00 0. -1.
         21   -1    0    0  501  502 -0.00000000000E+00 -0.00000000000E+00 -0.36999877962E+02  0.36999877962E+02  0.00000000000E+00 0. -1.
         21    1    1    2  503  502  0.20917137438E+02  0.54959638347E+01 -0.32584468329E+02  0.39108564705E+02  0.00000000000E+00 0. -1.
         21    1    1    2  504  503 -0.20917137438E+02 -0.54959638347E+01  0.10023121732E+03  0.10253794021E+03  0.00000000000E+00 0. -1.
</event>
<event>
 4    1  0.3069799E+006  0.2514040E+02  0.7546771E-02  0.1467239E+00
         21   -1    0    0  504  501  0.00000000000E+00  0.00000000000E+00  0.11220059587E+01  0.11220059587E+01  0.00000000000E+00 0. -1.
         21   -1    0    0  503  502 -0.00000000000E+00 -0.00000000000E+00 -0.65694207197E+03  0.65694207197E+03  0.00000000000E+00 0. -1.
         21    1    1    2  503  501 -0.15621892086E+02 -0.19697623753E+02 -0.45212712306E+03  0.45282554621E+03  0.00000000000E+00 0. -1.
         21    1    1    2  504  502  0.15621892086E+02  0.19697623753E+02 -0.20369294294E+03  0.20523853171E+03  0.00000000000E+00 0. -1.
</event>
<event>
 4    1  0.3069799E+006  0.3773447E+02  0.7546771E-02  0.1362299E+00
         21   -1    0    0  504  501  0.00000000000E+00  0.00000000000E+00  0.31221444708E+03  0.31221444708E+03  0.00000000000E+00 0.  1.
         21   -1    0    0  501  502 -0.00000000000E+00 -0.00000000000E+00 -0.17777022053E+02  0.17777022053E+02  0.00000000000E+00 0.  1.
         21    1    1    2  503  502  0.15985112415E+01  0.37700599645E+02  0.49531173791E+01  0.38058163691E+02  0.00000000000E+00 0.  1.
         21    1    1    2  504  503 -0.15985112415E+01 -0.37700599645E+02  0.28948430765E+03  0.29193330545E+03  0.00000000000E+00 0.  1.
</event>
<event>
 4    1  0.3069799E+006  0.4122561E+02  0.7546771E-02  0.1341450E+00
         21   -1    0    0  504  501  0.00000000000E+00  0.00000000000E+00  0.40327338852E+02  0.40327338852E+02  0.00000000000E+00 0.  1.
         21   -1    0    0  503  502 -0.00000000000E+00 -0.00000000000E+00 -0.37913775395E+03  0.37913775395E+03  0.00000000000E+00 0. -1.
         21    1    1    2  503  501  0.27746633821E+01  0.41132127533E+02  0.28327409323E+02  0.50019923943E+02  0.00000000000E+00 0.  1.
         21    1    1    2  504  502 -0.27746633821E+01 -0.41132127533E+02 -0.36713782442E+03  0.36944516885E+03  0.00000000000E+00 0. -1.
</event>
<event>
 4    1  0.3069799E+006  0.3450665E+02  0.7546771E-02  0.1384065E+00
         21   -1    0    0  503  501  0.00000000000E+00  0.00000000000E+00  0.49201731552E+03  0.49201731552E+03  0.00000000000E+00 0.  1.
         21   -1    0    0  504  502 -0.00000000000E+00 -0.00000000000E+00 -0.15925285122E+02  0.15925285122E+02  0.00000000000E+00 0.  1.
         21    1    1    2  503  502  0.87385353263E+01 -0.33381835441E+02  0.47192544670E+03  0.47318530850E+03  0.00000000000E+00 0.  1.
         21    1    1    2  504  501 -0.87385353263E+01  0.33381835441E+02  0.41665836948E+01  0.34757292138E+02  0.00000000000E+00 0.  1.
</event>
<event>
 4    1  0.3069799E+006  0.2063881E+02  0.7546771E-02  0.1524485E+00
         21   -1    0    0  503  501  0.00000000000E+00  0.00000000000E+00  0.10068493641E+02  0.10068493641E+02  0.00000000000E+00 0. -1.
         21   -1    0    0  504  502 -0.00000000000E+00 -0.00000000000E+00 -0.64299093927E+03  0.64299093927E+03  0.00000000000E+00 0. -1.
         21    1    1    2  503  502 -0.46853521729E+01 -0.20099953136E+02 -0.63206598694E+03  0.63240285617E+03  0.00000000000E+00 0. -1.
         21    1    1    2  504  501  0.46853521729E+01  0.20099953136E+02 -0.85645868274E+00  0.20656576738E+02  0.00000000000E+00 0. -1.
</event>
<event>
 4    1  0.3069799E+006  0.2913109E+02  0.7546771E-02  0.1427300E+00
         21   -1    0    0  503  501  0.00000000000E+00  0.00000000000E+00  0.15098989197E+03  0.15098989197E+03  0.00000000000E+00 0. -1.
         21   -1    0    0  504  502 -0.00000000000E+00 -0.00000000000E+00 -0.67200702842E+01  0.67200702842E+01  0.00000000000E+00 0. -1.
         21    1    1    2  503  502  0.63884381589E+00  0.29124081759E+02  0.10403396626E+03  0.10803557930E+03  0.00000000000E+00 0. -1.
         21    1    1    2  504  501 -0.63884381589E+00 -0.29124081759E+02  0.40235855428E+02  0.49674382953E+02  0.00000000000E+00 0. -1.
</event>
<event>
 4    1  0.3069799E+006  0.3365963E+02  0.7546771E-02  0.1390239E+00
         21   -1    0    0  504  501  0.00000000000E+00  0.00000000000E+00  0.84269095484E+02  0.84269095484E+02  0.00000000000E+00 0. -1.
         21   -1    0    0  503  502 -0.00000000000E+00 -0.00000000000E+00 -0.18979272442E+02  0.18979272442E+02  0.00000000000E+00 0. -1.
         21    1    1    2  503  501 -0.33027132355E+02 -0.64945654530E+01  0.47672512035E+01  0.33995551710E+02  0.00000000000E+00 0. -1.
         21    1    1    2  504  502  0.33027132355E+02  0.64945654530E+01  0.60522571838E+02  0.69252816216E+02  0.00000000000E+00 0. -1.
</event>
<event>
 4    1  0.3069799E+006  0.2872220E+02  0.7546771E-02  0.1431035E+00
         21   -1    0    0  503  501  0.00000000000E+00  0.00000000000E+00  0.42581913467E+02  0.42581913467E+02  0.00000000000E+00 0.  1.
         21   -1    0    0  501  502 -0.00000000000E+00 -0.00000000000E+00 -0.13034903370E+03  0.13034903370E+03  0.00000000000E+00 0.  1.
         21    1    1    2  503  504  0.57438510207E+01 -0.28142014479E+02  0.35897949389E+02  0.45974205527E+02  0.00000000000E+00 0.  1.
         21    1    1    2  504  502 -0.57438510207E+01  0.28142014479E+02 -0.12366506962E+03  0.12695674164E+03  0.00000000000E+00 0.  1.
</event>
<event>
 4    1  0.3069799E+006  0.2691881E+02  0.7546771E-02  0.1448425E+00
         21   -1    0    0  503  501  0.00000000000E+00  0.00000000000E+00  0.13237648903E+03  0.13237648903E+03  0.00000000000E+00 0.  1.
         21   -1    0    0  504  502 -0.00000000000E+00 -0.00000000000E+00 -0.61711936183E+01  0.61711936183E+01  0.00000000000E+00 0.  1.
         21    1    1    2  503  502 -0.14693435040E+02 -0.22554938464E+02  0.39817609347E+02  0.48063128243E+02  0.00000000000E+00 0.  1.
         21    1    1    2  504  501  0.14693435040E+02  0.22554938464E+02  0.86387686065E+02  0.90484554406E+02  0.00000000000E+00 0.  1.
</event>
<event>
 4    1  0.3069799E+006  0.2255767E+02  0.7546771E-02  0.1498128E+00
         21   -1    0    0  504  501  0.00000000000E+00  0.00000000000E+00  0.49969328426E+03  0.49969328426E+03  0.00000000000E+00 0. -1.
         21   -1    0    0  503  502 -0.00000000000E+00 -0.00000000000E+00 -0.21013126719E+01  0.21013126719E+01  0.00000000000E+00 0. -1.
         21    1    1    2  503  501 -0.11591853613E+02 -0.19351416210E+02  0.68675496654E+02  0.72285352736E+02  0.00000000000E+00 0. -1.
         21    1    1    2  504  502  0.11591853613E+02  0.19351416210E+02  0.42891647493E+03  0.42950924419E+03  0.00000000000E+00 0. -1.
</event>
<event>
 4    1  0.3069799E+006  0.2208633E+02  0.7546771E-02  0.1504301E+00
         21   -1    0    0  503  501  0.00000000000E+00  0.00000000000E+00  0.43568157491E+01  0.43568157491E+01  0.00000000000E+00 0. -1.
         21   -1    0    0  504  502 -0.00000000000E+00 -0.00000000000E+00 -0.28801965944E+03  0.28801965944E+03  0.00000000000E+00 0. -1.
         21    1    1    2  503  502  0.19284029146E+02 -0.10767180336E+02 -0.27536609335E+02  0.35299728132E+02  0.00000000000E+00 0. -1.
         21    1    1    2  504  501 -0.19284029146E+02  0.10767180336E+02 -0.25612623436E+03  0.25707674706E+03  0.00000000000E+00 0. -1.
</event>
<event>
 4    1  0.3069799E+006  0.2091466E+02  0.7546771E-02  0.1520487E+00
         21   -1    0    0  503  501  0.00000000000E+00  0.00000000000E+00  0.15154351960E+01  0.15154351960E+01  0.00000000000E+00 0. -1.
         21   -1    0    0  501  502 -0.00000000000E+00 -0.00000000000E+00 -0.28937317278E+03  0.28937317278E+03  0.00000000000E+00 0. -1.
         21    1    1    2  503  504 -0.14980817713E+02 -0.14594461453E+02 -0.15122350541E+03  0.15266293523E+03  0.00000000000E+00 0. -1.
         21    1    1    2  504  502  0.14980817713E+02  0.14594461453E+02 -0.13663423217E+03  0.13822567274E+03  0.00000000000E+00 0. -1.
</event>
<event>
 4    1  0.3069799E+006  0.2963290E+02  0.7546771E-02  0.1422814E+00
         21   -1    0    0  504  501  0.00000000000E+00  0.00000000000E+00  0.82541995638E+03  0.82541995638E+03  0.00000000000E+00 0. -1.
         21   -1    0    0  503  502 -0.00000000000E+00 -0.00000000000E+00 -0.26840616261E+01  0.26840616261E+01  0.00000000000E+00 0. -1.
         21    1    1    2  503  501  0.17571004578E+02 -0.23861444610E+02  0.73306482480E+03  0.73366351013E+03  0.00000000000E+00 0. -1.
         21    1    1    2  504  502 -0.17571004578E+02  0.23861444610E+02  0.89671069958E+02  0.94440507878E+02  0.00000000000E+00 0. -1.
</event>
<event>
 4    1  0.3069799E+006  0.3212808E+02  0.7546771E-02  0.1401962E+00
         21   -1    0    0  503  501  0.00000000000E+00  0.00000000000E+00  0.12635015334E+02  0.12635015334E+02  0.00000000000E+00 0.  1.
         21   -1    0    0  504  502 -0.00000000000E+00 -0.00000000000E+00 -0.13373019473E+03  0.13373019473E+03  0.00000000000E+00 0. -1.
         21    1    1    2  503  502  0.16071548116E+02 -0.27819394694E+02 -0.10619783385E+03  0.11095131047E+03  0.00000000000E+00 0. -1.
         21    1    1    2  504  501 -0.16071548116E+02  0.27819394694E+02 -0.14897345536E+02  0.35413899587E+02  0.00000000000E+00 0.  1.
</event>
<event>
 4    1  0.3069799E+006  0.2048614E+02  0.7546771E-02  0.1526729E+00
         21   -1    0    0  503  501  0.00000000000E+00  0.00000000000E+00  0.79512203577E+01  0.79512203577E+01  0.00000000000E+00 0. -1.
         21   -1    0    0  504  502 -0.00000000000E+00 -0.00000000000E+00 -0.10083254505E+04  0.10083254505E+04  0.00000000000E+00 0. -1.
         21    1    1    2  503  502  0.11144534860E+02  0.17189573644E+02 -0.99484711558E+03  0.99505802116E+03  0.00000000000E+00 0. -1.
         21    1    1    2  504  501 -0.11144534860E+02 -0.17189573644E+02 -0.55271145536E+01  0.21218649688E+02  0.00000000000E+00 0. -1.
</event>
<event>
 4    1  0.3069799E+006  0.3232882E+02  0.7546771E-02  0.1400382E+00
         21   -1    0    0  503  501  0.00000000000E+00  0.00000000000E+00  0.23445130142E+03  0.23445130142E+03  0.00000000000E+00 0. -1.
         21   -1    0    0  504  502 -0.00000000000E+00 -0.00000000000E+00 -0.65061414670E+02  0.65061414670E+02  0.00000000000E+00 0. -1.
         21    1    1    2  503  502  0.26733217518E+02  0.18179318272E+02  0.22922978325E+03  0.23149826362E+03  0.00000000000E+00 0. -1.
         21    1    1    2  504  501 -0.26733217518E+02 -0.18179318272E+02 -0.59839896498E+02  0.68014452468E+02  0.00000000000E+00 0. -1.
</event>
<event>
 4    1  0.3069799E+006  0.4605806E+02  0.7546771E-02  0.1316232E+00
         21   -1    0    0  504  501  0.00000000000E+00  0.00000000000E+00  0.19882112335E+04  0.19882112335E+04  0.00000000000E+00 0.  1.
         21   -1    0    0  501  502 -0.00000000000E+00 -0.00000000000E+00 -0.19162956277E+01  0.19162956277E+01  0.00000000000E+00 0.  1.
         21    1    1    2  503  502  0.28516466270E+02 -0.36168441046E+02  0.33068858696E+03  0.33388064712E+03  0.00000000000E+00 0.  1.
         21    1    1    2  504  503 -0.28516466270E+02  0.36168441046E+02  0.16556063509E+04  0.16562468820E+04  0.00000000000E+00 0.  1.
</event>
<event>
 4    1  0.3069799E+006  0.2047022E+02  0.7546771E-02  0.1526965E+00
         21   -1    0    0  504  501  0.00000000000E+00  0.00000000000E+00  0.75571508494E+02  0.75571508494E+02  0.00000000000E+00 0. -1.
         21   -1    0    0  501  502 -0.00000000000E+00 -0.00000000000E+00 -0.11315316119E+02  0.11315316119E+02  0.00000000000E+00 0. -1.
         21    1    1    2  503  502  0.12182175450E+02 -0.16450664036E+02  0.11041175653E+01  0.20499971256E+02  0.00000000000E+00 0. -1.
         21    1    1    2  504  503 -0.12182175450E+02  0.16450664036E+02  0.63152074810E+02  0.66386853357E+02  0.00000000000E+00 0. -1.
</event>
<event>
 4    1  0.3069799E+006  0.2141515E+02  0.7546771E-02  0.1513419E+00
         21   -1    0    0  503  501  0.00000000000E+00  0.00000000000E+00  0.60738955778E+02  0.60738955778E+02  0.00000000000E+00 0.  1.
         21   -1    0    0  501  502 -0.00000000000E+00 -0.00000000000E+00 -0.10830763989E+02  0.10830763989E+02  0.00000000000E+00 0.  1.
         21    1    1    2  503  504  0.14282978574E+02 -0.15956346851E+02  0.44647702898E+02  0.49517934688E+02  0.00000000000E+00 0.  1.
         21    1    1    2  504  502 -0.14282978574E+02  0.15956346851E+02  0.52604888921E+01  0.22051785079E+02  0.00000000000E+00 0.  1.
</event>
<event>
 4    1  0.3069799E+006  0.3341979E+02  0.7546771E-02  0.1392026E+00
         21   -1    0    0  502  501  0.00000000000E+00  0.00000000000E+00  0.30475483579E+03  0.30475483579E+03  0.00000000000E+00 0.  1.
         21   -1    0    0  503  502 -0.00000000000E+00 -0.00000000000E+00 -0.21969358377E+03  0.21969358377E+03  0.00000000000E+00 0.  1.
         21    1    1    2  503  504 -0.25116166269E+02 -0.22046779277E+02 -0.21749721713E+03  0.22004981650E+03  0.00000000000E+00 0.  1.
         21    1    1    2  504  501  0.25116166269E+02  0.22046779277E+02  0.30255846915E+03  0.30439860305E+03  0.00000000000E+00 0.  1.
</event>
<event>
 4    1  0.3069799E+006  0.2108928E+02  0.7546771E-02  0.1517994E+00
         21   -1    0    0  504  501  0.00000000000E+00  0.00000000000E+00  0.57222864056E+02  0.57222864056E+02  0.00000000000E+00 0.  1.
         21   -1    0    0  503  502 -0.00000000000E+00 -0.00000000000E+00 -0.52587237462E+02  0.52587237462E+02  0.00000000000E+00 0. -1.
         21    1    1    2  503  501 -0.21076216499E+02 -0.74228930366E+00  0.53003242022E+02  0.57044732975E+02  0.00000000000E+00 0.  1.
         21    1    1    2  504  502  0.21076216499E+02  0.74228930366E+00 -0.48367615428E+02  0.52765368543E+02  0.00000000000E+00 0. -1.
</event>
<event>
 4    1  0.3069799E+006  0.3317410E+02  0.7546771E-02  0.1393875E+00
         21   -1    0    0  502  501  0.00000000000E+00  0.00000000000E+00  0.80293420050E+02  0.80293420050E+02  0.00000000000E+00 0.  1.
         21   -1    0    0  504  502 -0.00000000000E+00 -0.00000000000E+00 -0.10061985511E+03  0.10061985511E+03  0.00000000000E+00 0.  1.
         21    1    1    2  503  501  0.28025987848E+02  0.17750071770E+02  0.73907063431E+02  0.81010956467E+02  0.00000000000E+00 0.  1.
         21    1    1    2  504  503 -0.28025987848E+02 -0.17750071770E+02 -0.94233498492E+02  0.99902318696E+02  0.00000000000E+00 0.  1.
</event>
<event>
 4    1  0.3069799E+006  0.2373953E+02  0.7546771E-02  0.1483415E+00
         21   -1    0    0  504  501  0.00000000000E+00  0.00000000000E+00  0.30510210348E+02  0.30510210348E+02  0.00000000000E+00 0. -1.
         21   -1    0    0  503  502 -0.00000000000E+00 -0.00000000000E+00 -0.33060962908E+02  0.33060962908E+02  0.00000000000E+00 0.  1.
         21    1    1    2  503  501 -0.21415151219E+02  0.10244822457E+02 -0.22390528320E+02  0.32632818563E+02  0.00000000000E+00 0.  1.
         21    1    1    2  504  502  0.21415151219E+02 -0.10244822457E+02  0.19839775760E+02  0.30938354693E+02  0.00000000000E+00 0. -1.
</event>
<event>
 4    1  0.3069799E+006  0.3116865E+02  0.7546771E-02  0.1409706E+00
         21   -1    0    0  502  501  0.00000000000E+00  0.00000000000E+00  0.11900611836E+03  0.11900611836E+03  0.00000000000E+00 0. -1.
         21   -1    0    0  503  502 -0.00000000000E+00 -0.00000000000E+00 -0.83337033744E+01  0.83337033744E+01  0.00000000000E+00 0. -1.
         21    1    1    2  503  504  0.13169460232E+02  0.28249775338E+02  0.46232158681E+02  0.55757483675E+02  0.00000000000E+00 0. -1.
         21    1    1    2  504  501 -0.13169460232E+02 -0.28249775338E+02  0.64440256302E+02  0.71582338057E+02  0.00000000000E+00 0. -1.
</event>
<event>
 4    1  0.3069799E+006  0.3349393E+02  0.7546771E-02  0.1391472E+00
         21   -1    0    0  503  501  0.00000000000E+00  0.00000000000E+00  0.97695491218E+02  0.97695491218E+02  0.00000000000E+00 0. -1.
         21   -1    0    0  501  502 -0.00000000000E+00 -0.00000000000E+00 -0.23160119330E+03  0.23160119330E+03  0.00000000000E+00 0. -1.
         21    1    1    2  503  504 -0.29262507733E+02  0.16295668404E+02  0.93561873139E+02  0.99376391929E+02  0.00000000000E+00 0. -1.
         21    1    1    2  504  502  0.29262507733E+02 -0.16295668404E+02 -0.22746757522E+03  0.22992029259E+03  0.00000000000E+00 0. -1.
</event>
<event>
 4    1  0.3069799E+006  0.2320827E+02  0.7546771E-02  0.1489899E+00
         21   -1    0    0  503  501  0.00000000000E+00  0.00000000000E+00  0.16067896628E+01  0.16067896628E+01  0.00000000000E+00 0.  1.
         21   -1    0    0  504  502 -0.00000000000E+00 -0.00000000000E+00 -0.56345949554E+03  0.56345949554E+03  0.00000000000E+00 0.  1.
         21    1    1    2  503  502  0.17951885977E+02  0.14708964541E+02 -0.46074549660E+03  0.46132963972E+03  0.00000000000E+00 0.  1.
         21    1    1    2  504  501 -0.17951885977E+02 -0.14708964541E+02 -0.10110720928E+03  0.10373664548E+03  0.00000000000E+00 0.  1.
</event>
<event>
 4    1  0.3069799E+006  0.2721836E+02  0.7546771E-02  0.1445427E+00
         21   -1    0    0  502  501  0.00000000000E+00  0.00000000000E+00  0.85563733396E+02  0.85563733396E+02  0.00000000000E+00 0. -1.
         21   -1    0    0  504  502 -0.00000000000E+00 -0.00000000000E+00 -0.71896967461E+02  0.71896967461E+02  0.00000000000E+00 0. -1.
         21    1    1    2  503  501 -0.16545553076E+02 -0.21612122822E+02  0.80671080308E+02  0.85139076677E+02  0.00000000000E+00 0. -1.
         21    1    1    2  504  503  0.16545553076E+02  0.21612122822E+02 -0.67004314372E+02  0.72321624180E+02  0.00000000000E+00 0. -1.
</event>
<event>
 4    1  0.3069799E+006  0.2569517E+02  0.7546771E-02  0.1461175E+00
         21   -1    0    0  503  501  0.00000000000E+00  0.00000000000E+00  0.58995858351E+03  0.58995858351E+03  0.00000000000E+00 0. -1.
         21   -1    0    0  504  502 -0.00000000000E+00 -0.00000000000E+00 -0.11197864394E+01  0.11197864394E+01  0.00000000000E+00 0. -1.
         21    1    1    2  503  502 -0.70479379225E+01 -0.24709685092E+02  0.28727877121E+03  0.28842561321E+03  0.00000000000E+00 0. -1.
         21    1    1    2  504  501  0.70479379225E+01  0.24709685092E+02  0.30156002586E+03  0.30265275674E+03  0.00000000000E+00 0. -1.
</event>
<event>
 4    1  0.3069799E+006  0.3827791E+02  0.7546771E-02  0.1358884E+00
         21   -1    0    0  503  501  0.00000000000E+00  0.00000000000E+00  0.11115196836E+03  0.11115196836E+03  0.00000000000E+00 0.  1.
         21   -1    0    0  504  502 -0.00000000000E+00 -0.00000000000E+00 -0.35250789323E+03  0.35250789323E+03  0.00000000000E+00 0. -1.
         21    1    1    2  503  502  0.38014376966E+02  0.44839452865E+01  0.10677605981E+03  0.11342982664E+03  0.00000000000E+00 0.  1.
         21    1    1    2  504  501 -0.38014376966E+02 -0.44839452865E+01 -0.34813198468E+03  0.35023003495E+03  0.00000000000E+00 0. -1.
</event>
<event>
 4    1  0.3069799E+006  0.2896099E+02  0.7546771E-02  0.1428845E+00
         21   -1    0    0  504  501  0.00000000000E+00  0.00000000000E+00  0.19058794257E+02  0.19058794257E+02  0.00000000000E+00 0. -1.
         21   -1    0    0  503  502 -0.00000000000E+00 -0.00000000000E+00 -0.48196451780E+02  0.48196451780E+02  0.00000000000E+00 0. -1.
         21    1    1    2  503  501  0.23427974416E+02  0.17025532454E+02 -0.24482105695E+02  0.37922450341E+02  0.00000000000E+00 0. -1.
         21    1    1    2  504  502 -0.23427974416E+02 -0.17025532454E+02 -0.46555518277E+01  0.29332795697E+02  0.00000000000E+00 0. -1.
</event>
<event>
 4    1  0.3069799E+006  0.2462132E+02  0.7546771E-02  0.1473084E+00
         21   -1    0    0  503  501  0.00000000000E+00  0.00000000000E+00  0.52539798696E+02  0.52539798696E+02  0.00000000000E+00 0. -1.
         21   -1    0    0  504  502 -0.00000000000E+00 -0.00000000000E+00 -0.11597230399E+02  0.11597230399E+02  0.00000000000E+00 0. -1.
         21    1    1    2  503  502  0.60861174088E+01  0.23857253090E+02  0.22761171832E+02  0.33530289192E+02  0.00000000000E+00 0. -1.
         21    1    1    2  504  501 -0.60861174088E+01 -0.23857253090E+02  0.18181396465E+02  0.30606739904E+02  0.00000000000E+00 0. -1.
</event>
<event>
 4    1  0.3069799E+006  0.3401539E+02  0.7546771E-02  0.1387621E+00
         21   -1    0    0  504  501  0.00000000000E+00  0.00000000000E+00  0.10326090255E+03  0.10326090255E+03  0.00000000000E+00 0.  1.
         21   -1    0    0  503  502 -0.00000000000E+00 -0.00000000000E+00 -0.11277883199E+03  0.11277883199E+03  0.00000000000E+00 0. -1.
         21    1    1    2  503  501 -0.20198733850E+02  0.27368923869E+02 -0.10727235276E+03  0.11253623643E+03  0.00000000000E+00 0. -1.
         21    1    1    2  504  502  0.20198733850E+02 -0.27368923869E+02  0.97754423317E+02  0.10350349811E+03  0.00000000000E+00 0.  1.
</event>
<event>
 4    1  0.3069799E+006  0.4688398E+02  0.7546771E-02  0.1312279E+00
         21   -1    0    0  504  501  0.00000000000E+00  0.00000000000E+00  0.12038109135E+02  0.12038109135E+02  0.00000000000E+00 0.  1.
         21   -1    0    0  503  502 -0.00000000000E+00 -0.00000000000E+00 -0.18545062085E+03  0.18545062085E+03  0.00000000000E+00 0.  1.
         21    1    1    2  503  501  0.39903623266E+02 -0.24613176866E+02 -0.98957805822E+02  0.10950230572E+03  0.00000000000E+00 0.  1.
         21    1    1    2  504  502 -0.39903623266E+02  0.24613176866E+02 -0.74454705892E+02  0.87986424264E+02  0.00000000000E+00 0.  1.
</event>
<event>
 4    1  0.3069799E+006  0.2473447E+02  0.7546771E-02  0.1471796E+00
         21   -1    0    0  504  501  0.00000000000E+00  0.00000000000E+00  0.86548116829E+02  0.86548116829E+02  0.00000000000E+00 0.  1.
         21   -1    0    0  503  502 -0.00000000000E+00 -0.00000000000E+00 -0.33900357495E+02  0.33900357495E+02  0.00000000000E+00 0. -1.
         21    1    1    2  503  501  0.21096960730E+02  0.12911714859E+02  0.79902539685E+02  0.83643349890E+02  0.00000000000E+00 0.  1.
         21    1    1    2  504  502 -0.21096960730E+02 -0.12911714859E+02 -0.27254780351E+02  0.36805124434E+02  0.00000000000E+00 0. -1.
</event>
<event>
 4    1  0.3069799E+006  0.2038813E+02  0.7546771E-02  0.1528183E+00
         21   -1    0    0  503  501  0.00000000000E+00  0.00000000000E+00  0.33108686663E+02  0.33108686663E+02  0.00000000000E+00 0. -1.
         21   -1    0    0  504  502 -0.00000000000E+00 -0.00000000000E+00 -0.38187495713E+02  0.38187495713E+02  0.00000000000E+00 0.  1.
         21    1    1    2  503  502  0.15640945560E+02 -0.13078103381E+02 -0.31745402936E+02  0.37728590930E+02  0.00000000000E+00 0.  1.
         21    1    1    2  504  501 -0.15640945560E+02  0.13078103381E+02  0.26666593886E+02  0.33567591446E+02  0.00000000000E+00 0. -1.
</event>
<event>
 4    1  0.3069799E+006  0.2180414E+02  0.7546771E-02  0.1508086E+00
         21   -1    0    0  502  501  0.00000000000E+00  0.00000000000E+00  0.13727165743E+02  0.13727165743E+02  0.00000000000E+00 0.  1.
         21   -1    0    0  503  502 -0.00000000000E+00 -0.00000000000E+00 -0.37151818397E+02  0.37151818397E+02  0.00000000000E+00 0.  1.
         21    1    1    2  503  504  0.14031229800E+02  0.16689675213E+02 -0.18335531812E+02  0.28488811756E+02  0.00000000000E+00 0.  1.
         21    1    1    2  504  501 -0.14031229800E+02 -0.16689675213E+02 -0.50891208422E+01  0.22390172384E+02  0.00000000000E+00 0.  1.
</event>
<event>
 4    1  0.3069799E+006  0.2137903E+02  0.7546771E-02  0.1513922E+00
         21   -1    0    0  502  501  0.00000000000E+00  0.00000000000E+00  0.19950941414E+03  0.19950941414E+03  0.00000000000E+00 0.  1.
         21   -1    0    0  504  502 -0.00000000000E+00 -0.00000000000E+00 -0.10320923694E+03  0.10320923694E+03  0.00000000000E+00 0. -1.
         21    1    1    2  503  501  0.66629987450E+01  0.20314218429E+02  0.19782012638E+03  0.19897202171E+03  0.00000000000E+00 0.  1.
         21    1    1    2  504  503 -0.66629987450E+01 -0.20314218429E+02 -0.10151994918E+03  0.10374662936E+03  0.00000000000E+00 0. -1.
</event>
<event>
 4    1  0.3069799E+006  0.2010090E+02  0.7546771E-02  0.1532499E+00
         21   -1    0    0  504  501  0.00000000000E+00  0.00000000000E+00  0.43304420498E+03  0.43304420498E+03  0.00000000000E+00 0. -1.
         21   -1    0    0  501  502 -0.00000000000E+00 -0.00000000000E+00 -0.23158194516E+01  0.23158194516E+01  0.00000000000E+00 0.  1.
         21    1    1    2  503  502 -0.62958031164E+01  0.19089506104E+02  0.47157569417E+02  0.51262878709E+02  0.00000000000E+00 0.  1.
         21    1    1    2  504  503  0.62958031164E+01 -0.19089506104E+02  0.38357081611E+03  0.38409714572E+03  0.00000000000E+00 0. -1.
</event>
<event>
 4    1  0.3069799E+006  0.2095132E+02  0.7546771E-02  0.1519961E+00
         21   -1    0    0  504  501  0.00000000000E+00  0.00000000000E+00  0.62360399958E+01  0.62360399958E+01  0.00000000000E+00 0. -1.
         21   -1    0    0  501  502 -0.00000000000E+00 -0.00000000000E+00 -0.17210977642E+03  0.17210977642E+03  0.00000000000E+00 0. -1.
         21    1    1    2  503  502  0.17031163794E+01 -0.20881978490E+02 -0.15149072748E+03  0.15293265885E+03  0.00000000000E+00 0. -1.
         21    1    1    2  504  503 -0.17031163794E+01  0.20881978490E+02 -0.14383008943E+02  0.25413157563E+02  0.00000000000E+00 0. -1.
</event>
<event>
 4    1  0.3069799E+006  0.2590253E+02  0.7546771E-02  0.1458955E+00
         21   -1    0    0  503  501  0.00000000000E+00  0.00000000000E+00  0.49180213250E+01  0.49180213250E+01  0.00000000000E+00 0.  1.
         21   -1    0    0  501  502 -0.00000000000E+00 -0.00000000000E+00 -0.54710182438E+03  0.54710182438E+03  0.00000000000E+00 0.  1.
         21    1    1    2  503  504 -0.24997646277E+02 -0.67866774767E+01 -0.31958255921E+02  0.41137226840E+02  0.00000000000E+00 0.  1.
         21    1    1    2  504  502  0.24997646277E+02  0.67866774767E+01 -0.51022554713E+03  0.51088261886E+03  0.00000000000E+00 0.  1.
</event>
<event>
 4    1  0.3069799E+006  0.2049974E+02  0.7546771E-02  0.1526529E+00
         21   -1    0    0  502  501  0.00000000000E+00  0.00000000000E+00  0.13995910901E+03  0.13995910901E+03  0.00000000000E+00 0.  1.
         21   -1    0    0  504  502 -0.00000000000E+00 -0.00000000000E+00 -0.11186429653E+03  0.11186429653E+03  0.00000000000E+00 0. -1.
         21    1    1    2  503  501  0.19705642580E+02 -0.56503908064E+01  0.13825779647E+03  0.13976930117E+03  0.00000000000E+00 0.  1.
         21    1    1    2  504  503 -0.19705642580E+02  0.56503908064E+01 -0.11016298398E+03  0.11205410437E+03  0.00000000000E+00 0. -1.
</event>
<event>
 4    1  0.3069799E+006  0.2103725E+02  0.7546771E-02  0.1518734E+00
         21   -1    0    0  503  501  0.00000000000E+00  0.00000000000E+00  0.66896600869E+02  0.66896600869E+02  0.00000000000E+00 0.  1.
         21   -1    0    0  504  502 -0.00000000000E+00 -0.00000000000E+00 -0.70267689264E+01  0.70267689264E+01  0.00000000000E+00 0.  1.
         21    1    1    2  503  502 -0.21036204493E+02  0.21019736508E+00  0.38875072978E+02  0.44202232765E+02  0.00000000000E+00 0.  1.
         21    1    1    2  504  501  0.21036204493E+02 -0.21019736508E+00  0.20994758965E+02  0.29721137030E+02  0.00000000000E+00 0.  1.
</event>
<event>
 4    1  0.3069799E+006  0.2311903E+02  0.7546771E-02  0.1491009E+00
         21   -1    0    0  502  501  0.00000000000E+00  0.00000000000E+00  0.24869389852E+02  0.24869389852E+02  0.00000000000E+00 0. -1.
         21   -1    0    0  504  502 -0.00000000000E+00 -0.00000000000E+00 -0.87031284748E+02  0.87031284748E+02  0.00000000000E+00 0.  1.
         21    1    1    2  503  501  0.19645157954E+02 -0.12188410900E+02  0.17472078883E+02  0.28978666839E+02  0.00000000000E+00 0. -1.
         21    1    1    2  504  503 -0.19645157954E+02  0.12188410900E+02 -0.79633973779E+02  0.82922007761E+02  0.00000000000E+00 0.  1.
</event>
<event>
 4    1  0.3069799E+006  0.2136106E+02  0.7546771E-02  0.1514172E+00
         21   -1    0    0  503  501  0.00000000000E+00  0.00000000000E+00  0.19443695162E+03  0.19443695162E+03  0.00000000000E+00 0. -1.
         21   -1    0    0  501  502 -0.00000000000E+00 -0.00000000000E+00 -0.13587509994E+02  0.13587509994E+02  0.00000000000E+00 0. -1.
         21    1    1    2  503  504 -0.12349149386E+02 -0.17429672945E+02  0.18502933154E+03  0.18625828443E+03  0.00000000000E+00 0. -1.
         21    1    1    2  504  502  0.12349149386E+02  0.17429672945E+02 -0.41798899106E+01  0.21766177184E+02  0.00000000000E+00 0. -1.
</event>
<event>
 4    1  0.3069799E+006  0.2005906E+02  0.7546771E-02  0.1533135E+00
         21   -1    0    0  504  501  0.00000000000E+00  0.00000000000E+00  0.18982192650E+03  0.18982192650E+03  0.00000000000E+00 0. -1.
         21   -1    0    0  501  502 -0.00000000000E+00 -0.00000000000E+00 -0.21586654209E+01  0.21586654209E+01  0.00000000000E+00 0. -1.
         21    1    1    2  503  502  0.64124038984E+01  0.19006502755E+02  0.80935521480E+02  0.83384199391E+02  0.00000000000E+00 0. -1.
         21    1    1    2  504  503 -0.64124038984E+01 -0.19006502755E+02  0.10672773959E+03  0.10859639253E+03  0.00000000000E+00 0. -1.
</event>
<event>
 4    1  0.3069799E+006  0.2290899E+02  0.7546771E-02  0.1493644E+00
         21   -1    0    0  502  501  0.00000000000E+00  0.00000000000E+00  0.38641793749E+02  0.38641793749E+02  0.00000000000E+00 0. -1.
         21   -1    0    0  503  502 -0.00000000000E+00 -0.00000000000E+00 -0.56003056413E+02  0.56003056413E+02  0.00000000000E+00 0.  1.
         21    1    1    2  503  504  0.15249949175E+02  0.17095633522E+02 -0.49866985708E+02  0.54877480800E+02  0.00000000000E+00 0.  1.
         21    1    1    2  504  501 -0.15249949175E+02 -0.17095633522E+02  0.32505723044E+02  0.39767369362E+02  0.00000000000E+00 0. -1.
</event>
<event>
 4    1  0.3069799E+006  0.2145946E+02  0.7546771E-02  0.1512805E+00
         21   -1    0    0  502  501  0.00000000000E+00  0.00000000000E+00  0.28822879400E+01  0.28822879400E+01  0.00000000000E+00 0. -1.
         21   -1    0    0  504  502 -0.00000000000E+00 -0.00000000000E+00 -0.73880510499E+03  0.73880510499E+03  0.00000000000E+00 0.  1.
         21    1    1    2  503  501 -0.14511224387E+02  0.15809259258E+02 -0.39656230570E+02  0.45090186676E+02  0.00000000000E+00 0. -1.
         21    1    1    2  504  503  0.14511224387E+02 -0.15809259258E+02 -0.69626658648E+03  0.69659720625E+03  0.00000000000E+00 0.  1.
</event>
<event>
 4    1  0.3069799E+006  0.2186697E+02  0.7546771E-02  0.1507238E+00
         21   -1    0    0  503  501  0.00000000000E+00  0.00000000000E+00  0.40681894565E+02  0.40681894565E+02  0.00000000000E+00 0.  1.
         21   -1    0    0  504  502 -0.00000000000E+00 -0.00000000000E+00 -0.31766190702E+03  0.31766190702E+03  0.00000000000E+00 0. -1.
         21    1    1    2  503  502  0.10770744203E+02 -0.19030379016E+02 -0.31431591478E+03  0.31507563940E+03  0.00000000000E+00 0. -1.
         21    1    1    2  504  501 -0.10770744203E+02  0.19030379016E+02  0.37335902330E+02  0.43268162186E+02  0.00000000000E+00 0.  1.
</event>
<event>
 4    1  0.3069799E+006  0.2783837E+02  0.7546771E-02  0.1439364E+00
         21   -1    0    0  503  501  0.00000000000E+00  0.00000000000E+00  0.13738728034E+02  0.13738728034E+02  0.00000000000E+00 0.  1.
         21   -1    0    0  504  502 -0.00000000000E+00 -0.00000000000E+00 -0.59376601787E+02  0.59376601787E+02  0.00000000000E+00 0.  1.
         21    1    1    2  503  502 -0.20582231263E+02 -0.18744245318E+02 -0.14644789513E+02  0.31455442076E+02  0.00000000000E+00 0.  1.
         21    1    1    2  504  501  0.20582231263E+02  0.18744245318E+02 -0.30993084240E+02  0.41659887746E+02  0.00000000000E+00 0.  1.
</event>
<event>
 4    1  0.3069799E+006  0.2025600E+02  0.7546771E-02  0.1530158E+00
         21   -1    0    0  503  501  0.00000000000E+00  0.00000000000E+00  0.85719050122E+02  0.85719050122E+02  0.00000000000E+00 0.  1.
         21   -1    0    0  504  502 -0.00000000000E+00 -0.00000000000E+00 -0.16765735170E+02  0.16765735170E+02  0.00000000000E+00 0. -1.
         21    1    1    2  503  502 -0.19767493811E+02  0.44217278512E+01 -0.88375392082E+01  0.22099945430E+02  0.00000000000E+00 0. -1.
         21    1    1    2  504  501  0.19767493811E+02 -0.44217278512E+01  0.77790854160E+02  0.80384839863E+02  0.00000000000E+00 0.  1.
</event>
<event>
 4    1  0.3069799E+006  0.2089093E+02  0.7546771E-02  0.1520828E+00
         21   -1    0    0  504  501  0.00000000000E+00  0.00000000000E+00  0.16349135817E+03  0.16349135817E+03  0.00000000000E+00 0.  1.
         21   -1    0    0  501  502 -0.00000000000E+00 -0.00000000000E+00 -0.85346632107E+01  0.85346632107E+01  0.00000000000E+00 0.  1.
         21    1    1    2  503  502 -0.20589667275E+02  0.35350739480E+01  0.61744856097E+01  0.21784292939E+02  0.00000000000E+00 0.  1.
         21    1    1    2  504  503  0.20589667275E+02 -0.35350739480E+01  0.14878220935E+03  0.15024172844E+03  0.00000000000E+00 0.  1.
</event>
<event>
 4    1  0.3069799E+006  0.2185169E+02  0.7546771E-02  0.1507444E+00
         21   -1    0    0  503  501  0.00000000000E+00  0.00000000000E+00  0.52189693735E+03  0.52189693735E+03  0.00000000000E+00 0. -1.
         21   -1    0    0  504  502 -0.00000000000E+00 -0.00000000000E+00 -0.96024692677E+00  0.96024692677E+00  0.00000000000E+00 0. -1.
         21    1    1    2  503  502 -0.25116949889E+01  0.21706857478E+02  0.31726442932E+03  0.31801605995E+03  0.00000000000E+00 0. -1.
         21    1    1    2  504  501  0.25116949889E+01 -0.21706857478E+02  0.20367226110E+03  0.20484112433E+03  0.00000000000E+00 0. -1.
</event>
<event>
 4    1  0.3069799E+006  0.2321753E+02  0.7546771E-02  0.1489784E+00
         21   -1    0    0  502  501  0.00000000000E+00  0.00000000000E+00  0.89598723289E+02  0.89598723289E+02  0.00000000000E+00 0. -1.
         21   -1    0    0  503  502 -0.00000000000E+00 -0.00000000000E+00 -0.21429708768E+02  0.21429708768E+02  0.00000000000E+00 0.  1.
         21    1    1    2  503  504 -0.21315350672E+02 -0.92037842769E+01 -0.12996447812E+02  0.26607545452E+02  0.00000000000E+00 0.  1.
         21    1    1    2  504  501  0.21315350672E+02  0.92037842769E+01  0.81165462333E+02  0.84420886604E+02  0.00000000000E+00 0. -1.
</event>
<event>
 4    1  0.3069799E+006  0.5968522E+02  0.7546771E-02  0.1260906E+00
         21   -1    0    0  503  501  0.00000000000E+00  0.00000000000E+00  0.16191327567E+03  0.16191327567E+03  0.00000000000E+00 0. -1.
         21   -1    0    0  501  502 -0.00000000000E+00 -0.00000000000E+00 -0.17253057041E+03  0.17253057041E+03  0.00000000000E+00 0. -1.
         21    1    1    2  503  504  0.13116048285E+02 -0.58226241541E+02  0.15088754921E+03  0.16226329971E+03  0.00000000000E+00 0. -1.
         21    1    1    2  504  502 -0.13116048285E+02  0.58226241541E+02 -0.16150484396E+03  0.17218054637E+03  0.00000000000E+00 0. -1.
</event>
<event>
 4    1  0.3069799E+006  0.3075271E+02  0.7546771E-02  0.1413166E+00
         21   -1    0    0  504  501  0.00000000000E+00  0.00000000000E+00  0.26553629376E+03  0.26553629376E+03  0.00000000000E+00 0.  1.
         21   -1    0    0  503  502 -0.00000000000E+00 -0.00000000000E+00 -0.38306183509E+01  0.38306183509E+01  0.00000000000E+00 0. -1.
         21    1    1    2  503  501 -0.29873629856E+02 -0.73003722485E+01  0.16654604386E+03  0.16936148890E+03  0.00000000000E+00 0.  1.
         21    1    1    2  504  502  0.29873629856E+02  0.73003722485E+01  0.95159631550E+02  0.10000542322E+03  0.00000000000E+00 0. -1.
</event>
<event>
 4    1  0.3069799E+006  0.2040056E+02  0.7546771E-02  0.1527998E+00
         21   -1    0    0  503  501  0.00000000000E+00  0.00000000000E+00  0.65745826215E+02  0.65745826215E+02  0.00000000000E+00 0. -1.
         21   -1    0    0  501  502 -0.00000000000E+00 -0.00000000000E+00 -0.55829816738E+02  0.55829816738E+02  0.00000000000E+00 0.  1.
         21    1    1    2  503  504 -0.11867594063E+00  0.20400218321E+02  0.62196008512E+02  0.65456294322E+02  0.00000000000E+00 0. -1.
         21    1    1    2  504  502  0.11867594063E+00 -0.20400218321E+02 -0.52279999036E+02  0.56119348631E+02  0.00000000000E+00 0.  1.
</event>
<event>
 4    1  0.3069799E+006  0.2487268E+02  0.7546771E-02  0.1470233E+00
         21   -1    0    0  502  501  0.00000000000E+00  0.00000000000E+00  0.10080503488E+03  0.10080503488E+03  0.00000000000E+00 0. -1.
         21   -1    0    0  503  502 -0.00000000000E+00 -0.00000000000E+00 -0.67612325361E+02  0.67612325361E+02  0.00000000000E+00 0.  1.
         21    1    1    2  503  504 -0.18844629869E+02  0.16233615591E+02 -0.63699661069E+02  0.68383456847E+02  0.00000000000E+00 0.  1.
         21    1    1    2  504  501  0.18844629869E+02 -0.16233615591E+02  0.96892370590E+02  0.10003390340E+03  0.00000000000E+00 0. -1.
</event>
<event>
 4    1  0.3069799E+006  0.2292149E+02  0.7546771E-02  0.1493486E+00
         21   -1    0    0  504  501  0.00000000000E+00  0.00000000000E+00  0.35907532206E+02  0.35907532206E+02  0.00000000000E+00 0.  1.
         21   -1    0    0  503  502 -0.00000000000E+00 -0.00000000000E+00 -0.14648770283E+02  0.14648770283E+02  0.00000000000E+00 0.  1.
         21    1    1    2  503  501 -0.12266083041E+02 -0.19363308134E+02  0.97708867186E+01  0.24917157188E+02  0.00000000000E+00 0.  1.
         21    1    1    2  504  502  0.12266083041E+02  0.19363308134E+02  0.11487875205E+02  0.25639145301E+02  0.00000000000E+00 0.  1.
</event>
<event>
 4    1  0.3069799E+006  0.2520131E+02  0.7546771E-02  0.1466564E+00
         21   -1    0    0  503  501  0.00000000000E+00  0.00000000000E+00  0.23185986291E+03  0.23185986291E+03  0.00000000000E+00 0. -1.
         21   -1    0    0  504  502 -0.00000000000E+00 -0.00000000000E+00 -0.30050536591E+01  0.30050536591E+01  0.00000000000E+00 0. -1.
         21    1    1    2  503  502 -0.22043963480E+02  0.12213496453E+02  0.14935751572E+03  0.15146872061E+03  0.00000000000E+00 0. -1.
         21    1    1    2  504  501  0.22043963480E+02 -0.12213496453E+02  0.79497293531E+02  0.83396195958E+02  0.00000000000E+00 0. -1.
</event>
<event>
 4    1  0.3069799E+006  0.2662412E+02  0.7546771E-02  0.1451421E+00
         21   -1    0    0  502  501  0.00000000000E+00  0.00000000000E+00  0.61977537645E+01  0.61977537645E+01  0.00000000000E+00 0.  1.
         21   -1    0    0  503  502 -0.00000000000E+00 -0.00000000000E+00 -0.43628819836E+03  0.43628819836E+03  0.00000000000E+00 0.  1.
         21    1    1    2  503  504 -0.22421086735E+02  0.14357522596E+02 -0.40508950869E+03  0.40596348806E+03  0.00000000000E+00 0.  1.
         21    1    1    2  504  501  0.22421086735E+02 -0.14357522596E+02 -0.25000935912E+02  0.36522464073E+02  0.00000000000E+00 0.  1.
</event>
<event>
 4    1  0.3069799E+006  0.2100077E+02  0.7546771E-02  0.1519254E+00
         21   -1    0    0  503  501  0.00000000000E+00  0.00000000000E+00  0.42999340382E+03  0.42999340382E+03  0.00000000000E+00 0. -1.
         21   -1    0    0  504  502 -0.00000000000E+00 -0.00000000000E+00 -0.99044790188E+01  0.99044790188E+01  0.00000000000E+00 0. -1.
         21    1    1    2  503  502  0.67364895205E+01 -0.19890999016E+02  0.41829367586E+03  0.41882052409E+03  0.00000000000E+00 0. -1.
         21    1    1    2  504  501 -0.67364895205E+01  0.19890999016E+02  0.17952489349E+01  0.21077358744E+02  0.00000000000E+00 0. -1.
</event>
<event>
 4    1  0.3069799E+006  0.2505704E+02  0.7546771E-02  0.1468166E+00
         21   -1    0    0  502  501  0.00000000000E+00  0.00000000000E+00  0.45102961316E+02  0.45102961316E+02  0.00000000000E+00 0. -1.
         21   -1    0    0  503  502 -0.00000000000E+00 -0.00000000000E+00 -0.14217599661E+02  0.14217599661E+02  0.00000000000E+00 0. -1.
         21    1    1    2  503  504  0.25494701973E+01 -0.24926997577E+02  0.19730392879E+02  0.31892685833E+02  0.00000000000E+00 0. -1.
         21    1    1    2  504  501 -0.25494701973E+01  0.24926997577E+02  0.11154968776E+02  0.27427875143E+02  0.00000000000E+00 0. -1.
</event>
<event>
 4    1  0.3069799E+006  0.2089947E+02  0.7546771E-02  0.1520705E+00
         21   -1    0    0  504  501  0.00000000000E+00  0.00000000000E+00  0.18236458298E+02  0.18236458298E+02  0.00000000000E+00 0. -1.
         21   -1    0    0  501  502 -0.00000000000E+00 -0.00000000000E+00 -0.27694801377E+02  0.27694801377E+02  0.00000000000E+00 0. -1.
         21    1    1    2  503  502  0.18137072106E+02  0.10384330099E+02 -0.13172538159E+02  0.24704320629E+02  0.00000000000E+00 0. -1.
         21    1    1    2  504  503 -0.18137072106E+02 -0.10384330099E+02  0.37141950798E+01  0.21226939046E+02  0.00000000000E+00 0. -1.
</event>
<event>
 4    1  0.3069799E+006  0.2934867E+02  0.7546771E-02  0.1425342E+00
         21   -1    0    0  503  501  0.00000000000E+00  0.00000000000E+00  0.17727613080E+02  0.17727613080E+02  0.00000000000E+00 0.  1.
         21   -1    0    0  504  502 -0.00000000000E+00 -0.00000000000E+00 -0.62204835178E+02  0.62204835178E+02  0.00000000000E+00 0. -1.
         21    1    1    2  503  502 -0.24053763397E+02  0.16815493911E+02 -0.35393888775E+01  0.29561320042E+02  0.00000000000E+00 0.  1.
         21    1    1    2  504  501  0.24053763397E+02 -0.16815493911E+02 -0.40937833221E+02  0.50371128217E+02  0.00000000000E+00 0. -1.
</event>
<event>
 4    1  0.3069799E+006  0.3296131E+02  0.7546771E-02  0.1395492E+00
         21   -1    0    0  503  501  0.00000000000E+00  0.00000000000E+00  0.12560600495E+03  0.12560600495E+03  0.00000000000E+00 0. -1.
         21   -1    0    0  504  502 -0.00000000000E+00 -0.00000000000E+00 -0.23382683294E+02  0.23382683294E+02  0.00000000000E+00 0. -1.
         21    1    1    2  503  502 -0.31082140898E+02 -0.10970342191E+02  0.11024361380E+03  0.11506564332E+03  0.00000000000E+00 0. -1.
         21    1    1    2  504  501  0.31082140898E+02  0.10970342191E+02 -0.80202921410E+01  0.33923044920E+02  0.00000000000E+00 0. -1.
</event>
<event>
 4    1  0.3069799E+006  0.2000129E+02  0.7546771E-02  0.1534016E+00
         21   -1    0    0  503  501  0.00000000000E+00  0.00000000000E+00  0.53257994541E+01  0.53257994541E+01  0.00000000000E+00 0.  1.
         21   -1    0    0  504  502 -0.00000000000E+00 -0.00000000000E+00 -0.45729285825E+03  0.45729285825E+03  0.00000000000E+00 0.  1.
         21    1    1    2  503  502  0.17089688476E+02 -0.10392020130E+02 -0.43744354596E+03  0.43790056798E+03  0.00000000000E+00 0.  1.
         21    1    1    2  504  501 -0.17089688476E+02  0.10392020130E+02 -0.14523512838E+02  0.24718089727E+02  0.00000000000E+00 0.  1.
</event>
<event>
 4    1  0.3069799E+006  0.2574819E+02  0.7546771E-02  0.1460605E+00
         21   -1    0    0  503  501  0.00000000000E+00  0.00000000000E+00  0.34135695027E+02  0.34135695027E+02  0.00000000000E+00 0.  1.
         21   -1    0    0  504  502 -0.00000000000E+00 -0.00000000000E+00 -0.23448929672E+02  0.23448929672E+02  0.00000000000E+00 0.  1.
         21    1    1    2  503  502 -0.96183162765E+01 -0.23884249575E+02  0.17275686451E+02  0.31006752944E+02  0.00000000000E+00 0.  1.
         21    1    1    2  504  501  0.96183162765E+01  0.23884249575E+02 -0.65889210963E+01  0.26577871754E+02  0.00000000000E+00 0.  1.
</event>
<event>
 4    1  0.3069799E+006  0.2388297E+02  0.7546771E-02  0.1481699E+00
         21   -1    0    0  502  501  0.00000000000E+00  0.00000000000E+00  0.68027498639E+02  0.68027498639E+02  0.00000000000E+00 0. -1.
         21   -1    0    0  504  502 -0.00000000000E+00 -0.00000000000E+00 -0.75598357995E+02  0.75598357995E+02  0.00000000000E+00 0.  1.
         21    1    1    2  503  501  0.11745431353E+02  0.20795215447E+02  0.63928019614E+02  0.68243591896E+02  0.00000000000E+00 0. -1.
         21    1    1    2  504  503 -0.11745431353E+02 -0.20795215447E+02 -0.71498878969E+02  0.75382264738E+02  0.00000000000E+00 0.  1.
</event>
<event>
 4    1  0.3069799E+006  0.2902526E+02  0.7546771E-02  0.1428260E+00
         21   -1    0    0  503  501  0.00000000000E+00  0.00000000000E+00  0.40364989978E+02  0.40364989978E+02  0.00000000000E+00 0. -1.
         21   -1    0    0  504  502 -0.00000000000E+00 -0.00000000000E+00 -0.50425574602E+02  0.50425574602E+02  0.00000000000E+00 0. -1.
         21    1    1    2  503  502  0.28952411638E+02 -0.20550752473E+01 -0.39783607218E+02  0.49246328566E+02  0.00000000000E+00 0. -1.
         21    1    1    2  504  501 -0.28952411638E+02  0.20550752473E+01  0.29723022593E+02  0.41544236014E+02  0.00000000000E+00 0. -1.
</event>
<event>
 4    1  0.3069799E+006  0.4018260E+02  0.7546771E-02  0.1347419E+00
         21   -1    0    0  504  501  0.00000000000E+00  0.00000000000E+00  0.66463313284E+02  0.66463313284E+02  0.00000000000E+00 0.  1.
         21   -1    0    0  501  502 -0.00000000000E+00 -0.00000000000E+00 -0.46691491667E+02  0.46691491667E+02  0.00000000000E+00 0.  1.
         21    1    1    2  503  502 -0.95973220826E+01  0.39019646237E+02 -0.29299688998E+02  0.49730404774E+02  0.00000000000E+00 0.  1.
         21    1    1    2  504  503  0.95973220826E+01 -0.39019646237E+02  0.49071510616E+02  0.63424400176E+02  0.00000000000E+00 0.  1.
</event>
<event>
 4    1  0.3069799E+006  0.3990411E+02  0.7546771E-02  0.1349049E+00
         21   -1    0    0  503  501  0.00000000000E+00  0.00000000000E+00  0.22018279751E+03  0.22018279751E+03  0.00000000000E+00 0.  1.
         21   -1    0    0  504  502 -0.00000000000E+00 -0.00000000000E+00 -0.53931122829E+02  0.53931122829E+02  0.00000000000E+00 0. -1.
         21    1    1    2  503  502  0.20906911054E+02 -0.33988803553E+02 -0.44411174898E+02  0.59705026192E+02  0.00000000000E+00 0. -1.
         21    1    1    2  504  501 -0.20906911054E+02  0.33988803553E+02  0.21066284957E+03  0.21440889414E+03  0.00000000000E+00 0.  1.
</event>
<event>
 4    1  0.3069799E+006  0.2211427E+02  0.7546771E-02  0.1503930E+00
         21   -1    0    0  503  501  0.00000000000E+00  0.00000000000E+00  0.62317448861E+02  0.62317448861E+02  0.00000000000E+00 0. -1.
         21   -1    0    0  504  502 -0.00000000000E+00 -0.00000000000E+00 -0.27456802336E+02  0.27456802336E+02  0.00000000000E+00 0. -1.
         21    1    1    2  503  502 -0.22065138885E+02  0.14733157826E+01  0.55364182602E+02  0.59617394514E+02  0.00000000000E+00 0. -1.
         21    1    1    2  504  501  0.22065138885E+02 -0.14733157826E+01 -0.20503536077E+02  0.30156856684E+02  0.00000000000E+00 0. -1.
</event>
<event>
 4    1  0.3069799E+006  0.2067191E+02  0.7546771E-02  0.1524001E+00
         21   -1    0    0  502  501  0.00000000000E+00  0.00000000000E+00  0.12176914287E+02  0.12176914287E+02  0.00000000000E+00 0.  1.
         21   -1    0    0  503  502 -0.00000000000E+00 -0.00000000000E+00 -0.45203308882E+02  0.45203308882E+02  0.00000000000E+00 0.  1.
         21    1    1    2  503  504 -0.14317037050E+01 -0.20622270758E+02 -0.30081433195E+02  0.36499595201E+02  0.00000000000E+00 0.  1.
         21    1    1    2  504  501  0.14317037050E+01  0.20622270758E+02 -0.29449613996E+01  0.20880627969E+02  0.00000000000E+00 0.  1.
</event>
<event>
 4    1  0.3069799E+006  0.4997904E+02  0.7546771E-02  0.1298263E+00
         21   -1    0    0  503  501  0.00000000000E+00  0.00000000000E+00  0.16705317860E+02  0.16705317860E+02  0.00000000000E+00 0.  1.
         21   -1    0    0  504  502 -0.00000000000E+00 -0.00000000000E+00 -0.42223351968E+03  0.42223351968E+03  0.00000000000E+00 0. -1.
         21    1    1    2  503  502  0.48678301568E+02 -0.11328189392E+02 -0.37914233825E+03  0.38242230267E+03  0.00000000000E+00 0. -1.
         21    1    1    2  504  501 -0.48678301568E+02  0.11328189392E+02 -0.26385863568E+02  0.56516534878E+02  0.00000000000E+00 0.  1.
</event>
<event>
 4    1  0.3069799E+006  0.3654074E+02  0.7546771E-02  0.1370043E+00
         21   -1    0    0  503  501  0.00000000000E+00  0.00000000000E+00  0.95699121115E+01  0.95699121115E+01  0.00000000000E+00 0.  1.
         21   -1    0    0  504  502 -0.00000000000E+00 -0.00000000000E+00 -0.15093083129E+03  0.15093083129E+03  0.00000000000E+00 0. -1.
         21    1    1    2  503  502 -0.35095825988E+02 -0.10173922775E+02 -0.92742919266E+02  0.99681867861E+02  0.00000000000E+00 0. -1.
         21    1    1    2  504  501  0.35095825988E+02  0.10173922775E+02 -0.48617999910E+02  0.60818875538E+02  0.00000000000E+00 0.  1.
</event>
<event>
 4    1  0.3069799E+006  0.2634804E+02  0.7546771E-02  0.1454269E+00
         21   -1    0    0  502  501  0.00000000000E+00  0.00000000000E+00  0.52764261817E+02  0.52764261817E+02  0.00000000000E+00 0.  1.
         21   -1    0    0  503  502 -0.00000000000E+00 -0.00000000000E+00 -0.13524356047E+02  0.13524356047E+02  0.00000000000E+00 0. -1.
         21    1    1    2  503  504 -0.15725835243E+02 -0.21140418628E+02  0.25082516346E+02  0.36377902909E+02  0.00000000000E+00 0. -1.
         21    1    1    2  504  501  0.15725835243E+02  0.21140418628E+02  0.14157389424E+02  0.29910714955E+02  0.00000000000E+00 0.  1.
</event>
<event>
 4    1  0.3069799E+006  0.2163387E+02  0.7546771E-02  0.1510404E+00
         21   -1    0    0  504  501  0.00000000000E+00  0.00000000000E+00  0.15739705259E+02  0.15739705259E+02  0.00000000000E+00 0. -1.
         21   -1    0    0  503  502 -0.00000000000E+00 -0.00000000000E+00 -0.31454983722E+02  0.31454983722E+02  0.00000000000E+00 0. -1.
         21    1    1    2  503  501 -0.19929514356E+02  0.84165840207E+01 -0.13375187359E+02  0.25434623369E+02  0.00000000000E+00 0. -1.
         21    1    1    2  504  502  0.19929514356E+02 -0.84165840207E+01 -0.23400911040E+01  0.21760065611E+02  0.00000000000E+00 0. -1.
</event>
<event>
 4    1  0.3069799E+006  0.2111696E+02  0.7546771E-02  0.1517601E+00
         21   -1    0    0  504  501  0.00000000000E+00  0.00000000000E+00  0.21353460226E+03  0.21353460226E+03  0.00000000000E+00 0.  1.
         21   -1    0    0  503  502 -0.00000000000E+00 -0.00000000000E+00 -0.32661676902E+01  0.32661676902E+01  0.00000000000E+00 0.  1.
         21    1    1    2  503  501 -0.18814966587E+02  0.95876464555E+01  0.17023083726E+03  0.17153560530E+03  0.00000000000E+00 0.  1.
         21    1    1    2  504  502  0.18814966587E+02 -0.95876464555E+01  0.40037597309E+02  0.45265164647E+02  0.00000000000E+00 0.  1.
</event>
<event>
 4    1  0.3069799E+006  0.2509801E+02  0.7546771E-02  0.1467710E+00
         21   -1    0    0  503  501  0.00000000000E+00  0.00000000000E+00  0.71939755085E+02  0.71939755085E+02  0.00000000000E+00 0.  1.
         21   -1    0    0  504  502 -0.00000000000E+00 -0.00000000000E+00 -0.21266092083E+02  0.21266092083E+02  0.00000000000E+00 0.  1.
         21    1    1    2  503  502 -0.24653259915E+01  0.24976637678E+02 -0.10406759283E+02  0.27170036819E+02  0.00000000000E+00 0.  1.
         21    1    1    2  504  501  0.24653259915E+01 -0.24976637678E+02  0.61080422285E+02  0.66035810349E+02  0.00000000000E+00 0.  1.
</event>
<event>
 4    1  0.3069799E+006  0.2275522E+02  0.7546771E-02  0.1495595E+00
         21   -1    0    0  504  501  0.00000000000E+00  0.00000000000E+00  0.44069185485E+02  0.44069185485E+02  0.00000000000E+00 0. -1.
         21   -1    0    0  503  502 -0.00000000000E+00 -0.00000000000E+00 -0.11859174550E+02  0.11859174550E+02  0.00000000000E+00 0. -1.
         21    1    1    2  503  501  0.10441475552E+02 -0.20218196089E+02  0.13418273047E+02  0.26416849100E+02  0.00000000000E+00 0. -1.
         21    1    1    2  504  502 -0.10441475552E+02  0.20218196089E+02  0.18791737889E+02  0.29511510935E+02  0.00000000000E+00 0. -1.
</event>
<event>
 4    1  0.3069799E+006  0.6022938E+02  0.7546771E-02  0.1259055E+00
         21   -1    0    0  503  501  0.00000000000E+00  0.00000000000E+00  0.57392734503E+02  0.57392734503E+02  0.00000000000E+00 0. -1.
         21   -1    0    0  504  502 -0.00000000000E+00 -0.00000000000E+00 -0.66426893708E+02  0.66426893708E+02  0.00000000000E+00 0. -1.
         21    1    1    2  503  502  0.28005162287E+02 -0.53322499576E+02  0.91149516137E+01  0.60915190377E+02  0.00000000000E+00 0. -1.
         21    1    1    2  504  501 -0.28005162287E+02  0.53322499576E+02 -0.18149110819E+02  0.62904437834E+02  0.00000000000E+00 0. -1.
</event>
<event>
 4    1  0.3069799E+006  0.3700623E+02  0.7546771E-02  0.1366982E+00
         21   -1    0    0  503  501  0.00000000000E+00  0.00000000000E+00  0.64770607740E+03  0.64770607740E+03  0.00000000000E+00 0.  1.
         21   -1    0    0  504  502 -0.00000000000E+00 -0.00000000000E+00 -0.21149938650E+01  0.21149938650E+01  0.00000000000E+00 0.  1.
         21    1    1    2  503  502  0.13167057877E+02 -0.34584524881E+02  0.31701501137E+03  0.31916763339E+03  0.00000000000E+00 0.  1.
         21    1    1    2  504  501 -0.13167057877E+02  0.34584524881E+02  0.32857607217E+03  0.33065343787E+03  0.00000000000E+00 0.  1.
</event>
<event>
 4    1  0.3069799E+006  0.2372224E+02  0.7546771E-02  0.1483623E+00
         21   -1    0    0  503  501  0.00000000000E+00  0.00000000000E+00  0.95417367115E+01  0.95417367115E+01  0.00000000000E+00 0.  1.
         21   -1    0    0  504  502 -0.00000000000E+00 -0.00000000000E+00 -0.66378807898E+02  0.66378807898E+02  0.00000000000E+00 0.  1.
         21    1    1    2  503  502  0.14300362745E+02  0.18927343453E+02 -0.15742651003E+02  0.28470612312E+02  0.00000000000E+00 0.  1.
         21    1    1    2  504  501 -0.14300362745E+02 -0.18927343453E+02 -0.41094420184E+02  0.47449932298E+02  0.00000000000E+00 0.  1.
</event>
<event>
 4    1  0.3069799E+006  0.2395284E+02  0.7546771E-02  0.1480868E+00
         21   -1    0    0  503  501  0.00000000000E+00  0.00000000000E+00  0.39646493531E+03  0.39646493531E+03  0.00000000000E+00 0.  1.
         21   -1    0    0  504  502 -0.00000000000E+00 -0.00000000000E+00 -0.83415989675E+01  0.83415989675E+01  0.00000000000E+00 0. -1.
         21    1    1    2  503  502 -0.76536571150E+01  0.22697141312E+02  0.10050964599E+02  0.25976154071E+02  0.00000000000E+00 0. -1.
         21    1    1    2  504  501  0.76536571150E+01 -0.22697141312E+02  0.37807237174E+03  0.37883038021E+03  0.00000000000E+00 0.  1.
</event>
<event>
 4    1  0.3069799E+006  0.2615844E+02  0.7546771E-02  0.1456250E+00
         21   -1    0    0  502  501  0.00000000000E+00  0.00000000000E+00  0.67293859413E+02  0.67293859413E+02  0.00000000000E+00 0.  1.
         21   -1    0    0  503  502 -0.00000000000E+00 -0.00000000000E+00 -0.57408460087E+02  0.57408460087E+02  0.00000000000E+00 0.  1.
         21    1    1    2  503  504  0.25420944532E+02 -0.61676310252E+01 -0.51617674183E+02  0.57867507130E+02  0.00000000000E+00 0.  1.
         21    1    1    2  504  501 -0.25420944532E+02  0.61676310252E+01  0.61503073510E+02  0.66834812370E+02  0.00000000000E+00 0.  1.
</event>
<event>
 4    1  0.3069799E+006  0.3443553E+02  0.7546771E-02  0.1384576E+00
         21   -1    0    0  504  501  0.00000000000E+00  0.00000000000E+00  0.19750079136E+02  0.19750079136E+02  0.00000000000E+00 0.  1.
         21   -1    0    0  503  502 -0.00000000000E+00 -0.00000000000E+00 -0.15375730952E+03  0.15375730952E+03  0.00000000000E+00 0.  1.
         21    1    1    2  503  501  0.34339455891E+02  0.25704624143E+01  0.72602002086E+00  0.34443179484E+02  0.00000000000E+00 0.  1.
         21    1    1    2  504  502 -0.34339455891E+02 -0.25704624143E+01 -0.13473325041E+03  0.13906420917E+03  0.00000000000E+00 0.  1.
</event>
<event>
 4    1  0.3069799E+006  0.2129813E+02  0.7546771E-02  0.1515051E+00
         21   -1    0    0  504  501  0.00000000000E+00  0.00000000000E+00  0.17318858934E+02  0.17318858934E+02  0.00000000000E+00 0.  1.
         21   -1    0    0  501  502 -0.00000000000E+00 -0.00000000000E+00 -0.32049081280E+02  0.32049081280E+02  0.00000000000E+00 0.  1.
         21    1    1    2  503  502  0.19812889314E+02  0.78140826062E+01 -0.17917692949E+02  0.27832610200E+02  0.00000000000E+00 0.  1.
         21    1    1    2  504  503 -0.19812889314E+02 -0.78140826062E+01  0.31874706031E+01  0.21535330014E+02  0.00000000000E+00 0.  1.
</event>
<event>
 4    1  0.3069799E+006  0.2214498E+02  0.7546771E-02  0.1503523E+00
         21   -1    0    0  504  501  0.00000000000E+00  0.00000000000E+00  0.25143490553E+03  0.25143490553E+03  0.00000000000E+00 0.  1.
         21   -1    0    0  503  502 -0.00000000000E+00 -0.00000000000E+00 -0.17415950043E+02  0.17415950043E+02  0.00000000000E+00 0. -1.
         21    1    1    2  503  501 -0.19695381275E+02 -0.10123844133E+02 -0.96653833408E+01  0.24162365338E+02  0.00000000000E+00 0. -1.
         21    1    1    2  504  502  0.19695381275E+02  0.10123844133E+02  0.24368433882E+03  0.24468849023E+03  0.00000000000E+00 0.  1.
</event>
<event>
 4    1  0.3069799E+006  0.2178309E+02  0.7546771E-02  0.1508372E+00
         21   -1    0    0  503  501  0.00000000000E+00  0.00000000000E+00  0.70702305085E+02  0.70702305085E+02  0.00000000000E+00 0. -1.
         21   -1    0    0  501  502 -0.00000000000E+00 -0.00000000000E+00 -0.21228844295E+03  0.21228844295E+03  0.00000000000E+00 0.  1.
         21    1    1    2  503  504  0.18400027089E+02 -0.11659411581E+02  0.68447728284E+02  0.71830316598E+02  0.00000000000E+00 0. -1.
         21    1    1    2  504  502 -0.18400027089E+02  0.11659411581E+02 -0.21003386615E+03  0.21116043144E+03  0.00000000000E+00 0.  1.
</event>
<event>
 4    1  0.3069799E+006  0.2908810E+02  0.7546771E-02  0.1427690E+00
         21   -1    0    0  502  501  0.00000000000E+00  0.00000000000E+00  0.19063774339E+02  0.19063774339E+02  0.00000000000E+00 0.  1.
         21   -1    0    0  504  502 -0.00000000000E+00 -0.00000000000E+00 -0.51571269394E+02  0.51571269394E+02  0.00000000000E+00 0.  1.
         21    1    1    2  503  501 -0.19978274802E+02  0.21142041942E+02 -0.30686669508E+01  0.29249514841E+02  0.00000000000E+00 0.  1.
         21    1    1    2  504  503  0.19978274802E+02 -0.21142041942E+02 -0.29438828104E+02  0.41385528893E+02  0.00000000000E+00 0.  1.
</event>
<event>
 4    1  0.3069799E+006  0.2725830E+02  0.7546771E-02  0.1445031E+00
         21   -1    0    0  504  501  0.00000000000E+00  0.00000000000E+00  0.25492792967E+02  0.25492792967E+02  0.00000000000E+00 0.  1.
         21   -1    0    0  503  502 -0.00000000000E+00 -0.00000000000E+00 -0.13606342994E+04  0.13606342994E+04  0.00000000000E+00 0.  1.
         21    1    1    2  503  501  0.16280824286E+02  0.21862057110E+02  0.18029571356E+02  0.32681496658E+02  0.00000000000E+00 0.  1.
         21    1    1    2  504  502 -0.16280824286E+02 -0.21862057110E+02 -0.13531710777E+04  0.13534455957E+04  0.00000000000E+00 0.  1.
</event>
<event>
 4    1  0.3069799E+006  0.2103509E+02  0.7546771E-02  0.1518764E+00
         21   -1    0    0  504  501  0.00000000000E+00  0.00000000000E+00  0.21339058210E+03  0.21339058210E+03  0.00000000000E+00 0. -1.
         21   -1    0    0  503  502 -0.00000000000E+00 -0.00000000000E+00 -0.52734750616E+02  0.52734750616E+02  0.00000000000E+00 0. -1.
         21    1    1    2  503  501  0.11782634866E+02  0.17425401082E+02  0.21074831686E+03  0.21179548661E+03  0.00000000000E+00 0. -1.
         21    1    1    2  504  502 -0.11782634866E+02 -0.17425401082E+02 -0.50092485376E+02  0.54329846110E+02  0.00000000000E+00 0. -1.
</event>
<event>
 4    1  0.3069799E+006  0.2416682E+02  0.7546771E-02  0.1478344E+00
         21   -1    0    0  504  501  0.00000000000E+00  0.00000000000E+00  0.23745157274E+03  0.23745157274E+03  0.00000000000E+00 0. -1.
         21   -1    0    0  501  502 -0.00000000000E+00 -0.00000000000E+00 -0.54213513150E+01  0.54213513150E+01  0.00000000000E+00 0.  1.
         21    1    1    2  503  502  0.11455374791E+02  0.21279326333E+02  0.26257807792E+02  0.35686241198E+02  0.00000000000E+00 0.  1.
         21    1    1    2  504  503 -0.11455374791E+02 -0.21279326333E+02  0.20577241364E+03  0.20718668286E+03  0.00000000000E+00 0. -1.
</event>
<event>
 4    1  0.3069799E+006  0.2395969E+02  0.7546771E-02  0.1480787E+00
         21   -1    0    0  503  501  0.00000000000E+00  0.00000000000E+00  0.20682401435E+03  0.20682401435E+03  0.00000000000E+00 0. -1.
         21   -1    0    0  504  502 -0.00000000000E+00 -0.00000000000E+00 -0.28025021229E+01  0.28025021229E+01  0.00000000000E+00 0. -1.
         21    1    1    2  503  502  0.95340391339E+01  0.21981099310E+02  0.91746999612E+02  0.94823934568E+02  0.00000000000E+00 0. -1.
         21    1    1    2  504  501 -0.95340391339E+01 -0.21981099310E+02  0.11227451261E+03  0.11480258190E+03  0.00000000000E+00 0. -1.
</event>
<event>
 4    1  0.3069799E+006  0.8618713E+02  0.7546771E-02  0.1190169E+00
         21   -1    0    0  504  501  0.00000000000E+00  0.00000000000E+00  0.23705875762E+02  0.23705875762E+02  0.00000000000E+00 0.  1.
         21   -1    0    0  501  502 -0.00000000000E+00 -0.00000000000E+00 -0.92810647206E+03  0.92810647206E+03  0.00000000000E+00 0.  1.
         21    1    1    2  503  502  0.83526962105E+02 -0.21247793968E+02 -0.83952411425E+03  0.84393658563E+03  0.00000000000E+00 0.  1.
         21    1    1    2  504  503 -0.83526962105E+02  0.21247793968E+02 -0.64876482048E+02  0.10787576220E+03  0.00000000000E+00 0.  1.
</event>
<event>
 4    1  0.3069799E+006  0.3416791E+02  0.7546771E-02  0.1386509E+00
         21   -1    0    0  504  501  0.00000000000E+00  0.00000000000E+00  0.38143866983E+01  0.38143866983E+01  0.00000000000E+00 0. -1.
         21   -1    0    0  503  502 -0.00000000000E+00 -0.00000000000E+00 -0.40622142738E+03  0.40622142738E+03  0.00000000000E+00 0. -1.
         21    1    1    2  503  501  0.30416883998E+02 -0.15564668651E+02 -0.99402445229E+02  0.10511085510E+03  0.00000000000E+00 0. -1.
         21    1    1    2  504  502 -0.30416883998E+02  0.15564668651E+02 -0.30300459545E+03  0.30492495898E+03  0.00000000000E+00 0. -1.
</event>
<event>
 4    1  0.3069799E+006  0.4147498E+02  0.7546771E-02  0.1340053E+00
         21   -1    0    0  504  501  0.00000000000E+00  0.00000000000E+00  0.43508573006E+03  0.43508573006E+03  0.00000000000E+00 0. -1.
         21   -1    0    0  503  502 -0.00000000000E+00 -0.00000000000E+00 -0.76177409398E+01  0.76177409398E+01  0.00000000000E+00 0. -1.
         21    1    1    2  503  501  0.40139532518E+02  0.10439936677E+02  0.60218126188E+02  0.73119060922E+02  0.00000000000E+00 0. -1.
         21    1    1    2  504  502 -0.40139532518E+02 -0.10439936677E+02  0.36724986293E+03  0.36958441008E+03  0.00000000000E+00 0. -1.
</event>
<event>
 4    1  0.3069799E+006  0.2349873E+02  0.7546771E-02  0.1486329E+00
         21   -1    0    0  504  501  0.00000000000E+00  0.00000000000E+00  0.19187668448E+01  0.19187668448E+01  0.00000000000E+00 0.  1.
         21   -1    0    0  503  502 -0.00000000000E+00 -0.00000000000E+00 -0.29882721533E+03  0.29882721533E+03  0.00000000000E+00 0.  1.
         21    1    1    2  503  501 -0.15856096140E+02  0.17342847123E+02 -0.17736170640E+03  0.17891161233E+03  0.00000000000E+00 0.  1.
         21    1    1    2  504  502  0.15856096140E+02 -0.17342847123E+02 -0.11954674208E+03  0.12183436984E+03  0.00000000000E+00 0.  1.
</event>
<event>
 4    1  0.3069799E+006  0.2262795E+02  0.7546771E-02  0.1497224E+00
         21   -1    0    0  503  501  0.00000000000E+00  0.00000000000E+00  0.47571645604E+02  0.47571645604E+02  0.00000000000E+00 0. -1.
         21   -1    0    0  504  502 -0.00000000000E+00 -0.00000000000E+00 -0.10988833411E+02  0.10988833411E+02  0.00000000000E+00 0. -1.
         21    1    1    2  503  502  0.21889677613E+02 -0.57329081982E+01  0.22486856140E+02  0.31901142949E+02  0.00000000000E+00 0. -1.
         21    1    1    2  504  501 -0.21889677613E+02  0.57329081982E+01  0.14095956053E+02  0.26659336065E+02  0.00000000000E+00 0. -1.
</event>
<event>
 4    1  0.3069799E+006  0.2067091E+02  0.7546771E-02  0.1524016E+00
         21   -1    0    0  504  501  0.00000000000E+00  0.00000000000E+00  0.67199621579E+00  0.67199621579E+00  0.00000000000E+00 0.  1.
         21   -1    0    0  503  502 -0.00000000000E+00 -0.00000000000E+00 -0.66739855656E+03  0.66739855656E+03  0.00000000000E+00 0.  1.
         21    1    1    2  503  501  0.86024549594E+01  0.18795859529E+02 -0.40599264710E+03  0.40651853102E+03  0.00000000000E+00 0.  1.
         21    1    1    2  504  502 -0.86024549594E+01 -0.18795859529E+02 -0.26073391325E+03  0.26155202176E+03  0.00000000000E+00 0.  1.
</event>
<event>
 4    1  0.3069799E+006  0.2077480E+02  0.7546771E-02  0.1522505E+00
         21   -1    0    0  502  501  0.00000000000E+00  0.00000000000E+00  0.41454125056E+01  0.41454125056E+01  0.00000000000E+00 0. -1.
         21   -1    0    0  503  502 -0.00000000000E+00 -0.00000000000E+00 -0.12483895460E+03  0.12483895460E+03  0.00000000000E+00 0. -1.
         21    1    1    2  503  504 -0.87032880352E+00 -0.20756565068E+02 -0.86624415153E+02  0.89080759798E+02  0.00000000000E+00 0. -1.
         21    1    1    2  504  501  0.87032880352E+00  0.20756565068E+02 -0.34069126944E+02  0.39903607310E+02  0.00000000000E+00 0. -1.
</event>
<event>
 4    1  0.3069799E+006  0.3950828E+02  0.7546771E-02  0.1351392E+00
         21   -1    0    0  504  501  0.00000000000E+00  0.00000000000E+00  0.38196088585E+02  0.38196088585E+02  0.00000000000E+00 0. -1.
         21   -1    0    0  503  502 -0.00000000000E+00 -0.00000000000E+00 -0.16101620250E+03  0.16101620250E+03  0.00000000000E+00 0. -1.
         21    1    1    2  503  501  0.23780493636E+02 -0.31549835053E+02  0.24632720484E+02  0.46558295586E+02  0.00000000000E+00 0. -1.
         21    1    1    2  504  502 -0.23780493636E+02  0.31549835053E+02 -0.14745283440E+03  0.15265399550E+03  0.00000000000E+00 0. -1.
</event>
<event>
 4    1  0.3069799E+006  0.2573151E+02  0.7546771E-02  0.1460784E+00
         21   -1    0    0  503  501  0.00000000000E+00  0.00000000000E+00  0.10367377503E+02  0.10367377503E+02  0.00000000000E+00 0. -1.
         21   -1    0    0  501  502 -0.00000000000E+00 -0.00000000000E+00 -0.93724877059E+02  0.93724877059E+02  0.00000000000E+00 0. -1.
         21    1    1    2  503  504  0.13717134130E+02  0.21770409167E+02 -0.12301817200E+02  0.28520960546E+02  0.00000000000E+00 0. -1.
         21    1    1    2  504  502 -0.13717134130E+02 -0.21770409167E+02 -0.71055682357E+02  0.75571294016E+02  0.00000000000E+00 0. -1.
</event>
<event>
 4    1  0.3069799E+006  0.3389166E+02  0.7546771E-02  0.1388527E+00
         21   -1    0    0  504  501  0.00000000000E+00  0.00000000000E+00  0.81099406577E+02  0.81099406577E+02  0.00000000000E+00 0.  1.
         21   -1    0    0  501  502 -0.00000000000E+00 -0.00000000000E+00 -0.10132530702E+04  0.10132530702E+04  0.00000000000E+00 0.  1.
         21    1    1    2  503  502 -0.11202520462E+02 -0.31986692042E+02 -0.10094153518E+04  0.10099841569E+04  0.00000000000E+00 0.  1.
         21    1    1    2  504  503  0.11202520462E+02  0.31986692042E+02  0.77261688147E+02  0.84368319811E+02  0.00000000000E+00 0.  1.
</event>
<event>
 4    1  0.3069799E+006  0.2410372E+02  0.7546771E-02  0.1479085E+00
         21   -1    0    0  503  501  0.00000000000E+00  0.00000000000E+00  0.35418855927E+01  0.35418855927E+01  0.00000000000E+00 0. -1.
         21   -1    0    0  504  502 -0.00000000000E+00 -0.00000000000E+00 -0.19000846165E+03  0.19000846165E+03  0.00000000000E+00 0. -1.
         21    1    1    2  503  502 -0.39313401484E+01 -0.23780957805E+02 -0.12901420015E+03  0.13124653607E+03  0.00000000000E+00 0. -1.
         21    1    1    2  504  501  0.39313401484E+01  0.23780957805E+02 -0.57452375905E+02  0.62303811172E+02  0.00000000000E+00 0. -1.
</event>
<event>
 4    1  0.3069799E+006  0.4629256E+02  0.7546771E-02  0.1315100E+00
         21   -1    0    0  502  501  0.00000000000E+00  0.00000000000E+00  0.29714776950E+03  0.29714776950E+03  0.00000000000E+00 0.  1.
         21   -1    0    0  504  502 -0.00000000000E+00 -0.00000000000E+00 -0.13627285060E+02  0.13627285060E+02  0.00000000000E+00 0. -1.
         21    1    1    2  503  501 -0.23150578258E+02  0.40088052871E+02  0.24837632117E+03  0.25265351407E+03  0.00000000000E+00 0.  1.
         21    1    1    2  504  503  0.23150578258E+02 -0.40088052871E+02  0.35144163275E+02  0.58121540490E+02  0.00000000000E+00 0. -1.
</event>
<event>
 4    1  0.3069799E+006  0.2135526E+02  0.7546771E-02  0.1514253E+00
         21   -1    0    0  502  501  0.00000000000E+00  0.00000000000E+00  0.14427609021E+02  0.14427609021E+02  0.00000000000E+00 0.  1.
         21   -1    0    0  503  502 -0.00000000000E+00 -0.00000000000E+00 -0.38549788727E+02  0.38549788727E+02  0.00000000000E+00 0.  1.
         21    1    1    2  503  504  0.19386476258E+02 -0.89560980629E+01 -0.23300499418E+02  0.31606335241E+02  0.00000000000E+00 0.  1.
         21    1    1    2  504  501 -0.19386476258E+02  0.89560980629E+01 -0.82168028851E+00  0.21371062507E+02  0.00000000000E+00 0.  1.
</event>
<event>
 4    1  0.3069799E+006  0.4666358E+02  0.7546771E-02  0.1313324E+00
         21   -1    0    0  504  501  0.00000000000E+00  0.00000000000E+00  0.33596847110E+02  0.33596847110E+02  0.00000000000E+00 0.  1.
         21   -1    0    0  503  502 -0.00000000000E+00 -0.00000000000E+00 -0.68572308601E+02  0.68572308601E+02  0.00000000000E+00 0. -1.
         21    1    1    2  503  501  0.28891360048E+02  0.36643943516E+02 -0.55255807282E+01  0.46989587402E+02  0.00000000000E+00 0.  1.
         21    1    1    2  504  502 -0.28891360048E+02 -0.36643943516E+02 -0.29449880763E+02  0.55179568309E+02  0.00000000000E+00 0. -1.
</event>
<event>
 4    1  0.3069799E+006  0.2007366E+02  0.7546771E-02  0.1532913E+00
         21   -1    0    0  502  501  0.00000000000E+00  0.00000000000E+00  0.64212735743E+01  0.64212735743E+01  0.00000000000E+00 0.  1.
         21   -1    0    0  504  502 -0.00000000000E+00 -0.00000000000E+00 -0.66537151015E+02  0.66537151015E+02  0.00000000000E+00 0.  1.
         21    1    1    2  503  501 -0.13296323584E+02 -0.15038605760E+02 -0.21357961747E+02  0.29310653593E+02  0.00000000000E+00 0.  1.
         21    1    1    2  504  503  0.13296323584E+02  0.15038605760E+02 -0.38757915694E+02  0.43647770997E+02  0.00000000000E+00 0.  1.
</event>
<event>
 4    1  0.3069799E+006  0.2057316E+02  0.7546771E-02  0.1525447E+00
         21   -1    0    0  504  501  0.00000000000E+00  0.00000000000E+00  0.13151508380E+03  0.13151508380E+03  0.00000000000E+00 0. -1.
         21   -1    0    0  503  502 -0.00000000000E+00 -0.00000000000E+00 -0.31741430662E+02  0.31741430662E+02  0.00000000000E+00 0. -1.
         21    1    1    2  503  501  0.10631828815E+02  0.17613033329E+02 -0.27492667665E+02  0.34338047445E+02  0.00000000000E+00 0. -1.
         21    1    1    2  504  502 -0.10631828815E+02 -0.17613033329E+02  0.12726632080E+03  0.12891846701E+03  0.00000000000E+00 0. -1.
</event>
<event>
 4    1  0.3069799E+006  0.3162838E+02  0.7546771E-02  0.1405955E+00
         21   -1    0    0  504  501  0.00000000000E+00  0.00000000000E+00  0.55445034472E+02  0.55445034472E+02  0.00000000000E+00 0. -1.
         21   -1    0    0  503  502 -0.00000000000E+00 -0.00000000000E+00 -0.19406626371E+02  0.19406626371E+02  0.00000000000E+00 0. -1.
         21    1    1    2  503  501 -0.28818233210E+02  0.13033190828E+02  0.27942577609E+02  0.42203581269E+02  0.00000000000E+00 0. -1.
         21    1    1    2  504  502  0.28818233210E+02 -0.13033190828E+02  0.80958304922E+01  0.32648079574E+02  0.00000000000E+00 0. -1.
</event>
<event>
 4    1  0.3069799E+006  0.2007471E+02  0.7546771E-02  0.1532897E+00
         21   -1    0    0  503  501  0.00000000000E+00  0.00000000000E+00  0.13588338169E+01  0.13588338169E+01  0.00000000000E+00 0. -1.
         21   -1    0    0  504  502 -0.00000000000E+00 -0.00000000000E+00 -0.36415314991E+03  0.36415314991E+03  0.00000000000E+00 0. -1.
         21    1    1    2  503  502 -0.63353397949E+01  0.19048819236E+02 -0.26012669396E+03  0.26090015514E+03  0.00000000000E+00 0. -1.
         21    1    1    2  504  501  0.63353397949E+01 -0.19048819236E+02 -0.10266762213E+03  0.10461182858E+03  0.00000000000E+00 0. -1.
</event>
<event>
 4    1  0.3069799E+006  0.2319217E+02  0.7546771E-02  0.1490099E+00
         21   -1    0    0  503  501  0.00000000000E+00  0.00000000000E+00  0.22315296322E+03  0.22315296322E+03  0.00000000000E+00 0. -1.
         21   -1    0    0  501  502 -0.00000000000E+00 -0.00000000000E+00 -0.24244666391E+01  0.24244666391E+01  0.00000000000E+00 0. -1.
         21    1    1    2  503  504  0.59772955586E+00  0.23184461728E+02  0.11897095277E+03  0.12121041271E+03  0.00000000000E+00 0. -1.
         21    1    1    2  504  502 -0.59772955586E+00 -0.23184461728E+02  0.10175754381E+03  0.10436701715E+03  0.00000000000E+00 0. -1.
</event>
<event>
 4    1  0.3069799E+006  0.2200950E+02  0.7546771E-02  0.1505325E+00
         21   -1    0    0  502  501  0.00000000000E+00  0.00000000000E+00  0.61210963960E+01  0.61210963960E+01  0.00000000000E+00 0. -1.
         21   -1    0    0  503  502 -0.00000000000E+00 -0.00000000000E+00 -0.15509795196E+03  0.15509795196E+03  0.00000000000E+00 0.  1.
         21    1    1    2  503  504  0.21828724984E+02 -0.28151038233E+01 -0.13090056188E+03  0.13273799435E+03  0.00000000000E+00 0.  1.
         21    1    1    2  504  501 -0.21828724984E+02  0.28151038233E+01 -0.18076293690E+02  0.28481054010E+02  0.00000000000E+00 0. -1.
</event>
<event>
 4    1  0.3069799E+006  0.3860878E+02  0.7546771E-02  0.1356837E+00
         21   -1    0    0  504  501  0.00000000000E+00  0.00000000000E+00  0.15272090936E+01  0.15272090936E+01  0.00000000000E+00 0.  1.
         21   -1    0    0  503  502 -0.00000000000E+00 -0.00000000000E+00 -0.11303807598E+04  0.11303807598E+04  0.00000000000E+00 0.  1.
         21    1    1    2  503  501 -0.38510866734E+02  0.27479134081E+01 -0.35530947176E+03  0.35740097735E+03  0.00000000000E+00 0.  1.
         21    1    1    2  504  502  0.38510866734E+02 -0.27479134081E+01 -0.77354407898E+03  0.77450699158E+03  0.00000000000E+00 0.  1.
</event>
<event>
 4    1  0.3069799E+006  0.1086471E+03  0.7546771E-02  0.1149612E+00
         21   -1    0    0  502  501  0.00000000000E+00  0.00000000000E+00  0.24840814014E+03  0.24840814014E+03  0.00000000000E+00 0.  1.
         21   -1    0    0  503  502 -0.00000000000E+00 -0.00000000000E+00 -0.39162749774E+03  0.39162749774E+03  0.00000000000E+00 0. -1.
         21    1    1    2  503  504  0.56927940521E+02  0.92538625413E+02 -0.37158468063E+03  0.38714256093E+03  0.00000000000E+00 0. -1.
         21    1    1    2  504  501 -0.56927940521E+02 -0.92538625413E+02  0.22836532303E+03  0.25289307695E+03  0.00000000000E+00 0.  1.
</event>
<event>
 4    1  0.3069799E+006  0.3394055E+02  0.7546771E-02  0.1388168E+00
         21   -1    0    0  504  501  0.00000000000E+00  0.00000000000E+00  0.13170866662E+02  0.13170866662E+02  0.00000000000E+00 0.  1.
         21   -1    0    0  503  502 -0.00000000000E+00 -0.00000000000E+00 -0.11331772736E+03  0.11331772736E+03  0.00000000000E+00 0.  1.
         21    1    1    2  503  501  0.31710888942E+02  0.12098771112E+02 -0.19863884963E+02  0.39326004955E+02  0.00000000000E+00 0.  1.
         21    1    1    2  504  502 -0.31710888942E+02 -0.12098771112E+02 -0.80282975734E+02  0.87162589065E+02  0.00000000000E+00 0.  1.
</event>
<event>
 4    1  0.3069799E+006  0.2044008E+02  0.7546771E-02  0.1527411E+00
         21   -1    0    0  504  501  0.00000000000E+00  0.00000000000E+00  0.16564233528E+02  0.16564233528E+02  0.00000000000E+00 0.  1.
         21   -1    0    0  503  502 -0.00000000000E+00 -0.00000000000E+00 -0.26166375995E+02  0.26166375995E+02  0.00000000000E+00 0.  1.
         21    1    1    2  503  501  0.15874848065E+02  0.12875796358E+02 -0.88581892241E+01  0.22276993721E+02  0.00000000000E+00 0.  1.
         21    1    1    2  504  502 -0.15874848065E+02 -0.12875796358E+02 -0.74395324271E+00  0.20453615801E+02  0.00000000000E+00 0.  1.
</event>
<event>
 4    1  0.3069799E+006  0.2124900E+02  0.7546771E-02  0.1515739E+00
         21   -1    0    0  502  501  0.00000000000E+00  0.00000000000E+00  0.15057729732E+03  0.15057729732E+03  0.00000000000E+00 0. -1.
         21   -1    0    0  504  502 -0.00000000000E+00 -0.00000000000E+00 -0.11224287924E+02  0.11224287924E+02  0.00000000000E+00 0.  1.
         21    1    1    2  503  501 -0.17768797303E+02 -0.11652887771E+02  0.13893286920E+03  0.14054843327E+03  0.00000000000E+00 0. -1.
         21    1    1    2  504  503  0.17768797303E+02  0.11652887771E+02  0.42014019611E+00  0.21253151973E+02  0.00000000000E+00 0.  1.
</event>
<event>
 4    1  0.3069799E+006  0.4507034E+02  0.7546771E-02  0.1321088E+00
         21   -1    0    0  503  501  0.00000000000E+00  0.00000000000E+00  0.33262996860E+03  0.33262996860E+03  0.00000000000E+00 0. -1.
         21   -1    0    0  501  502 -0.00000000000E+00 -0.00000000000E+00 -0.38242271818E+02  0.38242271818E+02  0.00000000000E+00 0. -1.
         21    1    1    2  503  504 -0.34276259369E+02 -0.29265569818E+02  0.31718025918E+03  0.32036643448E+03  0.00000000000E+00 0. -1.
         21    1    1    2  504  502  0.34276259369E+02  0.29265569818E+02 -0.22792562390E+02  0.50505805937E+02  0.00000000000E+00 0. -1.
</event>
<event>
 4    1  0.3069799E+006  0.3138132E+02  0.7546771E-02  0.1407961E+00
         21   -1    0    0  502  501  0.00000000000E+00  0.00000000000E+00  0.65090870972E+01  0.65090870972E+01  0.00000000000E+00 0.  1.
         21   -1    0    0  504  502 -0.00000000000E+00 -0.00000000000E+00 -0.19549757443E+03  0.19549757443E+03  0.00000000000E+00 0.  1.
         21    1    1    2  503  501 -0.14131532601E+02  0.28019404986E+02 -0.46466452665E+02  0.56070656254E+02  0.00000000000E+00 0.  1.
         21    1    1    2  504  503  0.14131532601E+02 -0.28019404986E+02 -0.14252203467E+03  0.14593600527E+03  0.00000000000E+00 0.  1.
</event>
<event>
 4    1  0.3069799E+006  0.2797006E+02  0.7546771E-02  0.1438100E+00
         21   -1    0    0  503  501  0.00000000000E+00  0.00000000000E+00  0.42351105070E+02  0.42351105070E+02  0.00000000000E+00 0. -1.
         21   -1    0    0  504  502 -0.00000000000E+00 -0.00000000000E+00 -0.44978080509E+02  0.44978080509E+02  0.00000000000E+00 0.  1.
         21    1    1    2  503  502 -0.25281309683E+02 -0.11965773753E+02 -0.34833090167E+02  0.44672906010E+02  0.00000000000E+00 0.  1.
         21    1    1    2  504  501  0.25281309683E+02  0.11965773753E+02  0.32206114728E+02  0.42656279569E+02  0.00000000000E+00 0. -1.
</event>
<event>
 4    1  0.3069799E+006  0.2976173E+02  0.7546771E-02  0.1421679E+00
         21   -1    0    0  504  501  0.00000000000E+00  0.00000000000E+00  0.68363135482E+01  0.68363135482E+01  0.00000000000E+00 0. -1.
         21   -1    0    0  503  502 -0.00000000000E+00 -0.00000000000E+00 -0.18790975422E+03  0.18790975422E+03  0.00000000000E+00 0.  1.
         21    1    1    2  503  501 -0.18649901790E+02 -0.23193569997E+02 -0.36279497099E+02  0.46925072570E+02  0.00000000000E+00 0. -1.
         21    1    1    2  504  502  0.18649901790E+02  0.23193569997E+02 -0.14479394358E+03  0.14782099520E+03  0.00000000000E+00 0.  1.
</event>
<event>
 4    1  0.3069799E+006  0.2024303E+02  0.7546771E-02  0.1530352E+00
         21   -1    0    0  504  501  0.00000000000E+00  0.00000000000E+00  0.32446753158E+02  0.32446753158E+02  0.00000000000E+00 0. -1.
         21   -1    0    0  501  502 -0.00000000000E+00 -0.00000000000E+00 -0.70823341634E+02  0.70823341634E+02  0.00000000000E+00 0. -1.
         21    1    1    2  503  502 -0.15593716552E+02  0.12907987656E+02 -0.65993654417E+02  0.69028563396E+02  0.00000000000E+00 0. -1.
         21    1    1    2  504  503  0.15593716552E+02 -0.12907987656E+02  0.27617065940E+02  0.34241531397E+02  0.00000000000E+00 0. -1.
</event>
<event>
 4    1  0.3069799E+006  0.2750439E+02  0.7546771E-02  0.1442606E+00
         21   -1    0    0  503  501  0.00000000000E+00  0.00000000000E+00  0.18214282009E+03  0.18214282009E+03  0.00000000000E+00 0.  1.
         21   -1    0    0  504  502 -0.00000000000E+00 -0.00000000000E+00 -0.43090897073E+01  0.43090897073E+01  0.00000000000E+00 0. -1.
         21    1    1    2  503  502  0.26944600905E+02  0.55208462270E+01  0.71189969529E+02  0.76318431735E+02  0.00000000000E+00 0. -1.
         21    1    1    2  504  501 -0.26944600905E+02 -0.55208462270E+01  0.10664376085E+03  0.11013347806E+03  0.00000000000E+00 0.  1.
</event>
<event>
 4    1  0.3069799E+006  0.2440819E+02  0.7546771E-02  0.1475534E+00
         21   -1    0    0  502  501  0.00000000000E+00  0.00000000000E+00  0.35956729161E+02  0.35956729161E+02  0.00000000000E+00 0. -1.
         21   -1    0    0  504  502 -0.00000000000E+00 -0.00000000000E+00 -0.42876920246E+02  0.42876920246E+02  0.00000000000E+00 0. -1.
         21    1    1    2  503  501 -0.92716431184E+00  0.24390571263E+02  0.27415462208E+02  0.36706500355E+02  0.00000000000E+00 0. -1.
         21    1    1    2  504  503  0.92716431184E+00 -0.24390571263E+02 -0.34335653293E+02  0.42127149052E+02  0.00000000000E+00 0. -1.
</event>
<event>
 4    1  0.3069799E+006  0.2070433E+02  0.7546771E-02  0.1523528E+00
         21   -1    0    0  502  501  0.00000000000E+00  0.00000000000E+00  0.54869299586E+02  0.54869299586E+02  0.00000000000E+00 0.  1.
         21   -1    0    0  503  502 -0.00000000000E+00 -0.00000000000E+00 -0.83680295711E+01  0.83680295711E+01  0.00000000000E+00 0.  1.
         21    1    1    2  503  504 -0.11287124581E+02 -0.17357129741E+02  0.15104228948E+02  0.25628243527E+02  0.00000000000E+00 0.  1.
         21    1    1    2  504  501  0.11287124581E+02  0.17357129741E+02  0.31397041067E+02  0.37609085630E+02  0.00000000000E+00 0.  1.
</event>
<event>
 4    1  0.3069799E+006  0.2235973E+02  0.7546771E-02  0.1500698E+00
         21   -1    0    0  503  501  0.00000000000E+00  0.00000000000E+00  0.10799163266E+02  0.10799163266E+02  0.00000000000E+00 0. -1.
         21   -1    0    0  504  502 -0.00000000000E+00 -0.00000000000E+00 -0.19890298443E+03  0.19890298443E+03  0.00000000000E+00 0. -1.
         21    1    1    2  503  502  0.13630171346E+02 -0.17725013294E+02 -0.18589352100E+03  0.18723343403E+03  0.00000000000E+00 0. -1.
         21    1    1    2  504  501 -0.13630171346E+02  0.17725013294E+02 -0.22103001636E+01  0.22468713671E+02  0.00000000000E+00 0. -1.
</event>
<event>
 4    1  0.3069799E+006  0.2076702E+02  0.7546771E-02  0.1522617E+00
         21   -1    0    0  504  501  0.00000000000E+00  0.00000000000E+00  0.21680155833E+02  0.21680155833E+02  0.00000000000E+00 0. -1.
         21   -1    0    0  503  502 -0.00000000000E+00 -0.00000000000E+00 -0.27297902748E+02  0.27297902748E+02  0.00000000000E+00 0.  1.
         21    1    1    2  503  501  0.12177200975E+02  0.16822155154E+02  0.99462842313E+01  0.23026022184E+02  0.00000000000E+00 0. -1.
         21    1    1    2  504  502 -0.12177200975E+02 -0.16822155154E+02 -0.15564031146E+02  0.25952036397E+02  0.00000000000E+00 0.  1.
</event>
<event>
 4    1  0.3069799E+006  0.2138601E+02  0.7546771E-02  0.1513824E+00
         21   -1    0    0  504  501  0.00000000000E+00  0.00000000000E+00  0.27438287241E+02  0.27438287241E+02  0.00000000000E+00 0.  1.
         21   -1    0    0  503  502 -0.00000000000E+00 -0.00000000000E+00 -0.30660459569E+02  0.30660459569E+02  0.00000000000E+00 0.  1.
         21    1    1    2  503  501 -0.15298512591E+02 -0.14943799013E+02  0.18012709759E+02  0.27961032336E+02  0.00000000000E+00 0.  1.
         21    1    1    2  504  502  0.15298512591E+02  0.14943799013E+02 -0.21234882087E+02  0.30137714473E+02  0.00000000000E+00 0.  1.
</event>
<event>
 4    1  0.3069799E+006  0.2783817E+02  0.7546771E-02  0.1439365E+00
         21   -1    0    0  503  501  0.00000000000E+00  0.00000000000E+00  0.14894166755E+02  0.14894166755E+02  0.00000000000E+00 0. -1.
         21   -1    0    0  504  502 -0.00000000000E+00 -0.00000000000E+00 -0.73281329180E+02  0.73281329180E+02  0.00000000000E+00 0. -1.
         21    1    1    2  503  502  0.63937673075E+01  0.27093972855E+02 -0.52934661987E+02  0.59808377884E+02  0.00000000000E+00 0. -1.
         21    1    1    2  504  501 -0.63937673075E+01 -0.27093972855E+02 -0.54525004378E+01  0.28367118050E+02  0.00000000000E+00 0. -1.
</event>
<event>
 4    1  0.3069799E+006  0.2137899E+02  0.7546771E-02  0.1513922E+00
         21   -1    0    0  503  501  0.00000000000E+00  0.00000000000E+00  0.69711054616E+01  0.69711054616E+01  0.00000000000E+00 0.  1.
         21   -1    0    0  504  502 -0.00000000000E+00 -0.00000000000E+00 -0.15644162735E+03  0.15644162735E+03  0.00000000000E+00 0.  1.
         21    1    1    2  503  502  0.61693786312E+01 -0.20469485352E+02 -0.13700910177E+03  0.13866706542E+03  0.00000000000E+00 0.  1.
         21    1    1    2  504  501 -0.61693786312E+01  0.20469485352E+02 -0.12461420110E+02  0.24745667387E+02  0.00000000000E+00 0.  1.
</event>
<event>
 4    1  0.3069799E+006  0.2104529E+02  0.7546771E-02  0.1518619E+00
         21   -1    0    0  503  501  0.00000000000E+00  0.00000000000E+00  0.17139432187E+02  0.17139432187E+02  0.00000000000E+00 0. -1.
         21   -1    0    0  504  502 -0.00000000000E+00 -0.00000000000E+00 -0.26148307720E+02  0.26148307720E+02  0.00000000000E+00 0. -1.
         21    1    1    2  503  502  0.15406532944E+02 -0.14336770009E+02 -0.68498981408E+01  0.22131998015E+02  0.00000000000E+00 0. -1.
         21    1    1    2  504  501 -0.15406532944E+02  0.14336770009E+02 -0.21589773928E+01  0.21155741892E+02  0.00000000000E+00 0. -1.
</event>
<event>
 4    1  0.3069799E+006  0.2258977E+02  0.7546771E-02  0.1497715E+00
         21   -1    0    0  502  501  0.00000000000E+00  0.00000000000E+00  0.75731297925E+02  0.75731297925E+02  0.00000000000E+00 0.  1.
         21   -1    0    0  503  502 -0.00000000000E+00 -0.00000000000E+00 -0.30166403489E+02  0.30166403489E+02  0.00000000000E+00 0. -1.
         21    1    1    2  503  504  0.91677876985E+01  0.20645810794E+02 -0.23879582617E+02  0.32871451148E+02  0.00000000000E+00 0. -1.
         21    1    1    2  504  501 -0.91677876985E+01 -0.20645810794E+02  0.69444477053E+02  0.73026250266E+02  0.00000000000E+00 0.  1.
</event>
<event>
 4    1  0.3069799E+006  0.4309957E+02  0.7546771E-02  0.1331221E+00
         21   -1    0    0  503  501  0.00000000000E+00  0.00000000000E+00  0.22725512732E+03  0.22725512732E+03  0.00000000000E+00 0.  1.
         21   -1    0    0  504  502 -0.00000000000E+00 -0.00000000000E+00 -0.81820828864E+01  0.81820828864E+01  0.00000000000E+00 0.  1.
         21    1    1    2  503  502  0.36466560503E+02 -0.22973099381E+02  0.11324661554E+03  0.12117082677E+03  0.00000000000E+00 0.  1.
         21    1    1    2  504  501 -0.36466560503E+02  0.22973099381E+02  0.10582642890E+03  0.11426638344E+03  0.00000000000E+00 0.  1.
</event>
<event>
 4    1  0.3069799E+006  0.2518110E+02  0.7546771E-02  0.1466788E+00
         21   -1    0    0  503  501  0.00000000000E+00  0.00000000000E+00  0.14877626483E+02  0.14877626483E+02  0.00000000000E+00 0.  1.
         21   -1    0    0  504  502 -0.00000000000E+00 -0.00000000000E+00 -0.80633932271E+02  0.80633932271E+02  0.00000000000E+00 0.  1.
         21    1    1    2  503  502 -0.65486888372E-01  0.25181015966E+02 -0.88478408664E-01  0.25181256562E+02  0.00000000000E+00 0.  1.
         21    1    1    2  504  501  0.65486888372E-01 -0.25181015966E+02 -0.65667827379E+02  0.70330302191E+02  0.00000000000E+00 0.  1.
</event>
<event>
 4    1  0.3069799E+006  0.2135357E+02  0.7546771E-02  0.1514276E+00
         21   -1    0    0  503  501  0.00000000000E+00  0.00000000000E+00  0.17917218932E+03  0.17917218932E+03  0.00000000000E+00 0. -1.
         21   -1    0    0  504  502 -0.00000000000E+00 -0.00000000000E+00 -0.46000270328E+01  0.46000270328E+01  0.00000000000E+00 0. -1.
         21    1    1    2  503  502  0.47363818669E+01 -0.20821661086E+02  0.25868989103E+02  0.33543695097E+02  0.00000000000E+00 0. -1.
         21    1    1    2  504  501 -0.47363818669E+01  0.20821661086E+02  0.14870317318E+03  0.15022852125E+03  0.00000000000E+00 0. -1.
</event>
<event>
 4    1  0.3069799E+006  0.2976585E+02  0.7546771E-02  0.1421642E+00
         21   -1    0    0  503  501  0.00000000000E+00  0.00000000000E+00  0.10150674932E+02  0.10150674932E+02  0.00000000000E+00 0. -1.
         21   -1    0    0  504  502 -0.00000000000E+00 -0.00000000000E+00 -0.87968329897E+02  0.87968329897E+02  0.00000000000E+00 0. -1.
         21    1    1    2  503  502 -0.29658119838E+02 -0.25301837709E+01 -0.34586254104E+02  0.45631292718E+02  0.00000000000E+00 0. -1.
         21    1    1    2  504  501  0.29658119838E+02  0.25301837709E+01 -0.43231400862E+02  0.52487712111E+02  0.00000000000E+00 0. -1.
</event>
<event>
 4    1  0.3069799E+006  0.2224560E+02  0.7546771E-02  0.1502195E+00
         21   -1    0    0  503  501  0.00000000000E+00  0.00000000000E+00  0.28545903642E+02  0.28545903642E+02  0.00000000000E+00 0. -1.
         21   -1    0    0  501  502 -0.00000000000E+00 -0.00000000000E+00 -0.36942576694E+02  0.36942576694E+02  0.00000000000E+00 0.  1.
         21    1    1    2  503  504  0.13462913067E+02 -0.17709221478E+02  0.19656378975E+02  0.29685683216E+02  0.00000000000E+00 0. -1.
         21    1    1    2  504  502 -0.13462913067E+02  0.17709221478E+02 -0.28053052026E+02  0.35802797120E+02  0.00000000000E+00 0.  1.
</event>
<event>
 4    1  0.3069799E+006  0.2922272E+02  0.7546771E-02  0.1426473E+00
         21   -1    0    0  502  501  0.00000000000E+00  0.00000000000E+00  0.79719500931E+02  0.79719500931E+02  0.00000000000E+00 0.  1.
         21   -1    0    0  503  502 -0.00000000000E+00 -0.00000000000E+00 -0.45657701863E+02  0.45657701863E+02  0.00000000000E+00 0.  1.
         21    1    1    2  503  504  0.48871045138E+01 -0.28811172411E+02 -0.37812894760E+02  0.47788936548E+02  0.00000000000E+00 0.  1.
         21    1    1    2  504  501 -0.48871045138E+01  0.28811172411E+02  0.71874693827E+02  0.77588266246E+02  0.00000000000E+00 0.  1.
</event>
<event>
 4    1  0.3069799E+006  0.2964847E+02  0.7546771E-02  0.1422676E+00
         21   -1    0    0  503  501  0.00000000000E+00  0.00000000000E+00  0.16521429601E+04  0.16521429601E+04  0.00000000000E+00 0.  1.
         21   -1    0    0  501  502 -0.00000000000E+00 -0.00000000000E+00 -0.99667780785E+00  0.99667780785E+00  0.00000000000E+00 0.  1.
         21    1    1    2  503  504  0.28506106743E+02 -0.81506840993E+01  0.13899278738E+04  0.13902440527E+04  0.00000000000E+00 0.  1.
         21    1    1    2  504  502 -0.28506106743E+02  0.81506840993E+01  0.26121840844E+03  0.26289558513E+03  0.00000000000E+00 0.  1.
</event>
<event>
 4    1  0.3069799E+006  0.2926608E+02  0.7546771E-02  0.1426083E+00
         21   -1    0    0  502  501  0.00000000000E+00  0.00000000000E+00  0.89746457260E+01  0.89746457260E+01  0.00000000000E+00 0. -1.
         21   -1    0    0  504  502 -0.00000000000E+00 -0.00000000000E+00 -0.23755247485E+03  0.23755247485E+03  0.00000000000E+00 0. -1.
         21    1    1    2  503  501 -0.12470658532E+02  0.26476145057E+02 -0.18948450461E+02  0.34864700718E+02  0.00000000000E+00 0. -1.
         21    1    1    2  504  503  0.12470658532E+02 -0.26476145057E+02 -0.20962937867E+03  0.21166241986E+03  0.00000000000E+00 0. -1.
</event>
<event>
 4    1  0.3069799E+006  0.2194405E+02  0.7546771E-02  0.1506201E+00
         21   -1    0    0  503  501  0.00000000000E+00  0.00000000000E+00  0.73933533322E+00  0.73933533322E+00  0.00000000000E+00 0. -1.
         21   -1    0    0  501  502 -0.00000000000E+00 -0.00000000000E+00 -0.71602930532E+03  0.71602930532E+03  0.00000000000E+00 0.  1.
         21    1    1    2  503  504  0.11784219493E+02 -0.18511448052E+02 -0.24990481855E+03  0.25086641838E+03  0.00000000000E+00 0. -1.
         21    1    1    2  504  502 -0.11784219493E+02  0.18511448052E+02 -0.46538515144E+03  0.46590222228E+03  0.00000000000E+00 0.  1.
</event>
<event>
 4    1  0.3069799E+006  0.2094580E+02  0.7546771E-02  0.1520040E+00
         21   -1    0    0  503  501  0.00000000000E+00  0.00000000000E+00  0.28487578138E+02  0.28487578138E+02  0.00000000000E+00 0.  1.
         21   -1    0    0  504  502 -0.00000000000E+00 -0.00000000000E+00 -0.77287733235E+02  0.77287733235E+02  0.00000000000E+00 0.  1.
         21    1    1    2  503  502 -0.20811263538E+02  0.23701888376E+01  0.22925849464E+02  0.31053519266E+02  0.00000000000E+00 0.  1.
         21    1    1    2  504  501  0.20811263538E+02 -0.23701888376E+01 -0.71726004561E+02  0.74721792106E+02  0.00000000000E+00 0.  1.
</event>
<event>
 4    1  0.3069799E+006  0.6129061E+02  0.7546771E-02  0.1255509E+00
         21   -1    0    0  504  501  0.00000000000E+00  0.00000000000E+00  0.51313627116E+02  0.51313627116E+02  0.00000000000E+00 0. -1.
         21   -1    0    0  503  502 -0.00000000000E+00 -0.00000000000E+00 -0.76885883549E+02  0.76885883549E+02  0.00000000000E+00 0. -1.
         21    1    1    2  503  501 -0.60878062612E+02  0.70993336772E+01  0.12344324840E+01  0.61303041276E+02  0.00000000000E+00 0. -1.
         21    1    1    2  504  502  0.60878062612E+02 -0.70993336772E+01 -0.26806688918E+02  0.66896469390E+02  0.00000000000E+00 0. -1.
</event>
<event>
 4    1  0.3069799E+006  0.4157827E+02  0.7546771E-02  0.1339477E+00
         21   -1    0    0  504  501  0.00000000000E+00  0.00000000000E+00  0.54271849851E+02  0.54271849851E+02  0.00000000000E+00 0.  1.
         21   -1    0    0  503  502 -0.00000000000E+00 -0.00000000000E+00 -0.31853965812E+02  0.31853965812E+02  0.00000000000E+00 0.  1.
         21    1    1    2  503  501  0.80829753782E+01  0.40785022934E+02  0.11058629507E+02  0.43023782647E+02  0.00000000000E+00 0.  1.
         21    1    1    2  504  502 -0.80829753782E+01 -0.40785022934E+02  0.11359254532E+02  0.43102033017E+02  0.00000000000E+00 0.  1.
</event>
<event>
 4    1  0.3069799E+006  0.2639352E+02  0.7546771E-02  0.1453797E+00
         21   -1    0    0  504  501  0.00000000000E+00  0.00000000000E+00  0.67128641925E+00  0.67128641925E+00  0.00000000000E+00 0. -1.
         21   -1    0    0  503  502 -0.00000000000E+00 -0.00000000000E+00 -0.12057642592E+04  0.12057642592E+04  0.00000000000E+00 0. -1.
         21    1    1    2  503  501 -0.23862605221E+02 -0.11278026280E+02 -0.37736399154E+03  0.37828587063E+03  0.00000000000E+00 0. -1.
         21    1    1    2  504  502  0.23862605221E+02  0.11278026280E+02 -0.82772898124E+03  0.82814967500E+03  0.00000000000E+00 0. -1.
</event>
<event>
 4    1  0.3069799E+006  0.2550836E+02  0.7546771E-02  0.1463196E+00
         21   -1    0    0  503  501  0.00000000000E+00  0.00000000000E+00  0.22961073588E+03  0.22961073588E+03  0.00000000000E+00 0. -1.
         21   -1    0    0  504  502 -0.00000000000E+00 -0.00000000000E+00 -0.28920277559E+01  0.28920277559E+01  0.00000000000E+00 0.  1.
         21    1    1    2  503  502  0.23916977817E+02  0.88687486632E+01  0.12985124690E+03  0.13233299986E+03  0.00000000000E+00 0.  1.
         21    1    1    2  504  501 -0.23916977817E+02 -0.88687486632E+01  0.96867461227E+02  0.10016976378E+03  0.00000000000E+00 0. -1.
</event>
<event>
 4    1  0.3069799E+006  0.2600919E+02  0.7546771E-02  0.1457823E+00
         21   -1    0    0  504  501  0.00000000000E+00  0.00000000000E+00  0.29672734823E+02  0.29672734823E+02  0.00000000000E+00 0.  1.
         21   -1    0    0  503  502 -0.00000000000E+00 -0.00000000000E+00 -0.26437897844E+02  0.26437897844E+02  0.00000000000E+00 0.  1.
         21    1    1    2  503  501  0.47452154787E+00  0.26004857439E+02 -0.87925346612E+01  0.27455171587E+02  0.00000000000E+00 0.  1.
         21    1    1    2  504  502 -0.47452154787E+00 -0.26004857439E+02  0.12027371640E+02  0.28655461079E+02  0.00000000000E+00 0.  1.
</event>
<event>
 4    1  0.3069799E+006  0.2130942E+02  0.7546771E-02  0.1514893E+00
         21   -1    0    0  504  501  0.00000000000E+00  0.00000000000E+00  0.13226789078E+02  0.13226789078E+02  0.00000000000E+00 0.  1.
         21   -1    0    0  501  502 -0.00000000000E+00 -0.00000000000E+00 -0.34624373094E+02  0.34624373094E+02  0.00000000000E+00 0.  1.
         21    1    1    2  503  502  0.37140553716E+00 -0.21306184768E+02 -0.84971909907E+01  0.22941092087E+02  0.00000000000E+00 0.  1.
         21    1    1    2  504  503 -0.37140553716E+00  0.21306184768E+02 -0.12900393026E+02  0.24910070085E+02  0.00000000000E+00 0.  1.
</event>
<event>
 4    1  0.3069799E+006  0.2003835E+02  0.7546771E-02  0.1533450E+00
         21   -1    0    0  504  501  0.00000000000E+00  0.00000000000E+00  0.14493930170E+02  0.14493930170E+02  0.00000000000E+00 0. -1.
         21   -1    0    0  503  502 -0.00000000000E+00 -0.00000000000E+00 -0.75076177659E+02  0.75076177659E+02  0.00000000000E+00 0. -1.
         21    1    1    2  503  501  0.11894678475E+02  0.16126125737E+02 -0.65866142141E+02  0.68846815379E+02  0.00000000000E+00 0. -1.
         21    1    1    2  504  502 -0.11894678475E+02 -0.16126125737E+02  0.52838946514E+01  0.20723292451E+02  0.00000000000E+00 0. -1.
</event>
<event>
 4    1  0.3069799E+006  0.3579412E+02  0.7546771E-02  0.1375065E+00
         21   -1    0    0  502  501  0.00000000000E+00  0.00000000000E+00  0.17837197574E+03  0.17837197574E+03  0.00000000000E+00 0. -1.
         21   -1    0    0  504  502 -0.00000000000E+00 -0.00000000000E+00 -0.21449852117E+02  0.21449852117E+02  0.00000000000E+00 0.  1.
         21    1    1    2  503  501  0.32247743487E+02  0.15533892487E+02  0.15994409271E+03  0.16390037086E+03  0.00000000000E+00 0. -1.
         21    1    1    2  504  503 -0.32247743487E+02 -0.15533892487E+02 -0.30219690830E+01  0.35921457000E+02  0.00000000000E+00 0.  1.
</event>
<event>
 4    1  0.3069799E+006  0.2949961E+02  0.7546771E-02  0.1423995E+00
         21   -1    0    0  504  501  0.00000000000E+00  0.00000000000E+00  0.40041018371E+01  0.40041018371E+01  0.00000000000E+00 0. -1.
         21   -1    0    0  501  502 -0.00000000000E+00 -0.00000000000E+00 -0.38390446558E+03  0.38390446558E+03  0.00000000000E+00 0.  1.
         21    1    1    2  503  502 -0.15546044038E+02  0.25070848698E+02 -0.31770784697E+03  0.31907444738E+03  0.00000000000E+00 0.  1.
         21    1    1    2  504  503  0.15546044038E+02 -0.25070848698E+02 -0.62192516767E+02  0.68834120039E+02  0.00000000000E+00 0. -1.
</event>
<event>
 4    1  0.3069799E+006  0.2244134E+02  0.7546771E-02  0.1499635E+00
         21   -1    0    0  502  501  0.00000000000E+00  0.00000000000E+00  0.84544200973E+02  0.84544200973E+02  0.00000000000E+00 0. -1.
         21   -1    0    0  504  502 -0.00000000000E+00 -0.00000000000E+00 -0.17844729490E+02  0.17844729490E+02  0.00000000000E+00 0.  1.
         21    1    1    2  503  501  0.10027799269E+02 -0.20076279110E+02  0.75134788431E+02  0.78414604339E+02  0.00000000000E+00 0. -1.
         21    1    1    2  504  503 -0.10027799269E+02  0.20076279110E+02 -0.84353169479E+01  0.23974326123E+02  0.00000000000E+00 0.  1.
</event>
<event>
 4    1  0.3069799E+006  0.2129741E+02  0.7546771E-02  0.1515061E+00
         21   -1    0    0  503  501  0.00000000000E+00  0.00000000000E+00  0.17247912857E+02  0.17247912857E+02  0.00000000000E+00 0. -1.
         21   -1    0    0  504  502 -0.00000000000E+00 -0.00000000000E+00 -0.49089035410E+02  0.49089035410E+02  0.00000000000E+00 0.  1.
         21    1    1    2  503  502 -0.20949321413E+02 -0.38347985653E+01 -0.38521085419E+02  0.44016517008E+02  0.00000000000E+00 0.  1.
         21    1    1    2  504  501  0.20949321413E+02  0.38347985653E+01  0.66799628657E+01  0.22320431259E+02  0.00000000000E+00 0. -1.
</event>
<event>
 4    1  0.3069799E+006  0.2416611E+02  0.7546771E-02  0.1478352E+00
         21   -1    0    0  504  501  0.00000000000E+00  0.00000000000E+00  0.13567427156E+03  0.13567427156E+03  0.00000000000E+00 0. -1.
         21   -1    0    0  503  502 -0.00000000000E+00 -0.00000000000E+00 -0.56459648793E+01  0.56459648793E+01  0.00000000000E+00 0. -1.
         21    1    1    2  503  501 -0.65717621578E-01  0.24166021634E+02  0.99457523789E+02  0.10235135543E+03  0.00000000000E+00 0. -1.
         21    1    1    2  504  502  0.65717621578E-01 -0.24166021634E+02  0.30570782892E+02  0.38968881008E+02  0.00000000000E+00 0. -1.
</event>
<event>
 4    1  0.3069799E+006  0.2207679E+02  0.7546771E-02  0.1504428E+00
         21   -1    0    0  503  501  0.00000000000E+00  0.00000000000E+00  0.29151832326E+03  0.29151832326E+03  0.00000000000E+00 0. -1.
         21   -1    0    0  504  502 -0.00000000000E+00 -0.00000000000E+00 -0.41045954819E+01  0.41045954819E+01  0.00000000000E+00 0.  1.
         21    1    1    2  503  502 -0.69198358884E+01 -0.20964272470E+02  0.29913164281E+02  0.37177711686E+02  0.00000000000E+00 0.  1.
         21    1    1    2  504  501  0.69198358884E+01  0.20964272470E+02  0.25750056350E+03  0.25844520706E+03  0.00000000000E+00 0. -1.
</event>
<event>
 4    1  0.3069799E+006  0.2020298E+02  0.7546771E-02  0.1530955E+00
         21   -1    0    0  503  501  0.00000000000E+00  0.00000000000E+00  0.98883314109E+02  0.98883314109E+02  0.00000000000E+00 0. -1.
         21   -1    0    0  501  502 -0.00000000000E+00 -0.00000000000E+00 -0.60194292172E+02  0.60194292172E+02  0.00000000000E+00 0.  1.
         21    1    1    2  503  504 -0.10724841404E+02 -0.17121278263E+02  0.96107784345E+02  0.98208281749E+02  0.00000000000E+00 0. -1.
         21    1    1    2  504  502  0.10724841404E+02  0.17121278263E+02 -0.57418762407E+02  0.60869324531E+02  0.00000000000E+00 0.  1.
</event>
<event>
 4    1  0.3069799E+006  0.4090151E+02  0.7546771E-02  0.1343282E+00
         21   -1    0    0  503  501  0.00000000000E+00  0.00000000000E+00  0.17624775933E+03  0.17624775933E+03  0.00000000000E+00 0. -1.
         21   -1    0    0  504  502 -0.00000000000E+00 -0.00000000000E+00 -0.95320152325E+01  0.95320152325E+01  0.00000000000E+00 0. -1.
         21    1    1    2  503  502 -0.40428615727E+02  0.62016363664E+01  0.77334900374E+02  0.87484970589E+02  0.00000000000E+00 0. -1.
         21    1    1    2  504  501  0.40428615727E+02 -0.62016363664E+01  0.89380843720E+02  0.98294803970E+02  0.00000000000E+00 0. -1.
</event>
<event>
 4    1  0.3069799E+006  0.2202277E+02  0.7546771E-02  0.1505148E+00
         21   -1    0    0  503  501  0.00000000000E+00  0.00000000000E+00  0.13479341315E+01  0.13479341315E+01  0.00000000000E+00 0.  1.
         21   -1    0    0  504  502 -0.00000000000E+00 -0.00000000000E+00 -0.36405639146E+03  0.36405639146E+03  0.00000000000E+00 0.  1.
         21    1    1    2  503  502 -0.12176197085E+01 -0.21989088222E+02 -0.20108198035E+03  0.20228436771E+03  0.00000000000E+00 0.  1.
         21    1    1    2  504  501  0.12176197085E+01  0.21989088222E+02 -0.16162647698E+03  0.16311995788E+03  0.00000000000E+00 0.  1.
</event>
<event>
 4    1  0.3069799E+006  0.2062831E+02  0.7546771E-02  0.1524638E+00
         21   -1    0    0  502  501  0.00000000000E+00  0.00000000000E+00  0.56981601991E+03  0.56981601991E+03  0.00000000000E+00 0.  1.
         21   -1    0    0  504  502 -0.00000000000E+00 -0.00000000000E+00 -0.15162411935E+02  0.15162411935E+02  0.00000000000E+00 0.  1.
         21    1    1    2  503  501 -0.16150292538E+01  0.20564992240E+02  0.56252222914E+03  0.56290033355E+03  0.00000000000E+00 0.  1.
         21    1    1    2  504  503  0.16150292538E+01 -0.20564992240E+02 -0.78686211692E+01  0.22078098298E+02  0.00000000000E+00 0.  1.
</event>
<event>
 4    1  0.3069799E+006  0.2155235E+02  0.7546771E-02  0.1511523E+00
         21   -1    0    0  502  501  0.00000000000E+00  0.00000000000E+00  0.12185443186E+03  0.12185443186E+03  0.00000000000E+00 0.  1.
         21   -1    0    0  504  502 -0.00000000000E+00 -0.00000000000E+00 -0.81017386168E+02  0.81017386168E+02  0.00000000000E+00 0.  1.
         21    1    1    2  503  501  0.18601329519E+02  0.10885517728E+02  0.11943934549E+03  0.12136828749E+03  0.00000000000E+00 0.  1.
         21    1    1    2  504  503 -0.18601329519E+02 -0.10885517728E+02 -0.78602299802E+02  0.81503530538E+02  0.00000000000E+00 0.  1.
</event>
<event>
 4    1  0.3069799E+006  0.2180730E+02  0.7546771E-02  0.1508044E+00
         21   -1    0    0  504  501  0.00000000000E+00  0.00000000000E+00  0.94161950009E+02  0.94161950009E+02  0.00000000000E+00 0.  1.
         21   -1    0    0  503  502 -0.00000000000E+00 -0.00000000000E+00 -0.59422556807E+01  0.59422556807E+01  0.00000000000E+00 0.  1.
         21    1    1    2  503  501  0.21582781401E+02 -0.31212024353E+01  0.63500239437E+02  0.67140440617E+02  0.00000000000E+00 0.  1.
         21    1    1    2  504  502 -0.21582781401E+02  0.31212024353E+01  0.24719454891E+02  0.32963765073E+02  0.00000000000E+00 0.  1.
</event>
<event>
 4    1  0.3069799E+006  0.2030144E+02  0.7546771E-02  0.1529476E+00
         21   -1    0    0  503  501  0.00000000000E+00  0.00000000000E+00  0.18451380781E+03  0.18451380781E+03  0.00000000000E+00 0. -1.
         21   -1    0    0  504  502 -0.00000000000E+00 -0.00000000000E+00 -0.13415879544E+03  0.13415879544E+03  0.00000000000E+00 0. -1.
         21    1    1    2  503  502 -0.63054827755E+01  0.19297392689E+02 -0.13282677919E+03  0.13436927383E+03  0.00000000000E+00 0. -1.
         21    1    1    2  504  501  0.63054827755E+01 -0.19297392689E+02  0.18318179156E+03  0.18430332943E+03  0.00000000000E+00 0. -1.
</event>
<event>
 4    1  0.3069799E+006  0.2902420E+02  0.7546771E-02  0.1428270E+00
         21   -1    0    0  503  501  0.00000000000E+00  0.00000000000E+00  0.15953992857E+02  0.15953992857E+02  0.00000000000E+00 0.  1.
         21   -1    0    0  504  502 -0.00000000000E+00 -0.00000000000E+00 -0.16043576591E+03  0.16043576591E+03  0.00000000000E+00 0. -1.
         21    1    1    2  503  502  0.16930737531E+02  0.23574437521E+02 -0.26916891180E-02  0.29024196543E+02  0.00000000000E+00 0.  1.
         21    1    1    2  504  501 -0.16930737531E+02 -0.23574437521E+02 -0.14447908136E+03  0.14736556222E+03  0.00000000000E+00 0. -1.
</event>
<event>
 4    1  0.3069799E+006  0.3571017E+02  0.7546771E-02  0.1375638E+00
         21   -1    0    0  504  501  0.00000000000E+00  0.00000000000E+00  0.33264734661E+01  0.33264734661E+01  0.00000000000E+00 0. -1.
         21   -1    0    0  501  502 -0.00000000000E+00 -0.00000000000E+00 -0.14383330244E+04  0.14383330244E+04  0.00000000000E+00 0. -1.
         21    1    1    2  503  502  0.55667548776E+01  0.35273608230E+02 -0.13348440070E+04  0.13353215865E+04  0.00000000000E+00 0. -1.
         21    1    1    2  504  503 -0.55667548776E+01 -0.35273608230E+02 -0.10016254385E+03  0.10633791134E+03  0.00000000000E+00 0. -1.
</event>
<event>
 4    1  0.3069799E+006  0.2263948E+02  0.7546771E-02  0.1497076E+00
         21   -1    0    0  502  501  0.00000000000E+00  0.00000000000E+00  0.16243036404E+02  0.16243036404E+02  0.00000000000E+00 0.  1.
         21   -1    0    0  503  502 -0.00000000000E+00 -0.00000000000E+00 -0.29152686801E+03  0.29152686801E+03  0.00000000000E+00 0. -1.
         21    1    1    2  503  504 -0.11000891947E+02  0.19787021761E+02 -0.28296017960E+03  0.28386442027E+03  0.00000000000E+00 0. -1.
         21    1    1    2  504  501  0.11000891947E+02 -0.19787021761E+02  0.76763479947E+01  0.23905484148E+02  0.00000000000E+00 0.  1.
</event>
<event>
 4    1  0.3069799E+006  0.3083355E+02  0.7546771E-02  0.1412488E+00
         21   -1    0    0  504  501  0.00000000000E+00  0.00000000000E+00  0.66197408077E+01  0.66197408077E+01  0.00000000000E+00 0.  1.
         21   -1    0    0  503  502 -0.00000000000E+00 -0.00000000000E+00 -0.17639702155E+03  0.17639702155E+03  0.00000000000E+00 0.  1.
         21    1    1    2  503  501  0.27193511628E+02 -0.14533440604E+02 -0.45441165272E+02  0.54914546996E+02  0.00000000000E+00 0.  1.
         21    1    1    2  504  502 -0.27193511628E+02  0.14533440604E+02 -0.12433611547E+03  0.12810221536E+03  0.00000000000E+00 0.  1.
</event>
<event>
 4    1  0.3069799E+006  0.3814390E+02  0.7546771E-02  0.1359720E+00
         21   -1    0    0  503  501  0.00000000000E+00  0.00000000000E+00  0.22110226996E+03  0.22110226996E+03  0.00000000000E+00 0.  1.
         21   -1    0    0  501  502 -0.00000000000E+00 -0.00000000000E+00 -0.93675439815E+01  0.93675439815E+01  0.00000000000E+00 0.  1.
         21    1    1    2  503  504 -0.19606861288E+02  0.32718927967E+02  0.16872315337E+03  0.17298109648E+03  0.00000000000E+00 0.  1.
         21    1    1    2  504  502  0.19606861288E+02 -0.32718927967E+02  0.43011572608E+02  0.57488717459E+02  0.00000000000E+00 0.  1.
</event>
<event>
 4    1  0.3069799E+006  0.6962496E+02  0.7546771E-02  0.1230227E+00
         21   -1    0    0  503  501  0.00000000000E+00  0.00000000000E+00  0.35956685155E+03  0.35956685155E+03  0.00000000000E+00 0. -1.
         21   -1    0    0  501  502 -0.00000000000E+00 -0.00000000000E+00 -0.71717820425E+02  0.71717820425E+02  0.00000000000E+00 0. -1.
         21    1    1    2  503  504 -0.69401786488E+02 -0.55701710190E+01  0.33824386940E+03  0.34533541661E+03  0.00000000000E+00 0. -1.
         21    1    1    2  504  502  0.69401786488E+02  0.55701710190E+01 -0.50394838281E+02  0.85949255368E+02  0.00000000000E+00 0. -1.
</event>
<event>
 4    1  0.3069799E+006  0.2981084E+02  0.7546771E-02  0.1421248E+00
         21   -1    0    0  504  501  0.00000000000E+00  0.00000000000E+00  0.23105692388E+03  0.23105692388E+03  0.00000000000E+00 0. -1.
         21   -1    0    0  503  502 -0.00000000000E+00 -0.00000000000E+00 -0.47552843554E+01  0.47552843554E+01  0.00000000000E+00 0. -1.
         21    1    1    2  503  501 -0.21044400804E+02 -0.21114430703E+02  0.16470399996E+03  0.16738008721E+03  0.00000000000E+00 0. -1.
         21    1    1    2  504  502  0.21044400804E+02  0.21114430703E+02  0.61597639563E+02  0.68432121032E+02  0.00000000000E+00 0. -1.
</event>
<event>
 4    1  0.3069799E+006  0.2265720E+02  0.7546771E-02  0.1496848E+00
         21   -1    0    0  503  501  0.00000000000E+00  0.00000000000E+00  0.64580658942E+02  0.64580658942E+02  0.00000000000E+00 0.  1.
         21   -1    0    0  501  502 -0.00000000000E+00 -0.00000000000E+00 -0.20449105838E+02  0.20449105838E+02  0.00000000000E+00 0.  1.
         21    1    1    2  503  504 -0.12691746795E+02  0.18768812193E+02  0.55305809726E+02  0.59766891648E+02  0.00000000000E+00 0.  1.
         21    1    1    2  504  502  0.12691746795E+02 -0.18768812193E+02 -0.11174256622E+02  0.25262873132E+02  0.00000000000E+00 0.  1.
</event>
<event>
 4    1  0.3069799E+006  0.2071692E+02  0.7546771E-02  0.1523345E+00
         21   -1    0    0  503  501  0.00000000000E+00  0.00000000000E+00  0.21147133220E+02  0.21147133220E+02  0.00000000000E+00 0.  1.
         21   -1    0    0  504  502 -0.00000000000E+00 -0.00000000000E+00 -0.25437738288E+02  0.25437738288E+02  0.00000000000E+00 0. -1.
         21    1    1    2  503  502  0.18955399833E+02  0.83596346809E+01 -0.12617882604E+02  0.24256991492E+02  0.00000000000E+00 0. -1.
         21    1    1    2  504  501 -0.18955399833E+02 -0.83596346809E+01  0.83272775364E+01  0.22327880016E+02  0.00000000000E+00 0.  1.
</event>
<event>
 4    1  0.3069799E+006  0.2497761E+02  0.7546771E-02  0.1469054E+00
         21   -1    0    0  504  501  0.00000000000E+00  0.00000000000E+00  0.15587824846E+02  0.15587824846E+02  0.00000000000E+00 0. -1.
         21   -1    0    0  503  502 -0.00000000000E+00 -0.00000000000E+00 -0.30985240697E+03  0.30985240697E+03  0.00000000000E+00 0. -1.
         21    1    1    2  503  501  0.17020947211E+02  0.18280265807E+02  0.47153221182E+01  0.25418792745E+02  0.00000000000E+00 0. -1.
         21    1    1    2  504  502 -0.17020947211E+02 -0.18280265807E+02 -0.29897990424E+03  0.30002143907E+03  0.00000000000E+00 0. -1.
</event>
<event>
 4    1  0.3069799E+006  0.2308987E+02  0.7546771E-02  0.1491373E+00
         21   -1    0    0  503  501  0.00000000000E+00  0.00000000000E+00  0.40924355633E+03  0.40924355633E+03  0.00000000000E+00 0. -1.
         21   -1    0    0  504  502 -0.00000000000E+00 -0.00000000000E+00 -0.14619693598E+01  0.14619693598E+01  0.00000000000E+00 0. -1.
         21    1    1    2  503  502 -0.22984131494E+02 -0.22071867397E+01  0.13612202678E+03  0.13806646279E+03  0.00000000000E+00 0. -1.
         21    1    1    2  504  501  0.22984131494E+02  0.22071867397E+01  0.27165956019E+03  0.27263906289E+03  0.00000000000E+00 0. -1.
</event>
<event>
 4    1  0.3069799E+006  0.2409257E+02  0.7546771E-02  0.1479216E+00
         21   -1    0    0  504  501  0.00000000000E+00  0.00000000000E+00  0.10194786369E+04  0.10194786369E+04  0.00000000000E+00 0.  1.
         21   -1    0    0  503  502 -0.00000000000E+00 -0.00000000000E+00 -0.11333897962E+01  0.11333897962E+01  0.00000000000E+00 0.  1.
         21    1    1    2  503  501  0.10440551732E+02  0.21712823854E+02  0.86916350491E+03  0.86949735486E+03  0.00000000000E+00 0.  1.
         21    1    1    2  504  502 -0.10440551732E+02 -0.21712823854E+02  0.14918174216E+03  0.15111467180E+03  0.00000000000E+00 0.  1.
</event>
<event>
 4    1  0.3069799E+006  0.2257383E+02  0.7546771E-02  0.1497920E+00
         21   -1    0    0  503  501  0.00000000000E+00  0.00000000000E+00  0.14589975874E+02  0.14589975874E+02  0.00000000000E+00 0.  1.
         21   -1    0    0  504  502 -0.00000000000E+00 -0.00000000000E+00 -0.12314003229E+03  0.12314003229E+03  0.00000000000E+00 0.  1.
         21    1    1    2  503  502  0.46832220544E+01  0.22082685747E+02  0.40112627165E+01  0.22927446592E+02  0.00000000000E+00 0.  1.
         21    1    1    2  504  501 -0.46832220544E+01 -0.22082685747E+02 -0.11256131913E+03  0.11480256157E+03  0.00000000000E+00 0.  1.
</event>
<event>
 4    1  0.3069799E+006  0.2492797E+02  0.7546771E-02  0.1469611E+00
         21   -1    0    0  503  501  0.00000000000E+00  0.00000000000E+00  0.13091803872E+02  0.13091803872E+02  0.00000000000E+00 0.  1.
         21   -1    0    0  501  502 -0.00000000000E+00 -0.00000000000E+00 -0.87831046944E+02  0.87831046944E+02  0.00000000000E+00 0. -1.
         21    1    1    2  503  504  0.16032768030E+02 -0.19088055130E+02 -0.31604015262E+01  0.25127507579E+02  0.00000000000E+00 0.  1.
         21    1    1    2  504  502 -0.16032768030E+02  0.19088055130E+02 -0.71578841546E+02  0.75795343237E+02  0.00000000000E+00 0. -1.
</event>
<event>
 4    1  0.3069799E+006  0.2099640E+02  0.7546771E-02  0.1519316E+00
         21   -1    0    0  503  501  0.00000000000E+00  0.00000000000E+00  0.13586039183E+01  0.13586039183E+01  0.00000000000E+00 0. -1.
         21   -1    0    0  501  502 -0.00000000000E+00 -0.00000000000E+00 -0.41582309479E+03  0.41582309479E+03  0.00000000000E+00 0. -1.
         21    1    1    2  503  504 -0.20294273990E+02  0.53843640862E+01 -0.10947187758E+03  0.11146721901E+03  0.00000000000E+00 0. -1.
         21    1    1    2  504  502  0.20294273990E+02 -0.53843640862E+01 -0.30499261329E+03  0.30571447969E+03  0.00000000000E+00 0. -1.
</event>
<event>
 4    1  0.3069799E+006  0.3691476E+02  0.7546771E-02  0.1367580E+00
         21   -1    0    0  504  501  0.00000000000E+00  0.00000000000E+00  0.43311816309E+02  0.43311816309E+02  0.00000000000E+00 0.  1.
         21   -1    0    0  503  502 -0.00000000000E+00 -0.00000000000E+00 -0.34941263838E+02  0.34941263838E+02  0.00000000000E+00 0.  1.
         21    1    1    2  503  501  0.19488293043E+02 -0.31351331236E+02  0.16530882728E+02  0.40447121279E+02  0.00000000000E+00 0.  1.
         21    1    1    2  504  502 -0.19488293043E+02  0.31351331236E+02 -0.81603302565E+01  0.37805958868E+02  0.00000000000E+00 0.  1.
</event>
<event>
 4    1  0.3069799E+006  0.2573938E+02  0.7546771E-02  0.1460699E+00
         21   -1    0    0  503  501  0.00000000000E+00  0.00000000000E+00  0.40578580448E+02  0.40578580448E+02  0.00000000000E+00 0. -1.
         21   -1    0    0  504  502 -0.00000000000E+00 -0.00000000000E+00 -0.10246201702E+03  0.10246201702E+03  0.00000000000E+00 0. -1.
         21    1    1    2  503  502 -0.22574604384E+01 -0.25640194310E+02  0.34633298688E+02  0.43150678672E+02  0.00000000000E+00 0. -1.
         21    1    1    2  504  501  0.22574604384E+01  0.25640194310E+02 -0.96516735263E+02  0.99889918799E+02  0.00000000000E+00 0. -1.
</event>
<event>
 4    1  0.3069799E+006  0.4923968E+02  0.7546771E-02  0.1301503E+00
         21   -1    0    0  503  501  0.00000000000E+00  0.00000000000E+00  0.43202760089E+02  0.43202760089E+02  0.00000000000E+00 0. -1.
         21   -1    0    0  504  502 -0.00000000000E+00 -0.00000000000E+00 -0.96849201956E+02  0.96849201956E+02  0.00000000000E+00 0. -1.
         21    1    1    2  503  502 -0.30291185912E+02  0.38819971789E+02 -0.72234447582E+02  0.87420601526E+02  0.00000000000E+00 0. -1.
         21    1    1    2  504  501  0.30291185912E+02 -0.38819971789E+02  0.18588005715E+02  0.52631360520E+02  0.00000000000E+00 0. -1.
</event>
<event>
 4    1  0.3069799E+006  0.2099161E+02  0.7546771E-02  0.1519385E+00
         21   -1    0    0  502  501  0.00000000000E+00  0.00000000000E+00  0.16427872956E+02  0.16427872956E+02  0.00000000000E+00 0.  1.
         21   -1    0    0  503  502 -0.00000000000E+00 -0.00000000000E+00 -0.28224606514E+02  0.28224606514E+02  0.00000000000E+00 0.  1.
         21    1    1    2  503  504  0.18455698455E+02  0.10001749092E+02 -0.10873295109E+02  0.23640565494E+02  0.00000000000E+00 0.  1.
         21    1    1    2  504  501 -0.18455698455E+02 -0.10001749092E+02 -0.92343844851E+00  0.21011913976E+02  0.00000000000E+00 0.  1.
</event>
<event>
 4    1  0.3069799E+006  0.2035071E+02  0.7546771E-02  0.1528740E+00
         21   -1    0    0  504  501  0.00000000000E+00  0.00000000000E+00  0.63053598030E+01  0.63053598030E+01  0.00000000000E+00 0. -1.
         21   -1    0    0  503  502 -0.00000000000E+00 -0.00000000000E+00 -0.69540363336E+02  0.69540363336E+02  0.00000000000E+00 0. -1.
         21    1    1    2  503  501 -0.11775411759E+02  0.16597928430E+02 -0.40549697465E+02  0.45369918611E+02  0.00000000000E+00 0. -1.
         21    1    1    2  504  502  0.11775411759E+02 -0.16597928430E+02 -0.22685306068E+02  0.30475804529E+02  0.00000000000E+00 0. -1.
</event>
<event>
 4    1  0.3069799E+006  0.2092404E+02  0.7546771E-02  0.1520352E+00
         21   -1    0    0  504  501  0.00000000000E+00  0.00000000000E+00  0.38759362180E+01  0.38759362180E+01  0.00000000000E+00 0. -1.
         21   -1    0    0  503  502 -0.00000000000E+00 -0.00000000000E+00 -0.12479105841E+03  0.12479105841E+03  0.00000000000E+00 0. -1.
         21    1    1    2  503  501  0.85279969192E+01 -0.19107293384E+02 -0.40646565802E+02  0.45716066141E+02  0.00000000000E+00 0. -1.
         21    1    1    2  504  502 -0.85279969192E+01  0.19107293384E+02 -0.80268556389E+02  0.82950928486E+02  0.00000000000E+00 0. -1.
</event>
<event>
 4    1  0.3069799E+006  0.3101251E+02  0.7546771E-02  0.1410997E+00
         21   -1    0    0  502  501  0.00000000000E+00  0.00000000000E+00  0.54290698739E+01  0.54290698739E+01  0.00000000000E+00 0.  1.
         21   -1    0    0  503  502 -0.00000000000E+00 -0.00000000000E+00 -0.21690106559E+03  0.21690106559E+03  0.00000000000E+00 0.  1.
         21    1    1    2  503  504  0.30409412210E+01 -0.30863060074E+02 -0.15332380678E+03  0.15642878740E+03  0.00000000000E+00 0.  1.
         21    1    1    2  504  501 -0.30409412210E+01  0.30863060074E+02 -0.58148188936E+02  0.65901348068E+02  0.00000000000E+00 0.  1.
</event>
<event>
 4    1  0.3069799E+006  0.2430860E+02  0.7546771E-02  0.1476689E+00
         21   -1    0    0  503  501  0.00000000000E+00  0.00000000000E+00  0.15813009313E+02  0.15813009313E+02  0.00000000000E+00 0. -1.
         21   -1    0    0  504  502 -0.00000000000E+00 -0.00000000000E+00 -0.10062810609E+03  0.10062810609E+03  0.00000000000E+00 0. -1.
         21    1    1    2  503  502 -0.24304737851E+02 -0.43352241439E+00 -0.88569057686E+02  0.91844358581E+02  0.00000000000E+00 0. -1.
         21    1    1    2  504  501  0.24304737851E+02  0.43352241439E+00  0.37539609092E+01  0.24596756823E+02  0.00000000000E+00 0. -1.
</event>
<event>
 4    1  0.3069799E+006  0.3313886E+02  0.7546771E-02  0.1394142E+00
         21   -1    0    0  504  501  0.00000000000E+00  0.00000000000E+00  0.21129557614E+01  0.21129557614E+01  0.00000000000E+00 0. -1.
         21   -1    0    0  503  502 -0.00000000000E+00 -0.00000000000E+00 -0.16212978088E+04  0.16212978088E+04  0.00000000000E+00 0.  1.
         21    1    1    2  503  501 -0.25256572529E+02  0.21454353591E+02 -0.14786616248E+04  0.14790329221E+04  0.00000000000E+00 0.  1.
         21    1    1    2  504  502  0.25256572529E+02 -0.21454353591E+02 -0.14052322820E+03  0.14437784251E+03  0.00000000000E+00 0. -1.
</event>
<event>
 4    1  0.3069799E+006  0.3649128E+02  0.7546771E-02  0.1370372E+00
         21   -1    0    0  504  501  0.00000000000E+00  0.00000000000E+00  0.46147980840E+02  0.46147980840E+02  0.00000000000E+00 0.  1.
         21   -1    0    0  503  502 -0.00000000000E+00 -0.00000000000E+00 -0.28979779216E+02  0.28979779216E+02  0.00000000000E+00 0.  1.
         21    1    1    2  503  501  0.27980462095E+02 -0.23424494150E+02  0.61220570990E+01  0.37001253606E+02  0.00000000000E+00 0.  1.
         21    1    1    2  504  502 -0.27980462095E+02  0.23424494150E+02  0.11046144525E+02  0.38126506450E+02  0.00000000000E+00 0.  1.
</event>
<event>
 4    1  0.3069799E+006  0.2011188E+02  0.7546771E-02  0.1532332E+00
         21   -1    0    0  504  501  0.00000000000E+00  0.00000000000E+00  0.31311365132E+01  0.31311365132E+01  0.00000000000E+00 0. -1.
         21   -1    0    0  501  502 -0.00000000000E+00 -0.00000000000E+00 -0.14177957506E+03  0.14177957506E+03  0.00000000000E+00 0.  1.
         21    1    1    2  503  502 -0.19883895134E+02 -0.30196629438E+01 -0.90921579815E+02  0.93119392857E+02  0.00000000000E+00 0.  1.
         21    1    1    2  504  503  0.19883895134E+02  0.30196629438E+01 -0.47726858732E+02  0.51791318716E+02  0.00000000000E+00 0. -1.
</event>
<event>
 4    1  0.3069799E+006  0.2660628E+02  0.7546771E-02  0.1451604E+00
         21   -1    0    0  504  501  0.00000000000E+00  0.00000000000E+00  0.16754118020E+02  0.16754118020E+02  0.00000000000E+00 0. -1.
         21   -1    0    0  503  502 -0.00000000000E+00 -0.00000000000E+00 -0.42698683251E+02  0.42698683251E+02  0.00000000000E+00 0. -1.
         21    1    1    2  503  501  0.14612473798E+02  0.22234428224E+02 -0.99316896015E+01  0.28399518434E+02  0.00000000000E+00 0. -1.
         21    1    1    2  504  502 -0.14612473798E+02 -0.22234428224E+02 -0.16012875630E+02  0.31053282836E+02  0.00000000000E+00 0. -1.
</event>
<event>
 4    1  0.3069799E+006  0.3304120E+02  0.7546771E-02  0.1394883E+00
         21   -1    0    0  502  501  0.00000000000E+00  0.00000000000E+00  0.19725625869E+03  0.19725625869E+03  0.00000000000E+00 0.  1.
         21   -1    0    0  503  502 -0.00000000000E+00 -0.00000000000E+00 -0.43339901717E+02  0.43339901717E+02  0.00000000000E+00 0. -1.
         21    1    1    2  503  504 -0.29230553322E+02  0.15404396077E+02 -0.35396585633E+02  0.48421471895E+02  0.00000000000E+00 0. -1.
         21    1    1    2  504  501  0.29230553322E+02 -0.15404396077E+02  0.18931294261E+03  0.19217468851E+03  0.00000000000E+00 0.  1.
</event>
<event>
 4    1  0.3069799E+006  0.2301207E+02  0.7546771E-02  0.1492347E+00
         21   -1    0    0  503  501  0.00000000000E+00  0.00000000000E+00  0.27807974852E+03  0.27807974852E+03  0.00000000000E+00 0. -1.
         21   -1    0    0  504  502 -0.00000000000E+00 -0.00000000000E+00 -0.31848483013E+01  0.31848483013E+01  0.00000000000E+00 0. -1.
         21    1    1    2  503  502  0.19479763200E+02 -0.12251288223E+02  0.48274359341E+02  0.53478678061E+02  0.00000000000E+00 0. -1.
         21    1    1    2  504  501 -0.19479763200E+02  0.12251288223E+02  0.22662054088E+03  0.22778591876E+03  0.00000000000E+00 0. -1.
</event>
<event>
 4    1  0.3069799E+006  0.2646904E+02  0.7546771E-02  0.1453016E+00
         21   -1    0    0  504  501  0.00000000000E+00  0.00000000000E+00  0.12166933994E+02  0.12166933994E+02  0.00000000000E+00 0.  1.
         21   -1    0    0  503  502 -0.00000000000E+00 -0.00000000000E+00 -0.11175109753E+03  0.11175109753E+03  0.00000000000E+00 0.  1.
         21    1    1    2  503  501  0.22519429978E+02  0.13909893181E+02 -0.92929085547E+02  0.96625176820E+02  0.00000000000E+00 0.  1.
         21    1    1    2  504  502 -0.22519429978E+02 -0.13909893181E+02 -0.66550779879E+01  0.27292854703E+02  0.00000000000E+00 0.  1.
</event>
<event>
 4    1  0.3069799E+006  0.2217897E+02  0.7546771E-02  0.1503073E+00
         21   -1    0    0  503  501  0.00000000000E+00  0.00000000000E+00  0.44522686490E+02  0.44522686490E+02  0.00000000000E+00 0. -1.
         21   -1    0    0  504  502 -0.00000000000E+00 -0.00000000000E+00 -0.81594933295E+02  0.81594933295E+02  0.00000000000E+00 0.  1.
         21    1    1    2  503  502 -0.86791161007E+01 -0.20410287001E+02  0.40098190172E+02  0.45823266217E+02  0.00000000000E+00 0. -1.
         21    1    1    2  504  501  0.86791161007E+01  0.20410287001E+02 -0.77170436976E+02  0.80294353568E+02  0.00000000000E+00 0.  1.
</event>
<event>
 4    1  0.3069799E+006  0.2021706E+02  0.7546771E-02  0.1530743E+00
         21   -1    0    0  504  501  0.00000000000E+00  0.00000000000E+00  0.26887364488E+03  0.26887364488E+03  0.00000000000E+00 0.  1.
         21   -1    0    0  503  502 -0.00000000000E+00 -0.00000000000E+00 -0.34880731456E+01  0.34880731456E+01  0.00000000000E+00 0.  1.
         21    1    1    2  503  501  0.12353042559E+02 -0.16004122970E+02  0.23498128209E+03  0.23584938530E+03  0.00000000000E+00 0.  1.
         21    1    1    2  504  502 -0.12353042559E+02  0.16004122970E+02  0.30404289648E+02  0.36512332732E+02  0.00000000000E+00 0.  1.
</event>
<event>
 4    1  0.3069799E+006  0.2406659E+02  0.7546771E-02  0.1479522E+00
         21   -1    0    0  503  501  0.00000000000E+00  0.00000000000E+00  0.94562364712E+02  0.94562364712E+02  0.00000000000E+00 0. -1.
         21   -1    0    0  504  502 -0.00000000000E+00 -0.00000000000E+00 -0.61291974278E+01  0.61291974278E+01  0.00000000000E+00 0. -1.
         21    1    1    2  503  502  0.62189039754E+01 -0.23249216224E+02  0.45523529482E+02  0.51493616674E+02  0.00000000000E+00 0. -1.
         21    1    1    2  504  501 -0.62189039754E+01  0.23249216224E+02  0.42909637802E+02  0.49197945465E+02  0.00000000000E+00 0. -1.
</event>
<event>
 4    1  0.3069799E+006  0.2866616E+02  0.7546771E-02  0.1431553E+00
         21   -1    0    0  502  501  0.00000000000E+00  0.00000000000E+00  0.15174431179E+03  0.15174431179E+03  0.00000000000E+00 0. -1.
         21   -1    0    0  503  502 -0.00000000000E+00 -0.00000000000E+00 -0.55590943249E+01  0.55590943249E+01  0.00000000000E+00 0. -1.
         21    1    1    2  503  504 -0.25075027672E+02  0.13892153599E+02  0.60445314427E+02  0.66898318220E+02  0.00000000000E+00 0. -1.
         21    1    1    2  504  501  0.25075027672E+02 -0.13892153599E+02  0.85739903035E+02  0.90405087892E+02  0.00000000000E+00 0. -1.
</event>
<event>
 4    1  0.3069799E+006  0.3353334E+02  0.7546771E-02  0.1391178E+00
         21   -1    0    0  504  501  0.00000000000E+00  0.00000000000E+00  0.50672546813E+01  0.50672546813E+01  0.00000000000E+00 0.  1.
         21   -1    0    0  503  502 -0.00000000000E+00 -0.00000000000E+00 -0.53406780841E+03  0.53406780841E+03  0.00000000000E+00 0. -1.
         21    1    1    2  503  501 -0.51929718854E+01  0.33128811056E+02 -0.47058937965E+03  0.47178262931E+03  0.00000000000E+00 0. -1.
         21    1    1    2  504  502  0.51929718854E+01 -0.33128811056E+02 -0.58411174074E+02  0.67352433777E+02  0.00000000000E+00 0.  1.
</event>
<event>
 4    1  0.3069799E+006  0.2329735E+02  0.7546771E-02  0.1488798E+00
         21   -1    0    0  503  501  0.00000000000E+00  0.00000000000E+00  0.11819364964E+03  0.11819364964E+03  0.00000000000E+00 0. -1.
         21   -1    0    0  504  502 -0.00000000000E+00 -0.00000000000E+00 -0.52369998221E+01  0.52369998221E+01  0.00000000000E+00 0. -1.
         21    1    1    2  503  502 -0.21568259523E+02 -0.88077556984E+01  0.34822670484E+02  0.41897312073E+02  0.00000000000E+00 0. -1.
         21    1    1    2  504  501  0.21568259523E+02  0.88077556984E+01  0.78133979338E+02  0.81533337393E+02  0.00000000000E+00 0. -1.
</event>
<event>
 4    1  0.3069799E+006  0.2090371E+02  0.7546771E-02  0.1520644E+00
         21   -1    0    0  503  501  0.00000000000E+00  0.00000000000E+00  0.18521599108E+02  0.18521599108E+02  0.00000000000E+00 0.  1.
         21   -1    0    0  504  502 -0.00000000000E+00 -0.00000000000E+00 -0.66674430439E+03  0.66674430439E+03  0.00000000000E+00 0.  1.
         21    1    1    2  503  502 -0.15418365403E+02  0.14115200867E+02  0.12405117619E+02  0.24307443929E+02  0.00000000000E+00 0.  1.
         21    1    1    2  504  501  0.15418365403E+02 -0.14115200867E+02 -0.66062782290E+03  0.66095845957E+03  0.00000000000E+00 0.  1.
</event>
<event>
 4    1  0.3069799E+006  0.4195266E+02  0.7546771E-02  0.1337408E+00
         21   -1    0    0  502  501  0.00000000000E+00  0.00000000000E+00  0.10057648003E+03  0.10057648003E+03  0.00000000000E+00 0. -1.
         21   -1    0    0  503  502 -0.00000000000E+00 -0.00000000000E+00 -0.10005445626E+04  0.10005445626E+04  0.00000000000E+00 0. -1.
         21    1    1    2  503  504 -0.39782716267E+02 -0.13317711312E+02 -0.99570871299E+03  0.99659212674E+03  0.00000000000E+00 0. -1.
         21    1    1    2  504  501  0.39782716267E+02  0.13317711312E+02  0.95740630408E+02  0.10452891590E+03  0.00000000000E+00 0. -1.
</event>
<event>
 4    1  0.3069799E+006  0.2173758E+02  0.7546771E-02  0.1508989E+00
         21   -1    0    0  502  501  0.00000000000E+00  0.00000000000E+00  0.13835401323E+03  0.13835401323E+03  0.00000000000E+00 0. -1.
         21   -1    0    0  504  502 -0.00000000000E+00 -0.00000000000E+00 -0.14711248483E+02  0.14711248483E+02  0.00000000000E+00 0.  1.
         21    1    1    2  503  501  0.15141788992E+02 -0.15596425890E+02  0.12888438230E+03  0.13070465284E+03  0.00000000000E+00 0. -1.
         21    1    1    2  504  503 -0.15141788992E+02  0.15596425890E+02 -0.52416175531E+01  0.22360608869E+02  0.00000000000E+00 0.  1.
</event>
<event>
 4    1  0.3069799E+006  0.2290038E+02  0.7546771E-02  0.1493753E+00
         21   -1    0    0  503  501  0.00000000000E+00  0.00000000000E+00  0.18110331094E+02  0.18110331094E+02  0.00000000000E+00 0.  1.
         21   -1    0    0  501  502 -0.00000000000E+00 -0.00000000000E+00 -0.13143733474E+03  0.13143733474E+03  0.00000000000E+00 0.  1.
         21    1    1    2  503  504  0.88981127423E+01 -0.21100966486E+02  0.93617090816E+01  0.24740024130E+02  0.00000000000E+00 0.  1.
         21    1    1    2  504  502 -0.88981127423E+01  0.21100966486E+02 -0.12268871273E+03  0.12480764171E+03  0.00000000000E+00 0.  1.
</event>
<event>
 4    1  0.3069799E+006  0.3101885E+02  0.7546771E-02  0.1410944E+00
         21   -1    0    0  503  501  0.00000000000E+00  0.00000000000E+00  0.56503351948E+02  0.56503351948E+02  0.00000000000E+00 0.  1.
         21   -1    0    0  504  502 -0.00000000000E+00 -0.00000000000E+00 -0.20240010981E+02  0.20240010981E+02  0.00000000000E+00 0. -1.
         21    1    1    2  503  502 -0.76146266183E+01  0.30069694749E+02  0.33416410906E+02  0.45594139960E+02  0.00000000000E+00 0.  1.
         21    1    1    2  504  501  0.76146266183E+01 -0.30069694749E+02  0.28469300612E+01  0.31149222969E+02  0.00000000000E+00 0. -1.
</event>
<event>
 4    1  0.3069799E+006  0.2018768E+02  0.7546771E-02  0.1531186E+00
         21   -1    0    0  503  501  0.00000000000E+00  0.00000000000E+00  0.49419079657E+01  0.49419079657E+01  0.00000000000E+00 0.  1.
         21   -1    0    0  501  502 -0.00000000000E+00 -0.00000000000E+00 -0.10320841253E+03  0.10320841253E+03  0.00000000000E+00 0.  1.
         21    1    1    2  503  504  0.16163453763E+02 -0.12094848157E+02 -0.24891550424E+02  0.32048898140E+02  0.00000000000E+00 0.  1.
         21    1    1    2  504  502 -0.16163453763E+02  0.12094848157E+02 -0.73374954140E+02  0.76101422356E+02  0.00000000000E+00 0.  1.
</event>
<event>
 4    1  0.3069799E+006  0.2367015E+02  0.7546771E-02  0.1484250E+00
         21   -1    0    0  504  501  0.00000000000E+00  0.00000000000E+00  0.21134634912E+02  0.21134634912E+02  0.00000000000E+00 0. -1.
         21   -1    0    0  503  502 -0.00000000000E+00 -0.00000000000E+00 -0.33494614254E+02  0.33494614254E+02  0.00000000000E+00 0.  1.
         21    1    1    2  503  501 -0.13670592528E+02 -0.19323329980E+02  0.62933674525E+01  0.24492502025E+02  0.00000000000E+00 0. -1.
         21    1    1    2  504  502  0.13670592528E+02  0.19323329980E+02 -0.18653346795E+02  0.30136747140E+02  0.00000000000E+00 0.  1.
</event>
<event>
 4    1  0.3069799E+006  0.3523735E+02  0.7546771E-02  0.1378902E+00
         21   -1    0    0  504  501  0.00000000000E+00  0.00000000000E+00  0.39778417867E+03  0.39778417867E+03  0.00000000000E+00 0. -1.
         21   -1    0    0  503  502 -0.00000000000E+00 -0.00000000000E+00 -0.77112631713E+01  0.77112631713E+01  0.00000000000E+00 0. -1.
         21    1    1    2  503  501 -0.84344421275E+01 -0.34213024500E+02  0.38617337782E+02  0.52277812089E+02  0.00000000000E+00 0. -1.
         21    1    1    2  504  502  0.84344421275E+01  0.34213024500E+02  0.35145557772E+03  0.35321762975E+03  0.00000000000E+00 0. -1.
</event>
<event>
 4    1  0.3069799E+006  0.2709584E+02  0.7546771E-02  0.1446648E+00
         21   -1    0    0  503  501  0.00000000000E+00  0.00000000000E+00  0.71790486042E+02  0.71790486042E+02  0.00000000000E+00 0. -1.
         21   -1    0    0  501  502 -0.00000000000E+00 -0.00000000000E+00 -0.45128351235E+03  0.45128351235E+03  0.00000000000E+00 0. -1.
         21    1    1    2  503  504  0.21248853346E+02 -0.16812814220E+02  0.68810092563E+02  0.73952777696E+02  0.00000000000E+00 0. -1.
         21    1    1    2  504  502 -0.21248853346E+02  0.16812814220E+02 -0.44830311887E+03  0.44912122069E+03  0.00000000000E+00 0. -1.
</event>
<event>
 4    1  0.3069799E+006  0.4537855E+02  0.7546771E-02  0.1319557E+00
         21   -1    0    0  503  501  0.00000000000E+00  0.00000000000E+00  0.17048091155E+03  0.17048091155E+03  0.00000000000E+00 0.  1.
         21   -1    0    0  504  502 -0.00000000000E+00 -0.00000000000E+00 -0.32294287890E+02  0.32294287890E+02  0.00000000000E+00 0. -1.
         21    1    1    2  503  502 -0.38640755487E+02  0.23792960837E+02 -0.11123165520E+02  0.46721919708E+02  0.00000000000E+00 0. -1.
         21    1    1    2  504  501  0.38640755487E+02 -0.23792960837E+02  0.14930978918E+03  0.15605327974E+03  0.00000000000E+00 0.  1.
</event>
<event>
 4    1  0.3069799E+006  0.2740340E+02  0.7546771E-02  0.1443597E+00
         21   -1    0    0  504  501  0.00000000000E+00  0.00000000000E+00  0.17921635092E+03  0.17921635092E+03  0.00000000000E+00 0. -1.
         21   -1    0    0  501  502 -0.00000000000E+00 -0.00000000000E+00 -0.28438023431E+02  0.28438023431E+02  0.00000000000E+00 0.  1.
         21    1    1    2  503  502 -0.22129004062E+02  0.16163338882E+02 -0.20484222164E+02  0.34213297156E+02  0.00000000000E+00 0.  1.
         21    1    1    2  504  503  0.22129004062E+02 -0.16163338882E+02  0.17126254965E+03  0.17344107719E+03  0.00000000000E+00 0. -1.
</event>
<event>
 4    1  0.3069799E+006  0.2004914E+02  0.7546771E-02  0.1533286E+00
         21   -1    0    0  504  501  0.00000000000E+00  0.00000000000E+00  0.12817844245E+02  0.12817844245E+02  0.00000000000E+00 0.  1.
         21   -1    0    0  503  502 -0.00000000000E+00 -0.00000000000E+00 -0.32460209178E+02  0.32460209178E+02  0.00000000000E+00 0.  1.
         21    1    1    2  503  501  0.11309663211E+02 -0.16554746332E+02 -0.56533348244E+01  0.20830945794E+02  0.00000000000E+00 0.  1.
         21    1    1    2  504  502 -0.11309663211E+02  0.16554746332E+02 -0.13989030109E+02  0.24447107629E+02  0.00000000000E+00 0.  1.
</event>
<event>
 4    1  0.3069799E+006  0.2420426E+02  0.7546771E-02  0.1477906E+00
         21   -1    0    0  504  501  0.00000000000E+00  0.00000000000E+00  0.49724494036E+02  0.49724494036E+02  0.00000000000E+00 0.  1.
         21   -1    0    0  503  502 -0.00000000000E+00 -0.00000000000E+00 -0.13932436498E+02  0.13932436498E+02  0.00000000000E+00 0.  1.
         21    1    1    2  503  501  0.22402570348E+02 -0.91635612700E+01  0.30400970386E+02  0.38859554987E+02  0.00000000000E+00 0.  1.
         21    1    1    2  504  502 -0.22402570348E+02  0.91635612700E+01  0.53910871511E+01  0.24797375547E+02  0.00000000000E+00 0.  1.
</event>
<event>
 4    1  0.3069799E+006  0.2754238E+02  0.7546771E-02  0.1442235E+00
         21   -1    0    0  504  501  0.00000000000E+00  0.00000000000E+00  0.12647716268E+01  0.12647716268E+01  0.00000000000E+00 0.  1.
         21   -1    0    0  503  502 -0.00000000000E+00 -0.00000000000E+00 -0.79682367383E+03  0.79682367383E+03  0.00000000000E+00 0.  1.
         21    1    1    2  503  501  0.22716211543E+02 -0.15574219918E+02 -0.59621661906E+03  0.59685244360E+03  0.00000000000E+00 0.  1.
         21    1    1    2  504  502 -0.22716211543E+02  0.15574219918E+02 -0.19934228314E+03  0.20123600185E+03  0.00000000000E+00 0.  1.
</event>
<event>
 4    1  0.3069799E+006  0.2290179E+02  0.7546771E-02  0.1493735E+00
         21   -1    0    0  503  501  0.00000000000E+00  0.00000000000E+00  0.31141554240E+01  0.31141554240E+01  0.00000000000E+00 0.  1.
         21   -1    0    0  504  502 -0.00000000000E+00 -0.00000000000E+00 -0.28250559620E+03  0.28250559620E+03  0.00000000000E+00 0.  1.
         21    1    1    2  503  502 -0.18341582488E+02 -0.13714161169E+02 -0.48943643659E+02  0.54036766367E+02  0.00000000000E+00 0.  1.
         21    1    1    2  504  501  0.18341582488E+02  0.13714161169E+02 -0.23044779712E+03  0.23158298526E+03  0.00000000000E+00 0.  1.
</event>
<event>
 4    1  0.3069799E+006  0.2744800E+02  0.7546771E-02  0.1443159E+00
         21   -1    0    0  504  501  0.00000000000E+00  0.00000000000E+00  0.67718704392E+01  0.67718704392E+01  0.00000000000E+00 0. -1.
         21   -1    0    0  503  502 -0.00000000000E+00 -0.00000000000E+00 -0.20980133090E+03  0.20980133090E+03  0.00000000000E+00 0. -1.
         21    1    1    2  503  501 -0.21916390735E+02 -0.16524671494E+02 -0.17573022225E+03  0.17786091185E+03  0.00000000000E+00 0. -1.
         21    1    1    2  504  502  0.21916390735E+02  0.16524671494E+02 -0.27299238209E+02  0.38712289491E+02  0.00000000000E+00 0. -1.
</event>
<event>
 4    1  0.3069799E+006  0.2243409E+02  0.7546771E-02  0.1499729E+00
         21   -1    0    0  503  501  0.00000000000E+00  0.00000000000E+00  0.70935263571E+02  0.70935263571E+02  0.00000000000E+00 0. -1.
         21   -1    0    0  504  502 -0.00000000000E+00 -0.00000000000E+00 -0.31536959583E+02  0.31536959583E+02  0.00000000000E+00 0.  1.
         21    1    1    2  503  502  0.21362515127E+02 -0.68506378894E+01  0.64805112731E+02  0.68578356120E+02  0.00000000000E+00 0. -1.
         21    1    1    2  504  501 -0.21362515127E+02  0.68506378894E+01 -0.25406808743E+02  0.33893867034E+02  0.00000000000E+00 0.  1.
</event>
<event>
 4    1  0.3069799E+006  0.2192752E+02  0.7546771E-02  0.1506423E+00
         21   -1    0    0  503  501  0.00000000000E+00  0.00000000000E+00  0.10618471248E+02  0.10618471248E+02  0.00000000000E+00 0.  1.
         21   -1    0    0  504  502 -0.00000000000E+00 -0.00000000000E+00 -0.60381582755E+02  0.60381582755E+02  0.00000000000E+00 0.  1.
         21    1    1    2  503  502 -0.20879769933E+02 -0.66971227407E+01 -0.71285620286E+01  0.23057160320E+02  0.00000000000E+00 0.  1.
         21    1    1    2  504  501  0.20879769933E+02  0.66971227407E+01 -0.42634549478E+02  0.47942893683E+02  0.00000000000E+00 0.  1.
</event>
<event>
 4    1  0.3069799E+006  0.2901743E+02  0.7546771E-02  0.1428331E+00
         21   -1    0    0  502  501  0.00000000000E+00  0.00000000000E+00  0.28204898216E+01  0.28204898216E+01  0.00000000000E+00 0. -1.
         21   -1    0    0  503  502 -0.00000000000E+00 -0.00000000000E+00 -0.11497009850E+04  0.11497009850E+04  0.00000000000E+00 0.  1.
         21    1    1    2  503  504 -0.13499246391E+02 -0.25686218118E+02 -0.10692716439E+04  0.10696653027E+04  0.00000000000E+00 0.  1.
         21    1    1    2  504  501  0.13499246391E+02  0.25686218118E+02 -0.77608851319E+02  0.82856172114E+02  0.00000000000E+00 0. -1.
</event>
<event>
 4    1  0.3069799E+006  0.5306962E+02  0.7546771E-02  0.1285385E+00
         21   -1    0    0  502  501  0.00000000000E+00  0.00000000000E+00  0.63889152386E+03  0.63889152386E+03  0.00000000000E+00 0.  1.
         21   -1    0    0  503  502 -0.00000000000E+00 -0.00000000000E+00 -0.62112681861E+01  0.62112681861E+01  0.00000000000E+00 0. -1.
         21    1    1    2  503  504 -0.48046494657E+02 -0.22537058276E+02  0.14255583562E+03  0.15211361186E+03  0.00000000000E+00 0. -1.
         21    1    1    2  504  501  0.48046494657E+02  0.22537058276E+02  0.49012442005E+03  0.49298918018E+03  0.00000000000E+00 0.  1.
</event>
<event>
 4    1  0.3069799E+006  0.2135956E+02  0.7546771E-02  0.1514193E+00
         21   -1    0    0  504  501  0.00000000000E+00  0.00000000000E+00  0.18698141234E+03  0.18698141234E+03  0.00000000000E+00 0.  1.
         21   -1    0    0  503  502 -0.00000000000E+00 -0.00000000000E+00 -0.23468172850E+02  0.23468172850E+02  0.00000000000E+00 0. -1.
         21    1    1    2  503  501 -0.14668869850E+02 -0.15525949645E+02  0.18136122479E+03  0.18261468920E+03  0.00000000000E+00 0.  1.
         21    1    1    2  504  502  0.14668869850E+02  0.15525949645E+02 -0.17847985304E+02  0.27834895985E+02  0.00000000000E+00 0. -1.
</event>
<event>
 4    1  0.3069799E+006  0.2293897E+02  0.7546771E-02  0.1493266E+00
         21   -1    0    0  504  501  0.00000000000E+00  0.00000000000E+00  0.75413457753E+02  0.75413457753E+02  0.00000000000E+00 0. -1.
         21   -1    0    0  503  502 -0.00000000000E+00 -0.00000000000E+00 -0.12673766006E+02  0.12673766006E+02  0.00000000000E+00 0. -1.
         21    1    1    2  503  501 -0.19993520468E+02 -0.11245241657E+02  0.60897283579E+02  0.65074384115E+02  0.00000000000E+00 0. -1.
         21    1    1    2  504  502  0.19993520468E+02  0.11245241657E+02  0.18424081686E+01  0.23012839644E+02  0.00000000000E+00 0. -1.
</event>
<event>
 4    1  0.3069799E+006  0.3409623E+02  0.7546771E-02  0.1387031E+00
         21   -1    0    0  504  501  0.00000000000E+00  0.00000000000E+00  0.10428618117E+03  0.10428618117E+03  0.00000000000E+00 0.  1.
         21   -1    0    0  503  502 -0.00000000000E+00 -0.00000000000E+00 -0.26342375856E+02  0.26342375856E+02  0.00000000000E+00 0. -1.
         21    1    1    2  503  501  0.25943354142E+02 -0.22124535691E+02  0.88576983044E+02  0.94912773792E+02  0.00000000000E+00 0.  1.
         21    1    1    2  504  502 -0.25943354142E+02  0.22124535691E+02 -0.10633177727E+02  0.35715783238E+02  0.00000000000E+00 0. -1.
</event>
<event>
 4    1  0.3069799E+006  0.2463560E+02  0.7546771E-02  0.1472921E+00
         21   -1    0    0  502  501  0.00000000000E+00  0.00000000000E+00  0.93838741803E+02  0.93838741803E+02  0.00000000000E+00 0. -1.
         21   -1    0    0  503  502 -0.00000000000E+00 -0.00000000000E+00 -0.60711914439E+02  0.60711914439E+02  0.00000000000E+00 0. -1.
         21    1    1    2  503  504  0.23136042062E+02  0.84638197634E+01 -0.56479981776E+02  0.61618998926E+02  0.00000000000E+00 0. -1.
         21    1    1    2  504  501 -0.23136042062E+02 -0.84638197634E+01  0.89606809140E+02  0.92931657316E+02  0.00000000000E+00 0. -1.
</event>
<event>
 4    1  0.3069799E+006  0.2749844E+02  0.7546771E-02  0.1442664E+00
         21   -1    0    0  503  501  0.00000000000E+00  0.00000000000E+00  0.71432522128E+01  0.71432522128E+01  0.00000000000E+00 0.  1.
         21   -1    0    0  504  502 -0.00000000000E+00 -0.00000000000E+00 -0.18981869553E+03  0.18981869553E+03  0.00000000000E+00 0.  1.
         21    1    1    2  503  502 -0.27492900038E+02 -0.55210466595E+00 -0.15683496716E+03  0.15922742006E+03  0.00000000000E+00 0.  1.
         21    1    1    2  504  501  0.27492900038E+02  0.55210466595E+00 -0.25840476156E+02  0.37734527690E+02  0.00000000000E+00 0.  1.
</event>
<event>
 4    1  0.3069799E+006  0.2289782E+02  0.7546771E-02  0.1493785E+00
         21   -1    0    0  502  501  0.00000000000E+00  0.00000000000E+00  0.21302518350E+02  0.21302518350E+02  0.00000000000E+00 0.  1.
         21   -1    0    0  503  502 -0.00000000000E+00 -0.00000000000E+00 -0.25262345860E+03  0.25262345860E+03  0.00000000000E+00 0. -1.
         21    1    1    2  503  504 -0.14669023007E+02 -0.17582086500E+02 -0.24578050361E+03  0.24684482161E+03  0.00000000000E+00 0. -1.
         21    1    1    2  504  501  0.14669023007E+02  0.17582086500E+02  0.14459563363E+02  0.27081155336E+02  0.00000000000E+00 0.  1.
</event>
<event>
 4    1  0.3069799E+006  0.2451720E+02  0.7546771E-02  0.1474278E+00
         21   -1    0    0  502  501  0.00000000000E+00  0.00000000000E+00  0.16744574602E+02  0.16744574602E+02  0.00000000000E+00 0. -1.
         21   -1    0    0  504  502 -0.00000000000E+00 -0.00000000000E+00 -0.37005661698E+02  0.37005661698E+02  0.00000000000E+00 0. -1.
         21    1    1    2  503  501 -0.59898071331E+01  0.23774255125E+02 -0.54804286911E+01  0.25122262933E+02  0.00000000000E+00 0. -1.
         21    1    1    2  504  503  0.59898071331E+01 -0.23774255125E+02 -0.14780658405E+02  0.28627973367E+02  0.00000000000E+00 0. -1.
</event>
<event>
 4    1  0.3069799E+006  0.2402255E+02  0.7546771E-02  0.1480042E+00
         21   -1    0    0  503  501  0.00000000000E+00  0.00000000000E+00  0.43698420733E+02  0.43698420733E+02  0.00000000000E+00 0. -1.
         21   -1    0    0  504  502 -0.00000000000E+00 -0.00000000000E+00 -0.59413803521E+03  0.59413803521E+03  0.00000000000E+00 0. -1.
         21    1    1    2  503  502 -0.24015752537E+02  0.57145044683E+00 -0.59057378543E+03  0.59106216167E+03  0.00000000000E+00 0. -1.
         21    1    1    2  504  501  0.24015752537E+02 -0.57145044683E+00  0.40134170957E+02  0.46774294264E+02  0.00000000000E+00 0. -1.
</event>
<event>
 4    1  0.3069799E+006  0.2283834E+02  0.7546771E-02  0.1494538E+00
         21   -1    0    0  504  501  0.00000000000E+00  0.00000000000E+00  0.41424802885E+02  0.41424802885E+02  0.00000000000E+00 0. -1.
         21   -1    0    0  503  502 -0.00000000000E+00 -0.00000000000E+00 -0.10208046931E+03  0.10208046931E+03  0.00000000000E+00 0.  1.
         21    1    1    2  503  501 -0.11671295823E+01  0.22808498424E+02 -0.97509675156E+02  0.10014852241E+03  0.00000000000E+00 0.  1.
         21    1    1    2  504  502  0.11671295823E+01 -0.22808498424E+02  0.36854008735E+02  0.43356749782E+02  0.00000000000E+00 0. -1.
</event>
<event>
 4    1  0.3069799E+006  0.2240563E+02  0.7546771E-02  0.1500100E+00
         21   -1    0    0  503  501  0.00000000000E+00  0.00000000000E+00  0.62276483138E+01  0.62276483138E+01  0.00000000000E+00 0. -1.
         21   -1    0    0  504  502 -0.00000000000E+00 -0.00000000000E+00 -0.69945622079E+03  0.69945622079E+03  0.00000000000E+00 0.  1.
         21    1    1    2  503  502 -0.98386345177E+01  0.20129910934E+02 -0.14726535662E+02  0.26811991645E+02  0.00000000000E+00 0. -1.
         21    1    1    2  504  501  0.98386345177E+01 -0.20129910934E+02 -0.67850203682E+03  0.67887187746E+03  0.00000000000E+00 0.  1.
</event>
<event>
 4    1  0.3069799E+006  0.3519338E+02  0.7546771E-02  0.1379209E+00
         21   -1    0    0  502  501  0.00000000000E+00  0.00000000000E+00  0.63654671157E+02  0.63654671157E+02  0.00000000000E+00 0.  1.
         21   -1    0    0  503  502 -0.00000000000E+00 -0.00000000000E+00 -0.19925520319E+03  0.19925520319E+03  0.00000000000E+00 0.  1.
         21    1    1    2  503  504 -0.11238721515E+02 -0.33350641979E+02 -0.19267192502E+03  0.19585975817E+03  0.00000000000E+00 0.  1.
         21    1    1    2  504  501  0.11238721515E+02  0.33350641979E+02  0.57071392985E+02  0.67050116174E+02  0.00000000000E+00 0.  1.
</event>
<event>
 4    1  0.3069799E+006  0.3866310E+02  0.7546771E-02  0.1356503E+00
         21   -1    0    0  504  501  0.00000000000E+00  0.00000000000E+00  0.72786983804E+03  0.72786983804E+03  0.00000000000E+00 0.  1.
         21   -1    0    0  501  502 -0.00000000000E+00 -0.00000000000E+00 -0.21875220417E+01  0.21875220417E+01  0.00000000000E+00 0.  1.
         21    1    1    2  503  502 -0.37388752797E+02  0.98446344301E+01  0.27256071302E+03  0.27528926231E+03  0.00000000000E+00 0.  1.
         21    1    1    2  504  503  0.37388752797E+02 -0.98446344301E+01  0.45312160298E+03  0.45476809778E+03  0.00000000000E+00 0.  1.
</event>
<event>
 4    1  0.3069799E+006  0.2743776E+02  0.7546771E-02  0.1443260E+00
         21   -1    0    0  504  501  0.00000000000E+00  0.00000000000E+00  0.26589541599E+01  0.26589541599E+01  0.00000000000E+00 0.  1.
         21   -1    0    0  503  502 -0.00000000000E+00 -0.00000000000E+00 -0.40278109648E+03  0.40278109648E+03  0.00000000000E+00 0. -1.
         21    1    1    2  503  501 -0.20555706426E+02  0.18173974527E+02 -0.31055030399E+03  0.31176003869E+03  0.00000000000E+00 0. -1.
         21    1    1    2  504  502  0.20555706426E+02 -0.18173974527E+02 -0.89571838331E+02  0.93680011949E+02  0.00000000000E+00 0.  1.
</event>
<event>
 4    1  0.3069799E+006  0.2302763E+02  0.7546771E-02  0.1492152E+00
         21   -1    0    0  503  501  0.00000000000E+00  0.00000000000E+00  0.66563971781E+00  0.66563971781E+00  0.00000000000E+00 0. -1.
         21   -1    0    0  504  502 -0.00000000000E+00 -0.00000000000E+00 -0.87967994503E+03  0.87967994503E+03  0.00000000000E+00 0. -1.
         21    1    1    2  503  502  0.15141709090E+02 -0.17349360577E+02 -0.30426304469E+03  0.30513320375E+03  0.00000000000E+00 0. -1.
         21    1    1    2  504  501 -0.15141709090E+02  0.17349360577E+02 -0.57475126062E+03  0.57521238100E+03  0.00000000000E+00 0. -1.
</event>
<event>
 4    1  0.3069799E+006  0.2093510E+02  0.7546771E-02  0.1520193E+00
         21   -1    0    0  503  501  0.00000000000E+00  0.00000000000E+00  0.17271731783E+02  0.17271731783E+02  0.00000000000E+00 0.  1.
         21   -1    0    0  504  502 -0.00000000000E+00 -0.00000000000E+00 -0.92311637241E+02  0.92311637241E+02  0.00000000000E+00 0.  1.
         21    1    1    2  503  502  0.20372667172E+02  0.48200557700E+01 -0.84176952648E+02  0.86741212019E+02  0.00000000000E+00 0.  1.
         21    1    1    2  504  501 -0.20372667172E+02 -0.48200557700E+01  0.91370471902E+01  0.22842157006E+02  0.00000000000E+00 0.  1.
</event>
<event>
 4    1  0.3069799E+006  0.2078583E+02  0.7546771E-02  0.1522345E+00
         21   -1    0    0  504  501  0.00000000000E+00  0.00000000000E+00  0.15670945999E+01  0.15670945999E+01  0.00000000000E+00 0. -1.
         21   -1    0    0  503  502 -0.00000000000E+00 -0.00000000000E+00 -0.28137954507E+03  0.28137954507E+03  0.00000000000E+00 0. -1.
         21    1    1    2  503  501  0.33212544684E+01 -0.20518773589E+02 -0.16000253214E+03  0.16134702071E+03  0.00000000000E+00 0. -1.
         21    1    1    2  504  502 -0.33212544684E+01  0.20518773589E+02 -0.11980991833E+03  0.12159961896E+03  0.00000000000E+00 0. -1.
</event>
<event>
 4    1  0.3069799E+006  0.3057551E+02  0.7546771E-02  0.1414660E+00
         21   -1    0    0  502  501  0.00000000000E+00  0.00000000000E+00  0.87347785428E+03  0.87347785428E+03  0.00000000000E+00 0. -1.
         21   -1    0    0  503  502 -0.00000000000E+00 -0.00000000000E+00 -0.22741358807E+01  0.22741358807E+01  0.00000000000E+00 0. -1.
         21    1    1    2  503  504 -0.30560684202E+02  0.95204099584E+00  0.11701267837E+03  0.12094142673E+03  0.00000000000E+00 0. -1.
         21    1    1    2  504  501  0.30560684202E+02 -0.95204099584E+00  0.75419104003E+03  0.75481056343E+03  0.00000000000E+00 0. -1.
</event>
<event>
 4    1  0.3069799E+006  0.3660055E+02  0.7546771E-02  0.1369647E+00
         21   -1    0    0  503  501  0.00000000000E+00  0.00000000000E+00  0.30622802288E+02  0.30622802288E+02  0.00000000000E+00 0.  1.
         21   -1    0    0  504  502 -0.00000000000E+00 -0.00000000000E+00 -0.14021539942E+03  0.14021539942E+03  0.00000000000E+00 0. -1.
         21    1    1    2  503  502 -0.34449594069E+02  0.12362273502E+02  0.16055967868E+02  0.39967417252E+02  0.00000000000E+00 0.  1.
         21    1    1    2  504  501  0.34449594069E+02 -0.12362273502E+02 -0.12564856500E+03  0.13087078445E+03  0.00000000000E+00 0. -1.
</event>
<event>
 4    1  0.3069799E+006  0.2119413E+02  0.7546771E-02  0.1516511E+00
         21   -1    0    0  502  501  0.00000000000E+00  0.00000000000E+00  0.33340125614E+02  0.33340125614E+02  0.00000000000E+00 0.  1.
         21   -1    0    0  503  502 -0.00000000000E+00 -0.00000000000E+00 -0.38802781812E+02  0.38802781812E+02  0.00000000000E+00 0. -1.
         21    1    1    2  503  504 -0.19071040655E+02 -0.92459000159E+01 -0.31875250636E+02  0.38278229607E+02  0.00000000000E+00 0. -1.
         21    1    1    2  504  501  0.19071040655E+02  0.92459000159E+01  0.26412594438E+02  0.33864677818E+02  0.00000000000E+00 0.  1.
</event>
<event>
 4    1  0.3069799E+006  0.2709657E+02  0.7546771E-02  0.1446640E+00
         21   -1    0    0  503  501  0.00000000000E+00  0.00000000000E+00  0.79803966884E+02  0.79803966884E+02  0.00000000000E+00 0.  1.
         21   -1    0    0  504  502 -0.00000000000E+00 -0.00000000000E+00 -0.13565153385E+02  0.13565153385E+02  0.00000000000E+00 0. -1.
         21    1    1    2  503  502  0.21253173558E+02 -0.16808536832E+02  0.59600953043E+02  0.65471351753E+02  0.00000000000E+00 0.  1.
         21    1    1    2  504  501 -0.21253173558E+02  0.16808536832E+02  0.66378604554E+01  0.27897768516E+02  0.00000000000E+00 0. -1.
</event>
<event>
 4    1  0.3069799E+006  0.2144107E+02  0.7546771E-02  0.1513060E+00
         21   -1    0    0  503  501  0.00000000000E+00  0.00000000000E+00  0.73233497664E+02  0.73233497664E+02  0.00000000000E+00 0.  1.
         21   -1    0    0  504  502 -0.00000000000E+00 -0.00000000000E+00 -0.32964053411E+02  0.32964053411E+02  0.00000000000E+00 0.  1.
         21    1    1    2  503  502 -0.83987122816E+01 -0.19727669512E+02  0.67910843213E+02  0.71215180532E+02  0.00000000000E+00 0.  1.
         21    1    1    2  504  501  0.83987122816E+01  0.19727669512E+02 -0.27641398959E+02  0.34982370543E+02  0.00000000000E+00 0.  1.
</event>
<event>
 4    1  0.3069799E+006  0.2712466E+02  0.7546771E-02  0.1446360E+00
         21   -1    0    0  504  501  0.00000000000E+00  0.00000000000E+00  0.66865212816E+03  0.66865212816E+03  0.00000000000E+00 0. -1.
         21   -1    0    0  503  502 -0.00000000000E+00 -0.00000000000E+00 -0.40281293521E+01  0.40281293521E+01  0.00000000000E+00 0. -1.
         21    1    1    2  503  501 -0.34341000811E+01  0.26906396132E+02  0.61905750309E+03  0.61965146601E+03  0.00000000000E+00 0. -1.
         21    1    1    2  504  502  0.34341000811E+01 -0.26906396132E+02  0.45566495720E+02  0.53028791504E+02  0.00000000000E+00 0. -1.
</event>
<event>
 4    1  0.3069799E+006  0.3275238E+02  0.7546771E-02  0.1397093E+00
         21   -1    0    0  504  501  0.00000000000E+00  0.00000000000E+00  0.94369050257E+02  0.94369050257E+02  0.00000000000E+00 0. -1.
         21   -1    0    0  501  502 -0.00000000000E+00 -0.00000000000E+00 -0.19661086533E+03  0.19661086533E+03  0.00000000000E+00 0.  1.
         21    1    1    2  503  502  0.31109355253E+02 -0.10243368267E+02 -0.19234242053E+03  0.19511105892E+03  0.00000000000E+00 0.  1.
         21    1    1    2  504  503 -0.31109355253E+02  0.10243368267E+02  0.90100605450E+02  0.95868856675E+02  0.00000000000E+00 0. -1.
</event>
<event>
 4    1  0.3069799E+006  0.2450013E+02  0.7546771E-02  0.1474474E+00
         21   -1    0    0  504  501  0.00000000000E+00  0.00000000000E+00  0.42596259001E+01  0.42596259001E+01  0.00000000000E+00 0.  1.
         21   -1    0    0  503  502 -0.00000000000E+00 -0.00000000000E+00 -0.17773001759E+03  0.17773001759E+03  0.00000000000E+00 0.  1.
         21    1    1    2  503  501  0.51270704844E+01 -0.23957664181E+02 -0.45322539527E+02  0.51520763911E+02  0.00000000000E+00 0.  1.
         21    1    1    2  504  502 -0.51270704844E+01  0.23957664181E+02 -0.12814785217E+03  0.13046887958E+03  0.00000000000E+00 0.  1.
</event>
<event>
 4    1  0.3069799E+006  0.3583250E+02  0.7546771E-02  0.1374803E+00
         21   -1    0    0  504  501  0.00000000000E+00  0.00000000000E+00  0.42598827364E+01  0.42598827364E+01  0.00000000000E+00 0. -1.
         21   -1    0    0  503  502 -0.00000000000E+00 -0.00000000000E+00 -0.41965392535E+03  0.41965392535E+03  0.00000000000E+00 0.  1.
         21    1    1    2  503  501 -0.19956227281E+02  0.29761000968E+02 -0.32020742038E+03  0.32220608351E+03  0.00000000000E+00 0.  1.
         21    1    1    2  504  502  0.19956227281E+02 -0.29761000968E+02 -0.95186622239E+02  0.10170772458E+03  0.00000000000E+00 0. -1.
</event>
<event>
 4    1  0.3069799E+006  0.2219590E+02  0.7546771E-02  0.1502850E+00
         21   -1    0    0  504  501  0.00000000000E+00  0.00000000000E+00  0.36458493143E+02  0.36458493143E+02  0.00000000000E+00 0.  1.
         21   -1    0    0  503  502 -0.00000000000E+00 -0.00000000000E+00 -0.18452992362E+02  0.18452992362E+02  0.00000000000E+00 0.  1.
         21    1    1    2  503  501  0.17678594387E+02 -0.13421076376E+02  0.23208681993E+02  0.32113874111E+02  0.00000000000E+00 0.  1.
         21    1    1    2  504  502 -0.17678594387E+02  0.13421076376E+02 -0.52031812111E+01  0.22797611394E+02  0.00000000000E+00 0.  1.
</event>
<event>
 4    1  0.3069799E+006  0.2755018E+02  0.7546771E-02  0.1442158E+00
         21   -1    0    0  503  501  0.00000000000E+00  0.00000000000E+00  0.11664097748E+04  0.11664097748E+04  0.00000000000E+00 0. -1.
         21   -1    0    0  504  502 -0.00000000000E+00 -0.00000000000E+00 -0.16563233751E+02  0.16563233751E+02  0.00000000000E+00 0.  1.
         21    1    1    2  503  502  0.20158757532E+02 -0.18778628694E+02  0.11546743922E+04  0.11550030148E+04  0.00000000000E+00 0. -1.
         21    1    1    2  504  501 -0.20158757532E+02  0.18778628694E+02 -0.48278511176E+01  0.27969993694E+02  0.00000000000E+00 0.  1.
</event>
<event>
 4    1  0.3069799E+006  0.3160808E+02  0.7546771E-02  0.1406119E+00
         21   -1    0    0  503  501  0.00000000000E+00  0.00000000000E+00  0.39218936307E+03  0.39218936307E+03  0.00000000000E+00 0.  1.
         21   -1    0    0  504  502 -0.00000000000E+00 -0.00000000000E+00 -0.26754764571E+01  0.26754764571E+01  0.00000000000E+00 0.  1.
         21    1    1    2  503  502 -0.20566489130E+02  0.24001881796E+02  0.15156332322E+03  0.15482413168E+03  0.00000000000E+00 0.  1.
         21    1    1    2  504  501  0.20566489130E+02 -0.24001881796E+02  0.23795056339E+03  0.24004070784E+03  0.00000000000E+00 0.  1.
</event>
<event>
 4    1  0.3069799E+006  0.3148988E+02  0.7546771E-02  0.1407077E+00
         21   -1    0    0  503  501  0.00000000000E+00  0.00000000000E+00  0.10108281947E+03  0.10108281947E+03  0.00000000000E+00 0. -1.
         21   -1    0    0  504  502 -0.00000000000E+00 -0.00000000000E+00 -0.98929605248E+01  0.98929605248E+01  0.00000000000E+00 0. -1.
         21    1    1    2  503  502  0.29987692097E+02 -0.96099278474E+01  0.50679231939E+02  0.59665709922E+02  0.00000000000E+00 0. -1.
         21    1    1    2  504  501 -0.29987692097E+02  0.96099278474E+01  0.40510627008E+02  0.51310070075E+02  0.00000000000E+00 0. -1.
</event>
<event>
 4    1  0.3069799E+006  0.5219188E+02  0.7546771E-02  0.1288939E+00
         21   -1    0    0  503  501  0.00000000000E+00  0.00000000000E+00  0.25539345305E+02  0.25539345305E+02  0.00000000000E+00 0. -1.
         21   -1    0    0  504  502 -0.00000000000E+00 -0.00000000000E+00 -0.19820701003E+03  0.19820701003E+03  0.00000000000E+00 0.  1.
         21    1    1    2  503  502  0.10008968452E+02  0.51223162864E+02 -0.16236502004E+03  0.17054732949E+03  0.00000000000E+00 0.  1.
         21    1    1    2  504  501 -0.10008968452E+02 -0.51223162864E+02 -0.10302644683E+02  0.53199025844E+02  0.00000000000E+00 0. -1.
</event>
<event>
 4    1  0.3069799E+006  0.2016959E+02  0.7546771E-02  0.1531459E+00
         21   -1    0    0  502  501  0.00000000000E+00  0.00000000000E+00  0.15182260529E+02  0.15182260529E+02  0.00000000000E+00 0. -1.
         21   -1    0    0  504  502 -0.00000000000E+00 -0.00000000000E+00 -0.80296348501E+02  0.80296348501E+02  0.00000000000E+00 0. -1.
         21    1    1    2  503  501 -0.11878086911E+02 -0.16301020458E+02  0.64110896644E+01  0.21163985620E+02  0.00000000000E+00 0. -1.
         21    1    1    2  504  503  0.11878086911E+02  0.16301020458E+02 -0.71525177637E+02  0.74314623410E+02  0.00000000000E+00 0. -1.
</event>
<event>
 4    1  0.3069799E+006  0.3256961E+02  0.7546771E-02  0.1398505E+00
         21   -1    0    0  503  501  0.00000000000E+00  0.00000000000E+00  0.12230288852E+02  0.12230288852E+02  0.00000000000E+00 0. -1.
         21   -1    0    0  504  502 -0.00000000000E+00 -0.00000000000E+00 -0.16545704381E+03  0.16545704381E+03  0.00000000000E+00 0. -1.
         21    1    1    2  503  502 -0.16730105301E+02  0.27944288354E+02 -0.13789570855E+03  0.14168982360E+03  0.00000000000E+00 0. -1.
         21    1    1    2  504  501  0.16730105301E+02 -0.27944288354E+02 -0.15331046414E+02  0.35997509068E+02  0.00000000000E+00 0. -1.
</event>
<event>
 4    1  0.3069799E+006  0.3718424E+02  0.7546771E-02  0.1365826E+00
         21   -1    0    0  504  501  0.00000000000E+00  0.00000000000E+00  0.10740455360E+03  0.10740455360E+03  0.00000000000E+00 0.  1.
         21   -1    0    0  503  502 -0.00000000000E+00 -0.00000000000E+00 -0.28771004646E+02  0.28771004646E+02  0.00000000000E+00 0. -1.
         21    1    1    2  503  501  0.23264802360E+02  0.29007177056E+02 -0.11295609361E+02  0.38862039839E+02  0.00000000000E+00 0. -1.
         21    1    1    2  504  502 -0.23264802360E+02 -0.29007177056E+02  0.89929158317E+02  0.97313518409E+02  0.00000000000E+00 0.  1.
</event>
<event>
 4    1  0.3069799E+006  0.2208359E+02  0.7546771E-02  0.1504338E+00
         21   -1    0    0  502  501  0.00000000000E+00  0.00000000000E+00  0.40176786619E+02  0.40176786619E+02  0.00000000000E+00 0. -1.
         21   -1    0    0  503  502 -0.00000000000E+00 -0.00000000000E+00 -0.16681903171E+02  0.16681903171E+02  0.00000000000E+00 0. -1.
         21    1    1    2  503  504 -0.21101571683E+01 -0.21982542516E+02 -0.30892087352E+01  0.22298613171E+02  0.00000000000E+00 0. -1.
         21    1    1    2  504  501  0.21101571683E+01  0.21982542516E+02  0.26584092183E+02  0.34560076620E+02  0.00000000000E+00 0. -1.
</event>
<event>
 4    1  0.3069799E+006  0.4250307E+02  0.7546771E-02  0.1334411E+00
         21   -1    0    0  504  501  0.00000000000E+00  0.00000000000E+00  0.57924692181E+02  0.57924692181E+02  0.00000000000E+00 0.  1.
         21   -1    0    0  503  502 -0.00000000000E+00 -0.00000000000E+00 -0.86740559068E+02  0.86740559068E+02  0.00000000000E+00 0.  1.
         21    1    1    2  503  501 -0.89788642626E+01 -0.41543848643E+02 -0.72294544036E+02  0.83863057784E+02  0.00000000000E+00 0.  1.
         21    1    1    2  504  502  0.89788642626E+01  0.41543848643E+02  0.43478677149E+02  0.60802193465E+02  0.00000000000E+00 0.  1.
</event>
<event>
 4    1  0.3069799E+006  0.2127664E+02  0.7546771E-02  0.1515352E+00
         21   -1    0    0  504  501  0.00000000000E+00  0.00000000000E+00  0.25083824585E+03  0.25083824585E+03  0.00000000000E+00 0. -1.
         21   -1    0    0  503  502 -0.00000000000E+00 -0.00000000000E+00 -0.11805284901E+02  0.11805284901E+02  0.00000000000E+00 0. -1.
         21    1    1    2  503  501  0.12424580181E+02  0.17272090961E+02 -0.13512936533E+01  0.21319505467E+02  0.00000000000E+00 0. -1.
         21    1    1    2  504  502 -0.12424580181E+02 -0.17272090961E+02  0.24038425460E+03  0.24132402529E+03  0.00000000000E+00 0. -1.
</event>
<event>
 4    1  0.3069799E+006  0.2726184E+02  0.7546771E-02  0.1444995E+00
         21   -1    0    0  503  501  0.00000000000E+00  0.00000000000E+00  0.37326703679E+02  0.37326703679E+02  0.00000000000E+00 0.  1.
         21   -1    0    0  504  502 -0.00000000000E+00 -0.00000000000E+00 -0.26866611082E+02  0.26866611082E+02  0.00000000000E+00 0.  1.
         21    1    1    2  503  502  0.26010839968E+02 -0.81635929422E+01 -0.11101387406E+02  0.29435503187E+02  0.00000000000E+00 0.  1.
         21    1    1    2  504  501 -0.26010839968E+02  0.81635929422E+01  0.21561480003E+02  0.34757811575E+02  0.00000000000E+00 0.  1.
</event>
<event>
 4    1  0.3069799E+006  0.2379353E+02  0.7546771E-02  0.1482767E+00
         21   -1    0    0  503  501  0.00000000000E+00  0.00000000000E+00  0.53409543343E+00  0.53409543343E+00  0.00000000000E+00 0.  1.
         21   -1    0    0  504  502 -0.00000000000E+00 -0.00000000000E+00 -0.10609630041E+04  0.10609630041E+04  0.00000000000E+00 0.  1.
         21    1    1    2  503  502  0.16828541600E+00  0.23792931238E+02 -0.54634795147E+03  0.54686581166E+03  0.00000000000E+00 0.  1.
         21    1    1    2  504  501 -0.16828541600E+00 -0.23792931238E+02 -0.51408095720E+03  0.51463128787E+03  0.00000000000E+00 0.  1.
</event>
<event>
 4    1  0.3069799E+006  0.2094554E+02  0.7546771E-02  0.1520044E+00
         21   -1    0    0  503  501  0.00000000000E+00  0.00000000000E+00  0.81159216531E+02  0.81159216531E+02  0.00000000000E+00 0. -1.
         21   -1    0    0  504  502 -0.00000000000E+00 -0.00000000000E+00 -0.33174339543E+02  0.33174339543E+02  0.00000000000E+00 0. -1.
         21    1    1    2  503  502  0.20813187492E+02  0.23509168437E+01  0.76294707384E+02  0.79117621036E+02  0.00000000000E+00 0. -1.
         21    1    1    2  504  501 -0.20813187492E+02 -0.23509168437E+01 -0.28309830396E+02  0.35215935039E+02  0.00000000000E+00 0. -1.
</event>
<event>
 4    1  0.3069799E+006  0.5037273E+02  0.7546771E-02  0.1296564E+00
         21   -1    0    0  504  501  0.00000000000E+00  0.00000000000E+00  0.41028450023E+03  0.41028450023E+03  0.00000000000E+00 0.  1.
         21   -1    0    0  501  502 -0.00000000000E+00 -0.00000000000E+00 -0.36835081809E+02  0.36835081809E+02  0.00000000000E+00 0. -1.
         21    1    1    2  503  502 -0.70022476215E+01 -0.49883665371E+02 -0.17205758462E+02  0.53230157494E+02  0.00000000000E+00 0. -1.
         21    1    1    2  504  503  0.70022476215E+01  0.49883665371E+02  0.39065517688E+03  0.39388942454E+03  0.00000000000E+00 0.  1.
</event>
<event>
 4    1  0.3069799E+006  0.2066679E+02  0.7546771E-02  0.1524076E+00
         21   -1    0    0  504  501  0.00000000000E+00  0.00000000000E+00  0.10283748784E+03  0.10283748784E+03  0.00000000000E+00 0. -1.
         21   -1    0    0  501  502 -0.00000000000E+00 -0.00000000000E+00 -0.79048902393E+01  0.79048902393E+01  0.00000000000E+00 0.  1.
         21    1    1    2  503  502 -0.13476347130E+02  0.15668575308E+02  0.93208327802E+01  0.22671438151E+02  0.00000000000E+00 0.  1.
         21    1    1    2  504  503  0.13476347130E+02 -0.15668575308E+02  0.85611764823E+02  0.88070939931E+02  0.00000000000E+00 0. -1.
</event>
<event>
 4    1  0.3069799E+006  0.2226844E+02  0.7546771E-02  0.1501894E+00
         21   -1    0    0  503  501  0.00000000000E+00  0.00000000000E+00  0.23038409768E+02  0.23038409768E+02  0.00000000000E+00 0.  1.
         21   -1    0    0  504  502 -0.00000000000E+00 -0.00000000000E+00 -0.21576508118E+02  0.21576508118E+02  0.00000000000E+00 0.  1.
         21    1    1    2  503  502  0.54966118733E+01  0.21579405190E+02  0.18292495499E+01  0.22343447011E+02  0.00000000000E+00 0.  1.
         21    1    1    2  504  501 -0.54966118733E+01 -0.21579405190E+02 -0.36734789954E+00  0.22271470874E+02  0.00000000000E+00 0.  1.
</event>
<event>
 4    1  0.3069799E+006  0.2555831E+02  0.7546771E-02  0.1462653E+00
         21   -1    0    0  504  501  0.00000000000E+00  0.00000000000E+00  0.35479488797E+02  0.35479488797E+02  0.00000000000E+00 0.  1.
         21   -1    0    0  503  502 -0.00000000000E+00 -0.00000000000E+00 -0.26680520514E+02  0.26680520514E+02  0.00000000000E+00 0.  1.
         21    1    1    2  503  501  0.25177573189E+02 -0.43951229911E+01  0.21702165535E+02  0.33529260157E+02  0.00000000000E+00 0.  1.
         21    1    1    2  504  502 -0.25177573189E+02  0.43951229911E+01 -0.12903197252E+02  0.28630749154E+02  0.00000000000E+00 0.  1.
</event>
<event>
 4    1  0.3069799E+006  0.2402652E+02  0.7546771E-02  0.1479995E+00
         21   -1    0    0  502  501  0.00000000000E+00  0.00000000000E+00  0.84139477504E+02  0.84139477504E+02  0.00000000000E+00 0.  1.
         21   -1    0    0  503  502 -0.00000000000E+00 -0.00000000000E+00 -0.11984909184E+02  0.11984909184E+02  0.00000000000E+00 0.  1.
         21    1    1    2  503  504 -0.85461834545E+00 -0.24011319492E+02  0.46511825851E+01  0.24472583347E+02  0.00000000000E+00 0.  1.
         21    1    1    2  504  501  0.85461834545E+00  0.24011319492E+02  0.67503385735E+02  0.71651803340E+02  0.00000000000E+00 0.  1.
</event>
<event>
 4    1  0.3069799E+006  0.2587276E+02  0.7546771E-02  0.1459272E+00
         21   -1    0    0  503  501  0.00000000000E+00  0.00000000000E+00  0.44591877438E+02  0.44591877438E+02  0.00000000000E+00 0. -1.
         21   -1    0    0  504  502 -0.00000000000E+00 -0.00000000000E+00 -0.15486543286E+02  0.15486543286E+02  0.00000000000E+00 0. -1.
         21    1    1    2  503  502  0.25849009477E+02  0.11084328530E+01  0.19812671785E+02  0.32587449694E+02  0.00000000000E+00 0. -1.
         21    1    1    2  504  501 -0.25849009477E+02 -0.11084328530E+01  0.92926623669E+01  0.27490971030E+02  0.00000000000E+00 0. -1.
</event>
<event>
 4    1  0.3069799E+006  0.2939679E+02  0.7546771E-02  0.1424912E+00
         21   -1    0    0  502  501  0.00000000000E+00  0.00000000000E+00  0.30990770714E+02  0.30990770714E+02  0.00000000000E+00 0. -1.
         21   -1    0    0  504  502 -0.00000000000E+00 -0.00000000000E+00 -0.19626419028E+03  0.19626419028E+03  0.00000000000E+00 0.  1.
         21    1    1    2  503  501  0.16352696548E+02  0.24428681218E+02  0.22609707789E+02  0.37085981674E+02  0.00000000000E+00 0. -1.
         21    1    1    2  504  503 -0.16352696548E+02 -0.24428681218E+02 -0.18788312736E+03  0.19016897932E+03  0.00000000000E+00 0.  1.
</event>
<event>
 4    1  0.3069799E+006  0.2272909E+02  0.7546771E-02  0.1495928E+00
         21   -1    0    0  504  501  0.00000000000E+00  0.00000000000E+00  0.35387273253E+02  0.35387273253E+02  0.00000000000E+00 0.  1.
         21   -1    0    0  503  502 -0.00000000000E+00 -0.00000000000E+00 -0.56295679384E+02  0.56295679384E+02  0.00000000000E+00 0. -1.
         21    1    1    2  503  501 -0.19465867075E+02  0.11734202753E+02 -0.49906552741E+02  0.54838631472E+02  0.00000000000E+00 0. -1.
         21    1    1    2  504  502  0.19465867075E+02 -0.11734202753E+02  0.28998146611E+02  0.36844321165E+02  0.00000000000E+00 0.  1.
</event>
<event>
 4    1  0.3069799E+006  0.2109888E+02  0.7546771E-02  0.1517858E+00
         21   -1    0    0  503  501  0.00000000000E+00  0.00000000000E+00  0.17901373677E+02  0.17901373677E+02  0.00000000000E+00 0. -1.
         21   -1    0    0  504  502 -0.00000000000E+00 -0.00000000000E+00 -0.26012626899E+03  0.26012626899E+03  0.00000000000E+00 0. -1.
         21    1    1    2  503  502 -0.80332721594E+01 -0.19509727172E+02 -0.25331467124E+03  0.25419182831E+03  0.00000000000E+00 0. -1.
         21    1    1    2  504  501  0.80332721594E+01  0.19509727172E+02  0.11089775926E+02  0.23835814356E+02  0.00000000000E+00 0. -1.
</event>
<event>
 4    1  0.3069799E+006  0.2499029E+02  0.7546771E-02  0.1468912E+00
         21   -1    0    0  504  501  0.00000000000E+00  0.00000000000E+00  0.41218486180E+01  0.41218486180E+01  0.00000000000E+00 0. -1.
         21   -1    0    0  503  502 -0.00000000000E+00 -0.00000000000E+00 -0.52982650781E+03  0.52982650781E+03  0.00000000000E+00 0.  1.
         21    1    1    2  503  501  0.19556152523E+02  0.15558652739E+02 -0.37257997464E+02  0.44862825943E+02  0.00000000000E+00 0. -1.
         21    1    1    2  504  502 -0.19556152523E+02 -0.15558652739E+02 -0.48844666173E+03  0.48908553049E+03  0.00000000000E+00 0.  1.
</event>
<event>
 4    1  0.3069799E+006  0.2675835E+02  0.7546771E-02  0.1450051E+00
         21   -1    0    0  504  501  0.00000000000E+00  0.00000000000E+00  0.12087110350E+03  0.12087110350E+03  0.00000000000E+00 0. -1.
         21   -1    0    0  503  502 -0.00000000000E+00 -0.00000000000E+00 -0.11198623569E+02  0.11198623569E+02  0.00000000000E+00 0. -1.
         21    1    1    2  503  501  0.14240247620E+02 -0.22654458887E+02  0.10015701653E+03  0.10366984673E+03  0.00000000000E+00 0. -1.
         21    1    1    2  504  502 -0.14240247620E+02  0.22654458887E+02  0.95154633966E+01  0.28399880341E+02  0.00000000000E+00 0. -1.
</event>
<event>
 4    1  0.3069799E+006  0.2221586E+02  0.7546771E-02  0.1502587E+00
         21   -1    0    0  504  501  0.00000000000E+00  0.00000000000E+00  0.19824546638E+02  0.19824546638E+02  0.00000000000E+00 0.  1.
         21   -1    0    0  503  502 -0.00000000000E+00 -0.00000000000E+00 -0.68639137883E+02  0.68639137883E+02  0.00000000000E+00 0.  1.
         21    1    1    2  503  501  0.20119905535E+01  0.22124560407E+02 -0.59717968740E+02  0.63716403459E+02  0.00000000000E+00 0.  1.
         21    1    1    2  504  502 -0.20119905535E+01 -0.22124560407E+02  0.10903377495E+02  0.24747281063E+02  0.00000000000E+00 0.  1.
</event>
<event>
 4    1  0.3069799E+006  0.2180978E+02  0.7546771E-02  0.1508010E+00
         21   -1    0    0  503  501  0.00000000000E+00  0.00000000000E+00  0.20214712079E+02  0.20214712079E+02  0.00000000000E+00 0. -1.
         21   -1    0    0  504  502 -0.00000000000E+00 -0.00000000000E+00 -0.10977762934E+03  0.10977762934E+03  0.00000000000E+00 0. -1.
         21    1    1    2  503  502 -0.92885595634E+01 -0.19732944716E+02 -0.10239209236E+03  0.10468909697E+03  0.00000000000E+00 0. -1.
         21    1    1    2  504  501  0.92885595634E+01  0.19732944716E+02  0.12829175101E+02  0.25303244450E+02  0.00000000000E+00 0. -1.
</event>
<event>
 4    1  0.3069799E+006  0.2349372E+02  0.7546771E-02  0.1486390E+00
         21   -1    0    0  504  501  0.00000000000E+00  0.00000000000E+00  0.21261283842E+03  0.21261283842E+03  0.00000000000E+00 0. -1.
         21   -1    0    0  503  502 -0.00000000000E+00 -0.00000000000E+00 -0.26801965768E+01  0.26801965768E+01  0.00000000000E+00 0. -1.
         21    1    1    2  503  501 -0.21414447723E+02  0.96631353154E+01  0.85893261258E+02  0.89048341282E+02  0.00000000000E+00 0. -1.
         21    1    1    2  504  502  0.21414447723E+02 -0.96631353154E+01  0.12403938058E+03  0.12624469372E+03  0.00000000000E+00 0. -1.
</event>
<event>
 4    1  0.3069799E+006  0.2000016E+02  0.7546771E-02  0.1534033E+00
         21   -1    0    0  504  501  0.00000000000E+00  0.00000000000E+00  0.49923964463E+02  0.49923964463E+02  0.00000000000E+00 0. -1.
         21   -1    0    0  503  502 -0.00000000000E+00 -0.00000000000E+00 -0.15773164800E+02  0.15773164800E+02  0.00000000000E+00 0. -1.
         21    1    1    2  503  501 -0.10556851901E+02  0.16987037227E+02  0.40116945078E+02  0.44826062042E+02  0.00000000000E+00 0. -1.
         21    1    1    2  504  502  0.10556851901E+02 -0.16987037227E+02 -0.59661454153E+01  0.20871067220E+02  0.00000000000E+00 0. -1.
</event>
<event>
 4    1  0.3069799E+006  0.2667974E+02  0.7546771E-02  0.1450852E+00
         21   -1    0    0  504  501  0.00000000000E+00  0.00000000000E+00  0.47343791438E+02  0.47343791438E+02  0.00000000000E+00 0.  1.
         21   -1    0    0  503  502 -0.00000000000E+00 -0.00000000000E+00 -0.62627742084E+02  0.62627742084E+02  0.00000000000E+00 0. -1.
         21    1    1    2  503  501  0.11216797799E+02  0.24207268932E+02 -0.55575327330E+02  0.61647590625E+02  0.00000000000E+00 0. -1.
         21    1    1    2  504  502 -0.11216797799E+02 -0.24207268932E+02  0.40291376684E+02  0.48323942897E+02  0.00000000000E+00 0.  1.
</event>
<event>
 4    1  0.3069799E+006  0.2526070E+02  0.7546771E-02  0.1465908E+00
         21   -1    0    0  503  501  0.00000000000E+00  0.00000000000E+00  0.38191027882E+03  0.38191027882E+03  0.00000000000E+00 0. -1.
         21   -1    0    0  501  502 -0.00000000000E+00 -0.00000000000E+00 -0.17738776100E+01  0.17738776100E+01  0.00000000000E+00 0. -1.
         21    1    1    2  503  504 -0.23954898641E+02  0.80165849500E+01  0.23630896404E+03  0.23765527406E+03  0.00000000000E+00 0. -1.
         21    1    1    2  504  502  0.23954898641E+02 -0.80165849500E+01  0.14382743717E+03  0.14602888237E+03  0.00000000000E+00 0. -1.
</event>
<event>
 4    1  0.3069799E+006  0.2426284E+02  0.7546771E-02  0.1477222E+00
         21   -1    0    0  504  501  0.00000000000E+00  0.00000000000E+00  0.70587399515E+01  0.70587399515E+01  0.00000000000E+00 0.  1.
         21   -1    0    0  501  502 -0.00000000000E+00 -0.00000000000E+00 -0.91866627443E+02  0.91866627443E+02  0.00000000000E+00 0.  1.
         21    1    1    2  503  502 -0.52604821890E+01 -0.23685704080E+02 -0.57421651420E+02  0.62337238489E+02  0.00000000000E+00 0.  1.
         21    1    1    2  504  503  0.52604821890E+01  0.23685704080E+02 -0.27386236072E+02  0.36588128906E+02  0.00000000000E+00 0.  1.
</event>
<event>
 4    1  0.3069799E+006  0.2189310E+02  0.7546771E-02  0.1506886E+00
         21   -1    0    0  504  501  0.00000000000E+00  0.00000000000E+00  0.51234885654E+01  0.51234885654E+01  0.00000000000E+00 0.  1.
         21   -1    0    0  503  502 -0.00000000000E+00 -0.00000000000E+00 -0.14534423746E+03  0.14534423746E+03  0.00000000000E+00 0.  1.
         21    1    1    2  503  501  0.30209038640E+01  0.21683676793E+02 -0.11502117554E+03  0.11708620124E+03  0.00000000000E+00 0.  1.
         21    1    1    2  504  502 -0.30209038640E+01 -0.21683676793E+02 -0.25199573357E+02  0.33381524782E+02  0.00000000000E+00 0.  1.
</event>
<event>
 4    1  0.3069799E+006  0.2017991E+02  0.7546771E-02  0.1531303E+00
         21   -1    0    0  503  501  0.00000000000E+00  0.00000000000E+00  0.26322067984E+01  0.26322067984E+01  0.00000000000E+00 0. -1.
         21   -1    0    0  504  502 -0.00000000000E+00 -0.00000000000E+00 -0.37100267641E+03  0.37100267641E+03  0.00000000000E+00 0. -1.
         21    1    1    2  503  502 -0.18782846996E+02  0.73778988704E+01 -0.32682801633E+03  0.32745042524E+03  0.00000000000E+00 0. -1.
         21    1    1    2  504  501  0.18782846996E+02 -0.73778988704E+01 -0.41542453284E+02  0.46184457969E+02  0.00000000000E+00 0. -1.
</event>
<event>
 4    1  0.3069799E+006  0.2001129E+02  0.7546771E-02  0.1533863E+00
         21   -1    0    0  503  501  0.00000000000E+00  0.00000000000E+00  0.70736585234E+01  0.70736585234E+01  0.00000000000E+00 0.  1.
         21   -1    0    0  501  502 -0.00000000000E+00 -0.00000000000E+00 -0.10628055262E+04  0.10628055262E+04  0.00000000000E+00 0. -1.
         21    1    1    2  503  504 -0.16349095440E+02 -0.11539438666E+02 -0.73684040324E+01  0.21324749575E+02  0.00000000000E+00 0.  1.
         21    1    1    2  504  502  0.16349095440E+02  0.11539438666E+02 -0.10483634636E+04  0.10485544351E+04  0.00000000000E+00 0. -1.
</event>
<event>
 4    1  0.3069799E+006  0.2410794E+02  0.7546771E-02  0.1479035E+00
         21   -1    0    0  504  501  0.00000000000E+00  0.00000000000E+00  0.12352501649E+01  0.12352501649E+01  0.00000000000E+00 0.  1.
         21   -1    0    0  503  502 -0.00000000000E+00 -0.00000000000E+00 -0.51389756003E+03  0.51389756003E+03  0.00000000000E+00 0.  1.
         21    1    1    2  503  501  0.17362614383E+02 -0.16725207069E+02 -0.18148796456E+03  0.18308215153E+03  0.00000000000E+00 0.  1.
         21    1    1    2  504  502 -0.17362614383E+02  0.16725207069E+02 -0.33117434531E+03  0.33205065867E+03  0.00000000000E+00 0.  1.
</event>
<event>
 4    1  0.3069799E+006  0.2003995E+02  0.7546771E-02  0.1533426E+00
         21   -1    0    0  502  501  0.00000000000E+00  0.00000000000E+00  0.70967549213E+03  0.70967549213E+03  0.00000000000E+00 0. -1.
         21   -1    0    0  504  502 -0.00000000000E+00 -0.00000000000E+00 -0.37410096289E+01  0.37410096289E+01  0.00000000000E+00 0. -1.
         21    1    1    2  503  501  0.10121163714E+02  0.17296289420E+02  0.68159077494E+03  0.68188531592E+03  0.00000000000E+00 0. -1.
         21    1    1    2  504  503 -0.10121163714E+02 -0.17296289420E+02  0.24343707560E+02  0.31531185839E+02  0.00000000000E+00 0. -1.
</event>
<event>
 4    1  0.3069799E+006  0.2446118E+02  0.7546771E-02  0.1474922E+00
         21   -1    0    0  503  501  0.00000000000E+00  0.00000000000E+00  0.15896301833E+03  0.15896301833E+03  0.00000000000E+00 0. -1.
         21   -1    0    0  504  502 -0.00000000000E+00 -0.00000000000E+00 -0.18380457759E+03  0.18380457759E+03  0.00000000000E+00 0.  1.
         21    1    1    2  503  502 -0.22859690790E+02  0.87053803107E+01  0.15719908279E+03  0.15909085687E+03  0.00000000000E+00 0. -1.
         21    1    1    2  504  501  0.22859690790E+02 -0.87053803107E+01 -0.18204064205E+03  0.18367673905E+03  0.00000000000E+00 0.  1.
</event>
<event>
 4    1  0.3069799E+006  0.2765992E+02  0.7546771E-02  0.1441089E+00
         21   -1    0    0  503  501  0.00000000000E+00  0.00000000000E+00  0.48060781884E+03  0.48060781884E+03  0.00000000000E+00 0.  1.
         21   -1    0    0  501  502 -0.00000000000E+00 -0.00000000000E+00 -0.68379635391E+01  0.68379635391E+01  0.00000000000E+00 0.  1.
         21    1    1    2  503  504 -0.25229147721E+02  0.11338496210E+02  0.45036159290E+03  0.45121019021E+03  0.00000000000E+00 0.  1.
         21    1    1    2  504  502  0.25229147721E+02 -0.11338496210E+02  0.23408262398E+02  0.36235592165E+02  0.00000000000E+00 0.  1.
</event>
<event>
 4    1  0.3069799E+006  0.5600207E+02  0.7546771E-02  0.1274056E+00
         21   -1    0    0  503  501  0.00000000000E+00  0.00000000000E+00  0.14839176200E+03  0.14839176200E+03  0.00000000000E+00 0.  1.
         21   -1    0    0  504  502 -0.00000000000E+00 -0.00000000000E+00 -0.46764945388E+02  0.46764945388E+02  0.00000000000E+00 0. -1.
         21    1    1    2  503  502 -0.28998641225E+02 -0.47909396654E+02  0.12305191060E+03  0.13519616926E+03  0.00000000000E+00 0.  1.
         21    1    1    2  504  501  0.28998641225E+02  0.47909396654E+02 -0.21425093985E+02  0.59960538131E+02  0.00000000000E+00 0. -1.
</event>
<event>
 4    1  0.3069799E+006  0.2796706E+02  0.7546771E-02  0.1438128E+00
         21   -1    0    0  504  501  0.00000000000E+00  0.00000000000E+00  0.39181723971E+03  0.39181723971E+03  0.00000000000E+00 0. -1.
         21   -1    0    0  503  502 -0.00000000000E+00 -0.00000000000E+00 -0.12293927537E+02  0.12293927537E+02  0.00000000000E+00 0. -1.
         21    1    1    2  503  501  0.26872744202E+02 -0.77467481700E+01  0.48366495043E+01  0.28382206866E+02  0.00000000000E+00 0. -1.
         21    1    1    2  504  502 -0.26872744202E+02  0.77467481700E+01  0.37468666266E+03  0.37572896038E+03  0.00000000000E+00 0. -1.
</event>
<event>
 4    1  0.3069799E+006  0.2431487E+02  0.7546771E-02  0.1476616E+00
         21   -1    0    0  504  501  0.00000000000E+00  0.00000000000E+00  0.64145260467E+03  0.64145260467E+03  0.00000000000E+00 0.  1.
         21   -1    0    0  503  502 -0.00000000000E+00 -0.00000000000E+00 -0.25430558881E+03  0.25430558881E+03  0.00000000000E+00 0.  1.
         21    1    1    2  503  501  0.10998862197E+02  0.21684969519E+02  0.64064024521E+03  0.64110150262E+03  0.00000000000E+00 0.  1.
         21    1    1    2  504  502 -0.10998862197E+02 -0.21684969519E+02 -0.25349322935E+03  0.25465669086E+03  0.00000000000E+00 0.  1.
</event>
<event>
 4    1  0.3069799E+006  0.6370715E+02  0.7546771E-02  0.1247732E+00
         21   -1    0    0  503  501  0.00000000000E+00  0.00000000000E+00  0.11606171865E+03  0.11606171865E+03  0.00000000000E+00 0.  1.
         21   -1    0    0  501  502 -0.00000000000E+00 -0.00000000000E+00 -0.95070179215E+02  0.95070179215E+02  0.00000000000E+00 0. -1.
         21    1    1    2  503  504  0.52737936304E+02 -0.35739482758E+02  0.94430558811E+02  0.11391106615E+03  0.00000000000E+00 0.  1.
         21    1    1    2  504  502 -0.52737936304E+02  0.35739482758E+02 -0.73439019374E+02  0.97220831719E+02  0.00000000000E+00 0. -1.
</event>
<event>
 4    1  0.3069799E+006  0.2166896E+02  0.7546771E-02  0.1509924E+00
         21   -1    0    0  503  501  0.00000000000E+00  0.00000000000E+00  0.17090186555E+02  0.17090186555E+02  0.00000000000E+00 0. -1.
         21   -1    0    0  504  502 -0.00000000000E+00 -0.00000000000E+00 -0.12444702084E+03  0.12444702084E+03  0.00000000000E+00 0. -1.
         21    1    1    2  503  502  0.21666651000E+02  0.31666326614E+00  0.87917625583E+01  0.23384591724E+02  0.00000000000E+00 0. -1.
         21    1    1    2  504  501 -0.21666651000E+02 -0.31666326614E+00 -0.11614859685E+03  0.11815261567E+03  0.00000000000E+00 0. -1.
</event>
<event>
 4    1  0.3069799E+006  0.2060365E+02  0.7546771E-02  0.1525000E+00
         21   -1    0    0  503  501  0.00000000000E+00  0.00000000000E+00  0.16738856839E+01  0.16738856839E+01  0.00000000000E+00 0. -1.
         21   -1    0    0  504  502 -0.00000000000E+00 -0.00000000000E+00 -0.55742525512E+03  0.55742525512E+03  0.00000000000E+00 0.  1.
         21    1    1    2  503  502 -0.20183810354E+02  0.41381255820E+01 -0.48425774663E+03  0.48469585872E+03  0.00000000000E+00 0.  1.
         21    1    1    2  504  501  0.20183810354E+02 -0.41381255820E+01 -0.71493622804E+02  0.74403282088E+02  0.00000000000E+00 0. -1.
</event>
<event>
 4    1  0.3069799E+006  0.2348326E+02  0.7546771E-02  0.1486517E+00
         21   -1    0    0  504  501  0.00000000000E+00  0.00000000000E+00  0.48286362438E+03  0.48286362438E+03  0.00000000000E+00 0. -1.
         21   -1    0    0  501  502 -0.00000000000E+00 -0.00000000000E+00 -0.54547925621E+01  0.54547925621E+01  0.00000000000E+00 0. -1.
         21    1    1    2  503  502  0.14393366513E+02 -0.18555178692E+02  0.21604432113E+02  0.31909483587E+02  0.00000000000E+00 0. -1.
         21    1    1    2  504  503 -0.14393366513E+02  0.18555178692E+02  0.45580439970E+03  0.45640893335E+03  0.00000000000E+00 0. -1.
</event>
<event>
 4    1  0.3069799E+006  0.3020339E+02  0.7546771E-02  0.1417837E+00
         21   -1    0    0  503  501  0.00000000000E+00  0.00000000000E+00  0.39861313661E+03  0.39861313661E+03  0.00000000000E+00 0.  1.
         21   -1    0    0  501  502 -0.00000000000E+00 -0.00000000000E+00 -0.17310519294E+02  0.17310519294E+02  0.00000000000E+00 0.  1.
         21    1    1    2  503  504 -0.28576736249E+02  0.97782817234E+01  0.38437916164E+03  0.38556398244E+03  0.00000000000E+00 0.  1.
         21    1    1    2  504  502  0.28576736249E+02 -0.97782817234E+01 -0.30765443251E+01  0.30359673468E+02  0.00000000000E+00 0.  1.
</event>
<event>
 4    1  0.3069799E+006  0.2295078E+02  0.7546771E-02  0.1493117E+00
         21   -1    0    0  504  501  0.00000000000E+00  0.00000000000E+00  0.81159984447E+01  0.81159984447E+01  0.00000000000E+00 0.  1.
         21   -1    0    0  503  502 -0.00000000000E+00 -0.00000000000E+00 -0.10968881019E+03  0.10968881019E+03  0.00000000000E+00 0.  1.
         21    1    1    2  503  501 -0.31197171509E+01  0.22737760355E+02 -0.88424757886E+02  0.91354672503E+02  0.00000000000E+00 0.  1.
         21    1    1    2  504  502  0.31197171509E+01 -0.22737760355E+02 -0.13148053859E+02  0.26450136130E+02  0.00000000000E+00 0.  1.
</event>
<event>
 4    1  0.3069799E+006  0.3135135E+02  0.7546771E-02  0.1408206E+00
         21   -1    0    0  504  501  0.00000000000E+00  0.00000000000E+00  0.67420732006E+03  0.67420732006E+03  0.00000000000E+00 0.  1.
         21   -1    0    0  503  502 -0.00000000000E+00 -0.00000000000E+00 -0.57378074001E+01  0.57378074001E+01  0.00000000000E+00 0. -1.
         21    1    1    2  503  501  0.14044630591E+02 -0.28029550461E+02  0.62785739777E+03  0.62863965774E+03  0.00000000000E+00 0.  1.
         21    1    1    2  504  502 -0.14044630591E+02  0.28029550461E+02  0.40612114890E+02  0.51305469722E+02  0.00000000000E+00 0. -1.
</event>
<event>
 4    1  0.3069799E+006  0.2011516E+02  0.7546771E-02  0.1532282E+00
         21   -1    0    0  504  501  0.00000000000E+00  0.00000000000E+00  0.34070056665E+03  0.34070056665E+03  0.00000000000E+00 0. -1.
         21   -1    0    0  503  502 -0.00000000000E+00 -0.00000000000E+00 -0.17983316468E+01  0.17983316468E+01  0.00000000000E+00 0.  1.
         21    1    1    2  503  501  0.21724151332E+01  0.19997510187E+02  0.26924766750E+03  0.26999801158E+03  0.00000000000E+00 0.  1.
         21    1    1    2  504  502 -0.21724151332E+01 -0.19997510187E+02  0.69654567508E+02  0.72500886725E+02  0.00000000000E+00 0. -1.
</event>
<event>
 4    1  0.3069799E+006  0.1111033E+03  0.7546771E-02  0.1145844E+00
         21   -1    0    0  504  501  0.00000000000E+00  0.00000000000E+00  0.28881308672E+03  0.28881308672E+03  0.00000000000E+00 0. -1.
         21   -1    0    0  501  502 -0.00000000000E+00 -0.00000000000E+00 -0.33508482772E+03  0.33508482772E+03  0.00000000000E+00 0. -1.
         21    1    1    2  503  502 -0.49370510469E+02  0.99531422126E+02 -0.31451179056E+03  0.33355901681E+03  0.00000000000E+00 0. -1.
         21    1    1    2  504  503  0.49370510469E+02 -0.99531422126E+02  0.26824004956E+03  0.29033889764E+03  0.00000000000E+00 0. -1.
</event>
<event>
 4    1  0.3069799E+006  0.2633626E+02  0.7546771E-02  0.1454392E+00
         21   -1    0    0  502  501  0.00000000000E+00  0.00000000000E+00  0.53351953865E+03  0.53351953865E+03  0.00000000000E+00 0. -1.
         21   -1    0    0  503  502 -0.00000000000E+00 -0.00000000000E+00 -0.24461681287E+01  0.24461681287E+01  0.00000000000E+00 0. -1.
         21    1    1    2  503  504 -0.26322250114E+02 -0.85902232093E+00  0.82102734341E+02  0.86223301704E+02  0.00000000000E+00 0. -1.
         21    1    1    2  504  501  0.26322250114E+02  0.85902232093E+00  0.44897063618E+03  0.44974240507E+03  0.00000000000E+00 0. -1.
</event>
<event>
 4    1  0.3069799E+006  0.3277128E+02  0.7546771E-02  0.1396947E+00
         21   -1    0    0  504  501  0.00000000000E+00  0.00000000000E+00  0.64483452077E+02  0.64483452077E+02  0.00000000000E+00 0.  1.
         21   -1    0    0  503  502 -0.00000000000E+00 -0.00000000000E+00 -0.22291495658E+03  0.22291495658E+03  0.00000000000E+00 0.  1.
         21    1    1    2  503  501  0.13691889642E+02 -0.29773969651E+02  0.59011113759E+02  0.67500138206E+02  0.00000000000E+00 0.  1.
         21    1    1    2  504  502 -0.13691889642E+02  0.29773969651E+02 -0.21744261827E+03  0.21989827046E+03  0.00000000000E+00 0.  1.
</event>
<event>
 4    1  0.3069799E+006  0.2436577E+02  0.7546771E-02  0.1476025E+00
         21   -1    0    0  502  501  0.00000000000E+00  0.00000000000E+00  0.72480079499E+03  0.72480079499E+03  0.00000000000E+00 0.  1.
         21   -1    0    0  504  502 -0.00000000000E+00 -0.00000000000E+00 -0.43932063482E+01  0.43932063482E+01  0.00000000000E+00 0.  1.
         21    1    1    2  503  501 -0.60252498166E+01 -0.23609049385E+02  0.68905957439E+03  0.68949023772E+03  0.00000000000E+00 0.  1.
         21    1    1    2  504  503  0.60252498166E+01  0.23609049385E+02  0.31348014254E+02  0.39703763623E+02  0.00000000000E+00 0.  1.
</event>
<event>
 4    1  0.3069799E+006  0.2172948E+02  0.7546771E-02  0.1509099E+00
         21   -1    0    0  503  501  0.00000000000E+00  0.00000000000E+00  0.21866994135E+03  0.21866994135E+03  0.00000000000E+00 0.  1.
         21   -1    0    0  501  502 -0.00000000000E+00 -0.00000000000E+00 -0.13527704196E+02  0.13527704196E+02  0.00000000000E+00 0. -1.
         21    1    1    2  503  504  0.14599519656E+02  0.16094237483E+02  0.20900155186E+03  0.21012810173E+03  0.00000000000E+00 0.  1.
         21    1    1    2  504  502 -0.14599519656E+02 -0.16094237483E+02 -0.38593147094E+01  0.22069543819E+02  0.00000000000E+00 0. -1.
</event>
<event>
 4    1  0.3069799E+006  0.2151046E+02  0.7546771E-02  0.1512100E+00
         21   -1    0    0  504  501  0.00000000000E+00  0.00000000000E+00  0.18744117615E+03  0.18744117615E+03  0.00000000000E+00 0.  1.
         21   -1    0    0  503  502 -0.00000000000E+00 -0.00000000000E+00 -0.14579021633E+02  0.14579021633E+02  0.00000000000E+00 0.  1.
         21    1    1    2  503  501  0.13406247032E+02  0.16821779444E+02  0.17849339792E+03  0.17978485148E+03  0.00000000000E+00 0.  1.
         21    1    1    2  504  502 -0.13406247032E+02 -0.16821779444E+02 -0.56312433942E+01  0.22235346305E+02  0.00000000000E+00 0.  1.
</event>
<event>
 4    1  0.3069799E+006  0.3220463E+02  0.7546771E-02  0.1401358E+00
         21   -1    0    0  503  501  0.00000000000E+00  0.00000000000E+00  0.40182454188E+03  0.40182454188E+03  0.00000000000E+00 0. -1.
         21   -1    0    0  504  502 -0.00000000000E+00 -0.00000000000E+00 -0.54387310690E+01  0.54387310690E+01  0.00000000000E+00 0. -1.
         21    1    1    2  503  502  0.27417484091E+02  0.16894362495E+02  0.50587692406E+02  0.59968763043E+02  0.00000000000E+00 0. -1.
         21    1    1    2  504  501 -0.27417484091E+02 -0.16894362495E+02  0.34579811840E+03  0.34729450990E+03  0.00000000000E+00 0. -1.
</event>
<event>
 4    1  0.3069799E+006  0.2363191E+02  0.7546771E-02  0.1484712E+00
         21   -1    0    0  504  501  0.00000000000E+00  0.00000000000E+00  0.87821105669E+00  0.87821105669E+00  0.00000000000E+00 0. -1.
         21   -1    0    0  503  502 -0.00000000000E+00 -0.00000000000E+00 -0.73454845076E+03  0.73454845076E+03  0.00000000000E+00 0. -1.
         21    1    1    2  503  501 -0.12403550313E+02  0.20115148779E+02 -0.50157993118E+03  0.50213633072E+03  0.00000000000E+00 0. -1.
         21    1    1    2  504  502  0.12403550313E+02 -0.20115148779E+02 -0.23209030853E+03  0.23329033110E+03  0.00000000000E+00 0. -1.
</event>
<event>
 4    1  0.3069799E+006  0.2669193E+02  0.7546771E-02  0.1450728E+00
         21   -1    0    0  503  501  0.00000000000E+00  0.00000000000E+00  0.10330786123E+04  0.10330786123E+04  0.00000000000E+00 0. -1.
         21   -1    0    0  504  502 -0.00000000000E+00 -0.00000000000E+00 -0.70201631677E+00  0.70201631677E+00  0.00000000000E+00 0. -1.
         21    1    1    2  503  502 -0.22069138342E+02 -0.15013726846E+02  0.58480180574E+03  0.58541063440E+03  0.00000000000E+00 0. -1.
         21    1    1    2  504  501  0.22069138342E+02  0.15013726846E+02  0.44757479019E+03  0.44836999417E+03  0.00000000000E+00 0. -1.
</event>
<event>
 4    1  0.3069799E+006  0.2990089E+02  0.7546771E-02  0.1420460E+00
         21   -1    0    0  502  501  0.00000000000E+00  0.00000000000E+00  0.64043590431E+01  0.64043590431E+01  0.00000000000E+00 0. -1.
         21   -1    0    0  503  502 -0.00000000000E+00 -0.00000000000E+00 -0.14375318024E+03  0.14375318024E+03  0.00000000000E+00 0. -1.
         21    1    1    2  503  504  0.29066607797E+02 -0.70139620036E+01 -0.81432266892E+02  0.86748357004E+02  0.00000000000E+00 0. -1.
         21    1    1    2  504  501 -0.29066607797E+02  0.70139620036E+01 -0.55916554302E+02  0.63409182275E+02  0.00000000000E+00 0. -1.
</event>
<event>
 4    1  0.3069799E+006  0.3977007E+02  0.7546771E-02  0.1349838E+00
         21   -1    0    0  503  501  0.00000000000E+00  0.00000000000E+00  0.19266686565E+03  0.19266686565E+03  0.00000000000E+00 0.  1.
         21   -1    0    0  504  502 -0.00000000000E+00 -0.00000000000E+00 -0.82420107811E+01  0.82420107811E+01  0.00000000000E+00 0.  1.
         21    1    1    2  503  502  0.39054176488E+02  0.75119864711E+01  0.98541618948E+02  0.10626433695E+03  0.00000000000E+00 0.  1.
         21    1    1    2  504  501 -0.39054176488E+02 -0.75119864711E+01  0.85883235917E+02  0.94644539480E+02  0.00000000000E+00 0.  1.
</event>
<event>
 4    1  0.3069799E+006  0.3539917E+02  0.7546771E-02  0.1377778E+00
         21   -1    0    0  503  501  0.00000000000E+00  0.00000000000E+00  0.54135489261E+03  0.54135489261E+03  0.00000000000E+00 0. -1.
         21   -1    0    0  504  502 -0.00000000000E+00 -0.00000000000E+00 -0.74875289931E+01  0.74875289931E+01  0.00000000000E+00 0. -1.
         21    1    1    2  503  502  0.46293630715E+01 -0.35095163176E+02  0.49502584321E+03  0.49628992225E+03  0.00000000000E+00 0. -1.
         21    1    1    2  504  501 -0.46293630715E+01  0.35095163176E+02  0.38841520409E+02  0.52552499355E+02  0.00000000000E+00 0. -1.
</event>
<event>
 4    1  0.3069799E+006  0.2131357E+02  0.7546771E-02  0.1514835E+00
         21   -1    0    0  504  501  0.00000000000E+00  0.00000000000E+00  0.50547475217E+01  0.50547475217E+01  0.00000000000E+00 0. -1.
         21   -1    0    0  501  502 -0.00000000000E+00 -0.00000000000E+00 -0.10721966788E+03  0.10721966788E+03  0.00000000000E+00 0. -1.
         21    1    1    2  503  502 -0.75145905036E+01 -0.19944904187E+02 -0.73664534455E+02  0.76685930325E+02  0.00000000000E+00 0. -1.
         21    1    1    2  504  503  0.75145905036E+01  0.19944904187E+02 -0.28500385909E+02  0.35588485081E+02  0.00000000000E+00 0. -1.
</event>
<event>
 4    1  0.3069799E+006  0.2425893E+02  0.7546771E-02  0.1477267E+00
         21   -1    0    0  504  501  0.00000000000E+00  0.00000000000E+00  0.11731347764E+03  0.11731347764E+03  0.00000000000E+00 0.  1.
         21   -1    0    0  503  502 -0.00000000000E+00 -0.00000000000E+00 -0.25866649188E+02  0.25866649188E+02  0.00000000000E+00 0.  1.
         21    1    1    2  503  501 -0.77002020222E+01 -0.23004405843E+02 -0.18550964669E+02  0.30539058425E+02  0.00000000000E+00 0.  1.
         21    1    1    2  504  502  0.77002020222E+01  0.23004405843E+02  0.10999779312E+03  0.11264106840E+03  0.00000000000E+00 0.  1.
</event>
<event>
 4    1  0.3069799E+006  0.2045151E+02  0.7546771E-02  0.1527242E+00
         21   -1    0    0  502  501  0.00000000000E+00  0.00000000000E+00  0.13087029987E+03  0.13087029987E+03  0.00000000000E+00 0. -1.
         21   -1    0    0  504  502 -0.00000000000E+00 -0.00000000000E+00 -0.61814059668E+01  0.61814059668E+01  0.00000000000E+00 0. -1.
         21    1    1    2  503  501 -0.20113747198E+02  0.37015232979E+01  0.10996682264E+03  0.11185243038E+03  0.00000000000E+00 0. -1.
         21    1    1    2  504  503  0.20113747198E+02 -0.37015232979E+01  0.14722071262E+02  0.25199275453E+02  0.00000000000E+00 0. -1.
</event>
<event>
 4    1  0.3069799E+006  0.3335807E+02  0.7546771E-02  0.1392489E+00
         21   -1    0    0  503  501  0.00000000000E+00  0.00000000000E+00  0.15745571873E+02  0.15745571873E+02  0.00000000000E+00 0. -1.
         21   -1    0    0  501  502 -0.00000000000E+00 -0.00000000000E+00 -0.13776138696E+03  0.13776138696E+03  0.00000000000E+00 0.  1.
         21    1    1    2  503  504  0.58551903844E+01  0.32840177927E+02 -0.74450927023E+01  0.34178793806E+02  0.00000000000E+00 0. -1.
         21    1    1    2  504  502 -0.58551903844E+01 -0.32840177927E+02 -0.11457072238E+03  0.11932816502E+03  0.00000000000E+00 0.  1.
</event>
<event>
 4    1  0.3069799E+006  0.2174089E+02  0.7546771E-02  0.1508944E+00
         21   -1    0    0  503  501  0.00000000000E+00  0.00000000000E+00  0.52165879664E+02  0.52165879664E+02  0.00000000000E+00 0. -1.
         21   -1    0    0  504  502 -0.00000000000E+00 -0.00000000000E+00 -0.11326073966E+02  0.11326073966E+02  0.00000000000E+00 0. -1.
         21    1    1    2  503  502  0.10666520406E+02  0.18944440327E+02  0.34617208115E+02  0.40878081835E+02  0.00000000000E+00 0. -1.
         21    1    1    2  504  501 -0.10666520406E+02 -0.18944440327E+02  0.62225975828E+01  0.22613871795E+02  0.00000000000E+00 0. -1.
</event>
<event>
 4    1  0.3069799E+006  0.2787030E+02  0.7546771E-02  0.1439056E+00
         21   -1    0    0  504  501  0.00000000000E+00  0.00000000000E+00  0.81990986103E+00  0.81990986103E+00  0.00000000000E+00 0.  1.
         21   -1    0    0  503  502 -0.00000000000E+00 -0.00000000000E+00 -0.13987322783E+04  0.13987322783E+04  0.00000000000E+00 0. -1.
         21    1    1    2  503  501  0.47570539095E+01  0.27461322850E+02 -0.10964742702E+04  0.10968284183E+04  0.00000000000E+00 0. -1.
         21    1    1    2  504  502 -0.47570539095E+01 -0.27461322850E+02 -0.30143809823E+03  0.30272376993E+03  0.00000000000E+00 0.  1.
</event>
<event>
 4    1  0.3069799E+006  0.2061518E+02  0.7546771E-02  0.1524831E+00
         21   -1    0    0  503  501  0.00000000000E+00  0.00000000000E+00  0.80935249607E+01  0.80935249607E+01  0.00000000000E+00 0.  1.
         21   -1    0    0  501  502 -0.00000000000E+00 -0.00000000000E+00 -0.53368577253E+02  0.53368577253E+02  0.00000000000E+00 0.  1.
         21    1    1    2  503  504  0.53764002043E+01  0.19901755631E+02 -0.26536893922E+02  0.33603456599E+02  0.00000000000E+00 0.  1.
         21    1    1    2  504  502 -0.53764002043E+01 -0.19901755631E+02 -0.18738158370E+02  0.27858645615E+02  0.00000000000E+00 0.  1.
</event>
<event>
 4    1  0.3069799E+006  0.2654218E+02  0.7546771E-02  0.1452262E+00
         21   -1    0    0  503  501  0.00000000000E+00  0.00000000000E+00  0.67804418768E+00  0.67804418768E+00  0.00000000000E+00 0. -1.
         21   -1    0    0  504  502 -0.00000000000E+00 -0.00000000000E+00 -0.11961864169E+04  0.11961864169E+04  0.00000000000E+00 0. -1.
         21    1    1    2  503  502 -0.25632710572E+02  0.68884900933E+01 -0.81468667894E+03  0.81511893119E+03  0.00000000000E+00 0. -1.
         21    1    1    2  504  501  0.25632710572E+02 -0.68884900933E+01 -0.38082169382E+03  0.38174552994E+03  0.00000000000E+00 0. -1.
</event>
<event>
 4    1  0.3069799E+006  0.2495509E+02  0.7546771E-02  0.1469306E+00
         21   -1    0    0  504  501  0.00000000000E+00  0.00000000000E+00  0.15672779446E+02  0.15672779446E+02  0.00000000000E+00 0. -1.
         21   -1    0    0  503  502 -0.00000000000E+00 -0.00000000000E+00 -0.56532883203E+02  0.56532883203E+02  0.00000000000E+00 0. -1.
         21    1    1    2  503  501 -0.24917334095E+02 -0.13722597143E+01 -0.75032760342E+00  0.24966369913E+02  0.00000000000E+00 0. -1.
         21    1    1    2  504  502  0.24917334095E+02  0.13722597143E+01 -0.40109776153E+02  0.47239292736E+02  0.00000000000E+00 0. -1.
</event>
<event>
 4    1  0.3069799E+006  0.2722814E+02  0.7546771E-02  0.1445330E+00
         21   -1    0    0  503  501  0.00000000000E+00  0.00000000000E+00  0.12047323082E+02  0.12047323082E+02  0.00000000000E+00 0.  1.
         21   -1    0    0  504  502 -0.00000000000E+00 -0.00000000000E+00 -0.70382212625E+02  0.70382212625E+02  0.00000000000E+00 0.  1.
         21    1    1    2  503  502 -0.20447217032E+02  0.17980077022E+02 -0.43777218000E+02  0.51554017010E+02  0.00000000000E+00 0.  1.
         21    1    1    2  504  501  0.20447217032E+02 -0.17980077022E+02 -0.14557671543E+02  0.30875518697E+02  0.00000000000E+00 0.  1.
</event>
<event>
 4    1  0.3069799E+006  0.3695988E+02  0.7546771E-02  0.1367285E+00
         21   -1    0    0  503  501  0.00000000000E+00  0.00000000000E+00  0.75101948390E+01  0.75101948390E+01  0.00000000000E+00 0.  1.
         21   -1    0    0  504  502 -0.00000000000E+00 -0.00000000000E+00 -0.25362584884E+03  0.25362584884E+03  0.00000000000E+00 0.  1.
         21    1    1    2  503  502 -0.33837278000E+02  0.14868472656E+02 -0.53618297626E+02  0.65122612831E+02  0.00000000000E+00 0.  1.
         21    1    1    2  504  501  0.33837278000E+02 -0.14868472656E+02 -0.19249735637E+03  0.19601343085E+03  0.00000000000E+00 0.  1.
</event>
<event>
 4    1  0.3069799E+006  0.2787519E+02  0.7546771E-02  0.1439009E+00
         21   -1    0    0  504  501  0.00000000000E+00  0.00000000000E+00  0.19877795452E+01  0.19877795452E+01  0.00000000000E+00 0.  1.
         21   -1    0    0  503  502 -0.00000000000E+00 -0.00000000000E+00 -0.94808927372E+03  0.94808927372E+03  0.00000000000E+00 0. -1.
         21    1    1    2  503  501 -0.20429286431E+02  0.18964977670E+02 -0.83722143204E+03  0.83768535405E+03  0.00000000000E+00 0. -1.
         21    1    1    2  504  502  0.20429286431E+02 -0.18964977670E+02 -0.10888006213E+03  0.11239169921E+03  0.00000000000E+00 0.  1.
</event>
<event>
 4    1  0.3069799E+006  0.2612785E+02  0.7546771E-02  0.1456571E+00
         21   -1    0    0  504  501  0.00000000000E+00  0.00000000000E+00  0.27360271441E+01  0.27360271441E+01  0.00000000000E+00 0. -1.
         21   -1    0    0  503  502 -0.00000000000E+00 -0.00000000000E+00 -0.33218040217E+03  0.33218040217E+03  0.00000000000E+00 0. -1.
         21    1    1    2  503  501 -0.10217463358E+02  0.24047204123E+02 -0.24826247507E+03  0.24963357368E+03  0.00000000000E+00 0. -1.
         21    1    1    2  504  502  0.10217463358E+02 -0.24047204123E+02 -0.81181899963E+02  0.85282855634E+02  0.00000000000E+00 0. -1.
</event>
<event>
 4    1  0.3069799E+006  0.2918094E+02  0.7546771E-02  0.1426850E+00
         21   -1    0    0  503  501  0.00000000000E+00  0.00000000000E+00  0.16962097457E+02  0.16962097457E+02  0.00000000000E+00 0.  1.
         21   -1    0    0  504  502 -0.00000000000E+00 -0.00000000000E+00 -0.16174679375E+03  0.16174679375E+03  0.00000000000E+00 0.  1.
         21    1    1    2  503  502  0.15910964776E+02  0.24461575823E+02 -0.14659567964E+03  0.14947180598E+03  0.00000000000E+00 0.  1.
         21    1    1    2  504  501 -0.15910964776E+02 -0.24461575823E+02  0.18109833536E+01  0.29237085227E+02  0.00000000000E+00 0.  1.
</event>
<event>
 4    1  0.3069799E+006  0.4067877E+02  0.7546771E-02  0.1344554E+00
         21   -1    0    0  503  501  0.00000000000E+00  0.00000000000E+00  0.24619925240E+02  0.24619925240E+02  0.00000000000E+00 0.  1.
         21   -1    0    0  504  502 -0.00000000000E+00 -0.00000000000E+00 -0.67302042884E+02  0.67302042884E+02  0.00000000000E+00 0.  1.
         21    1    1    2  503  502 -0.98454358717E+01 -0.39469347266E+02 -0.19662805457E+02  0.45181720856E+02  0.00000000000E+00 0.  1.
         21    1    1    2  504  501  0.98454358717E+01  0.39469347266E+02 -0.23019312187E+02  0.46740247268E+02  0.00000000000E+00 0.  1.
</event>
<event>
 4    1  0.3069799E+006  0.2820603E+02  0.7546771E-02  0.1435855E+00
         21   -1    0    0  502  501  0.00000000000E+00  0.00000000000E+00  0.36447121888E+03  0.36447121888E+03  0.00000000000E+00 0. -1.
         21   -1    0    0  503  502 -0.00000000000E+00 -0.00000000000E+00 -0.38985960554E+01  0.38985960554E+01  0.00000000000E+00 0. -1.
         21    1    1    2  503  504 -0.28191628208E+02  0.90137222904E+00  0.58098361198E+02  0.64583279158E+02  0.00000000000E+00 0. -1.
         21    1    1    2  504  501  0.28191628208E+02 -0.90137222904E+00  0.30247426162E+03  0.30378653577E+03  0.00000000000E+00 0. -1.
</event>
<event>
 4    1  0.3069799E+006  0.2326491E+02  0.7546771E-02  0.1489198E+00
         21   -1    0    0  504  501  0.00000000000E+00  0.00000000000E+00  0.14201133584E+03  0.14201133584E+03  0.00000000000E+00 0. -1.
         21   -1    0    0  503  502 -0.00000000000E+00 -0.00000000000E+00 -0.44024101662E+01  0.44024101662E+01  0.00000000000E+00 0. -1.
         21    1    1    2  503  501  0.15597696468E+02  0.17261746389E+02  0.41980708870E+02  0.47996207566E+02  0.00000000000E+00 0. -1.
         21    1    1    2  504  502 -0.15597696468E+02 -0.17261746389E+02  0.95628216800E+02  0.98417538436E+02  0.00000000000E+00 0. -1.
</event>
<event>
 4    1  0.3069799E+006  0.2300937E+02  0.7546771E-02  0.1492381E+00
         21   -1    0    0  504  501  0.00000000000E+00  0.00000000000E+00  0.60222329459E+02  0.60222329459E+02  0.00000000000E+00 0. -1.
         21   -1    0    0  503  502 -0.00000000000E+00 -0.00000000000E+00 -0.91791916371E+01  0.91791916371E+01  0.00000000000E+00 0. -1.
         21    1    1    2  503  501 -0.37656347922E+01 -0.22699143113E+02  0.32655116596E+02  0.39947312092E+02  0.00000000000E+00 0. -1.
         21    1    1    2  504  502  0.37656347922E+01  0.22699143113E+02  0.18388021226E+02  0.29454209004E+02  0.00000000000E+00 0. -1.
</event>
<event>
 4    1  0.3069799E+006  0.2314356E+02  0.7546771E-02  0.1490703E+00
         21   -1    0    0  502  501  0.00000000000E+00  0.00000000000E+00  0.40806614035E+02  0.40806614035E+02  0.00000000000E+00 0.  1.
         21   -1    0    0  503  502 -0.00000000000E+00 -0.00000000000E+00 -0.39275592242E+02  0.39275592242E+02  0.00000000000E+00 0.  1.
         21    1    1    2  503  504 -0.22570011003E+02  0.51204550512E+01 -0.31906642998E+02  0.39416472750E+02  0.00000000000E+00 0.  1.
         21    1    1    2  504  501  0.22570011003E+02 -0.51204550512E+01  0.33437664791E+02  0.40665733527E+02  0.00000000000E+00 0.  1.
</event>
<event>
 4    1  0.3069799E+006  0.2511298E+02  0.7546771E-02  0.1467543E+00
         21   -1    0    0  503  501  0.00000000000E+00  0.00000000000E+00  0.17031759569E+03  0.17031759569E+03  0.00000000000E+00 0.  1.
         21   -1    0    0  504  502 -0.00000000000E+00 -0.00000000000E+00 -0.33358790851E+02  0.33358790851E+02  0.00000000000E+00 0. -1.
         21    1    1    2  503  502 -0.74603700470E+01  0.23979255120E+02 -0.27540516214E+02  0.37271193040E+02  0.00000000000E+00 0. -1.
         21    1    1    2  504  501  0.74603700470E+01 -0.23979255120E+02  0.16449932105E+03  0.16640519350E+03  0.00000000000E+00 0.  1.
</event>
<event>
 4    1  0.3069799E+006  0.3705689E+02  0.7546771E-02  0.1366652E+00
         21   -1    0    0  504  501  0.00000000000E+00  0.00000000000E+00  0.31997804402E+02  0.31997804402E+02  0.00000000000E+00 0.  1.
         21   -1    0    0  501  502 -0.00000000000E+00 -0.00000000000E+00 -0.55514088604E+02  0.55514088604E+02  0.00000000000E+00 0.  1.
         21    1    1    2  503  502  0.19183805301E+02  0.31704802928E+02 -0.32602591235E+02  0.49357287909E+02  0.00000000000E+00 0.  1.
         21    1    1    2  504  503 -0.19183805301E+02 -0.31704802928E+02  0.90863070331E+01  0.38154605096E+02  0.00000000000E+00 0.  1.
</event>
<event>
 4    1  0.3069799E+006  0.2925881E+02  0.7546771E-02  0.1426149E+00
         21   -1    0    0  504  501  0.00000000000E+00  0.00000000000E+00  0.52577069547E+01  0.52577069547E+01  0.00000000000E+00 0. -1.
         21   -1    0    0  501  502 -0.00000000000E+00 -0.00000000000E+00 -0.29877882222E+03  0.29877882222E+03  0.00000000000E+00 0. -1.
         21    1    1    2  503  502 -0.11626637975E+02  0.26849566740E+02 -0.24930663776E+03  0.25101768379E+03  0.00000000000E+00 0. -1.
         21    1    1    2  504  503  0.11626637975E+02 -0.26849566740E+02 -0.44214477506E+02  0.53018845384E+02  0.00000000000E+00 0. -1.
</event>
<event>
 4    1  0.3069799E+006  0.2032753E+02  0.7546771E-02  0.1529086E+00
         21   -1    0    0  503  501  0.00000000000E+00  0.00000000000E+00  0.13151975451E+02  0.13151975451E+02  0.00000000000E+00 0. -1.
         21   -1    0    0  504  502 -0.00000000000E+00 -0.00000000000E+00 -0.47945953293E+02  0.47945953293E+02  0.00000000000E+00 0. -1.
         21    1    1    2  503  502 -0.18073205529E+02 -0.93041667443E+01 -0.35333193084E+02  0.40763253187E+02  0.00000000000E+00 0. -1.
         21    1    1    2  504  501  0.18073205529E+02  0.93041667443E+01  0.53921524230E+00  0.20334675556E+02  0.00000000000E+00 0. -1.
</event>
<event>
 4    1  0.3069799E+006  0.2441587E+02  0.7546771E-02  0.1475445E+00
         21   -1    0    0  504  501  0.00000000000E+00  0.00000000000E+00  0.21982010667E+02  0.21982010667E+02  0.00000000000E+00 0.  1.
         21   -1    0    0  501  502 -0.00000000000E+00 -0.00000000000E+00 -0.35672164478E+02  0.35672164478E+02  0.00000000000E+00 0.  1.
         21    1    1    2  503  502 -0.24415712042E+02  0.88201228388E-01 -0.20960506648E+02  0.32178837967E+02  0.00000000000E+00 0.  1.
         21    1    1    2  504  503  0.24415712042E+02 -0.88201228388E-01  0.72703528371E+01  0.25475337178E+02  0.00000000000E+00 0.  1.
</event>
<event>
 4    1  0.3069799E+006  0.2249699E+02  0.7546771E-02  0.1498913E+00
         21   -1    0    0  504  501  0.00000000000E+00  0.00000000000E+00  0.23003891198E+03  0.23003891198E+03  0.00000000000E+00 0. -1.
         21   -1    0    0  503  502 -0.00000000000E+00 -0.00000000000E+00 -0.19362097813E+02  0.19362097813E+02  0.00000000000E+00 0. -1.
         21    1    1    2  503  501 -0.18932904172E+02 -0.12151531000E+02  0.22274043552E+03  0.22387366120E+03  0.00000000000E+00 0. -1.
         21    1    1    2  504  502  0.18932904172E+02  0.12151531000E+02 -0.12063621350E+02  0.25527348591E+02  0.00000000000E+00 0. -1.
</event>
<event>
 4    1  0.3069799E+006  0.2123945E+02  0.7546771E-02  0.1515873E+00
         21   -1    0    0  503  501  0.00000000000E+00  0.00000000000E+00  0.21777244294E+02  0.21777244294E+02  0.00000000000E+00 0. -1.
         21   -1    0    0  501  502 -0.00000000000E+00 -0.00000000000E+00 -0.33338769093E+02  0.33338769093E+02  0.00000000000E+00 0. -1.
         21    1    1    2  503  504 -0.12518731474E+02  0.17157961876E+02  0.11177001565E+02  0.24000826183E+02  0.00000000000E+00 0. -1.
         21    1    1    2  504  502  0.12518731474E+02 -0.17157961876E+02 -0.22738526365E+02  0.31115187204E+02  0.00000000000E+00 0. -1.
</event>
<event>
 4    1  0.3069799E+006  0.2722643E+02  0.7546771E-02  0.1445347E+00
         21   -1    0    0  503  501  0.00000000000E+00  0.00000000000E+00  0.41129339726E+02  0.41129339726E+02  0.00000000000E+00 0.  1.
         21   -1    0    0  501  502 -0.00000000000E+00 -0.00000000000E+00 -0.33234913265E+02  0.33234913265E+02  0.00000000000E+00 0.  1.
         21    1    1    2  503  504  0.25348141631E+02  0.99373096826E+01  0.29102389839E+02  0.39852572091E+02  0.00000000000E+00 0.  1.
         21    1    1    2  504  502 -0.25348141631E+02 -0.99373096826E+01 -0.21207963378E+02  0.34511680900E+02  0.00000000000E+00 0.  1.
</event>
<event>
 4    1  0.3069799E+006  0.3606233E+02  0.7546771E-02  0.1373245E+00
         21   -1    0    0  504  501  0.00000000000E+00  0.00000000000E+00  0.44298598646E+02  0.44298598646E+02  0.00000000000E+00 0.  1.
         21   -1    0    0  503  502 -0.00000000000E+00 -0.00000000000E+00 -0.60301389267E+02  0.60301389267E+02  0.00000000000E+00 0.  1.
         21    1    1    2  503  501  0.29218947567E+02 -0.21136337629E+02  0.29463638853E+02  0.46568204601E+02  0.00000000000E+00 0.  1.
         21    1    1    2  504  502 -0.29218947567E+02  0.21136337629E+02 -0.45466429474E+02  0.58031783312E+02  0.00000000000E+00 0.  1.
</event>
<event>
 4    1  0.3069799E+006  0.3209598E+02  0.7546771E-02  0.1402216E+00
         21   -1    0    0  503  501  0.00000000000E+00  0.00000000000E+00  0.35300998447E+03  0.35300998447E+03  0.00000000000E+00 0.  1.
         21   -1    0    0  504  502 -0.00000000000E+00 -0.00000000000E+00 -0.30101019296E+01  0.30101019296E+01  0.00000000000E+00 0.  1.
         21    1    1    2  503  502 -0.30748156533E+02 -0.92034086212E+01  0.20610483899E+03  0.20858896547E+03  0.00000000000E+00 0.  1.
         21    1    1    2  504  501  0.30748156533E+02  0.92034086212E+01  0.14389504354E+03  0.14743112092E+03  0.00000000000E+00 0.  1.
</event>
<event>
 4    1  0.3069799E+006  0.2825077E+02  0.7546771E-02  0.1435433E+00
         21   -1    0    0  504  501  0.00000000000E+00  0.00000000000E+00  0.57239953441E+03  0.57239953441E+03  0.00000000000E+00 0.  1.
         21   -1    0    0  501  502 -0.00000000000E+00 -0.00000000000E+00 -0.24850016514E+02  0.24850016514E+02  0.00000000000E+00 0. -1.
         21    1    1    2  503  502  0.20939487916E+02 -0.18964276897E+02 -0.16351272398E+02  0.32641538895E+02  0.00000000000E+00 0. -1.
         21    1    1    2  504  503 -0.20939487916E+02  0.18964276897E+02  0.56390079030E+03  0.56460801203E+03  0.00000000000E+00 0.  1.
</event>
<event>
 4    1  0.3069799E+006  0.3334270E+02  0.7546771E-02  0.1392604E+00
         21   -1    0    0  504  501  0.00000000000E+00  0.00000000000E+00  0.87563633635E+02  0.87563633635E+02  0.00000000000E+00 0.  1.
         21   -1    0    0  503  502 -0.00000000000E+00 -0.00000000000E+00 -0.14770657037E+02  0.14770657037E+02  0.00000000000E+00 0.  1.
         21    1    1    2  503  501  0.20720907764E+02  0.26122396166E+02  0.17221667414E+02  0.37527608884E+02  0.00000000000E+00 0.  1.
         21    1    1    2  504  502 -0.20720907764E+02 -0.26122396166E+02  0.55571309184E+02  0.64806681789E+02  0.00000000000E+00 0.  1.
</event>
<event>
 4    1  0.3069799E+006  0.2191951E+02  0.7546771E-02  0.1506531E+00
         21   -1    0    0  503  501  0.00000000000E+00  0.00000000000E+00  0.18699378466E+03  0.18699378466E+03  0.00000000000E+00 0.  1.
         21   -1    0    0  501  502 -0.00000000000E+00 -0.00000000000E+00 -0.25694385410E+01  0.25694385410E+01  0.00000000000E+00 0.  1.
         21    1    1    2  503  504 -0.21453401142E+02 -0.44962530671E+01  0.91927802358E+02  0.94504949916E+02  0.00000000000E+00 0.  1.
         21    1    1    2  504  502  0.21453401142E+02  0.44962530671E+01  0.92496543762E+02  0.95058273286E+02  0.00000000000E+00 0.  1.
</event>
<event>
 4    1  0.3069799E+006  0.3495726E+02  0.7546771E-02  0.1380864E+00
         21   -1    0    0  504  501  0.00000000000E+00  0.00000000000E+00  0.33166267877E+01  0.33166267877E+01  0.00000000000E+00 0.  1.
         21   -1    0    0  503  502 -0.00000000000E+00 -0.00000000000E+00 -0.36906128727E+03  0.36906128727E+03  0.00000000000E+00 0.  1.
         21    1    1    2  503  501  0.15566014204E+02 -0.31300303939E+02 -0.19045231191E+03  0.19363391474E+03  0.00000000000E+00 0.  1.
         21    1    1    2  504  502 -0.15566014204E+02  0.31300303939E+02 -0.17529234857E+03  0.17874399932E+03  0.00000000000E+00 0.  1.
</event>
<event>
 4    1  0.3069799E+006  0.2012109E+02  0.7546771E-02  0.1532193E+00
         21   -1    0    0  502  501  0.00000000000E+00  0.00000000000E+00  0.85284890276E+03  0.85284890276E+03  0.00000000000E+00 0. -1.
         21   -1    0    0  504  502 -0.00000000000E+00 -0.00000000000E+00 -0.16422725698E+01  0.16422725698E+01  0.00000000000E+00 0. -1.
         21    1    1    2  503  501  0.14656165909E+02 -0.13786044880E+02  0.78584547720E+03  0.78610302904E+03  0.00000000000E+00 0. -1.
         21    1    1    2  504  503 -0.14656165909E+02  0.13786044880E+02  0.65361152993E+02  0.68388146291E+02  0.00000000000E+00 0. -1.
</event>
<event>
 4    1  0.3069799E+006  0.2657310E+02  0.7546771E-02  0.1451944E+00
         21   -1    0    0  502  501  0.00000000000E+00  0.00000000000E+00  0.12762236388E+02  0.12762236388E+02  0.00000000000E+00 0. -1.
         21   -1    0    0  503  502 -0.00000000000E+00 -0.00000000000E+00 -0.87316511301E+02  0.87316511301E+02  0.00000000000E+00 0. -1.
         21    1    1    2  503  504 -0.23136024760E+02 -0.13071110116E+02 -0.67563684645E+02  0.72601522327E+02  0.00000000000E+00 0. -1.
         21    1    1    2  504  501  0.23136024760E+02  0.13071110116E+02 -0.69905902675E+01  0.27477225363E+02  0.00000000000E+00 0. -1.
</event>
<event>
 4    1  0.3069799E+006  0.2482335E+02  0.7546771E-02  0.1470789E+00
         21   -1    0    0  504  501  0.00000000000E+00  0.00000000000E+00  0.91561280085E+02  0.91561280085E+02  0.00000000000E+00 0.  1.
         21   -1    0    0  503  502 -0.00000000000E+00 -0.00000000000E+00 -0.13206975253E+02  0.13206975253E+02  0.00000000000E+00 0.  1.
         21    1    1    2  503  501 -0.10033106707E+02  0.22705410130E+02  0.75862047247E+02  0.79820104560E+02  0.00000000000E+00 0.  1.
         21    1    1    2  504  502  0.10033106707E+02 -0.22705410130E+02  0.24922575856E+01  0.24948150778E+02  0.00000000000E+00 0.  1.
</event>
<event>
 4    1  0.3069799E+006  0.3948199E+02  0.7546771E-02  0.1351548E+00
         21   -1    0    0  502  501  0.00000000000E+00  0.00000000000E+00  0.99426103847E+01  0.99426103847E+01  0.00000000000E+00 0.  1.
         21   -1    0    0  503  502 -0.00000000000E+00 -0.00000000000E+00 -0.30670372685E+03  0.30670372685E+03  0.00000000000E+00 0.  1.
         21    1    1    2  503  504 -0.61095969703E+01 -0.39006413674E+02 -0.25907262220E+03  0.26206383012E+03  0.00000000000E+00 0.  1.
         21    1    1    2  504  501  0.61095969703E+01  0.39006413674E+02 -0.37688494259E+02  0.54582507109E+02  0.00000000000E+00 0.  1.
</event>
<event>
 4    1  0.3069799E+006  0.2223833E+02  0.7546771E-02  0.1502291E+00
         21   -1    0    0  504  501  0.00000000000E+00  0.00000000000E+00  0.18568972938E+02  0.18568972938E+02  0.00000000000E+00 0. -1.
         21   -1    0    0  503  502 -0.00000000000E+00 -0.00000000000E+00 -0.99421814557E+02  0.99421814557E+02  0.00000000000E+00 0. -1.
         21    1    1    2  503  501 -0.96345296156E+00 -0.22217448757E+02  0.10052522730E+02  0.24404845505E+02  0.00000000000E+00 0. -1.
         21    1    1    2  504  502  0.96345296156E+00  0.22217448757E+02 -0.90905364349E+02  0.93585941990E+02  0.00000000000E+00 0. -1.
</event>
<event>
 4    1  0.3069799E+006  0.2228470E+02  0.7546771E-02  0.1501681E+00
         21   -1    0    0  503  501  0.00000000000E+00  0.00000000000E+00  0.10119994770E+02  0.10119994770E+02  0.00000000000E+00 0. -1.
         21   -1    0    0  501  502 -0.00000000000E+00 -0.00000000000E+00 -0.77590064094E+02  0.77590064094E+02  0.00000000000E+00 0.  1.
         21    1    1    2  503  504 -0.20167011771E+02  0.94815369047E+01 -0.71475819108E+01  0.23402902235E+02  0.00000000000E+00 0. -1.
         21    1    1    2  504  502  0.20167011771E+02 -0.94815369047E+01 -0.60322487413E+02  0.64307156628E+02  0.00000000000E+00 0.  1.
</event>
<event>
 4    1  0.3069799E+006  0.2073861E+02  0.7546771E-02  0.1523030E+00
         21   -1    0    0  504  501  0.00000000000E+00  0.00000000000E+00  0.53242718150E+03  0.53242718150E+03  0.00000000000E+00 0. -1.
         21   -1    0    0  501  502 -0.00000000000E+00 -0.00000000000E+00 -0.81663616353E+02  0.81663616353E+02  0.00000000000E+00 0.  1.
         21    1    1    2  503  502  0.20732349526E+02 -0.50946008989E+00 -0.80141243738E+02  0.82781089714E+02  0.00000000000E+00 0.  1.
         21    1    1    2  504  503 -0.20732349526E+02  0.50946008989E+00  0.53090480888E+03  0.53130970814E+03  0.00000000000E+00 0. -1.
</event>
<event>
 4    1  0.3069799E+006  0.2892028E+02  0.7546771E-02  0.1429217E+00
         21   -1    0    0  504  501  0.00000000000E+00  0.00000000000E+00  0.46724807035E+01  0.46724807035E+01  0.00000000000E+00 0. -1.
         21   -1    0    0  503  502 -0.00000000000E+00 -0.00000000000E+00 -0.20597784516E+03  0.20597784516E+03  0.00000000000E+00 0. -1.
         21    1    1    2  503  501  0.22613952075E+02  0.18027530873E+02 -0.62536393467E+02  0.68899805557E+02  0.00000000000E+00 0. -1.
         21    1    1    2  504  502 -0.22613952075E+02 -0.18027530873E+02 -0.13876897099E+03  0.14175052031E+03  0.00000000000E+00 0. -1.
</event>
<event>
 4    1  0.3069799E+006  0.2445247E+02  0.7546771E-02  0.1475023E+00
         21   -1    0    0  502  501  0.00000000000E+00  0.00000000000E+00  0.13951919440E+02  0.13951919440E+02  0.00000000000E+00 0.  1.
         21   -1    0    0  503  502 -0.00000000000E+00 -0.00000000000E+00 -0.95947255968E+02  0.95947255968E+02  0.00000000000E+00 0.  1.
         21    1    1    2  503  504 -0.23952841426E+02  0.49178055742E+01 -0.81872847400E+02  0.85446395860E+02  0.00000000000E+00 0.  1.
         21    1    1    2  504  501  0.23952841426E+02 -0.49178055742E+01 -0.12248912783E+00  0.24452779548E+02  0.00000000000E+00 0.  1.
</event>
<event>
 4    1  0.3069799E+006  0.2333722E+02  0.7546771E-02  0.1488306E+00
         21   -1    0    0  503  501  0.00000000000E+00  0.00000000000E+00  0.93028900639E+02  0.93028900639E+02  0.00000000000E+00 0. -1.
         21   -1    0    0  501  502 -0.00000000000E+00 -0.00000000000E+00 -0.38759920374E+02  0.38759920374E+02  0.00000000000E+00 0. -1.
         21    1    1    2  503  504  0.10236385828E+02  0.20972417849E+02  0.87848888703E+02  0.90895836822E+02  0.00000000000E+00 0. -1.
         21    1    1    2  504  502 -0.10236385828E+02 -0.20972417849E+02 -0.33579908438E+02  0.40892984190E+02  0.00000000000E+00 0. -1.
</event>
<event>
 4    1  0.3069799E+006  0.3482026E+02  0.7546771E-02  0.1381831E+00
         21   -1    0    0  503  501  0.00000000000E+00  0.00000000000E+00  0.51418040276E+02  0.51418040276E+02  0.00000000000E+00 0.  1.
         21   -1    0    0  501  502 -0.00000000000E+00 -0.00000000000E+00 -0.62125719255E+02  0.62125719255E+02  0.00000000000E+00 0. -1.
         21    1    1    2  503  504  0.24267916176E+01  0.34735586486E+02  0.39364351187E+02  0.52554756497E+02  0.00000000000E+00 0.  1.
         21    1    1    2  504  502 -0.24267916176E+01 -0.34735586486E+02 -0.50072030166E+02  0.60989003034E+02  0.00000000000E+00 0. -1.
</event>
<event>
 4    1  0.3069799E+006  0.2056832E+02  0.7546771E-02  0.1525518E+00
         21   -1    0    0  502  501  0.00000000000E+00  0.00000000000E+00  0.44847591634E+01  0.44847591634E+01  0.00000000000E+00 0. -1.
         21   -1    0    0  504  502 -0.00000000000E+00 -0.00000000000E+00 -0.80386989480E+03  0.80386989480E+03  0.00000000000E+00 0.  1.
         21    1    1    2  503  501  0.17093574006E+02  0.11439647623E+02 -0.19969574075E+02  0.28667746664E+02  0.00000000000E+00 0. -1.
         21    1    1    2  504  503 -0.17093574006E+02 -0.11439647623E+02 -0.77941556156E+03  0.77968690730E+03  0.00000000000E+00 0.  1.
</event>
<event>
 4    1  0.3069799E+006  0.2042596E+02  0.7546771E-02  0.1527621E+00
         21   -1    0    0  502  501  0.00000000000E+00  0.00000000000E+00  0.61566892910E+02  0.61566892910E+02  0.00000000000E+00 0.  1.
         21   -1    0    0  504  502 -0.00000000000E+00 -0.00000000000E+00 -0.68109894563E+01  0.68109894563E+01  0.00000000000E+00 0.  1.
         21    1    1    2  503  501 -0.19562474668E+02  0.58761601073E+01  0.29804181080E+02  0.36131826450E+02  0.00000000000E+00 0.  1.
         21    1    1    2  504  503  0.19562474668E+02 -0.58761601073E+01  0.24951722373E+02  0.32246055916E+02  0.00000000000E+00 0.  1.
</event>
<event>
 4    1  0.3069799E+006  0.2435863E+02  0.7546771E-02  0.1476108E+00
         21   -1    0    0  502  501  0.00000000000E+00  0.00000000000E+00  0.25671273568E+01  0.25671273568E+01  0.00000000000E+00 0. -1.
         21   -1    0    0  503  502 -0.00000000000E+00 -0.00000000000E+00 -0.47479898989E+03  0.47479898989E+03  0.00000000000E+00 0. -1.
         21    1    1    2  503  504 -0.35265733153E+01  0.24101994944E+02 -0.40710403022E+03  0.40783211534E+03  0.00000000000E+00 0. -1.
         21    1    1    2  504  501  0.35265733153E+01 -0.24101994944E+02 -0.65127832313E+02  0.69534001908E+02  0.00000000000E+00 0. -1.
</event>
<event>
 4    1  0.3069799E+006  0.2026094E+02  0.7546771E-02  0.1530083E+00
         21   -1    0    0  504  501  0.00000000000E+00  0.00000000000E+00  0.26560822810E+01  0.26560822810E+01  0.00000000000E+00 0.  1.
         21   -1    0    0  501  502 -0.00000000000E+00 -0.00000000000E+00 -0.20670478844E+03  0.20670478844E+03  0.00000000000E+00 0.  1.
         21    1    1    2  503  502 -0.10144895088E+02  0.17538152656E+02 -0.15460483051E+03  0.15592677548E+03  0.00000000000E+00 0.  1.
         21    1    1    2  504  503  0.10144895088E+02 -0.17538152656E+02 -0.49443875650E+02  0.53434095241E+02  0.00000000000E+00 0.  1.
</event>
<event>
 4    1  0.3069799E+006  0.2764448E+02  0.7546771E-02  0.1441239E+00
         21   -1    0    0  504  501  0.00000000000E+00  0.00000000000E+00  0.14480306164E+02  0.14480306164E+02  0.00000000000E+00 0.  1.
         21   -1    0    0  503  502 -0.00000000000E+00 -0.00000000000E+00 -0.26520674253E+03  0.26520674253E+03  0.00000000000E+00 0. -1.
         21    1    1    2  503  501 -0.27594069524E+02  0.16686567916E+01 -0.25052117057E+03  0.25204181000E+03  0.00000000000E+00 0. -1.
         21    1    1    2  504  502  0.27594069524E+02 -0.16686567916E+01 -0.20526580396E+00  0.27645238694E+02  0.00000000000E+00 0.  1.
</event>
<event>
 4    1  0.3069799E+006  0.3498767E+02  0.7546771E-02  0.1380650E+00
         21   -1    0    0  502  501  0.00000000000E+00  0.00000000000E+00  0.45023680112E+03  0.45023680112E+03  0.00000000000E+00 0. -1.
         21   -1    0    0  503  502 -0.00000000000E+00 -0.00000000000E+00 -0.49893507513E+01  0.49893507513E+01  0.00000000000E+00 0. -1.
         21    1    1    2  503  504  0.34473460866E+02 -0.59764142396E+01  0.69079410279E+02  0.77434501068E+02  0.00000000000E+00 0. -1.
         21    1    1    2  504  501 -0.34473460866E+02  0.59764142396E+01  0.37616804009E+03  0.37779165080E+03  0.00000000000E+00 0. -1.
</event>
<event>
 4    1  0.3069799E+006  0.2488331E+02  0.7546771E-02  0.1470113E+00
         21   -1    0    0  502  501  0.00000000000E+00  0.00000000000E+00  0.18836265585E+03  0.18836265585E+03  0.00000000000E+00 0. -1.
         21   -1    0    0  503  502 -0.00000000000E+00 -0.00000000000E+00 -0.16074950476E+02  0.16074950476E+02  0.00000000000E+00 0.  1.
         21    1    1    2  503  504 -0.24517300291E+02 -0.42521706641E+01 -0.50265043136E+01  0.25385915672E+02  0.00000000000E+00 0.  1.
         21    1    1    2  504  501  0.24517300291E+02  0.42521706641E+01  0.17731420969E+03  0.17905169066E+03  0.00000000000E+00 0. -1.
</event>
<event>
 4    1  0.3069799E+006  0.2644537E+02  0.7546771E-02  0.1453260E+00
         21   -1    0    0  502  501  0.00000000000E+00  0.00000000000E+00  0.37310875686E+02  0.37310875686E+02  0.00000000000E+00 0.  1.
         21   -1    0    0  504  502 -0.00000000000E+00 -0.00000000000E+00 -0.51149527317E+02  0.51149527317E+02  0.00000000000E+00 0.  1.
         21    1    1    2  503  501 -0.11518678143E+02 -0.23804991405E+02  0.28285905449E+02  0.38722732459E+02  0.00000000000E+00 0.  1.
         21    1    1    2  504  503  0.11518678143E+02  0.23804991405E+02 -0.42124557080E+02  0.49737670544E+02  0.00000000000E+00 0.  1.
</event>
<event>
 4    1  0.3069799E+006  0.2805492E+02  0.7546771E-02  0.1437290E+00
         21   -1    0    0  502  501  0.00000000000E+00  0.00000000000E+00  0.44759304660E+03  0.44759304660E+03  0.00000000000E+00 0.  1.
         21   -1    0    0  503  502 -0.00000000000E+00 -0.00000000000E+00 -0.13455775476E+02  0.13455775476E+02  0.00000000000E+00 0.  1.
         21    1    1    2  503  504  0.49348704910E+00 -0.28050583094E+02  0.21344582208E+01  0.28136002795E+02  0.00000000000E+00 0.  1.
         21    1    1    2  504  501 -0.49348704910E+00  0.28050583094E+02  0.43200281290E+03  0.43291281928E+03  0.00000000000E+00 0.  1.
</event>
<event>
 4    1  0.3069799E+006  0.5475086E+02  0.7546771E-02  0.1278792E+00
         21   -1    0    0  503  501  0.00000000000E+00  0.00000000000E+00  0.10564812765E+02  0.10564812765E+02  0.00000000000E+00 0. -1.
         21   -1    0    0  504  502 -0.00000000000E+00 -0.00000000000E+00 -0.29086604033E+03  0.29086604033E+03  0.00000000000E+00 0. -1.
         21    1    1    2  503  502 -0.54632401844E+02 -0.35996437638E+01 -0.16374151797E+03  0.17265266135E+03  0.00000000000E+00 0. -1.
         21    1    1    2  504  501  0.54632401844E+02  0.35996437638E+01 -0.11655970960E+03  0.12877819174E+03  0.00000000000E+00 0. -1.
</event>
<event>
 4    1  0.3069799E+006  0.2273011E+02  0.7546771E-02  0.1495915E+00
         21   -1    0    0  504  501  0.00000000000E+00  0.00000000000E+00  0.86117322815E+03  0.86117322815E+03  0.00000000000E+00 0. -1.
         21   -1    0    0  501  502 -0.00000000000E+00 -0.00000000000E+00 -0.18780643484E+01  0.18780643484E+01  0.00000000000E+00 0. -1.
         21    1    1    2  503  502  0.20390225544E+02 -0.10044726464E+02  0.73658372160E+02  0.77085754953E+02  0.00000000000E+00 0. -1.
         21    1    1    2  504  503 -0.20390225544E+02  0.10044726464E+02  0.78563679164E+03  0.78596553754E+03  0.00000000000E+00 0. -1.
</event>
<event>
 4    1  0.3069799E+006  0.2538461E+02  0.7546771E-02  0.1464546E+00
         21   -1    0    0  503  501  0.00000000000E+00  0.00000000000E+00  0.12461019384E+02  0.12461019384E+02  0.00000000000E+00 0. -1.
         21   -1    0    0  504  502 -0.00000000000E+00 -0.00000000000E+00 -0.56819347576E+02  0.56819347576E+02  0.00000000000E+00 0.  1.
         21    1    1    2  503  502 -0.25116948272E+02 -0.36765950236E+01 -0.11793135020E+02  0.27990292515E+02  0.00000000000E+00 0.  1.
         21    1    1    2  504  501  0.25116948272E+02  0.36765950236E+01 -0.32565193172E+02  0.41290074446E+02  0.00000000000E+00 0. -1.
</event>
<event>
 4    1  0.3069799E+006  0.2914703E+02  0.7546771E-02  0.1427156E+00
         21   -1    0    0  503  501  0.00000000000E+00  0.00000000000E+00  0.88235650868E+02  0.88235650868E+02  0.00000000000E+00 0.  1.
         21   -1    0    0  504  502 -0.00000000000E+00 -0.00000000000E+00 -0.42870756458E+02  0.42870756458E+02  0.00000000000E+00 0.  1.
         21    1    1    2  503  502 -0.24214262929E+02  0.16224014847E+02  0.80407009954E+02  0.85526817062E+02  0.00000000000E+00 0.  1.
         21    1    1    2  504  501  0.24214262929E+02 -0.16224014847E+02 -0.35042115543E+02  0.45579590265E+02  0.00000000000E+00 0.  1.
</event>
<event>
 4    1  0.3069799E+006  0.3955352E+02  0.7546771E-02  0.1351122E+00
         21   -1    0    0  502  501  0.00000000000E+00  0.00000000000E+00  0.18481110797E+02  0.18481110797E+02  0.00000000000E+00 0.  1.
         21   -1    0    0  504  502 -0.00000000000E+00 -0.00000000000E+00 -0.86794074349E+02  0.86794074349E+02  0.00000000000E+00 0. -1.
         21    1    1    2  503  501  0.38254941780E+02 -0.10051881757E+02 -0.25889061617E+02  0.47272871806E+02  0.00000000000E+00 0.  1.
         21    1    1    2  504  503 -0.38254941780E+02  0.10051881757E+02 -0.42423901934E+02  0.58002313340E+02  0.00000000000E+00 0. -1.
</event>
<event>
 4    1  0.3069799E+006  0.7772941E+02  0.7546771E-02  0.1209219E+00
         21   -1    0    0  504  501  0.00000000000E+00  0.00000000000E+00  0.12982786226E+03  0.12982786226E+03  0.00000000000E+00 0.  1.
         21   -1    0    0  503  502 -0.00000000000E+00 -0.00000000000E+00 -0.86438221952E+03  0.86438221952E+03  0.00000000000E+00 0.  1.
         21    1    1    2  503  501  0.71629185359E+02  0.30184790034E+02 -0.85081526410E+03  0.85435851688E+03  0.00000000000E+00 0.  1.
         21    1    1    2  504  502 -0.71629185359E+02 -0.30184790034E+02  0.11626090684E+03  0.13985156489E+03  0.00000000000E+00 0.  1.
</event>
<event>
 4    1  0.3069799E+006  0.3671051E+02  0.7546771E-02  0.1368921E+00
         21   -1    0    0  503  501  0.00000000000E+00  0.00000000000E+00  0.11361343717E+03  0.11361343717E+03  0.00000000000E+00 0.  1.
         21   -1    0    0  504  502 -0.00000000000E+00 -0.00000000000E+00 -0.35573713663E+02  0.35573713663E+02  0.00000000000E+00 0. -1.
         21    1    1    2  503  502 -0.35275706420E+02  0.10162961281E+02 -0.21880519755E+02  0.42736616504E+02  0.00000000000E+00 0. -1.
         21    1    1    2  504  501  0.35275706420E+02 -0.10162961281E+02  0.99920243264E+02  0.10645053433E+03  0.00000000000E+00 0.  1.
</event>
<event>
 4    1  0.3069799E+006  0.2113820E+02  0.7546771E-02  0.1517301E+00
         21   -1    0    0  502  501  0.00000000000E+00  0.00000000000E+00  0.18219262272E+02  0.18219262272E+02  0.00000000000E+00 0.  1.
         21   -1    0    0  504  502 -0.00000000000E+00 -0.00000000000E+00 -0.16725157631E+03  0.16725157631E+03  0.00000000000E+00 0. -1.
         21    1    1    2  503  501  0.19211230518E+02 -0.88177166762E+01  0.11150788056E+02  0.23899028844E+02  0.00000000000E+00 0.  1.
         21    1    1    2  504  503 -0.19211230518E+02  0.88177166762E+01 -0.16018310210E+03  0.16157180974E+03  0.00000000000E+00 0. -1.
</event>
<event>
 4    1  0.3069799E+006  0.3559430E+02  0.7546771E-02  0.1376433E+00
         21   -1    0    0  503  501  0.00000000000E+00  0.00000000000E+00  0.29880237275E+02  0.29880237275E+02  0.00000000000E+00 0.  1.
         21   -1    0    0  504  502 -0.00000000000E+00 -0.00000000000E+00 -0.48845360475E+02  0.48845360475E+02  0.00000000000E+00 0.  1.
         21    1    1    2  503  502 -0.18323026600E+02  0.30515917818E+02 -0.23780100555E+02  0.42807099020E+02  0.00000000000E+00 0.  1.
         21    1    1    2  504  501  0.18323026600E+02 -0.30515917818E+02  0.48149773561E+01  0.35918498730E+02  0.00000000000E+00 0.  1.
</event>
<event>
 4    1  0.3069799E+006  0.2295760E+02  0.7546771E-02  0.1493031E+00
         21   -1    0    0  502  501  0.00000000000E+00  0.00000000000E+00  0.71834765768E+01  0.71834765768E+01  0.00000000000E+00 0. -1.
         21   -1    0    0  504  502 -0.00000000000E+00 -0.00000000000E+00 -0.13686799864E+03  0.13686799864E+03  0.00000000000E+00 0. -1.
         21    1    1    2  503  501 -0.20338860148E+02 -0.10648096752E+02 -0.15783451744E+02  0.27859801606E+02  0.00000000000E+00 0. -1.
         21    1    1    2  504  503  0.20338860148E+02  0.10648096752E+02 -0.11390107032E+03  0.11619167361E+03  0.00000000000E+00 0. -1.
</event>
<event>
 4    1  0.3069799E+006  0.2760723E+02  0.7546771E-02  0.1441602E+00
         21   -1    0    0  504  501  0.00000000000E+00  0.00000000000E+00  0.43442260409E+02  0.43442260409E+02  0.00000000000E+00 0. -1.
         21   -1    0    0  503  502 -0.00000000000E+00 -0.00000000000E+00 -0.20663303055E+02  0.20663303055E+02  0.00000000000E+00 0. -1.
         21    1    1    2  503  501 -0.96165374752E+01 -0.25878203904E+02 -0.10637360452E+01  0.27627717327E+02  0.00000000000E+00 0. -1.
         21    1    1    2  504  502  0.96165374752E+01  0.25878203904E+02  0.23842693399E+02  0.36477846138E+02  0.00000000000E+00 0. -1.
</event>
<event>
 4    1  0.3069799E+006  0.2917883E+02  0.7546771E-02  0.1426869E+00
         21   -1    0    0  502  501  0.00000000000E+00  0.00000000000E+00  0.43033995248E+02  0.43033995248E+02  0.00000000000E+00 0. -1.
         21   -1    0    0  504  502 -0.00000000000E+00 -0.00000000000E+00 -0.25795725568E+03  0.25795725568E+03  0.00000000000E+00 0.  1.
         21    1    1    2  503  501 -0.29178829323E+02  0.10454682825E-01  0.37147622892E+02  0.47237168379E+02  0.00000000000E+00 0. -1.
         21    1    1    2  504  503  0.29178829323E+02 -0.10454682825E-01 -0.25207088332E+03  0.25375408254E+03  0.00000000000E+00 0.  1.
</event>
<event>
 4    1  0.3069799E+006  0.3349472E+02  0.7546771E-02  0.1391466E+00
         21   -1    0    0  503  501  0.00000000000E+00  0.00000000000E+00  0.56223125426E+02  0.56223125426E+02  0.00000000000E+00 0.  1.
         21   -1    0    0  504  502 -0.00000000000E+00 -0.00000000000E+00 -0.21793991100E+03  0.21793991100E+03  0.00000000000E+00 0.  1.
         21    1    1    2  503  502 -0.41798059224E+01 -0.33232899573E+02  0.49796979340E+02  0.60013627977E+02  0.00000000000E+00 0.  1.
         21    1    1    2  504  501  0.41798059224E+01  0.33232899573E+02 -0.21151376491E+03  0.21414940845E+03  0.00000000000E+00 0.  1.
</event>
<event>
 4    1  0.3069799E+006  0.2843538E+02  0.7546771E-02  0.1433699E+00
         21   -1    0    0  502  501  0.00000000000E+00  0.00000000000E+00  0.29293958957E+01  0.29293958957E+01  0.00000000000E+00 0.  1.
         21   -1    0    0  503  502 -0.00000000000E+00 -0.00000000000E+00 -0.20255526372E+04  0.20255526372E+04  0.00000000000E+00 0. -1.
         21    1    1    2  503  504 -0.29350792242E+01 -0.28283495735E+02 -0.19539182092E+04  0.19541251084E+04  0.00000000000E+00 0. -1.
         21    1    1    2  504  501  0.29350792242E+01  0.28283495735E+02 -0.68705032025E+02  0.74356924672E+02  0.00000000000E+00 0.  1.
</event>
<event>
 4    1  0.3069799E+006  0.2520885E+02  0.7546771E-02  0.1466480E+00
         21   -1    0    0  503  501  0.00000000000E+00  0.00000000000E+00  0.49428889630E+02  0.49428889630E+02  0.00000000000E+00 0.  1.
         21   -1    0    0  504  502 -0.00000000000E+00 -0.00000000000E+00 -0.20792962186E+02  0.20792962186E+02  0.00000000000E+00 0.  1.
         21    1    1    2  503  502 -0.24373761830E+02 -0.64347270402E+01 -0.73738397898E+01  0.26265176395E+02  0.00000000000E+00 0.  1.
         21    1    1    2  504  501  0.24373761830E+02  0.64347270402E+01  0.36009767234E+02  0.43956675421E+02  0.00000000000E+00 0.  1.
</event>
<event>
 4    1  0.3069799E+006  0.2000920E+02  0.7546771E-02  0.1533895E+00
         21   -1    0    0  504  501  0.00000000000E+00  0.00000000000E+00  0.10943212667E+03  0.10943212667E+03  0.00000000000E+00 0.  1.
         21   -1    0    0  501  502 -0.00000000000E+00 -0.00000000000E+00 -0.32962244837E+02  0.32962244837E+02  0.00000000000E+00 0. -1.
         21    1    1    2  503  502  0.19002435071E+02  0.62670130308E+01 -0.28894848403E+02  0.35146553959E+02  0.00000000000E+00 0. -1.
         21    1    1    2  504  503 -0.19002435071E+02 -0.62670130308E+01  0.10536473023E+03  0.10724781754E+03  0.00000000000E+00 0.  1.
</event>
<event>
 4    1  0.3069799E+006  0.2396845E+02  0.7546771E-02  0.1480683E+00
         21   -1    0    0  503  501  0.00000000000E+00  0.00000000000E+00  0.21631174166E+02  0.21631174166E+02  0.00000000000E+00 0.  1.
         21   -1    0    0  504  502 -0.00000000000E+00 -0.00000000000E+00 -0.27470183585E+02  0.27470183585E+02  0.00000000000E+00 0.  1.
         21    1    1    2  503  502  0.66233797229E+01 -0.23035135996E+02 -0.73926049191E+01  0.25082608652E+02  0.00000000000E+00 0.  1.
         21    1    1    2  504  501 -0.66233797229E+01  0.23035135996E+02  0.15535955001E+01  0.24018749099E+02  0.00000000000E+00 0.  1.
</event>
<event>
 4    1  0.3069799E+006  0.2012932E+02  0.7546771E-02  0.1532068E+00
         21   -1    0    0  502  501  0.00000000000E+00  0.00000000000E+00  0.19069916561E+02  0.19069916561E+02  0.00000000000E+00 0. -1.
         21   -1    0    0  504  502 -0.00000000000E+00 -0.00000000000E+00 -0.27199286941E+03  0.27199286941E+03  0.00000000000E+00 0. -1.
         21    1    1    2  503  501  0.13967409518E+02 -0.14494863869E+02  0.13270022267E+02  0.24109813317E+02  0.00000000000E+00 0. -1.
         21    1    1    2  504  503 -0.13967409518E+02  0.14494863869E+02 -0.26619297512E+03  0.26695297265E+03  0.00000000000E+00 0. -1.
</event>
<event>
 4    1  0.3069799E+006  0.3251154E+02  0.7546771E-02  0.1398956E+00
         21   -1    0    0  503  501  0.00000000000E+00  0.00000000000E+00  0.31836383016E+02  0.31836383016E+02  0.00000000000E+00 0. -1.
         21   -1    0    0  504  502 -0.00000000000E+00 -0.00000000000E+00 -0.93294963917E+02  0.93294963917E+02  0.00000000000E+00 0.  1.
         21    1    1    2  503  502 -0.27673221573E+02  0.17064382236E+02  0.19484428009E+02  0.37903077291E+02  0.00000000000E+00 0. -1.
         21    1    1    2  504  501  0.27673221573E+02 -0.17064382236E+02 -0.80943008909E+02  0.87228269641E+02  0.00000000000E+00 0.  1.
</event>
<event>
 4    1  0.3069799E+006  0.2171305E+02  0.7546771E-02  0.1509323E+00
         21   -1    0    0  504  501  0.00000000000E+00  0.00000000000E+00  0.22319510286E+02  0.22319510286E+02  0.00000000000E+00 0.  1.
         21   -1    0    0  503  502 -0.00000000000E+00 -0.00000000000E+00 -0.49933741229E+02  0.49933741229E+02  0.00000000000E+00 0.  1.
         21    1    1    2  503  501  0.11991168046E+02  0.18101617271E+02 -0.41248562461E+02  0.46614381515E+02  0.00000000000E+00 0.  1.
         21    1    1    2  504  502 -0.11991168046E+02 -0.18101617271E+02  0.13634331518E+02  0.25638870000E+02  0.00000000000E+00 0.  1.
</event>
<event>
 4    1  0.3069799E+006  0.2047793E+02  0.7546771E-02  0.1526851E+00
         21   -1    0    0  503  501  0.00000000000E+00  0.00000000000E+00  0.24459124480E+02  0.24459124480E+02  0.00000000000E+00 0. -1.
         21   -1    0    0  504  502 -0.00000000000E+00 -0.00000000000E+00 -0.71534100170E+02  0.71534100170E+02  0.00000000000E+00 0.  1.
         21    1    1    2  503  502  0.16604453384E+02 -0.11984903155E+02  0.18314002518E+02  0.27472685781E+02  0.00000000000E+00 0. -1.
         21    1    1    2  504  501 -0.16604453384E+02  0.11984903155E+02 -0.65388978208E+02  0.68520538869E+02  0.00000000000E+00 0.  1.
</event>
<event>
 4    1  0.3069799E+006  0.2006594E+02  0.7546771E-02  0.1533030E+00
         21   -1    0    0  503  501  0.00000000000E+00  0.00000000000E+00  0.96036952290E+01  0.96036952290E+01  0.00000000000E+00 0.  1.
         21   -1    0    0  501  502 -0.00000000000E+00 -0.00000000000E+00 -0.81047045000E+02  0.81047045000E+02  0.00000000000E+00 0.  1.
         21    1    1    2  503  504  0.85265742673E+01  0.18164241430E+02 -0.42311882546E+01  0.20507196042E+02  0.00000000000E+00 0.  1.
         21    1    1    2  504  502 -0.85265742673E+01 -0.18164241430E+02 -0.67212161517E+02  0.70143544188E+02  0.00000000000E+00 0.  1.
</event>
<event>
 4    1  0.3069799E+006  0.7007392E+02  0.7546771E-02  0.1228979E+00
         21   -1    0    0  504  501  0.00000000000E+00  0.00000000000E+00  0.58119393630E+03  0.58119393630E+03  0.00000000000E+00 0. -1.
         21   -1    0    0  503  502 -0.00000000000E+00 -0.00000000000E+00 -0.37903775710E+02  0.37903775710E+02  0.00000000000E+00 0.  1.
         21    1    1    2  503  501  0.14386094574E+02 -0.68581302608E+02  0.54452260355E+03  0.54901295118E+03  0.00000000000E+00 0. -1.
         21    1    1    2  504  502 -0.14386094574E+02  0.68581302608E+02 -0.12324429657E+01  0.70084760827E+02  0.00000000000E+00 0.  1.
</event>
<event>
 4    1  0.3069799E+006  0.2481473E+02  0.7546771E-02  0.1470887E+00
         21   -1    0    0  503  501  0.00000000000E+00  0.00000000000E+00  0.70097382510E+01  0.70097382510E+01  0.00000000000E+00 0. -1.
         21   -1    0    0  501  502 -0.00000000000E+00 -0.00000000000E+00 -0.23017248297E+03  0.23017248297E+03  0.00000000000E+00 0. -1.
         21    1    1    2  503  504 -0.23175706033E+02  0.88688957699E+01 -0.18326877340E+02  0.30848745442E+02  0.00000000000E+00 0. -1.
         21    1    1    2  504  502  0.23175706033E+02 -0.88688957699E+01 -0.20483586738E+03  0.20633347578E+03  0.00000000000E+00 0. -1.
</event>
<event>
 4    1  0.3069799E+006  0.2619052E+02  0.7546771E-02  0.1455913E+00
         21   -1    0    0  504  501  0.00000000000E+00  0.00000000000E+00  0.18803934792E+01  0.18803934792E+01  0.00000000000E+00 0. -1.
         21   -1    0    0  503  502 -0.00000000000E+00 -0.00000000000E+00 -0.48307589510E+03  0.48307589510E+03  0.00000000000E+00 0. -1.
         21    1    1    2  503  501 -0.23180123917E+02  0.12191187417E+02 -0.36058547238E+03  0.36153537322E+03  0.00000000000E+00 0. -1.
         21    1    1    2  504  502  0.23180123917E+02 -0.12191187417E+02 -0.12061002924E+03  0.12342091536E+03  0.00000000000E+00 0. -1.
</event>
<event>
 4    1  0.3069799E+006  0.2841879E+02  0.7546771E-02  0.1433854E+00
         21   -1    0    0  503  501  0.00000000000E+00  0.00000000000E+00  0.15562886363E+03  0.15562886363E+03  0.00000000000E+00 0.  1.
         21   -1    0    0  504  502 -0.00000000000E+00 -0.00000000000E+00 -0.11914626510E+02  0.11914626510E+02  0.00000000000E+00 0.  1.
         21    1    1    2  503  502 -0.20994526275E+02  0.19153523854E+02  0.89196438388E+01  0.29785695489E+02  0.00000000000E+00 0.  1.
         21    1    1    2  504  501  0.20994526275E+02 -0.19153523854E+02  0.13479459328E+03  0.13775779465E+03  0.00000000000E+00 0.  1.
</event>
<event>
 4    1  0.3069799E+006  0.2136882E+02  0.7546771E-02  0.1514064E+00
         21   -1    0    0  503  501  0.00000000000E+00  0.00000000000E+00  0.64725396362E+02  0.64725396362E+02  0.00000000000E+00 0. -1.
         21   -1    0    0  501  502 -0.00000000000E+00 -0.00000000000E+00 -0.18246191332E+02  0.18246191332E+02  0.00000000000E+00 0. -1.
         21    1    1    2  503  504  0.72194751991E+01 -0.20112327664E+02  0.55729982312E+02  0.59686325692E+02  0.00000000000E+00 0. -1.
         21    1    1    2  504  502 -0.72194751991E+01  0.20112327664E+02 -0.92507772819E+01  0.23285262002E+02  0.00000000000E+00 0. -1.
</event>
<event>
 4    1  0.3069799E+006  0.3013734E+02  0.7546771E-02  0.1418407E+00
         21   -1    0    0  503  501  0.00000000000E+00  0.00000000000E+00  0.31076085385E+02  0.31076085385E+02  0.00000000000E+00 0. -1.
         21   -1    0    0  504  502 -0.00000000000E+00 -0.00000000000E+00 -0.75236431708E+02  0.75236431708E+02  0.00000000000E+00 0. -1.
         21    1    1    2  503  502 -0.18682665383E+02 -0.23647776842E+02 -0.63648635446E+02  0.70423065323E+02  0.00000000000E+00 0. -1.
         21    1    1    2  504  501  0.18682665383E+02  0.23647776842E+02  0.19488289124E+02  0.35889451770E+02  0.00000000000E+00 0. -1.
</event>
<event>
 4    1  0.3069799E+006  0.2345161E+02  0.7546771E-02  0.1486904E+00
         21   -1    0    0  504  501  0.00000000000E+00  0.00000000000E+00  0.48228742700E+03  0.48228742700E+03  0.00000000000E+00 0. -1.
         21   -1    0    0  503  502 -0.00000000000E+00 -0.00000000000E+00 -0.33585966000E+01  0.33585966000E+01  0.00000000000E+00 0. -1.
         21    1    1    2  503  501 -0.23224282109E+02 -0.32574052054E+01  0.42124231957E+02  0.48212331266E+02  0.00000000000E+00 0. -1.
         21    1    1    2  504  502  0.23224282109E+02  0.32574052054E+01  0.43680459844E+03  0.43743369233E+03  0.00000000000E+00 0. -1.
</event>
<event>
 4    1  0.3069799E+006  0.2022869E+02  0.7546771E-02  0.1530568E+00
         21   -1    0    0  502  501  0.00000000000E+00  0.00000000000E+00  0.72823554920E+00  0.72823554920E+00  0.00000000000E+00 0. -1.
         21   -1    0    0  504  502 -0.00000000000E+00 -0.00000000000E+00 -0.68839666957E+03  0.68839666957E+03  0.00000000000E+00 0. -1.
         21    1    1    2  503  501  0.93625820836E+01 -0.17931594103E+02 -0.19613519722E+03  0.19717559585E+03  0.00000000000E+00 0. -1.
         21    1    1    2  504  503 -0.93625820836E+01  0.17931594103E+02 -0.49153323680E+03  0.49194930927E+03  0.00000000000E+00 0. -1.
</event>
<event>
 4    1  0.3069799E+006  0.3100802E+02  0.7546771E-02  0.1411034E+00
         21   -1    0    0  504  501  0.00000000000E+00  0.00000000000E+00  0.13963100503E+03  0.13963100503E+03  0.00000000000E+00 0.  1.
         21   -1    0    0  501  502 -0.00000000000E+00 -0.00000000000E+00 -0.36206146991E+02  0.36206146991E+02  0.00000000000E+00 0. -1.
         21    1    1    2  503  502 -0.30436212703E+02  0.59274209085E+01 -0.27405088891E+02  0.41382801494E+02  0.00000000000E+00 0. -1.
         21    1    1    2  504  503  0.30436212703E+02 -0.59274209085E+01  0.13082994693E+03  0.13445435053E+03  0.00000000000E+00 0.  1.
</event>
<event>
 4    1  0.3069799E+006  0.2611572E+02  0.7546771E-02  0.1456699E+00
         21   -1    0    0  502  501  0.00000000000E+00  0.00000000000E+00  0.95360132512E+02  0.95360132512E+02  0.00000000000E+00 0.  1.
         21   -1    0    0  503  502 -0.00000000000E+00 -0.00000000000E+00 -0.57466160387E+03  0.57466160387E+03  0.00000000000E+00 0.  1.
         21    1    1    2  503  504  0.15859193094E+02  0.20748893640E+02 -0.57257032778E+03  0.57316560508E+03  0.00000000000E+00 0.  1.
         21    1    1    2  504  501 -0.15859193094E+02 -0.20748893640E+02  0.93268856421E+02  0.96856131303E+02  0.00000000000E+00 0.  1.
</event>
<event>
 4    1  0.3069799E+006  0.2542535E+02  0.7546771E-02  0.1464101E+00
         21   -1    0    0  503  501  0.00000000000E+00  0.00000000000E+00  0.19005671317E+03  0.19005671317E+03  0.00000000000E+00 0.  1.
         21   -1    0    0  501  502 -0.00000000000E+00 -0.00000000000E+00 -0.54016614305E+01  0.54016614305E+01  0.00000000000E+00 0.  1.
         21    1    1    2  503  504 -0.66856186333E+01  0.24530609989E+02  0.15179918187E+03  0.15391374188E+03  0.00000000000E+00 0.  1.
         21    1    1    2  504  502  0.66856186333E+01 -0.24530609989E+02  0.32855869864E+02  0.41544632715E+02  0.00000000000E+00 0.  1.
</event>
<event>
 4    1  0.3069799E+006  0.2798553E+02  0.7546771E-02  0.1437952E+00
         21   -1    0    0  504  501  0.00000000000E+00  0.00000000000E+00  0.37344646427E+01  0.37344646427E+01  0.00000000000E+00 0.  1.
         21   -1    0    0  503  502 -0.00000000000E+00 -0.00000000000E+00 -0.30031990090E+03  0.30031990090E+03  0.00000000000E+00 0.  1.
         21    1    1    2  503  501 -0.19291667644E+02  0.20273660340E+02 -0.64791184389E+02  0.70576818564E+02  0.00000000000E+00 0.  1.
         21    1    1    2  504  502  0.19291667644E+02 -0.20273660340E+02 -0.23179425187E+03  0.23347754698E+03  0.00000000000E+00 0.  1.
</event>
<event>
 4    1  0.3069799E+006  0.2594958E+02  0.7546771E-02  0.1458455E+00
         21   -1    0    0  504  501  0.00000000000E+00  0.00000000000E+00  0.15799401670E+03  0.15799401670E+03  0.00000000000E+00 0.  1.
         21   -1    0    0  501  502 -0.00000000000E+00 -0.00000000000E+00 -0.52723200798E+02  0.52723200798E+02  0.00000000000E+00 0.  1.
         21    1    1    2  503  502  0.24666246575E+02 -0.80595900815E+01 -0.48374956713E+02  0.54895511195E+02  0.00000000000E+00 0.  1.
         21    1    1    2  504  503 -0.24666246575E+02  0.80595900815E+01  0.15364577262E+03  0.15582170630E+03  0.00000000000E+00 0.  1.
</event>
<event>
 4    1  0.3069799E+006  0.3381137E+02  0.7546771E-02  0.1389118E+00
         21   -1    0    0  503  501  0.00000000000E+00  0.00000000000E+00  0.19734969341E+03  0.19734969341E+03  0.00000000000E+00 0. -1.
         21   -1    0    0  501  502 -0.00000000000E+00 -0.00000000000E+00 -0.83539744200E+01  0.83539744200E+01  0.00000000000E+00 0.  1.
         21    1    1    2  503  504  0.26795885392E+02 -0.20620124746E+02  0.15144662452E+03  0.15517502730E+03  0.00000000000E+00 0. -1.
         21    1    1    2  504  502 -0.26795885392E+02  0.20620124746E+02  0.37549094469E+02  0.50528640531E+02  0.00000000000E+00 0.  1.
</event>
<event>
 4    1  0.3069799E+006  0.2178811E+02  0.7546771E-02  0.1508304E+00
         21   -1    0    0  504  501  0.00000000000E+00  0.00000000000E+00  0.67066482111E+01  0.67066482111E+01  0.00000000000E+00 0. -1.
         21   -1    0    0  503  502 -0.00000000000E+00 -0.00000000000E+00 -0.72671782589E+02  0.72671782589E+02  0.00000000000E+00 0. -1.
         21    1    1    2  503  501  0.56412343752E+01  0.21045142382E+02 -0.39379874540E+02  0.45005511462E+02  0.00000000000E+00 0. -1.
         21    1    1    2  504  502 -0.56412343752E+01 -0.21045142382E+02 -0.26585259838E+02  0.34372919338E+02  0.00000000000E+00 0. -1.
</event>
<event>
 4    1  0.3069799E+006  0.3124102E+02  0.7546771E-02  0.1409110E+00
         21   -1    0    0  503  501  0.00000000000E+00  0.00000000000E+00  0.95264870625E+02  0.95264870625E+02  0.00000000000E+00 0.  1.
         21   -1    0    0  504  502 -0.00000000000E+00 -0.00000000000E+00 -0.11866477037E+02  0.11866477037E+02  0.00000000000E+00 0. -1.
         21    1    1    2  503  502 -0.25683620705E+02 -0.17786319945E+02  0.61499090857E+02  0.68979270263E+02  0.00000000000E+00 0.  1.
         21    1    1    2  504  501  0.25683620705E+02  0.17786319945E+02  0.21899302732E+02  0.38152077399E+02  0.00000000000E+00 0. -1.
</event>
<event>
 4    1  0.3069799E+006  0.4000022E+02  0.7546771E-02  0.1348485E+00
         21   -1    0    0  504  501  0.00000000000E+00  0.00000000000E+00  0.18717988343E+02  0.18717988343E+02  0.00000000000E+00 0. -1.
         21   -1    0    0  501  502 -0.00000000000E+00 -0.00000000000E+00 -0.20344496356E+03  0.20344496356E+03  0.00000000000E+00 0. -1.
         21    1    1    2  503  502 -0.22957735535E+02 -0.32756067330E+02 -0.17694867254E+03  0.18141347878E+03  0.00000000000E+00 0. -1.
         21    1    1    2  504  503  0.22957735535E+02  0.32756067330E+02 -0.77783026800E+01  0.40749473130E+02  0.00000000000E+00 0. -1.
</event>
<event>
 4    1  0.3069799E+006  0.2300673E+02  0.7546771E-02  0.1492414E+00
         21   -1    0    0  502  501  0.00000000000E+00  0.00000000000E+00  0.18594157902E+03  0.18594157902E+03  0.00000000000E+00 0.  1.
         21   -1    0    0  503  502 -0.00000000000E+00 -0.00000000000E+00 -0.82465262952E+01  0.82465262952E+01  0.00000000000E+00 0.  1.
         21    1    1    2  503  504 -0.21605706469E+02  0.79059002562E+01  0.10278896476E+02  0.25198522251E+02  0.00000000000E+00 0.  1.
         21    1    1    2  504  501  0.21605706469E+02 -0.79059002562E+01  0.16741615625E+03  0.16898958306E+03  0.00000000000E+00 0.  1.
</event>
<event>
 4    1  0.3069799E+006  0.2452356E+02  0.7546771E-02  0.1474204E+00
         21   -1    0    0  503  501  0.00000000000E+00  0.00000000000E+00  0.66366090456E+01  0.66366090456E+01  0.00000000000E+00 0.  1.
         21   -1    0    0  504  502 -0.00000000000E+00 -0.00000000000E+00 -0.31618143239E+03  0.31618143239E+03  0.00000000000E+00 0. -1.
         21    1    1    2  503  502  0.20459471455E+02 -0.13520918776E+02 -0.18442025075E+02  0.30684092062E+02  0.00000000000E+00 0.  1.
         21    1    1    2  504  501 -0.20459471455E+02  0.13520918776E+02 -0.29110279827E+03  0.29213394937E+03  0.00000000000E+00 0. -1.
</event>
<event>
 4    1  0.3069799E+006  0.2039834E+02  0.7546771E-02  0.1528031E+00
         21   -1    0    0  504  501  0.00000000000E+00  0.00000000000E+00  0.88599076882E+01  0.88599076882E+01  0.00000000000E+00 0.  1.
         21   -1    0    0  503  502 -0.00000000000E+00 -0.00000000000E+00 -0.11440208927E+03  0.11440208927E+03  0.00000000000E+00 0. -1.
         21    1    1    2  503  501  0.17005642890E+02  0.11264999236E+02 -0.54519850523E+01  0.21114360964E+02  0.00000000000E+00 0.  1.
         21    1    1    2  504  502 -0.17005642890E+02 -0.11264999236E+02 -0.10009019653E+03  0.10214763599E+03  0.00000000000E+00 0. -1.
</event>
<event>
 4    1  0.3069799E+006  0.6618278E+02  0.7546771E-02  0.1240159E+00
         21   -1    0    0  504  501  0.00000000000E+00  0.00000000000E+00  0.96283532714E+02  0.96283532714E+02  0.00000000000E+00 0. -1.
         21   -1    0    0  501  502 -0.00000000000E+00 -0.00000000000E+00 -0.21417772633E+03  0.21417772633E+03  0.00000000000E+00 0. -1.
         21    1    1    2  503  502 -0.65632198088E+02  0.85191191288E+01 -0.19670896665E+03  0.20754416006E+03  0.00000000000E+00 0. -1.
         21    1    1    2  504  503  0.65632198088E+02 -0.85191191288E+01  0.78814773026E+02  0.10291709899E+03  0.00000000000E+00 0. -1.
</event>
<event>
 4    1  0.3069799E+006  0.2061920E+02  0.7546771E-02  0.1524772E+00
         21   -1    0    0  502  501  0.00000000000E+00  0.00000000000E+00  0.30472001835E+03  0.30472001835E+03  0.00000000000E+00 0.  1.
         21   -1    0    0  503  502 -0.00000000000E+00 -0.00000000000E+00 -0.19542508418E+03  0.19542508418E+03  0.00000000000E+00 0.  1.
         21    1    1    2  503  504  0.19389320148E+02  0.70146875133E+01 -0.19453079955E+03  0.19562050902E+03  0.00000000000E+00 0.  1.
         21    1    1    2  504  501 -0.19389320148E+02 -0.70146875133E+01  0.30382573372E+03  0.30452459350E+03  0.00000000000E+00 0.  1.
</event>
<event>
 4    1  0.3069799E+006  0.2307164E+02  0.7546771E-02  0.1491601E+00
         21   -1    0    0  503  501  0.00000000000E+00  0.00000000000E+00  0.21398495853E+03  0.21398495853E+03  0.00000000000E+00 0.  1.
         21   -1    0    0  504  502 -0.00000000000E+00 -0.00000000000E+00 -0.44151086414E+02  0.44151086414E+02  0.00000000000E+00 0. -1.
         21    1    1    2  503  502  0.22653774383E+02 -0.43711685786E+01  0.21029627255E+03  0.21155808388E+03  0.00000000000E+00 0.  1.
         21    1    1    2  504  501 -0.22653774383E+02  0.43711685786E+01 -0.40462400429E+02  0.46577961065E+02  0.00000000000E+00 0. -1.
</event>
<event>
 4    1  0.3069799E+006  0.2330097E+02  0.7546771E-02  0.1488753E+00
         21   -1    0    0  503  501  0.00000000000E+00  0.00000000000E+00  0.33626294596E+02  0.33626294596E+02  0.00000000000E+00 0.  1.
         21   -1    0    0  504  502 -0.00000000000E+00 -0.00000000000E+00 -0.30192142348E+02  0.30192142348E+02  0.00000000000E+00 0. -1.
         21    1    1    2  503  502 -0.13061086018E+02  0.19296199135E+02 -0.20047257908E+02  0.30738051640E+02  0.00000000000E+00 0. -1.
         21    1    1    2  504  501  0.13061086018E+02 -0.19296199135E+02  0.23481410155E+02  0.33080385304E+02  0.00000000000E+00 0.  1.
</event>
<event>
 4    1  0.3069799E+006  0.2678255E+02  0.7546771E-02  0.1449805E+00
         21   -1    0    0  503  501  0.00000000000E+00  0.00000000000E+00  0.11620431183E+01  0.11620431183E+01  0.00000000000E+00 0.  1.
         21   -1    0    0  504  502 -0.00000000000E+00 -0.00000000000E+00 -0.64020794519E+03  0.64020794519E+03  0.00000000000E+00 0.  1.
         21    1    1    2  503  502  0.18537214766E+02 -0.19330717076E+02 -0.25883408733E+03  0.26021604431E+03  0.00000000000E+00 0.  1.
         21    1    1    2  504  501 -0.18537214766E+02  0.19330717076E+02 -0.38021181475E+03  0.38115394400E+03  0.00000000000E+00 0.  1.
</event>
<event>
 4    1  0.3069799E+006  0.2942789E+02  0.7546771E-02  0.1424634E+00
         21   -1    0    0  502  501  0.00000000000E+00  0.00000000000E+00  0.33473708188E+03  0.33473708188E+03  0.00000000000E+00 0.  1.
         21   -1    0    0  504  502 -0.00000000000E+00 -0.00000000000E+00 -0.69954176885E+01  0.69954176885E+01  0.00000000000E+00 0.  1.
         21    1    1    2  503  501  0.10121622066E+02 -0.27632472970E+02  0.29951013149E+03  0.30095235447E+03  0.00000000000E+00 0.  1.
         21    1    1    2  504  503 -0.10121622066E+02  0.27632472970E+02  0.28231532705E+02  0.40780145102E+02  0.00000000000E+00 0.  1.
</event>
<event>
 4    1  0.3069799E+006  0.2234300E+02  0.7546771E-02  0.1500917E+00
         21   -1    0    0  503  501  0.00000000000E+00  0.00000000000E+00  0.21538935331E+03  0.21538935331E+03  0.00000000000E+00 0. -1.
         21   -1    0    0  504  502 -0.00000000000E+00 -0.00000000000E+00 -0.30864863016E+01  0.30864863016E+01  0.00000000000E+00 0.  1.
         21    1    1    2  503  502  0.48692881107E+01  0.21805954487E+02  0.16066967203E+03  0.16221576104E+03  0.00000000000E+00 0. -1.
         21    1    1    2  504  501 -0.48692881107E+01 -0.21805954487E+02  0.51633194973E+02  0.56260078572E+02  0.00000000000E+00 0.  1.
</event>
<event>
 4    1  0.3069799E+006  0.3109048E+02  0.7546771E-02  0.1410351E+00
         21   -1    0    0  502  501  0.00000000000E+00  0.00000000000E+00  0.17129963722E+03  0.17129963722E+03  0.00000000000E+00 0.  1.
         21   -1    0    0  503  502 -0.00000000000E+00 -0.00000000000E+00 -0.44869383665E+03  0.44869383665E+03  0.00000000000E+00 0.  1.
         21    1    1    2  503  504  0.23829618275E+02 -0.19969156758E+02 -0.44673838379E+03  0.44781893828E+03  0.00000000000E+00 0.  1.
         21    1    1    2  504  501 -0.23829618275E+02  0.19969156758E+02  0.16934418436E+03  0.17217453559E+03  0.00000000000E+00 0.  1.
</event>
<event>
 4    1  0.3069799E+006  0.2580279E+02  0.7546771E-02  0.1460020E+00
         21   -1    0    0  503  501  0.00000000000E+00  0.00000000000E+00  0.44093382504E+01  0.44093382504E+01  0.00000000000E+00 0. -1.
         21   -1    0    0  504  502 -0.00000000000E+00 -0.00000000000E+00 -0.15416011552E+03  0.15416011552E+03  0.00000000000E+00 0.  1.
         21    1    1    2  503  502  0.25800397467E+02  0.35104965837E+00 -0.86237654486E+02  0.90015092049E+02  0.00000000000E+00 0.  1.
         21    1    1    2  504  501 -0.25800397467E+02 -0.35104965837E+00 -0.63513122786E+02  0.68554361724E+02  0.00000000000E+00 0. -1.
</event>
<event>
 4    1  0.3069799E+006  0.2685118E+02  0.7546771E-02  0.1449109E+00
         21   -1    0    0  504  501  0.00000000000E+00  0.00000000000E+00  0.58604138734E+03  0.58604138734E+03  0.00000000000E+00 0. -1.
         21   -1    0    0  501  502 -0.00000000000E+00 -0.00000000000E+00 -0.17001562319E+03  0.17001562319E+03  0.00000000000E+00 0. -1.
         21    1    1    2  503  502  0.54309938733E+01 -0.26296202303E+02 -0.16864539772E+03  0.17076959953E+03  0.00000000000E+00 0. -1.
         21    1    1    2  504  503 -0.54309938733E+01  0.26296202303E+02  0.58467116188E+03  0.58528741100E+03  0.00000000000E+00 0. -1.
</event>
<event>
 4    1  0.3069799E+006  0.4191684E+02  0.7546771E-02  0.1337605E+00
         21   -1    0    0  504  501  0.00000000000E+00  0.00000000000E+00  0.18623313791E+03  0.18623313791E+03  0.00000000000E+00 0. -1.
         21   -1    0    0  501  502 -0.00000000000E+00 -0.00000000000E+00 -0.23088630403E+02  0.23088630403E+02  0.00000000000E+00 0. -1.
         21    1    1    2  503  502 -0.35462498661E+02  0.22347993342E+02  0.10868915405E+01  0.41930930719E+02  0.00000000000E+00 0. -1.
         21    1    1    2  504  503  0.35462498661E+02 -0.22347993342E+02  0.16205761597E+03  0.16739083760E+03  0.00000000000E+00 0. -1.
</event>
<event>
 4    1  0.3069799E+006  0.2036449E+02  0.7546771E-02  0.1528535E+00
         21   -1    0    0  503  501  0.00000000000E+00  0.00000000000E+00  0.67624533733E+01  0.67624533733E+01  0.00000000000E+00 0.  1.
         21   -1    0    0  504  502 -0.00000000000E+00 -0.00000000000E+00 -0.17105727731E+03  0.17105727731E+03  0.00000000000E+00 0. -1.
         21    1    1    2  503  502  0.12024872663E+01  0.20328959785E+02 -0.10936775022E+02  0.23115484625E+02  0.00000000000E+00 0.  1.
         21    1    1    2  504  501 -0.12024872663E+01 -0.20328959785E+02 -0.15335804891E+03  0.15470424606E+03  0.00000000000E+00 0. -1.
</event>
<event>
 4    1  0.3069799E+006  0.2134645E+02  0.7546771E-02  0.1514376E+00
         21   -1    0    0  504  501  0.00000000000E+00  0.00000000000E+00  0.22702059928E+02  0.22702059928E+02  0.00000000000E+00 0.  1.
         21   -1    0    0  501  502 -0.00000000000E+00 -0.00000000000E+00 -0.29893416566E+03  0.29893416566E+03  0.00000000000E+00 0.  1.
         21    1    1    2  503  502  0.11148687901E+02  0.18203776929E+02 -0.29344133605E+03  0.29421673718E+03  0.00000000000E+00 0.  1.
         21    1    1    2  504  503 -0.11148687901E+02 -0.18203776929E+02  0.17209230316E+02  0.27419488406E+02  0.00000000000E+00 0.  1.
</event>
<event>
 4    1  0.3069799E+006  0.2019078E+02  0.7546771E-02  0.1531139E+00
         21   -1    0    0  503  501  0.00000000000E+00  0.00000000000E+00  0.19928338446E+03  0.19928338446E+03  0.00000000000E+00 0.  1.
         21   -1    0    0  504  502 -0.00000000000E+00 -0.00000000000E+00 -0.60220651880E+01  0.60220651880E+01  0.00000000000E+00 0.  1.
         21    1    1    2  503  502 -0.99502981840E+01  0.17568702307E+02  0.18004536293E+03  0.18117395080E+03  0.00000000000E+00 0.  1.
         21    1    1    2  504  501  0.99502981840E+01 -0.17568702307E+02  0.13215956339E+02  0.24131498848E+02  0.00000000000E+00 0.  1.
</event>
<event>
 4    1  0.3069799E+006  0.2944833E+02  0.7546771E-02  0.1424452E+00
         21   -1    0    0  502  501  0.00000000000E+00  0.00000000000E+00  0.57104159044E+02  0.57104159044E+02  0.00000000000E+00 0.  1.
         21   -1    0    0  504  502 -0.00000000000E+00 -0.00000000000E+00 -0.36118706321E+03  0.36118706321E+03  0.00000000000E+00 0.  1.
         21    1    1    2  503  501 -0.28345425060E+02 -0.79838034954E+01  0.52660108546E+02  0.60334826363E+02  0.00000000000E+00 0.  1.
         21    1    1    2  504  503  0.28345425060E+02  0.79838034954E+01 -0.35674301271E+03  0.35795639589E+03  0.00000000000E+00 0.  1.
</event>
<event>
 4    1  0.3069799E+006  0.2531427E+02  0.7546771E-02  0.1465318E+00
         21   -1    0    0  504  501  0.00000000000E+00  0.00000000000E+00  0.35421187614E+01  0.35421187614E+01  0.00000000000E+00 0. -1.
         21   -1    0    0  501  502 -0.00000000000E+00 -0.00000000000E+00 -0.21449731146E+03  0.21449731146E+03  0.00000000000E+00 0. -1.
         21    1    1    2  503  502 -0.12010012329E+02  0.22283890057E+02 -0.14861640469E+03  0.15075691658E+03  0.00000000000E+00 0. -1.
         21    1    1    2  504  503  0.12010012329E+02 -0.22283890057E+02 -0.62338788008E+02  0.67282513646E+02  0.00000000000E+00 0. -1.
</event>
<event>
 4    1  0.3069799E+006  0.5116242E+02  0.7546771E-02  0.1293210E+00
         21   -1    0    0  504  501  0.00000000000E+00  0.00000000000E+00  0.17383562178E+02  0.17383562178E+02  0.00000000000E+00 0.  1.
         21   -1    0    0  501  502 -0.00000000000E+00 -0.00000000000E+00 -0.19888430639E+04  0.19888430639E+04  0.00000000000E+00 0. -1.
         21    1    1    2  503  502 -0.14832152332E+02  0.48965295734E+02 -0.19501220403E+04  0.19507930606E+04  0.00000000000E+00 0. -1.
         21    1    1    2  504  503  0.14832152332E+02 -0.48965295734E+02 -0.21337461408E+02  0.55433565539E+02  0.00000000000E+00 0.  1.
</event>
<event>
 4    1  0.3069799E+006  0.7317915E+02  0.7546771E-02  0.1220634E+00
         21   -1    0    0  503  501  0.00000000000E+00  0.00000000000E+00  0.43000190264E+02  0.43000190264E+02  0.00000000000E+00 0. -1.
         21   -1    0    0  504  502 -0.00000000000E+00 -0.00000000000E+00 -0.14285803962E+03  0.14285803962E+03  0.00000000000E+00 0. -1.
         21    1    1    2  503  502  0.66063616903E+02  0.31476756471E+02 -0.16651140742E+02  0.75049638002E+02  0.00000000000E+00 0. -1.
         21    1    1    2  504  501 -0.66063616903E+02 -0.31476756471E+02 -0.83206708609E+02  0.11080859188E+03  0.00000000000E+00 0. -1.
</event>
<event>
 4    1  0.3069799E+006  0.2180926E+02  0.7546771E-02  0.1508017E+00
         21   -1    0    0  504  501  0.00000000000E+00  0.00000000000E+00  0.23788070248E+03  0.23788070248E+03  0.00000000000E+00 0.  1.
         21   -1    0    0  503  502 -0.00000000000E+00 -0.00000000000E+00 -0.61823137213E+02  0.61823137213E+02  0.00000000000E+00 0. -1.
         21    1    1    2  503  501  0.62047720300E+01  0.20907998938E+02 -0.59379939398E+02  0.63258365601E+02  0.00000000000E+00 0. -1.
         21    1    1    2  504  502 -0.62047720300E+01 -0.20907998938E+02  0.23543750466E+03  0.23644547409E+03  0.00000000000E+00 0.  1.
</event>
<event>
 4    1  0.3069799E+006  0.3252555E+02  0.7546771E-02  0.1398847E+00
         21   -1    0    0  504  501  0.00000000000E+00  0.00000000000E+00  0.16407006079E+04  0.16407006079E+04  0.00000000000E+00 0.  1.
         21   -1    0    0  503  502 -0.00000000000E+00 -0.00000000000E+00 -0.24869190380E+01  0.24869190380E+01  0.00000000000E+00 0. -1.
         21    1    1    2  503  501 -0.32373297690E+02 -0.31434395875E+01  0.15262152957E+04  0.15265618365E+04  0.00000000000E+00 0.  1.
         21    1    1    2  504  502  0.32373297690E+02  0.31434395875E+01  0.11199839318E+03  0.11662569053E+03  0.00000000000E+00 0. -1.
</event>
<event>
 4    1  0.3069799E+006  0.3472446E+02  0.7546771E-02  0.1382511E+00
         21   -1    0    0  502  501  0.00000000000E+00  0.00000000000E+00  0.30522211168E+02  0.30522211168E+02  0.00000000000E+00 0.  1.
         21   -1    0    0  503  502 -0.00000000000E+00 -0.00000000000E+00 -0.39734102986E+02  0.39734102986E+02  0.00000000000E+00 0.  1.
         21    1    1    2  503  504  0.33194430303E+02  0.10193997258E+02 -0.19400344753E+01  0.34778607175E+02  0.00000000000E+00 0.  1.
         21    1    1    2  504  501 -0.33194430303E+02 -0.10193997258E+02 -0.72718573428E+01  0.35477706979E+02  0.00000000000E+00 0.  1.
</event>
<event>
 4    1  0.3069799E+006  0.5361345E+02  0.7546771E-02  0.1283223E+00
         21   -1    0    0  503  501  0.00000000000E+00  0.00000000000E+00  0.13321421968E+03  0.13321421968E+03  0.00000000000E+00 0. -1.
         21   -1    0    0  504  502 -0.00000000000E+00 -0.00000000000E+00 -0.40899837788E+02  0.40899837788E+02  0.00000000000E+00 0. -1.
         21    1    1    2  503  502 -0.39926428776E+02  0.35781026171E+02 -0.13680560882E+02  0.55331359054E+02  0.00000000000E+00 0. -1.
         21    1    1    2  504  501  0.39926428776E+02 -0.35781026171E+02  0.10599494277E+03  0.11878269841E+03  0.00000000000E+00 0. -1.
</event>
<event>
 4    1  0.3069799E+006  0.4241578E+02  0.7546771E-02  0.1334883E+00
         21   -1    0    0  504  501  0.00000000000E+00  0.00000000000E+00  0.63753511505E+02  0.63753511505E+02  0.00000000000E+00 0.  1.
         21   -1    0    0  503  502 -0.00000000000E+00 -0.00000000000E+00 -0.10667452450E+03  0.10667452450E+03  0.00000000000E+00 0.  1.
         21    1    1    2  503  501  0.41802737585E+02  0.71853851522E+01  0.51618189385E+02  0.66809700678E+02  0.00000000000E+00 0.  1.
         21    1    1    2  504  502 -0.41802737585E+02 -0.71853851522E+01 -0.94539202378E+02  0.10361833533E+03  0.00000000000E+00 0.  1.
</event>
<event>
 4    1  0.3069799E+006  0.2163814E+02  0.7546771E-02  0.1510346E+00
         21   -1    0    0  503  501  0.00000000000E+00  0.00000000000E+00  0.62899977080E+02  0.62899977080E+02  0.00000000000E+00 0.  1.
         21   -1    0    0  504  502 -0.00000000000E+00 -0.00000000000E+00 -0.32097601040E+02  0.32097601040E+02  0.00000000000E+00 0. -1.
         21    1    1    2  503  502  0.16858325333E+02  0.13564876684E+02  0.57029520182E+02  0.60996517808E+02  0.00000000000E+00 0.  1.
         21    1    1    2  504  501 -0.16858325333E+02 -0.13564876684E+02 -0.26227144142E+02  0.34001060312E+02  0.00000000000E+00 0. -1.
</event>
<event>
 4    1  0.3069799E+006  0.5618416E+02  0.7546771E-02  0.1273379E+00
         21   -1    0    0  503  501  0.00000000000E+00  0.00000000000E+00  0.11263271532E+02  0.11263271532E+02  0.00000000000E+00 0.  1.
         21   -1    0    0  504  502 -0.00000000000E+00 -0.00000000000E+00 -0.30249330723E+03  0.30249330723E+03  0.00000000000E+00 0. -1.
         21    1    1    2  503  502 -0.43681661212E+02 -0.35335136009E+02 -0.18814489109E+03  0.19635467757E+03  0.00000000000E+00 0.  1.
         21    1    1    2  504  501  0.43681661212E+02  0.35335136009E+02 -0.10308514461E+03  0.11740190119E+03  0.00000000000E+00 0. -1.
</event>
<event>
 4    1  0.3069799E+006  0.2161118E+02  0.7546771E-02  0.1510715E+00
         21   -1    0    0  504  501  0.00000000000E+00  0.00000000000E+00  0.11637358824E+01  0.11637358824E+01  0.00000000000E+00 0. -1.
         21   -1    0    0  503  502 -0.00000000000E+00 -0.00000000000E+00 -0.42389726210E+03  0.42389726210E+03  0.00000000000E+00 0. -1.
         21    1    1    2  503  501 -0.10402562303E+02 -0.18942806162E+02 -0.16233004322E+03  0.16376228546E+03  0.00000000000E+00 0. -1.
         21    1    1    2  504  502  0.10402562303E+02  0.18942806162E+02 -0.26040348300E+03  0.26129871252E+03  0.00000000000E+00 0. -1.
</event>
<event>
 4    1  0.3069799E+006  0.3268103E+02  0.7546771E-02  0.1397643E+00
         21   -1    0    0  503  501  0.00000000000E+00  0.00000000000E+00  0.10936398518E+04  0.10936398518E+04  0.00000000000E+00 0.  1.
         21   -1    0    0  504  502 -0.00000000000E+00 -0.00000000000E+00 -0.50775862741E+02  0.50775862741E+02  0.00000000000E+00 0. -1.
         21    1    1    2  503  502 -0.10826178141E+02 -0.30835749699E+02 -0.45246347189E+02  0.55814707081E+02  0.00000000000E+00 0. -1.
         21    1    1    2  504  501  0.10826178141E+02  0.30835749699E+02  0.10881103362E+04  0.10886010074E+04  0.00000000000E+00 0.  1.
</event>
<event>
 4    1  0.3069799E+006  0.2596341E+02  0.7546771E-02  0.1458308E+00
         21   -1    0    0  504  501  0.00000000000E+00  0.00000000000E+00  0.85804584066E+03  0.85804584066E+03  0.00000000000E+00 0.  1.
         21   -1    0    0  501  502 -0.00000000000E+00 -0.00000000000E+00 -0.52108627950E+02  0.52108627950E+02  0.00000000000E+00 0.  1.
         21    1    1    2  503  502  0.25790285470E+02  0.29933142331E+01 -0.48665090863E+02  0.55157862753E+02  0.00000000000E+00 0.  1.
         21    1    1    2  504  503 -0.25790285470E+02 -0.29933142331E+01  0.85460230357E+03  0.85499660585E+03  0.00000000000E+00 0.  1.
</event>
<event>
 4    1  0.3069799E+006  0.2271740E+02  0.7546771E-02  0.1496078E+00
         21   -1    0    0  502  501  0.00000000000E+00  0.00000000000E+00  0.18287897104E+02  0.18287897104E+02  0.00000000000E+00 0. -1.
         21   -1    0    0  504  502 -0.00000000000E+00 -0.00000000000E+00 -0.51121928494E+02  0.51121928494E+02  0.00000000000E+00 0. -1.
         21    1    1    2  503  501 -0.48058005820E+01  0.22203256233E+02  0.68117172954E+01  0.23716656575E+02  0.00000000000E+00 0. -1.
         21    1    1    2  504  503  0.48058005820E+01 -0.22203256233E+02 -0.39645748686E+02  0.45693169024E+02  0.00000000000E+00 0. -1.
</event>
<event>
 4    1  0.3069799E+006  0.2137841E+02  0.7546771E-02  0.1513930E+00
         21   -1    0    0  504  501  0.00000000000E+00  0.00000000000E+00  0.64825400984E+02  0.64825400984E+02  0.00000000000E+00 0. -1.
         21   -1    0    0  501  502 -0.00000000000E+00 -0.00000000000E+00 -0.24933452160E+02  0.24933452160E+02  0.00000000000E+00 0.  1.
         21    1    1    2  503  502 -0.13834441148E+02 -0.16298610096E+02 -0.18062331840E+02  0.27987216447E+02  0.00000000000E+00 0.  1.
         21    1    1    2  504  503  0.13834441148E+02  0.16298610096E+02  0.57954280665E+02  0.61771636697E+02  0.00000000000E+00 0. -1.
</event>
<event>
 4    1  0.3069799E+006  0.2024159E+02  0.7546771E-02  0.1530374E+00
         21   -1    0    0  504  501  0.00000000000E+00  0.00000000000E+00  0.32031728132E+02  0.32031728132E+02  0.00000000000E+00 0.  1.
         21   -1    0    0  503  502 -0.00000000000E+00 -0.00000000000E+00 -0.27841786839E+02  0.27841786839E+02  0.00000000000E+00 0.  1.
         21    1    1    2  503  501 -0.18161528693E+02 -0.89376051348E+01  0.24105676699E+02  0.31477064017E+02  0.00000000000E+00 0.  1.
         21    1    1    2  504  502  0.18161528693E+02  0.89376051348E+01 -0.19915735405E+02  0.28396450954E+02  0.00000000000E+00 0.  1.
</event>
<event>
 4    1  0.3069799E+006  0.2127124E+02  0.7546771E-02  0.1515427E+00
         21   -1    0    0  503  501  0.00000000000E+00  0.00000000000E+00  0.66779864333E+03  0.66779864333E+03  0.00000000000E+00 0. -1.
         21   -1    0    0  504  502 -0.00000000000E+00 -0.00000000000E+00 -0.93625514655E+00  0.93625514655E+00  0.00000000000E+00 0. -1.
         21    1    1    2  503  502 -0.84961556895E+01  0.19500798999E+02  0.50919557140E+03  0.50963967247E+03  0.00000000000E+00 0. -1.
         21    1    1    2  504  501  0.84961556895E+01 -0.19500798999E+02  0.15766681679E+03  0.15909522601E+03  0.00000000000E+00 0. -1.
</event>
<event>
 4    1  0.3069799E+006  0.2098656E+02  0.7546771E-02  0.1519457E+00
         21   -1    0    0  502  501  0.00000000000E+00  0.00000000000E+00  0.11256704148E+02  0.11256704148E+02  0.00000000000E+00 0. -1.
         21   -1    0    0  504  502 -0.00000000000E+00 -0.00000000000E+00 -0.10745979159E+03  0.10745979159E+03  0.00000000000E+00 0. -1.
         21    1    1    2  503  501 -0.76093002641E+01 -0.19558485331E+02 -0.76744156239E+00  0.21000589647E+02  0.00000000000E+00 0. -1.
         21    1    1    2  504  503  0.76093002641E+01  0.19558485331E+02 -0.95435645882E+02  0.97715906095E+02  0.00000000000E+00 0. -1.
</event>
<event>
 4    1  0.3069799E+006  0.3027507E+02  0.7546771E-02  0.1417221E+00
         21   -1    0    0  504  501  0.00000000000E+00  0.00000000000E+00  0.12129640832E+02  0.12129640832E+02  0.00000000000E+00 0.  1.
         21   -1    0    0  503  502 -0.00000000000E+00 -0.00000000000E+00 -0.75779656394E+02  0.75779656394E+02  0.00000000000E+00 0.  1.
         21    1    1    2  503  501  0.64222721059E+01 -0.29586051883E+02 -0.34162707085E+02  0.45647240885E+02  0.00000000000E+00 0.  1.
         21    1    1    2  504  502 -0.64222721059E+01  0.29586051883E+02 -0.29487308476E+02  0.42262056341E+02  0.00000000000E+00 0.  1.
</event>
<event>
 4    1  0.3069799E+006  0.2073550E+02  0.7546771E-02  0.1523075E+00
         21   -1    0    0  503  501  0.00000000000E+00  0.00000000000E+00  0.33825154984E+01  0.33825154984E+01  0.00000000000E+00 0.  1.
         21   -1    0    0  504  502 -0.00000000000E+00 -0.00000000000E+00 -0.36070823418E+03  0.36070823418E+03  0.00000000000E+00 0.  1.
         21    1    1    2  503  502  0.15121507769E+02 -0.14188054082E+02 -0.32164137807E+02  0.38268690032E+02  0.00000000000E+00 0.  1.
         21    1    1    2  504  501 -0.15121507769E+02  0.14188054082E+02 -0.32516158087E+03  0.32582205964E+03  0.00000000000E+00 0.  1.
</event>
<event>
 4    1  0.3069799E+006  0.2019841E+02  0.7546771E-02  0.1531024E+00
         21   -1    0    0  504  501  0.00000000000E+00  0.00000000000E+00  0.30404802333E+01  0.30404802333E+01  0.00000000000E+00 0. -1.
         21   -1    0    0  503  502 -0.00000000000E+00 -0.00000000000E+00 -0.18311351404E+03  0.18311351404E+03  0.00000000000E+00 0. -1.
         21    1    1    2  503  501 -0.24349532747E+01 -0.20051108074E+02 -0.13815136279E+03  0.13962010949E+03  0.00000000000E+00 0. -1.
         21    1    1    2  504  502  0.24349532747E+01  0.20051108074E+02 -0.41921671016E+02  0.46533884785E+02  0.00000000000E+00 0. -1.
</event>
<event>
 4    1  0.3069799E+006  0.2374904E+02  0.7546771E-02  0.1483301E+00
         21   -1    0    0  504  501  0.00000000000E+00  0.00000000000E+00  0.56375792204E+03  0.56375792204E+03  0.00000000000E+00 0. -1.
         21   -1    0    0  503  502 -0.00000000000E+00 -0.00000000000E+00 -0.59638542783E+02  0.59638542783E+02  0.00000000000E+00 0.  1.
         21    1    1    2  503  501  0.22249014341E+02 -0.83065273542E+01  0.56113243538E+03  0.56163478086E+03  0.00000000000E+00 0. -1.
         21    1    1    2  504  502 -0.22249014341E+02  0.83065273542E+01 -0.57013056130E+02  0.61761683956E+02  0.00000000000E+00 0.  1.
</event>
<event>
 4    1  0.3069799E+006  0.4740739E+02  0.7546771E-02  0.1309822E+00
         21   -1    0    0  502  501  0.00000000000E+00  0.00000000000E+00  0.47588876851E+02  0.47588876851E+02  0.00000000000E+00 0. -1.
         21   -1    0    0  504  502 -0.00000000000E+00 -0.00000000000E+00 -0.76235987629E+02  0.76235987629E+02  0.00000000000E+00 0. -1.
         21    1    1    2  503  501  0.40844774340E+02 -0.24065853585E+02  0.23867980429E+02  0.53076749989E+02  0.00000000000E+00 0. -1.
         21    1    1    2  504  503 -0.40844774340E+02  0.24065853585E+02 -0.52515091206E+02  0.70748114491E+02  0.00000000000E+00 0. -1.
</event>
<event>
 4    1  0.3069799E+006  0.2105462E+02  0.7546771E-02  0.1518486E+00
         21   -1    0    0  504  501  0.00000000000E+00  0.00000000000E+00  0.10683774455E+03  0.10683774455E+03  0.00000000000E+00 0. -1.
         21   -1    0    0  501  502 -0.00000000000E+00 -0.00000000000E+00 -0.31856578431E+02  0.31856578431E+02  0.00000000000E+00 0. -1.
         21    1    1    2  503  502  0.33484628008E+01  0.20786645515E+02 -0.27182926319E+02  0.34383256364E+02  0.00000000000E+00 0. -1.
         21    1    1    2  504  503 -0.33484628008E+01 -0.20786645515E+02  0.10216409244E+03  0.10431106662E+03  0.00000000000E+00 0. -1.
</event>
<event>
 4    1  0.3069799E+006  0.2600555E+02  0.7546771E-02  0.1457862E+00
         21   -1    0    0  504  501  0.00000000000E+00  0.00000000000E+00  0.12700115641E+03  0.12700115641E+03  0.00000000000E+00 0.  1.
         21   -1    0    0  503  502 -0.00000000000E+00 -0.00000000000E+00 -0.90687345716E+01  0.90687345716E+01  0.00000000000E+00 0.  1.
         21    1    1    2  503  501  0.20762857933E+01  0.25922528578E+02  0.15253484987E+02  0.30148917971E+02  0.00000000000E+00 0.  1.
         21    1    1    2  504  502 -0.20762857933E+01 -0.25922528578E+02  0.10267893685E+03  0.10592097301E+03  0.00000000000E+00 0.  1.
</event>
<event>
 4    1  0.3069799E+006  0.2209898E+02  0.7546771E-02  0.1504133E+00
         21   -1    0    0  503  501  0.00000000000E+00  0.00000000000E+00  0.12154077496E+03  0.12154077496E+03  0.00000000000E+00 0.  1.
         21   -1    0    0  501  502 -0.00000000000E+00 -0.00000000000E+00 -0.48635375846E+02  0.48635375846E+02  0.00000000000E+00 0.  1.
         21    1    1    2  503  504 -0.79337379498E+01 -0.20625734765E+02  0.11795014609E+03  0.12000250870E+03  0.00000000000E+00 0.  1.
         21    1    1    2  504  502  0.79337379498E+01  0.20625734765E+02 -0.45044746972E+02  0.50173642106E+02  0.00000000000E+00 0.  1.
</event>
<event>
 4    1  0.3069799E+006  0.2196260E+02  0.7546771E-02  0.1505953E+00
         21   -1    0    0  503  501  0.00000000000E+00  0.00000000000E+00  0.11837205259E+03  0.11837205259E+03  0.00000000000E+00 0. -1.
         21   -1    0    0  501  502 -0.00000000000E+00 -0.00000000000E+00 -0.10863269957E+02  0.10863269957E+02  0.00000000000E+00 0.  1.
         21    1    1    2  503  504  0.20620941898E+02  0.75585958606E+01  0.10483467952E+03  0.10711053004E+03  0.00000000000E+00 0. -1.
         21    1    1    2  504  502 -0.20620941898E+02 -0.75585958606E+01  0.26741031191E+01  0.22124792510E+02  0.00000000000E+00 0.  1.
</event>
<event>
 4    1  0.3069799E+006  0.3237052E+02  0.7546771E-02  0.1400056E+00
         21   -1    0    0  504  501  0.00000000000E+00  0.00000000000E+00  0.36216207050E+03  0.36216207050E+03  0.00000000000E+00 0. -1.
         21   -1    0    0  501  502 -0.00000000000E+00 -0.00000000000E+00 -0.64248350452E+01  0.64248350452E+01  0.00000000000E+00 0.  1.
         21    1    1    2  503  502 -0.31655984728E+02  0.67638131402E+01  0.41234396966E+02  0.52422571765E+02  0.00000000000E+00 0.  1.
         21    1    1    2  504  503  0.31655984728E+02 -0.67638131402E+01  0.31450283849E+03  0.31616433378E+03  0.00000000000E+00 0. -1.
</event>
<event>
 4    1  0.3069799E+006  0.2047100E+02  0.7546771E-02  0.1526953E+00
         21   -1    0    0  503  501  0.00000000000E+00  0.00000000000E+00  0.37743861865E+02  0.37743861865E+02  0.00000000000E+00 0.  1.
         21   -1    0    0  504  502 -0.00000000000E+00 -0.00000000000E+00 -0.10672049618E+03  0.10672049618E+03  0.00000000000E+00 0.  1.
         21    1    1    2  503  502  0.17124631941E+02 -0.11216455389E+02 -0.10285995380E+03  0.10487722339E+03  0.00000000000E+00 0.  1.
         21    1    1    2  504  501 -0.17124631941E+02  0.11216455389E+02  0.33883319486E+02  0.39587134652E+02  0.00000000000E+00 0.  1.
</event>
<event>
 4    1  0.3069799E+006  0.2253425E+02  0.7546771E-02  0.1498431E+00
         21   -1    0    0  503  501  0.00000000000E+00  0.00000000000E+00  0.71545121170E+01  0.71545121170E+01  0.00000000000E+00 0. -1.
         21   -1    0    0  504  502 -0.00000000000E+00 -0.00000000000E+00 -0.30171448825E+03  0.30171448825E+03  0.00000000000E+00 0. -1.
         21    1    1    2  503  502  0.68788205465E+01  0.21458664867E+02 -0.28233387215E+03  0.28323172110E+03  0.00000000000E+00 0. -1.
         21    1    1    2  504  501 -0.68788205465E+01 -0.21458664867E+02 -0.12226103984E+02  0.25637279275E+02  0.00000000000E+00 0. -1.
</event>
<event>
 4    1  0.3069799E+006  0.3046572E+02  0.7546771E-02  0.1415592E+00
         21   -1    0    0  502  501  0.00000000000E+00  0.00000000000E+00  0.44204572133E+03  0.44204572133E+03  0.00000000000E+00 0. -1.
         21   -1    0    0  503  502 -0.00000000000E+00 -0.00000000000E+00 -0.30743848714E+01  0.30743848714E+01  0.00000000000E+00 0.  1.
         21    1    1    2  503  504  0.25228045044E+02 -0.17079397210E+02  0.94171004623E+02  0.98976452642E+02  0.00000000000E+00 0.  1.
         21    1    1    2  504  501 -0.25228045044E+02  0.17079397210E+02  0.34480033184E+03  0.34614365356E+03  0.00000000000E+00 0. -1.
</event>
<event>
 4    1  0.3069799E+006  0.2605684E+02  0.7546771E-02  0.1457319E+00
         21   -1    0    0  503  501  0.00000000000E+00  0.00000000000E+00  0.12242735599E+01  0.12242735599E+01  0.00000000000E+00 0. -1.
         21   -1    0    0  501  502 -0.00000000000E+00 -0.00000000000E+00 -0.13179700322E+04  0.13179700322E+04  0.00000000000E+00 0. -1.
         21    1    1    2  503  504 -0.12098528171E+02  0.23077787966E+02 -0.15637832831E+03  0.15853435037E+03  0.00000000000E+00 0. -1.
         21    1    1    2  504  502  0.12098528171E+02 -0.23077787966E+02 -0.11603674304E+04  0.11606599554E+04  0.00000000000E+00 0. -1.
</event>
<event>
 4    1  0.3069799E+006  0.2816757E+02  0.7546771E-02  0.1436220E+00
         21   -1    0    0  503  501  0.00000000000E+00  0.00000000000E+00  0.18601585782E+02  0.18601585782E+02  0.00000000000E+00 0. -1.
         21   -1    0    0  504  502 -0.00000000000E+00 -0.00000000000E+00 -0.10289599584E+03  0.10289599584E+03  0.00000000000E+00 0. -1.
         21    1    1    2  503  502 -0.25828016227E+02 -0.11239455831E+02 -0.88629975008E+02  0.92998302455E+02  0.00000000000E+00 0. -1.
         21    1    1    2  504  501  0.25828016227E+02  0.11239455831E+02  0.43355649499E+01  0.28499279166E+02  0.00000000000E+00 0. -1.
</event>
<event>
 4    1  0.3069799E+006  0.2315343E+02  0.7546771E-02  0.1490580E+00
         21   -1    0    0  503  501  0.00000000000E+00  0.00000000000E+00  0.25613111347E+03  0.25613111347E+03  0.00000000000E+00 0. -1.
         21   -1    0    0  504  502 -0.00000000000E+00 -0.00000000000E+00 -0.32589835079E+02  0.32589835079E+02  0.00000000000E+00 0.  1.
         21    1    1    2  503  502  0.20628510925E+02 -0.10514079286E+02  0.25141861174E+03  0.25248247395E+03  0.00000000000E+00 0. -1.
         21    1    1    2  504  501 -0.20628510925E+02  0.10514079286E+02 -0.27877333349E+02  0.36238474593E+02  0.00000000000E+00 0.  1.
</event>
<event>
 4    1  0.3069799E+006  0.2054525E+02  0.7546771E-02  0.1525858E+00
         21   -1    0    0  504  501  0.00000000000E+00  0.00000000000E+00  0.67381911333E+03  0.67381911333E+03  0.00000000000E+00 0. -1.
         21   -1    0    0  503  502 -0.00000000000E+00 -0.00000000000E+00 -0.11259595894E+01  0.11259595894E+01  0.00000000000E+00 0. -1.
         21    1    1    2  503  501 -0.10863564326E+02  0.17438180508E+02  0.56112433996E+03  0.56150034021E+03  0.00000000000E+00 0. -1.
         21    1    1    2  504  502  0.10863564326E+02 -0.17438180508E+02  0.11156881378E+03  0.11344473271E+03  0.00000000000E+00 0. -1.
</event>
<event>
 4    1  0.3069799E+006  0.3939840E+02  0.7546771E-02  0.1352048E+00
         21   -1    0    0  504  501  0.00000000000E+00  0.00000000000E+00  0.39839225498E+02  0.39839225498E+02  0.00000000000E+00 0. -1.
         21   -1    0    0  503  502 -0.00000000000E+00 -0.00000000000E+00 -0.58805242900E+02  0.58805242900E+02  0.00000000000E+00 0. -1.
         21    1    1    2  503  501 -0.29051573335E+02 -0.26612778554E+02  0.19167748163E+02  0.43813656150E+02  0.00000000000E+00 0. -1.
         21    1    1    2  504  502  0.29051573335E+02  0.26612778554E+02 -0.38133765565E+02  0.54830812248E+02  0.00000000000E+00 0. -1.
</event>
<event>
 4    1  0.3069799E+006  0.2179995E+02  0.7546771E-02  0.1508143E+00
         21   -1    0    0  503  501  0.00000000000E+00  0.00000000000E+00  0.16766420785E+02  0.16766420785E+02  0.00000000000E+00 0.  1.
         21   -1    0    0  504  502 -0.00000000000E+00 -0.00000000000E+00 -0.13129847390E+03  0.13129847390E+03  0.00000000000E+00 0.  1.
         21    1    1    2  503  502 -0.19341542700E+02  0.10056972840E+02  0.82901403764E+01  0.23323044488E+02  0.00000000000E+00 0.  1.
         21    1    1    2  504  501  0.19341542700E+02 -0.10056972840E+02 -0.12282219349E+03  0.12474185020E+03  0.00000000000E+00 0.  1.
</event>
<event>
 4    1  0.3069799E+006  0.2373955E+02  0.7546771E-02  0.1483415E+00
         21   -1    0    0  503  501  0.00000000000E+00  0.00000000000E+00  0.26244223837E+02  0.26244223837E+02  0.00000000000E+00 0. -1.
         21   -1    0    0  504  502 -0.00000000000E+00 -0.00000000000E+00 -0.15360814045E+03  0.15360814045E+03  0.00000000000E+00 0. -1.
         21    1    1    2  503  502 -0.17216503668E+02  0.16344976123E+02 -0.14708592396E+03  0.14898937972E+03  0.00000000000E+00 0. -1.
         21    1    1    2  504  501  0.17216503668E+02 -0.16344976123E+02  0.19722007341E+02  0.30862984571E+02  0.00000000000E+00 0. -1.
</event>
<event>
 4    1  0.3069799E+006  0.2775478E+02  0.7546771E-02  0.1440170E+00
         21   -1    0    0  502  501  0.00000000000E+00  0.00000000000E+00  0.37491601676E+01  0.37491601676E+01  0.00000000000E+00 0.  1.
         21   -1    0    0  504  502 -0.00000000000E+00 -0.00000000000E+00 -0.46174003601E+03  0.46174003601E+03  0.00000000000E+00 0.  1.
         21    1    1    2  503  501  0.22986878085E+02  0.15554143049E+02 -0.55602073720E+02  0.62144336283E+02  0.00000000000E+00 0.  1.
         21    1    1    2  504  503 -0.22986878085E+02 -0.15554143049E+02 -0.40238880212E+03  0.40334485990E+03  0.00000000000E+00 0.  1.
</event>
<event>
 4    1  0.3069799E+006  0.3207473E+02  0.7546771E-02  0.1402384E+00
         21   -1    0    0  503  501  0.00000000000E+00  0.00000000000E+00  0.57899866425E+03  0.57899866425E+03  0.00000000000E+00 0. -1.
         21   -1    0    0  504  502 -0.00000000000E+00 -0.00000000000E+00 -0.29274138230E+02  0.29274138230E+02  0.00000000000E+00 0.  1.
         21    1    1    2  503  502 -0.34231707445E+01 -0.31891536779E+02 -0.19899640202E+02  0.37746309704E+02  0.00000000000E+00 0.  1.
         21    1    1    2  504  501  0.34231707445E+01  0.31891536779E+02  0.56962416622E+03  0.57052649278E+03  0.00000000000E+00 0. -1.
</event>
<event>
 4    1  0.3069799E+006  0.2159455E+02  0.7546771E-02  0.1510943E+00
         21   -1    0    0  503  501  0.00000000000E+00  0.00000000000E+00  0.98966931145E+01  0.98966931145E+01  0.00000000000E+00 0.  1.
         21   -1    0    0  504  502 -0.00000000000E+00 -0.00000000000E+00 -0.20623815606E+03  0.20623815606E+03  0.00000000000E+00 0.  1.
         21    1    1    2  503  502 -0.13664501343E+02 -0.16721419492E+02 -0.32477817647E+01  0.21837411778E+02  0.00000000000E+00 0.  1.
         21    1    1    2  504  501  0.13664501343E+02  0.16721419492E+02 -0.19309368118E+03  0.19429743739E+03  0.00000000000E+00 0.  1.
</event>
<event>
 4    1  0.3069799E+006  0.2141692E+02  0.7546771E-02  0.1513395E+00
         21   -1    0    0  503  501  0.00000000000E+00  0.00000000000E+00  0.33506822673E+01  0.33506822673E+01  0.00000000000E+00 0. -1.
         21   -1    0    0  504  502 -0.00000000000E+00 -0.00000000000E+00 -0.14010831899E+03  0.14010831899E+03  0.00000000000E+00 0. -1.
         21    1    1    2  503  502 -0.20146522523E+02  0.72665182070E+01 -0.57512466978E+02  0.61370746407E+02  0.00000000000E+00 0. -1.
         21    1    1    2  504  501  0.20146522523E+02 -0.72665182070E+01 -0.79245169748E+02  0.82088254854E+02  0.00000000000E+00 0. -1.
</event>
<event>
 4    1  0.3069799E+006  0.2026391E+02  0.7546771E-02  0.1530039E+00
         21   -1    0    0  504  501  0.00000000000E+00  0.00000000000E+00  0.23124247974E+01  0.23124247974E+01  0.00000000000E+00 0. -1.
         21   -1    0    0  503  502 -0.00000000000E+00 -0.00000000000E+00 -0.18596301063E+03  0.18596301063E+03  0.00000000000E+00 0. -1.
         21    1    1    2  503  501 -0.10605716281E+02 -0.17266873659E+02 -0.11181976653E+03  0.11364104157E+03  0.00000000000E+00 0. -1.
         21    1    1    2  504  502  0.10605716281E+02  0.17266873659E+02 -0.71830819305E+02  0.74634393853E+02  0.00000000000E+00 0. -1.
</event>
<event>
 4    1  0.3069799E+006  0.3632020E+02  0.7546771E-02  0.1371512E+00
         21   -1    0    0  504  501  0.00000000000E+00  0.00000000000E+00  0.63911488515E+01  0.63911488515E+01  0.00000000000E+00 0. -1.
         21   -1    0    0  503  502 -0.00000000000E+00 -0.00000000000E+00 -0.20728021930E+03  0.20728021930E+03  0.00000000000E+00 0. -1.
         21    1    1    2  503  501  0.35939541255E+02  0.52446692383E+01 -0.10739161397E+03  0.11336717308E+03  0.00000000000E+00 0. -1.
         21    1    1    2  504  502 -0.35939541255E+02 -0.52446692383E+01 -0.93497456482E+02  0.10030419508E+03  0.00000000000E+00 0. -1.
</event>
<event>
 4    1  0.3069799E+006  0.2245923E+02  0.7546771E-02  0.1499403E+00
         21   -1    0    0  504  501  0.00000000000E+00  0.00000000000E+00  0.19559257988E+02  0.19559257988E+02  0.00000000000E+00 0. -1.
         21   -1    0    0  501  502 -0.00000000000E+00 -0.00000000000E+00 -0.88957473089E+02  0.88957473089E+02  0.00000000000E+00 0. -1.
         21    1    1    2  503  502  0.69222411902E+01  0.21365852235E+02 -0.80421093631E+02  0.83498319538E+02  0.00000000000E+00 0. -1.
         21    1    1    2  504  503 -0.69222411902E+01 -0.21365852235E+02  0.11022878531E+02  0.25018411539E+02  0.00000000000E+00 0. -1.
</event>
<event>
 4    1  0.3069799E+006  0.2222833E+02  0.7546771E-02  0.1502422E+00
         21   -1    0    0  504  501  0.00000000000E+00  0.00000000000E+00  0.38827560277E+01  0.38827560277E+01  0.00000000000E+00 0. -1.
         21   -1    0    0  503  502 -0.00000000000E+00 -0.00000000000E+00 -0.12694988062E+04  0.12694988062E+04  0.00000000000E+00 0.  1.
         21    1    1    2  503  501  0.20232263467E+02  0.92061961548E+01 -0.28870664380E+02  0.36436434985E+02  0.00000000000E+00 0. -1.
         21    1    1    2  504  502 -0.20232263467E+02 -0.92061961548E+01 -0.12367453858E+04  0.12369451272E+04  0.00000000000E+00 0.  1.
</event>
<event>
 4    1  0.3069799E+006  0.2498779E+02  0.7546771E-02  0.1468940E+00
         21   -1    0    0  502  501  0.00000000000E+00  0.00000000000E+00  0.50598522263E+02  0.50598522263E+02  0.00000000000E+00 0. -1.
         21   -1    0    0  503  502 -0.00000000000E+00 -0.00000000000E+00 -0.19570968206E+02  0.19570968206E+02  0.00000000000E+00 0.  1.
         21    1    1    2  503  504 -0.87209230753E+01 -0.23416555701E+02 -0.58121605198E+01  0.25654839506E+02  0.00000000000E+00 0.  1.
         21    1    1    2  504  501  0.87209230753E+01  0.23416555701E+02  0.36839714577E+02  0.44514650962E+02  0.00000000000E+00 0. -1.
</event>
<event>
 4    1  0.3069799E+006  0.2048720E+02  0.7546771E-02  0.1526714E+00
         21   -1    0    0  502  501  0.00000000000E+00  0.00000000000E+00  0.54132897025E+03  0.54132897025E+03  0.00000000000E+00 0.  1.
         21   -1    0    0  503  502 -0.00000000000E+00 -0.00000000000E+00 -0.72418006282E+01  0.72418006282E+01  0.00000000000E+00 0. -1.
         21    1    1    2  503  504 -0.16433167192E+02  0.12234227983E+02  0.78573081669E+01  0.21942256264E+02  0.00000000000E+00 0. -1.
         21    1    1    2  504  501  0.16433167192E+02 -0.12234227983E+02  0.52622986146E+03  0.52662851462E+03  0.00000000000E+00 0.  1.
</event>
<event>
 4    1  0.3069799E+006  0.3552666E+02  0.7546771E-02  0.1376898E+00
         21   -1    0    0  504  501  0.00000000000E+00  0.00000000000E+00  0.13290215512E+02  0.13290215512E+02  0.00000000000E+00 0. -1.
         21   -1    0    0  503  502 -0.00000000000E+00 -0.00000000000E+00 -0.17821150228E+03  0.17821150228E+03  0.00000000000E+00 0. -1.
         21    1    1    2  503  501 -0.21812018841E+02 -0.28042453723E+02 -0.14790170559E+03  0.15210870419E+03  0.00000000000E+00 0. -1.
         21    1    1    2  504  502  0.21812018841E+02  0.28042453723E+02 -0.17019581184E+02  0.39393013599E+02  0.00000000000E+00 0. -1.
</event>
<event>
 4    1  0.3069799E+006  0.2121380E+02  0.7546771E-02  0.1516234E+00
         21   -1    0    0  504  501  0.00000000000E+00  0.00000000000E+00  0.31599155453E+03  0.31599155453E+03  0.00000000000E+00 0.  1.
         21   -1    0    0  501  502 -0.00000000000E+00 -0.00000000000E+00 -0.15574794444E+03  0.15574794444E+03  0.00000000000E+00 0. -1.
         21    1    1    2  503  502 -0.15817755952E+02 -0.14135915880E+02 -0.15466706360E+03  0.15611510524E+03  0.00000000000E+00 0. -1.
         21    1    1    2  504  503  0.15817755952E+02  0.14135915880E+02  0.31491067369E+03  0.31562439374E+03  0.00000000000E+00 0.  1.
</event>
<event>
 4    1  0.3069799E+006  0.2279131E+02  0.7546771E-02  0.1495135E+00
         21   -1    0    0  503  501  0.00000000000E+00  0.00000000000E+00  0.15323967249E+03  0.15323967249E+03  0.00000000000E+00 0. -1.
         21   -1    0    0  504  502 -0.00000000000E+00 -0.00000000000E+00 -0.10540483920E+02  0.10540483920E+02  0.00000000000E+00 0.  1.
         21    1    1    2  503  502 -0.16392274722E+02  0.15834684124E+02  0.39004604445E+01  0.23122661688E+02  0.00000000000E+00 0.  1.
         21    1    1    2  504  501  0.16392274722E+02 -0.15834684124E+02  0.13879872812E+03  0.14065749472E+03  0.00000000000E+00 0. -1.
</event>
<event>
 4    1  0.3069799E+006  0.2629888E+02  0.7546771E-02  0.1454781E+00
         21   -1    0    0  504  501  0.00000000000E+00  0.00000000000E+00  0.90564945177E+01  0.90564945177E+01  0.00000000000E+00 0.  1.
         21   -1    0    0  503  502 -0.00000000000E+00 -0.00000000000E+00 -0.76580241677E+02  0.76580241677E+02  0.00000000000E+00 0.  1.
         21    1    1    2  503  501  0.14376244471E+02 -0.22021682893E+02 -0.36013376675E+02  0.44593656747E+02  0.00000000000E+00 0.  1.
         21    1    1    2  504  502 -0.14376244471E+02  0.22021682893E+02 -0.31510370484E+02  0.41043079448E+02  0.00000000000E+00 0.  1.
</event>
<event>
 4    1  0.3069799E+006  0.2312026E+02  0.7546771E-02  0.1490994E+00
         21   -1    0    0  503  501  0.00000000000E+00  0.00000000000E+00  0.43295890857E+03  0.43295890857E+03  0.00000000000E+00 0. -1.
         21   -1    0    0  504  502 -0.00000000000E+00 -0.00000000000E+00 -0.12346550134E+01  0.12346550134E+01  0.00000000000E+00 0. -1.
         21    1    1    2  503  502  0.99976018444E+01 -0.20846923519E+02  0.21499012496E+03  0.21622973915E+03  0.00000000000E+00 0. -1.
         21    1    1    2  504  501 -0.99976018444E+01  0.20846923519E+02  0.21673412860E+03  0.21796382444E+03  0.00000000000E+00 0. -1.
</event>
<event>
 4    1  0.3069799E+006  0.2707894E+02  0.7546771E-02  0.1446817E+00
         21   -1    0    0  503  501  0.00000000000E+00  0.00000000000E+00  0.14092847768E+03  0.14092847768E+03  0.00000000000E+00 0. -1.
         21   -1    0    0  504  502 -0.00000000000E+00 -0.00000000000E+00 -0.40364716307E+02  0.40364716307E+02  0.00000000000E+00 0. -1.
         21    1    1    2  503  502 -0.17239794633E+01 -0.27024004697E+02 -0.34320930410E+02  0.43717218567E+02  0.00000000000E+00 0. -1.
         21    1    1    2  504  501  0.17239794633E+01  0.27024004697E+02  0.13488469178E+03  0.13757597542E+03  0.00000000000E+00 0. -1.
</event>
<event>
 4    1  0.3069799E+006  0.2749675E+02  0.7546771E-02  0.1442681E+00
         21   -1    0    0  504  501  0.00000000000E+00  0.00000000000E+00  0.26034493277E+02  0.26034493277E+02  0.00000000000E+00 0.  1.
         21   -1    0    0  503  502 -0.00000000000E+00 -0.00000000000E+00 -0.73693642400E+03  0.73693642400E+03  0.00000000000E+00 0. -1.
         21    1    1    2  503  501 -0.20731349194E+02 -0.18063291572E+02 -0.72934409655E+03  0.72986223530E+03  0.00000000000E+00 0. -1.
         21    1    1    2  504  502  0.20731349194E+02  0.18063291572E+02  0.18442165828E+02  0.33108681977E+02  0.00000000000E+00 0.  1.
</event>
<event>
 4    1  0.3069799E+006  0.2691305E+02  0.7546771E-02  0.1448483E+00
         21   -1    0    0  504  501  0.00000000000E+00  0.00000000000E+00  0.19543110473E+03  0.19543110473E+03  0.00000000000E+00 0.  1.
         21   -1    0    0  503  502 -0.00000000000E+00 -0.00000000000E+00 -0.14990579891E+02  0.14990579891E+02  0.00000000000E+00 0. -1.
         21    1    1    2  503  501 -0.58508455036E+01  0.26269373804E+02  0.18150319322E+03  0.18348766047E+03  0.00000000000E+00 0.  1.
         21    1    1    2  504  502  0.58508455036E+01 -0.26269373804E+02 -0.10626683834E+01  0.26934024156E+02  0.00000000000E+00 0. -1.
</event>
<event>
 4    1  0.3069799E+006  0.2146525E+02  0.7546771E-02  0.1512725E+00
         21   -1    0    0  503  501  0.00000000000E+00  0.00000000000E+00  0.26128375720E+02  0.26128375720E+02  0.00000000000E+00 0.  1.
         21   -1    0    0  501  502 -0.00000000000E+00 -0.00000000000E+00 -0.84444271450E+02  0.84444271450E+02  0.00000000000E+00 0. -1.
         21    1    1    2  503  504 -0.21416084643E+02  0.14520335806E+01  0.20018038005E+02  0.29350961288E+02  0.00000000000E+00 0.  1.
         21    1    1    2  504  502  0.21416084643E+02 -0.14520335806E+01 -0.78333933735E+02  0.81221685881E+02  0.00000000000E+00 0. -1.
</event>
<event>
 4    1  0.3069799E+006  0.2005020E+02  0.7546771E-02  0.1533270E+00
         21   -1    0    0  503  501  0.00000000000E+00  0.00000000000E+00  0.55776437551E+01  0.55776437551E+01  0.00000000000E+00 0. -1.
         21   -1    0    0  501  502 -0.00000000000E+00 -0.00000000000E+00 -0.72334675658E+03  0.72334675658E+03  0.00000000000E+00 0. -1.
         21    1    1    2  503  504 -0.24634068155E+01 -0.19898298663E+02 -0.13056497700E+02  0.23926612694E+02  0.00000000000E+00 0. -1.
         21    1    1    2  504  502  0.24634068155E+01  0.19898298663E+02 -0.70471261513E+03  0.70499778764E+03  0.00000000000E+00 0. -1.
</event>
<event>
 4    1  0.3069799E+006  0.2704041E+02  0.7546771E-02  0.1447203E+00
         21   -1    0    0  504  501  0.00000000000E+00  0.00000000000E+00  0.14563269231E+03  0.14563269231E+03  0.00000000000E+00 0.  1.
         21   -1    0    0  503  502 -0.00000000000E+00 -0.00000000000E+00 -0.62059945427E+02  0.62059945427E+02  0.00000000000E+00 0. -1.
         21    1    1    2  503  501  0.23195021324E+02  0.13898740325E+02  0.14134345158E+03  0.14390675905E+03  0.00000000000E+00 0.  1.
         21    1    1    2  504  502 -0.23195021324E+02 -0.13898740325E+02 -0.57770704702E+02  0.63785878677E+02  0.00000000000E+00 0. -1.
</event>
<event>
 4    1  0.3069799E+006  0.3626688E+02  0.7546771E-02  0.1371869E+00
         21   -1    0    0  502  501  0.00000000000E+00  0.00000000000E+00  0.33610726920E+02  0.33610726920E+02  0.00000000000E+00 0.  1.
         21   -1    0    0  504  502 -0.00000000000E+00 -0.00000000000E+00 -0.39319702783E+03  0.39319702783E+03  0.00000000000E+00 0. -1.
         21    1    1    2  503  501 -0.31059955751E+02 -0.18723409426E+02  0.22712957065E+02  0.42792117620E+02  0.00000000000E+00 0.  1.
         21    1    1    2  504  503  0.31059955751E+02  0.18723409426E+02 -0.38229925798E+03  0.38401563713E+03  0.00000000000E+00 0. -1.
</event>
<event>
 4    1  0.3069799E+006  0.2542642E+02  0.7546771E-02  0.1464089E+00
         21   -1    0    0  502  501  0.00000000000E+00  0.00000000000E+00  0.72585572326E+01  0.72585572326E+01  0.00000000000E+00 0.  1.
         21   -1    0    0  504  502 -0.00000000000E+00 -0.00000000000E+00 -0.15416031571E+03  0.15416031571E+03  0.00000000000E+00 0.  1.
         21    1    1    2  503  501 -0.61862346074E+01  0.24662388864E+02 -0.21005900247E+02  0.32981066816E+02  0.00000000000E+00 0.  1.
         21    1    1    2  504  503  0.61862346074E+01 -0.24662388864E+02 -0.12589585823E+03  0.12843780613E+03  0.00000000000E+00 0.  1.
</event>
<event>
 4    1  0.3069799E+006  0.2778708E+02  0.7546771E-02  0.1439858E+00
         21   -1    0    0  503  501  0.00000000000E+00  0.00000000000E+00  0.38661045145E+03  0.38661045145E+03  0.00000000000E+00 0. -1.
         21   -1    0    0  501  502 -0.00000000000E+00 -0.00000000000E+00 -0.20197632868E+01  0.20197632868E+01  0.00000000000E+00 0. -1.
         21    1    1    2  503  504  0.88276423686E+01  0.26347571314E+02  0.21285285762E+03  0.21465894060E+03  0.00000000000E+00 0. -1.
         21    1    1    2  504  502 -0.88276423686E+01 -0.26347571314E+02  0.17173783054E+03  0.17397127413E+03  0.00000000000E+00 0. -1.
</event>
<event>
 4    1  0.3069799E+006  0.2899487E+02  0.7546771E-02  0.1428537E+00
         21   -1    0    0  502  501  0.00000000000E+00  0.00000000000E+00  0.10182616988E+02  0.10182616988E+02  0.00000000000E+00 0.  1.
         21   -1    0    0  503  502 -0.00000000000E+00 -0.00000000000E+00 -0.14019133377E+03  0.14019133377E+03  0.00000000000E+00 0.  1.
         21    1    1    2  503  504 -0.12658183469E+02  0.26085871072E+02 -0.11321045420E+03  0.11686449084E+03  0.00000000000E+00 0.  1.
         21    1    1    2  504  501  0.12658183469E+02 -0.26085871072E+02 -0.16798262579E+02  0.33509459918E+02  0.00000000000E+00 0.  1.
</event>
<event>
 4    1  0.3069799E+006  0.2854107E+02  0.7546771E-02  0.1432713E+00
         21   -1    0    0  502  501  0.00000000000E+00  0.00000000000E+00  0.10954401053E+03  0.10954401053E+03  0.00000000000E+00 0. -1.
         21   -1    0    0  504  502 -0.00000000000E+00 -0.00000000000E+00 -0.22269898999E+03  0.22269898999E+03  0.00000000000E+00 0. -1.
         21    1    1    2  503  501  0.89663900113E+01 -0.27096061871E+02  0.10674695452E+03  0.11049662899E+03  0.00000000000E+00 0. -1.
         21    1    1    2  504  503 -0.89663900113E+01  0.27096061871E+02 -0.21990193398E+03  0.22174637153E+03  0.00000000000E+00 0. -1.
</event>
<event>
 4    1  0.3069799E+006  0.2530546E+02  0.7546771E-02  0.1465415E+00
         21   -1    0    0  504  501  0.00000000000E+00  0.00000000000E+00  0.19253050228E+03  0.19253050228E+03  0.00000000000E+00 0. -1.
         21   -1    0    0  503  502 -0.00000000000E+00 -0.00000000000E+00 -0.33435153304E+01  0.33435153304E+01  0.00000000000E+00 0. -1.
         21    1    1    2  503  501  0.39138055725E+01  0.25000972574E+02  0.87515567254E+02  0.91100719072E+02  0.00000000000E+00 0. -1.
         21    1    1    2  504  502 -0.39138055725E+01 -0.25000972574E+02  0.10167141970E+03  0.10477329854E+03  0.00000000000E+00 0. -1.
</event>
<event>
 4    1  0.3069799E+006  0.2521922E+02  0.7546771E-02  0.1466366E+00
         21   -1    0    0  503  501  0.00000000000E+00  0.00000000000E+00  0.23570390282E+01  0.23570390282E+01  0.00000000000E+00 0. -1.
         21   -1    0    0  504  502 -0.00000000000E+00 -0.00000000000E+00 -0.11297384323E+04  0.11297384323E+04  0.00000000000E+00 0.  1.
         21    1    1    2  503  502  0.23594368208E+02 -0.89058941156E+01 -0.69847345318E+02  0.74260762245E+02  0.00000000000E+00 0. -1.
         21    1    1    2  504  501 -0.23594368208E+02  0.89058941156E+01 -0.10575340479E+04  0.10578347091E+04  0.00000000000E+00 0.  1.
</event>
<event>
 4    1  0.3069799E+006  0.2610563E+02  0.7546771E-02  0.1456805E+00
         21   -1    0    0  504  501  0.00000000000E+00  0.00000000000E+00  0.75033470369E+02  0.75033470369E+02  0.00000000000E+00 0. -1.
         21   -1    0    0  503  502 -0.00000000000E+00 -0.00000000000E+00 -0.10218638710E+02  0.10218638710E+02  0.00000000000E+00 0. -1.
         21    1    1    2  503  501  0.10614211109E+02  0.23850422008E+02  0.46619643716E+02  0.53431220159E+02  0.00000000000E+00 0. -1.
         21    1    1    2  504  502 -0.10614211109E+02 -0.23850422008E+02  0.18195187943E+02  0.31820888921E+02  0.00000000000E+00 0. -1.
</event>
<event>
 4    1  0.3069799E+006  0.2383622E+02  0.7546771E-02  0.1482256E+00
         21   -1    0    0  504  501  0.00000000000E+00  0.00000000000E+00  0.51102246869E+01  0.51102246869E+01  0.00000000000E+00 0. -1.
         21   -1    0    0  503  502 -0.00000000000E+00 -0.00000000000E+00 -0.17000365446E+03  0.17000365446E+03  0.00000000000E+00 0. -1.
         21    1    1    2  503  501 -0.21610083526E+02 -0.10058303696E+02 -0.13394940699E+03  0.13605369828E+03  0.00000000000E+00 0. -1.
         21    1    1    2  504  502  0.21610083526E+02  0.10058303696E+02 -0.30944022787E+02  0.39060180869E+02  0.00000000000E+00 0. -1.
</event>
<event>
 4    1  0.3069799E+006  0.2000393E+02  0.7546771E-02  0.1533976E+00
         21   -1    0    0  502  501  0.00000000000E+00  0.00000000000E+00  0.47513105021E+03  0.47513105021E+03  0.00000000000E+00 0.  1.
         21   -1    0    0  503  502 -0.00000000000E+00 -0.00000000000E+00 -0.81311880075E+01  0.81311880075E+01  0.00000000000E+00 0.  1.
         21    1    1    2  503  504  0.18561652033E+02 -0.74580275970E+01  0.47245048512E+01  0.20554270795E+02  0.00000000000E+00 0.  1.
         21    1    1    2  504  501 -0.18561652033E+02  0.74580275970E+01  0.46227535735E+03  0.46270796742E+03  0.00000000000E+00 0.  1.
</event>
<event>
 4    1  0.3069799E+006  0.2047919E+02  0.7546771E-02  0.1526832E+00
         21   -1    0    0  504  501  0.00000000000E+00  0.00000000000E+00  0.84013135091E+00  0.84013135091E+00  0.00000000000E+00 0.  1.
         21   -1    0    0  501  502 -0.00000000000E+00 -0.00000000000E+00 -0.57320405885E+03  0.57320405885E+03  0.00000000000E+00 0.  1.
         21    1    1    2  503  502  0.19781389394E+02  0.53003826935E+01 -0.38930958853E+03  0.38984785897E+03  0.00000000000E+00 0.  1.
         21    1    1    2  504  503 -0.19781389394E+02 -0.53003826935E+01 -0.18305433896E+03  0.18419633122E+03  0.00000000000E+00 0.  1.
</event>
<event>
 4    1  0.3069799E+006  0.2305451E+02  0.7546771E-02  0.1491815E+00
         21   -1    0    0  502  501  0.00000000000E+00  0.00000000000E+00  0.11085048609E+02  0.11085048609E+02  0.00000000000E+00 0.  1.
         21   -1    0    0  503  502 -0.00000000000E+00 -0.00000000000E+00 -0.38943962167E+03  0.38943962167E+03  0.00000000000E+00 0. -1.
         21    1    1    2  503  504 -0.93712009623E+00  0.23035457925E+02 -0.37670651674E+03  0.37741132769E+03  0.00000000000E+00 0. -1.
         21    1    1    2  504  501  0.93712009623E+00 -0.23035457925E+02 -0.16480563207E+01  0.23113342586E+02  0.00000000000E+00 0.  1.
</event>
<event>
 4    1  0.3069799E+006  0.2357708E+02  0.7546771E-02  0.1485376E+00
         21   -1    0    0  503  501  0.00000000000E+00  0.00000000000E+00  0.49843395718E+02  0.49843395718E+02  0.00000000000E+00 0. -1.
         21   -1    0    0  504  502 -0.00000000000E+00 -0.00000000000E+00 -0.45598496186E+02  0.45598496186E+02  0.00000000000E+00 0. -1.
         21    1    1    2  503  502 -0.22459953016E+02  0.71714066688E+01  0.43599049615E+02  0.49565670483E+02  0.00000000000E+00 0. -1.
         21    1    1    2  504  501  0.22459953016E+02 -0.71714066688E+01 -0.39354150084E+02  0.45876221421E+02  0.00000000000E+00 0. -1.
</event>
<event>
 4    1  0.3069799E+006  0.3083586E+02  0.7546771E-02  0.1412469E+00
         21   -1    0    0  503  501  0.00000000000E+00  0.00000000000E+00  0.21413728992E+02  0.21413728992E+02  0.00000000000E+00 0.  1.
         21   -1    0    0  504  502 -0.00000000000E+00 -0.00000000000E+00 -0.71521307844E+02  0.71521307844E+02  0.00000000000E+00 0.  1.
         21    1    1    2  503  502 -0.14873764702E+02 -0.27011500030E+02  0.35587886487E+01  0.31040537800E+02  0.00000000000E+00 0.  1.
         21    1    1    2  504  501  0.14873764702E+02  0.27011500030E+02 -0.53666367500E+02  0.61894499036E+02  0.00000000000E+00 0.  1.
</event>
<event>
 4    1  0.3069799E+006  0.2125245E+02  0.7546771E-02  0.1515691E+00
         21   -1    0    0  504  501  0.00000000000E+00  0.00000000000E+00  0.38539969322E+03  0.38539969322E+03  0.00000000000E+00 0. -1.
         21   -1    0    0  503  502 -0.00000000000E+00 -0.00000000000E+00 -0.34422839229E+02  0.34422839229E+02  0.00000000000E+00 0. -1.
         21    1    1    2  503  501  0.73599447266E+01  0.19937350474E+02  0.38179548101E+03  0.38238652703E+03  0.00000000000E+00 0. -1.
         21    1    1    2  504  502 -0.73599447266E+01 -0.19937350474E+02 -0.30818627023E+02  0.37436005421E+02  0.00000000000E+00 0. -1.
</event>
<event>
 4    1  0.3069799E+006  0.2059312E+02  0.7546771E-02  0.1525154E+00
         21   -1    0    0  504  501  0.00000000000E+00  0.00000000000E+00  0.25138385768E+02  0.25138385768E+02  0.00000000000E+00 0. -1.
         21   -1    0    0  503  502 -0.00000000000E+00 -0.00000000000E+00 -0.54263944543E+02  0.54263944543E+02  0.00000000000E+00 0. -1.
         21    1    1    2  503  501  0.59936898029E+00 -0.20584390756E+02  0.18394405049E+02  0.27612144486E+02  0.00000000000E+00 0. -1.
         21    1    1    2  504  502 -0.59936898029E+00  0.20584390756E+02 -0.47519963825E+02  0.51790185826E+02  0.00000000000E+00 0. -1.
</event>
<event>
 4    1  0.3069799E+006  0.2531739E+02  0.7546771E-02  0.1465284E+00
         21   -1    0    0  504  501  0.00000000000E+00  0.00000000000E+00  0.22287058143E+03  0.22287058143E+03  0.00000000000E+00 0. -1.
         21   -1    0    0  503  502 -0.00000000000E+00 -0.00000000000E+00 -0.25193146211E+02  0.25193146211E+02  0.00000000000E+00 0. -1.
         21    1    1    2  503  501 -0.10974687025E+02  0.22815051301E+02  0.21557655256E+03  0.21705810360E+03  0.00000000000E+00 0. -1.
         21    1    1    2  504  502  0.10974687025E+02 -0.22815051301E+02 -0.17899117340E+02  0.31005624050E+02  0.00000000000E+00 0. -1.
</event>
<event>
 4    1  0.3069799E+006  0.2269704E+02  0.7546771E-02  0.1496338E+00
         21   -1    0    0  502  501  0.00000000000E+00  0.00000000000E+00  0.32932214526E+03  0.32932214526E+03  0.00000000000E+00 0. -1.
         21   -1    0    0  504  502 -0.00000000000E+00 -0.00000000000E+00 -0.40533040323E+02  0.40533040323E+02  0.00000000000E+00 0. -1.
         21    1    1    2  503  501  0.22544208470E+02 -0.26295074161E+01  0.32571858140E+03  0.32650842242E+03  0.00000000000E+00 0. -1.
         21    1    1    2  504  503 -0.22544208470E+02  0.26295074161E+01 -0.36929476461E+02  0.43346763161E+02  0.00000000000E+00 0. -1.
</event>
<event>
 4    1  0.3069799E+006  0.3451829E+02  0.7546771E-02  0.1383982E+00
         21   -1    0    0  502  501  0.00000000000E+00  0.00000000000E+00  0.50334760886E+02  0.50334760886E+02  0.00000000000E+00 0.  1.
         21   -1    0    0  503  502 -0.00000000000E+00 -0.00000000000E+00 -0.11991034529E+03  0.11991034529E+03  0.00000000000E+00 0. -1.
         21    1    1    2  503  504  0.23714101090E+02 -0.25082930639E+02 -0.11104676417E+03  0.11628798662E+03  0.00000000000E+00 0. -1.
         21    1    1    2  504  501 -0.23714101090E+02  0.25082930639E+02  0.41471179763E+02  0.53957119557E+02  0.00000000000E+00 0.  1.
</event>
<event>
 4    1  0.3069799E+006  0.2203705E+02  0.7546771E-02  0.1504957E+00
         21   -1    0    0  504  501  0.00000000000E+00  0.00000000000E+00  0.92612260720E+03  0.92612260720E+03  0.00000000000E+00 0. -1.
         21   -1    0    0  503  502 -0.00000000000E+00 -0.00000000000E+00 -0.61964128398E+00  0.61964128398E+00  0.00000000000E+00 0. -1.
         21    1    1    2  503  501  0.16111885177E+02  0.15034579541E+02  0.64444462575E+03  0.64482129857E+03  0.00000000000E+00 0. -1.
         21    1    1    2  504  502 -0.16111885177E+02 -0.15034579541E+02  0.28105834016E+03  0.28192094991E+03  0.00000000000E+00 0. -1.
</event>
<event>
 4    1  0.3069799E+006  0.2374844E+02  0.7546771E-02  0.1483308E+00
         21   -1    0    0  503  501  0.00000000000E+00  0.00000000000E+00  0.13947891308E+03  0.13947891308E+03  0.00000000000E+00 0.  1.
         21   -1    0    0  504  502 -0.00000000000E+00 -0.00000000000E+00 -0.40215399404E+02  0.40215399404E+02  0.00000000000E+00 0. -1.
         21    1    1    2  503  502 -0.18186643968E+02  0.15272019161E+02  0.13484234415E+03  0.13691766271E+03  0.00000000000E+00 0.  1.
         21    1    1    2  504  501  0.18186643968E+02 -0.15272019161E+02 -0.35578830470E+02  0.42776649771E+02  0.00000000000E+00 0. -1.
</event>
<event>
 4    1  0.3069799E+006  0.2143877E+02  0.7546771E-02  0.1513092E+00
         21   -1    0    0  503  501  0.00000000000E+00  0.00000000000E+00  0.22743960492E+01  0.22743960492E+01  0.00000000000E+00 0. -1.
         21   -1    0    0  504  502 -0.00000000000E+00 -0.00000000000E+00 -0.30149212417E+03  0.30149212417E+03  0.00000000000E+00 0.  1.
         21    1    1    2  503  502 -0.19256133293E+02  0.94245438647E+01 -0.23682187572E+03  0.23779028895E+03  0.00000000000E+00 0.  1.
         21    1    1    2  504  501  0.19256133293E+02 -0.94245438647E+01 -0.62395852397E+02  0.65976231272E+02  0.00000000000E+00 0. -1.
</event>
<event>
 4    1  0.3069799E+006  0.2189353E+02  0.7546771E-02  0.1506880E+00
         21   -1    0    0  503  501  0.00000000000E+00  0.00000000000E+00  0.13149972564E+02  0.13149972564E+02  0.00000000000E+00 0. -1.
         21   -1    0    0  504  502 -0.00000000000E+00 -0.00000000000E+00 -0.36611393375E+02  0.36611393375E+02  0.00000000000E+00 0. -1.
         21    1    1    2  503  502  0.11294800863E+02 -0.18755106078E+02 -0.13378752503E+02  0.25657699606E+02  0.00000000000E+00 0. -1.
         21    1    1    2  504  501 -0.11294800863E+02  0.18755106078E+02 -0.10082668307E+02  0.24103666334E+02  0.00000000000E+00 0. -1.
</event>
<event>
 4    1  0.3069799E+006  0.2080394E+02  0.7546771E-02  0.1522083E+00
         21   -1    0    0  503  501  0.00000000000E+00  0.00000000000E+00  0.85239285359E+01  0.85239285359E+01  0.00000000000E+00 0. -1.
         21   -1    0    0  504  502 -0.00000000000E+00 -0.00000000000E+00 -0.92826062241E+02  0.92826062241E+02  0.00000000000E+00 0.  1.
         21    1    1    2  503  502 -0.11021882602E+02  0.17644315098E+02 -0.80438357393E+01  0.22304865943E+02  0.00000000000E+00 0. -1.
         21    1    1    2  504  501  0.11021882602E+02 -0.17644315098E+02 -0.76258297966E+02  0.79045124834E+02  0.00000000000E+00 0.  1.
</event>
<event>
 4    1  0.3069799E+006  0.2263982E+02  0.7546771E-02  0.1497071E+00
         21   -1    0    0  503  501  0.00000000000E+00  0.00000000000E+00  0.21180932445E+02  0.21180932445E+02  0.00000000000E+00 0.  1.
         21   -1    0    0  504  502 -0.00000000000E+00 -0.00000000000E+00 -0.32049723796E+02  0.32049723796E+02  0.00000000000E+00 0.  1.
         21    1    1    2  503  502  0.14581986957E+02 -0.17318399877E+02  0.77381402372E+01  0.23925721143E+02  0.00000000000E+00 0.  1.
         21    1    1    2  504  501 -0.14581986957E+02  0.17318399877E+02 -0.18606931589E+02  0.29304935097E+02  0.00000000000E+00 0.  1.
</event>
<event>
 4    1  0.3069799E+006  0.3000278E+02  0.7546771E-02  0.1419572E+00
         21   -1    0    0  502  501  0.00000000000E+00  0.00000000000E+00  0.41337858278E+03  0.41337858278E+03  0.00000000000E+00 0.  1.
         21   -1    0    0  503  502 -0.00000000000E+00 -0.00000000000E+00 -0.31288300999E+01  0.31288300999E+01  0.00000000000E+00 0. -1.
         21    1    1    2  503  504 -0.16004540610E+02 -0.25377575757E+02  0.90296784623E+02  0.95150806538E+02  0.00000000000E+00 0. -1.
         21    1    1    2  504  501  0.16004540610E+02  0.25377575757E+02  0.31995296806E+03  0.32135660634E+03  0.00000000000E+00 0.  1.
</event>
<event>
 4    1  0.3069799E+006  0.7177467E+02  0.7546771E-02  0.1224349E+00
         21   -1    0    0  504  501  0.00000000000E+00  0.00000000000E+00  0.15007243928E+03  0.15007243928E+03  0.00000000000E+00 0.  1.
         21   -1    0    0  501  502 -0.00000000000E+00 -0.00000000000E+00 -0.15776434397E+03  0.15776434397E+03  0.00000000000E+00 0.  1.
         21    1    1    2  503  502  0.70383621976E+02 -0.14062350172E+02 -0.13999311149E+03  0.15732029494E+03  0.00000000000E+00 0.  1.
         21    1    1    2  504  503 -0.70383621976E+02  0.14062350172E+02  0.13230120679E+03  0.15051648831E+03  0.00000000000E+00 0.  1.
</event>
<event>
 4    1  0.3069799E+006  0.2192567E+02  0.7546771E-02  0.1506448E+00
         21   -1    0    0  502  501  0.00000000000E+00  0.00000000000E+00  0.38602181546E+02  0.38602181546E+02  0.00000000000E+00 0.  1.
         21   -1    0    0  503  502 -0.00000000000E+00 -0.00000000000E+00 -0.83775136335E+02  0.83775136335E+02  0.00000000000E+00 0. -1.
         21    1    1    2  503  504 -0.97604070154E+01  0.19633371425E+02 -0.79044259265E+02  0.82028834817E+02  0.00000000000E+00 0. -1.
         21    1    1    2  504  501  0.97604070154E+01 -0.19633371425E+02  0.33871304477E+02  0.40348483064E+02  0.00000000000E+00 0.  1.
</event>
<event>
 4    1  0.3069799E+006  0.2052121E+02  0.7546771E-02  0.1526212E+00
         21   -1    0    0  504  501  0.00000000000E+00  0.00000000000E+00  0.61068734755E+01  0.61068734755E+01  0.00000000000E+00 0. -1.
         21   -1    0    0  503  502 -0.00000000000E+00 -0.00000000000E+00 -0.37239220927E+03  0.37239220927E+03  0.00000000000E+00 0. -1.
         21    1    1    2  503  501 -0.12371632523E+02  0.16372619305E+02 -0.12311716887E+02  0.23931116290E+02  0.00000000000E+00 0. -1.
         21    1    1    2  504  502  0.12371632523E+02 -0.16372619305E+02 -0.35397361890E+03  0.35456796645E+03  0.00000000000E+00 0. -1.
</event>
<event>
 4    1  0.3069799E+006  0.2416158E+02  0.7546771E-02  0.1478405E+00
         21   -1    0    0  504  501  0.00000000000E+00  0.00000000000E+00  0.31259943471E+03  0.31259943471E+03  0.00000000000E+00 0. -1.
         21   -1    0    0  503  502 -0.00000000000E+00 -0.00000000000E+00 -0.79996120258E+01  0.79996120258E+01  0.00000000000E+00 0. -1.
         21    1    1    2  503  501  0.23857174631E+02 -0.38232156349E+01  0.29264672160E+03  0.29364244486E+03  0.00000000000E+00 0. -1.
         21    1    1    2  504  502 -0.23857174631E+02  0.38232156349E+01  0.11953101081E+02  0.26956601874E+02  0.00000000000E+00 0. -1.
</event>
<event>
 4    1  0.3069799E+006  0.2856752E+02  0.7546771E-02  0.1432467E+00
         21   -1    0    0  504  501  0.00000000000E+00  0.00000000000E+00  0.34916791409E+02  0.34916791409E+02  0.00000000000E+00 0. -1.
         21   -1    0    0  503  502 -0.00000000000E+00 -0.00000000000E+00 -0.11500564738E+03  0.11500564738E+03  0.00000000000E+00 0.  1.
         21    1    1    2  503  501 -0.28368396465E+02 -0.33671255818E+01  0.26867359488E+02  0.39216813467E+02  0.00000000000E+00 0. -1.
         21    1    1    2  504  502  0.28368396465E+02  0.33671255818E+01 -0.10695621546E+03  0.11070562532E+03  0.00000000000E+00 0.  1.
</event>
<event>
 4    1  0.3069799E+006  0.2349771E+02  0.7546771E-02  0.1486341E+00
         21   -1    0    0  503  501  0.00000000000E+00  0.00000000000E+00  0.29881928239E+01  0.29881928239E+01  0.00000000000E+00 0. -1.
         21   -1    0    0  501  502 -0.00000000000E+00 -0.00000000000E+00 -0.36936434397E+03  0.36936434397E+03  0.00000000000E+00 0.  1.
         21    1    1    2  503  504  0.19613691637E+02  0.12940074894E+02 -0.51574556708E+02  0.56675191552E+02  0.00000000000E+00 0. -1.
         21    1    1    2  504  502 -0.19613691637E+02 -0.12940074894E+02 -0.31480159444E+03  0.31567734524E+03  0.00000000000E+00 0.  1.
</event>
<event>
 4    1  0.3069799E+006  0.2896069E+02  0.7546771E-02  0.1428848E+00
         21   -1    0    0  503  501  0.00000000000E+00  0.00000000000E+00  0.30322848737E+01  0.30322848737E+01  0.00000000000E+00 0.  1.
         21   -1    0    0  504  502 -0.00000000000E+00 -0.00000000000E+00 -0.32036689157E+03  0.32036689157E+03  0.00000000000E+00 0.  1.
         21    1    1    2  503  502  0.25166711640E+02 -0.14330318084E+02 -0.21843575850E+03  0.22034723049E+03  0.00000000000E+00 0.  1.
         21    1    1    2  504  501 -0.25166711640E+02  0.14330318084E+02 -0.98898848188E+02  0.10305194595E+03  0.00000000000E+00 0.  1.
</event>
<event>
 4    1  0.3069799E+006  0.2022871E+02  0.7546771E-02  0.1530568E+00
         21   -1    0    0  504  501  0.00000000000E+00  0.00000000000E+00  0.31723289597E+02  0.31723289597E+02  0.00000000000E+00 0.  1.
         21   -1    0    0  503  502 -0.00000000000E+00 -0.00000000000E+00 -0.13088764021E+02  0.13088764021E+02  0.00000000000E+00 0.  1.
         21    1    1    2  503  501 -0.20227558868E+02 -0.21622068802E+00  0.12014654018E+02  0.23527702827E+02  0.00000000000E+00 0.  1.
         21    1    1    2  504  502  0.20227558868E+02  0.21622068802E+00  0.66198715583E+01  0.21284350791E+02  0.00000000000E+00 0.  1.
</event>
<event>
 4    1  0.3069799E+006  0.2823040E+02  0.7546771E-02  0.1435625E+00
         21   -1    0    0  503  501  0.00000000000E+00  0.00000000000E+00  0.12381757889E+03  0.12381757889E+03  0.00000000000E+00 0. -1.
         21   -1    0    0  501  502 -0.00000000000E+00 -0.00000000000E+00 -0.65381207316E+01  0.65381207316E+01  0.00000000000E+00 0.  1.
         21    1    1    2  503  504 -0.76336341390E+01  0.27178727704E+02  0.66764287482E+02  0.72487417479E+02  0.00000000000E+00 0. -1.
         21    1    1    2  504  502  0.76336341390E+01 -0.27178727704E+02  0.50515170680E+02  0.57868282147E+02  0.00000000000E+00 0.  1.
</event>
<event>
 4    1  0.3069799E+006  0.3782004E+02  0.7546771E-02  0.1361756E+00
         21   -1    0    0  504  501  0.00000000000E+00  0.00000000000E+00  0.22178371495E+02  0.22178371495E+02  0.00000000000E+00 0.  1.
         21   -1    0    0  503  502 -0.00000000000E+00 -0.00000000000E+00 -0.66614505977E+02  0.66614505977E+02  0.00000000000E+00 0.  1.
         21    1    1    2  503  501  0.37819876928E+02  0.11216656762E+00 -0.14295638276E+02  0.40431682452E+02  0.00000000000E+00 0.  1.
         21    1    1    2  504  502 -0.37819876928E+02 -0.11216656762E+00 -0.30140496206E+02  0.48361195020E+02  0.00000000000E+00 0.  1.
</event>
<event>
 4    1  0.3069799E+006  0.2988682E+02  0.7546771E-02  0.1420583E+00
         21   -1    0    0  504  501  0.00000000000E+00  0.00000000000E+00  0.13585682807E+02  0.13585682807E+02  0.00000000000E+00 0.  1.
         21   -1    0    0  503  502 -0.00000000000E+00 -0.00000000000E+00 -0.64065212401E+03  0.64065212401E+03  0.00000000000E+00 0. -1.
         21    1    1    2  503  501  0.29644627023E+02  0.37971481430E+01 -0.62341245554E+03  0.62412844189E+03  0.00000000000E+00 0. -1.
         21    1    1    2  504  502 -0.29644627023E+02 -0.37971481430E+01 -0.36539856602E+01  0.30109364932E+02  0.00000000000E+00 0.  1.
</event>
<event>
 4    1  0.3069799E+006  0.3249517E+02  0.7546771E-02  0.1399083E+00
         21   -1    0    0  502  501  0.00000000000E+00  0.00000000000E+00  0.27249505596E+02  0.27249505596E+02  0.00000000000E+00 0.  1.
         21   -1    0    0  504  502 -0.00000000000E+00 -0.00000000000E+00 -0.57347238714E+03  0.57347238714E+03  0.00000000000E+00 0. -1.
         21    1    1    2  503  501 -0.23121727612E+02 -0.22832469914E+02  0.16924039775E+02  0.36638219013E+02  0.00000000000E+00 0.  1.
         21    1    1    2  504  503  0.23121727612E+02  0.22832469914E+02 -0.56314692132E+03  0.56408367372E+03  0.00000000000E+00 0. -1.
</event>
<event>
 4    1  0.3069799E+006  0.2307268E+02  0.7546771E-02  0.1491588E+00
         21   -1    0    0  504  501  0.00000000000E+00  0.00000000000E+00  0.21660467330E+03  0.21660467330E+03  0.00000000000E+00 0.  1.
         21   -1    0    0  503  502 -0.00000000000E+00 -0.00000000000E+00 -0.90460229298E+01  0.90460229298E+01  0.00000000000E+00 0.  1.
         21    1    1    2  503  501 -0.56373405725E+01 -0.22373397702E+02  0.74928260335E+01  0.24258832936E+02  0.00000000000E+00 0.  1.
         21    1    1    2  504  502  0.56373405725E+01  0.22373397702E+02  0.20006582433E+03  0.20139186329E+03  0.00000000000E+00 0.  1.
</event>
<event>
 4    1  0.3069799E+006  0.2260865E+02  0.7546771E-02  0.1497472E+00
         21   -1    0    0  502  501  0.00000000000E+00  0.00000000000E+00  0.13859816363E+02  0.13859816363E+02  0.00000000000E+00 0.  1.
         21   -1    0    0  503  502 -0.00000000000E+00 -0.00000000000E+00 -0.63626655929E+02  0.63626655929E+02  0.00000000000E+00 0. -1.
         21    1    1    2  503  504  0.41240178431E+01  0.22229343516E+02 -0.50002884575E+02  0.54876586101E+02  0.00000000000E+00 0. -1.
         21    1    1    2  504  501 -0.41240178431E+01 -0.22229343516E+02  0.23604500878E+00  0.22609886191E+02  0.00000000000E+00 0.  1.
</event>
<event>
 4    1  0.3069799E+006  0.2306805E+02  0.7546771E-02  0.1491645E+00
         21   -1    0    0  503  501  0.00000000000E+00  0.00000000000E+00  0.24640623732E+02  0.24640623732E+02  0.00000000000E+00 0.  1.
         21   -1    0    0  501  502 -0.00000000000E+00 -0.00000000000E+00 -0.34239689532E+02  0.34239689532E+02  0.00000000000E+00 0. -1.
         21    1    1    2  503  504 -0.20725843303E+02  0.10127909507E+02  0.13090648839E+02  0.26523578541E+02  0.00000000000E+00 0.  1.
         21    1    1    2  504  502  0.20725843303E+02 -0.10127909507E+02 -0.22689714639E+02  0.32356734723E+02  0.00000000000E+00 0. -1.
</event>
<event>
 4    1  0.3069799E+006  0.2597827E+02  0.7546771E-02  0.1458151E+00
         21   -1    0    0  504  501  0.00000000000E+00  0.00000000000E+00  0.86850703581E+01  0.86850703581E+01  0.00000000000E+00 0. -1.
         21   -1    0    0  503  502 -0.00000000000E+00 -0.00000000000E+00 -0.10577371248E+03  0.10577371248E+03  0.00000000000E+00 0. -1.
         21    1    1    2  503  501 -0.74365386874E+01 -0.24891131246E+02 -0.19063195799E+02  0.32222289745E+02  0.00000000000E+00 0. -1.
         21    1    1    2  504  502  0.74365386874E+01  0.24891131246E+02 -0.78025446321E+02  0.82236493091E+02  0.00000000000E+00 0. -1.
</event>
<event>
 4    1  0.3069799E+006  0.2546245E+02  0.7546771E-02  0.1463696E+00
         21   -1    0    0  504  501  0.00000000000E+00  0.00000000000E+00  0.19093022563E+02  0.19093022563E+02  0.00000000000E+00 0.  1.
         21   -1    0    0  503  502 -0.00000000000E+00 -0.00000000000E+00 -0.34982571567E+02  0.34982571567E+02  0.00000000000E+00 0.  1.
         21    1    1    2  503  501  0.90586580770E+01 -0.23796579812E+02 -0.12574837088E+02  0.28398292637E+02  0.00000000000E+00 0.  1.
         21    1    1    2  504  502 -0.90586580770E+01  0.23796579812E+02 -0.33147119157E+01  0.25677301493E+02  0.00000000000E+00 0.  1.
</event>
<event>
 4    1  0.3069799E+006  0.3615463E+02  0.7546771E-02  0.1372623E+00
         21   -1    0    0  502  501  0.00000000000E+00  0.00000000000E+00  0.44959587426E+03  0.44959587426E+03  0.00000000000E+00 0. -1.
         21   -1    0    0  504  502 -0.00000000000E+00 -0.00000000000E+00 -0.11569325615E+02  0.11569325615E+02  0.00000000000E+00 0. -1.
         21    1    1    2  503  501 -0.26959678073E+02  0.24090098349E+02  0.41853014341E+03  0.42008884539E+03  0.00000000000E+00 0. -1.
         21    1    1    2  504  503  0.26959678073E+02 -0.24090098349E+02  0.19496405231E+02  0.41076354479E+02  0.00000000000E+00 0. -1.
</event>
<event>
 4    1  0.3069799E+006  0.4890718E+02  0.7546771E-02  0.1302981E+00
         21   -1    0    0  503  501  0.00000000000E+00  0.00000000000E+00  0.57917661363E+02  0.57917661363E+02  0.00000000000E+00 0. -1.
         21   -1    0    0  504  502 -0.00000000000E+00 -0.00000000000E+00 -0.17950743243E+03  0.17950743243E+03  0.00000000000E+00 0.  1.
         21    1    1    2  503  502  0.30387408819E+02  0.38321236852E+02 -0.16496028436E+03  0.17205756951E+03  0.00000000000E+00 0.  1.
         21    1    1    2  504  501 -0.30387408819E+02 -0.38321236852E+02  0.43370513290E+02  0.65367524289E+02  0.00000000000E+00 0. -1.
</event>
<event>
 4    1  0.3069799E+006  0.2150310E+02  0.7546771E-02  0.1512202E+00
         21   -1    0    0  503  501  0.00000000000E+00  0.00000000000E+00  0.75397279630E+02  0.75397279630E+02  0.00000000000E+00 0.  1.
         21   -1    0    0  501  502 -0.00000000000E+00 -0.00000000000E+00 -0.18000190518E+02  0.18000190518E+02  0.00000000000E+00 0.  1.
         21    1    1    2  503  504 -0.70001166487E+01  0.20331794901E+02  0.66616710109E+02  0.70001211295E+02  0.00000000000E+00 0.  1.
         21    1    1    2  504  502  0.70001166487E+01 -0.20331794901E+02 -0.92196209968E+01  0.23396258853E+02  0.00000000000E+00 0.  1.
</event>
<event>
 4    1  0.3069799E+006  0.2870334E+02  0.7546771E-02  0.1431209E+00
         21   -1    0    0  503  501  0.00000000000E+00  0.00000000000E+00  0.11683467025E+02  0.11683467025E+02  0.00000000000E+00 0. -1.
         21   -1    0    0  501  502 -0.00000000000E+00 -0.00000000000E+00 -0.78654267257E+02  0.78654267257E+02  0.00000000000E+00 0.  1.
         21    1    1    2  503  504 -0.98250035829E+01  0.26969441731E+02 -0.18956895689E+02  0.34398333926E+02  0.00000000000E+00 0. -1.
         21    1    1    2  504  502  0.98250035829E+01 -0.26969441731E+02 -0.48013904544E+02  0.55939400356E+02  0.00000000000E+00 0.  1.
</event>
<event>
 4    1  0.3069799E+006  0.4792616E+02  0.7546771E-02  0.1307423E+00
         21   -1    0    0  502  501  0.00000000000E+00  0.00000000000E+00  0.63818866545E+02  0.63818866545E+02  0.00000000000E+00 0. -1.
         21   -1    0    0  503  502 -0.00000000000E+00 -0.00000000000E+00 -0.31666391077E+03  0.31666391077E+03  0.00000000000E+00 0. -1.
         21    1    1    2  503  504  0.85856577996E+01  0.47150856234E+02 -0.30552674533E+03  0.30926284755E+03  0.00000000000E+00 0. -1.
         21    1    1    2  504  501 -0.85856577996E+01 -0.47150856234E+02  0.52681701108E+02  0.71219929760E+02  0.00000000000E+00 0. -1.
</event>
<event>
 4    1  0.3069799E+006  0.2064847E+02  0.7546771E-02  0.1524343E+00
         21   -1    0    0  503  501  0.00000000000E+00  0.00000000000E+00  0.85495432723E+01  0.85495432723E+01  0.00000000000E+00 0.  1.
         21   -1    0    0  504  502 -0.00000000000E+00 -0.00000000000E+00 -0.57446365173E+02  0.57446365173E+02  0.00000000000E+00 0. -1.
         21    1    1    2  503  502 -0.87303414290E+01 -0.18712043688E+02 -0.36432561283E+02  0.41877093525E+02  0.00000000000E+00 0. -1.
         21    1    1    2  504  501  0.87303414290E+01  0.18712043688E+02 -0.12464260618E+02  0.24118814921E+02  0.00000000000E+00 0.  1.
</event>
<event>
 4    1  0.3069799E+006  0.2615170E+02  0.7546771E-02  0.1456321E+00
         21   -1    0    0  504  501  0.00000000000E+00  0.00000000000E+00  0.42570343536E+02  0.42570343536E+02  0.00000000000E+00 0.  1.
         21   -1    0    0  503  502 -0.00000000000E+00 -0.00000000000E+00 -0.18103392052E+02  0.18103392052E+02  0.00000000000E+00 0.  1.
         21    1    1    2  503  501  0.13279071153E+02  0.22529484675E+02  0.22412062079E+02  0.34441427628E+02  0.00000000000E+00 0.  1.
         21    1    1    2  504  502 -0.13279071153E+02 -0.22529484675E+02  0.20548894054E+01  0.26232307960E+02  0.00000000000E+00 0.  1.
</event>
<event>
 4    1  0.3069799E+006  0.2920944E+02  0.7546771E-02  0.1426593E+00
         21   -1    0    0  504  501  0.00000000000E+00  0.00000000000E+00  0.21343191613E+02  0.21343191613E+02  0.00000000000E+00 0. -1.
         21   -1    0    0  503  502 -0.00000000000E+00 -0.00000000000E+00 -0.44145902576E+02  0.44145902576E+02  0.00000000000E+00 0.  1.
         21    1    1    2  503  501 -0.18475408666E+02 -0.22624114515E+02 -0.13363122495E+01  0.29239989969E+02  0.00000000000E+00 0. -1.
         21    1    1    2  504  502  0.18475408666E+02  0.22624114515E+02 -0.21466398714E+02  0.36249104220E+02  0.00000000000E+00 0.  1.
</event>
<event>
 4    1  0.3069799E+006  0.2221445E+02  0.7546771E-02  0.1502605E+00
         21   -1    0    0  502  501  0.00000000000E+00  0.00000000000E+00  0.53464037714E+02  0.53464037714E+02  0.00000000000E+00 0. -1.
         21   -1    0    0  504  502 -0.00000000000E+00 -0.00000000000E+00 -0.12877424718E+02  0.12877424718E+02  0.00000000000E+00 0. -1.
         21    1    1    2  503  501  0.19950044284E+02 -0.97712691688E+01  0.37946520789E+02  0.43970676685E+02  0.00000000000E+00 0. -1.
         21    1    1    2  504  503 -0.19950044284E+02  0.97712691688E+01  0.26400922060E+01  0.22370785747E+02  0.00000000000E+00 0. -1.
</event>
<event>
 4    1  0.3069799E+006  0.2671142E+02  0.7546771E-02  0.1450529E+00
         21   -1    0    0  504  501  0.00000000000E+00  0.00000000000E+00  0.31810689417E+01  0.31810689417E+01  0.00000000000E+00 0. -1.
         21   -1    0    0  503  502 -0.00000000000E+00 -0.00000000000E+00 -0.24459065262E+03  0.24459065262E+03  0.00000000000E+00 0. -1.
         21    1    1    2  503  501 -0.25788189508E+02  0.69619920794E+01 -0.85018949906E+02  0.89116339102E+02  0.00000000000E+00 0. -1.
         21    1    1    2  504  502  0.25788189508E+02 -0.69619920794E+01 -0.15639063377E+03  0.15865538246E+03  0.00000000000E+00 0. -1.
</event>
<event>
 4    1  0.3069799E+006  0.2540737E+02  0.7546771E-02  0.1464297E+00
         21   -1    0    0  504  501  0.00000000000E+00  0.00000000000E+00  0.70794697839E+03  0.70794697839E+03  0.00000000000E+00 0.  1.
         21   -1    0    0  503  502 -0.00000000000E+00 -0.00000000000E+00 -0.10245443700E+01  0.10245443700E+01  0.00000000000E+00 0.  1.
         21    1    1    2  503  501  0.21849694414E+02 -0.12966315319E+02  0.23588932718E+03  0.23725368101E+03  0.00000000000E+00 0.  1.
         21    1    1    2  504  502 -0.21849694414E+02  0.12966315319E+02  0.47103310684E+03  0.47171784174E+03  0.00000000000E+00 0.  1.
</event>
<event>
 4    1  0.3069799E+006  0.2452411E+02  0.7546771E-02  0.1474198E+00
         21   -1    0    0  504  501  0.00000000000E+00  0.00000000000E+00  0.31807531001E+02  0.31807531001E+02  0.00000000000E+00 0.  1.
         21   -1    0    0  503  502 -0.00000000000E+00 -0.00000000000E+00 -0.19569413930E+02  0.19569413930E+02  0.00000000000E+00 0.  1.
         21    1    1    2  503  501  0.24449887365E+02 -0.19065315920E+01  0.13980960173E+01  0.24563927360E+02  0.00000000000E+00 0.  1.
         21    1    1    2  504  502 -0.24449887365E+02  0.19065315920E+01  0.10840021054E+02  0.26813017572E+02  0.00000000000E+00 0.  1.
</event>
<event>
 4    1  0.3069799E+006  0.2632717E+02  0.7546771E-02  0.1454486E+00
         21   -1    0    0  503  501  0.00000000000E+00  0.00000000000E+00  0.10863086643E+02  0.10863086643E+02  0.00000000000E+00 0. -1.
         21   -1    0    0  504  502 -0.00000000000E+00 -0.00000000000E+00 -0.15038340767E+03  0.15038340767E+03  0.00000000000E+00 0. -1.
         21    1    1    2  503  502  0.13775393283E+02 -0.22435654059E+02 -0.85864336702E+01  0.27692000223E+02  0.00000000000E+00 0. -1.
         21    1    1    2  504  501 -0.13775393283E+02  0.22435654059E+02 -0.13093388735E+03  0.13355449409E+03  0.00000000000E+00 0. -1.
</event>
<event>
 4    1  0.3069799E+006  0.2325592E+02  0.7546771E-02  0.1489309E+00
         21   -1    0    0  502  501  0.00000000000E+00  0.00000000000E+00  0.48865545482E+01  0.48865545482E+01  0.00000000000E+00 0. -1.
         21   -1    0    0  504  502 -0.00000000000E+00 -0.00000000000E+00 -0.26505410443E+03  0.26505410443E+03  0.00000000000E+00 0. -1.
         21    1    1    2  503  501  0.19739238388E+02 -0.12296358827E+02 -0.27078382575E+02  0.35694212071E+02  0.00000000000E+00 0. -1.
         21    1    1    2  504  503 -0.19739238388E+02  0.12296358827E+02 -0.23308916731E+03  0.23424644691E+03  0.00000000000E+00 0. -1.
</event>
<event>
 4    1  0.3069799E+006  0.2125141E+02  0.7546771E-02  0.1515706E+00
         21   -1    0    0  503  501  0.00000000000E+00  0.00000000000E+00  0.74205673942E+02  0.74205673942E+02  0.00000000000E+00 0. -1.
         21   -1    0    0  504  502 -0.00000000000E+00 -0.00000000000E+00 -0.22227990443E+03  0.22227990443E+03  0.00000000000E+00 0. -1.
         21    1    1    2  503  502 -0.18797418110E+02  0.99135932349E+01 -0.22023635391E+03  0.22125929097E+03  0.00000000000E+00 0. -1.
         21    1    1    2  504  501  0.18797418110E+02 -0.99135932349E+01  0.72162123424E+02  0.75226287397E+02  0.00000000000E+00 0. -1.
</event>
<event>
 4    1  0.3069799E+006  0.2216165E+02  0.7546771E-02  0.1503302E+00
         21   -1    0    0  504  501  0.00000000000E+00  0.00000000000E+00  0.12168993685E+01  0.12168993685E+01  0.00000000000E+00 0.  1.
         21   -1    0    0  503  502 -0.00000000000E+00 -0.00000000000E+00 -0.40876573983E+03  0.40876573983E+03  0.00000000000E+00 0.  1.
         21    1    1    2  503  501  0.17694532766E+02 -0.13343254399E+02 -0.22682180938E+03  0.22790189148E+03  0.00000000000E+00 0.  1.
         21    1    1    2  504  502 -0.17694532766E+02  0.13343254399E+02 -0.18072703108E+03  0.18208074772E+03  0.00000000000E+00 0.  1.
</event>
<event>
 4    1  0.3069799E+006  0.2474896E+02  0.7546771E-02  0.1471631E+00
         21   -1    0    0  502  501  0.00000000000E+00  0.00000000000E+00  0.60307071864E+01  0.60307071864E+01  0.00000000000E+00 0.  1.
         21   -1    0    0  504  502 -0.00000000000E+00 -0.00000000000E+00 -0.10543258576E+03  0.10543258576E+03  0.00000000000E+00 0.  1.
         21    1    1    2  503  501 -0.23280362119E+02  0.83985685926E+01 -0.60374558601E+02  0.65250276176E+02  0.00000000000E+00 0.  1.
         21    1    1    2  504  503  0.23280362119E+02 -0.83985685926E+01 -0.39027319973E+02  0.46213016771E+02  0.00000000000E+00 0.  1.
</event>
<event>
 4    1  0.3069799E+006  0.3349811E+02  0.7546771E-02  0.1391441E+00
         21   -1    0    0  503  501  0.00000000000E+00  0.00000000000E+00  0.41632107196E+01  0.41632107196E+01  0.00000000000E+00 0. -1.
         21   -1    0    0  501  502 -0.00000000000E+00 -0.00000000000E+00 -0.31191052891E+03  0.31191052891E+03  0.00000000000E+00 0.  1.
         21    1    1    2  503  504 -0.33325281704E+02 -0.33983368675E+01 -0.95621677979E+02  0.10131943739E+03  0.00000000000E+00 0. -1.
         21    1    1    2  504  502  0.33325281704E+02  0.33983368675E+01 -0.21212564021E+03  0.21475430224E+03  0.00000000000E+00 0.  1.
</event>
<event>
 4    1  0.3069799E+006  0.4257613E+02  0.7546771E-02  0.1334017E+00
         21   -1    0    0  504  501  0.00000000000E+00  0.00000000000E+00  0.92248376580E+02  0.92248376580E+02  0.00000000000E+00 0. -1.
         21   -1    0    0  503  502 -0.00000000000E+00 -0.00000000000E+00 -0.21974769081E+02  0.21974769081E+02  0.00000000000E+00 0. -1.
         21    1    1    2  503  501 -0.32705101414E+01  0.42450330942E+02  0.16562820398E+02  0.45684284532E+02  0.00000000000E+00 0. -1.
         21    1    1    2  504  502  0.32705101414E+01 -0.42450330942E+02  0.53710787101E+02  0.68538861128E+02  0.00000000000E+00 0. -1.
</event>
<event>
 4    1  0.3069799E+006  0.2270427E+02  0.7546771E-02  0.1496245E+00
         21   -1    0    0  502  501  0.00000000000E+00  0.00000000000E+00  0.28532650953E+02  0.28532650953E+02  0.00000000000E+00 0.  1.
         21   -1    0    0  503  502 -0.00000000000E+00 -0.00000000000E+00 -0.13316872694E+03  0.13316872694E+03  0.00000000000E+00 0. -1.
         21    1    1    2  503  504 -0.15084411071E+02  0.16968920263E+02 -0.12748457778E+03  0.12949054515E+03  0.00000000000E+00 0. -1.
         21    1    1    2  504  501  0.15084411071E+02 -0.16968920263E+02  0.22848501788E+02  0.32210832746E+02  0.00000000000E+00 0.  1.
</event>
<event>
 4    1  0.3069799E+006  0.2252945E+02  0.7546771E-02  0.1498493E+00
         21   -1    0    0  504  501  0.00000000000E+00  0.00000000000E+00  0.56015849952E+02  0.56015849952E+02  0.00000000000E+00 0.  1.
         21   -1    0    0  503  502 -0.00000000000E+00 -0.00000000000E+00 -0.23347339640E+03  0.23347339640E+03  0.00000000000E+00 0. -1.
         21    1    1    2  503  501 -0.18947869471E+02 -0.12188293999E+02 -0.23063677131E+03  0.23173453896E+03  0.00000000000E+00 0. -1.
         21    1    1    2  504  502  0.18947869471E+02  0.12188293999E+02  0.53179224865E+02  0.57754707387E+02  0.00000000000E+00 0.  1.
</event>
<event>
 4    1  0.3069799E+006  0.2595763E+02  0.7546771E-02  0.1458370E+00
         21   -1    0    0  504  501  0.00000000000E+00  0.00000000000E+00  0.64519293269E+02  0.64519293269E+02  0.00000000000E+00 0. -1.
         21   -1    0    0  503  502 -0.00000000000E+00 -0.00000000000E+00 -0.12482323422E+02  0.12482323422E+02  0.00000000000E+00 0. -1.
         21    1    1    2  503  501  0.18349565938E+02 -0.18360060434E+02  0.41579092420E+02  0.49016520844E+02  0.00000000000E+00 0. -1.
         21    1    1    2  504  502 -0.18349565938E+02  0.18360060434E+02  0.10457877428E+02  0.27985095846E+02  0.00000000000E+00 0. -1.
</event>
<event>
 4    1  0.3069799E+006  0.2732589E+02  0.7546771E-02  0.1444362E+00
         21   -1    0    0  503  501  0.00000000000E+00  0.00000000000E+00  0.27438034126E+02  0.27438034126E+02  0.00000000000E+00 0.  1.
         21   -1    0    0  504  502 -0.00000000000E+00 -0.00000000000E+00 -0.43480461701E+02  0.43480461701E+02  0.00000000000E+00 0.  1.
         21    1    1    2  503  502 -0.25853160771E+02  0.88497725202E+01  0.13667120767E+02  0.30553143628E+02  0.00000000000E+00 0.  1.
         21    1    1    2  504  501  0.25853160771E+02 -0.88497725202E+01 -0.29709548341E+02  0.40365352199E+02  0.00000000000E+00 0.  1.
</event>
<event>
 4    1  0.3069799E+006  0.2603315E+02  0.7546771E-02  0.1457570E+00
         21   -1    0    0  503  501  0.00000000000E+00  0.00000000000E+00  0.87551995024E+01  0.87551995024E+01  0.00000000000E+00 0. -1.
         21   -1    0    0  501  502 -0.00000000000E+00 -0.00000000000E+00 -0.80025164195E+02  0.80025164195E+02  0.00000000000E+00 0. -1.
         21    1    1    2  503  504  0.11992469560E+02  0.23106396117E+02 -0.27607737259E+02  0.37946172722E+02  0.00000000000E+00 0. -1.
         21    1    1    2  504  502 -0.11992469560E+02 -0.23106396117E+02 -0.43662227433E+02  0.50834190975E+02  0.00000000000E+00 0. -1.
</event>
<event>
 4    1  0.3069799E+006  0.2480966E+02  0.7546771E-02  0.1470944E+00
         21   -1    0    0  504  501  0.00000000000E+00  0.00000000000E+00  0.13798269223E+03  0.13798269223E+03  0.00000000000E+00 0.  1.
         21   -1    0    0  501  502 -0.00000000000E+00 -0.00000000000E+00 -0.34966248918E+02  0.34966248918E+02  0.00000000000E+00 0. -1.
         21    1    1    2  503  502 -0.20800467032E+02 -0.13522560646E+02 -0.29262096977E+02  0.38363907448E+02  0.00000000000E+00 0. -1.
         21    1    1    2  504  503  0.20800467032E+02  0.13522560646E+02  0.13227854029E+03  0.13458503370E+03  0.00000000000E+00 0.  1.
</event>
<event>
 4    1  0.3069799E+006  0.2916578E+02  0.7546771E-02  0.1426987E+00
         21   -1    0    0  503  501  0.00000000000E+00  0.00000000000E+00  0.10314259802E+04  0.10314259802E+04  0.00000000000E+00 0. -1.
         21   -1    0    0  504  502 -0.00000000000E+00 -0.00000000000E+00 -0.11074862904E+02  0.11074862904E+02  0.00000000000E+00 0. -1.
         21    1    1    2  503  502 -0.13089788665E+02  0.26063383934E+02  0.10116422588E+04  0.10120625980E+04  0.00000000000E+00 0. -1.
         21    1    1    2  504  501  0.13089788665E+02 -0.26063383934E+02  0.87088585588E+01  0.30438245133E+02  0.00000000000E+00 0. -1.
</event>
<event>
 4    1  0.3069799E+006  0.3101372E+02  0.7546771E-02  0.1410987E+00
         21   -1    0    0  503  501  0.00000000000E+00  0.00000000000E+00  0.47540462350E+02  0.47540462350E+02  0.00000000000E+00 0.  1.
         21   -1    0    0  504  502 -0.00000000000E+00 -0.00000000000E+00 -0.50116505100E+02  0.50116505100E+02  0.00000000000E+00 0.  1.
         21    1    1    2  503  502  0.59765155727E+01  0.30432417989E+02  0.36417419540E+02  0.47833871357E+02  0.00000000000E+00 0.  1.
         21    1    1    2  504  501 -0.59765155727E+01 -0.30432417989E+02 -0.38993462289E+02  0.49823096093E+02  0.00000000000E+00 0.  1.
</event>
<event>
 4    1  0.3069799E+006  0.2046381E+02  0.7546771E-02  0.1527060E+00
         21   -1    0    0  503  501  0.00000000000E+00  0.00000000000E+00  0.10460839609E+04  0.10460839609E+04  0.00000000000E+00 0.  1.
         21   -1    0    0  504  502 -0.00000000000E+00 -0.00000000000E+00 -0.37919079604E+03  0.37919079604E+03  0.00000000000E+00 0. -1.
         21    1    1    2  503  502  0.97097386565E+01  0.18013562999E+02 -0.37881452405E+03  0.37936685557E+03  0.00000000000E+00 0. -1.
         21    1    1    2  504  501 -0.97097386565E+01 -0.18013562999E+02  0.10457076889E+04  0.10459079014E+04  0.00000000000E+00 0.  1.
</event>
<event>
 4    1  0.3069799E+006  0.2470359E+02  0.7546771E-02  0.1472147E+00
         21   -1    0    0  503  501  0.00000000000E+00  0.00000000000E+00  0.58684283327E+03  0.58684283327E+03  0.00000000000E+00 0. -1.
         21   -1    0    0  504  502 -0.00000000000E+00 -0.00000000000E+00 -0.10080898251E+02  0.10080898251E+02  0.00000000000E+00 0. -1.
         21    1    1    2  503  502 -0.21936781410E+02  0.11359797940E+02  0.57322386715E+01  0.25359927998E+02  0.00000000000E+00 0. -1.
         21    1    1    2  504  501  0.21936781410E+02 -0.11359797940E+02  0.57102969634E+03  0.57156380352E+03  0.00000000000E+00 0. -1.
</event>
<event>
 4    1  0.3069799E+006  0.3067860E+02  0.7546771E-02  0.1413789E+00
         21   -1    0    0  504  501  0.00000000000E+00  0.00000000000E+00  0.21519244688E+02  0.21519244688E+02  0.00000000000E+00 0.  1.
         21   -1    0    0  503  502 -0.00000000000E+00 -0.00000000000E+00 -0.46247732663E+02  0.46247732663E+02  0.00000000000E+00 0.  1.
         21    1    1    2  503  501 -0.30575033424E+02 -0.25186505198E+01 -0.44686087018E+01  0.31002334316E+02  0.00000000000E+00 0.  1.
         21    1    1    2  504  502  0.30575033424E+02  0.25186505198E+01 -0.20259879273E+02  0.36764643035E+02  0.00000000000E+00 0.  1.
</event>
<event>
 4    1  0.3069799E+006  0.2627867E+02  0.7546771E-02  0.1454992E+00
         21   -1    0    0  504  501  0.00000000000E+00  0.00000000000E+00  0.62792868494E+02  0.62792868494E+02  0.00000000000E+00 0.  1.
         21   -1    0    0  503  502 -0.00000000000E+00 -0.00000000000E+00 -0.12628814245E+02  0.12628814245E+02  0.00000000000E+00 0.  1.
         21    1    1    2  503  501 -0.22908467689E+00  0.26277673382E+02  0.38635332137E+02  0.46725340956E+02  0.00000000000E+00 0.  1.
         21    1    1    2  504  502  0.22908467689E+00 -0.26277673382E+02  0.11528722113E+02  0.28696341783E+02  0.00000000000E+00 0.  1.
</event>
<event>
 4    1  0.3069799E+006  0.2232547E+02  0.7546771E-02  0.1501147E+00
         21   -1    0    0  504  501  0.00000000000E+00  0.00000000000E+00  0.67918316325E+01  0.67918316325E+01  0.00000000000E+00 0.  1.
         21   -1    0    0  501  502 -0.00000000000E+00 -0.00000000000E+00 -0.17310559579E+03  0.17310559579E+03  0.00000000000E+00 0. -1.
         21    1    1    2  503  502 -0.12618683211E+01  0.22289779011E+02 -0.15142678298E+03  0.15306370296E+03  0.00000000000E+00 0. -1.
         21    1    1    2  504  503  0.12618683211E+01 -0.22289779011E+02 -0.14886981179E+02  0.26833724465E+02  0.00000000000E+00 0.  1.
</event>
<event>
 4    1  0.3069799E+006  0.3045715E+02  0.7546771E-02  0.1415665E+00
         21   -1    0    0  504  501  0.00000000000E+00  0.00000000000E+00  0.27398762507E+02  0.27398762507E+02  0.00000000000E+00 0. -1.
         21   -1    0    0  503  502 -0.00000000000E+00 -0.00000000000E+00 -0.12007418670E+03  0.12007418670E+03  0.00000000000E+00 0. -1.
         21    1    1    2  503  501  0.14017159884E+02  0.27039917774E+02  0.16144248487E+02  0.34471360340E+02  0.00000000000E+00 0. -1.
         21    1    1    2  504  502 -0.14017159884E+02 -0.27039917774E+02 -0.10881967268E+03  0.11300158887E+03  0.00000000000E+00 0. -1.
</event>
<event>
 4    1  0.3069799E+006  0.2454732E+02  0.7546771E-02  0.1473932E+00
         21   -1    0    0  503  501  0.00000000000E+00  0.00000000000E+00  0.69581658371E+02  0.69581658371E+02  0.00000000000E+00 0.  1.
         21   -1    0    0  504  502 -0.00000000000E+00 -0.00000000000E+00 -0.26919674533E+02  0.26919674533E+02  0.00000000000E+00 0.  1.
         21    1    1    2  503  502  0.33166065719E+01 -0.24322235894E+02 -0.18407920454E+02  0.30682610278E+02  0.00000000000E+00 0.  1.
         21    1    1    2  504  501 -0.33166065719E+01  0.24322235894E+02  0.61069904291E+02  0.65818722626E+02  0.00000000000E+00 0.  1.
</event>
<event>
 4    1  0.3069799E+006  0.3547115E+02  0.7546771E-02  0.1377281E+00
         21   -1    0    0  504  501  0.00000000000E+00  0.00000000000E+00  0.37519444944E+02  0.37519444944E+02  0.00000000000E+00 0. -1.
         21   -1    0    0  503  502 -0.00000000000E+00 -0.00000000000E+00 -0.46299944248E+02  0.46299944248E+02  0.00000000000E+00 0. -1.
         21    1    1    2  503  501 -0.30850021605E+02  0.17506532561E+02  0.17615653434E+02  0.39604466431E+02  0.00000000000E+00 0. -1.
         21    1    1    2  504  502  0.30850021605E+02 -0.17506532561E+02 -0.26396152738E+02  0.44214922761E+02  0.00000000000E+00 0. -1.
</event>
<event>
 4    1  0.3069799E+006  0.2012552E+02  0.7546771E-02  0.1532126E+00
         21   -1    0    0  504  501  0.00000000000E+00  0.00000000000E+00  0.91326672638E+02  0.91326672638E+02  0.00000000000E+00 0.  1.
         21   -1    0    0  503  502 -0.00000000000E+00 -0.00000000000E+00 -0.20158857010E+02  0.20158857010E+02  0.00000000000E+00 0.  1.
         21    1    1    2  503  501  0.79351057400E+01  0.18495148402E+02  0.84814459168E+02  0.87169541134E+02  0.00000000000E+00 0.  1.
         21    1    1    2  504  502 -0.79351057400E+01 -0.18495148402E+02 -0.13646643539E+02  0.24315988514E+02  0.00000000000E+00 0.  1.
</event>
<event>
 4    1  0.3069799E+006  0.2786687E+02  0.7546771E-02  0.1439089E+00
         21   -1    0    0  502  501  0.00000000000E+00  0.00000000000E+00  0.56355126170E+02  0.56355126170E+02  0.00000000000E+00 0.  1.
         21   -1    0    0  503  502 -0.00000000000E+00 -0.00000000000E+00 -0.22472803387E+03  0.22472803387E+03  0.00000000000E+00 0. -1.
         21    1    1    2  503  504 -0.11360901831E+02 -0.25445869733E+02 -0.22035103432E+03  0.22210614738E+03  0.00000000000E+00 0. -1.
         21    1    1    2  504  501  0.11360901831E+02  0.25445869733E+02  0.51978126615E+02  0.58977012668E+02  0.00000000000E+00 0.  1.
</event>
<event>
 4    1  0.3069799E+006  0.2201874E+02  0.7546771E-02  0.1505202E+00
         21   -1    0    0  504  501  0.00000000000E+00  0.00000000000E+00  0.18129667784E+02  0.18129667784E+02  0.00000000000E+00 0.  1.
         21   -1    0    0  503  502 -0.00000000000E+00 -0.00000000000E+00 -0.24364203751E+03  0.24364203751E+03  0.00000000000E+00 0. -1.
         21    1    1    2  503  501  0.18923305195E+02  0.11257586405E+02  0.10737953666E+02  0.24497517836E+02  0.00000000000E+00 0.  1.
         21    1    1    2  504  502 -0.18923305195E+02 -0.11257586405E+02 -0.23625032339E+03  0.23727418746E+03  0.00000000000E+00 0. -1.
</event>
<event>
 4    1  0.3069799E+006  0.2431234E+02  0.7546771E-02  0.1476645E+00
         21   -1    0    0  503  501  0.00000000000E+00  0.00000000000E+00  0.54697537489E+01  0.54697537489E+01  0.00000000000E+00 0.  1.
         21   -1    0    0  501  502 -0.00000000000E+00 -0.00000000000E+00 -0.19372671005E+03  0.19372671005E+03  0.00000000000E+00 0. -1.
         21    1    1    2  503  504 -0.21486759259E+02 -0.11375812772E+02 -0.27899236338E+02  0.37006179591E+02  0.00000000000E+00 0.  1.
         21    1    1    2  504  502  0.21486759259E+02  0.11375812772E+02 -0.16035771996E+03  0.16219028420E+03  0.00000000000E+00 0. -1.
</event>
<event>
 4    1  0.3069799E+006  0.2120231E+02  0.7546771E-02  0.1516396E+00
         21   -1    0    0  504  501  0.00000000000E+00  0.00000000000E+00  0.10122579584E+02  0.10122579584E+02  0.00000000000E+00 0. -1.
         21   -1    0    0  501  502 -0.00000000000E+00 -0.00000000000E+00 -0.51112482752E+02  0.51112482752E+02  0.00000000000E+00 0. -1.
         21    1    1    2  503  502 -0.21116151501E+02  0.19094801373E+01 -0.31582692397E+02  0.38039511402E+02  0.00000000000E+00 0. -1.
         21    1    1    2  504  503  0.21116151501E+02 -0.19094801373E+01 -0.94072107706E+01  0.23195550934E+02  0.00000000000E+00 0. -1.
</event>
<event>
 4    1  0.3069799E+006  0.3300473E+02  0.7546771E-02  0.1395161E+00
         21   -1    0    0  503  501  0.00000000000E+00  0.00000000000E+00  0.27403688170E+04  0.27403688170E+04  0.00000000000E+00 0.  1.
         21   -1    0    0  504  502 -0.00000000000E+00 -0.00000000000E+00 -0.64020854347E+00  0.64020854347E+00  0.00000000000E+00 0. -1.
         21    1    1    2  503  502  0.32160920681E+02 -0.74153520884E+01  0.22136985685E+04  0.22139445938E+04  0.00000000000E+00 0.  1.
         21    1    1    2  504  501 -0.32160920681E+02  0.74153520884E+01  0.52603003995E+03  0.52706443173E+03  0.00000000000E+00 0. -1.
</event>
<event>
 4    1  0.3069799E+006  0.2304783E+02  0.7546771E-02  0.1491898E+00
         21   -1    0    0  502  501  0.00000000000E+00  0.00000000000E+00  0.33165539454E+01  0.33165539454E+01  0.00000000000E+00 0. -1.
         21   -1    0    0  503  502 -0.00000000000E+00 -0.00000000000E+00 -0.25979698689E+03  0.25979698689E+03  0.00000000000E+00 0. -1.
         21    1    1    2  503  504 -0.22262675465E+02  0.59645504810E+01 -0.20970898074E+03  0.21097170233E+03  0.00000000000E+00 0. -1.
         21    1    1    2  504  501  0.22262675465E+02 -0.59645504810E+01 -0.46771452203E+02  0.52141838503E+02  0.00000000000E+00 0. -1.
</event>
<event>
 4    1  0.3069799E+006  0.2372108E+02  0.7546771E-02  0.1483637E+00
         21   -1    0    0  504  501  0.00000000000E+00  0.00000000000E+00  0.10455161828E+02  0.10455161828E+02  0.00000000000E+00 0.  1.
         21   -1    0    0  503  502 -0.00000000000E+00 -0.00000000000E+00 -0.13601984894E+03  0.13601984894E+03  0.00000000000E+00 0.  1.
         21    1    1    2  503  501  0.22946389568E+02 -0.60127215805E+01 -0.11971608521E+03  0.12204356056E+03  0.00000000000E+00 0.  1.
         21    1    1    2  504  502 -0.22946389568E+02  0.60127215805E+01 -0.58486018943E+01  0.24431450205E+02  0.00000000000E+00 0.  1.
</event>
<event>
 4    1  0.3069799E+006  0.2086410E+02  0.7546771E-02  0.1521214E+00
         21   -1    0    0  504  501  0.00000000000E+00  0.00000000000E+00  0.82487088527E+02  0.82487088527E+02  0.00000000000E+00 0. -1.
         21   -1    0    0  503  502 -0.00000000000E+00 -0.00000000000E+00 -0.52981268651E+01  0.52981268651E+01  0.00000000000E+00 0. -1.
         21    1    1    2  503  501 -0.20855765920E+02  0.58981765078E+00  0.41345043332E+02  0.46311159186E+02  0.00000000000E+00 0. -1.
         21    1    1    2  504  502  0.20855765920E+02 -0.58981765078E+00  0.35843918329E+02  0.41474056206E+02  0.00000000000E+00 0. -1.
</event>
<event>
 4    1  0.3069799E+006  0.3587280E+02  0.7546771E-02  0.1374529E+00
         21   -1    0    0  503  501  0.00000000000E+00  0.00000000000E+00  0.35303823869E+01  0.35303823869E+01  0.00000000000E+00 0.  1.
         21   -1    0    0  504  502 -0.00000000000E+00 -0.00000000000E+00 -0.41377610506E+03  0.41377610506E+03  0.00000000000E+00 0.  1.
         21    1    1    2  503  502 -0.84935521564E+01 -0.34852790576E+02 -0.27712068251E+03  0.27943287228E+03  0.00000000000E+00 0.  1.
         21    1    1    2  504  501  0.84935521564E+01  0.34852790576E+02 -0.13312504017E+03  0.13787361516E+03  0.00000000000E+00 0.  1.
</event>
<event>
 4    1  0.3069799E+006  0.2539669E+02  0.7546771E-02  0.1464414E+00
         21   -1    0    0  503  501  0.00000000000E+00  0.00000000000E+00  0.64863487707E+02  0.64863487707E+02  0.00000000000E+00 0. -1.
         21   -1    0    0  501  502 -0.00000000000E+00 -0.00000000000E+00 -0.17690218148E+02  0.17690218148E+02  0.00000000000E+00 0. -1.
         21    1    1    2  503  504 -0.23172828737E+02  0.10392878147E+02  0.50900894365E+02  0.56884909730E+02  0.00000000000E+00 0. -1.
         21    1    1    2  504  502  0.23172828737E+02 -0.10392878147E+02 -0.37276248057E+01  0.25668796126E+02  0.00000000000E+00 0. -1.
</event>
<event>
 4    1  0.3069799E+006  0.2570360E+02  0.7546771E-02  0.1461084E+00
         21   -1    0    0  504  501  0.00000000000E+00  0.00000000000E+00  0.17683700993E+02  0.17683700993E+02  0.00000000000E+00 0.  1.
         21   -1    0    0  503  502 -0.00000000000E+00 -0.00000000000E+00 -0.24058543913E+03  0.24058543913E+03  0.00000000000E+00 0.  1.
         21    1    1    2  503  501  0.80246626787E+01  0.24418847074E+02 -0.23013595469E+03  0.23156690814E+03  0.00000000000E+00 0.  1.
         21    1    1    2  504  502 -0.80246626787E+01 -0.24418847074E+02  0.72342165570E+01  0.26702231980E+02  0.00000000000E+00 0.  1.
</event>
<event>
 4    1  0.3069799E+006  0.2991095E+02  0.7546771E-02  0.1420372E+00
         21   -1    0    0  504  501  0.00000000000E+00  0.00000000000E+00  0.68239784780E+02  0.68239784780E+02  0.00000000000E+00 0. -1.
         21   -1    0    0  503  502 -0.00000000000E+00 -0.00000000000E+00 -0.17881638920E+02  0.17881638920E+02  0.00000000000E+00 0.  1.
         21    1    1    2  503  501  0.47945379898E+01  0.29524179329E+02  0.29365592711E+01  0.30054752368E+02  0.00000000000E+00 0.  1.
         21    1    1    2  504  502 -0.47945379898E+01 -0.29524179329E+02  0.47421586589E+02  0.56066671332E+02  0.00000000000E+00 0. -1.
</event>
<event>
 4    1  0.3069799E+006  0.2030145E+02  0.7546771E-02  0.1529476E+00
         21   -1    0    0  503  501  0.00000000000E+00  0.00000000000E+00  0.50858348785E+02  0.50858348785E+02  0.00000000000E+00 0.  1.
         21   -1    0    0  501  502 -0.00000000000E+00 -0.00000000000E+00 -0.23610503276E+02  0.23610503276E+02  0.00000000000E+00 0. -1.
         21    1    1    2  503  504  0.10145609585E+02  0.17584524237E+02  0.43799178094E+02  0.48275427375E+02  0.00000000000E+00 0.  1.
         21    1    1    2  504  502 -0.10145609585E+02 -0.17584524237E+02 -0.16551332585E+02  0.26193424687E+02  0.00000000000E+00 0. -1.
</event>
<event>
 4    1  0.3069799E+006  0.2019057E+02  0.7546771E-02  0.1531142E+00
         21   -1    0    0  504  501  0.00000000000E+00  0.00000000000E+00  0.15902058419E+02  0.15902058419E+02  0.00000000000E+00 0.  1.
         21   -1    0    0  503  502 -0.00000000000E+00 -0.00000000000E+00 -0.31605589978E+02  0.31605589978E+02  0.00000000000E+00 0.  1.
         21    1    1    2  503  501 -0.38324961758E+01 -0.19823493360E+02  0.24720000061E+01  0.20341329847E+02  0.00000000000E+00 0.  1.
         21    1    1    2  504  502  0.38324961758E+01  0.19823493360E+02 -0.18175531564E+02  0.27166318550E+02  0.00000000000E+00 0.  1.
</event>
<event>
 4    1  0.3069799E+006  0.2318269E+02  0.7546771E-02  0.1490217E+00
         21   -1    0    0  504  501  0.00000000000E+00  0.00000000000E+00  0.41669575360E+02  0.41669575360E+02  0.00000000000E+00 0.  1.
         21   -1    0    0  503  502 -0.00000000000E+00 -0.00000000000E+00 -0.24296189107E+02  0.24296189107E+02  0.00000000000E+00 0. -1.
         21    1    1    2  503  501  0.23027907765E+02 -0.26744480074E+01 -0.13904814499E+02  0.27032962738E+02  0.00000000000E+00 0. -1.
         21    1    1    2  504  502 -0.23027907765E+02  0.26744480074E+01  0.31278200752E+02  0.38932801728E+02  0.00000000000E+00 0.  1.
</event>
<event>
 4    1  0.3069799E+006  0.2108744E+02  0.7546771E-02  0.1518020E+00
         21   -1    0    0  502  501  0.00000000000E+00  0.00000000000E+00  0.54980513738E+02  0.54980513738E+02  0.00000000000E+00 0. -1.
         21   -1    0    0  503  502 -0.00000000000E+00 -0.00000000000E+00 -0.17243628019E+02  0.17243628019E+02  0.00000000000E+00 0. -1.
         21    1    1    2  503  504 -0.51813654120E+01 -0.20440978245E+02 -0.74453295597E+01  0.22363207985E+02  0.00000000000E+00 0. -1.
         21    1    1    2  504  501  0.51813654120E+01  0.20440978245E+02  0.45182215278E+02  0.49860933772E+02  0.00000000000E+00 0. -1.
</event>
<event>
 4    1  0.3069799E+006  0.2651360E+02  0.7546771E-02  0.1452556E+00
         21   -1    0    0  503  501  0.00000000000E+00  0.00000000000E+00  0.19517629682E+02  0.19517629682E+02  0.00000000000E+00 0. -1.
         21   -1    0    0  504  502 -0.00000000000E+00 -0.00000000000E+00 -0.37468835007E+02  0.37468835007E+02  0.00000000000E+00 0. -1.
         21    1    1    2  503  502  0.13250973948E+02  0.22964810985E+02 -0.14583907918E+02  0.30259894651E+02  0.00000000000E+00 0. -1.
         21    1    1    2  504  501 -0.13250973948E+02 -0.22964810985E+02 -0.33672974071E+01  0.26726570038E+02  0.00000000000E+00 0. -1.
</event>
<event>
 4    1  0.3069799E+006  0.2228555E+02  0.7546771E-02  0.1501670E+00
         21   -1    0    0  504  501  0.00000000000E+00  0.00000000000E+00  0.53215782093E+01  0.53215782093E+01  0.00000000000E+00 0.  1.
         21   -1    0    0  503  502 -0.00000000000E+00 -0.00000000000E+00 -0.95329263936E+02  0.95329263936E+02  0.00000000000E+00 0.  1.
         21    1    1    2  503  501 -0.48242337910E+01 -0.21757130438E+02 -0.52297658609E+02  0.56847964366E+02  0.00000000000E+00 0.  1.
         21    1    1    2  504  502  0.48242337910E+01  0.21757130438E+02 -0.37710027117E+02  0.43802877779E+02  0.00000000000E+00 0.  1.
</event>
<event>
 4    1  0.3069799E+006  0.2080467E+02  0.7546771E-02  0.1522072E+00
         21   -1    0    0  504  501  0.00000000000E+00  0.00000000000E+00  0.12438273085E+02  0.12438273085E+02  0.00000000000E+00 0.  1.
         21   -1    0    0  503  502 -0.00000000000E+00 -0.00000000000E+00 -0.16848592431E+03  0.16848592431E+03  0.00000000000E+00 0. -1.
         21    1    1    2  503  501 -0.20597089772E+02  0.29316045359E+01 -0.15860432830E+03  0.15996301875E+03  0.00000000000E+00 0. -1.
         21    1    1    2  504  502  0.20597089772E+02 -0.29316045359E+01  0.25566770800E+01  0.20961178639E+02  0.00000000000E+00 0.  1.
</event>
<event>
 4    1  0.3069799E+006  0.2024977E+02  0.7546771E-02  0.1530251E+00
         21   -1    0    0  504  501  0.00000000000E+00  0.00000000000E+00  0.24295963651E+02  0.24295963651E+02  0.00000000000E+00 0.  1.
         21   -1    0    0  503  502 -0.00000000000E+00 -0.00000000000E+00 -0.22427657444E+02  0.22427657444E+02  0.00000000000E+00 0. -1.
         21    1    1    2  503  501  0.20187522293E+02  0.15865219413E+01 -0.10687567819E+02  0.22897100561E+02  0.00000000000E+00 0. -1.
         21    1    1    2  504  502 -0.20187522293E+02 -0.15865219413E+01  0.12555874026E+02  0.23826520534E+02  0.00000000000E+00 0.  1.
</event>
<event>
 4    1  0.3069799E+006  0.2272342E+02  0.7546771E-02  0.1496001E+00
         21   -1    0    0  503  501  0.00000000000E+00  0.00000000000E+00  0.42837361248E+00  0.42837361248E+00  0.00000000000E+00 0.  1.
         21   -1    0    0  501  502 -0.00000000000E+00 -0.00000000000E+00 -0.15767642802E+04  0.15767642802E+04  0.00000000000E+00 0.  1.
         21    1    1    2  503  504 -0.22665541810E+02  0.16208435076E+01 -0.40544734620E+03  0.40608361757E+03  0.00000000000E+00 0.  1.
         21    1    1    2  504  502  0.22665541810E+02 -0.16208435076E+01 -0.11708885604E+04  0.11711090363E+04  0.00000000000E+00 0.  1.
</event>
<event>
 4    1  0.3069799E+006  0.4692299E+02  0.7546771E-02  0.1312094E+00
         21   -1    0    0  502  501  0.00000000000E+00  0.00000000000E+00  0.33582303889E+02  0.33582303889E+02  0.00000000000E+00 0. -1.
         21   -1    0    0  504  502 -0.00000000000E+00 -0.00000000000E+00 -0.14797986844E+04  0.14797986844E+04  0.00000000000E+00 0.  1.
         21    1    1    2  503  501 -0.78761034595E+01  0.46257260465E+02  0.16629602536E+02  0.49782635847E+02  0.00000000000E+00 0. -1.
         21    1    1    2  504  503  0.78761034595E+01 -0.46257260465E+02 -0.14628459831E+04  0.14635983525E+04  0.00000000000E+00 0.  1.
</event>
<event>
 4    1  0.3069799E+006  0.2117179E+02  0.7546771E-02  0.1516826E+00
         21   -1    0    0  502  501  0.00000000000E+00  0.00000000000E+00  0.32521948763E+02  0.32521948763E+02  0.00000000000E+00 0.  1.
         21   -1    0    0  504  502 -0.00000000000E+00 -0.00000000000E+00 -0.16385106822E+03  0.16385106822E+03  0.00000000000E+00 0.  1.
         21    1    1    2  503  501  0.93360504133E+01 -0.19002182667E+02  0.28301617109E+02  0.35344395800E+02  0.00000000000E+00 0.  1.
         21    1    1    2  504  503 -0.93360504133E+01  0.19002182667E+02 -0.15963073657E+03  0.16102862119E+03  0.00000000000E+00 0.  1.
</event>
<event>
 4    1  0.3069799E+006  0.2075214E+02  0.7546771E-02  0.1522833E+00
         21   -1    0    0  502  501  0.00000000000E+00  0.00000000000E+00  0.83767014851E+01  0.83767014851E+01  0.00000000000E+00 0. -1.
         21   -1    0    0  503  502 -0.00000000000E+00 -0.00000000000E+00 -0.14128246620E+03  0.14128246620E+03  0.00000000000E+00 0. -1.
         21    1    1    2  503  504 -0.18985409439E+02  0.83788751023E+01 -0.12613456460E+03  0.12783027696E+03  0.00000000000E+00 0. -1.
         21    1    1    2  504  501  0.18985409439E+02 -0.83788751023E+01 -0.67712001155E+01  0.21828890731E+02  0.00000000000E+00 0. -1.
</event>
<event>
 4    1  0.3069799E+006  0.3336115E+02  0.7546771E-02  0.1392466E+00
         21   -1    0    0  504  501  0.00000000000E+00  0.00000000000E+00  0.11847413331E+03  0.11847413331E+03  0.00000000000E+00 0.  1.
         21   -1    0    0  501  502 -0.00000000000E+00 -0.00000000000E+00 -0.38854762492E+03  0.38854762492E+03  0.00000000000E+00 0. -1.
         21    1    1    2  503  502  0.30066039539E+02 -0.14456818214E+02 -0.38546422390E+03  0.38690520057E+03  0.00000000000E+00 0. -1.
         21    1    1    2  504  503 -0.30066039539E+02  0.14456818214E+02  0.11539073229E+03  0.12011655766E+03  0.00000000000E+00 0.  1.
</event>
<event>
 4    1  0.3069799E+006  0.2419088E+02  0.7546771E-02  0.1478062E+00
         21   -1    0    0  503  501  0.00000000000E+00  0.00000000000E+00  0.11018357076E+03  0.11018357076E+03  0.00000000000E+00 0.  1.
         21   -1    0    0  501  502 -0.00000000000E+00 -0.00000000000E+00 -0.56539409219E+01  0.56539409219E+01  0.00000000000E+00 0.  1.
         21    1    1    2  503  504  0.24166387122E+02  0.10883111067E+01  0.66526612025E+02  0.70788337988E+02  0.00000000000E+00 0.  1.
         21    1    1    2  504  502 -0.24166387122E+02 -0.10883111067E+01  0.38003017813E+02  0.45049173694E+02  0.00000000000E+00 0.  1.
</event>
<event>
 4    1  0.3069799E+006  0.2052989E+02  0.7546771E-02  0.1526084E+00
         21   -1    0    0  504  501  0.00000000000E+00  0.00000000000E+00  0.86585774672E+01  0.86585774672E+01  0.00000000000E+00 0. -1.
         21   -1    0    0  501  502 -0.00000000000E+00 -0.00000000000E+00 -0.11953257945E+03  0.11953257945E+03  0.00000000000E+00 0.  1.
         21    1    1    2  503  502 -0.52406189477E+01 -0.19849742686E+02 -0.10478516085E+03  0.10677736795E+03  0.00000000000E+00 0.  1.
         21    1    1    2  504  503  0.52406189477E+01  0.19849742686E+02 -0.60888411321E+01  0.21413788968E+02  0.00000000000E+00 0. -1.
</event>
<event>
 4    1  0.3069799E+006  0.2330967E+02  0.7546771E-02  0.1488646E+00
         21   -1    0    0  503  501  0.00000000000E+00  0.00000000000E+00  0.76072713086E+01  0.76072713086E+01  0.00000000000E+00 0. -1.
         21   -1    0    0  504  502 -0.00000000000E+00 -0.00000000000E+00 -0.86861303986E+02  0.86861303986E+02  0.00000000000E+00 0. -1.
         21    1    1    2  503  502  0.22196614059E+02  0.71169573465E+01 -0.59539789813E+02  0.63940029157E+02  0.00000000000E+00 0. -1.
         21    1    1    2  504  501 -0.22196614059E+02 -0.71169573465E+01 -0.19714242864E+02  0.30528546138E+02  0.00000000000E+00 0. -1.
</event>
<event>
 4    1  0.3069799E+006  0.2272333E+02  0.7546771E-02  0.1496002E+00
         21   -1    0    0  502  501  0.00000000000E+00  0.00000000000E+00  0.17291195509E+03  0.17291195509E+03  0.00000000000E+00 0. -1.
         21   -1    0    0  503  502 -0.00000000000E+00 -0.00000000000E+00 -0.31335934112E+01  0.31335934112E+01  0.00000000000E+00 0. -1.
         21    1    1    2  503  504 -0.22686006710E+02 -0.13018459174E+01  0.65798888938E+02  0.69612092977E+02  0.00000000000E+00 0. -1.
         21    1    1    2  504  501  0.22686006710E+02  0.13018459174E+01  0.10397947274E+03  0.10643345553E+03  0.00000000000E+00 0. -1.
</event>
<event>
 4    1  0.3069799E+006  0.2078988E+02  0.7546771E-02  0.1522286E+00
         21   -1    0    0  503  501  0.00000000000E+00  0.00000000000E+00  0.12003760319E+02  0.12003760319E+02  0.00000000000E+00 0.  1.
         21   -1    0    0  504  502 -0.00000000000E+00 -0.00000000000E+00 -0.22669056043E+03  0.22669056043E+03  0.00000000000E+00 0.  1.
         21    1    1    2  503  502  0.12694373994E+02  0.16464257542E+02 -0.21680254342E+03  0.21779706550E+03  0.00000000000E+00 0.  1.
         21    1    1    2  504  501 -0.12694373994E+02 -0.16464257542E+02  0.21157433011E+01  0.20897255256E+02  0.00000000000E+00 0.  1.
</event>
<event>
 4    1  0.3069799E+006  0.2437974E+02  0.7546771E-02  0.1475863E+00
         21   -1    0    0  504  501  0.00000000000E+00  0.00000000000E+00  0.27473659426E+02  0.27473659426E+02  0.00000000000E+00 0. -1.
         21   -1    0    0  501  502 -0.00000000000E+00 -0.00000000000E+00 -0.35974554398E+02  0.35974554398E+02  0.00000000000E+00 0. -1.
         21    1    1    2  503  502  0.21045447216E+02 -0.12306951190E+02 -0.24279986065E+02  0.34407697096E+02  0.00000000000E+00 0. -1.
         21    1    1    2  504  503 -0.21045447216E+02  0.12306951190E+02  0.15779091092E+02  0.29040516728E+02  0.00000000000E+00 0. -1.
</event>
<event>
 4    1  0.3069799E+006  0.2375933E+02  0.7546771E-02  0.1483177E+00
         21   -1    0    0  504  501  0.00000000000E+00  0.00000000000E+00  0.16533436841E+03  0.16533436841E+03  0.00000000000E+00 0. -1.
         21   -1    0    0  503  502 -0.00000000000E+00 -0.00000000000E+00 -0.39917661598E+01  0.39917661598E+01  0.00000000000E+00 0. -1.
         21    1    1    2  503  501  0.68851190404E+01  0.22739849147E+02  0.11287194507E+03  0.11534548794E+03  0.00000000000E+00 0. -1.
         21    1    1    2  504  502 -0.68851190404E+01 -0.22739849147E+02  0.48470657177E+02  0.53980646630E+02  0.00000000000E+00 0. -1.
</event>
<event>
 4    1  0.3069799E+006  0.2390727E+02  0.7546771E-02  0.1481409E+00
         21   -1    0    0  502  501  0.00000000000E+00  0.00000000000E+00  0.45269589156E+03  0.45269589156E+03  0.00000000000E+00 0. -1.
         21   -1    0    0  503  502 -0.00000000000E+00 -0.00000000000E+00 -0.13503764610E+02  0.13503764610E+02  0.00000000000E+00 0.  1.
         21    1    1    2  503  504  0.22099460125E+02  0.91198390744E+01 -0.23393101882E+01  0.24021448223E+02  0.00000000000E+00 0.  1.
         21    1    1    2  504  501 -0.22099460125E+02 -0.91198390744E+01  0.44153143714E+03  0.44217820795E+03  0.00000000000E+00 0. -1.
</event>
<event>
 4    1  0.3069799E+006  0.2210963E+02  0.7546771E-02  0.1503992E+00
         21   -1    0    0  504  501  0.00000000000E+00  0.00000000000E+00  0.23435883066E+03  0.23435883066E+03  0.00000000000E+00 0.  1.
         21   -1    0    0  503  502 -0.00000000000E+00 -0.00000000000E+00 -0.25650683225E+01  0.25650683225E+01  0.00000000000E+00 0.  1.
         21    1    1    2  503  501  0.16993308700E+02 -0.14144370940E+02  0.16710032857E+03  0.16855668357E+03  0.00000000000E+00 0.  1.
         21    1    1    2  504  502 -0.16993308700E+02  0.14144370940E+02  0.64693433772E+02  0.68367215411E+02  0.00000000000E+00 0.  1.
</event>
<event>
 4    1  0.3069799E+006  0.2905155E+02  0.7546771E-02  0.1428021E+00
         21   -1    0    0  503  501  0.00000000000E+00  0.00000000000E+00  0.60038610324E+01  0.60038610324E+01  0.00000000000E+00 0.  1.
         21   -1    0    0  504  502 -0.00000000000E+00 -0.00000000000E+00 -0.21334880565E+03  0.21334880565E+03  0.00000000000E+00 0. -1.
         21    1    1    2  503  502  0.73650917503E+01 -0.28102453410E+02 -0.39617107708E+02  0.49127463677E+02  0.00000000000E+00 0.  1.
         21    1    1    2  504  501 -0.73650917503E+01  0.28102453410E+02 -0.16772783691E+03  0.17022520301E+03  0.00000000000E+00 0. -1.
</event>
<event>
 4    1  0.3069799E+006  0.3108665E+02  0.7546771E-02  0.1410383E+00
         21   -1    0    0  504  501  0.00000000000E+00  0.00000000000E+00  0.80412410252E+01  0.80412410252E+01  0.00000000000E+00 0.  1.
         21   -1    0    0  501  502 -0.00000000000E+00 -0.00000000000E+00 -0.14716539876E+03  0.14716539876E+03  0.00000000000E+00 0.  1.
         21    1    1    2  503  502 -0.26312992637E+02 -0.16553132442E+02 -0.10279422947E+03  0.10739196147E+03  0.00000000000E+00 0.  1.
         21    1    1    2  504  503  0.26312992637E+02  0.16553132442E+02 -0.36329928268E+02  0.47814678322E+02  0.00000000000E+00 0.  1.
</event>
<event>
 4    1  0.3069799E+006  0.3144704E+02  0.7546771E-02  0.1407425E+00
         21   -1    0    0  503  501  0.00000000000E+00  0.00000000000E+00  0.39795048780E+03  0.39795048780E+03  0.00000000000E+00 0.  1.
         21   -1    0    0  504  502 -0.00000000000E+00 -0.00000000000E+00 -0.25214956176E+01  0.25214956176E+01  0.00000000000E+00 0.  1.
         21    1    1    2  503  502  0.90815086184E+01  0.30107178817E+02  0.22179679793E+03  0.22401503429E+03  0.00000000000E+00 0.  1.
         21    1    1    2  504  501 -0.90815086184E+01 -0.30107178817E+02  0.17363219424E+03  0.17645694912E+03  0.00000000000E+00 0.  1.
</event>
<event>
 4    1  0.3069799E+006  0.2361758E+02  0.7546771E-02  0.1484885E+00
         21   -1    0    0  503  501  0.00000000000E+00  0.00000000000E+00  0.11138297763E+02  0.11138297763E+02  0.00000000000E+00 0. -1.
         21   -1    0    0  504  502 -0.00000000000E+00 -0.00000000000E+00 -0.68982100327E+03  0.68982100327E+03  0.00000000000E+00 0. -1.
         21    1    1    2  503  502 -0.16201796357E+02  0.17184063344E+02 -0.67685953453E+03  0.67727145202E+03  0.00000000000E+00 0. -1.
         21    1    1    2  504  501  0.16201796357E+02 -0.17184063344E+02 -0.18231709725E+01  0.23687849007E+02  0.00000000000E+00 0. -1.
</event>
<event>
 4    1  0.3069799E+006  0.2939301E+02  0.7546771E-02  0.1424946E+00
         21   -1    0    0  503  501  0.00000000000E+00  0.00000000000E+00  0.30145540284E+02  0.30145540284E+02  0.00000000000E+00 0.  1.
         21   -1    0    0  501  502 -0.00000000000E+00 -0.00000000000E+00 -0.28935058699E+02  0.28935058699E+02  0.00000000000E+00 0.  1.
         21    1    1    2  503  504 -0.27487266433E+02 -0.10411487591E+02  0.34892621901E+01  0.29599389190E+02  0.00000000000E+00 0.  1.
         21    1    1    2  504  502  0.27487266433E+02  0.10411487591E+02 -0.22787806048E+01  0.29481209793E+02  0.00000000000E+00 0.  1.
</event>
<event>
 4    1  0.3069799E+006  0.1004848E+03  0.7546771E-02  0.1162971E+00
         21   -1    0    0  503  501  0.00000000000E+00  0.00000000000E+00  0.78441714697E+03  0.78441714697E+03  0.00000000000E+00 0. -1.
         21   -1    0    0  504  502 -0.00000000000E+00 -0.00000000000E+00 -0.10339928749E+03  0.10339928749E+03  0.00000000000E+00 0. -1.
         21    1    1    2  503  502  0.88115666505E+02 -0.48299285144E+02 -0.74850077432E+02  0.12529854636E+03  0.00000000000E+00 0. -1.
         21    1    1    2  504  501 -0.88115666505E+02  0.48299285144E+02  0.75586793691E+03  0.76251788810E+03  0.00000000000E+00 0. -1.
</event>
<event>
 4    1  0.3069799E+006  0.2770848E+02  0.7546771E-02  0.1440618E+00
         21   -1    0    0  502  501  0.00000000000E+00  0.00000000000E+00  0.11355892662E+03  0.11355892662E+03  0.00000000000E+00 0.  1.
         21   -1    0    0  504  502 -0.00000000000E+00 -0.00000000000E+00 -0.93936206925E+01  0.93936206925E+01  0.00000000000E+00 0.  1.
         21    1    1    2  503  501  0.21709214519E+02 -0.17218297093E+02  0.84628381503E+02  0.89048990481E+02  0.00000000000E+00 0.  1.
         21    1    1    2  504  503 -0.21709214519E+02  0.17218297093E+02  0.19536924423E+02  0.33903556830E+02  0.00000000000E+00 0.  1.
</event>
<event>
 4    1  0.3069799E+006  0.6682468E+02  0.7546771E-02  0.1238256E+00
         21   -1    0    0  503  501  0.00000000000E+00  0.00000000000E+00  0.22840498678E+03  0.22840498678E+03  0.00000000000E+00 0.  1.
         21   -1    0    0  501  502 -0.00000000000E+00 -0.00000000000E+00 -0.23567760219E+02  0.23567760219E+02  0.00000000000E+00 0. -1.
         21    1    1    2  503  504 -0.43964826055E+02 -0.50325264697E+02  0.15443069012E+03  0.16826876195E+03  0.00000000000E+00 0.  1.
         21    1    1    2  504  502  0.43964826055E+02  0.50325264697E+02  0.50406536437E+02  0.83703985046E+02  0.00000000000E+00 0. -1.
</event>
<event>
 4    1  0.3069799E+006  0.2153620E+02  0.7546771E-02  0.1511745E+00
         21   -1    0    0  503  501  0.00000000000E+00  0.00000000000E+00  0.10982540515E+03  0.10982540515E+03  0.00000000000E+00 0. -1.
         21   -1    0    0  504  502 -0.00000000000E+00 -0.00000000000E+00 -0.56449647904E+01  0.56449647904E+01  0.00000000000E+00 0. -1.
         21    1    1    2  503  502  0.20110483535E+02 -0.77056042906E+01  0.23114567408E+02  0.31592580014E+02  0.00000000000E+00 0. -1.
         21    1    1    2  504  501 -0.20110483535E+02  0.77056042906E+01  0.81065872947E+02  0.83877789921E+02  0.00000000000E+00 0. -1.
</event>
<event>
 4    1  0.3069799E+006  0.4754508E+02  0.7546771E-02  0.1309182E+00
         21   -1    0    0  503  501  0.00000000000E+00  0.00000000000E+00  0.29567605252E+03  0.29567605252E+03  0.00000000000E+00 0.  1.
         21   -1    0    0  504  502 -0.00000000000E+00 -0.00000000000E+00 -0.11694197150E+02  0.11694197150E+02  0.00000000000E+00 0. -1.
         21    1    1    2  503  502  0.30191920388E+02  0.36728503270E+02  0.51560522282E+02  0.70135743150E+02  0.00000000000E+00 0. -1.
         21    1    1    2  504  501 -0.30191920388E+02 -0.36728503270E+02  0.23242133309E+03  0.23723450652E+03  0.00000000000E+00 0.  1.
</event>
<event>
 4    1  0.3069799E+006  0.2069508E+02  0.7546771E-02  0.1523663E+00
         21   -1    0    0  504  501  0.00000000000E+00  0.00000000000E+00  0.24382779022E+02  0.24382779022E+02  0.00000000000E+00 0. -1.
         21   -1    0    0  503  502 -0.00000000000E+00 -0.00000000000E+00 -0.22587267650E+02  0.22587267650E+02  0.00000000000E+00 0.  1.
         21    1    1    2  503  501  0.10318204339E+01  0.20669345074E+02  0.11971737727E+02  0.23908345476E+02  0.00000000000E+00 0. -1.
         21    1    1    2  504  502 -0.10318204339E+01 -0.20669345074E+02 -0.10176226356E+02  0.23061701196E+02  0.00000000000E+00 0.  1.
</event>
<event>
 4    1  0.3069799E+006  0.5790531E+02  0.7546771E-02  0.1267121E+00
         21   -1    0    0  502  501  0.00000000000E+00  0.00000000000E+00  0.11744868808E+02  0.11744868808E+02  0.00000000000E+00 0. -1.
         21   -1    0    0  503  502 -0.00000000000E+00 -0.00000000000E+00 -0.84568236544E+03  0.84568236544E+03  0.00000000000E+00 0. -1.
         21    1    1    2  503  504  0.46262778293E+02  0.34824995878E+02 -0.76589433282E+03  0.76808017423E+03  0.00000000000E+00 0. -1.
         21    1    1    2  504  501 -0.46262778293E+02 -0.34824995878E+02 -0.68043163816E+02  0.89347060026E+02  0.00000000000E+00 0. -1.
</event>
<event>
 4    1  0.3069799E+006  0.2341558E+02  0.7546771E-02  0.1487345E+00
         21   -1    0    0  504  501  0.00000000000E+00  0.00000000000E+00  0.20344467030E+03  0.20344467030E+03  0.00000000000E+00 0. -1.
         21   -1    0    0  501  502 -0.00000000000E+00 -0.00000000000E+00 -0.22896094277E+02  0.22896094277E+02  0.00000000000E+00 0.  1.
         21    1    1    2  503  502 -0.18345392323E+02  0.14551145828E+02 -0.16027169142E+02  0.28375331101E+02  0.00000000000E+00 0.  1.
         21    1    1    2  504  503  0.18345392323E+02 -0.14551145828E+02  0.19657574517E+03  0.19796543348E+03  0.00000000000E+00 0. -1.
</event>
<event>
 4    1  0.3069799E+006  0.2068906E+02  0.7546771E-02  0.1523751E+00
         21   -1    0    0  502  501  0.00000000000E+00  0.00000000000E+00  0.27232033803E+01  0.27232033803E+01  0.00000000000E+00 0. -1.
         21   -1    0    0  504  502 -0.00000000000E+00 -0.00000000000E+00 -0.21060916598E+03  0.21060916598E+03  0.00000000000E+00 0.  1.
         21    1    1    2  503  501 -0.10602720879E+02  0.17765680827E+02 -0.50218608049E+02  0.54313402579E+02  0.00000000000E+00 0. -1.
         21    1    1    2  504  503  0.10602720879E+02 -0.17765680827E+02 -0.15766735455E+03  0.15901896679E+03  0.00000000000E+00 0.  1.
</event>
<event>
 4    1  0.3069799E+006  0.2672927E+02  0.7546771E-02  0.1450347E+00
         21   -1    0    0  503  501  0.00000000000E+00  0.00000000000E+00  0.36070409420E+02  0.36070409420E+02  0.00000000000E+00 0. -1.
         21   -1    0    0  504  502 -0.00000000000E+00 -0.00000000000E+00 -0.18461496312E+03  0.18461496312E+03  0.00000000000E+00 0.  1.
         21    1    1    2  503  502  0.24370088107E+02  0.10979647693E+02  0.29983213306E+02  0.40167735036E+02  0.00000000000E+00 0. -1.
         21    1    1    2  504  501 -0.24370088107E+02 -0.10979647693E+02 -0.17852776701E+03  0.18051763750E+03  0.00000000000E+00 0.  1.
</event>
<event>
 4    1  0.3069799E+006  0.5900261E+02  0.7546771E-02  0.1263260E+00
         21   -1    0    0  503  501  0.00000000000E+00  0.00000000000E+00  0.90233547171E+03  0.90233547171E+03  0.00000000000E+00 0. -1.
         21   -1    0    0  501  502 -0.00000000000E+00 -0.00000000000E+00 -0.66864802507E+01  0.66864802507E+01  0.00000000000E+00 0.  1.
         21    1    1    2  503  504  0.30328714501E+02  0.50611039546E+02  0.74343089392E+03  0.74576859835E+03  0.00000000000E+00 0. -1.
         21    1    1    2  504  502 -0.30328714501E+02 -0.50611039546E+02  0.15221809753E+03  0.16325335360E+03  0.00000000000E+00 0.  1.
</event>
<event>
 4    1  0.3069799E+006  0.3031128E+02  0.7546771E-02  0.1416910E+00
         21   -1    0    0  503  501  0.00000000000E+00  0.00000000000E+00  0.13206096002E+03  0.13206096002E+03  0.00000000000E+00 0.  1.
         21   -1    0    0  504  502 -0.00000000000E+00 -0.00000000000E+00 -0.75612287421E+01  0.75612287421E+01  0.00000000000E+00 0.  1.
         21    1    1    2  503  502  0.27284035107E+02  0.13204365656E+02  0.42518421344E+02  0.52216759739E+02  0.00000000000E+00 0.  1.
         21    1    1    2  504  501 -0.27284035107E+02 -0.13204365656E+02  0.81981309929E+02  0.87405429018E+02  0.00000000000E+00 0.  1.
</event>
<event>
 4    1  0.3069799E+006  0.2252396E+02  0.7546771E-02  0.1498564E+00
         21   -1    0    0  502  501  0.00000000000E+00  0.00000000000E+00  0.42705046073E+02  0.42705046073E+02  0.00000000000E+00 0.  1.
         21   -1    0    0  503  502 -0.00000000000E+00 -0.00000000000E+00 -0.14829882666E+02  0.14829882666E+02  0.00000000000E+00 0.  1.
         21    1    1    2  503  504 -0.75126662790E+01 -0.21234132905E+02  0.11069558857E+01  0.22551139798E+02  0.00000000000E+00 0.  1.
         21    1    1    2  504  501  0.75126662790E+01  0.21234132905E+02  0.26768207521E+02  0.34983788942E+02  0.00000000000E+00 0.  1.
</event>
<event>
 4    1  0.3069799E+006  0.2515526E+02  0.7546771E-02  0.1467074E+00
         21   -1    0    0  503  501  0.00000000000E+00  0.00000000000E+00  0.72828865895E+02  0.72828865895E+02  0.00000000000E+00 0.  1.
         21   -1    0    0  501  502 -0.00000000000E+00 -0.00000000000E+00 -0.15106943843E+02  0.15106943843E+02  0.00000000000E+00 0. -1.
         21    1    1    2  503  504  0.25061494082E+02  0.21699370215E+01  0.57519632924E+02  0.62779736253E+02  0.00000000000E+00 0.  1.
         21    1    1    2  504  502 -0.25061494082E+02 -0.21699370215E+01  0.20228912787E+00  0.25156073485E+02  0.00000000000E+00 0. -1.
</event>
<event>
 4    1  0.3069799E+006  0.2189536E+02  0.7546771E-02  0.1506855E+00
         21   -1    0    0  502  501  0.00000000000E+00  0.00000000000E+00  0.34797753664E+02  0.34797753664E+02  0.00000000000E+00 0.  1.
         21   -1    0    0  504  502 -0.00000000000E+00 -0.00000000000E+00 -0.16008122234E+02  0.16008122234E+02  0.00000000000E+00 0.  1.
         21    1    1    2  503  501  0.11591889330E+01  0.21864655618E+02  0.18878571855E+02  0.28910333093E+02  0.00000000000E+00 0.  1.
         21    1    1    2  504  503 -0.11591889330E+01 -0.21864655618E+02 -0.88940424413E-01  0.21895542804E+02  0.00000000000E+00 0.  1.
</event>
<event>
 4    1  0.3069799E+006  0.5624235E+02  0.7546771E-02  0.1273163E+00
         21   -1    0    0  503  501  0.00000000000E+00  0.00000000000E+00  0.29645549124E+02  0.29645549124E+02  0.00000000000E+00 0. -1.
         21   -1    0    0  501  502 -0.00000000000E+00 -0.00000000000E+00 -0.12845732248E+03  0.12845732248E+03  0.00000000000E+00 0. -1.
         21    1    1    2  503  504  0.49518236655E+02 -0.26667332332E+02 -0.16872778899E+02  0.58718762273E+02  0.00000000000E+00 0. -1.
         21    1    1    2  504  502 -0.49518236655E+02  0.26667332332E+02 -0.81938994461E+02  0.99384109335E+02  0.00000000000E+00 0. -1.
</event>
<event>
 4    1  0.3069799E+006  0.2513239E+02  0.7546771E-02  0.1467328E+00
         21   -1    0    0  503  501  0.00000000000E+00  0.00000000000E+00  0.15381957751E+02  0.15381957751E+02  0.00000000000E+00 0. -1.
         21   -1    0    0  501  502 -0.00000000000E+00 -0.00000000000E+00 -0.11740117378E+03  0.11740117378E+03  0.00000000000E+00 0.  1.
         21    1    1    2  503  504 -0.23043652126E+02  0.10031304366E+02  0.25264218981E+01  0.25259053390E+02  0.00000000000E+00 0. -1.
         21    1    1    2  504  502  0.23043652126E+02 -0.10031304366E+02 -0.10454563792E+03  0.10752407814E+03  0.00000000000E+00 0.  1.
</event>
<event>
 4    1  0.3069799E+006  0.4164383E+02  0.7546771E-02  0.1339113E+00
         21   -1    0    0  503  501  0.00000000000E+00  0.00000000000E+00  0.28997267485E+03  0.28997267485E+03  0.00000000000E+00 0.  1.
         21   -1    0    0  504  502 -0.00000000000E+00 -0.00000000000E+00 -0.10338589383E+03  0.10338589383E+03  0.00000000000E+00 0. -1.
         21    1    1    2  503  502  0.11730521142E+02 -0.39957518918E+02  0.28419925629E+03  0.28723409567E+03  0.00000000000E+00 0.  1.
         21    1    1    2  504  501 -0.11730521142E+02  0.39957518918E+02 -0.97612475262E+02  0.10612447301E+03  0.00000000000E+00 0. -1.
</event>
<event>
 4    1  0.3069799E+006  0.2606321E+02  0.7546771E-02  0.1457252E+00
         21   -1    0    0  504  501  0.00000000000E+00  0.00000000000E+00  0.26283794173E+03  0.26283794173E+03  0.00000000000E+00 0.  1.
         21   -1    0    0  503  502 -0.00000000000E+00 -0.00000000000E+00 -0.24443864060E+02  0.24443864060E+02  0.00000000000E+00 0.  1.
         21    1    1    2  503  501 -0.23933011173E+02 -0.10319970776E+02 -0.16638209504E+02  0.30921203665E+02  0.00000000000E+00 0.  1.
         21    1    1    2  504  502  0.23933011173E+02  0.10319970776E+02  0.25503228717E+03  0.25636060212E+03  0.00000000000E+00 0.  1.
</event>
<event>
 4    1  0.3069799E+006  0.2361643E+02  0.7546771E-02  0.1484899E+00
         21   -1    0    0  504  501  0.00000000000E+00  0.00000000000E+00  0.69084574234E+01  0.69084574234E+01  0.00000000000E+00 0.  1.
         21   -1    0    0  503  502 -0.00000000000E+00 -0.00000000000E+00 -0.89108194863E+02  0.89108194863E+02  0.00000000000E+00 0.  1.
         21    1    1    2  503  501 -0.19593453473E+02  0.13184552718E+02 -0.55818676335E+02  0.60609079164E+02  0.00000000000E+00 0.  1.
         21    1    1    2  504  502  0.19593453473E+02 -0.13184552718E+02 -0.26381061105E+02  0.35407573122E+02  0.00000000000E+00 0.  1.
</event>
<event>
 4    1  0.3069799E+006  0.2864237E+02  0.7546771E-02  0.1431773E+00
         21   -1    0    0  504  501  0.00000000000E+00  0.00000000000E+00  0.38801412951E+03  0.38801412951E+03  0.00000000000E+00 0. -1.
         21   -1    0    0  503  502 -0.00000000000E+00 -0.00000000000E+00 -0.85333705919E+03  0.85333705919E+03  0.00000000000E+00 0.  1.
         21    1    1    2  503  501  0.28296760523E+02 -0.44360415541E+01 -0.85256765674E+03  0.85304864717E+03  0.00000000000E+00 0.  1.
         21    1    1    2  504  502 -0.28296760523E+02  0.44360415541E+01  0.38724472706E+03  0.38830254153E+03  0.00000000000E+00 0. -1.
</event>
<event>
 4    1  0.3069799E+006  0.2104043E+02  0.7546771E-02  0.1518688E+00
         21   -1    0    0  503  501  0.00000000000E+00  0.00000000000E+00  0.10718724178E+02  0.10718724178E+02  0.00000000000E+00 0.  1.
         21   -1    0    0  504  502 -0.00000000000E+00 -0.00000000000E+00 -0.42874242832E+02  0.42874242832E+02  0.00000000000E+00 0.  1.
         21    1    1    2  503  502 -0.96650936087E+00 -0.21018217524E+02 -0.10945535641E+02  0.23717174341E+02  0.00000000000E+00 0.  1.
         21    1    1    2  504  501  0.96650936087E+00  0.21018217524E+02 -0.21209983013E+02  0.29875792670E+02  0.00000000000E+00 0.  1.
</event>
<event>
 4    1  0.3069799E+006  0.2415483E+02  0.7546771E-02  0.1478485E+00
         21   -1    0    0  502  501  0.00000000000E+00  0.00000000000E+00  0.15687833214E+01  0.15687833214E+01  0.00000000000E+00 0. -1.
         21   -1    0    0  503  502 -0.00000000000E+00 -0.00000000000E+00 -0.94836924639E+03  0.94836924639E+03  0.00000000000E+00 0. -1.
         21    1    1    2  503  504 -0.56618967716E+01  0.23481881992E+02 -0.84370434378E+03  0.84405004329E+03  0.00000000000E+00 0. -1.
         21    1    1    2  504  501  0.56618967716E+01 -0.23481881992E+02 -0.10309611929E+03  0.10588798642E+03  0.00000000000E+00 0. -1.
</event>
<event>
 4    1  0.3069799E+006  0.3021370E+02  0.7546771E-02  0.1417748E+00
         21   -1    0    0  504  501  0.00000000000E+00  0.00000000000E+00  0.20547053103E+02  0.20547053103E+02  0.00000000000E+00 0. -1.
         21   -1    0    0  503  502 -0.00000000000E+00 -0.00000000000E+00 -0.59415989560E+02  0.59415989560E+02  0.00000000000E+00 0.  1.
         21    1    1    2  503  501 -0.30178047134E+02 -0.14673842099E+01 -0.39515084323E+02  0.49742432935E+02  0.00000000000E+00 0.  1.
         21    1    1    2  504  502  0.30178047134E+02  0.14673842099E+01  0.64614786541E+00  0.30220609728E+02  0.00000000000E+00 0. -1.
</event>
<event>
 4    1  0.3069799E+006  0.2017427E+02  0.7546771E-02  0.1531388E+00
         21   -1    0    0  502  501  0.00000000000E+00  0.00000000000E+00  0.24901056369E+03  0.24901056369E+03  0.00000000000E+00 0.  1.
         21   -1    0    0  504  502 -0.00000000000E+00 -0.00000000000E+00 -0.50125451323E+01  0.50125451323E+01  0.00000000000E+00 0.  1.
         21    1    1    2  503  501  0.20170881376E+02  0.37002090154E+00  0.22626638857E+03  0.22716399356E+03  0.00000000000E+00 0.  1.
         21    1    1    2  504  503 -0.20170881376E+02 -0.37002090154E+00  0.17731629987E+02  0.26859115268E+02  0.00000000000E+00 0.  1.
</event>
<event>
 4    1  0.3069799E+006  0.2266131E+02  0.7546771E-02  0.1496795E+00
         21   -1    0    0  502  501  0.00000000000E+00  0.00000000000E+00  0.98006543892E+02  0.98006543892E+02  0.00000000000E+00 0. -1.
         21   -1    0    0  504  502 -0.00000000000E+00 -0.00000000000E+00 -0.98009384712E+01  0.98009384712E+01  0.00000000000E+00 0. -1.
         21    1    1    2  503  501 -0.22622570074E+02  0.13245609411E+01  0.80875161347E+02  0.83990040251E+02  0.00000000000E+00 0. -1.
         21    1    1    2  504  503  0.22622570074E+02 -0.13245609411E+01  0.73304440740E+01  0.23817442112E+02  0.00000000000E+00 0. -1.
</event>
<event>
 4    1  0.3069799E+006  0.2692129E+02  0.7546771E-02  0.1448400E+00
         21   -1    0    0  502  501  0.00000000000E+00  0.00000000000E+00  0.84256633402E+01  0.84256633402E+01  0.00000000000E+00 0.  1.
         21   -1    0    0  504  502 -0.00000000000E+00 -0.00000000000E+00 -0.12868117028E+03  0.12868117028E+03  0.00000000000E+00 0.  1.
         21    1    1    2  503  501  0.12948945805E+02 -0.23602558666E+02 -0.20654782086E+02  0.33931931806E+02  0.00000000000E+00 0.  1.
         21    1    1    2  504  503 -0.12948945805E+02  0.23602558666E+02 -0.99600724858E+02  0.10317490182E+03  0.00000000000E+00 0.  1.
</event>
<event>
 4    1  0.3069799E+006  0.2188948E+02  0.7546771E-02  0.1506934E+00
         21   -1    0    0  504  501  0.00000000000E+00  0.00000000000E+00  0.16692699493E+03  0.16692699493E+03  0.00000000000E+00 0. -1.
         21   -1    0    0  501  502 -0.00000000000E+00 -0.00000000000E+00 -0.35414286422E+03  0.35414286422E+03  0.00000000000E+00 0.  1.
         21    1    1    2  503  502 -0.16800937534E+02  0.14031317941E+02 -0.35308486699E+03  0.35376273501E+03  0.00000000000E+00 0.  1.
         21    1    1    2  504  503  0.16800937534E+02 -0.14031317941E+02  0.16586899771E+03  0.16730712413E+03  0.00000000000E+00 0. -1.
</event>
<event>
 4    1  0.3069799E+006  0.2279736E+02  0.7546771E-02  0.1495059E+00
         21   -1    0    0  503  501  0.00000000000E+00  0.00000000000E+00  0.48023341974E+00  0.48023341974E+00  0.00000000000E+00 0. -1.
         21   -1    0    0  504  502 -0.00000000000E+00 -0.00000000000E+00 -0.11055681260E+04  0.11055681260E+04  0.00000000000E+00 0. -1.
         21    1    1    2  503  502 -0.19846093039E+02 -0.11218387391E+02 -0.47218208045E+03  0.47273209826E+03  0.00000000000E+00 0. -1.
         21    1    1    2  504  501  0.19846093039E+02  0.11218387391E+02 -0.63290581209E+03  0.63331626112E+03  0.00000000000E+00 0. -1.
</event>
<event>
 4    1  0.3069799E+006  0.2743947E+02  0.7546771E-02  0.1443243E+00
         21   -1    0    0  504  501  0.00000000000E+00  0.00000000000E+00  0.10417569481E+02  0.10417569481E+02  0.00000000000E+00 0. -1.
         21   -1    0    0  503  502 -0.00000000000E+00 -0.00000000000E+00 -0.19316258048E+03  0.19316258048E+03  0.00000000000E+00 0. -1.
         21    1    1    2  503  501 -0.22039045587E+02 -0.16346404878E+02 -0.17189842645E+03  0.17407467794E+03  0.00000000000E+00 0. -1.
         21    1    1    2  504  502  0.22039045587E+02  0.16346404878E+02 -0.10846584545E+02  0.29505472020E+02  0.00000000000E+00 0. -1.
</event>
<event>
 4    1  0.3069799E+006  0.3083373E+02  0.7546771E-02  0.1412487E+00
         21   -1    0    0  503  501  0.00000000000E+00  0.00000000000E+00  0.23674198535E+03  0.23674198535E+03  0.00000000000E+00 0. -1.
         21   -1    0    0  504  502 -0.00000000000E+00 -0.00000000000E+00 -0.11640037255E+02  0.11640037255E+02  0.00000000000E+00 0. -1.
         21    1    1    2  503  502 -0.23679133453E+02  0.19748869147E+02  0.21306111660E+03  0.21528065078E+03  0.00000000000E+00 0. -1.
         21    1    1    2  504  501  0.23679133453E+02 -0.19748869147E+02  0.12040831495E+02  0.33101371825E+02  0.00000000000E+00 0. -1.
</event>
<event>
 4    1  0.3069799E+006  0.2330834E+02  0.7546771E-02  0.1488662E+00
         21   -1    0    0  503  501  0.00000000000E+00  0.00000000000E+00  0.41485528298E+02  0.41485528298E+02  0.00000000000E+00 0. -1.
         21   -1    0    0  501  502 -0.00000000000E+00 -0.00000000000E+00 -0.14944384479E+02  0.14944384479E+02  0.00000000000E+00 0.  1.
         21    1    1    2  503  504  0.11421095368E+02 -0.20318396405E+02  0.23194448102E+02  0.32882534492E+02  0.00000000000E+00 0. -1.
         21    1    1    2  504  502 -0.11421095368E+02  0.20318396405E+02  0.33466957159E+01  0.23547378285E+02  0.00000000000E+00 0.  1.
</event>
<event>
 4    1  0.3069799E+006  0.2120882E+02  0.7546771E-02  0.1516304E+00
         21   -1    0    0  504  501  0.00000000000E+00  0.00000000000E+00  0.51839728864E+02  0.51839728864E+02  0.00000000000E+00 0.  1.
         21   -1    0    0  503  502 -0.00000000000E+00 -0.00000000000E+00 -0.36049642262E+03  0.36049642262E+03  0.00000000000E+00 0.  1.
         21    1    1    2  503  501  0.23719013686E+01 -0.21075767735E+02 -0.35800011646E+03  0.35862779771E+03  0.00000000000E+00 0.  1.
         21    1    1    2  504  502 -0.23719013686E+01  0.21075767735E+02  0.49343422702E+02  0.53708353779E+02  0.00000000000E+00 0.  1.
</event>
<event>
 4    1  0.3069799E+006  0.4376328E+02  0.7546771E-02  0.1327740E+00
         21   -1    0    0  503  501  0.00000000000E+00  0.00000000000E+00  0.16801528595E+02  0.16801528595E+02  0.00000000000E+00 0. -1.
         21   -1    0    0  504  502 -0.00000000000E+00 -0.00000000000E+00 -0.30797798198E+03  0.30797798198E+03  0.00000000000E+00 0.  1.
         21    1    1    2  503  502  0.14261480613E+02 -0.41374324073E+02 -0.16708386838E+02  0.46844366924E+02  0.00000000000E+00 0. -1.
         21    1    1    2  504  501 -0.14261480613E+02  0.41374324073E+02 -0.27446806655E+03  0.27793514365E+03  0.00000000000E+00 0.  1.
</event>
<event>
 4    1  0.3069799E+006  0.3058039E+02  0.7546771E-02  0.1414619E+00
         21   -1    0    0  503  501  0.00000000000E+00  0.00000000000E+00  0.35953075117E+03  0.35953075117E+03  0.00000000000E+00 0. -1.
         21   -1    0    0  501  502 -0.00000000000E+00 -0.00000000000E+00 -0.26069380473E+01  0.26069380473E+01  0.00000000000E+00 0. -1.
         21    1    1    2  503  504  0.20297343374E+02 -0.22873082829E+02  0.16986194409E+03  0.17259270006E+03  0.00000000000E+00 0. -1.
         21    1    1    2  504  502 -0.20297343374E+02  0.22873082829E+02  0.18706186903E+03  0.18954498915E+03  0.00000000000E+00 0. -1.
</event>
<event>
 4    1  0.3069799E+006  0.2059850E+02  0.7546771E-02  0.1525075E+00
         21   -1    0    0  503  501  0.00000000000E+00  0.00000000000E+00  0.84308299711E+02  0.84308299711E+02  0.00000000000E+00 0.  1.
         21   -1    0    0  504  502 -0.00000000000E+00 -0.00000000000E+00 -0.72514959999E+01  0.72514959999E+01  0.00000000000E+00 0.  1.
         21    1    1    2  503  502 -0.56495238149E+01  0.19808609514E+02  0.63851683807E+02  0.67091993973E+02  0.00000000000E+00 0.  1.
         21    1    1    2  504  501  0.56495238149E+01 -0.19808609514E+02  0.13205119904E+02  0.24467801738E+02  0.00000000000E+00 0.  1.
</event>
<event>
 4    1  0.3069799E+006  0.2174110E+02  0.7546771E-02  0.1508942E+00
         21   -1    0    0  504  501  0.00000000000E+00  0.00000000000E+00  0.28477920507E+02  0.28477920507E+02  0.00000000000E+00 0. -1.
         21   -1    0    0  503  502 -0.00000000000E+00 -0.00000000000E+00 -0.32643185129E+02  0.32643185129E+02  0.00000000000E+00 0.  1.
         21    1    1    2  503  501  0.18391104792E+01 -0.21663169755E+02 -0.23508475069E+02  0.32020675372E+02  0.00000000000E+00 0.  1.
         21    1    1    2  504  502 -0.18391104792E+01  0.21663169755E+02  0.19343210446E+02  0.29100430264E+02  0.00000000000E+00 0. -1.
</event>
<event>
 4    1  0.3069799E+006  0.2723999E+02  0.7546771E-02  0.1445212E+00
         21   -1    0    0  503  501  0.00000000000E+00  0.00000000000E+00  0.43333393940E+03  0.43333393940E+03  0.00000000000E+00 0.  1.
         21   -1    0    0  504  502 -0.00000000000E+00 -0.00000000000E+00 -0.31693088049E+01  0.31693088049E+01  0.00000000000E+00 0. -1.
         21    1    1    2  503  502  0.21220772804E+02 -0.17079105593E+02  0.67103467531E+02  0.72421629372E+02  0.00000000000E+00 0. -1.
         21    1    1    2  504  501 -0.21220772804E+02  0.17079105593E+02  0.36306116307E+03  0.36408161883E+03  0.00000000000E+00 0.  1.
</event>
<event>
 4    1  0.3069799E+006  0.2027847E+02  0.7546771E-02  0.1529820E+00
         21   -1    0    0  504  501  0.00000000000E+00  0.00000000000E+00  0.12157026719E+04  0.12157026719E+04  0.00000000000E+00 0.  1.
         21   -1    0    0  503  502 -0.00000000000E+00 -0.00000000000E+00 -0.34169762895E+00  0.34169762895E+00  0.00000000000E+00 0.  1.
         21    1    1    2  503  501  0.20270177546E+02 -0.57993965644E+00  0.66871838305E+03  0.66902577847E+03  0.00000000000E+00 0.  1.
         21    1    1    2  504  502 -0.20270177546E+02  0.57993965644E+00  0.54664259124E+03  0.54701859108E+03  0.00000000000E+00 0.  1.
</event>
<event>
 4    1  0.3069799E+006  0.3260009E+02  0.7546771E-02  0.1398269E+00
         21   -1    0    0  504  501  0.00000000000E+00  0.00000000000E+00  0.83745027205E+02  0.83745027205E+02  0.00000000000E+00 0.  1.
         21   -1    0    0  503  502 -0.00000000000E+00 -0.00000000000E+00 -0.69254925045E+02  0.69254925045E+02  0.00000000000E+00 0.  1.
         21    1    1    2  503  501 -0.30803263027E+02  0.10673547652E+02 -0.61891495985E+02  0.69952290226E+02  0.00000000000E+00 0.  1.
         21    1    1    2  504  502  0.30803263027E+02 -0.10673547652E+02  0.76381598144E+02  0.83047662024E+02  0.00000000000E+00 0.  1.
</event>
<event>
 4    1  0.3069799E+006  0.2412661E+02  0.7546771E-02  0.1478816E+00
         21   -1    0    0  503  501  0.00000000000E+00  0.00000000000E+00  0.31630568584E+02  0.31630568584E+02  0.00000000000E+00 0. -1.
         21   -1    0    0  504  502 -0.00000000000E+00 -0.00000000000E+00 -0.21924374285E+02  0.21924374285E+02  0.00000000000E+00 0. -1.
         21    1    1    2  503  502 -0.10314896192E+02 -0.21810462177E+02 -0.58786361785E+01  0.24832472836E+02  0.00000000000E+00 0. -1.
         21    1    1    2  504  501  0.10314896192E+02  0.21810462177E+02  0.15584830477E+02  0.28722470034E+02  0.00000000000E+00 0. -1.
</event>
<event>
 4    1  0.3069799E+006  0.2054822E+02  0.7546771E-02  0.1525814E+00
         21   -1    0    0  504  501  0.00000000000E+00  0.00000000000E+00  0.52822102880E+02  0.52822102880E+02  0.00000000000E+00 0. -1.
         21   -1    0    0  503  502 -0.00000000000E+00 -0.00000000000E+00 -0.84154115296E+01  0.84154115296E+01  0.00000000000E+00 0. -1.
         21    1    1    2  503  501 -0.88761000098E+01 -0.18532251048E+02  0.15346892126E+02  0.25646765453E+02  0.00000000000E+00 0. -1.
         21    1    1    2  504  502  0.88761000098E+01  0.18532251048E+02  0.29059799225E+02  0.35590748957E+02  0.00000000000E+00 0. -1.
</event>
<event>
 4    1  0.3069799E+006  0.2094058E+02  0.7546771E-02  0.1520115E+00
         21   -1    0    0  503  501  0.00000000000E+00  0.00000000000E+00  0.75641834212E+02  0.75641834212E+02  0.00000000000E+00 0. -1.
         21   -1    0    0  504  502 -0.00000000000E+00 -0.00000000000E+00 -0.58594806084E+01  0.58594806084E+01  0.00000000000E+00 0. -1.
         21    1    1    2  503  502 -0.14705698818E+02  0.14908067924E+02  0.30688661310E+02  0.37152415802E+02  0.00000000000E+00 0. -1.
         21    1    1    2  504  501  0.14705698818E+02 -0.14908067924E+02  0.39093692294E+02  0.44348899018E+02  0.00000000000E+00 0. -1.
</event>
<event>
 4    1  0.3069799E+006  0.2727625E+02  0.7546771E-02  0.1444853E+00
         21   -1    0    0  503  501  0.00000000000E+00  0.00000000000E+00  0.21583592444E+03  0.21583592444E+03  0.00000000000E+00 0.  1.
         21   -1    0    0  501  502 -0.00000000000E+00 -0.00000000000E+00 -0.51475765580E+01  0.51475765580E+01  0.00000000000E+00 0.  1.
         21    1    1    2  503  504 -0.26067395975E+02  0.80302478315E+01  0.16885124090E+03  0.17104015776E+03  0.00000000000E+00 0.  1.
         21    1    1    2  504  502  0.26067395975E+02 -0.80302478315E+01  0.41837106981E+02  0.49943343237E+02  0.00000000000E+00 0.  1.
</event>
<event>
 4    1  0.3069799E+006  0.2144274E+02  0.7546771E-02  0.1513037E+00
         21   -1    0    0  504  501  0.00000000000E+00  0.00000000000E+00  0.19167663851E+02  0.19167663851E+02  0.00000000000E+00 0. -1.
         21   -1    0    0  501  502 -0.00000000000E+00 -0.00000000000E+00 -0.10965231858E+03  0.10965231858E+03  0.00000000000E+00 0.  1.
         21    1    1    2  503  502 -0.13472091685E+02 -0.16682147280E+02 -0.10217278307E+03  0.10439860580E+03  0.00000000000E+00 0.  1.
         21    1    1    2  504  503  0.13472091685E+02  0.16682147280E+02  0.11688128345E+02  0.24421376629E+02  0.00000000000E+00 0. -1.
</event>
<event>
 4    1  0.3069799E+006  0.2217764E+02  0.7546771E-02  0.1503091E+00
         21   -1    0    0  504  501  0.00000000000E+00  0.00000000000E+00  0.43802677796E+01  0.43802677796E+01  0.00000000000E+00 0.  1.
         21   -1    0    0  501  502 -0.00000000000E+00 -0.00000000000E+00 -0.22856572437E+03  0.22856572437E+03  0.00000000000E+00 0. -1.
         21    1    1    2  503  502  0.59971707006E+01 -0.21351381758E+02 -0.19516759258E+03  0.19642361557E+03  0.00000000000E+00 0. -1.
         21    1    1    2  504  503 -0.59971707006E+01  0.21351381758E+02 -0.29017864007E+02  0.36522376578E+02  0.00000000000E+00 0.  1.
</event>
<event>
 4    1  0.3069799E+006  0.2721087E+02  0.7546771E-02  0.1445501E+00
         21   -1    0    0  504  501  0.00000000000E+00  0.00000000000E+00  0.26171482184E+03  0.26171482184E+03  0.00000000000E+00 0. -1.
         21   -1    0    0  503  502 -0.00000000000E+00 -0.00000000000E+00 -0.71503749138E+01  0.71503749138E+01  0.00000000000E+00 0. -1.
         21    1    1    2  503  501 -0.28921335483E+01  0.27056737824E+02  0.22775693444E+02  0.35484696843E+02  0.00000000000E+00 0. -1.
         21    1    1    2  504  502  0.28921335483E+01 -0.27056737824E+02  0.23178875348E+03  0.23338049991E+03  0.00000000000E+00 0. -1.
</event>
<event>
 4    1  0.3069799E+006  0.2062494E+02  0.7546771E-02  0.1524688E+00
         21   -1    0    0  504  501  0.00000000000E+00  0.00000000000E+00  0.31269169724E+03  0.31269169724E+03  0.00000000000E+00 0.  1.
         21   -1    0    0  503  502 -0.00000000000E+00 -0.00000000000E+00 -0.91824781511E+01  0.91824781511E+01  0.00000000000E+00 0.  1.
         21    1    1    2  503  501  0.19956940455E+02 -0.52066013012E+01  0.32167881115E+01  0.20874287897E+02  0.00000000000E+00 0.  1.
         21    1    1    2  504  502 -0.19956940455E+02  0.52066013012E+01  0.30029243098E+03  0.30099988750E+03  0.00000000000E+00 0.  1.
</event>
<event>
 4    1  0.3069799E+006  0.2263575E+02  0.7546771E-02  0.1497123E+00
         21   -1    0    0  504  501  0.00000000000E+00  0.00000000000E+00  0.45710390907E+02  0.45710390907E+02  0.00000000000E+00 0.  1.
         21   -1    0    0  503  502 -0.00000000000E+00 -0.00000000000E+00 -0.12973273730E+02  0.12973273730E+02  0.00000000000E+00 0.  1.
         21    1    1    2  503  501  0.13540233740E+02 -0.18139444526E+02  0.55487504974E+01  0.23305922198E+02  0.00000000000E+00 0.  1.
         21    1    1    2  504  502 -0.13540233740E+02  0.18139444526E+02  0.27188366680E+02  0.35377742440E+02  0.00000000000E+00 0.  1.
</event>
<event>
 4    1  0.3069799E+006  0.2029743E+02  0.7546771E-02  0.1529536E+00
         21   -1    0    0  504  501  0.00000000000E+00  0.00000000000E+00  0.18713342295E+02  0.18713342295E+02  0.00000000000E+00 0. -1.
         21   -1    0    0  501  502 -0.00000000000E+00 -0.00000000000E+00 -0.38440944186E+02  0.38440944186E+02  0.00000000000E+00 0. -1.
         21    1    1    2  503  502  0.12746125383E+02  0.15796267210E+02 -0.28543884220E+02  0.35024835423E+02  0.00000000000E+00 0. -1.
         21    1    1    2  504  503 -0.12746125383E+02 -0.15796267210E+02  0.88162823286E+01  0.22129451058E+02  0.00000000000E+00 0. -1.
</event>
<event>
 4    1  0.3069799E+006  0.2051664E+02  0.7546771E-02  0.1526279E+00
         21   -1    0    0  504  501  0.00000000000E+00  0.00000000000E+00  0.33628200367E+03  0.33628200367E+03  0.00000000000E+00 0.  1.
         21   -1    0    0  503  502 -0.00000000000E+00 -0.00000000000E+00 -0.19897760479E+01  0.19897760479E+01  0.00000000000E+00 0. -1.
         21    1    1    2  503  501  0.15388886838E+02 -0.13568891468E+02  0.64136722950E+02  0.67338338890E+02  0.00000000000E+00 0. -1.
         21    1    1    2  504  502 -0.15388886838E+02  0.13568891468E+02  0.27015550467E+03  0.27093344083E+03  0.00000000000E+00 0.  1.
</event>
<event>
 4    1  0.3069799E+006  0.4078830E+02  0.7546771E-02  0.1343927E+00
         21   -1    0    0  504  501  0.00000000000E+00  0.00000000000E+00  0.22405480317E+03  0.22405480317E+03  0.00000000000E+00 0.  1.
         21   -1    0    0  503  502 -0.00000000000E+00 -0.00000000000E+00 -0.97992344002E+01  0.97992344002E+01  0.00000000000E+00 0.  1.
         21    1    1    2  503  501 -0.39953434476E+02  0.82102852179E+01  0.49577372915E+02  0.64199701050E+02  0.00000000000E+00 0.  1.
         21    1    1    2  504  502  0.39953434476E+02 -0.82102852179E+01  0.16467819585E+03  0.16965433652E+03  0.00000000000E+00 0.  1.
</event>
<event>
 4    1  0.3069799E+006  0.2763613E+02  0.7546771E-02  0.1441321E+00
         21   -1    0    0  502  501  0.00000000000E+00  0.00000000000E+00  0.22862644909E+02  0.22862644909E+02  0.00000000000E+00 0. -1.
         21   -1    0    0  504  502 -0.00000000000E+00 -0.00000000000E+00 -0.23953654395E+03  0.23953654395E+03  0.00000000000E+00 0. -1.
         21    1    1    2  503  501 -0.27182169305E+02 -0.49885158305E+01  0.13370593842E+02  0.30700625368E+02  0.00000000000E+00 0. -1.
         21    1    1    2  504  503  0.27182169305E+02  0.49885158305E+01 -0.23004449288E+03  0.23169856349E+03  0.00000000000E+00 0. -1.
</event>
<event>
 4    1  0.3069799E+006  0.6718936E+02  0.7546771E-02  0.1237185E+00
         21   -1    0    0  503  501  0.00000000000E+00  0.00000000000E+00  0.61478380701E+03  0.61478380701E+03  0.00000000000E+00 0. -1.
         21   -1    0    0  504  502 -0.00000000000E+00 -0.00000000000E+00 -0.48727870240E+02  0.48727870240E+02  0.00000000000E+00 0.  1.
         21    1    1    2  503  502 -0.20686533187E+02  0.63925560661E+02 -0.22710588234E+02  0.70923767378E+02  0.00000000000E+00 0.  1.
         21    1    1    2  504  501  0.20686533187E+02 -0.63925560661E+02  0.58876652501E+03  0.59258790987E+03  0.00000000000E+00 0. -1.
</event>
<event>
 4    1  0.3069799E+006  0.2678252E+02  0.7546771E-02  0.1449805E+00
         21   -1    0    0  504  501  0.00000000000E+00  0.00000000000E+00  0.59341178479E+03  0.59341178479E+03  0.00000000000E+00 0. -1.
         21   -1    0    0  503  502 -0.00000000000E+00 -0.00000000000E+00 -0.56259233412E+02  0.56259233412E+02  0.00000000000E+00 0.  1.
         21    1    1    2  503  501 -0.26719410931E+02 -0.18375610097E+01 -0.52750597306E+02  0.59160198336E+02  0.00000000000E+00 0.  1.
         21    1    1    2  504  502  0.26719410931E+02  0.18375610097E+01  0.58990314868E+03  0.59051081986E+03  0.00000000000E+00 0. -1.
</event>
<event>
 4    1  0.3069799E+006  0.3067186E+02  0.7546771E-02  0.1413846E+00
         21   -1    0    0  504  501  0.00000000000E+00  0.00000000000E+00  0.67397101657E+02  0.67397101657E+02  0.00000000000E+00 0. -1.
         21   -1    0    0  503  502 -0.00000000000E+00 -0.00000000000E+00 -0.52475964120E+03  0.52475964120E+03  0.00000000000E+00 0.  1.
         21    1    1    2  503  501  0.22254082637E+02  0.21107321037E+02 -0.52079528528E+03  0.52169770209E+03  0.00000000000E+00 0.  1.
         21    1    1    2  504  502 -0.22254082637E+02 -0.21107321037E+02  0.63432745733E+02  0.70459040773E+02  0.00000000000E+00 0. -1.
</event>
<event>
 4    1  0.3069799E+006  0.2596913E+02  0.7546771E-02  0.1458247E+00
         21   -1    0    0  503  501  0.00000000000E+00  0.00000000000E+00  0.14006881745E+02  0.14006881745E+02  0.00000000000E+00 0.  1.
         21   -1    0    0  501  502 -0.00000000000E+00 -0.00000000000E+00 -0.69525552306E+02  0.69525552306E+02  0.00000000000E+00 0.  1.
         21    1    1    2  503  504 -0.50830930333E+01  0.25466803858E+02 -0.45994033489E+01  0.26373290365E+02  0.00000000000E+00 0.  1.
         21    1    1    2  504  502  0.50830930333E+01 -0.25466803858E+02 -0.50919267212E+02  0.57159143686E+02  0.00000000000E+00 0.  1.
</event>
<event>
 4    1  0.3069799E+006  0.2571968E+02  0.7546771E-02  0.1460911E+00
         21   -1    0    0  503  501  0.00000000000E+00  0.00000000000E+00  0.17377231810E+03  0.17377231810E+03  0.00000000000E+00 0. -1.
         21   -1    0    0  504  502 -0.00000000000E+00 -0.00000000000E+00 -0.49303857367E+02  0.49303857367E+02  0.00000000000E+00 0. -1.
         21    1    1    2  503  502 -0.15408172919E+02 -0.20593447064E+02 -0.44911483003E+02  0.51754643852E+02  0.00000000000E+00 0. -1.
         21    1    1    2  504  501  0.15408172919E+02  0.20593447064E+02  0.16937994374E+03  0.17132153162E+03  0.00000000000E+00 0. -1.
</event>
<event>
 4    1  0.3069799E+006  0.3697516E+02  0.7546771E-02  0.1367185E+00
         21   -1    0    0  503  501  0.00000000000E+00  0.00000000000E+00  0.99310481566E+02  0.99310481566E+02  0.00000000000E+00 0. -1.
         21   -1    0    0  504  502 -0.00000000000E+00 -0.00000000000E+00 -0.85825243646E+02  0.85825243646E+02  0.00000000000E+00 0.  1.
         21    1    1    2  503  502 -0.36186221839E+02 -0.75973491261E+01 -0.78076921701E+02  0.86389629395E+02  0.00000000000E+00 0.  1.
         21    1    1    2  504  501  0.36186221839E+02  0.75973491261E+01  0.91562159621E+02  0.98746095817E+02  0.00000000000E+00 0. -1.
</event>
<event>
 4    1  0.3069799E+006  0.2084576E+02  0.7546771E-02  0.1521478E+00
         21   -1    0    0  503  501  0.00000000000E+00  0.00000000000E+00  0.16335814129E+02  0.16335814129E+02  0.00000000000E+00 0.  1.
         21   -1    0    0  504  502 -0.00000000000E+00 -0.00000000000E+00 -0.38627118367E+02  0.38627118367E+02  0.00000000000E+00 0.  1.
         21    1    1    2  503  502 -0.13359722470E+02  0.16001985476E+02 -0.26479815788E+02  0.33700539577E+02  0.00000000000E+00 0.  1.
         21    1    1    2  504  501  0.13359722470E+02 -0.16001985476E+02  0.41885115499E+01  0.21262392919E+02  0.00000000000E+00 0.  1.
</event>
<event>
 4    1  0.3069799E+006  0.2000749E+02  0.7546771E-02  0.1533921E+00
         21   -1    0    0  504  501  0.00000000000E+00  0.00000000000E+00  0.27979468449E+02  0.27979468449E+02  0.00000000000E+00 0. -1.
         21   -1    0    0  503  502 -0.00000000000E+00 -0.00000000000E+00 -0.19465587847E+02  0.19465587847E+02  0.00000000000E+00 0.  1.
         21    1    1    2  503  501  0.15116340157E+02 -0.13107101491E+02 -0.79553253723E+01  0.21531071757E+02  0.00000000000E+00 0.  1.
         21    1    1    2  504  502 -0.15116340157E+02  0.13107101491E+02  0.16469205974E+02  0.25913984538E+02  0.00000000000E+00 0. -1.
</event>
<event>
 4    1  0.3069799E+006  0.2046939E+02  0.7546771E-02  0.1526977E+00
         21   -1    0    0  504  501  0.00000000000E+00  0.00000000000E+00  0.15129105767E+02  0.15129105767E+02  0.00000000000E+00 0. -1.
         21   -1    0    0  503  502 -0.00000000000E+00 -0.00000000000E+00 -0.20481782236E+03  0.20481782236E+03  0.00000000000E+00 0.  1.
         21    1    1    2  503  501 -0.11414958690E+02  0.16991022051E+02 -0.19711280441E+03  0.19817278768E+03  0.00000000000E+00 0.  1.
         21    1    1    2  504  502  0.11414958690E+02 -0.16991022051E+02  0.74240878224E+01  0.21774140448E+02  0.00000000000E+00 0. -1.
</event>
<event>
 4    1  0.3069799E+006  0.3756629E+02  0.7546771E-02  0.1363369E+00
         21   -1    0    0  503  501  0.00000000000E+00  0.00000000000E+00  0.41837300583E+02  0.41837300583E+02  0.00000000000E+00 0. -1.
         21   -1    0    0  504  502 -0.00000000000E+00 -0.00000000000E+00 -0.12608880344E+03  0.12608880344E+03  0.00000000000E+00 0. -1.
         21    1    1    2  503  502 -0.32464843005E+02  0.18901330505E+02  0.29734057670E+02  0.47909712081E+02  0.00000000000E+00 0. -1.
         21    1    1    2  504  501  0.32464843005E+02 -0.18901330505E+02 -0.11398556052E+03  0.12001639194E+03  0.00000000000E+00 0. -1.
</event>
<event>
 4    1  0.3069799E+006  0.2187409E+02  0.7546771E-02  0.1507142E+00
         21   -1    0    0  503  501  0.00000000000E+00  0.00000000000E+00  0.15498380945E+03  0.15498380945E+03  0.00000000000E+00 0. -1.
         21   -1    0    0  504  502 -0.00000000000E+00 -0.00000000000E+00 -0.56807925832E+01  0.56807925832E+01  0.00000000000E+00 0.  1.
         21    1    1    2  503  502  0.14333621852E+02 -0.16523412716E+02  0.12893043974E+03  0.13077283424E+03  0.00000000000E+00 0. -1.
         21    1    1    2  504  501 -0.14333621852E+02  0.16523412716E+02  0.20372577129E+02  0.29891767797E+02  0.00000000000E+00 0.  1.
</event>
<event>
 4    1  0.3069799E+006  0.2141110E+02  0.7546771E-02  0.1513476E+00
         21   -1    0    0  503  501  0.00000000000E+00  0.00000000000E+00  0.42444757783E+03  0.42444757783E+03  0.00000000000E+00 0. -1.
         21   -1    0    0  504  502 -0.00000000000E+00 -0.00000000000E+00 -0.11279009155E+01  0.11279009155E+01  0.00000000000E+00 0. -1.
         21    1    1    2  503  502 -0.29656555462E+01  0.21204719464E+02  0.16784284962E+03  0.16920300650E+03  0.00000000000E+00 0. -1.
         21    1    1    2  504  501  0.29656555462E+01 -0.21204719464E+02  0.25547682730E+03  0.25637247225E+03  0.00000000000E+00 0. -1.
</event>
<event>
 4    1  0.3069799E+006  0.2061612E+02  0.7546771E-02  0.1524817E+00
         21   -1    0    0  504  501  0.00000000000E+00  0.00000000000E+00  0.28770069962E+03  0.28770069962E+03  0.00000000000E+00 0. -1.
         21   -1    0    0  503  502 -0.00000000000E+00 -0.00000000000E+00 -0.25268192254E+03  0.25268192254E+03  0.00000000000E+00 0. -1.
         21    1    1    2  503  501 -0.20106992314E+02  0.45533700554E+01 -0.25189092297E+03  0.25273318221E+03  0.00000000000E+00 0. -1.
         21    1    1    2  504  502  0.20106992314E+02 -0.45533700554E+01  0.28690970005E+03  0.28764943994E+03  0.00000000000E+00 0. -1.
</event>
<event>
 4    1  0.3069799E+006  0.2001244E+02  0.7546771E-02  0.1533846E+00
         21   -1    0    0  503  501  0.00000000000E+00  0.00000000000E+00  0.44992764660E+02  0.44992764660E+02  0.00000000000E+00 0. -1.
         21   -1    0    0  504  502 -0.00000000000E+00 -0.00000000000E+00 -0.17463885023E+02  0.17463885023E+02  0.00000000000E+00 0. -1.
         21    1    1    2  503  502  0.13808455827E+01  0.19964743652E+02  0.35630908899E+02  0.40866360158E+02  0.00000000000E+00 0. -1.
         21    1    1    2  504  501 -0.13808455827E+01 -0.19964743652E+02 -0.81020292616E+01  0.21590289525E+02  0.00000000000E+00 0. -1.
</event>
<event>
 4    1  0.3069799E+006  0.2118246E+02  0.7546771E-02  0.1516676E+00
         21   -1    0    0  504  501  0.00000000000E+00  0.00000000000E+00  0.25533194659E+01  0.25533194659E+01  0.00000000000E+00 0.  1.
         21   -1    0    0  501  502 -0.00000000000E+00 -0.00000000000E+00 -0.30230476823E+03  0.30230476823E+03  0.00000000000E+00 0.  1.
         21    1    1    2  503  502  0.20334735249E+02 -0.59325621993E+01 -0.24850764855E+03  0.24940879724E+03  0.00000000000E+00 0.  1.
         21    1    1    2  504  503 -0.20334735249E+02  0.59325621993E+01 -0.51243800215E+02  0.55449290459E+02  0.00000000000E+00 0.  1.
</event>
<event>
 4    1  0.3069799E+006  0.2888621E+02  0.7546771E-02  0.1429528E+00
         21   -1    0    0  504  501  0.00000000000E+00  0.00000000000E+00  0.29537801860E+03  0.29537801860E+03  0.00000000000E+00 0.  1.
         21   -1    0    0  503  502 -0.00000000000E+00 -0.00000000000E+00 -0.54907106802E+02  0.54907106802E+02  0.00000000000E+00 0. -1.
         21    1    1    2  503  501  0.15478224359E+02  0.24389297653E+02 -0.50342187488E+02  0.58040926168E+02  0.00000000000E+00 0. -1.
         21    1    1    2  504  502 -0.15478224359E+02 -0.24389297653E+02  0.29081309928E+03  0.29224419923E+03  0.00000000000E+00 0.  1.
</event>
<event>
 4    1  0.3069799E+006  0.2261063E+02  0.7546771E-02  0.1497446E+00
         21   -1    0    0  503  501  0.00000000000E+00  0.00000000000E+00  0.16211801248E+02  0.16211801248E+02  0.00000000000E+00 0.  1.
         21   -1    0    0  504  502 -0.00000000000E+00 -0.00000000000E+00 -0.32298931789E+02  0.32298931789E+02  0.00000000000E+00 0.  1.
         21    1    1    2  503  502 -0.15347908932E+00 -0.22610109939E+02 -0.43135106522E+01  0.23018405710E+02  0.00000000000E+00 0.  1.
         21    1    1    2  504  501  0.15347908932E+00  0.22610109939E+02 -0.11773619890E+02  0.25492327328E+02  0.00000000000E+00 0.  1.
</event>
<event>
 4    1  0.3069799E+006  0.2957541E+02  0.7546771E-02  0.1423322E+00
         21   -1    0    0  502  501  0.00000000000E+00  0.00000000000E+00  0.60002994946E+02  0.60002994946E+02  0.00000000000E+00 0.  1.
         21   -1    0    0  504  502 -0.00000000000E+00 -0.00000000000E+00 -0.16538365805E+03  0.16538365805E+03  0.00000000000E+00 0.  1.
         21    1    1    2  503  501  0.29542792959E+02 -0.13885955727E+01  0.54921784698E+02  0.62378740352E+02  0.00000000000E+00 0.  1.
         21    1    1    2  504  503 -0.29542792959E+02  0.13885955727E+01 -0.16030244781E+03  0.16300791265E+03  0.00000000000E+00 0.  1.
</event>
<event>
 4    1  0.3069799E+006  0.3199788E+02  0.7546771E-02  0.1402994E+00
         21   -1    0    0  504  501  0.00000000000E+00  0.00000000000E+00  0.97572643319E+01  0.97572643319E+01  0.00000000000E+00 0.  1.
         21   -1    0    0  503  502 -0.00000000000E+00 -0.00000000000E+00 -0.29027761925E+03  0.29027761925E+03  0.00000000000E+00 0.  1.
         21    1    1    2  503  501  0.17304374417E+02 -0.26915111993E+02 -0.26013398411E+03  0.26209455224E+03  0.00000000000E+00 0.  1.
         21    1    1    2  504  502 -0.17304374417E+02  0.26915111993E+02 -0.20386370817E+02  0.37940331346E+02  0.00000000000E+00 0.  1.
</event>
<event>
 4    1  0.3069799E+006  0.3776707E+02  0.7546771E-02  0.1362092E+00
         21   -1    0    0  504  501  0.00000000000E+00  0.00000000000E+00  0.10732467519E+03  0.10732467519E+03  0.00000000000E+00 0. -1.
         21   -1    0    0  503  502 -0.00000000000E+00 -0.00000000000E+00 -0.22249387667E+02  0.22249387667E+02  0.00000000000E+00 0. -1.
         21    1    1    2  503  501  0.28775521704E+02  0.24460600179E+02  0.83649463996E+02  0.91780087368E+02  0.00000000000E+00 0. -1.
         21    1    1    2  504  502 -0.28775521704E+02 -0.24460600179E+02  0.14258235264E+01  0.37793975488E+02  0.00000000000E+00 0. -1.
</event>
<event>
 4    1  0.3069799E+006  0.2301080E+02  0.7546771E-02  0.1492363E+00
         21   -1    0    0  503  501  0.00000000000E+00  0.00000000000E+00  0.30914795657E+03  0.30914795657E+03  0.00000000000E+00 0.  1.
         21   -1    0    0  504  502 -0.00000000000E+00 -0.00000000000E+00 -0.22632363482E+02  0.22632363482E+02  0.00000000000E+00 0.  1.
         21    1    1    2  503  502 -0.22524792045E+02 -0.47043438997E+01 -0.16231802767E+02  0.28159696896E+02  0.00000000000E+00 0.  1.
         21    1    1    2  504  501  0.22524792045E+02  0.47043438997E+01  0.30274739586E+03  0.30362062316E+03  0.00000000000E+00 0.  1.
</event>
<event>
 4    1  0.3069799E+006  0.2551138E+02  0.7546771E-02  0.1463163E+00
         21   -1    0    0  503  501  0.00000000000E+00  0.00000000000E+00  0.87007128006E+01  0.87007128006E+01  0.00000000000E+00 0. -1.
         21   -1    0    0  501  502 -0.00000000000E+00 -0.00000000000E+00 -0.81768443144E+02  0.81768443144E+02  0.00000000000E+00 0. -1.
         21    1    1    2  503  504 -0.17882061869E+02 -0.18195114092E+02 -0.23330498657E+02  0.34570832809E+02  0.00000000000E+00 0. -1.
         21    1    1    2  504  502  0.17882061869E+02  0.18195114092E+02 -0.49737231686E+02  0.55898323135E+02  0.00000000000E+00 0. -1.
</event>
<event>
 4    1  0.3069799E+006  0.3760068E+02  0.7546771E-02  0.1363150E+00
         21   -1    0    0  503  501  0.00000000000E+00  0.00000000000E+00  0.74034748248E+02  0.74034748248E+02  0.00000000000E+00 0. -1.
         21   -1    0    0  504  502 -0.00000000000E+00 -0.00000000000E+00 -0.35138284413E+02  0.35138284413E+02  0.00000000000E+00 0.  1.
         21    1    1    2  503  502 -0.20318775867E+02 -0.31637928232E+02 -0.17434258277E+02  0.41445922806E+02  0.00000000000E+00 0.  1.
         21    1    1    2  504  501  0.20318775867E+02  0.31637928232E+02  0.56330722113E+02  0.67727109855E+02  0.00000000000E+00 0. -1.
</event>
<event>
 4    1  0.3069799E+006  0.2326287E+02  0.7546771E-02  0.1489223E+00
         21   -1    0    0  503  501  0.00000000000E+00  0.00000000000E+00  0.77145250598E+02  0.77145250598E+02  0.00000000000E+00 0. -1.
         21   -1    0    0  504  502 -0.00000000000E+00 -0.00000000000E+00 -0.57396050731E+02  0.57396050731E+02  0.00000000000E+00 0. -1.
         21    1    1    2  503  502  0.14131855492E+02 -0.18478417943E+02  0.72900483216E+02  0.76522164909E+02  0.00000000000E+00 0. -1.
         21    1    1    2  504  501 -0.14131855492E+02  0.18478417943E+02 -0.53151283348E+02  0.58019136420E+02  0.00000000000E+00 0. -1.
</event>
<event>
 4    1  0.3069799E+006  0.2182725E+02  0.7546771E-02  0.1507774E+00
         21   -1    0    0  504  501  0.00000000000E+00  0.00000000000E+00  0.96138579166E+02  0.96138579166E+02  0.00000000000E+00 0. -1.
         21   -1    0    0  503  502 -0.00000000000E+00 -0.00000000000E+00 -0.56183314396E+01  0.56183314396E+01  0.00000000000E+00 0. -1.
         21    1    1    2  503  501 -0.35828391609E+01  0.21531187591E+02  0.27786462344E+02  0.35334349649E+02  0.00000000000E+00 0. -1.
         21    1    1    2  504  502  0.35828391609E+01 -0.21531187591E+02  0.62733785383E+02  0.66422560956E+02  0.00000000000E+00 0. -1.
</event>
<event>
 4    1  0.3069799E+006  0.2771246E+02  0.7546771E-02  0.1440580E+00
         21   -1    0    0  503  501  0.00000000000E+00  0.00000000000E+00  0.22433908138E+01  0.22433908138E+01  0.00000000000E+00 0.  1.
         21   -1    0    0  504  502 -0.00000000000E+00 -0.00000000000E+00 -0.58713933271E+03  0.58713933271E+03  0.00000000000E+00 0.  1.
         21    1    1    2  503  502 -0.23840767726E+02  0.14127917361E+02 -0.10216028116E+03  0.10585227112E+03  0.00000000000E+00 0.  1.
         21    1    1    2  504  501  0.23840767726E+02 -0.14127917361E+02 -0.48273566073E+03  0.48353045240E+03  0.00000000000E+00 0.  1.
</event>
<event>
 4    1  0.3069799E+006  0.2287979E+02  0.7546771E-02  0.1494013E+00
         21   -1    0    0  504  501  0.00000000000E+00  0.00000000000E+00  0.40385171469E+02  0.40385171469E+02  0.00000000000E+00 0.  1.
         21   -1    0    0  503  502 -0.00000000000E+00 -0.00000000000E+00 -0.42193348330E+02  0.42193348330E+02  0.00000000000E+00 0.  1.
         21    1    1    2  503  501 -0.16675666472E+02 -0.15665470458E+02 -0.35270744631E+02  0.42041767848E+02  0.00000000000E+00 0.  1.
         21    1    1    2  504  502  0.16675666472E+02  0.15665470458E+02  0.33462567770E+02  0.40536751951E+02  0.00000000000E+00 0.  1.
</event>
<event>
 4    1  0.3069799E+006  0.2032004E+02  0.7546771E-02  0.1529198E+00
         21   -1    0    0  502  501  0.00000000000E+00  0.00000000000E+00  0.23893765675E+02  0.23893765675E+02  0.00000000000E+00 0.  1.
         21   -1    0    0  504  502 -0.00000000000E+00 -0.00000000000E+00 -0.47629334107E+02  0.47629334107E+02  0.00000000000E+00 0. -1.
         21    1    1    2  503  501 -0.10857480054E+02  0.17176116980E+02  0.16678382172E+02  0.26288254022E+02  0.00000000000E+00 0.  1.
         21    1    1    2  504  503  0.10857480054E+02 -0.17176116980E+02 -0.40413950604E+02  0.45234845761E+02  0.00000000000E+00 0. -1.
</event>
<event>
 4    1  0.3069799E+006  0.2392210E+02  0.7546771E-02  0.1481233E+00
         21   -1    0    0  504  501  0.00000000000E+00  0.00000000000E+00  0.57824506452E+01  0.57824506452E+01  0.00000000000E+00 0.  1.
         21   -1    0    0  501  502 -0.00000000000E+00 -0.00000000000E+00 -0.43684615653E+03  0.43684615653E+03  0.00000000000E+00 0.  1.
         21    1    1    2  503  502  0.31421948104E+01  0.23714834810E+02 -0.41016933688E+03  0.41086634286E+03  0.00000000000E+00 0.  1.
         21    1    1    2  504  503 -0.31421948104E+01 -0.23714834810E+02 -0.20894369002E+02  0.31762264313E+02  0.00000000000E+00 0.  1.
</event>
<event>
 4    1  0.3069799E+006  0.2548789E+02  0.7546771E-02  0.1463419E+00
         21   -1    0    0  503  501  0.00000000000E+00  0.00000000000E+00  0.63789801133E+03  0.63789801133E+03  0.00000000000E+00 0.  1.
         21   -1    0    0  504  502 -0.00000000000E+00 -0.00000000000E+00 -0.12495252897E+01  0.12495252897E+01  0.00000000000E+00 0. -1.
         21    1    1    2  503  502  0.23930132004E+02  0.87738949668E+01  0.18087999148E+03  0.18266692029E+03  0.00000000000E+00 0. -1.
         21    1    1    2  504  501 -0.23930132004E+02 -0.87738949668E+01  0.45576849456E+03  0.45648061633E+03  0.00000000000E+00 0.  1.
</event>
<event>
 4    1  0.3069799E+006  0.2440749E+02  0.7546771E-02  0.1475542E+00
         21   -1    0    0  503  501  0.00000000000E+00  0.00000000000E+00  0.26744721083E+02  0.26744721083E+02  0.00000000000E+00 0. -1.
         21   -1    0    0  501  502 -0.00000000000E+00 -0.00000000000E+00 -0.36348744577E+02  0.36348744577E+02  0.00000000000E+00 0. -1.
         21    1    1    2  503  504 -0.23295691605E+02 -0.72826155397E+01  0.14828063715E+02  0.28558662608E+02  0.00000000000E+00 0. -1.
         21    1    1    2  504  502  0.23295691605E+02  0.72826155397E+01 -0.24432087209E+02  0.34534803052E+02  0.00000000000E+00 0. -1.
</event>
<event>
 4    1  0.3069799E+006  0.2344700E+02  0.7546771E-02  0.1486960E+00
         21   -1    0    0  503  501  0.00000000000E+00  0.00000000000E+00  0.26366324664E+03  0.26366324664E+03  0.00000000000E+00 0.  1.
         21   -1    0    0  504  502 -0.00000000000E+00 -0.00000000000E+00 -0.23803776343E+01  0.23803776343E+01  0.00000000000E+00 0.  1.
         21    1    1    2  503  502  0.21701631730E+02 -0.88769963845E+01  0.83790121876E+02  0.87008886952E+02  0.00000000000E+00 0.  1.
         21    1    1    2  504  501 -0.21701631730E+02  0.88769963845E+01  0.17749274713E+03  0.17903473732E+03  0.00000000000E+00 0.  1.
</event>
<event>
 4    1  0.3069799E+006  0.2558206E+02  0.7546771E-02  0.1462396E+00
         21   -1    0    0  503  501  0.00000000000E+00  0.00000000000E+00  0.16842551171E+02  0.16842551171E+02  0.00000000000E+00 0. -1.
         21   -1    0    0  504  502 -0.00000000000E+00 -0.00000000000E+00 -0.76498056176E+02  0.76498056176E+02  0.00000000000E+00 0.  1.
         21    1    1    2  503  502  0.21638147782E+02  0.13646697309E+02  0.29100471527E+01  0.25747041797E+02  0.00000000000E+00 0. -1.
         21    1    1    2  504  501 -0.21638147782E+02 -0.13646697309E+02 -0.62565552158E+02  0.67593565550E+02  0.00000000000E+00 0.  1.
</event>
<event>
 4    1  0.3069799E+006  0.2187265E+02  0.7546771E-02  0.1507161E+00
         21   -1    0    0  502  501  0.00000000000E+00  0.00000000000E+00  0.38594392049E+02  0.38594392049E+02  0.00000000000E+00 0.  1.
         21   -1    0    0  503  502 -0.00000000000E+00 -0.00000000000E+00 -0.16190775359E+02  0.16190775359E+02  0.00000000000E+00 0.  1.
         21    1    1    2  503  504  0.17113745277E+02  0.13621027411E+02 -0.20598330027E+01  0.21969423687E+02  0.00000000000E+00 0.  1.
         21    1    1    2  504  501 -0.17113745277E+02 -0.13621027411E+02  0.24463449692E+02  0.32815743721E+02  0.00000000000E+00 0.  1.
</event>
<event>
 4    1  0.3069799E+006  0.2357852E+02  0.7546771E-02  0.1485359E+00
         21   -1    0    0  502  501  0.00000000000E+00  0.00000000000E+00  0.36875947914E+01  0.36875947914E+01  0.00000000000E+00 0.  1.
         21   -1    0    0  504  502 -0.00000000000E+00 -0.00000000000E+00 -0.17953153831E+03  0.17953153831E+03  0.00000000000E+00 0.  1.
         21    1    1    2  503  501  0.20235813780E+02  0.12101999742E+02 -0.51249326434E+02  0.56413119192E+02  0.00000000000E+00 0.  1.
         21    1    1    2  504  503 -0.20235813780E+02 -0.12101999742E+02 -0.12459461709E+03  0.12680601391E+03  0.00000000000E+00 0.  1.
</event>
<event>
 4    1  0.3069799E+006  0.2739586E+02  0.7546771E-02  0.1443672E+00
         21   -1    0    0  503  501  0.00000000000E+00  0.00000000000E+00  0.25932021667E+03  0.25932021667E+03  0.00000000000E+00 0.  1.
         21   -1    0    0  501  502 -0.00000000000E+00 -0.00000000000E+00 -0.33416541691E+01  0.33416541691E+01  0.00000000000E+00 0.  1.
         21    1    1    2  503  504 -0.18386491652E+01  0.27334087573E+02  0.17604497371E+03  0.17816387328E+03  0.00000000000E+00 0.  1.
         21    1    1    2  504  502  0.18386491652E+01 -0.27334087573E+02  0.79933588790E+02  0.84497997557E+02  0.00000000000E+00 0.  1.
</event>
<event>
 4    1  0.3069799E+006  0.2019302E+02  0.7546771E-02  0.1531105E+00
         21   -1    0    0  502  501  0.00000000000E+00  0.00000000000E+00  0.36571424435E+02  0.36571424435E+02  0.00000000000E+00 0. -1.
         21   -1    0    0  504  502 -0.00000000000E+00 -0.00000000000E+00 -0.15456453776E+03  0.15456453776E+03  0.00000000000E+00 0.  1.
         21    1    1    2  503  501  0.15820224697E+01  0.20130956492E+02  0.33059976655E+02  0.38739130874E+02  0.00000000000E+00 0. -1.
         21    1    1    2  504  503 -0.15820224697E+01 -0.20130956492E+02 -0.15105308998E+03  0.15239683133E+03  0.00000000000E+00 0.  1.
</event>
<event>
 4    1  0.3069799E+006  0.2813232E+02  0.7546771E-02  0.1436554E+00
         21   -1    0    0  503  501  0.00000000000E+00  0.00000000000E+00  0.54075645258E+02  0.54075645258E+02  0.00000000000E+00 0.  1.
         21   -1    0    0  504  502 -0.00000000000E+00 -0.00000000000E+00 -0.15671978977E+02  0.15671978977E+02  0.00000000000E+00 0.  1.
         21    1    1    2  503  502 -0.15480616706E+02 -0.23489952534E+02  0.10233636314E+02  0.29935842662E+02  0.00000000000E+00 0.  1.
         21    1    1    2  504  501  0.15480616706E+02  0.23489952534E+02  0.28170029967E+02  0.39811781573E+02  0.00000000000E+00 0.  1.
</event>
<event>
 4    1  0.3069799E+006  0.2031523E+02  0.7546771E-02  0.1529270E+00
         21   -1    0    0  504  501  0.00000000000E+00  0.00000000000E+00  0.74263890589E+01  0.74263890589E+01  0.00000000000E+00 0.  1.
         21   -1    0    0  501  502 -0.00000000000E+00 -0.00000000000E+00 -0.63237200850E+02  0.63237200850E+02  0.00000000000E+00 0. -1.
         21    1    1    2  503  502  0.17329928267E+02 -0.10601052931E+02 -0.40205406215E+02  0.45046458528E+02  0.00000000000E+00 0. -1.
         21    1    1    2  504  503 -0.17329928267E+02  0.10601052931E+02 -0.15605405576E+02  0.25617131381E+02  0.00000000000E+00 0.  1.
</event>
<event>
 4    1  0.3069799E+006  0.2895305E+02  0.7546771E-02  0.1428918E+00
         21   -1    0    0  504  501  0.00000000000E+00  0.00000000000E+00  0.53939549439E+02  0.53939549439E+02  0.00000000000E+00 0.  1.
         21   -1    0    0  501  502 -0.00000000000E+00 -0.00000000000E+00 -0.84347939711E+02  0.84347939711E+02  0.00000000000E+00 0.  1.
         21    1    1    2  503  502  0.18104363221E+02  0.22594490551E+02 -0.77654062169E+02  0.82876005829E+02  0.00000000000E+00 0.  1.
         21    1    1    2  504  503 -0.18104363221E+02 -0.22594490551E+02  0.47245671896E+02  0.55411483321E+02  0.00000000000E+00 0.  1.
</event>
<event>
 4    1  0.3069799E+006  0.2398409E+02  0.7546771E-02  0.1480497E+00
         21   -1    0    0  504  501  0.00000000000E+00  0.00000000000E+00  0.52726525077E+02  0.52726525077E+02  0.00000000000E+00 0. -1.
         21   -1    0    0  501  502 -0.00000000000E+00 -0.00000000000E+00 -0.84647367312E+02  0.84647367312E+02  0.00000000000E+00 0. -1.
         21    1    1    2  503  502 -0.23225764270E+02 -0.59833657829E+01 -0.80068362381E+02  0.83583368240E+02  0.00000000000E+00 0. -1.
         21    1    1    2  504  503  0.23225764270E+02  0.59833657829E+01  0.48147520146E+02  0.53790524149E+02  0.00000000000E+00 0. -1.
</event>
<event>
 4    1  0.3069799E+006  0.2986261E+02  0.7546771E-02  0.1420794E+00
         21   -1    0    0  503  501  0.00000000000E+00  0.00000000000E+00  0.60936294320E+03  0.60936294320E+03  0.00000000000E+00 0. -1.
         21   -1    0    0  504  502 -0.00000000000E+00 -0.00000000000E+00 -0.76983443715E+01  0.76983443715E+01  0.00000000000E+00 0. -1.
         21    1    1    2  503  502  0.29503346633E+02  0.46182237051E+01  0.23171862779E+02  0.37798289345E+02  0.00000000000E+00 0. -1.
         21    1    1    2  504  501 -0.29503346633E+02 -0.46182237051E+01  0.57849273605E+03  0.57926299823E+03  0.00000000000E+00 0. -1.
</event>
<event>
 4    1  0.3069799E+006  0.3020042E+02  0.7546771E-02  0.1417863E+00
         21   -1    0    0  502  501  0.00000000000E+00  0.00000000000E+00  0.44560606345E+03  0.44560606345E+03  0.00000000000E+00 0.  1.
         21   -1    0    0  503  502 -0.00000000000E+00 -0.00000000000E+00 -0.37141385794E+01  0.37141385794E+01  0.00000000000E+00 0.  1.
         21    1    1    2  503  504  0.23350647446E+02  0.19152351254E+02  0.70420785276E+02  0.76623444804E+02  0.00000000000E+00 0.  1.
         21    1    1    2  504  501 -0.23350647446E+02 -0.19152351254E+02  0.37147113959E+03  0.37269675722E+03  0.00000000000E+00 0.  1.
</event>
<event>
 4    1  0.3069799E+006  0.7328695E+02  0.7546771E-02  0.1220353E+00
         21   -1    0    0  503  501  0.00000000000E+00  0.00000000000E+00  0.15743345021E+03  0.15743345021E+03  0.00000000000E+00 0.  1.
         21   -1    0    0  504  502 -0.00000000000E+00 -0.00000000000E+00 -0.12105642468E+03  0.12105642468E+03  0.00000000000E+00 0.  1.
         21    1    1    2  503  502 -0.69489432720E+02 -0.23285111309E+02  0.13619251013E+03  0.15465890690E+03  0.00000000000E+00 0.  1.
         21    1    1    2  504  501  0.69489432720E+02  0.23285111309E+02 -0.99815484597E+02  0.12383096799E+03  0.00000000000E+00 0.  1.
</event>
<event>
 4    1  0.3069799E+006  0.2128938E+02  0.7546771E-02  0.1515173E+00
         21   -1    0    0  504  501  0.00000000000E+00  0.00000000000E+00  0.90922621745E+02  0.90922621745E+02  0.00000000000E+00 0. -1.
         21   -1    0    0  503  502 -0.00000000000E+00 -0.00000000000E+00 -0.19927244117E+02  0.19927244117E+02  0.00000000000E+00 0. -1.
         21    1    1    2  503  501  0.10917684634E+02 -0.18276808142E+02  0.83492174482E+02  0.86163685816E+02  0.00000000000E+00 0. -1.
         21    1    1    2  504  502 -0.10917684634E+02  0.18276808142E+02 -0.12496796854E+02  0.24686180046E+02  0.00000000000E+00 0. -1.
</event>
<event>
 4    1  0.3069799E+006  0.2008030E+02  0.7546771E-02  0.1532812E+00
         21   -1    0    0  503  501  0.00000000000E+00  0.00000000000E+00  0.24168032537E+01  0.24168032537E+01  0.00000000000E+00 0. -1.
         21   -1    0    0  504  502 -0.00000000000E+00 -0.00000000000E+00 -0.95393543918E+03  0.95393543918E+03  0.00000000000E+00 0.  1.
         21    1    1    2  503  502 -0.16110525547E+02  0.11986209773E+02 -0.41406915755E+02  0.46019027918E+02  0.00000000000E+00 0. -1.
         21    1    1    2  504  501  0.16110525547E+02 -0.11986209773E+02 -0.91011172017E+03  0.91033321451E+03  0.00000000000E+00 0.  1.
</event>
<event>
 4    1  0.3069799E+006  0.2146627E+02  0.7546771E-02  0.1512711E+00
         21   -1    0    0  504  501  0.00000000000E+00  0.00000000000E+00  0.77051420711E+03  0.77051420711E+03  0.00000000000E+00 0.  1.
         21   -1    0    0  501  502 -0.00000000000E+00 -0.00000000000E+00 -0.19691171608E+02  0.19691171608E+02  0.00000000000E+00 0. -1.
         21    1    1    2  503  502  0.13783621564E+02  0.16456380862E+02 -0.13645053692E+02  0.25435962430E+02  0.00000000000E+00 0. -1.
         21    1    1    2  504  503 -0.13783621564E+02 -0.16456380862E+02  0.76446808919E+03  0.76476941629E+03  0.00000000000E+00 0.  1.
</event>
<event>
 4    1  0.3069799E+006  0.2153594E+02  0.7546771E-02  0.1511749E+00
         21   -1    0    0  503  501  0.00000000000E+00  0.00000000000E+00  0.40698223642E+03  0.40698223642E+03  0.00000000000E+00 0. -1.
         21   -1    0    0  504  502 -0.00000000000E+00 -0.00000000000E+00 -0.12873521109E+03  0.12873521109E+03  0.00000000000E+00 0. -1.
         21    1    1    2  503  502  0.20395061054E+02 -0.69165309391E+01 -0.12754699567E+03  0.12935235994E+03  0.00000000000E+00 0. -1.
         21    1    1    2  504  501 -0.20395061054E+02  0.69165309391E+01  0.40579402100E+03  0.40636508757E+03  0.00000000000E+00 0. -1.
</event>
<event>
 4    1  0.3069799E+006  0.2023248E+02  0.7546771E-02  0.1530511E+00
         21   -1    0    0  502  501  0.00000000000E+00  0.00000000000E+00  0.24900328880E+01  0.24900328880E+01  0.00000000000E+00 0. -1.
         21   -1    0    0  503  502 -0.00000000000E+00 -0.00000000000E+00 -0.35386466917E+03  0.35386466917E+03  0.00000000000E+00 0.  1.
         21    1    1    2  503  504 -0.19663866073E+02 -0.47629451557E+01 -0.30606455023E+03  0.30673255808E+03  0.00000000000E+00 0.  1.
         21    1    1    2  504  501  0.19663866073E+02  0.47629451557E+01 -0.45310086051E+02  0.49622143983E+02  0.00000000000E+00 0. -1.
</event>
<event>
 4    1  0.3069799E+006  0.2314162E+02  0.7546771E-02  0.1490727E+00
         21   -1    0    0  503  501  0.00000000000E+00  0.00000000000E+00  0.31317102158E+02  0.31317102158E+02  0.00000000000E+00 0.  1.
         21   -1    0    0  504  502 -0.00000000000E+00 -0.00000000000E+00 -0.79816945132E+02  0.79816945132E+02  0.00000000000E+00 0. -1.
         21    1    1    2  503  502 -0.17560109976E+02 -0.15072394491E+02  0.25006254874E+02  0.34071209560E+02  0.00000000000E+00 0.  1.
         21    1    1    2  504  501  0.17560109976E+02  0.15072394491E+02 -0.73506097849E+02  0.77062837730E+02  0.00000000000E+00 0. -1.
</event>
<event>
 4    1  0.3069799E+006  0.3339989E+02  0.7546771E-02  0.1392175E+00
         21   -1    0    0  503  501  0.00000000000E+00  0.00000000000E+00  0.12384388790E+04  0.12384388790E+04  0.00000000000E+00 0.  1.
         21   -1    0    0  504  502 -0.00000000000E+00 -0.00000000000E+00 -0.11406504136E+01  0.11406504136E+01  0.00000000000E+00 0.  1.
         21    1    1    2  503  502  0.32996478160E+02  0.51754304404E+01  0.90287429021E+03  0.90349185750E+03  0.00000000000E+00 0.  1.
         21    1    1    2  504  501 -0.32996478160E+02 -0.51754304404E+01  0.33442393833E+03  0.33608767186E+03  0.00000000000E+00 0.  1.
</event>
<event>
 4    1  0.3069799E+006  0.3016292E+02  0.7546771E-02  0.1418186E+00
         21   -1    0    0  503  501  0.00000000000E+00  0.00000000000E+00  0.22529016403E+02  0.22529016403E+02  0.00000000000E+00 0. -1.
         21   -1    0    0  504  502 -0.00000000000E+00 -0.00000000000E+00 -0.86627863017E+02  0.86627863017E+02  0.00000000000E+00 0.  1.
         21    1    1    2  503  502  0.23170518540E+02 -0.19311366723E+02  0.78274822156E+01  0.31162016814E+02  0.00000000000E+00 0. -1.
         21    1    1    2  504  501 -0.23170518540E+02  0.19311366723E+02 -0.71926328829E+02  0.77994862606E+02  0.00000000000E+00 0.  1.
</event>
<event>
 4    1  0.3069799E+006  0.2103052E+02  0.7546771E-02  0.1518829E+00
         21   -1    0    0  504  501  0.00000000000E+00  0.00000000000E+00  0.62469676440E+02  0.62469676440E+02  0.00000000000E+00 0. -1.
         21   -1    0    0  503  502 -0.00000000000E+00 -0.00000000000E+00 -0.13121664770E+02  0.13121664770E+02  0.00000000000E+00 0. -1.
         21    1    1    2  503  501 -0.14537510508E+02 -0.15196827737E+02 -0.97244961739E+00  0.21052991315E+02  0.00000000000E+00 0. -1.
         21    1    1    2  504  502  0.14537510508E+02  0.15196827737E+02  0.50320461287E+02  0.54538349895E+02  0.00000000000E+00 0. -1.
</event>
<event>
 4    1  0.3069799E+006  0.2794278E+02  0.7546771E-02  0.1438361E+00
         21   -1    0    0  504  501  0.00000000000E+00  0.00000000000E+00  0.10151561332E+03  0.10151561332E+03  0.00000000000E+00 0.  1.
         21   -1    0    0  503  502 -0.00000000000E+00 -0.00000000000E+00 -0.18594875634E+02  0.18594875634E+02  0.00000000000E+00 0. -1.
         21    1    1    2  503  501 -0.69545037645E+01 -0.27063517779E+02  0.87447508787E+02  0.91803409034E+02  0.00000000000E+00 0.  1.
         21    1    1    2  504  502  0.69545037645E+01  0.27063517779E+02 -0.45267710972E+01  0.28307079923E+02  0.00000000000E+00 0. -1.
</event>
<event>
 4    1  0.3069799E+006  0.2169480E+02  0.7546771E-02  0.1509572E+00
         21   -1    0    0  504  501  0.00000000000E+00  0.00000000000E+00  0.42463696559E+03  0.42463696559E+03  0.00000000000E+00 0.  1.
         21   -1    0    0  503  502 -0.00000000000E+00 -0.00000000000E+00 -0.14099033839E+01  0.14099033839E+01  0.00000000000E+00 0.  1.
         21    1    1    2  503  501 -0.10175732185E+02  0.19160349165E+02  0.31012438214E+03  0.31088228786E+03  0.00000000000E+00 0.  1.
         21    1    1    2  504  502  0.10175732185E+02 -0.19160349165E+02  0.11310268006E+03  0.11516458111E+03  0.00000000000E+00 0.  1.
</event>
<event>
 4    1  0.3069799E+006  0.2161361E+02  0.7546771E-02  0.1510682E+00
         21   -1    0    0  502  501  0.00000000000E+00  0.00000000000E+00  0.39190144443E+03  0.39190144443E+03  0.00000000000E+00 0.  1.
         21   -1    0    0  503  502 -0.00000000000E+00 -0.00000000000E+00 -0.17282218102E+02  0.17282218102E+02  0.00000000000E+00 0. -1.
         21    1    1    2  503  504 -0.10853240269E+01 -0.21586342346E+02 -0.10100528350E+02  0.23857258372E+02  0.00000000000E+00 0. -1.
         21    1    1    2  504  501  0.10853240269E+01  0.21586342346E+02  0.38471975468E+03  0.38532640416E+03  0.00000000000E+00 0.  1.
</event>
<event>
 4    1  0.3069799E+006  0.2036782E+02  0.7546771E-02  0.1528485E+00
         21   -1    0    0  502  501  0.00000000000E+00  0.00000000000E+00  0.32083107465E+03  0.32083107465E+03  0.00000000000E+00 0.  1.
         21   -1    0    0  504  502 -0.00000000000E+00 -0.00000000000E+00 -0.39389039676E+01  0.39389039676E+01  0.00000000000E+00 0.  1.
         21    1    1    2  503  501 -0.36612757026E+01  0.20036045339E+02  0.29153496741E+03  0.29224559068E+03  0.00000000000E+00 0.  1.
         21    1    1    2  504  503  0.36612757026E+01 -0.20036045339E+02  0.25357203276E+02  0.32524387936E+02  0.00000000000E+00 0.  1.
</event>
<event>
 4    1  0.3069799E+006  0.3982174E+02  0.7546771E-02  0.1349534E+00
         21   -1    0    0  504  501  0.00000000000E+00  0.00000000000E+00  0.24336569018E+02  0.24336569018E+02  0.00000000000E+00 0. -1.
         21   -1    0    0  503  502 -0.00000000000E+00 -0.00000000000E+00 -0.68611622631E+02  0.68611622631E+02  0.00000000000E+00 0. -1.
         21    1    1    2  503  501 -0.23553085703E+02  0.32109550731E+02 -0.32561255359E+02  0.51439347243E+02  0.00000000000E+00 0. -1.
         21    1    1    2  504  502  0.23553085703E+02 -0.32109550731E+02 -0.11713798254E+02  0.41508844405E+02  0.00000000000E+00 0. -1.
</event>
<event>
 4    1  0.3069799E+006  0.2295644E+02  0.7546771E-02  0.1493046E+00
         21   -1    0    0  504  501  0.00000000000E+00  0.00000000000E+00  0.27594269233E+02  0.27594269233E+02  0.00000000000E+00 0.  1.
         21   -1    0    0  503  502 -0.00000000000E+00 -0.00000000000E+00 -0.21187722994E+02  0.21187722994E+02  0.00000000000E+00 0.  1.
         21    1    1    2  503  501 -0.22955419915E+02  0.21598377508E+00 -0.44566069245E+01  0.23385022937E+02  0.00000000000E+00 0.  1.
         21    1    1    2  504  502  0.22955419915E+02 -0.21598377508E+00  0.10863153163E+02  0.25396969290E+02  0.00000000000E+00 0.  1.
</event>
<event>
 4    1  0.3069799E+006  0.2462674E+02  0.7546771E-02  0.1473023E+00
         21   -1    0    0  502  501  0.00000000000E+00  0.00000000000E+00  0.16088542578E+03  0.16088542578E+03  0.00000000000E+00 0.  1.
         21   -1    0    0  504  502 -0.00000000000E+00 -0.00000000000E+00 -0.73466243954E+01  0.73466243954E+01  0.00000000000E+00 0.  1.
         21    1    1    2  503  501  0.24273371049E+02  0.41568947685E+01  0.13546354666E+03  0.13768387266E+03  0.00000000000E+00 0.  1.
         21    1    1    2  504  503 -0.24273371049E+02 -0.41568947685E+01  0.18075254721E+02  0.30548177514E+02  0.00000000000E+00 0.  1.
</event>
<event>
 4    1  0.3069799E+006  0.2670436E+02  0.7546771E-02  0.1450601E+00
         21   -1    0    0  503  501  0.00000000000E+00  0.00000000000E+00  0.46219709623E+02  0.46219709623E+02  0.00000000000E+00 0. -1.
         21   -1    0    0  504  502 -0.00000000000E+00 -0.00000000000E+00 -0.79782595341E+02  0.79782595341E+02  0.00000000000E+00 0. -1.
         21    1    1    2  503  502  0.15267115241E+02 -0.21909768344E+02  0.39800897301E+02  0.47929470920E+02  0.00000000000E+00 0. -1.
         21    1    1    2  504  501 -0.15267115241E+02  0.21909768344E+02 -0.73363783020E+02  0.78072834044E+02  0.00000000000E+00 0. -1.
</event>
<event>
 4    1  0.3069799E+006  0.2060831E+02  0.7546771E-02  0.1524931E+00
         21   -1    0    0  502  501  0.00000000000E+00  0.00000000000E+00  0.83791759539E+02  0.83791759539E+02  0.00000000000E+00 0.  1.
         21   -1    0    0  504  502 -0.00000000000E+00 -0.00000000000E+00 -0.10080376912E+02  0.10080376912E+02  0.00000000000E+00 0. -1.
         21    1    1    2  503  501 -0.15629091709E+02 -0.13432565799E+02  0.69951009070E+02  0.72923562732E+02  0.00000000000E+00 0.  1.
         21    1    1    2  504  503  0.15629091709E+02  0.13432565799E+02  0.37603735570E+01  0.20948573719E+02  0.00000000000E+00 0. -1.
</event>
<event>
 4    1  0.3069799E+006  0.2443483E+02  0.7546771E-02  0.1475226E+00
         21   -1    0    0  503  501  0.00000000000E+00  0.00000000000E+00  0.75438273484E+01  0.75438273484E+01  0.00000000000E+00 0. -1.
         21   -1    0    0  504  502 -0.00000000000E+00 -0.00000000000E+00 -0.29137164193E+03  0.29137164193E+03  0.00000000000E+00 0. -1.
         21    1    1    2  503  502 -0.12165602857E+02 -0.21191016525E+02 -0.26946789684E+03  0.27057348078E+03  0.00000000000E+00 0. -1.
         21    1    1    2  504  501  0.12165602857E+02  0.21191016525E+02 -0.14359917733E+02  0.28341988490E+02  0.00000000000E+00 0. -1.
</event>
<event>
 4    1  0.3069799E+006  0.2086446E+02  0.7546771E-02  0.1521209E+00
         21   -1    0    0  504  501  0.00000000000E+00  0.00000000000E+00  0.19684250216E+01  0.19684250216E+01  0.00000000000E+00 0. -1.
         21   -1    0    0  503  502 -0.00000000000E+00 -0.00000000000E+00 -0.25249475222E+03  0.25249475222E+03  0.00000000000E+00 0. -1.
         21    1    1    2  503  501  0.10242890518E+02  0.18177154779E+02 -0.17008823954E+03  0.17136316697E+03  0.00000000000E+00 0. -1.
         21    1    1    2  504  502 -0.10242890518E+02 -0.18177154779E+02 -0.80438087656E+02  0.83100010275E+02  0.00000000000E+00 0. -1.
</event>
<event>
 4    1  0.3069799E+006  0.2660943E+02  0.7546771E-02  0.1451571E+00
         21   -1    0    0  503  501  0.00000000000E+00  0.00000000000E+00  0.18123278544E+03  0.18123278544E+03  0.00000000000E+00 0. -1.
         21   -1    0    0  504  502 -0.00000000000E+00 -0.00000000000E+00 -0.58186793448E+01  0.58186793448E+01  0.00000000000E+00 0. -1.
         21    1    1    2  503  502  0.10653062434E+02 -0.24383890959E+02  0.14131579175E+03  0.14379921722E+03  0.00000000000E+00 0. -1.
         21    1    1    2  504  501 -0.10653062434E+02  0.24383890959E+02  0.34098314346E+02  0.43252247557E+02  0.00000000000E+00 0. -1.
</event>
<event>
 4    1  0.3069799E+006  0.2291178E+02  0.7546771E-02  0.1493609E+00
         21   -1    0    0  502  501  0.00000000000E+00  0.00000000000E+00  0.57128192916E+02  0.57128192916E+02  0.00000000000E+00 0. -1.
         21   -1    0    0  503  502 -0.00000000000E+00 -0.00000000000E+00 -0.18406886339E+02  0.18406886339E+02  0.00000000000E+00 0.  1.
         21    1    1    2  503  504  0.21526914709E+02 -0.78448328712E+01 -0.73660149829E+01  0.24066732981E+02  0.00000000000E+00 0.  1.
         21    1    1    2  504  501 -0.21526914709E+02  0.78448328712E+01  0.46087321560E+02  0.51468346274E+02  0.00000000000E+00 0. -1.
</event>
<event>
 4    1  0.3069799E+006  0.2059075E+02  0.7546771E-02  0.1525189E+00
         21   -1    0    0  504  501  0.00000000000E+00  0.00000000000E+00  0.16710522977E+03  0.16710522977E+03  0.00000000000E+00 0.  1.
         21   -1    0    0  503  502 -0.00000000000E+00 -0.00000000000E+00 -0.94354784854E+01  0.94354784854E+01  0.00000000000E+00 0. -1.
         21    1    1    2  503  501 -0.13335006073E+02  0.15689372698E+02  0.33598313598E+01  0.20863059924E+02  0.00000000000E+00 0. -1.
         21    1    1    2  504  502  0.13335006073E+02 -0.15689372698E+02  0.15430991993E+03  0.15567764833E+03  0.00000000000E+00 0.  1.
</event>
<event>
 4    1  0.3069799E+006  0.2056598E+02  0.7546771E-02  0.1525553E+00
         21   -1    0    0  504  501  0.00000000000E+00  0.00000000000E+00  0.10470283521E+04  0.10470283521E+04  0.00000000000E+00 0. -1.
         21   -1    0    0  503  502 -0.00000000000E+00 -0.00000000000E+00 -0.16178418508E+01  0.16178418508E+01  0.00000000000E+00 0. -1.
         21    1    1    2  503  501 -0.74765168006E+01 -0.19158845301E+02  0.97687563764E+03  0.97709209959E+03  0.00000000000E+00 0. -1.
         21    1    1    2  504  502  0.74765168006E+01  0.19158845301E+02  0.68534872576E+02  0.71554094332E+02  0.00000000000E+00 0. -1.
</event>
<event>
 4    1  0.3069799E+006  0.2624388E+02  0.7546771E-02  0.1455355E+00
         21   -1    0    0  502  501  0.00000000000E+00  0.00000000000E+00  0.33746426406E+03  0.33746426406E+03  0.00000000000E+00 0. -1.
         21   -1    0    0  504  502 -0.00000000000E+00 -0.00000000000E+00 -0.36409706572E+02  0.36409706572E+02  0.00000000000E+00 0.  1.
         21    1    1    2  503  501 -0.15323997453E+02  0.21305309591E+02  0.33214937265E+03  0.33318455376E+03  0.00000000000E+00 0. -1.
         21    1    1    2  504  503  0.15323997453E+02 -0.21305309591E+02 -0.31094815165E+02  0.40689416865E+02  0.00000000000E+00 0.  1.
</event>
<event>
 4    1  0.3069799E+006  0.3203725E+02  0.7546771E-02  0.1402681E+00
         21   -1    0    0  503  501  0.00000000000E+00  0.00000000000E+00  0.28457587880E+02  0.28457587880E+02  0.00000000000E+00 0. -1.
         21   -1    0    0  504  502 -0.00000000000E+00 -0.00000000000E+00 -0.68384189673E+02  0.68384189673E+02  0.00000000000E+00 0. -1.
         21    1    1    2  503  502 -0.21148990764E+02  0.24064614270E+02 -0.53249971946E+02  0.62144549097E+02  0.00000000000E+00 0. -1.
         21    1    1    2  504  501  0.21148990764E+02 -0.24064614270E+02  0.13323370152E+02  0.34697228456E+02  0.00000000000E+00 0. -1.
</event>
<event>
 4    1  0.3069799E+006  0.2042375E+02  0.7546771E-02  0.1527653E+00
         21   -1    0    0  502  501  0.00000000000E+00  0.00000000000E+00  0.97757291438E+01  0.97757291438E+01  0.00000000000E+00 0.  1.
         21   -1    0    0  503  502 -0.00000000000E+00 -0.00000000000E+00 -0.53891888534E+02  0.53891888534E+02  0.00000000000E+00 0.  1.
         21    1    1    2  503  504 -0.11786287410E+02 -0.16679717972E+02 -0.36584595518E+02  0.41899429492E+02  0.00000000000E+00 0.  1.
         21    1    1    2  504  501  0.11786287410E+02  0.16679717972E+02 -0.75315638723E+01  0.21768188186E+02  0.00000000000E+00 0.  1.
</event>
<event>
 4    1  0.3069799E+006  0.2039657E+02  0.7546771E-02  0.1528057E+00
         21   -1    0    0  504  501  0.00000000000E+00  0.00000000000E+00  0.83927383931E+01  0.83927383931E+01  0.00000000000E+00 0.  1.
         21   -1    0    0  501  502 -0.00000000000E+00 -0.00000000000E+00 -0.13221340763E+03  0.13221340763E+03  0.00000000000E+00 0.  1.
         21    1    1    2  503  502 -0.11063342715E+02 -0.17135415244E+02 -0.11749348814E+03  0.11925074323E+03  0.00000000000E+00 0.  1.
         21    1    1    2  504  503  0.11063342715E+02  0.17135415244E+02 -0.63271811022E+01  0.21355402790E+02  0.00000000000E+00 0.  1.
</event>
<event>
 4    1  0.3069799E+006  0.2087359E+02  0.7546771E-02  0.1521077E+00
         21   -1    0    0  503  501  0.00000000000E+00  0.00000000000E+00  0.14537529274E+02  0.14537529274E+02  0.00000000000E+00 0. -1.
         21   -1    0    0  501  502 -0.00000000000E+00 -0.00000000000E+00 -0.71175326641E+02  0.71175326641E+02  0.00000000000E+00 0.  1.
         21    1    1    2  503  504 -0.56993836709E+01  0.20080437093E+02  0.42889156896E+01  0.21309662734E+02  0.00000000000E+00 0. -1.
         21    1    1    2  504  502  0.56993836709E+01 -0.20080437093E+02 -0.60926713057E+02  0.64403193181E+02  0.00000000000E+00 0.  1.
</event>
<event>
 4    1  0.3069799E+006  0.2448283E+02  0.7546771E-02  0.1474673E+00
         21   -1    0    0  502  501  0.00000000000E+00  0.00000000000E+00  0.18686934176E+03  0.18686934176E+03  0.00000000000E+00 0.  1.
         21   -1    0    0  504  502 -0.00000000000E+00 -0.00000000000E+00 -0.12713036987E+02  0.12713036987E+02  0.00000000000E+00 0.  1.
         21    1    1    2  503  501 -0.34069342176E+01 -0.24244626742E+02  0.17336661439E+03  0.17508681307E+03  0.00000000000E+00 0.  1.
         21    1    1    2  504  503  0.34069342176E+01  0.24244626742E+02  0.78969037727E+00  0.24495565670E+02  0.00000000000E+00 0.  1.
</event>
<event>
 4    1  0.3069799E+006  0.2310231E+02  0.7546771E-02  0.1491217E+00
         21   -1    0    0  503  501  0.00000000000E+00  0.00000000000E+00  0.42541156512E+02  0.42541156512E+02  0.00000000000E+00 0.  1.
         21   -1    0    0  501  502 -0.00000000000E+00 -0.00000000000E+00 -0.13169945198E+03  0.13169945198E+03  0.00000000000E+00 0.  1.
         21    1    1    2  503  504  0.14558942606E+02 -0.17937505200E+02  0.38287716383E+02  0.44717626596E+02  0.00000000000E+00 0.  1.
         21    1    1    2  504  502 -0.14558942606E+02  0.17937505200E+02 -0.12744601185E+03  0.12952298190E+03  0.00000000000E+00 0.  1.
</event>
<event>
 4    1  0.3069799E+006  0.2029363E+02  0.7546771E-02  0.1529593E+00
         21   -1    0    0  503  501  0.00000000000E+00  0.00000000000E+00  0.26851268554E+02  0.26851268554E+02  0.00000000000E+00 0. -1.
         21   -1    0    0  504  502 -0.00000000000E+00 -0.00000000000E+00 -0.38090039865E+02  0.38090039865E+02  0.00000000000E+00 0. -1.
         21    1    1    2  503  502  0.13400391161E+02  0.15240103256E+02 -0.30715142802E+02  0.36813736945E+02  0.00000000000E+00 0. -1.
         21    1    1    2  504  501 -0.13400391161E+02 -0.15240103256E+02  0.19476371492E+02  0.28127571474E+02  0.00000000000E+00 0. -1.
</event>
<event>
 4    1  0.3069799E+006  0.2466991E+02  0.7546771E-02  0.1472530E+00
         21   -1    0    0  503  501  0.00000000000E+00  0.00000000000E+00  0.23148659520E+01  0.23148659520E+01  0.00000000000E+00 0.  1.
         21   -1    0    0  504  502 -0.00000000000E+00 -0.00000000000E+00 -0.52698751921E+03  0.52698751921E+03  0.00000000000E+00 0. -1.
         21    1    1    2  503  502 -0.14990708744E+02 -0.19592937344E+02 -0.44967968127E+03  0.45035588182E+03  0.00000000000E+00 0. -1.
         21    1    1    2  504  501  0.14990708744E+02  0.19592937344E+02 -0.74992971991E+02  0.78946503345E+02  0.00000000000E+00 0.  1.
</event>
<event>
 4    1  0.3069799E+006  0.2227547E+02  0.7546771E-02  0.1501802E+00
         21   -1    0    0  503  501  0.00000000000E+00  0.00000000000E+00  0.36746628538E+02  0.36746628538E+02  0.00000000000E+00 0.  1.
         21   -1    0    0  504  502 -0.00000000000E+00 -0.00000000000E+00 -0.26378729162E+02  0.26378729162E+02  0.00000000000E+00 0.  1.
         21    1    1    2  503  502 -0.22204846697E+02 -0.17724009756E+01 -0.16867120572E+02  0.27940944480E+02  0.00000000000E+00 0.  1.
         21    1    1    2  504  501  0.22204846697E+02  0.17724009756E+01  0.27235019948E+02  0.35184413220E+02  0.00000000000E+00 0.  1.
</event>
<event>
 4    1  0.3069799E+006  0.2651921E+02  0.7546771E-02  0.1452498E+00
         21   -1    0    0  503  501  0.00000000000E+00  0.00000000000E+00  0.19956471423E+02  0.19956471423E+02  0.00000000000E+00 0.  1.
         21   -1    0    0  504  502 -0.00000000000E+00 -0.00000000000E+00 -0.20016081858E+03  0.20016081858E+03  0.00000000000E+00 0.  1.
         21    1    1    2  503  502  0.13261698779E+01  0.26486034512E+02 -0.19000371526E+03  0.19184546010E+03  0.00000000000E+00 0.  1.
         21    1    1    2  504  501 -0.13261698779E+01 -0.26486034512E+02  0.97993681008E+01  0.28271829900E+02  0.00000000000E+00 0.  1.
</event>
<event>
 4    1  0.3069799E+006  0.2068381E+02  0.7546771E-02  0.1523827E+00
         21   -1    0    0  504  501  0.00000000000E+00  0.00000000000E+00  0.90536662211E+02  0.90536662211E+02  0.00000000000E+00 0. -1.
         21   -1    0    0  503  502 -0.00000000000E+00 -0.00000000000E+00 -0.82202564131E+01  0.82202564131E+01  0.00000000000E+00 0. -1.
         21    1    1    2  503  501  0.15839519689E+02  0.13301486269E+02  0.73354869437E+02  0.76215200524E+02  0.00000000000E+00 0. -1.
         21    1    1    2  504  502 -0.15839519689E+02 -0.13301486269E+02  0.89615363618E+01  0.22541718100E+02  0.00000000000E+00 0. -1.
</event>
<event>
 4    1  0.3069799E+006  0.2489905E+02  0.7546771E-02  0.1469936E+00
         21   -1    0    0  503  501  0.00000000000E+00  0.00000000000E+00  0.57694636885E+02  0.57694636885E+02  0.00000000000E+00 0. -1.
         21   -1    0    0  504  502 -0.00000000000E+00 -0.00000000000E+00 -0.10836951655E+02  0.10836951655E+02  0.00000000000E+00 0. -1.
         21    1    1    2  503  502 -0.18010727842E+02  0.17192328207E+02  0.26575196814E+02  0.36417077756E+02  0.00000000000E+00 0. -1.
         21    1    1    2  504  501  0.18010727842E+02 -0.17192328207E+02  0.20282488416E+02  0.32114510784E+02  0.00000000000E+00 0. -1.
</event>
<event>
 4    1  0.3069799E+006  0.3416961E+02  0.7546771E-02  0.1386497E+00
         21   -1    0    0  504  501  0.00000000000E+00  0.00000000000E+00  0.30589739268E+02  0.30589739268E+02  0.00000000000E+00 0. -1.
         21   -1    0    0  501  502 -0.00000000000E+00 -0.00000000000E+00 -0.27706860580E+03  0.27706860580E+03  0.00000000000E+00 0. -1.
         21    1    1    2  503  502 -0.11388707228E+02  0.32215829463E+02 -0.26608056385E+03  0.26826559373E+03  0.00000000000E+00 0. -1.
         21    1    1    2  504  503  0.11388707228E+02 -0.32215829463E+02  0.19601697317E+02  0.39392751339E+02  0.00000000000E+00 0. -1.
</event>
<event>
 4    1  0.3069799E+006  0.2950616E+02  0.7546771E-02  0.1423937E+00
         21   -1    0    0  504  501  0.00000000000E+00  0.00000000000E+00  0.22728279474E+03  0.22728279474E+03  0.00000000000E+00 0.  1.
         21   -1    0    0  501  502 -0.00000000000E+00 -0.00000000000E+00 -0.38616326955E+01  0.38616326955E+01  0.00000000000E+00 0.  1.
         21    1    1    2  503  502 -0.80038601642E+01  0.28399854931E+02  0.10133845546E+03  0.10554665363E+03  0.00000000000E+00 0.  1.
         21    1    1    2  504  503  0.80038601642E+01 -0.28399854931E+02  0.12208270658E+03  0.12559777380E+03  0.00000000000E+00 0.  1.
</event>
<event>
 4    1  0.3069799E+006  0.2097199E+02  0.7546771E-02  0.1519665E+00
         21   -1    0    0  502  501  0.00000000000E+00  0.00000000000E+00  0.18437259039E+02  0.18437259039E+02  0.00000000000E+00 0. -1.
         21   -1    0    0  504  502 -0.00000000000E+00 -0.00000000000E+00 -0.14319188144E+03  0.14319188144E+03  0.00000000000E+00 0. -1.
         21    1    1    2  503  501 -0.13069576944E+02 -0.16401538655E+02  0.11399090087E+02  0.23869720706E+02  0.00000000000E+00 0. -1.
         21    1    1    2  504  503  0.13069576944E+02  0.16401538655E+02 -0.13615371249E+03  0.13775941977E+03  0.00000000000E+00 0. -1.
</event>
<event>
 4    1  0.3069799E+006  0.2746600E+02  0.7546771E-02  0.1442982E+00
         21   -1    0    0  504  501  0.00000000000E+00  0.00000000000E+00  0.22159381051E+03  0.22159381051E+03  0.00000000000E+00 0. -1.
         21   -1    0    0  501  502 -0.00000000000E+00 -0.00000000000E+00 -0.69101062805E+01  0.69101062805E+01  0.00000000000E+00 0. -1.
         21    1    1    2  503  502 -0.24363302353E+02  0.12681117736E+02  0.25962803486E+02  0.37794819929E+02  0.00000000000E+00 0. -1.
         21    1    1    2  504  503  0.24363302353E+02 -0.12681117736E+02  0.18872090075E+03  0.19070909686E+03  0.00000000000E+00 0. -1.
</event>
<event>
 4    1  0.3069799E+006  0.2589946E+02  0.7546771E-02  0.1458988E+00
         21   -1    0    0  504  501  0.00000000000E+00  0.00000000000E+00  0.56453847830E+02  0.56453847830E+02  0.00000000000E+00 0.  1.
         21   -1    0    0  503  502 -0.00000000000E+00 -0.00000000000E+00 -0.21179408318E+02  0.21179408318E+02  0.00000000000E+00 0. -1.
         21    1    1    2  503  501  0.20493966955E+02 -0.15836017747E+02  0.43355556183E+02  0.50502340456E+02  0.00000000000E+00 0.  1.
         21    1    1    2  504  502 -0.20493966955E+02  0.15836017747E+02 -0.80811166708E+01  0.27130915692E+02  0.00000000000E+00 0. -1.
</event>
<event>
 4    1  0.3069799E+006  0.2955316E+02  0.7546771E-02  0.1423520E+00
         21   -1    0    0  503  501  0.00000000000E+00  0.00000000000E+00  0.65701496311E+03  0.65701496311E+03  0.00000000000E+00 0. -1.
         21   -1    0    0  504  502 -0.00000000000E+00 -0.00000000000E+00 -0.42053241104E+02  0.42053241104E+02  0.00000000000E+00 0. -1.
         21    1    1    2  503  502 -0.16137738726E+02 -0.24758083171E+02  0.65144610462E+03  0.65211610663E+03  0.00000000000E+00 0. -1.
         21    1    1    2  504  501  0.16137738726E+02  0.24758083171E+02 -0.36484382613E+02  0.46952097591E+02  0.00000000000E+00 0. -1.
</event>
<event>
 4    1  0.3069799E+006  0.2117758E+02  0.7546771E-02  0.1516744E+00
         21   -1    0    0  503  501  0.00000000000E+00  0.00000000000E+00  0.10403462394E+03  0.10403462394E+03  0.00000000000E+00 0. -1.
         21   -1    0    0  501  502 -0.00000000000E+00 -0.00000000000E+00 -0.15390045323E+02  0.15390045323E+02  0.00000000000E+00 0.  1.
         21    1    1    2  503  504 -0.15976462262E+02  0.13901177900E+02  0.94985868627E+02  0.97318062724E+02  0.00000000000E+00 0. -1.
         21    1    1    2  504  502  0.15976462262E+02 -0.13901177900E+02 -0.63412900155E+01  0.22106606535E+02  0.00000000000E+00 0.  1.
</event>
<event>
 4    1  0.3069799E+006  0.2532973E+02  0.7546771E-02  0.1465148E+00
         21   -1    0    0  504  501  0.00000000000E+00  0.00000000000E+00  0.88374341513E+02  0.88374341513E+02  0.00000000000E+00 0. -1.
         21   -1    0    0  501  502 -0.00000000000E+00 -0.00000000000E+00 -0.13973422193E+03  0.13973422193E+03  0.00000000000E+00 0. -1.
         21    1    1    2  503  502 -0.15525820147E+02  0.20013600185E+02 -0.13673182584E+03  0.13905821616E+03  0.00000000000E+00 0. -1.
         21    1    1    2  504  503  0.15525820147E+02 -0.20013600185E+02  0.85371945430E+02  0.89050347277E+02  0.00000000000E+00 0. -1.
</event>
<event>
 4    1  0.3069799E+006  0.2889204E+02  0.7546771E-02  0.1429475E+00
         21   -1    0    0  503  501  0.00000000000E+00  0.00000000000E+00  0.14875405132E+02  0.14875405132E+02  0.00000000000E+00 0.  1.
         21   -1    0    0  501  502 -0.00000000000E+00 -0.00000000000E+00 -0.12631942077E+03  0.12631942077E+03  0.00000000000E+00 0.  1.
         21    1    1    2  503  504 -0.14067726641E+02 -0.25235870032E+02 -0.30921157421E+01  0.29057034413E+02  0.00000000000E+00 0.  1.
         21    1    1    2  504  502  0.14067726641E+02  0.25235870032E+02 -0.10835189989E+03  0.11213779149E+03  0.00000000000E+00 0.  1.
</event>
<event>
 4    1  0.3069799E+006  0.2047355E+02  0.7546771E-02  0.1526916E+00
         21   -1    0    0  504  501  0.00000000000E+00  0.00000000000E+00  0.20483598323E+01  0.20483598323E+01  0.00000000000E+00 0.  1.
         21   -1    0    0  503  502 -0.00000000000E+00 -0.00000000000E+00 -0.22258053041E+03  0.22258053041E+03  0.00000000000E+00 0. -1.
         21    1    1    2  503  501  0.15984748071E+02  0.12792742483E+02 -0.78375072837E+02  0.81005052147E+02  0.00000000000E+00 0.  1.
         21    1    1    2  504  502 -0.15984748071E+02 -0.12792742483E+02 -0.14215709774E+03  0.14362383809E+03  0.00000000000E+00 0. -1.
</event>
<event>
 4    1  0.3069799E+006  0.2215105E+02  0.7546771E-02  0.1503443E+00
         21   -1    0    0  503  501  0.00000000000E+00  0.00000000000E+00  0.11627894202E+03  0.11627894202E+03  0.00000000000E+00 0. -1.
         21   -1    0    0  501  502 -0.00000000000E+00 -0.00000000000E+00 -0.50931703890E+01  0.50931703890E+01  0.00000000000E+00 0. -1.
         21    1    1    2  503  504  0.18962350838E+01 -0.22069737459E+02  0.80723577179E+02  0.83707615732E+02  0.00000000000E+00 0. -1.
         21    1    1    2  504  502 -0.18962350838E+01  0.22069737459E+02  0.30462194448E+02  0.37664496673E+02  0.00000000000E+00 0. -1.
</event>
<event>
 4    1  0.3069799E+006  0.2048615E+02  0.7546771E-02  0.1526729E+00
         21   -1    0    0  504  501  0.00000000000E+00  0.00000000000E+00  0.25682868926E+02  0.25682868926E+02  0.00000000000E+00 0. -1.
         21   -1    0    0  501  502 -0.00000000000E+00 -0.00000000000E+00 -0.17106608749E+02  0.17106608749E+02  0.00000000000E+00 0. -1.
         21    1    1    2  503  502  0.89136047137E+01 -0.18445322388E+02  0.88144471409E+01  0.22301944879E+02  0.00000000000E+00 0. -1.
         21    1    1    2  504  503 -0.89136047137E+01  0.18445322388E+02 -0.23818696369E+00  0.20487532795E+02  0.00000000000E+00 0. -1.
</event>
<event>
 4    1  0.3069799E+006  0.2282058E+02  0.7546771E-02  0.1494764E+00
         21   -1    0    0  503  501  0.00000000000E+00  0.00000000000E+00  0.31701157806E+02  0.31701157806E+02  0.00000000000E+00 0.  1.
         21   -1    0    0  504  502 -0.00000000000E+00 -0.00000000000E+00 -0.17555492474E+02  0.17555492474E+02  0.00000000000E+00 0.  1.
         21    1    1    2  503  502  0.15827752926E+02  0.16439613249E+02  0.83069080087E+00  0.22835689034E+02  0.00000000000E+00 0.  1.
         21    1    1    2  504  501 -0.15827752926E+02 -0.16439613249E+02  0.13314974531E+02  0.26420961247E+02  0.00000000000E+00 0.  1.
</event>
<event>
 4    1  0.3069799E+006  0.2277389E+02  0.7546771E-02  0.1495357E+00
         21   -1    0    0  503  501  0.00000000000E+00  0.00000000000E+00  0.80058938565E+01  0.80058938565E+01  0.00000000000E+00 0.  1.
         21   -1    0    0  504  502 -0.00000000000E+00 -0.00000000000E+00 -0.10304036406E+03  0.10304036406E+03  0.00000000000E+00 0.  1.
         21    1    1    2  503  502 -0.21162172001E+02  0.84150164268E+01 -0.81349009947E+02  0.84476691724E+02  0.00000000000E+00 0.  1.
         21    1    1    2  504  501  0.21162172001E+02 -0.84150164268E+01 -0.13685460259E+02  0.26569566194E+02  0.00000000000E+00 0.  1.
</event>
<event>
 4    1  0.3069799E+006  0.2045583E+02  0.7546771E-02  0.1527178E+00
         21   -1    0    0  503  501  0.00000000000E+00  0.00000000000E+00  0.47152365749E+02  0.47152365749E+02  0.00000000000E+00 0.  1.
         21   -1    0    0  504  502 -0.00000000000E+00 -0.00000000000E+00 -0.40791165311E+02  0.40791165311E+02  0.00000000000E+00 0.  1.
         21    1    1    2  503  502  0.20077473987E+02 -0.39161316209E+01 -0.35715084680E+02  0.41158332355E+02  0.00000000000E+00 0.  1.
         21    1    1    2  504  501 -0.20077473987E+02  0.39161316209E+01  0.42076285117E+02  0.46785198705E+02  0.00000000000E+00 0.  1.
</event>
<event>
 4    1  0.3069799E+006  0.2691034E+02  0.7546771E-02  0.1448511E+00
         21   -1    0    0  504  501  0.00000000000E+00  0.00000000000E+00  0.19388900957E+02  0.19388900957E+02  0.00000000000E+00 0. -1.
         21   -1    0    0  501  502 -0.00000000000E+00 -0.00000000000E+00 -0.10384398320E+03  0.10384398320E+03  0.00000000000E+00 0.  1.
         21    1    1    2  503  502  0.94878380372E+01  0.25182276905E+02 -0.91533418445E+02  0.95407194870E+02  0.00000000000E+00 0.  1.
         21    1    1    2  504  503 -0.94878380372E+01 -0.25182276905E+02  0.70783362052E+01  0.27825689284E+02  0.00000000000E+00 0. -1.
</event>
<event>
 4    1  0.3069799E+006  0.2672112E+02  0.7546771E-02  0.1450430E+00
         21   -1    0    0  503  501  0.00000000000E+00  0.00000000000E+00  0.42564982700E+01  0.42564982700E+01  0.00000000000E+00 0. -1.
         21   -1    0    0  501  502 -0.00000000000E+00 -0.00000000000E+00 -0.18005046120E+03  0.18005046120E+03  0.00000000000E+00 0. -1.
         21    1    1    2  503  504 -0.99628063014E+01 -0.24794372024E+02 -0.63808277490E+02  0.69177414448E+02  0.00000000000E+00 0. -1.
         21    1    1    2  504  502  0.99628063014E+01  0.24794372024E+02 -0.11198568544E+03  0.11512954502E+03  0.00000000000E+00 0. -1.
</event>
<event>
 4    1  0.3069799E+006  0.2352776E+02  0.7546771E-02  0.1485975E+00
         21   -1    0    0  502  501  0.00000000000E+00  0.00000000000E+00  0.67028955077E+03  0.67028955077E+03  0.00000000000E+00 0. -1.
         21   -1    0    0  503  502 -0.00000000000E+00 -0.00000000000E+00 -0.29846859989E+02  0.29846859989E+02  0.00000000000E+00 0. -1.
         21    1    1    2  503  504  0.23527760039E+02 -0.10536551294E-01 -0.24969793733E+02  0.34308106951E+02  0.00000000000E+00 0. -1.
         21    1    1    2  504  501 -0.23527760039E+02  0.10536551294E-01  0.66541248452E+03  0.66582830381E+03  0.00000000000E+00 0. -1.
</event>
<event>
 4    1  0.3069799E+006  0.3018901E+02  0.7546771E-02  0.1417961E+00
         21   -1    0    0  504  501  0.00000000000E+00  0.00000000000E+00  0.32570962089E+02  0.32570962089E+02  0.00000000000E+00 0.  1.
         21   -1    0    0  503  502 -0.00000000000E+00 -0.00000000000E+00 -0.12786862539E+03  0.12786862539E+03  0.00000000000E+00 0. -1.
         21    1    1    2  503  501  0.29744159084E+02 -0.51634610645E+01 -0.11855023598E+03  0.12233370255E+03  0.00000000000E+00 0. -1.
         21    1    1    2  504  502 -0.29744159084E+02  0.51634610645E+01  0.23252572679E+02  0.38105884926E+02  0.00000000000E+00 0.  1.
</event>
<event>
 4    1  0.3069799E+006  0.2704097E+02  0.7546771E-02  0.1447197E+00
         21   -1    0    0  502  501  0.00000000000E+00  0.00000000000E+00  0.94133186274E+02  0.94133186274E+02  0.00000000000E+00 0. -1.
         21   -1    0    0  503  502 -0.00000000000E+00 -0.00000000000E+00 -0.12596766805E+02  0.12596766805E+02  0.00000000000E+00 0. -1.
         21    1    1    2  503  504 -0.26906452900E+02 -0.26938929132E+01  0.77273924115E+01  0.28123421914E+02  0.00000000000E+00 0. -1.
         21    1    1    2  504  501  0.26906452900E+02  0.26938929132E+01  0.73809027057E+02  0.78606531165E+02  0.00000000000E+00 0. -1.
</event>
<event>
 4    1  0.3069799E+006  0.2142660E+02  0.7546771E-02  0.1513260E+00
         21   -1    0    0  503  501  0.00000000000E+00  0.00000000000E+00  0.33782490564E+02  0.33782490564E+02  0.00000000000E+00 0.  1.
         21   -1    0    0  504  502 -0.00000000000E+00 -0.00000000000E+00 -0.11154277491E+03  0.11154277491E+03  0.00000000000E+00 0.  1.
         21    1    1    2  503  502 -0.40406875147E+01 -0.21042148297E+02  0.29212329615E+02  0.36227881004E+02  0.00000000000E+00 0.  1.
         21    1    1    2  504  501  0.40406875147E+01  0.21042148297E+02 -0.10697261396E+03  0.10909738447E+03  0.00000000000E+00 0.  1.
</event>
<event>
 4    1  0.3069799E+006  0.2599905E+02  0.7546771E-02  0.1457930E+00
         21   -1    0    0  502  501  0.00000000000E+00  0.00000000000E+00  0.50010378227E+02  0.50010378227E+02  0.00000000000E+00 0. -1.
         21   -1    0    0  504  502 -0.00000000000E+00 -0.00000000000E+00 -0.36067180189E+03  0.36067180189E+03  0.00000000000E+00 0.  1.
         21    1    1    2  503  501  0.74206221538E+00  0.25988459777E+02  0.46126051385E+02  0.52948685671E+02  0.00000000000E+00 0. -1.
         21    1    1    2  504  503 -0.74206221538E+00 -0.25988459777E+02 -0.35678747505E+03  0.35773349445E+03  0.00000000000E+00 0.  1.
</event>
<event>
 4    1  0.3069799E+006  0.3726265E+02  0.7546771E-02  0.1365319E+00
         21   -1    0    0  504  501  0.00000000000E+00  0.00000000000E+00  0.62112714351E+02  0.62112714351E+02  0.00000000000E+00 0. -1.
         21   -1    0    0  501  502 -0.00000000000E+00 -0.00000000000E+00 -0.87785023011E+02  0.87785023011E+02  0.00000000000E+00 0. -1.
         21    1    1    2  503  502  0.31433932975E+02 -0.20010315315E+02 -0.77542181140E+02  0.86030777732E+02  0.00000000000E+00 0. -1.
         21    1    1    2  504  503 -0.31433932975E+02  0.20010315315E+02  0.51869872480E+02  0.63866959630E+02  0.00000000000E+00 0. -1.
</event>
<event>
 4    1  0.3069799E+006  0.2111343E+02  0.7546771E-02  0.1517651E+00
         21   -1    0    0  503  501  0.00000000000E+00  0.00000000000E+00  0.19808906420E+02  0.19808906420E+02  0.00000000000E+00 0. -1.
         21   -1    0    0  504  502 -0.00000000000E+00 -0.00000000000E+00 -0.24995900974E+02  0.24995900974E+02  0.00000000000E+00 0. -1.
         21    1    1    2  503  502 -0.47422234915E+01 -0.20573972541E+02 -0.96670411226E+01  0.23221298711E+02  0.00000000000E+00 0. -1.
         21    1    1    2  504  501  0.47422234915E+01  0.20573972541E+02  0.44800465689E+01  0.21583508682E+02  0.00000000000E+00 0. -1.
</event>
<event>
 4    1  0.3069799E+006  0.2083446E+02  0.7546771E-02  0.1521642E+00
         21   -1    0    0  503  501  0.00000000000E+00  0.00000000000E+00  0.10938590565E+03  0.10938590565E+03  0.00000000000E+00 0.  1.
         21   -1    0    0  504  502 -0.00000000000E+00 -0.00000000000E+00 -0.86469493738E+01  0.86469493738E+01  0.00000000000E+00 0.  1.
         21    1    1    2  503  502  0.17156371074E+02 -0.11820901558E+02  0.93780725293E+02  0.96067159938E+02  0.00000000000E+00 0.  1.
         21    1    1    2  504  501 -0.17156371074E+02  0.11820901558E+02  0.69582309794E+01  0.21965695082E+02  0.00000000000E+00 0.  1.
</event>
<event>
 4    1  0.3069799E+006  0.3185331E+02  0.7546771E-02  0.1404147E+00
         21   -1    0    0  503  501  0.00000000000E+00  0.00000000000E+00  0.59594022495E+02  0.59594022495E+02  0.00000000000E+00 0.  1.
         21   -1    0    0  504  502 -0.00000000000E+00 -0.00000000000E+00 -0.21554775538E+03  0.21554775538E+03  0.00000000000E+00 0.  1.
         21    1    1    2  503  502  0.24403378559E+01  0.31759694086E+02 -0.21000275805E+03  0.21240478291E+03  0.00000000000E+00 0.  1.
         21    1    1    2  504  501 -0.24403378559E+01 -0.31759694086E+02  0.54049025155E+02  0.62736994967E+02  0.00000000000E+00 0.  1.
</event>
<event>
 4    1  0.3069799E+006  0.2930277E+02  0.7546771E-02  0.1425754E+00
         21   -1    0    0  503  501  0.00000000000E+00  0.00000000000E+00  0.34842414192E+03  0.34842414192E+03  0.00000000000E+00 0. -1.
         21   -1    0    0  504  502 -0.00000000000E+00 -0.00000000000E+00 -0.27412245158E+01  0.27412245158E+01  0.00000000000E+00 0. -1.
         21    1    1    2  503  502 -0.29302279540E+02 -0.17016814406E+00  0.11704322401E+03  0.12065557936E+03  0.00000000000E+00 0. -1.
         21    1    1    2  504  501  0.29302279540E+02  0.17016814406E+00  0.22863969339E+03  0.23050978707E+03  0.00000000000E+00 0. -1.
</event>
<event>
 4    1  0.3069799E+006  0.2196455E+02  0.7546771E-02  0.1505926E+00
         21   -1    0    0  503  501  0.00000000000E+00  0.00000000000E+00  0.36413304654E+01  0.36413304654E+01  0.00000000000E+00 0.  1.
         21   -1    0    0  504  502 -0.00000000000E+00 -0.00000000000E+00 -0.14289006729E+03  0.14289006729E+03  0.00000000000E+00 0.  1.
         21    1    1    2  503  502 -0.20044409366E+02  0.89812635021E+01 -0.89389911975E+02  0.92048888119E+02  0.00000000000E+00 0.  1.
         21    1    1    2  504  501  0.20044409366E+02 -0.89812635021E+01 -0.49858824847E+02  0.54482509635E+02  0.00000000000E+00 0.  1.
</event>
<event>
 4    1  0.3069799E+006  0.2809526E+02  0.7546771E-02  0.1436906E+00
         21   -1    0    0  503  501  0.00000000000E+00  0.00000000000E+00  0.42210973908E+03  0.42210973908E+03  0.00000000000E+00 0.  1.
         21   -1    0    0  504  502 -0.00000000000E+00 -0.00000000000E+00 -0.29686442661E+01  0.29686442661E+01  0.00000000000E+00 0.  1.
         21    1    1    2  503  502  0.63161465735E+01 -0.27376087033E+02  0.33886775038E+03  0.34003043407E+03  0.00000000000E+00 0.  1.
         21    1    1    2  504  501 -0.63161465735E+01  0.27376087033E+02  0.80273344428E+02  0.85047949266E+02  0.00000000000E+00 0.  1.
</event>
<event>
 4    1  0.3069799E+006  0.3987490E+02  0.7546771E-02  0.1349220E+00
         21   -1    0    0  503  501  0.00000000000E+00  0.00000000000E+00  0.88542100987E+02  0.88542100987E+02  0.00000000000E+00 0. -1.
         21   -1    0    0  504  502 -0.00000000000E+00 -0.00000000000E+00 -0.14065931971E+03  0.14065931971E+03  0.00000000000E+00 0.  1.
         21    1    1    2  503  502 -0.12717006194E+02 -0.37792666280E+02  0.80977001841E+02  0.90262299430E+02  0.00000000000E+00 0. -1.
         21    1    1    2  504  501  0.12717006194E+02  0.37792666280E+02 -0.13309422056E+03  0.13893912127E+03  0.00000000000E+00 0.  1.
</event>
<event>
 4    1  0.3069799E+006  0.2087755E+02  0.7546771E-02  0.1521020E+00
         21   -1    0    0  504  501  0.00000000000E+00  0.00000000000E+00  0.19297350604E+02  0.19297350604E+02  0.00000000000E+00 0. -1.
         21   -1    0    0  503  502 -0.00000000000E+00 -0.00000000000E+00 -0.55145459186E+02  0.55145459186E+02  0.00000000000E+00 0.  1.
         21    1    1    2  503  501 -0.20435159764E+02 -0.42751012812E+01  0.10676126075E+02  0.23448921372E+02  0.00000000000E+00 0. -1.
         21    1    1    2  504  502  0.20435159764E+02  0.42751012812E+01 -0.46524234657E+02  0.50993888418E+02  0.00000000000E+00 0.  1.
</event>
<event>
 4    1  0.3069799E+006  0.2190889E+02  0.7546771E-02  0.1506673E+00
         21   -1    0    0  503  501  0.00000000000E+00  0.00000000000E+00  0.30903493658E+02  0.30903493658E+02  0.00000000000E+00 0.  1.
         21   -1    0    0  504  502 -0.00000000000E+00 -0.00000000000E+00 -0.28650595594E+02  0.28650595594E+02  0.00000000000E+00 0.  1.
         21    1    1    2  503  502 -0.19976794516E+02  0.89959608825E+01 -0.19022616935E+02  0.29014816670E+02  0.00000000000E+00 0.  1.
         21    1    1    2  504  501  0.19976794516E+02 -0.89959608825E+01  0.21275515000E+02  0.30539272582E+02  0.00000000000E+00 0.  1.
</event>
<event>
 4    1  0.3069799E+006  0.2815387E+02  0.7546771E-02  0.1436349E+00
         21   -1    0    0  502  501  0.00000000000E+00  0.00000000000E+00  0.18948927971E+03  0.18948927971E+03  0.00000000000E+00 0. -1.
         21   -1    0    0  504  502 -0.00000000000E+00 -0.00000000000E+00 -0.88832199188E+01  0.88832199188E+01  0.00000000000E+00 0. -1.
         21    1    1    2  503  501  0.21068759315E+02 -0.18674790024E+02  0.16245093213E+03  0.16487251363E+03  0.00000000000E+00 0. -1.
         21    1    1    2  504  503 -0.21068759315E+02  0.18674790024E+02  0.18155127665E+02  0.33499986000E+02  0.00000000000E+00 0. -1.
</event>
<event>
 4    1  0.3069799E+006  0.2714301E+02  0.7546771E-02  0.1446177E+00
         21   -1    0    0  503  501  0.00000000000E+00  0.00000000000E+00  0.12969557399E+01  0.12969557399E+01  0.00000000000E+00 0. -1.
         21   -1    0    0  504  502 -0.00000000000E+00 -0.00000000000E+00 -0.58343011383E+03  0.58343011383E+03  0.00000000000E+00 0. -1.
         21    1    1    2  503  502 -0.24753412527E+02  0.11136057733E+02 -0.33852648110E+03  0.33961289967E+03  0.00000000000E+00 0. -1.
         21    1    1    2  504  501  0.24753412527E+02 -0.11136057733E+02 -0.24360667699E+03  0.24511416990E+03  0.00000000000E+00 0. -1.
</event>
<event>
 4    1  0.3069799E+006  0.2123114E+02  0.7546771E-02  0.1515990E+00
         21   -1    0    0  504  501  0.00000000000E+00  0.00000000000E+00  0.10746169751E+03  0.10746169751E+03  0.00000000000E+00 0.  1.
         21   -1    0    0  503  502 -0.00000000000E+00 -0.00000000000E+00 -0.51404579467E+02  0.51404579467E+02  0.00000000000E+00 0.  1.
         21    1    1    2  503  501 -0.18133993594E+01  0.21153550007E+02 -0.48094744329E+02  0.52572478801E+02  0.00000000000E+00 0.  1.
         21    1    1    2  504  502  0.18133993594E+01 -0.21153550007E+02  0.10415186238E+03  0.10629379818E+03  0.00000000000E+00 0.  1.
</event>
<event>
 4    1  0.3069799E+006  0.2014542E+02  0.7546771E-02  0.1531824E+00
         21   -1    0    0  503  501  0.00000000000E+00  0.00000000000E+00  0.11245716089E+02  0.11245716089E+02  0.00000000000E+00 0. -1.
         21   -1    0    0  501  502 -0.00000000000E+00 -0.00000000000E+00 -0.39836095806E+02  0.39836095806E+02  0.00000000000E+00 0.  1.
         21    1    1    2  503  504 -0.16578877464E+02 -0.11444590602E+02 -0.22129319197E+02  0.29925651207E+02  0.00000000000E+00 0.  1.
         21    1    1    2  504  502  0.16578877464E+02  0.11444590602E+02 -0.64610605198E+01  0.21156160688E+02  0.00000000000E+00 0. -1.
</event>
<event>
 4    1  0.3069799E+006  0.2673635E+02  0.7546771E-02  0.1450275E+00
         21   -1    0    0  504  501  0.00000000000E+00  0.00000000000E+00  0.78375224513E+01  0.78375224513E+01  0.00000000000E+00 0. -1.
         21   -1    0    0  503  502 -0.00000000000E+00 -0.00000000000E+00 -0.51864329791E+03  0.51864329791E+03  0.00000000000E+00 0.  1.
         21    1    1    2  503  501 -0.16058923342E+02 -0.21376240098E+02 -0.49437881154E+03  0.49510124415E+03  0.00000000000E+00 0.  1.
         21    1    1    2  504  502  0.16058923342E+02  0.21376240098E+02 -0.16426963920E+02  0.31379576212E+02  0.00000000000E+00 0. -1.
</event>
<event>
 4    1  0.3069799E+006  0.2490930E+02  0.7546771E-02  0.1469821E+00
         21   -1    0    0  502  501  0.00000000000E+00  0.00000000000E+00  0.16500936811E+02  0.16500936811E+02  0.00000000000E+00 0.  1.
         21   -1    0    0  504  502 -0.00000000000E+00 -0.00000000000E+00 -0.11689835497E+03  0.11689835497E+03  0.00000000000E+00 0. -1.
         21    1    1    2  503  501 -0.10857146740E+01 -0.24885625309E+02  0.47357848324E+01  0.25355488190E+02  0.00000000000E+00 0.  1.
         21    1    1    2  504  503  0.10857146740E+01  0.24885625309E+02 -0.10513320299E+03  0.10804380359E+03  0.00000000000E+00 0. -1.
</event>
<event>
 4    1  0.3069799E+006  0.2009024E+02  0.7546771E-02  0.1532661E+00
         21   -1    0    0  503  501  0.00000000000E+00  0.00000000000E+00  0.10996591760E+03  0.10996591760E+03  0.00000000000E+00 0. -1.
         21   -1    0    0  504  502 -0.00000000000E+00 -0.00000000000E+00 -0.11114410167E+02  0.11114410167E+02  0.00000000000E+00 0. -1.
         21    1    1    2  503  502 -0.19869702417E+02  0.29686024863E+01  0.98971250472E+02  0.10098973262E+03  0.00000000000E+00 0. -1.
         21    1    1    2  504  501  0.19869702417E+02 -0.29686024863E+01 -0.11974304064E+00  0.20090595144E+02  0.00000000000E+00 0. -1.
</event>
<event>
 4    1  0.3069799E+006  0.2048514E+02  0.7546771E-02  0.1526744E+00
         21   -1    0    0  502  501  0.00000000000E+00  0.00000000000E+00  0.34464820444E+03  0.34464820444E+03  0.00000000000E+00 0. -1.
         21   -1    0    0  504  502 -0.00000000000E+00 -0.00000000000E+00 -0.29340852170E+01  0.29340852170E+01  0.00000000000E+00 0. -1.
         21    1    1    2  503  501 -0.28557418989E+00 -0.20483151039E+02  0.30378377687E+03  0.30447368378E+03  0.00000000000E+00 0. -1.
         21    1    1    2  504  503  0.28557418989E+00  0.20483151039E+02  0.37930342354E+02  0.43108605872E+02  0.00000000000E+00 0. -1.
</event>
<event>
 4    1  0.3069799E+006  0.2003654E+02  0.7546771E-02  0.1533478E+00
         21   -1    0    0  502  501  0.00000000000E+00  0.00000000000E+00  0.37097681255E+02  0.37097681255E+02  0.00000000000E+00 0. -1.
         21   -1    0    0  503  502 -0.00000000000E+00 -0.00000000000E+00 -0.16120576942E+03  0.16120576942E+03  0.00000000000E+00 0.  1.
         21    1    1    2  503  504 -0.22018139753E+01 -0.19915192124E+02 -0.15781992092E+03  0.15908673829E+03  0.00000000000E+00 0.  1.
         21    1    1    2  504  501  0.22018139753E+01  0.19915192124E+02  0.33711832756E+02  0.39216712380E+02  0.00000000000E+00 0. -1.
</event>
<event>
 4    1  0.3069799E+006  0.2212393E+02  0.7546771E-02  0.1503802E+00
         21   -1    0    0  504  501  0.00000000000E+00  0.00000000000E+00  0.43880921034E+03  0.43880921034E+03  0.00000000000E+00 0. -1.
         21   -1    0    0  503  502 -0.00000000000E+00 -0.00000000000E+00 -0.11155334456E+01  0.11155334456E+01  0.00000000000E+00 0. -1.
         21    1    1    2  503  501  0.66757086075E+01 -0.21092728726E+02  0.21690728052E+03  0.21803265039E+03  0.00000000000E+00 0. -1.
         21    1    1    2  504  502 -0.66757086075E+01  0.21092728726E+02  0.22078639637E+03  0.22189209340E+03  0.00000000000E+00 0. -1.
</event>
<event>
 4    1  0.3069799E+006  0.2018764E+02  0.7546771E-02  0.1531186E+00
         21   -1    0    0  504  501  0.00000000000E+00  0.00000000000E+00  0.15789547552E+02  0.15789547552E+02  0.00000000000E+00 0. -1.
         21   -1    0    0  503  502 -0.00000000000E+00 -0.00000000000E+00 -0.42897273029E+02  0.42897273029E+02  0.00000000000E+00 0. -1.
         21    1    1    2  503  501  0.89143106908E+01  0.18112869937E+02 -0.32073046659E+02  0.37897510663E+02  0.00000000000E+00 0. -1.
         21    1    1    2  504  502 -0.89143106908E+01 -0.18112869937E+02  0.49653211823E+01  0.20789309919E+02  0.00000000000E+00 0. -1.
</event>
<event>
 4    1  0.3069799E+006  0.2019331E+02  0.7546771E-02  0.1531101E+00
         21   -1    0    0  504  501  0.00000000000E+00  0.00000000000E+00  0.11121018186E+02  0.11121018186E+02  0.00000000000E+00 0.  1.
         21   -1    0    0  503  502 -0.00000000000E+00 -0.00000000000E+00 -0.18022622690E+03  0.18022622690E+03  0.00000000000E+00 0. -1.
         21    1    1    2  503  501  0.18879839925E+02  0.71638947275E+01  0.83590029289E+00  0.20210602973E+02  0.00000000000E+00 0.  1.
         21    1    1    2  504  502 -0.18879839925E+02 -0.71638947275E+01 -0.16994110901E+03  0.17113664211E+03  0.00000000000E+00 0. -1.
</event>
<event>
 4    1  0.3069799E+006  0.2895259E+02  0.7546771E-02  0.1428922E+00
         21   -1    0    0  503  501  0.00000000000E+00  0.00000000000E+00  0.56625437062E+03  0.56625437062E+03  0.00000000000E+00 0.  1.
         21   -1    0    0  504  502 -0.00000000000E+00 -0.00000000000E+00 -0.59742480510E+01  0.59742480510E+01  0.00000000000E+00 0. -1.
         21    1    1    2  503  502  0.20621066481E+02 -0.20322991631E+02  0.52828747674E+03  0.52908024954E+03  0.00000000000E+00 0.  1.
         21    1    1    2  504  501 -0.20621066481E+02  0.20322991631E+02  0.31992645828E+02  0.43148369131E+02  0.00000000000E+00 0. -1.
</event>
<event>
 4    1  0.3069799E+006  0.2079512E+02  0.7546771E-02  0.1522210E+00
         21   -1    0    0  503  501  0.00000000000E+00  0.00000000000E+00  0.16588522000E+02  0.16588522000E+02  0.00000000000E+00 0. -1.
         21   -1    0    0  501  502 -0.00000000000E+00 -0.00000000000E+00 -0.31527501703E+03  0.31527501703E+03  0.00000000000E+00 0.  1.
         21    1    1    2  503  504  0.14743621196E+02  0.14665017294E+02  0.95805151829E+01  0.22895924733E+02  0.00000000000E+00 0. -1.
         21    1    1    2  504  502 -0.14743621196E+02 -0.14665017294E+02 -0.30826701022E+03  0.30896761430E+03  0.00000000000E+00 0.  1.
</event>
<event>
 4    1  0.3069799E+006  0.2477628E+02  0.7546771E-02  0.1471322E+00
         21   -1    0    0  503  501  0.00000000000E+00  0.00000000000E+00  0.34472896546E+01  0.34472896546E+01  0.00000000000E+00 0.  1.
         21   -1    0    0  504  502 -0.00000000000E+00 -0.00000000000E+00 -0.43075145872E+03  0.43075145872E+03  0.00000000000E+00 0. -1.
         21    1    1    2  503  502 -0.58511865494E+01 -0.24075456348E+02 -0.37992848182E+03  0.38073549254E+03  0.00000000000E+00 0. -1.
         21    1    1    2  504  501  0.58511865494E+01  0.24075456348E+02 -0.47375687248E+02  0.53463255837E+02  0.00000000000E+00 0.  1.
</event>
<event>
 4    1  0.3069799E+006  0.3801871E+02  0.7546771E-02  0.1360504E+00
         21   -1    0    0  503  501  0.00000000000E+00  0.00000000000E+00  0.22985858682E+02  0.22985858682E+02  0.00000000000E+00 0.  1.
         21   -1    0    0  501  502 -0.00000000000E+00 -0.00000000000E+00 -0.10839278669E+03  0.10839278669E+03  0.00000000000E+00 0.  1.
         21    1    1    2  503  504 -0.36539997575E+02 -0.10500052255E+02 -0.13907356446E+00  0.38018967129E+02  0.00000000000E+00 0.  1.
         21    1    1    2  504  502  0.36539997575E+02  0.10500052255E+02 -0.85267854445E+02  0.93359678244E+02  0.00000000000E+00 0.  1.
</event>
<event>
 4    1  0.3069799E+006  0.5126205E+02  0.7546771E-02  0.1292791E+00
         21   -1    0    0  504  501  0.00000000000E+00  0.00000000000E+00  0.47010836564E+02  0.47010836564E+02  0.00000000000E+00 0. -1.
         21   -1    0    0  503  502 -0.00000000000E+00 -0.00000000000E+00 -0.76636993671E+02  0.76636993671E+02  0.00000000000E+00 0. -1.
         21    1    1    2  503  501 -0.50207841382E+02  0.10342638600E+02  0.17348272438E+02  0.54118019790E+02  0.00000000000E+00 0. -1.
         21    1    1    2  504  502  0.50207841382E+02 -0.10342638600E+02 -0.46974429545E+02  0.69529810445E+02  0.00000000000E+00 0. -1.
</event>
<event>
 4    1  0.3069799E+006  0.2265614E+02  0.7546771E-02  0.1496862E+00
         21   -1    0    0  502  501  0.00000000000E+00  0.00000000000E+00  0.36180369598E+02  0.36180369598E+02  0.00000000000E+00 0. -1.
         21   -1    0    0  504  502 -0.00000000000E+00 -0.00000000000E+00 -0.27233999241E+03  0.27233999241E+03  0.00000000000E+00 0. -1.
         21    1    1    2  503  501  0.12377232750E+02  0.18976428296E+02  0.32108619367E+02  0.39297126601E+02  0.00000000000E+00 0. -1.
         21    1    1    2  504  503 -0.12377232750E+02 -0.18976428296E+02 -0.26826824218E+03  0.26922323541E+03  0.00000000000E+00 0. -1.
</event>
<event>
 4    1  0.3069799E+006  0.3873308E+02  0.7546771E-02  0.1356074E+00
         21   -1    0    0  503  501  0.00000000000E+00  0.00000000000E+00  0.16447307145E+03  0.16447307145E+03  0.00000000000E+00 0.  1.
         21   -1    0    0  504  502 -0.00000000000E+00 -0.00000000000E+00 -0.22271480714E+02  0.22271480714E+02  0.00000000000E+00 0. -1.
         21    1    1    2  503  502 -0.31770129566E+02  0.22156495025E+02  0.14284799009E+03  0.14800607986E+03  0.00000000000E+00 0.  1.
         21    1    1    2  504  501  0.31770129566E+02 -0.22156495025E+02 -0.64639934795E+00  0.38738472305E+02  0.00000000000E+00 0. -1.
</event>
<event>
 4    1  0.3069799E+006  0.3758917E+02  0.7546771E-02  0.1363223E+00
         21   -1    0    0  502  501  0.00000000000E+00  0.00000000000E+00  0.38514048983E+03  0.38514048983E+03  0.00000000000E+00 0. -1.
         21   -1    0    0  503  502 -0.00000000000E+00 -0.00000000000E+00 -0.12991776218E+02  0.12991776218E+02  0.00000000000E+00 0.  1.
         21    1    1    2  503  504  0.29395271709E+02  0.23427833559E+02  0.17440833890E+02  0.41438244061E+02  0.00000000000E+00 0.  1.
         21    1    1    2  504  501 -0.29395271709E+02 -0.23427833559E+02  0.35470787972E+03  0.35669402199E+03  0.00000000000E+00 0. -1.
</event>
<event>
 4    1  0.3069799E+006  0.2119370E+02  0.7546771E-02  0.1516517E+00
         21   -1    0    0  504  501  0.00000000000E+00  0.00000000000E+00  0.56764670764E+02  0.56764670764E+02  0.00000000000E+00 0. -1.
         21   -1    0    0  503  502 -0.00000000000E+00 -0.00000000000E+00 -0.23351157706E+02  0.23351157706E+02  0.00000000000E+00 0.  1.
         21    1    1    2  503  501 -0.16881811292E+02 -0.12813172377E+02 -0.15864410722E+02  0.26473618310E+02  0.00000000000E+00 0.  1.
         21    1    1    2  504  502  0.16881811292E+02  0.12813172377E+02  0.49277923779E+02  0.53642210160E+02  0.00000000000E+00 0. -1.
</event>
<event>
 4    1  0.3069799E+006  0.2333972E+02  0.7546771E-02  0.1488276E+00
         21   -1    0    0  504  501  0.00000000000E+00  0.00000000000E+00  0.48582589747E+02  0.48582589747E+02  0.00000000000E+00 0.  1.
         21   -1    0    0  503  502 -0.00000000000E+00 -0.00000000000E+00 -0.11773411567E+02  0.11773411567E+02  0.00000000000E+00 0.  1.
         21    1    1    2  503  501 -0.20561334181E+02  0.11044185544E+02  0.24990337316E+02  0.34194436050E+02  0.00000000000E+00 0.  1.
         21    1    1    2  504  502  0.20561334181E+02 -0.11044185544E+02  0.11818840865E+02  0.26161565263E+02  0.00000000000E+00 0.  1.
</event>
<event>
 4    1  0.3069799E+006  0.3010937E+02  0.7546771E-02  0.1418648E+00
         21   -1    0    0  502  501  0.00000000000E+00  0.00000000000E+00  0.28859894351E+03  0.28859894351E+03  0.00000000000E+00 0. -1.
         21   -1    0    0  504  502 -0.00000000000E+00 -0.00000000000E+00 -0.19882687411E+02  0.19882687411E+02  0.00000000000E+00 0.  1.
         21    1    1    2  503  501 -0.44924582612E+01  0.29772337069E+02  0.27589108056E+03  0.27752921030E+03  0.00000000000E+00 0. -1.
         21    1    1    2  504  503  0.44924582612E+01 -0.29772337069E+02 -0.71748244695E+01  0.30952420616E+02  0.00000000000E+00 0.  1.
</event>
<event>
 4    1  0.3069799E+006  0.2059047E+02  0.7546771E-02  0.1525193E+00
         21   -1    0    0  503  501  0.00000000000E+00  0.00000000000E+00  0.19104619881E+02  0.19104619881E+02  0.00000000000E+00 0.  1.
         21   -1    0    0  501  502 -0.00000000000E+00 -0.00000000000E+00 -0.24304567715E+02  0.24304567715E+02  0.00000000000E+00 0. -1.
         21    1    1    2  503  504  0.71351609460E+01  0.19314686742E+02  0.37992044420E+01  0.20938041935E+02  0.00000000000E+00 0.  1.
         21    1    1    2  504  502 -0.71351609460E+01 -0.19314686742E+02 -0.89991522755E+01  0.22471145662E+02  0.00000000000E+00 0. -1.
</event>
<event>
 4    1  0.3069799E+006  0.2202911E+02  0.7546771E-02  0.1505063E+00
         21   -1    0    0  504  501  0.00000000000E+00  0.00000000000E+00  0.11799875526E+03  0.11799875526E+03  0.00000000000E+00 0. -1.
         21   -1    0    0  503  502 -0.00000000000E+00 -0.00000000000E+00 -0.50446763944E+01  0.50446763944E+01  0.00000000000E+00 0. -1.
         21    1    1    2  503  501  0.52470503210E+00 -0.22022864543E+02  0.82921648329E+02  0.85797911628E+02  0.00000000000E+00 0. -1.
         21    1    1    2  504  502 -0.52470503210E+00  0.22022864543E+02  0.30032430532E+02  0.37245520022E+02  0.00000000000E+00 0. -1.
</event>
<event>
 4    1  0.3069799E+006  0.3591134E+02  0.7546771E-02  0.1374267E+00
         21   -1    0    0  502  501  0.00000000000E+00  0.00000000000E+00  0.69088572216E+01  0.69088572216E+01  0.00000000000E+00 0. -1.
         21   -1    0    0  504  502 -0.00000000000E+00 -0.00000000000E+00 -0.18749319279E+03  0.18749319279E+03  0.00000000000E+00 0. -1.
         21    1    1    2  503  501  0.22393198141E+02 -0.28074350228E+02 -0.83822201786E+02  0.91190931435E+02  0.00000000000E+00 0. -1.
         21    1    1    2  504  503 -0.22393198141E+02  0.28074350228E+02 -0.96762133783E+02  0.10321111858E+03  0.00000000000E+00 0. -1.
</event>
<event>
 4    1  0.3069799E+006  0.2140803E+02  0.7546771E-02  0.1513518E+00
         21   -1    0    0  502  501  0.00000000000E+00  0.00000000000E+00  0.21424033408E+03  0.21424033408E+03  0.00000000000E+00 0.  1.
         21   -1    0    0  504  502 -0.00000000000E+00 -0.00000000000E+00 -0.26705094485E+03  0.26705094485E+03  0.00000000000E+00 0.  1.
         21    1    1    2  503  501  0.46401053044E+01  0.20899121451E+02  0.21327455342E+03  0.21434630622E+03  0.00000000000E+00 0.  1.
         21    1    1    2  504  503 -0.46401053044E+01 -0.20899121451E+02 -0.26608516419E+03  0.26694497271E+03  0.00000000000E+00 0.  1.
</event>
<event>
 4    1  0.3069799E+006  0.2560554E+02  0.7546771E-02  0.1462142E+00
         21   -1    0    0  503  501  0.00000000000E+00  0.00000000000E+00  0.12427086810E+03  0.12427086810E+03  0.00000000000E+00 0.  1.
         21   -1    0    0  504  502 -0.00000000000E+00 -0.00000000000E+00 -0.20567491510E+02  0.20567491510E+02  0.00000000000E+00 0.  1.
         21    1    1    2  503  502  0.19821796084E+02 -0.16209259056E+02  0.11429543293E+03  0.11712851773E+03  0.00000000000E+00 0.  1.
         21    1    1    2  504  501 -0.19821796084E+02  0.16209259056E+02 -0.10592056338E+02  0.27709841873E+02  0.00000000000E+00 0.  1.
</event>
<event>
 4    1  0.3069799E+006  0.2902222E+02  0.7546771E-02  0.1428288E+00
         21   -1    0    0  503  501  0.00000000000E+00  0.00000000000E+00  0.23504959153E+02  0.23504959153E+02  0.00000000000E+00 0. -1.
         21   -1    0    0  501  502 -0.00000000000E+00 -0.00000000000E+00 -0.17819897766E+03  0.17819897766E+03  0.00000000000E+00 0. -1.
         21    1    1    2  503  504 -0.28929823313E+02 -0.23139593569E+01  0.12796104163E+02  0.31717965990E+02  0.00000000000E+00 0. -1.
         21    1    1    2  504  502  0.28929823313E+02  0.23139593569E+01 -0.16749012267E+03  0.16998597082E+03  0.00000000000E+00 0. -1.
</event>
<event>
 4    1  0.3069799E+006  0.2930220E+02  0.7546771E-02  0.1425759E+00
         21   -1    0    0  504  501  0.00000000000E+00  0.00000000000E+00  0.29691970163E+03  0.29691970163E+03  0.00000000000E+00 0.  1.
         21   -1    0    0  503  502 -0.00000000000E+00 -0.00000000000E+00 -0.28985010813E+01  0.28985010813E+01  0.00000000000E+00 0.  1.
         21    1    1    2  503  501 -0.29295505642E+02 -0.62645634503E+00  0.15424262389E+03  0.15700129338E+03  0.00000000000E+00 0.  1.
         21    1    1    2  504  502  0.29295505642E+02  0.62645634503E+00  0.13977857666E+03  0.14281690933E+03  0.00000000000E+00 0.  1.
</event>
<event>
 4    1  0.3069799E+006  0.4090448E+02  0.7546771E-02  0.1343266E+00
         21   -1    0    0  504  501  0.00000000000E+00  0.00000000000E+00  0.37379109289E+03  0.37379109289E+03  0.00000000000E+00 0. -1.
         21   -1    0    0  503  502 -0.00000000000E+00 -0.00000000000E+00 -0.80203820645E+01  0.80203820645E+01  0.00000000000E+00 0. -1.
         21    1    1    2  503  501 -0.16876107019E+02  0.37260882353E+02  0.30978996292E+03  0.31247879523E+03  0.00000000000E+00 0. -1.
         21    1    1    2  504  502  0.16876107019E+02 -0.37260882353E+02  0.55980747905E+02  0.69332679725E+02  0.00000000000E+00 0. -1.
</event>
<event>
 4    1  0.3069799E+006  0.3363403E+02  0.7546771E-02  0.1390429E+00
         21   -1    0    0  504  501  0.00000000000E+00  0.00000000000E+00  0.18303844597E+02  0.18303844597E+02  0.00000000000E+00 0.  1.
         21   -1    0    0  503  502 -0.00000000000E+00 -0.00000000000E+00 -0.62617137181E+02  0.62617137181E+02  0.00000000000E+00 0. -1.
         21    1    1    2  503  501  0.30729361926E+02 -0.13673111722E+02 -0.26767828715E+02  0.42985629257E+02  0.00000000000E+00 0. -1.
         21    1    1    2  504  502 -0.30729361926E+02  0.13673111722E+02 -0.17545463869E+02  0.37935352521E+02  0.00000000000E+00 0.  1.
</event>
<event>
 4    1  0.3069799E+006  0.3032801E+02  0.7546771E-02  0.1416767E+00
         21   -1    0    0  502  501  0.00000000000E+00  0.00000000000E+00  0.67922320622E+02  0.67922320622E+02  0.00000000000E+00 0.  1.
         21   -1    0    0  504  502 -0.00000000000E+00 -0.00000000000E+00 -0.13910426698E+03  0.13910426698E+03  0.00000000000E+00 0.  1.
         21    1    1    2  503  501  0.29442107236E+02 -0.72766913492E+01  0.62754842642E+02  0.69699054445E+02  0.00000000000E+00 0.  1.
         21    1    1    2  504  503 -0.29442107236E+02  0.72766913492E+01 -0.13393678900E+03  0.13732753316E+03  0.00000000000E+00 0.  1.
</event>
<event>
 4    1  0.3069799E+006  0.2130423E+02  0.7546771E-02  0.1514965E+00
         21   -1    0    0  503  501  0.00000000000E+00  0.00000000000E+00  0.10576989183E+04  0.10576989183E+04  0.00000000000E+00 0.  1.
         21   -1    0    0  501  502 -0.00000000000E+00 -0.00000000000E+00 -0.16292415153E+01  0.16292415153E+01  0.00000000000E+00 0. -1.
         21    1    1    2  503  504  0.10747055482E+02  0.18394866981E+02  0.98262707109E+03  0.98285799135E+03  0.00000000000E+00 0.  1.
         21    1    1    2  504  502 -0.10747055482E+02 -0.18394866981E+02  0.73442605656E+02  0.76470168421E+02  0.00000000000E+00 0. -1.
</event>
<event>
 4    1  0.3069799E+006  0.2075223E+02  0.7546771E-02  0.1522832E+00
         21   -1    0    0  503  501  0.00000000000E+00  0.00000000000E+00  0.44758996902E+02  0.44758996902E+02  0.00000000000E+00 0. -1.
         21   -1    0    0  504  502 -0.00000000000E+00 -0.00000000000E+00 -0.10047876703E+02  0.10047876703E+02  0.00000000000E+00 0. -1.
         21    1    1    2  503  502 -0.20715939353E+02  0.12266701965E+01  0.11711464610E+02  0.23828832669E+02  0.00000000000E+00 0. -1.
         21    1    1    2  504  501  0.20715939353E+02 -0.12266701965E+01  0.22999655588E+02  0.30978040936E+02  0.00000000000E+00 0. -1.
</event>
<event>
 4    1  0.3069799E+006  0.3262167E+02  0.7546771E-02  0.1398102E+00
         21   -1    0    0  503  501  0.00000000000E+00  0.00000000000E+00  0.13701444994E+02  0.13701444994E+02  0.00000000000E+00 0.  1.
         21   -1    0    0  504  502 -0.00000000000E+00 -0.00000000000E+00 -0.10964139183E+03  0.10964139183E+03  0.00000000000E+00 0.  1.
         21    1    1    2  503  502  0.28186698393E+02 -0.16422041550E+02 -0.81273196830E+02  0.87575715458E+02  0.00000000000E+00 0.  1.
         21    1    1    2  504  501 -0.28186698393E+02  0.16422041550E+02 -0.14666750004E+02  0.35767121364E+02  0.00000000000E+00 0.  1.
</event>
<event>
 4    1  0.3069799E+006  0.4476235E+02  0.7546771E-02  0.1322632E+00
         21   -1    0    0  502  501  0.00000000000E+00  0.00000000000E+00  0.50704668094E+03  0.50704668094E+03  0.00000000000E+00 0. -1.
         21   -1    0    0  504  502 -0.00000000000E+00 -0.00000000000E+00 -0.14626633703E+02  0.14626633703E+02  0.00000000000E+00 0. -1.
         21    1    1    2  503  501 -0.16283261208E+02  0.41695600849E+02  0.46904336658E+03  0.47117443422E+03  0.00000000000E+00 0. -1.
         21    1    1    2  504  503  0.16283261208E+02 -0.41695600849E+02  0.23376680655E+02  0.50498880425E+02  0.00000000000E+00 0. -1.
</event>
<event>
 4    1  0.3069799E+006  0.3796098E+02  0.7546771E-02  0.1360867E+00
         21   -1    0    0  504  501  0.00000000000E+00  0.00000000000E+00  0.24389807191E+02  0.24389807191E+02  0.00000000000E+00 0. -1.
         21   -1    0    0  503  502 -0.00000000000E+00 -0.00000000000E+00 -0.59503327672E+02  0.59503327672E+02  0.00000000000E+00 0. -1.
         21    1    1    2  503  501 -0.52825289231E+01 -0.37591634818E+02 -0.21079992296E+02  0.43421218261E+02  0.00000000000E+00 0. -1.
         21    1    1    2  504  502  0.52825289231E+01  0.37591634818E+02 -0.14033528185E+02  0.40471916602E+02  0.00000000000E+00 0. -1.
</event>
<event>
 4    1  0.3069799E+006  0.2520043E+02  0.7546771E-02  0.1466574E+00
         21   -1    0    0  503  501  0.00000000000E+00  0.00000000000E+00  0.14933674548E+02  0.14933674548E+02  0.00000000000E+00 0.  1.
         21   -1    0    0  504  502 -0.00000000000E+00 -0.00000000000E+00 -0.93221806489E+03  0.93221806489E+03  0.00000000000E+00 0. -1.
         21    1    1    2  503  502  0.21759907252E+02 -0.12710949721E+02  0.40059140482E+01  0.25516840592E+02  0.00000000000E+00 0.  1.
         21    1    1    2  504  501 -0.21759907252E+02  0.12710949721E+02 -0.92129030439E+03  0.92163489885E+03  0.00000000000E+00 0. -1.
</event>
<event>
 4    1  0.3069799E+006  0.2579321E+02  0.7546771E-02  0.1460122E+00
         21   -1    0    0  503  501  0.00000000000E+00  0.00000000000E+00  0.31469080480E+02  0.31469080480E+02  0.00000000000E+00 0.  1.
         21   -1    0    0  504  502 -0.00000000000E+00 -0.00000000000E+00 -0.16222805302E+03  0.16222805302E+03  0.00000000000E+00 0.  1.
         21    1    1    2  503  502 -0.15270162748E+02  0.20787298609E+02  0.24938388932E+02  0.35877749320E+02  0.00000000000E+00 0.  1.
         21    1    1    2  504  501  0.15270162748E+02 -0.20787298609E+02 -0.15569736147E+03  0.15781938418E+03  0.00000000000E+00 0.  1.
</event>
<event>
 4    1  0.3069799E+006  0.4525640E+02  0.7546771E-02  0.1320162E+00
         21   -1    0    0  504  501  0.00000000000E+00  0.00000000000E+00  0.40403275635E+02  0.40403275635E+02  0.00000000000E+00 0. -1.
         21   -1    0    0  503  502 -0.00000000000E+00 -0.00000000000E+00 -0.98238253083E+02  0.98238253083E+02  0.00000000000E+00 0. -1.
         21    1    1    2  503  501  0.44965987228E+02  0.51187998281E+01 -0.77143239542E+02  0.89438367193E+02  0.00000000000E+00 0. -1.
         21    1    1    2  504  502 -0.44965987228E+02 -0.51187998281E+01  0.19308262094E+02  0.49203161526E+02  0.00000000000E+00 0. -1.
</event>
<event>
 4    1  0.3069799E+006  0.2387766E+02  0.7546771E-02  0.1481762E+00
         21   -1    0    0  504  501  0.00000000000E+00  0.00000000000E+00  0.65232151055E+02  0.65232151055E+02  0.00000000000E+00 0.  1.
         21   -1    0    0  503  502 -0.00000000000E+00 -0.00000000000E+00 -0.96250308335E+01  0.96250308335E+01  0.00000000000E+00 0. -1.
         21    1    1    2  503  501  0.16754655001E+02  0.17012471729E+02  0.39151845136E+02  0.45858583015E+02  0.00000000000E+00 0.  1.
         21    1    1    2  504  502 -0.16754655001E+02 -0.17012471729E+02  0.16455275085E+02  0.28998598874E+02  0.00000000000E+00 0. -1.
</event>
<event>
 4    1  0.3069799E+006  0.2071391E+02  0.7546771E-02  0.1523389E+00
         21   -1    0    0  503  501  0.00000000000E+00  0.00000000000E+00  0.75199867532E+03  0.75199867532E+03  0.00000000000E+00 0.  1.
         21   -1    0    0  501  502 -0.00000000000E+00 -0.00000000000E+00 -0.64282361956E+01  0.64282361956E+01  0.00000000000E+00 0.  1.
         21    1    1    2  503  504 -0.16724659140E+02  0.12220961869E+02  0.73477826105E+03  0.73507017287E+03  0.00000000000E+00 0.  1.
         21    1    1    2  504  502  0.16724659140E+02 -0.12220961869E+02  0.10792178067E+02  0.23356738637E+02  0.00000000000E+00 0.  1.
</event>
<event>
 4    1  0.3069799E+006  0.2199883E+02  0.7546771E-02  0.1505468E+00
         21   -1    0    0  504  501  0.00000000000E+00  0.00000000000E+00  0.13796448274E+02  0.13796448274E+02  0.00000000000E+00 0. -1.
         21   -1    0    0  503  502 -0.00000000000E+00 -0.00000000000E+00 -0.17398751681E+03  0.17398751681E+03  0.00000000000E+00 0. -1.
         21    1    1    2  503  501 -0.11362793379E+02  0.18837078996E+02  0.37994171084E+01  0.22324519901E+02  0.00000000000E+00 0. -1.
         21    1    1    2  504  502  0.11362793379E+02 -0.18837078996E+02 -0.16399048564E+03  0.16545944518E+03  0.00000000000E+00 0. -1.
</event>
<event>
 4    1  0.3069799E+006  0.3952987E+02  0.7546771E-02  0.1351263E+00
         21   -1    0    0  502  501  0.00000000000E+00  0.00000000000E+00  0.15016414270E+03  0.15016414270E+03  0.00000000000E+00 0. -1.
         21   -1    0    0  503  502 -0.00000000000E+00 -0.00000000000E+00 -0.22593029136E+02  0.22593029136E+02  0.00000000000E+00 0. -1.
         21    1    1    2  503  504 -0.32543520801E+02  0.22439476017E+02  0.34493133547E+00  0.39531377508E+02  0.00000000000E+00 0. -1.
         21    1    1    2  504  501  0.32543520801E+02 -0.22439476017E+02  0.12722618223E+03  0.13322579433E+03  0.00000000000E+00 0. -1.
</event>
<event>
 4    1  0.3069799E+006  0.3184433E+02  0.7546771E-02  0.1404219E+00
         21   -1    0    0  504  501  0.00000000000E+00  0.00000000000E+00  0.17256071962E+03  0.17256071962E+03  0.00000000000E+00 0.  1.
         21   -1    0    0  501  502 -0.00000000000E+00 -0.00000000000E+00 -0.44863209718E+02  0.44863209718E+02  0.00000000000E+00 0.  1.
         21    1    1    2  503  502 -0.61914046369E+00  0.31838311742E+02 -0.37493414245E+02  0.49191640969E+02  0.00000000000E+00 0.  1.
         21    1    1    2  504  503  0.61914046369E+00 -0.31838311742E+02  0.16519092414E+03  0.16823228836E+03  0.00000000000E+00 0.  1.
</event>
<event>
 4    1  0.3069799E+006  0.2543479E+02  0.7546771E-02  0.1463998E+00
         21   -1    0    0  502  501  0.00000000000E+00  0.00000000000E+00  0.81381393730E+03  0.81381393730E+03  0.00000000000E+00 0. -1.
         21   -1    0    0  503  502 -0.00000000000E+00 -0.00000000000E+00 -0.78604436125E+01  0.78604436125E+01  0.00000000000E+00 0. -1.
         21    1    1    2  503  504 -0.16275056249E+02 -0.19546125725E+02  0.13467328288E+02  0.28780156671E+02  0.00000000000E+00 0. -1.
         21    1    1    2  504  501  0.16275056249E+02  0.19546125725E+02  0.79248616540E+03  0.79289422424E+03  0.00000000000E+00 0. -1.
</event>
<event>
 4    1  0.3069799E+006  0.2233341E+02  0.7546771E-02  0.1501043E+00
         21   -1    0    0  504  501  0.00000000000E+00  0.00000000000E+00  0.29667626632E+02  0.29667626632E+02  0.00000000000E+00 0. -1.
         21   -1    0    0  503  502 -0.00000000000E+00 -0.00000000000E+00 -0.29601143398E+03  0.29601143398E+03  0.00000000000E+00 0.  1.
         21    1    1    2  503  501 -0.17173651950E+02 -0.14277489511E+02 -0.29131951306E+03  0.29217433104E+03  0.00000000000E+00 0.  1.
         21    1    1    2  504  502  0.17173651950E+02  0.14277489511E+02  0.24975705712E+02  0.33504729575E+02  0.00000000000E+00 0. -1.
</event>
<event>
 4    1  0.3069799E+006  0.2646560E+02  0.7546771E-02  0.1453051E+00
         21   -1    0    0  502  501  0.00000000000E+00  0.00000000000E+00  0.59508057441E+02  0.59508057441E+02  0.00000000000E+00 0. -1.
         21   -1    0    0  504  502 -0.00000000000E+00 -0.00000000000E+00 -0.28307769332E+02  0.28307769332E+02  0.00000000000E+00 0. -1.
         21    1    1    2  503  501 -0.19669414117E+02  0.17707120794E+02  0.49160336050E+02  0.55831591586E+02  0.00000000000E+00 0. -1.
         21    1    1    2  504  503  0.19669414117E+02 -0.17707120794E+02 -0.17960047940E+02  0.31984235187E+02  0.00000000000E+00 0. -1.
</event>
<event>
 4    1  0.3069799E+006  0.2014852E+02  0.7546771E-02  0.1531777E+00
         21   -1    0    0  503  501  0.00000000000E+00  0.00000000000E+00  0.16733710055E+01  0.16733710055E+01  0.00000000000E+00 0. -1.
         21   -1    0    0  504  502 -0.00000000000E+00 -0.00000000000E+00 -0.25356025121E+03  0.25356025121E+03  0.00000000000E+00 0. -1.
         21    1    1    2  503  502  0.15741258840E+02 -0.12576791410E+02 -0.15247365558E+03  0.15379915006E+03  0.00000000000E+00 0. -1.
         21    1    1    2  504  501 -0.15741258840E+02  0.12576791410E+02 -0.99413224622E+02  0.10143447216E+03  0.00000000000E+00 0. -1.
</event>
<event>
 4    1  0.3069799E+006  0.3322551E+02  0.7546771E-02  0.1393487E+00
         21   -1    0    0  502  501  0.00000000000E+00  0.00000000000E+00  0.28014917117E+02  0.28014917117E+02  0.00000000000E+00 0.  1.
         21   -1    0    0  503  502 -0.00000000000E+00 -0.00000000000E+00 -0.44302008271E+02  0.44302008271E+02  0.00000000000E+00 0.  1.
         21    1    1    2  503  504 -0.29785298212E+02 -0.14723122347E+02 -0.20164898897E+02  0.38865890814E+02  0.00000000000E+00 0.  1.
         21    1    1    2  504  501  0.29785298212E+02  0.14723122347E+02  0.38778077438E+01  0.33451034574E+02  0.00000000000E+00 0.  1.
</event>
<event>
 4    1  0.3069799E+006  0.2265511E+02  0.7546771E-02  0.1496875E+00
         21   -1    0    0  504  501  0.00000000000E+00  0.00000000000E+00  0.55203743332E+02  0.55203743332E+02  0.00000000000E+00 0.  1.
         21   -1    0    0  503  502 -0.00000000000E+00 -0.00000000000E+00 -0.10801550814E+02  0.10801550814E+02  0.00000000000E+00 0. -1.
         21    1    1    2  503  501  0.21968576719E+02  0.55349543611E+01  0.34516370542E+02  0.41287212526E+02  0.00000000000E+00 0.  1.
         21    1    1    2  504  502 -0.21968576719E+02 -0.55349543611E+01  0.98858219758E+01  0.24718081620E+02  0.00000000000E+00 0. -1.
</event>
<event>
 4    1  0.3069799E+006  0.2084808E+02  0.7546771E-02  0.1521445E+00
         21   -1    0    0  504  501  0.00000000000E+00  0.00000000000E+00  0.61694170055E+02  0.61694170055E+02  0.00000000000E+00 0.  1.
         21   -1    0    0  503  502 -0.00000000000E+00 -0.00000000000E+00 -0.79929380302E+01  0.79929380302E+01  0.00000000000E+00 0.  1.
         21    1    1    2  503  501  0.15045647960E+02 -0.14431595272E+02  0.38849284890E+02  0.44089787946E+02  0.00000000000E+00 0.  1.
         21    1    1    2  504  502 -0.15045647960E+02  0.14431595272E+02  0.14851947135E+02  0.25597320140E+02  0.00000000000E+00 0.  1.
</event>
<event>
 4    1  0.3069799E+006  0.2290128E+02  0.7546771E-02  0.1493742E+00
         21   -1    0    0  504  501  0.00000000000E+00  0.00000000000E+00  0.15386880362E+01  0.15386880362E+01  0.00000000000E+00 0. -1.
         21   -1    0    0  503  502 -0.00000000000E+00 -0.00000000000E+00 -0.16051771197E+04  0.16051771197E+04  0.00000000000E+00 0.  1.
         21    1    1    2  503  501  0.14827143885E+02  0.17453492009E+02 -0.15147979272E+04  0.15149710324E+04  0.00000000000E+00 0.  1.
         21    1    1    2  504  502 -0.14827143885E+02 -0.17453492009E+02 -0.88840504451E+02  0.91744775383E+02  0.00000000000E+00 0. -1.
</event>
<event>
 4    1  0.3069799E+006  0.2864372E+02  0.7546771E-02  0.1431760E+00
         21   -1    0    0  503  501  0.00000000000E+00  0.00000000000E+00  0.37839366545E+01  0.37839366545E+01  0.00000000000E+00 0. -1.
         21   -1    0    0  504  502 -0.00000000000E+00 -0.00000000000E+00 -0.23719208184E+03  0.23719208184E+03  0.00000000000E+00 0. -1.
         21    1    1    2  503  502 -0.15478291670E+02 -0.24101561446E+02 -0.81399744116E+02  0.86292416349E+02  0.00000000000E+00 0. -1.
         21    1    1    2  504  501  0.15478291670E+02  0.24101561446E+02 -0.15200840107E+03  0.15468360215E+03  0.00000000000E+00 0. -1.
</event>
<event>
 4    1  0.3069799E+006  0.2491446E+02  0.7546771E-02  0.1469763E+00
         21   -1    0    0  503  501  0.00000000000E+00  0.00000000000E+00  0.28362881261E+02  0.28362881261E+02  0.00000000000E+00 0.  1.
         21   -1    0    0  504  502 -0.00000000000E+00 -0.00000000000E+00 -0.22482299992E+02  0.22482299992E+02  0.00000000000E+00 0.  1.
         21    1    1    2  503  502  0.20731249201E+02  0.13818300537E+02 -0.12024442113E+01  0.24943455960E+02  0.00000000000E+00 0.  1.
         21    1    1    2  504  501 -0.20731249201E+02 -0.13818300537E+02  0.70830254806E+01  0.25901725293E+02  0.00000000000E+00 0.  1.
</event>
<event>
 4    1  0.3069799E+006  0.2326022E+02  0.7546771E-02  0.1489256E+00
         21   -1    0    0  504  501  0.00000000000E+00  0.00000000000E+00  0.20786090948E+03  0.20786090948E+03  0.00000000000E+00 0. -1.
         21   -1    0    0  503  502 -0.00000000000E+00 -0.00000000000E+00 -0.15106566039E+02  0.15106566039E+02  0.00000000000E+00 0.  1.
         21    1    1    2  503  501  0.19657222788E+02 -0.12435089341E+02 -0.50484324352E+01  0.23801775663E+02  0.00000000000E+00 0.  1.
         21    1    1    2  504  502 -0.19657222788E+02  0.12435089341E+02  0.19780277588E+03  0.19916569986E+03  0.00000000000E+00 0. -1.
</event>
<event>
 4    1  0.3069799E+006  0.2509608E+02  0.7546771E-02  0.1467731E+00
         21   -1    0    0  504  501  0.00000000000E+00  0.00000000000E+00  0.31105538995E+02  0.31105538995E+02  0.00000000000E+00 0. -1.
         21   -1    0    0  503  502 -0.00000000000E+00 -0.00000000000E+00 -0.62175607337E+02  0.62175607337E+02  0.00000000000E+00 0. -1.
         21    1    1    2  503  501  0.23572373909E+02 -0.86114261376E+01 -0.53835654867E+02  0.59397737388E+02  0.00000000000E+00 0. -1.
         21    1    1    2  504  502 -0.23572373909E+02  0.86114261376E+01  0.22765586525E+02  0.33883408944E+02  0.00000000000E+00 0. -1.
</event>
<event>
 4    1  0.3069799E+006  0.2007574E+02  0.7546771E-02  0.1532881E+00
         21   -1    0    0  502  501  0.00000000000E+00  0.00000000000E+00  0.52938016913E+02  0.52938016913E+02  0.00000000000E+00 0.  1.
         21   -1    0    0  503  502 -0.00000000000E+00 -0.00000000000E+00 -0.58423885802E+02  0.58423885802E+02  0.00000000000E+00 0. -1.
         21    1    1    2  503  504 -0.71849442463E+01  0.18745987383E+02 -0.54669348230E+02  0.58238931160E+02  0.00000000000E+00 0. -1.
         21    1    1    2  504  501  0.71849442463E+01 -0.18745987383E+02  0.49183479340E+02  0.53122971555E+02  0.00000000000E+00 0.  1.
</event>
<event>
 4    1  0.3069799E+006  0.2343327E+02  0.7546771E-02  0.1487128E+00
         21   -1    0    0  502  501  0.00000000000E+00  0.00000000000E+00  0.33219947028E+03  0.33219947028E+03  0.00000000000E+00 0.  1.
         21   -1    0    0  503  502 -0.00000000000E+00 -0.00000000000E+00 -0.21334786906E+01  0.21334786906E+01  0.00000000000E+00 0.  1.
         21    1    1    2  503  504  0.21090089691E+02  0.10214014493E+02  0.85700222532E+02  0.88846193601E+02  0.00000000000E+00 0.  1.
         21    1    1    2  504  501 -0.21090089691E+02 -0.10214014493E+02  0.24436576906E+03  0.24548675537E+03  0.00000000000E+00 0.  1.
</event>
<event>
 4    1  0.3069799E+006  0.2410730E+02  0.7546771E-02  0.1479043E+00
         21   -1    0    0  503  501  0.00000000000E+00  0.00000000000E+00  0.20220447429E+02  0.20220447429E+02  0.00000000000E+00 0. -1.
         21   -1    0    0  504  502 -0.00000000000E+00 -0.00000000000E+00 -0.39177988175E+03  0.39177988175E+03  0.00000000000E+00 0. -1.
         21    1    1    2  503  502  0.18635392686E+02  0.15293265174E+02 -0.38407980046E+03  0.38483562068E+03  0.00000000000E+00 0. -1.
         21    1    1    2  504  501 -0.18635392686E+02 -0.15293265174E+02  0.12520366133E+02  0.27164708508E+02  0.00000000000E+00 0. -1.
</event>
<event>
 4    1  0.3069799E+006  0.2799962E+02  0.7546771E-02  0.1437817E+00
         21   -1    0    0  504  501  0.00000000000E+00  0.00000000000E+00  0.10128071522E+03  0.10128071522E+03  0.00000000000E+00 0.  1.
         21   -1    0    0  503  502 -0.00000000000E+00 -0.00000000000E+00 -0.16356804781E+02  0.16356804781E+02  0.00000000000E+00 0. -1.
         21    1    1    2  503  501 -0.18425445893E+02  0.21082738343E+02 -0.22776315757E+00  0.28000549788E+02  0.00000000000E+00 0. -1.
         21    1    1    2  504  502  0.18425445893E+02 -0.21082738343E+02  0.85151673592E+02  0.89636970208E+02  0.00000000000E+00 0.  1.
</event>
<event>
 4    1  0.3069799E+006  0.2310986E+02  0.7546771E-02  0.1491123E+00
         21   -1    0    0  503  501  0.00000000000E+00  0.00000000000E+00  0.20576328911E+01  0.20576328911E+01  0.00000000000E+00 0. -1.
         21   -1    0    0  501  502 -0.00000000000E+00 -0.00000000000E+00 -0.26540037511E+03  0.26540037511E+03  0.00000000000E+00 0. -1.
         21    1    1    2  503  504 -0.26598169089E+01 -0.22956284468E+02 -0.11182229528E+03  0.11418533770E+03  0.00000000000E+00 0. -1.
         21    1    1    2  504  502  0.26598169089E+01  0.22956284468E+02 -0.15152044693E+03  0.15327267030E+03  0.00000000000E+00 0. -1.
</event>
<event>
 4    1  0.3069799E+006  0.2135922E+02  0.7546771E-02  0.1514197E+00
         21   -1    0    0  504  501  0.00000000000E+00  0.00000000000E+00  0.57817765398E+01  0.57817765398E+01  0.00000000000E+00 0.  1.
         21   -1    0    0  503  502 -0.00000000000E+00 -0.00000000000E+00 -0.90207878498E+02  0.90207878498E+02  0.00000000000E+00 0.  1.
         21    1    1    2  503  501 -0.13121132706E+01 -0.21318883373E+02 -0.59201312853E+02  0.62936570235E+02  0.00000000000E+00 0.  1.
         21    1    1    2  504  502  0.13121132706E+01  0.21318883373E+02 -0.25224789106E+02  0.33053084802E+02  0.00000000000E+00 0.  1.
</event>
<event>
 4    1  0.3069799E+006  0.4339383E+02  0.7546771E-02  0.1329669E+00
         21   -1    0    0  503  501  0.00000000000E+00  0.00000000000E+00  0.60318722777E+03  0.60318722777E+03  0.00000000000E+00 0.  1.
         21   -1    0    0  501  502 -0.00000000000E+00 -0.00000000000E+00 -0.54936378129E+03  0.54936378129E+03  0.00000000000E+00 0.  1.
         21    1    1    2  503  504  0.10460777027E+01  0.43381222989E+02  0.60154753555E+03  0.60311065512E+03  0.00000000000E+00 0.  1.
         21    1    1    2  504  502 -0.10460777027E+01 -0.43381222989E+02 -0.54772408908E+03  0.54944035394E+03  0.00000000000E+00 0.  1.
</event>
<event>
 4    1  0.3069799E+006  0.2072319E+02  0.7546771E-02  0.1523254E+00
         21   -1    0    0  503  501  0.00000000000E+00  0.00000000000E+00  0.34532561400E+01  0.34532561400E+01  0.00000000000E+00 0. -1.
         21   -1    0    0  504  502 -0.00000000000E+00 -0.00000000000E+00 -0.27241926471E+03  0.27241926471E+03  0.00000000000E+00 0.  1.
         21    1    1    2  503  502  0.63879590911E+01  0.19714067655E+02 -0.32793571385E+02  0.38792638593E+02  0.00000000000E+00 0. -1.
         21    1    1    2  504  501 -0.63879590911E+01 -0.19714067655E+02 -0.23617243718E+03  0.23707988225E+03  0.00000000000E+00 0.  1.
</event>
<event>
 4    1  0.3069799E+006  0.2060686E+02  0.7546771E-02  0.1524952E+00
         21   -1    0    0  503  501  0.00000000000E+00  0.00000000000E+00  0.38271560215E+02  0.38271560215E+02  0.00000000000E+00 0. -1.
         21   -1    0    0  504  502 -0.00000000000E+00 -0.00000000000E+00 -0.14715987765E+02  0.14715987765E+02  0.00000000000E+00 0. -1.
         21    1    1    2  503  502 -0.18865080332E+02 -0.82916565051E+01 -0.13633077368E+01  0.20651911086E+02  0.00000000000E+00 0. -1.
         21    1    1    2  504  501  0.18865080332E+02  0.82916565051E+01  0.24918880187E+02  0.32335636893E+02  0.00000000000E+00 0. -1.
</event>
<event>
 4    1  0.3069799E+006  0.2205825E+02  0.7546771E-02  0.1504675E+00
         21   -1    0    0  503  501  0.00000000000E+00  0.00000000000E+00  0.43348844305E+00  0.43348844305E+00  0.00000000000E+00 0. -1.
         21   -1    0    0  504  502 -0.00000000000E+00 -0.00000000000E+00 -0.11235806582E+04  0.11235806582E+04  0.00000000000E+00 0. -1.
         21    1    1    2  503  502 -0.26426905346E+01  0.21899376852E+02 -0.54369855560E+03  0.54414583145E+03  0.00000000000E+00 0. -1.
         21    1    1    2  504  501  0.26426905346E+01 -0.21899376852E+02 -0.57944861417E+03  0.57986831521E+03  0.00000000000E+00 0. -1.
</event>
<event>
 4    1  0.3069799E+006  0.2223194E+02  0.7546771E-02  0.1502375E+00
         21   -1    0    0  504  501  0.00000000000E+00  0.00000000000E+00  0.35323293810E+02  0.35323293810E+02  0.00000000000E+00 0. -1.
         21   -1    0    0  501  502 -0.00000000000E+00 -0.00000000000E+00 -0.31525485623E+03  0.31525485623E+03  0.00000000000E+00 0.  1.
         21    1    1    2  503  502 -0.20792067013E+02  0.78707772516E+01 -0.31132064332E+03  0.31211344434E+03  0.00000000000E+00 0.  1.
         21    1    1    2  504  503  0.20792067013E+02 -0.78707772516E+01  0.31389080894E+02  0.38464705700E+02  0.00000000000E+00 0. -1.
</event>
<event>
 4    1  0.3069799E+006  0.2007229E+02  0.7546771E-02  0.1532934E+00
         21   -1    0    0  503  501  0.00000000000E+00  0.00000000000E+00  0.92655124786E+03  0.92655124786E+03  0.00000000000E+00 0.  1.
         21   -1    0    0  501  502 -0.00000000000E+00 -0.00000000000E+00 -0.81522827279E+00  0.81522827279E+00  0.00000000000E+00 0.  1.
         21    1    1    2  503  504  0.18641168181E+02  0.74433617784E+01  0.77960462535E+03  0.77986298069E+03  0.00000000000E+00 0.  1.
         21    1    1    2  504  502 -0.18641168181E+02 -0.74433617784E+01  0.14613139424E+03  0.14750349544E+03  0.00000000000E+00 0.  1.
</event>
<event>
 4    1  0.3069799E+006  0.2753721E+02  0.7546771E-02  0.1442285E+00
         21   -1    0    0  504  501  0.00000000000E+00  0.00000000000E+00  0.14575551624E+03  0.14575551624E+03  0.00000000000E+00 0. -1.
         21   -1    0    0  501  502 -0.00000000000E+00 -0.00000000000E+00 -0.26104145445E+02  0.26104145445E+02  0.00000000000E+00 0. -1.
         21    1    1    2  503  502 -0.37173162396E+01  0.27285149428E+02 -0.17065953294E+02  0.32396675465E+02  0.00000000000E+00 0. -1.
         21    1    1    2  504  503  0.37173162396E+01 -0.27285149428E+02  0.13671732409E+03  0.13946298622E+03  0.00000000000E+00 0. -1.
</event>
<event>
 4    1  0.3069799E+006  0.2340104E+02  0.7546771E-02  0.1487523E+00
         21   -1    0    0  503  501  0.00000000000E+00  0.00000000000E+00  0.38026685030E+01  0.38026685030E+01  0.00000000000E+00 0.  1.
         21   -1    0    0  504  502 -0.00000000000E+00 -0.00000000000E+00 -0.23343197582E+03  0.23343197582E+03  0.00000000000E+00 0.  1.
         21    1    1    2  503  502 -0.10945221175E+02  0.20683589786E+02 -0.41397301337E+02  0.47553604605E+02  0.00000000000E+00 0.  1.
         21    1    1    2  504  501  0.10945221175E+02 -0.20683589786E+02 -0.18823200598E+03  0.18968103972E+03  0.00000000000E+00 0.  1.
</event>
<event>
 4    1  0.3069799E+006  0.2004690E+02  0.7546771E-02  0.1533320E+00
         21   -1    0    0  504  501  0.00000000000E+00  0.00000000000E+00  0.80742269668E+02  0.80742269668E+02  0.00000000000E+00 0. -1.
         21   -1    0    0  503  502 -0.00000000000E+00 -0.00000000000E+00 -0.24294614039E+02  0.24294614039E+02  0.00000000000E+00 0. -1.
         21    1    1    2  503  501 -0.19445017692E+02 -0.48753871636E+01  0.75054485231E+02  0.77685609132E+02  0.00000000000E+00 0. -1.
         21    1    1    2  504  502  0.19445017692E+02  0.48753871636E+01 -0.18606829602E+02  0.27351274575E+02  0.00000000000E+00 0. -1.
</event>
<event>
 4    1  0.3069799E+006  0.2049720E+02  0.7546771E-02  0.1526566E+00
         21   -1    0    0  504  501  0.00000000000E+00  0.00000000000E+00  0.54536006497E+01  0.54536006497E+01  0.00000000000E+00 0. -1.
         21   -1    0    0  501  502 -0.00000000000E+00 -0.00000000000E+00 -0.92120501450E+02  0.92120501450E+02  0.00000000000E+00 0.  1.
         21    1    1    2  503  502 -0.90805339068E+01 -0.18376052636E+02 -0.63074065515E+02  0.66320985722E+02  0.00000000000E+00 0.  1.
         21    1    1    2  504  503  0.90805339068E+01  0.18376052636E+02 -0.23592835285E+02  0.31253116377E+02  0.00000000000E+00 0. -1.
</event>
<event>
 4    1  0.3069799E+006  0.7722549E+02  0.7546771E-02  0.1210439E+00
         21   -1    0    0  504  501  0.00000000000E+00  0.00000000000E+00  0.26824115240E+02  0.26824115240E+02  0.00000000000E+00 0. -1.
         21   -1    0    0  503  502 -0.00000000000E+00 -0.00000000000E+00 -0.23702792378E+03  0.23702792378E+03  0.00000000000E+00 0. -1.
         21    1    1    2  503  501  0.36435401572E+02 -0.68089929778E+02 -0.13795485662E+03  0.15809908125E+03  0.00000000000E+00 0. -1.
         21    1    1    2  504  502 -0.36435401572E+02  0.68089929778E+02 -0.72248951918E+02  0.10575295777E+03  0.00000000000E+00 0. -1.
</event>
<event>
 4    1  0.3069799E+006  0.2025332E+02  0.7546771E-02  0.1530198E+00
         21   -1    0    0  504  501  0.00000000000E+00  0.00000000000E+00  0.23585703348E+03  0.23585703348E+03  0.00000000000E+00 0. -1.
         21   -1    0    0  503  502 -0.00000000000E+00 -0.00000000000E+00 -0.16508621813E+02  0.16508621813E+02  0.00000000000E+00 0. -1.
         21    1    1    2  503  501  0.20217100423E+02  0.12106459080E+01  0.22902545006E+03  0.22991923274E+03  0.00000000000E+00 0. -1.
         21    1    1    2  504  502 -0.20217100423E+02 -0.12106459080E+01 -0.96770383920E+01  0.22446422545E+02  0.00000000000E+00 0. -1.
</event>
<event>
 4    1  0.3069799E+006  0.2194728E+02  0.7546771E-02  0.1506158E+00
         21   -1    0    0  504  501  0.00000000000E+00  0.00000000000E+00  0.58179715481E+03  0.58179715481E+03  0.00000000000E+00 0.  1.
         21   -1    0    0  503  502 -0.00000000000E+00 -0.00000000000E+00 -0.51795942578E+01  0.51795942578E+01  0.00000000000E+00 0.  1.
         21    1    1    2  503  501 -0.21801282569E+02 -0.25273247521E+01  0.19297142562E+02  0.29224356334E+02  0.00000000000E+00 0.  1.
         21    1    1    2  504  502  0.21801282569E+02  0.25273247521E+01  0.55732041799E+03  0.55775239273E+03  0.00000000000E+00 0.  1.
</event>
<event>
 4    1  0.3069799E+006  0.2545733E+02  0.7546771E-02  0.1463752E+00
         21   -1    0    0  504  501  0.00000000000E+00  0.00000000000E+00  0.21845216638E+03  0.21845216638E+03  0.00000000000E+00 0.  1.
         21   -1    0    0  503  502 -0.00000000000E+00 -0.00000000000E+00 -0.12196406237E+03  0.12196406237E+03  0.00000000000E+00 0. -1.
         21    1    1    2  503  501 -0.21782352134E+02 -0.13175915287E+02  0.21636933994E+03  0.21786180683E+03  0.00000000000E+00 0.  1.
         21    1    1    2  504  502  0.21782352134E+02  0.13175915287E+02 -0.11988123592E+03  0.12255442193E+03  0.00000000000E+00 0. -1.
</event>
<event>
 4    1  0.3069799E+006  0.2423823E+02  0.7546771E-02  0.1477509E+00
         21   -1    0    0  502  501  0.00000000000E+00  0.00000000000E+00  0.11604994251E+03  0.11604994251E+03  0.00000000000E+00 0. -1.
         21   -1    0    0  503  502 -0.00000000000E+00 -0.00000000000E+00 -0.89781993444E+02  0.89781993444E+02  0.00000000000E+00 0. -1.
         21    1    1    2  503  504 -0.20604889044E+02 -0.12764413759E+02 -0.86838412551E+02  0.90157648624E+02  0.00000000000E+00 0. -1.
         21    1    1    2  504  501  0.20604889044E+02  0.12764413759E+02  0.11310636162E+03  0.11567428733E+03  0.00000000000E+00 0. -1.
</event>
<event>
 4    1  0.3069799E+006  0.2573211E+02  0.7546771E-02  0.1460778E+00
         21   -1    0    0  503  501  0.00000000000E+00  0.00000000000E+00  0.16713328880E+01  0.16713328880E+01  0.00000000000E+00 0.  1.
         21   -1    0    0  504  502 -0.00000000000E+00 -0.00000000000E+00 -0.43158747626E+03  0.43158747626E+03  0.00000000000E+00 0.  1.
         21    1    1    2  503  502  0.19442290223E+02 -0.16856413797E+02 -0.15290584585E+03  0.15505592226E+03  0.00000000000E+00 0.  1.
         21    1    1    2  504  501 -0.19442290223E+02  0.16856413797E+02 -0.27701029753E+03  0.27820288688E+03  0.00000000000E+00 0.  1.
</event>
<event>
 4    1  0.3069799E+006  0.5075131E+02  0.7546771E-02  0.1294947E+00
         21   -1    0    0  504  501  0.00000000000E+00  0.00000000000E+00  0.22784439422E+03  0.22784439422E+03  0.00000000000E+00 0. -1.
         21   -1    0    0  501  502 -0.00000000000E+00 -0.00000000000E+00 -0.14079534719E+02  0.14079534719E+02  0.00000000000E+00 0. -1.
         21    1    1    2  503  502  0.38151340501E+02  0.33468946717E+02  0.53181822392E+02  0.73511913384E+02  0.00000000000E+00 0. -1.
         21    1    1    2  504  503 -0.38151340501E+02 -0.33468946717E+02  0.16058303710E+03  0.16841201555E+03  0.00000000000E+00 0. -1.
</event>
<event>
 4    1  0.3069799E+006  0.2005628E+02  0.7546771E-02  0.1533177E+00
         21   -1    0    0  504  501  0.00000000000E+00  0.00000000000E+00  0.73730410467E+01  0.73730410467E+01  0.00000000000E+00 0. -1.
         21   -1    0    0  501  502 -0.00000000000E+00 -0.00000000000E+00 -0.56795212084E+02  0.56795212084E+02  0.00000000000E+00 0. -1.
         21    1    1    2  503  502 -0.45900975990E+01  0.19523965309E+02 -0.31079666001E+02  0.36989185664E+02  0.00000000000E+00 0. -1.
         21    1    1    2  504  503  0.45900975990E+01 -0.19523965309E+02 -0.18342505036E+02  0.27179067467E+02  0.00000000000E+00 0. -1.
</event>
<event>
 4    1  0.3069799E+006  0.2437433E+02  0.7546771E-02  0.1475926E+00
         21   -1    0    0  504  501  0.00000000000E+00  0.00000000000E+00  0.33535239794E+01  0.33535239794E+01  0.00000000000E+00 0. -1.
         21   -1    0    0  503  502 -0.00000000000E+00 -0.00000000000E+00 -0.17803483147E+03  0.17803483147E+03  0.00000000000E+00 0. -1.
         21    1    1    2  503  501 -0.21209638181E+02  0.12010801401E+02 -0.80980723575E+02  0.84569413459E+02  0.00000000000E+00 0. -1.
         21    1    1    2  504  502  0.21209638181E+02 -0.12010801401E+02 -0.93700583916E+02  0.96818941991E+02  0.00000000000E+00 0. -1.
</event>
<event>
 4    1  0.3069799E+006  0.2739283E+02  0.7546771E-02  0.1443701E+00
         21   -1    0    0  502  501  0.00000000000E+00  0.00000000000E+00  0.56481460185E+02  0.56481460185E+02  0.00000000000E+00 0.  1.
         21   -1    0    0  504  502 -0.00000000000E+00 -0.00000000000E+00 -0.21096220719E+02  0.21096220719E+02  0.00000000000E+00 0. -1.
         21    1    1    2  503  501 -0.27069723925E+02 -0.41948930346E+01  0.41295150116E+02  0.49554581061E+02  0.00000000000E+00 0.  1.
         21    1    1    2  504  503  0.27069723925E+02  0.41948930346E+01 -0.59099106501E+01  0.28023099844E+02  0.00000000000E+00 0. -1.
</event>
<event>
 4    1  0.3069799E+006  0.2585565E+02  0.7546771E-02  0.1459455E+00
         21   -1    0    0  503  501  0.00000000000E+00  0.00000000000E+00  0.14779738190E+02  0.14779738190E+02  0.00000000000E+00 0.  1.
         21   -1    0    0  504  502 -0.00000000000E+00 -0.00000000000E+00 -0.76388740776E+02  0.76388740776E+02  0.00000000000E+00 0.  1.
         21    1    1    2  503  502 -0.19478260879E+02  0.17003292697E+02 -0.59916849114E+02  0.65257516174E+02  0.00000000000E+00 0.  1.
         21    1    1    2  504  501  0.19478260879E+02 -0.17003292697E+02 -0.16921534718E+01  0.25910962791E+02  0.00000000000E+00 0.  1.
</event>
<event>
 4    1  0.3069799E+006  0.2279806E+02  0.7546771E-02  0.1495050E+00
         21   -1    0    0  503  501  0.00000000000E+00  0.00000000000E+00  0.39683663234E+02  0.39683663234E+02  0.00000000000E+00 0.  1.
         21   -1    0    0  501  502 -0.00000000000E+00 -0.00000000000E+00 -0.45386891243E+03  0.45386891243E+03  0.00000000000E+00 0.  1.
         21    1    1    2  503  504  0.45647042015E+01 -0.22336402711E+02  0.36096967798E+02  0.42693588450E+02  0.00000000000E+00 0.  1.
         21    1    1    2  504  502 -0.45647042015E+01  0.22336402711E+02 -0.45028221700E+03  0.45085898722E+03  0.00000000000E+00 0.  1.
</event>
<event>
 4    1  0.3069799E+006  0.2962253E+02  0.7546771E-02  0.1422905E+00
         21   -1    0    0  503  501  0.00000000000E+00  0.00000000000E+00  0.49519401257E+03  0.49519401257E+03  0.00000000000E+00 0. -1.
         21   -1    0    0  504  502 -0.00000000000E+00 -0.00000000000E+00 -0.28170966809E+01  0.28170966809E+01  0.00000000000E+00 0. -1.
         21    1    1    2  503  502  0.24392171218E+02  0.16808223390E+02  0.39785226230E+03  0.39895352738E+03  0.00000000000E+00 0. -1.
         21    1    1    2  504  501 -0.24392171218E+02 -0.16808223390E+02  0.94524653586E+02  0.99057581869E+02  0.00000000000E+00 0. -1.
</event>
<event>
 4    1  0.3069799E+006  0.2400146E+02  0.7546771E-02  0.1480292E+00
         21   -1    0    0  502  501  0.00000000000E+00  0.00000000000E+00  0.14226872062E+02  0.14226872062E+02  0.00000000000E+00 0.  1.
         21   -1    0    0  503  502 -0.00000000000E+00 -0.00000000000E+00 -0.63687918966E+02  0.63687918966E+02  0.00000000000E+00 0.  1.
         21    1    1    2  503  504  0.12883822049E+02  0.20250365189E+02 -0.48241465680E+02  0.53882364201E+02  0.00000000000E+00 0.  1.
         21    1    1    2  504  501 -0.12883822049E+02 -0.20250365189E+02 -0.12195812232E+01  0.24032426827E+02  0.00000000000E+00 0.  1.
</event>
<event>
 4    1  0.3069799E+006  0.2208936E+02  0.7546771E-02  0.1504261E+00
         21   -1    0    0  504  501  0.00000000000E+00  0.00000000000E+00  0.53238517513E+01  0.53238517513E+01  0.00000000000E+00 0. -1.
         21   -1    0    0  503  502 -0.00000000000E+00 -0.00000000000E+00 -0.19461202686E+03  0.19461202686E+03  0.00000000000E+00 0. -1.
         21    1    1    2  503  501 -0.10988066442E+02 -0.19162520900E+02 -0.16735690254E+03  0.16880839031E+03  0.00000000000E+00 0. -1.
         21    1    1    2  504  502  0.10988066442E+02  0.19162520900E+02 -0.21931272565E+02  0.31127488297E+02  0.00000000000E+00 0. -1.
</event>
<event>
 4    1  0.3069799E+006  0.2622231E+02  0.7546771E-02  0.1455581E+00
         21   -1    0    0  502  501  0.00000000000E+00  0.00000000000E+00  0.47864830479E+03  0.47864830479E+03  0.00000000000E+00 0. -1.
         21   -1    0    0  504  502 -0.00000000000E+00 -0.00000000000E+00 -0.41333549590E+01  0.41333549590E+01  0.00000000000E+00 0.  1.
         21    1    1    2  503  501 -0.20746352927E+02  0.16037399322E+02  0.43223878705E+03  0.43303346103E+03  0.00000000000E+00 0. -1.
         21    1    1    2  504  503  0.20746352927E+02 -0.16037399322E+02  0.42276162781E+02  0.49748198724E+02  0.00000000000E+00 0.  1.
</event>
<event>
 4    1  0.3069799E+006  0.3056923E+02  0.7546771E-02  0.1414713E+00
         21   -1    0    0  504  501  0.00000000000E+00  0.00000000000E+00  0.29278056269E+03  0.29278056269E+03  0.00000000000E+00 0. -1.
         21   -1    0    0  501  502 -0.00000000000E+00 -0.00000000000E+00 -0.26289607661E+02  0.26289607661E+02  0.00000000000E+00 0. -1.
         21    1    1    2  503  502  0.30531710955E+02 -0.15139904670E+01 -0.16292038148E+02  0.34639688913E+02  0.00000000000E+00 0. -1.
         21    1    1    2  504  503 -0.30531710955E+02  0.15139904670E+01  0.28278299318E+03  0.28443048144E+03  0.00000000000E+00 0. -1.
</event>
<event>
 4    1  0.3069799E+006  0.3370889E+02  0.7546771E-02  0.1389874E+00
         21   -1    0    0  503  501  0.00000000000E+00  0.00000000000E+00  0.69318701051E+02  0.69318701051E+02  0.00000000000E+00 0. -1.
         21   -1    0    0  501  502 -0.00000000000E+00 -0.00000000000E+00 -0.10679362797E+03  0.10679362797E+03  0.00000000000E+00 0. -1.
         21    1    1    2  503  504  0.14769606593E+02 -0.30300956254E+02  0.62279251279E+02  0.70816624945E+02  0.00000000000E+00 0. -1.
         21    1    1    2  504  502 -0.14769606593E+02  0.30300956254E+02 -0.99754178202E+02  0.10529570408E+03  0.00000000000E+00 0. -1.
</event>
<event>
 4    1  0.3069799E+006  0.4727021E+02  0.7546771E-02  0.1310462E+00
         21   -1    0    0  503  501  0.00000000000E+00  0.00000000000E+00  0.80247925452E+02  0.80247925452E+02  0.00000000000E+00 0.  1.
         21   -1    0    0  504  502 -0.00000000000E+00 -0.00000000000E+00 -0.14432480008E+03  0.14432480008E+03  0.00000000000E+00 0. -1.
         21    1    1    2  503  502  0.15879234476E+02  0.44523280799E+02 -0.13291320724E+03  0.14106875373E+03  0.00000000000E+00 0. -1.
         21    1    1    2  504  501 -0.15879234476E+02 -0.44523280799E+02  0.68836332606E+02  0.83503971805E+02  0.00000000000E+00 0.  1.
</event>
<event>
 4    1  0.3069799E+006  0.2402483E+02  0.7546771E-02  0.1480015E+00
         21   -1    0    0  503  501  0.00000000000E+00  0.00000000000E+00  0.11177153354E+04  0.11177153354E+04  0.00000000000E+00 0.  1.
         21   -1    0    0  504  502 -0.00000000000E+00 -0.00000000000E+00 -0.69652689035E+01  0.69652689035E+01  0.00000000000E+00 0.  1.
         21    1    1    2  503  502  0.22611707163E+02 -0.81180855180E+01  0.10964680230E+04  0.10967311968E+04  0.00000000000E+00 0.  1.
         21    1    1    2  504  501 -0.22611707163E+02  0.81180855180E+01  0.14282043533E+02  0.27949407521E+02  0.00000000000E+00 0.  1.
</event>
<event>
 4    1  0.3069799E+006  0.2043950E+02  0.7546771E-02  0.1527420E+00
         21   -1    0    0  502  501  0.00000000000E+00  0.00000000000E+00  0.19118017586E+03  0.19118017586E+03  0.00000000000E+00 0. -1.
         21   -1    0    0  504  502 -0.00000000000E+00 -0.00000000000E+00 -0.63553837355E+01  0.63553837355E+01  0.00000000000E+00 0. -1.
         21    1    1    2  503  501  0.12082515595E+02  0.16485934491E+02  0.17241797675E+03  0.17362526293E+03  0.00000000000E+00 0. -1.
         21    1    1    2  504  503 -0.12082515595E+02 -0.16485934491E+02  0.12406815375E+02  0.23910296671E+02  0.00000000000E+00 0. -1.
</event>
<event>
 4    1  0.3069799E+006  0.2615138E+02  0.7546771E-02  0.1456324E+00
         21   -1    0    0  503  501  0.00000000000E+00  0.00000000000E+00  0.80435873793E+01  0.80435873793E+01  0.00000000000E+00 0. -1.
         21   -1    0    0  504  502 -0.00000000000E+00 -0.00000000000E+00 -0.69890248547E+03  0.69890248547E+03  0.00000000000E+00 0.  1.
         21    1    1    2  503  502  0.16172438075E+01  0.26101328592E+02 -0.14153930244E+02  0.29735981119E+02  0.00000000000E+00 0. -1.
         21    1    1    2  504  501 -0.16172438075E+01 -0.26101328592E+02 -0.67670496784E+03  0.67721009173E+03  0.00000000000E+00 0.  1.
</event>
<event>
 4    1  0.3069799E+006  0.4139057E+02  0.7546771E-02  0.1340524E+00
         21   -1    0    0  503  501  0.00000000000E+00  0.00000000000E+00  0.40833606587E+02  0.40833606587E+02  0.00000000000E+00 0.  1.
         21   -1    0    0  504  502 -0.00000000000E+00 -0.00000000000E+00 -0.45230025965E+02  0.45230025965E+02  0.00000000000E+00 0.  1.
         21    1    1    2  503  502 -0.33671709650E+02  0.24070637080E+02 -0.13777301057E+02  0.43623315149E+02  0.00000000000E+00 0.  1.
         21    1    1    2  504  501  0.33671709650E+02 -0.24070637080E+02  0.93808816793E+01  0.42440317403E+02  0.00000000000E+00 0.  1.
</event>
<event>
 4    1  0.3069799E+006  0.2204759E+02  0.7546771E-02  0.1504817E+00
         21   -1    0    0  503  501  0.00000000000E+00  0.00000000000E+00  0.21646121237E+02  0.21646121237E+02  0.00000000000E+00 0. -1.
         21   -1    0    0  501  502 -0.00000000000E+00 -0.00000000000E+00 -0.55327086464E+02  0.55327086464E+02  0.00000000000E+00 0.  1.
         21    1    1    2  503  504 -0.55689031469E+01  0.21332689751E+02  0.12824517246E+02  0.25506167428E+02  0.00000000000E+00 0. -1.
         21    1    1    2  504  502  0.55689031469E+01 -0.21332689751E+02 -0.46505482474E+02  0.51467040272E+02  0.00000000000E+00 0.  1.
</event>
<event>
 4    1  0.3069799E+006  0.3248200E+02  0.7546771E-02  0.1399186E+00
         21   -1    0    0  503  501  0.00000000000E+00  0.00000000000E+00  0.14906861728E+02  0.14906861728E+02  0.00000000000E+00 0. -1.
         21   -1    0    0  504  502 -0.00000000000E+00 -0.00000000000E+00 -0.12124388569E+03  0.12124388569E+03  0.00000000000E+00 0. -1.
         21    1    1    2  503  502 -0.29748992532E+02  0.13041384469E+02 -0.92489129805E+01  0.33773105525E+02  0.00000000000E+00 0. -1.
         21    1    1    2  504  501  0.29748992532E+02 -0.13041384469E+02 -0.97088110983E+02  0.10237764189E+03  0.00000000000E+00 0. -1.
</event>
<event>
 4    1  0.3069799E+006  0.2412931E+02  0.7546771E-02  0.1478784E+00
         21   -1    0    0  503  501  0.00000000000E+00  0.00000000000E+00  0.27876568421E+02  0.27876568421E+02  0.00000000000E+00 0. -1.
         21   -1    0    0  504  502 -0.00000000000E+00 -0.00000000000E+00 -0.21080235881E+02  0.21080235881E+02  0.00000000000E+00 0. -1.
         21    1    1    2  503  502  0.19181067905E+02 -0.14639346561E+02  0.57491928292E+01  0.24804778812E+02  0.00000000000E+00 0. -1.
         21    1    1    2  504  501 -0.19181067905E+02  0.14639346561E+02  0.10471397109E+01  0.24152025491E+02  0.00000000000E+00 0. -1.
</event>
<event>
 4    1  0.3069799E+006  0.2547447E+02  0.7546771E-02  0.1463565E+00
         21   -1    0    0  503  501  0.00000000000E+00  0.00000000000E+00  0.24158471884E+02  0.24158471884E+02  0.00000000000E+00 0. -1.
         21   -1    0    0  501  502 -0.00000000000E+00 -0.00000000000E+00 -0.49226620887E+02  0.49226620887E+02  0.00000000000E+00 0. -1.
         21    1    1    2  503  504  0.90267399233E+01 -0.23821560087E+02  0.12197800769E+02  0.28244204754E+02  0.00000000000E+00 0. -1.
         21    1    1    2  504  502 -0.90267399233E+01  0.23821560087E+02 -0.37265949772E+02  0.45140888017E+02  0.00000000000E+00 0. -1.
</event>
<event>
 4    1  0.3069799E+006  0.3250976E+02  0.7546771E-02  0.1398970E+00
         21   -1    0    0  504  501  0.00000000000E+00  0.00000000000E+00  0.15441031631E+03  0.15441031631E+03  0.00000000000E+00 0. -1.
         21   -1    0    0  501  502 -0.00000000000E+00 -0.00000000000E+00 -0.60741208727E+02  0.60741208727E+02  0.00000000000E+00 0.  1.
         21    1    1    2  503  502 -0.22960079370E+02 -0.23015631768E+02 -0.54498991425E+02  0.63458841911E+02  0.00000000000E+00 0.  1.
         21    1    1    2  504  503  0.22960079370E+02  0.23015631768E+02  0.14816809900E+03  0.15169268312E+03  0.00000000000E+00 0. -1.
</event>
<event>
 4    1  0.3069799E+006  0.2267234E+02  0.7546771E-02  0.1496654E+00
         21   -1    0    0  504  501  0.00000000000E+00  0.00000000000E+00  0.55615745080E+00  0.55615745080E+00  0.00000000000E+00 0. -1.
         21   -1    0    0  503  502 -0.00000000000E+00 -0.00000000000E+00 -0.10961881420E+04  0.10961881420E+04  0.00000000000E+00 0. -1.
         21    1    1    2  503  501 -0.22231749029E+02 -0.44479394297E+01 -0.76498839403E+03  0.76532429586E+03  0.00000000000E+00 0. -1.
         21    1    1    2  504  502  0.22231749029E+02  0.44479394297E+01 -0.33064359057E+03  0.33142000364E+03  0.00000000000E+00 0. -1.
</event>
<event>
 4    1  0.3069799E+006  0.2315468E+02  0.7546771E-02  0.1490565E+00
         21   -1    0    0  504  501  0.00000000000E+00  0.00000000000E+00  0.22693050387E+03  0.22693050387E+03  0.00000000000E+00 0.  1.
         21   -1    0    0  503  502 -0.00000000000E+00 -0.00000000000E+00 -0.10841333124E+02  0.10841333124E+02  0.00000000000E+00 0.  1.
         21    1    1    2  503  501  0.23075582933E+02 -0.19122899644E+01  0.29076524289E+01  0.23336534088E+02  0.00000000000E+00 0.  1.
         21    1    1    2  504  502 -0.23075582933E+02  0.19122899644E+01  0.21318151832E+03  0.21443530291E+03  0.00000000000E+00 0.  1.
</event>
<event>
 4    1  0.3069799E+006  0.2025686E+02  0.7546771E-02  0.1530145E+00
         21   -1    0    0  502  501  0.00000000000E+00  0.00000000000E+00  0.86323462698E+01  0.86323462698E+01  0.00000000000E+00 0. -1.
         21   -1    0    0  504  502 -0.00000000000E+00 -0.00000000000E+00 -0.63570360513E+02  0.63570360513E+02  0.00000000000E+00 0. -1.
         21    1    1    2  503  501  0.12993259599E+02  0.15540775964E+02 -0.93375595494E+01  0.22305392418E+02  0.00000000000E+00 0. -1.
         21    1    1    2  504  503 -0.12993259599E+02 -0.15540775964E+02 -0.45600454693E+02  0.49897314365E+02  0.00000000000E+00 0. -1.
</event>
<event>
 4    1  0.3069799E+006  0.2064193E+02  0.7546771E-02  0.1524439E+00
         21   -1    0    0  504  501  0.00000000000E+00  0.00000000000E+00  0.39276111511E+02  0.39276111511E+02  0.00000000000E+00 0.  1.
         21   -1    0    0  503  502 -0.00000000000E+00 -0.00000000000E+00 -0.15803496137E+02  0.15803496137E+02  0.00000000000E+00 0.  1.
         21    1    1    2  503  501  0.16111855521E+02 -0.12903384174E+02  0.27156980804E+02  0.34111447021E+02  0.00000000000E+00 0.  1.
         21    1    1    2  504  502 -0.16111855521E+02  0.12903384174E+02 -0.36843654309E+01  0.20968160627E+02  0.00000000000E+00 0.  1.
</event>
<event>
 4    1  0.3069799E+006  0.3581827E+02  0.7546771E-02  0.1374900E+00
         21   -1    0    0  503  501  0.00000000000E+00  0.00000000000E+00  0.10321740142E+03  0.10321740142E+03  0.00000000000E+00 0. -1.
         21   -1    0    0  504  502 -0.00000000000E+00 -0.00000000000E+00 -0.51297687059E+02  0.51297687059E+02  0.00000000000E+00 0. -1.
         21    1    1    2  503  502 -0.15722321177E+02 -0.32183177590E+02 -0.41289592914E+02  0.54660577988E+02  0.00000000000E+00 0. -1.
         21    1    1    2  504  501  0.15722321177E+02  0.32183177590E+02  0.93209307277E+02  0.99854510494E+02  0.00000000000E+00 0. -1.
</event>
<event>
 4    1  0.3069799E+006  0.2163409E+02  0.7546771E-02  0.1510401E+00
         21   -1    0    0  503  501  0.00000000000E+00  0.00000000000E+00  0.10894581297E+02  0.10894581297E+02  0.00000000000E+00 0.  1.
         21   -1    0    0  501  502 -0.00000000000E+00 -0.00000000000E+00 -0.46080494329E+02  0.46080494329E+02  0.00000000000E+00 0.  1.
         21    1    1    2  503  504  0.17463950980E+02  0.12768877533E+02 -0.10180000717E+02  0.23909542695E+02  0.00000000000E+00 0.  1.
         21    1    1    2  504  502 -0.17463950980E+02 -0.12768877533E+02 -0.25005912316E+02  0.33065532931E+02  0.00000000000E+00 0.  1.
</event>
<event>
 4    1  0.3069799E+006  0.2619900E+02  0.7546771E-02  0.1455825E+00
         21   -1    0    0  503  501  0.00000000000E+00  0.00000000000E+00  0.98797434732E+01  0.98797434732E+01  0.00000000000E+00 0.  1.
         21   -1    0    0  501  502 -0.00000000000E+00 -0.00000000000E+00 -0.16510178858E+03  0.16510178858E+03  0.00000000000E+00 0. -1.
         21    1    1    2  503  504 -0.57373508191E+01  0.25563068262E+02 -0.11025801638E+02  0.28424566050E+02  0.00000000000E+00 0.  1.
         21    1    1    2  504  502  0.57373508191E+01 -0.25563068262E+02 -0.14419624347E+03  0.14655696600E+03  0.00000000000E+00 0. -1.
</event>
<event>
 4    1  0.3069799E+006  0.2303693E+02  0.7546771E-02  0.1492035E+00
         21   -1    0    0  503  501  0.00000000000E+00  0.00000000000E+00  0.15755764241E+02  0.15755764241E+02  0.00000000000E+00 0.  1.
         21   -1    0    0  504  502 -0.00000000000E+00 -0.00000000000E+00 -0.75963503991E+02  0.75963503991E+02  0.00000000000E+00 0.  1.
         21    1    1    2  503  502 -0.15330576274E+02 -0.17195166175E+02  0.41097106598E+01  0.23400641666E+02  0.00000000000E+00 0.  1.
         21    1    1    2  504  501  0.15330576274E+02  0.17195166175E+02 -0.64317450410E+02  0.68318626566E+02  0.00000000000E+00 0.  1.
</event>
<event>
 4    1  0.3069799E+006  0.5482274E+02  0.7546771E-02  0.1278516E+00
         21   -1    0    0  503  501  0.00000000000E+00  0.00000000000E+00  0.30311656522E+02  0.30311656522E+02  0.00000000000E+00 0. -1.
         21   -1    0    0  504  502 -0.00000000000E+00 -0.00000000000E+00 -0.11556924748E+03  0.11556924748E+03  0.00000000000E+00 0. -1.
         21    1    1    2  503  502 -0.53474422108E+02  0.12083839425E+02 -0.15139334610E+02  0.56874708328E+02  0.00000000000E+00 0. -1.
         21    1    1    2  504  501  0.53474422108E+02 -0.12083839425E+02 -0.70118256351E+02  0.89006195676E+02  0.00000000000E+00 0. -1.
</event>
<event>
 4    1  0.3069799E+006  0.2401190E+02  0.7546771E-02  0.1480168E+00
         21   -1    0    0  503  501  0.00000000000E+00  0.00000000000E+00  0.22943467620E+01  0.22943467620E+01  0.00000000000E+00 0. -1.
         21   -1    0    0  501  502 -0.00000000000E+00 -0.00000000000E+00 -0.57703162455E+03  0.57703162455E+03  0.00000000000E+00 0. -1.
         21    1    1    2  503  504  0.23155534514E+02  0.63555141949E+01 -0.69736727126E+02  0.73754880852E+02  0.00000000000E+00 0. -1.
         21    1    1    2  504  502 -0.23155534514E+02 -0.63555141949E+01 -0.50500055067E+03  0.50557109046E+03  0.00000000000E+00 0. -1.
</event>
<event>
 4    1  0.3069799E+006  0.2722969E+02  0.7546771E-02  0.1445314E+00
         21   -1    0    0  503  501  0.00000000000E+00  0.00000000000E+00  0.22282662359E+03  0.22282662359E+03  0.00000000000E+00 0.  1.
         21   -1    0    0  504  502 -0.00000000000E+00 -0.00000000000E+00 -0.33283585504E+01  0.33283585504E+01  0.00000000000E+00 0.  1.
         21    1    1    2  503  502 -0.15161659881E+02  0.22618134660E+02  0.10793470462E+03  0.11131646962E+03  0.00000000000E+00 0.  1.
         21    1    1    2  504  501  0.15161659881E+02 -0.22618134660E+02  0.11156356042E+03  0.11483851253E+03  0.00000000000E+00 0.  1.
</event>
<event>
 4    1  0.3069799E+006  0.2061109E+02  0.7546771E-02  0.1524890E+00
         21   -1    0    0  502  501  0.00000000000E+00  0.00000000000E+00  0.49159463297E+01  0.49159463297E+01  0.00000000000E+00 0. -1.
         21   -1    0    0  503  502 -0.00000000000E+00 -0.00000000000E+00 -0.10592023449E+03  0.10592023449E+03  0.00000000000E+00 0. -1.
         21    1    1    2  503  504  0.18327457772E+02  0.94298176430E+01 -0.74282855554E+02  0.77089297561E+02  0.00000000000E+00 0. -1.
         21    1    1    2  504  501 -0.18327457772E+02 -0.94298176430E+01 -0.26721432608E+02  0.33746883260E+02  0.00000000000E+00 0. -1.
</event>
<event>
 4    1  0.3069799E+006  0.2136366E+02  0.7546771E-02  0.1514136E+00
         21   -1    0    0  502  501  0.00000000000E+00  0.00000000000E+00  0.86203545999E+02  0.86203545999E+02  0.00000000000E+00 0.  1.
         21   -1    0    0  503  502 -0.00000000000E+00 -0.00000000000E+00 -0.55998492029E+02  0.55998492029E+02  0.00000000000E+00 0. -1.
         21    1    1    2  503  504  0.21292062776E+02 -0.17475639735E+01 -0.52553840111E+02  0.56730168583E+02  0.00000000000E+00 0. -1.
         21    1    1    2  504  501 -0.21292062776E+02  0.17475639735E+01  0.82758894081E+02  0.85471869446E+02  0.00000000000E+00 0.  1.
</event>
<event>
 4    1  0.3069799E+006  0.3294206E+02  0.7546771E-02  0.1395638E+00
         21   -1    0    0  502  501  0.00000000000E+00  0.00000000000E+00  0.22508284576E+02  0.22508284576E+02  0.00000000000E+00 0.  1.
         21   -1    0    0  503  502 -0.00000000000E+00 -0.00000000000E+00 -0.87668048992E+02  0.87668048992E+02  0.00000000000E+00 0. -1.
         21    1    1    2  503  504  0.29350496302E+02 -0.14957536248E+02 -0.69536479283E+02  0.76944794982E+02  0.00000000000E+00 0. -1.
         21    1    1    2  504  501 -0.29350496302E+02  0.14957536248E+02  0.43767148665E+01  0.33231538586E+02  0.00000000000E+00 0.  1.
</event>
<event>
 4    1  0.3069799E+006  0.2077991E+02  0.7546771E-02  0.1522430E+00
         21   -1    0    0  503  501  0.00000000000E+00  0.00000000000E+00  0.91378194920E+02  0.91378194920E+02  0.00000000000E+00 0.  1.
         21   -1    0    0  501  502 -0.00000000000E+00 -0.00000000000E+00 -0.23439509367E+02  0.23439509367E+02  0.00000000000E+00 0. -1.
         21    1    1    2  503  504  0.19648648354E+02 -0.67627940897E+01  0.85265920727E+02  0.87761506387E+02  0.00000000000E+00 0.  1.
         21    1    1    2  504  502 -0.19648648354E+02  0.67627940897E+01 -0.17327235174E+02  0.27056197900E+02  0.00000000000E+00 0. -1.
</event>
<event>
 4    1  0.3069799E+006  0.2235347E+02  0.7546771E-02  0.1500780E+00
         21   -1    0    0  504  501  0.00000000000E+00  0.00000000000E+00  0.20962289153E+02  0.20962289153E+02  0.00000000000E+00 0. -1.
         21   -1    0    0  503  502 -0.00000000000E+00 -0.00000000000E+00 -0.28248934798E+02  0.28248934798E+02  0.00000000000E+00 0. -1.
         21    1    1    2  503  501 -0.19918807887E+02  0.10144886657E+02  0.60807620512E+01  0.23165778641E+02  0.00000000000E+00 0. -1.
         21    1    1    2  504  502  0.19918807887E+02 -0.10144886657E+02 -0.13367407696E+02  0.26045445311E+02  0.00000000000E+00 0. -1.
</event>
<event>
 4    1  0.3069799E+006  0.2740803E+02  0.7546771E-02  0.1443552E+00
         21   -1    0    0  504  501  0.00000000000E+00  0.00000000000E+00  0.51718644671E+02  0.51718644671E+02  0.00000000000E+00 0.  1.
         21   -1    0    0  503  502 -0.00000000000E+00 -0.00000000000E+00 -0.20061419714E+02  0.20061419714E+02  0.00000000000E+00 0.  1.
         21    1    1    2  503  501 -0.22832139724E+02 -0.15162239920E+02 -0.30259961358E+01  0.27574567564E+02  0.00000000000E+00 0.  1.
         21    1    1    2  504  502  0.22832139724E+02  0.15162239920E+02  0.34683221093E+02  0.44205496821E+02  0.00000000000E+00 0.  1.
</event>
<event>
 4    1  0.3069799E+006  0.3528212E+02  0.7546771E-02  0.1378591E+00
         21   -1    0    0  503  501  0.00000000000E+00  0.00000000000E+00  0.83999987280E+02  0.83999987280E+02  0.00000000000E+00 0. -1.
         21   -1    0    0  504  502 -0.00000000000E+00 -0.00000000000E+00 -0.19676849439E+02  0.19676849439E+02  0.00000000000E+00 0. -1.
         21    1    1    2  503  502  0.32136401834E+02 -0.14562958786E+02  0.64055457032E+01  0.35858877662E+02  0.00000000000E+00 0. -1.
         21    1    1    2  504  501 -0.32136401834E+02  0.14562958786E+02  0.57917592139E+02  0.67817959056E+02  0.00000000000E+00 0. -1.
</event>
<event>
 4    1  0.3069799E+006  0.2238503E+02  0.7546771E-02  0.1500368E+00
         21   -1    0    0  504  501  0.00000000000E+00  0.00000000000E+00  0.80087483495E+01  0.80087483495E+01  0.00000000000E+00 0. -1.
         21   -1    0    0  503  502 -0.00000000000E+00 -0.00000000000E+00 -0.62673267048E+02  0.62673267048E+02  0.00000000000E+00 0. -1.
         21    1    1    2  503  501 -0.76836622384E+01 -0.21025005196E+02 -0.25882279432E+02  0.34219612760E+02  0.00000000000E+00 0. -1.
         21    1    1    2  504  502  0.76836622384E+01  0.21025005196E+02 -0.28782239267E+02  0.36462402637E+02  0.00000000000E+00 0. -1.
</event>
<event>
 4    1  0.3069799E+006  0.3797719E+02  0.7546771E-02  0.1360765E+00
         21   -1    0    0  503  501  0.00000000000E+00  0.00000000000E+00  0.15172268730E+04  0.15172268730E+04  0.00000000000E+00 0.  1.
         21   -1    0    0  501  502 -0.00000000000E+00 -0.00000000000E+00 -0.18562058208E+01  0.18562058208E+01  0.00000000000E+00 0. -1.
         21    1    1    2  503  504 -0.20167327977E+02 -0.32179901694E+02  0.12882147128E+04  0.12887743843E+04  0.00000000000E+00 0.  1.
         21    1    1    2  504  502  0.20167327977E+02  0.32179901694E+02  0.22715595434E+03  0.23030869454E+03  0.00000000000E+00 0. -1.
</event>
<event>
 4    1  0.3069799E+006  0.3389684E+02  0.7546771E-02  0.1388489E+00
         21   -1    0    0  503  501  0.00000000000E+00  0.00000000000E+00  0.97137972113E+02  0.97137972113E+02  0.00000000000E+00 0. -1.
         21   -1    0    0  504  502 -0.00000000000E+00 -0.00000000000E+00 -0.12278045071E+02  0.12278045071E+02  0.00000000000E+00 0. -1.
         21    1    1    2  503  502 -0.12308635091E+02  0.31583116607E+02  0.52898275286E+02  0.62826931173E+02  0.00000000000E+00 0. -1.
         21    1    1    2  504  501  0.12308635091E+02 -0.31583116607E+02  0.31961651756E+02  0.46589086012E+02  0.00000000000E+00 0. -1.
</event>
<event>
 4    1  0.3069799E+006  0.2034166E+02  0.7546771E-02  0.1528875E+00
         21   -1    0    0  504  501  0.00000000000E+00  0.00000000000E+00  0.19049486161E+02  0.19049486161E+02  0.00000000000E+00 0.  1.
         21   -1    0    0  503  502 -0.00000000000E+00 -0.00000000000E+00 -0.18674428844E+03  0.18674428844E+03  0.00000000000E+00 0.  1.
         21    1    1    2  503  501  0.18304980088E+02 -0.88719069995E+01 -0.18057503416E+03  0.18171715932E+03  0.00000000000E+00 0.  1.
         21    1    1    2  504  502 -0.18304980088E+02  0.88719069995E+01  0.12880231884E+02  0.24076615277E+02  0.00000000000E+00 0.  1.
</event>
<event>
 4    1  0.3069799E+006  0.2853178E+02  0.7546771E-02  0.1432800E+00
         21   -1    0    0  504  501  0.00000000000E+00  0.00000000000E+00  0.33086234341E+03  0.33086234341E+03  0.00000000000E+00 0.  1.
         21   -1    0    0  503  502 -0.00000000000E+00 -0.00000000000E+00 -0.29163093565E+01  0.29163093565E+01  0.00000000000E+00 0.  1.
         21    1    1    2  503  501 -0.20397491295E+02 -0.19950053433E+02  0.97989011373E+02  0.10205835896E+03  0.00000000000E+00 0.  1.
         21    1    1    2  504  502  0.20397491295E+02  0.19950053433E+02  0.22995702268E+03  0.23172029381E+03  0.00000000000E+00 0.  1.
</event>
<event>
 4    1  0.3069799E+006  0.2448182E+02  0.7546771E-02  0.1474684E+00
         21   -1    0    0  502  501  0.00000000000E+00  0.00000000000E+00  0.31469918770E+03  0.31469918770E+03  0.00000000000E+00 0. -1.
         21   -1    0    0  504  502 -0.00000000000E+00 -0.00000000000E+00 -0.33730926931E+03  0.33730926931E+03  0.00000000000E+00 0.  1.
         21    1    1    2  503  501 -0.17638974181E+02  0.16977220297E+02  0.31377752711E+03  0.31473114867E+03  0.00000000000E+00 0. -1.
         21    1    1    2  504  503  0.17638974181E+02 -0.16977220297E+02 -0.33638760872E+03  0.33727730834E+03  0.00000000000E+00 0.  1.
</event>
<event>
 4    1  0.3069799E+006  0.2285243E+02  0.7546771E-02  0.1494360E+00
         21   -1    0    0  504  501  0.00000000000E+00  0.00000000000E+00  0.25981476917E+02  0.25981476917E+02  0.00000000000E+00 0.  1.
         21   -1    0    0  501  502 -0.00000000000E+00 -0.00000000000E+00 -0.30279657892E+02  0.30279657892E+02  0.00000000000E+00 0.  1.
         21    1    1    2  503  502 -0.22835649950E+02 -0.87552073144E+00 -0.18459500297E+02  0.29376633510E+02  0.00000000000E+00 0.  1.
         21    1    1    2  504  503  0.22835649950E+02  0.87552073144E+00  0.14161319322E+02  0.26884501299E+02  0.00000000000E+00 0.  1.
</event>
<event>
 4    1  0.3069799E+006  0.3062738E+02  0.7546771E-02  0.1414221E+00
         21   -1    0    0  503  501  0.00000000000E+00  0.00000000000E+00  0.10115882031E+03  0.10115882031E+03  0.00000000000E+00 0. -1.
         21   -1    0    0  504  502 -0.00000000000E+00 -0.00000000000E+00 -0.38031644402E+02  0.38031644402E+02  0.00000000000E+00 0.  1.
         21    1    1    2  503  502 -0.28183377773E+02 -0.11988903523E+02  0.92082599447E+02  0.97042473749E+02  0.00000000000E+00 0. -1.
         21    1    1    2  504  501  0.28183377773E+02  0.11988903523E+02 -0.28955423536E+02  0.42147990966E+02  0.00000000000E+00 0.  1.
</event>
<event>
 4    1  0.3069799E+006  0.5950946E+02  0.7546771E-02  0.1261508E+00
         21   -1    0    0  503  501  0.00000000000E+00  0.00000000000E+00  0.78776430514E+03  0.78776430514E+03  0.00000000000E+00 0. -1.
         21   -1    0    0  504  502 -0.00000000000E+00 -0.00000000000E+00 -0.37065209634E+02  0.37065209634E+02  0.00000000000E+00 0.  1.
         21    1    1    2  503  502 -0.50783293788E+01 -0.59292385251E+02  0.76194617694E+03  0.76426654573E+03  0.00000000000E+00 0. -1.
         21    1    1    2  504  501  0.50783293788E+01  0.59292385251E+02 -0.11247081433E+02  0.60562969039E+02  0.00000000000E+00 0.  1.
</event>
<event>
 4    1  0.3069799E+006  0.2181591E+02  0.7546771E-02  0.1507927E+00
         21   -1    0    0  502  501  0.00000000000E+00  0.00000000000E+00  0.29360743341E+02  0.29360743341E+02  0.00000000000E+00 0. -1.
         21   -1    0    0  503  502 -0.00000000000E+00 -0.00000000000E+00 -0.59689070872E+02  0.59689070872E+02  0.00000000000E+00 0.  1.
         21    1    1    2  503  504 -0.20559036246E+02  0.72979358209E+01 -0.53165283040E+02  0.57467218127E+02  0.00000000000E+00 0.  1.
         21    1    1    2  504  501  0.20559036246E+02 -0.72979358209E+01  0.22836955508E+02  0.31582596086E+02  0.00000000000E+00 0. -1.
</event>
<event>
 4    1  0.3069799E+006  0.2232164E+02  0.7546771E-02  0.1501197E+00
         21   -1    0    0  504  501  0.00000000000E+00  0.00000000000E+00  0.25130094067E+03  0.25130094067E+03  0.00000000000E+00 0. -1.
         21   -1    0    0  503  502 -0.00000000000E+00 -0.00000000000E+00 -0.46280134823E+02  0.46280134823E+02  0.00000000000E+00 0.  1.
         21    1    1    2  503  501  0.86442142776E+01 -0.20579917546E+02  0.24807885827E+03  0.24908106184E+03  0.00000000000E+00 0. -1.
         21    1    1    2  504  502 -0.86442142776E+01  0.20579917546E+02 -0.43058052419E+02  0.48500013658E+02  0.00000000000E+00 0.  1.
</event>
<event>
 4    1  0.3069799E+006  0.2073347E+02  0.7546771E-02  0.1523105E+00
         21   -1    0    0  503  501  0.00000000000E+00  0.00000000000E+00  0.23264968193E+02  0.23264968193E+02  0.00000000000E+00 0.  1.
         21   -1    0    0  504  502 -0.00000000000E+00 -0.00000000000E+00 -0.69821809625E+02  0.69821809625E+02  0.00000000000E+00 0. -1.
         21    1    1    2  503  502 -0.20076315800E+02 -0.51786272794E+01 -0.63190921544E+02  0.66505407315E+02  0.00000000000E+00 0. -1.
         21    1    1    2  504  501  0.20076315800E+02  0.51786272794E+01  0.16634080112E+02  0.26581370502E+02  0.00000000000E+00 0.  1.
</event>
<event>
 4    1  0.3069799E+006  0.2177170E+02  0.7546771E-02  0.1508526E+00
         21   -1    0    0  502  501  0.00000000000E+00  0.00000000000E+00  0.13123439273E+03  0.13123439273E+03  0.00000000000E+00 0. -1.
         21   -1    0    0  504  502 -0.00000000000E+00 -0.00000000000E+00 -0.28092071077E+02  0.28092071077E+02  0.00000000000E+00 0. -1.
         21    1    1    2  503  501  0.14116148827E+02  0.16575315454E+02  0.12593694861E+03  0.12780501463E+03  0.00000000000E+00 0. -1.
         21    1    1    2  504  503 -0.14116148827E+02 -0.16575315454E+02 -0.22794626956E+02  0.31521449176E+02  0.00000000000E+00 0. -1.
</event>
<event>
 4    1  0.3069799E+006  0.2222165E+02  0.7546771E-02  0.1502510E+00
         21   -1    0    0  502  501  0.00000000000E+00  0.00000000000E+00  0.16936161978E+03  0.16936161978E+03  0.00000000000E+00 0. -1.
         21   -1    0    0  504  502 -0.00000000000E+00 -0.00000000000E+00 -0.29378010715E+01  0.29378010715E+01  0.00000000000E+00 0. -1.
         21    1    1    2  503  501  0.11470836611E+02  0.19032125037E+02  0.90689909017E+02  0.93372701972E+02  0.00000000000E+00 0. -1.
         21    1    1    2  504  503 -0.11470836611E+02 -0.19032125037E+02  0.75733909693E+02  0.78926718881E+02  0.00000000000E+00 0. -1.
</event>
<event>
 4    1  0.3069799E+006  0.2157486E+02  0.7546771E-02  0.1511213E+00
         21   -1    0    0  503  501  0.00000000000E+00  0.00000000000E+00  0.89675787088E+01  0.89675787088E+01  0.00000000000E+00 0.  1.
         21   -1    0    0  504  502 -0.00000000000E+00 -0.00000000000E+00 -0.13389970673E+03  0.13389970673E+03  0.00000000000E+00 0. -1.
         21    1    1    2  503  502 -0.17801193662E+01 -0.21501298680E+02 -0.65673003910E+01  0.22552252755E+02  0.00000000000E+00 0.  1.
         21    1    1    2  504  501  0.17801193662E+01  0.21501298680E+02 -0.11836482763E+03  0.12031503268E+03  0.00000000000E+00 0. -1.
</event>
<event>
 4    1  0.3069799E+006  0.3693069E+02  0.7546771E-02  0.1367475E+00
         21   -1    0    0  503  501  0.00000000000E+00  0.00000000000E+00  0.23733612071E+03  0.23733612071E+03  0.00000000000E+00 0.  1.
         21   -1    0    0  504  502 -0.00000000000E+00 -0.00000000000E+00 -0.57816815405E+01  0.57816815405E+01  0.00000000000E+00 0. -1.
         21    1    1    2  503  502 -0.25322990098E+02 -0.26881630886E+02  0.10630841922E+03  0.11254046341E+03  0.00000000000E+00 0. -1.
         21    1    1    2  504  501  0.25322990098E+02  0.26881630886E+02  0.12524601995E+03  0.13057733884E+03  0.00000000000E+00 0.  1.
</event>
<event>
 4    1  0.3069799E+006  0.4218314E+02  0.7546771E-02  0.1336147E+00
         21   -1    0    0  502  501  0.00000000000E+00  0.00000000000E+00  0.89716439496E+01  0.89716439496E+01  0.00000000000E+00 0.  1.
         21   -1    0    0  503  502 -0.00000000000E+00 -0.00000000000E+00 -0.21611011768E+03  0.21611011768E+03  0.00000000000E+00 0.  1.
         21    1    1    2  503  504  0.49490037968E+00  0.42180236955E+02 -0.13584252161E+03  0.14224137229E+03  0.00000000000E+00 0.  1.
         21    1    1    2  504  501 -0.49490037968E+00 -0.42180236955E+02 -0.71295952129E+02  0.82840389339E+02  0.00000000000E+00 0.  1.
</event>
<event>
 4    1  0.3069799E+006  0.2007549E+02  0.7546771E-02  0.1532885E+00
         21   -1    0    0  503  501  0.00000000000E+00  0.00000000000E+00  0.19341963715E+02  0.19341963715E+02  0.00000000000E+00 0. -1.
         21   -1    0    0  504  502 -0.00000000000E+00 -0.00000000000E+00 -0.58377282657E+02  0.58377282657E+02  0.00000000000E+00 0.  1.
         21    1    1    2  503  502  0.18055055233E+02  0.87772646400E+01 -0.50679732758E+02  0.54511106267E+02  0.00000000000E+00 0.  1.
         21    1    1    2  504  501 -0.18055055233E+02 -0.87772646400E+01  0.11644413816E+02  0.23208140105E+02  0.00000000000E+00 0. -1.
</event>
<event>
 4    1  0.3069799E+006  0.3090380E+02  0.7546771E-02  0.1411901E+00
         21   -1    0    0  504  501  0.00000000000E+00  0.00000000000E+00  0.19366961744E+02  0.19366961744E+02  0.00000000000E+00 0. -1.
         21   -1    0    0  501  502 -0.00000000000E+00 -0.00000000000E+00 -0.13750128286E+03  0.13750128286E+03  0.00000000000E+00 0. -1.
         21    1    1    2  503  502  0.28031011306E+02 -0.13011806183E+02 -0.12188122442E+03  0.12573813090E+03  0.00000000000E+00 0. -1.
         21    1    1    2  504  503 -0.28031011306E+02  0.13011806183E+02  0.37469033053E+01  0.31130113706E+02  0.00000000000E+00 0. -1.
</event>
<event>
 4    1  0.3069799E+006  0.2096030E+02  0.7546771E-02  0.1519832E+00
         21   -1    0    0  502  501  0.00000000000E+00  0.00000000000E+00  0.32193763296E+02  0.32193763296E+02  0.00000000000E+00 0.  1.
         21   -1    0    0  503  502 -0.00000000000E+00 -0.00000000000E+00 -0.90268516497E+02  0.90268516497E+02  0.00000000000E+00 0.  1.
         21    1    1    2  503  504 -0.20369134290E+02 -0.49429472089E+01 -0.85450583642E+02  0.87983729198E+02  0.00000000000E+00 0.  1.
         21    1    1    2  504  501  0.20369134290E+02  0.49429472089E+01  0.27375830441E+02  0.34478550595E+02  0.00000000000E+00 0.  1.
</event>
<event>
 4    1  0.3069799E+006  0.2067857E+02  0.7546771E-02  0.1523904E+00
         21   -1    0    0  504  501  0.00000000000E+00  0.00000000000E+00  0.64626499422E+02  0.64626499422E+02  0.00000000000E+00 0. -1.
         21   -1    0    0  501  502 -0.00000000000E+00 -0.00000000000E+00 -0.85370539829E+01  0.85370539829E+01  0.00000000000E+00 0. -1.
         21    1    1    2  503  502  0.19109279587E+02 -0.79018071336E+01  0.10693873513E+02  0.23280078458E+02  0.00000000000E+00 0. -1.
         21    1    1    2  504  503 -0.19109279587E+02  0.79018071336E+01  0.45395571927E+02  0.49883474948E+02  0.00000000000E+00 0. -1.
</event>
<event>
 4    1  0.3069799E+006  0.2342925E+02  0.7546771E-02  0.1487177E+00
         21   -1    0    0  504  501  0.00000000000E+00  0.00000000000E+00  0.14746226557E+03  0.14746226557E+03  0.00000000000E+00 0. -1.
         21   -1    0    0  503  502 -0.00000000000E+00 -0.00000000000E+00 -0.77683943851E+01  0.77683943851E+01  0.00000000000E+00 0.  1.
         21    1    1    2  503  501 -0.22309130716E+02 -0.71576877340E+01  0.13833966795E+02  0.27208609745E+02  0.00000000000E+00 0.  1.
         21    1    1    2  504  502  0.22309130716E+02  0.71576877340E+01  0.12585990439E+03  0.12802205021E+03  0.00000000000E+00 0. -1.
</event>
<event>
 4    1  0.3069799E+006  0.2858948E+02  0.7546771E-02  0.1432263E+00
         21   -1    0    0  504  501  0.00000000000E+00  0.00000000000E+00  0.14922432301E+03  0.14922432301E+03  0.00000000000E+00 0.  1.
         21   -1    0    0  503  502 -0.00000000000E+00 -0.00000000000E+00 -0.88549941976E+01  0.88549941976E+01  0.00000000000E+00 0. -1.
         21    1    1    2  503  501 -0.26178457453E+02 -0.11491161379E+02  0.11899995646E+03  0.12238606156E+03  0.00000000000E+00 0.  1.
         21    1    1    2  504  502  0.26178457453E+02  0.11491161379E+02  0.21369372345E+02  0.35693255649E+02  0.00000000000E+00 0. -1.
</event>
<event>
 4    1  0.3069799E+006  0.2379181E+02  0.7546771E-02  0.1482788E+00
         21   -1    0    0  504  501  0.00000000000E+00  0.00000000000E+00  0.31345693396E+01  0.31345693396E+01  0.00000000000E+00 0.  1.
         21   -1    0    0  503  502 -0.00000000000E+00 -0.00000000000E+00 -0.49868224603E+03  0.49868224603E+03  0.00000000000E+00 0.  1.
         21    1    1    2  503  501  0.22962598742E+02 -0.62265023463E+01 -0.47379933804E+02  0.53018000714E+02  0.00000000000E+00 0.  1.
         21    1    1    2  504  502 -0.22962598742E+02  0.62265023463E+01 -0.44816774289E+03  0.44879881466E+03  0.00000000000E+00 0.  1.
</event>
<event>
 4    1  0.3069799E+006  0.3630403E+02  0.7546771E-02  0.1371620E+00
         21   -1    0    0  503  501  0.00000000000E+00  0.00000000000E+00  0.26050423973E+03  0.26050423973E+03  0.00000000000E+00 0. -1.
         21   -1    0    0  504  502 -0.00000000000E+00 -0.00000000000E+00 -0.17871964912E+02  0.17871964912E+02  0.00000000000E+00 0.  1.
         21    1    1    2  503  502 -0.30470034027E+02 -0.19737261201E+02  0.34647152831E+01  0.36468982784E+02  0.00000000000E+00 0.  1.
         21    1    1    2  504  501  0.30470034027E+02  0.19737261201E+02  0.23916755954E+03  0.24190722186E+03  0.00000000000E+00 0. -1.
</event>
<event>
 4    1  0.3069799E+006  0.2802097E+02  0.7546771E-02  0.1437613E+00
         21   -1    0    0  503  501  0.00000000000E+00  0.00000000000E+00  0.22146839109E+02  0.22146839109E+02  0.00000000000E+00 0. -1.
         21   -1    0    0  504  502 -0.00000000000E+00 -0.00000000000E+00 -0.48363704142E+02  0.48363704142E+02  0.00000000000E+00 0. -1.
         21    1    1    2  503  502 -0.49703748874E+01  0.27576627078E+02  0.51068913342E+01  0.28482544244E+02  0.00000000000E+00 0. -1.
         21    1    1    2  504  501  0.49703748874E+01 -0.27576627078E+02 -0.31323756367E+02  0.42027999006E+02  0.00000000000E+00 0. -1.
</event>
<event>
 4    1  0.3069799E+006  0.2122508E+02  0.7546771E-02  0.1516075E+00
         21   -1    0    0  504  501  0.00000000000E+00  0.00000000000E+00  0.18747168751E+03  0.18747168751E+03  0.00000000000E+00 0. -1.
         21   -1    0    0  501  502 -0.00000000000E+00 -0.00000000000E+00 -0.17248156814E+02  0.17248156814E+02  0.00000000000E+00 0.  1.
         21    1    1    2  503  502 -0.16064173736E+02  0.13872506745E+02 -0.98503198377E+01  0.23399421406E+02  0.00000000000E+00 0.  1.
         21    1    1    2  504  503  0.16064173736E+02 -0.13872506745E+02  0.18007385054E+03  0.18132042292E+03  0.00000000000E+00 0. -1.
</event>
<event>
 4    1  0.3069799E+006  0.2637255E+02  0.7546771E-02  0.1454015E+00
         21   -1    0    0  503  501  0.00000000000E+00  0.00000000000E+00  0.23540574046E+02  0.23540574046E+02  0.00000000000E+00 0.  1.
         21   -1    0    0  504  502 -0.00000000000E+00 -0.00000000000E+00 -0.99988029527E+02  0.99988029527E+02  0.00000000000E+00 0.  1.
         21    1    1    2  503  502  0.24095918937E+02  0.10719049875E+02  0.13618287919E+02  0.29681123724E+02  0.00000000000E+00 0.  1.
         21    1    1    2  504  501 -0.24095918937E+02 -0.10719049875E+02 -0.90065743400E+02  0.93847479848E+02  0.00000000000E+00 0.  1.
</event>
<event>
 4    1  0.3069799E+006  0.2448874E+02  0.7546771E-02  0.1474605E+00
         21   -1    0    0  503  501  0.00000000000E+00  0.00000000000E+00  0.29280416551E+02  0.29280416551E+02  0.00000000000E+00 0. -1.
         21   -1    0    0  504  502 -0.00000000000E+00 -0.00000000000E+00 -0.76616556882E+02  0.76616556882E+02  0.00000000000E+00 0. -1.
         21    1    1    2  503  502  0.45819437959E+01  0.24056274432E+02 -0.68990211136E+02  0.73207566419E+02  0.00000000000E+00 0. -1.
         21    1    1    2  504  501 -0.45819437959E+01 -0.24056274432E+02  0.21654070805E+02  0.32689407014E+02  0.00000000000E+00 0. -1.
</event>
<event>
 4    1  0.3069799E+006  0.3007073E+02  0.7546771E-02  0.1418983E+00
         21   -1    0    0  503  501  0.00000000000E+00  0.00000000000E+00  0.83934531765E+02  0.83934531765E+02  0.00000000000E+00 0. -1.
         21   -1    0    0  501  502 -0.00000000000E+00 -0.00000000000E+00 -0.11648460867E+02  0.11648460867E+02  0.00000000000E+00 0. -1.
         21    1    1    2  503  504 -0.29658167326E+02  0.49640508840E+01  0.49242989199E+02  0.57698532698E+02  0.00000000000E+00 0. -1.
         21    1    1    2  504  502  0.29658167326E+02 -0.49640508840E+01  0.23043081698E+02  0.37884459934E+02  0.00000000000E+00 0. -1.
</event>
<event>
 4    1  0.3069799E+006  0.3867104E+02  0.7546771E-02  0.1356454E+00
         21   -1    0    0  503  501  0.00000000000E+00  0.00000000000E+00  0.13792287541E+02  0.13792287541E+02  0.00000000000E+00 0.  1.
         21   -1    0    0  504  502 -0.00000000000E+00 -0.00000000000E+00 -0.65899522939E+03  0.65899522939E+03  0.00000000000E+00 0. -1.
         21    1    1    2  503  502  0.36618814889E+02  0.12430268054E+02 -0.15124514913E+02  0.41523488764E+02  0.00000000000E+00 0.  1.
         21    1    1    2  504  501 -0.36618814889E+02 -0.12430268054E+02 -0.63007842694E+03  0.63126402817E+03  0.00000000000E+00 0. -1.
</event>
<event>
 4    1  0.3069799E+006  0.2512317E+02  0.7546771E-02  0.1467430E+00
         21   -1    0    0  503  501  0.00000000000E+00  0.00000000000E+00  0.42330333129E+01  0.42330333129E+01  0.00000000000E+00 0.  1.
         21   -1    0    0  501  502 -0.00000000000E+00 -0.00000000000E+00 -0.17190971499E+03  0.17190971499E+03  0.00000000000E+00 0.  1.
         21    1    1    2  503  504 -0.19211762763E+02 -0.16188937403E+02 -0.51762286810E+02  0.57537012944E+02  0.00000000000E+00 0.  1.
         21    1    1    2  504  502  0.19211762763E+02  0.16188937403E+02 -0.11591439486E+03  0.11860573536E+03  0.00000000000E+00 0.  1.
</event>
<event>
 4    1  0.3069799E+006  0.2885797E+02  0.7546771E-02  0.1429787E+00
         21   -1    0    0  502  501  0.00000000000E+00  0.00000000000E+00  0.67841023138E+01  0.67841023138E+01  0.00000000000E+00 0. -1.
         21   -1    0    0  503  502 -0.00000000000E+00 -0.00000000000E+00 -0.13694599990E+03  0.13694599990E+03  0.00000000000E+00 0.  1.
         21    1    1    2  503  504  0.27486438182E+02 -0.87908130712E+01 -0.88214862595E+02  0.92815110090E+02  0.00000000000E+00 0.  1.
         21    1    1    2  504  501 -0.27486438182E+02  0.87908130712E+01 -0.41947034991E+02  0.50914992124E+02  0.00000000000E+00 0. -1.
</event>
<event>
 4    1  0.3069799E+006  0.2614587E+02  0.7546771E-02  0.1456382E+00
         21   -1    0    0  502  501  0.00000000000E+00  0.00000000000E+00  0.10065999041E+03  0.10065999041E+03  0.00000000000E+00 0.  1.
         21   -1    0    0  503  502 -0.00000000000E+00 -0.00000000000E+00 -0.26708957861E+02  0.26708957861E+02  0.00000000000E+00 0.  1.
         21    1    1    2  503  504  0.13925420602E+01  0.26108762224E+02 -0.18019689473E+02  0.31753989465E+02  0.00000000000E+00 0.  1.
         21    1    1    2  504  501 -0.13925420602E+01 -0.26108762224E+02  0.91970722024E+02  0.95614958808E+02  0.00000000000E+00 0.  1.
</event>
<event>
 4    1  0.3069799E+006  0.2357847E+02  0.7546771E-02  0.1485359E+00
         21   -1    0    0  504  501  0.00000000000E+00  0.00000000000E+00  0.19359511956E+01  0.19359511956E+01  0.00000000000E+00 0.  1.
         21   -1    0    0  503  502 -0.00000000000E+00 -0.00000000000E+00 -0.48890401167E+03  0.48890401167E+03  0.00000000000E+00 0.  1.
         21    1    1    2  503  501 -0.18026338756E+02  0.15198538985E+02 -0.85835784466E+02  0.89015315374E+02  0.00000000000E+00 0.  1.
         21    1    1    2  504  502  0.18026338756E+02 -0.15198538985E+02 -0.40113227601E+03  0.40182464750E+03  0.00000000000E+00 0.  1.
</event>
<event>
 4    1  0.3069799E+006  0.2158458E+02  0.7546771E-02  0.1511080E+00
         21   -1    0    0  503  501  0.00000000000E+00  0.00000000000E+00  0.33515867267E+03  0.33515867267E+03  0.00000000000E+00 0. -1.
         21   -1    0    0  501  502 -0.00000000000E+00 -0.00000000000E+00 -0.35987572921E+01  0.35987572921E+01  0.00000000000E+00 0.  1.
         21    1    1    2  503  504  0.13689473364E+02 -0.16688096269E+02  0.29847344437E+03  0.29925288843E+03  0.00000000000E+00 0. -1.
         21    1    1    2  504  502 -0.13689473364E+02  0.16688096269E+02  0.33086471005E+02  0.39504541531E+02  0.00000000000E+00 0.  1.
</event>
<event>
 4    1  0.3069799E+006  0.2679320E+02  0.7546771E-02  0.1449697E+00
         21   -1    0    0  502  501  0.00000000000E+00  0.00000000000E+00  0.10008360351E+03  0.10008360351E+03  0.00000000000E+00 0. -1.
         21   -1    0    0  503  502 -0.00000000000E+00 -0.00000000000E+00 -0.13230349593E+03  0.13230349593E+03  0.00000000000E+00 0. -1.
         21    1    1    2  503  504 -0.20206211518E+02 -0.17595021353E+02 -0.12910992382E+03  0.13186071511E+03  0.00000000000E+00 0. -1.
         21    1    1    2  504  501  0.20206211518E+02  0.17595021353E+02  0.96890031406E+02  0.10052638433E+03  0.00000000000E+00 0. -1.
</event>
<event>
 4    1  0.3069799E+006  0.2408966E+02  0.7546771E-02  0.1479250E+00
         21   -1    0    0  504  501  0.00000000000E+00  0.00000000000E+00  0.15410422293E+03  0.15410422293E+03  0.00000000000E+00 0.  1.
         21   -1    0    0  503  502 -0.00000000000E+00 -0.00000000000E+00 -0.31167310171E+03  0.31167310171E+03  0.00000000000E+00 0.  1.
         21    1    1    2  503  501  0.21546630571E+02 -0.10772854709E+02 -0.31026191784E+03  0.31119570908E+03  0.00000000000E+00 0.  1.
         21    1    1    2  504  502 -0.21546630571E+02  0.10772854709E+02  0.15269303906E+03  0.15458161555E+03  0.00000000000E+00 0.  1.
</event>
<event>
 4    1  0.3069799E+006  0.2703208E+02  0.7546771E-02  0.1447286E+00
         21   -1    0    0  503  501  0.00000000000E+00  0.00000000000E+00  0.13411114091E+02  0.13411114091E+02  0.00000000000E+00 0.  1.
         21   -1    0    0  504  502 -0.00000000000E+00 -0.00000000000E+00 -0.32029365978E+03  0.32029365978E+03  0.00000000000E+00 0.  1.
         21    1    1    2  503  502 -0.23174547177E+02  0.13916664085E+02 -0.30544039233E+03  0.30663425517E+03  0.00000000000E+00 0.  1.
         21    1    1    2  504  501  0.23174547177E+02 -0.13916664085E+02 -0.14421533514E+01  0.27070518695E+02  0.00000000000E+00 0.  1.
</event>
<event>
 4    1  0.3069799E+006  0.2254721E+02  0.7546771E-02  0.1498263E+00
         21   -1    0    0  503  501  0.00000000000E+00  0.00000000000E+00  0.76097548103E+03  0.76097548103E+03  0.00000000000E+00 0.  1.
         21   -1    0    0  504  502 -0.00000000000E+00 -0.00000000000E+00 -0.67038265148E+00  0.67038265148E+00  0.00000000000E+00 0. -1.
         21    1    1    2  503  502  0.21977864572E+02  0.50349049669E+01  0.35773372755E+03  0.35844357523E+03  0.00000000000E+00 0.  1.
         21    1    1    2  504  501 -0.21977864572E+02 -0.50349049669E+01  0.40257137084E+03  0.40320228845E+03  0.00000000000E+00 0. -1.
</event>
<event>
 4    1  0.3069799E+006  0.2413239E+02  0.7546771E-02  0.1478748E+00
         21   -1    0    0  503  501  0.00000000000E+00  0.00000000000E+00  0.11393942862E+03  0.11393942862E+03  0.00000000000E+00 0. -1.
         21   -1    0    0  504  502 -0.00000000000E+00 -0.00000000000E+00 -0.14301785435E+02  0.14301785435E+02  0.00000000000E+00 0.  1.
         21    1    1    2  503  502 -0.23495751866E+01 -0.24017734364E+02  0.10122000011E+03  0.10405700596E+03  0.00000000000E+00 0. -1.
         21    1    1    2  504  501  0.23495751866E+01  0.24017734364E+02 -0.15823569267E+01  0.24184208091E+02  0.00000000000E+00 0.  1.
</event>
<event>
 4    1  0.3069799E+006  0.2484922E+02  0.7546771E-02  0.1470497E+00
         21   -1    0    0  503  501  0.00000000000E+00  0.00000000000E+00  0.27424700815E+02  0.27424700815E+02  0.00000000000E+00 0. -1.
         21   -1    0    0  504  502 -0.00000000000E+00 -0.00000000000E+00 -0.67704923097E+02  0.67704923097E+02  0.00000000000E+00 0. -1.
         21    1    1    2  503  502  0.16952060574E+01 -0.24791327351E+02 -0.58999285619E+02  0.64018742092E+02  0.00000000000E+00 0. -1.
         21    1    1    2  504  501 -0.16952060574E+01  0.24791327351E+02  0.18719063337E+02  0.31110881820E+02  0.00000000000E+00 0. -1.
</event>
<event>
 4    1  0.3069799E+006  0.2379128E+02  0.7546771E-02  0.1482794E+00
         21   -1    0    0  504  501  0.00000000000E+00  0.00000000000E+00  0.48205023140E+01  0.48205023140E+01  0.00000000000E+00 0. -1.
         21   -1    0    0  503  502 -0.00000000000E+00 -0.00000000000E+00 -0.94232640524E+03  0.94232640524E+03  0.00000000000E+00 0. -1.
         21    1    1    2  503  501  0.10743354972E+02  0.21227464518E+02 -0.91183986470E+03  0.91215018708E+03  0.00000000000E+00 0. -1.
         21    1    1    2  504  502 -0.10743354972E+02 -0.21227464518E+02 -0.25666038219E+02  0.34996720472E+02  0.00000000000E+00 0. -1.
</event>
<event>
 4    1  0.3069799E+006  0.2241722E+02  0.7546771E-02  0.1499949E+00
         21   -1    0    0  502  501  0.00000000000E+00  0.00000000000E+00  0.19357307125E+03  0.19357307125E+03  0.00000000000E+00 0. -1.
         21   -1    0    0  504  502 -0.00000000000E+00 -0.00000000000E+00 -0.65897473693E+01  0.65897473693E+01  0.00000000000E+00 0. -1.
         21    1    1    2  503  501  0.18306321599E+02 -0.12938715466E+02  0.17140374376E+03  0.17286345809E+03  0.00000000000E+00 0. -1.
         21    1    1    2  504  503 -0.18306321599E+02  0.12938715466E+02  0.15579580117E+02  0.27299360524E+02  0.00000000000E+00 0. -1.
</event>
<event>
 4    1  0.3069799E+006  0.2244784E+02  0.7546771E-02  0.1499550E+00
         21   -1    0    0  503  501  0.00000000000E+00  0.00000000000E+00  0.18958789642E+01  0.18958789642E+01  0.00000000000E+00 0. -1.
         21   -1    0    0  504  502 -0.00000000000E+00 -0.00000000000E+00 -0.28024676423E+03  0.28024676423E+03  0.00000000000E+00 0. -1.
         21    1    1    2  503  502 -0.10830247456E+02 -0.19662437392E+02 -0.10713461622E+03  0.10946109673E+03  0.00000000000E+00 0. -1.
         21    1    1    2  504  501  0.10830247456E+02  0.19662437392E+02 -0.17121626905E+03  0.17268154647E+03  0.00000000000E+00 0. -1.
</event>
<event>
 4    1  0.3069799E+006  0.3125045E+02  0.7546771E-02  0.1409032E+00
         21   -1    0    0  504  501  0.00000000000E+00  0.00000000000E+00  0.39994473442E+02  0.39994473442E+02  0.00000000000E+00 0.  1.
         21   -1    0    0  503  502 -0.00000000000E+00 -0.00000000000E+00 -0.12487235370E+03  0.12487235370E+03  0.00000000000E+00 0. -1.
         21    1    1    2  503  501 -0.31167577933E+02 -0.22744268221E+01 -0.11637464195E+03  0.12049750296E+03  0.00000000000E+00 0. -1.
         21    1    1    2  504  502  0.31167577933E+02  0.22744268221E+01  0.31496761688E+02  0.44369324182E+02  0.00000000000E+00 0.  1.
</event>
<event>
 4    1  0.3069799E+006  0.3735170E+02  0.7546771E-02  0.1364745E+00
         21   -1    0    0  504  501  0.00000000000E+00  0.00000000000E+00  0.13675799576E+03  0.13675799576E+03  0.00000000000E+00 0. -1.
         21   -1    0    0  501  502 -0.00000000000E+00 -0.00000000000E+00 -0.17515831411E+02  0.17515831411E+02  0.00000000000E+00 0.  1.
         21    1    1    2  503  502  0.29891101263E+02  0.22398023103E+02  0.97749523702E+01  0.38609572226E+02  0.00000000000E+00 0.  1.
         21    1    1    2  504  503 -0.29891101263E+02 -0.22398023103E+02  0.10946721198E+03  0.11566425494E+03  0.00000000000E+00 0. -1.
</event>
<event>
 4    1  0.3069799E+006  0.2577026E+02  0.7546771E-02  0.1460368E+00
         21   -1    0    0  503  501  0.00000000000E+00  0.00000000000E+00  0.45531868817E+02  0.45531868817E+02  0.00000000000E+00 0. -1.
         21   -1    0    0  504  502 -0.00000000000E+00 -0.00000000000E+00 -0.14638768243E+02  0.14638768243E+02  0.00000000000E+00 0.  1.
         21    1    1    2  503  502  0.21509641173E+02  0.14193010428E+02  0.13632142826E+02  0.29153756643E+02  0.00000000000E+00 0. -1.
         21    1    1    2  504  501 -0.21509641173E+02 -0.14193010428E+02  0.17260957748E+02  0.31016880417E+02  0.00000000000E+00 0.  1.
</event>
<event>
 4    1  0.3069799E+006  0.2088499E+02  0.7546771E-02  0.1520913E+00
         21   -1    0    0  503  501  0.00000000000E+00  0.00000000000E+00  0.81095219446E+02  0.81095219446E+02  0.00000000000E+00 0. -1.
         21   -1    0    0  504  502 -0.00000000000E+00 -0.00000000000E+00 -0.70677092855E+01  0.70677092855E+01  0.00000000000E+00 0. -1.
         21    1    1    2  503  502 -0.75377086610E+01 -0.19477318055E+02  0.58563337262E+02  0.62175939412E+02  0.00000000000E+00 0. -1.
         21    1    1    2  504  501  0.75377086610E+01  0.19477318055E+02  0.15464172899E+02  0.25986989320E+02  0.00000000000E+00 0. -1.
</event>
<event>
 4    1  0.3069799E+006  0.4338767E+02  0.7546771E-02  0.1329701E+00
         21   -1    0    0  502  501  0.00000000000E+00  0.00000000000E+00  0.77219392326E+03  0.77219392326E+03  0.00000000000E+00 0.  1.
         21   -1    0    0  504  502 -0.00000000000E+00 -0.00000000000E+00 -0.16385150044E+02  0.16385150044E+02  0.00000000000E+00 0. -1.
         21    1    1    2  503  501  0.26133903687E+02 -0.34633926649E+02  0.74168133587E+03  0.74294932113E+03  0.00000000000E+00 0.  1.
         21    1    1    2  504  503 -0.26133903687E+02  0.34633926649E+02  0.14127437346E+02  0.45629752169E+02  0.00000000000E+00 0. -1.
</event>
<event>
 4    1  0.3069799E+006  0.2950631E+02  0.7546771E-02  0.1423936E+00
         21   -1    0    0  503  501  0.00000000000E+00  0.00000000000E+00  0.19493840385E+03  0.19493840385E+03  0.00000000000E+00 0. -1.
         21   -1    0    0  501  502 -0.00000000000E+00 -0.00000000000E+00 -0.18622932644E+02  0.18622932644E+02  0.00000000000E+00 0.  1.
         21    1    1    2  503  504  0.32412233409E+01 -0.29327750481E+02  0.18125802095E+03  0.18364392894E+03  0.00000000000E+00 0. -1.
         21    1    1    2  504  502 -0.32412233409E+01  0.29327750481E+02 -0.49425497425E+01  0.29917407558E+02  0.00000000000E+00 0.  1.
</event>
<event>
 4    1  0.3069799E+006  0.2278834E+02  0.7546771E-02  0.1495173E+00
         21   -1    0    0  503  501  0.00000000000E+00  0.00000000000E+00  0.36877023083E+02  0.36877023083E+02  0.00000000000E+00 0.  1.
         21   -1    0    0  504  502 -0.00000000000E+00 -0.00000000000E+00 -0.73095199415E+02  0.73095199415E+02  0.00000000000E+00 0.  1.
         21    1    1    2  503  502  0.73246172798E+01  0.21579115000E+02 -0.67515414439E+02  0.71257556858E+02  0.00000000000E+00 0.  1.
         21    1    1    2  504  501 -0.73246172798E+01 -0.21579115000E+02  0.31297238107E+02  0.38714665640E+02  0.00000000000E+00 0.  1.
</event>
<event>
 4    1  0.3069799E+006  0.2088988E+02  0.7546771E-02  0.1520843E+00
         21   -1    0    0  503  501  0.00000000000E+00  0.00000000000E+00  0.16740080515E+03  0.16740080515E+03  0.00000000000E+00 0.  1.
         21   -1    0    0  504  502 -0.00000000000E+00 -0.00000000000E+00 -0.15095363527E+02  0.15095363527E+02  0.00000000000E+00 0. -1.
         21    1    1    2  503  502 -0.13506469718E+02 -0.15936192844E+02  0.15914879135E+03  0.16051393944E+03  0.00000000000E+00 0.  1.
         21    1    1    2  504  501  0.13506469718E+02  0.15936192844E+02 -0.68433497284E+01  0.21982229234E+02  0.00000000000E+00 0. -1.
</event>
<event>
 4    1  0.3069799E+006  0.2221602E+02  0.7546771E-02  0.1502584E+00
         21   -1    0    0  504  501  0.00000000000E+00  0.00000000000E+00  0.11014763562E+02  0.11014763562E+02  0.00000000000E+00 0.  1.
         21   -1    0    0  503  502 -0.00000000000E+00 -0.00000000000E+00 -0.12655600467E+03  0.12655600467E+03  0.00000000000E+00 0. -1.
         21    1    1    2  503  501 -0.21333055002E+02 -0.62009794017E+01 -0.24874525977E+01  0.22354838440E+02  0.00000000000E+00 0.  1.
         21    1    1    2  504  502  0.21333055002E+02  0.62009794017E+01 -0.11305378851E+03  0.11521592979E+03  0.00000000000E+00 0. -1.
</event>
<event>
 4    1  0.3069799E+006  0.2189306E+02  0.7546771E-02  0.1506886E+00
         21   -1    0    0  504  501  0.00000000000E+00  0.00000000000E+00  0.25802501742E+01  0.25802501742E+01  0.00000000000E+00 0. -1.
         21   -1    0    0  501  502 -0.00000000000E+00 -0.00000000000E+00 -0.43346795534E+03  0.43346795534E+03  0.00000000000E+00 0.  1.
         21    1    1    2  503  502  0.21633771740E+02 -0.33594728526E+01 -0.38025871494E+03  0.38088843042E+03  0.00000000000E+00 0.  1.
         21    1    1    2  504  503 -0.21633771740E+02  0.33594728526E+01 -0.50628990227E+02  0.55159775098E+02  0.00000000000E+00 0. -1.
</event>
<event>
 4    1  0.3069799E+006  0.2015000E+02  0.7546771E-02  0.1531755E+00
         21   -1    0    0  504  501  0.00000000000E+00  0.00000000000E+00  0.12874826362E+04  0.12874826362E+04  0.00000000000E+00 0.  1.
         21   -1    0    0  503  502 -0.00000000000E+00 -0.00000000000E+00 -0.16347306658E+01  0.16347306658E+01  0.00000000000E+00 0.  1.
         21    1    1    2  503  501 -0.15040414079E+02  0.13409266566E+02  0.63865347426E+02  0.66968687365E+02  0.00000000000E+00 0.  1.
         21    1    1    2  504  502  0.15040414079E+02 -0.13409266566E+02  0.12219825581E+04  0.12221486795E+04  0.00000000000E+00 0.  1.
</event>
<event>
 4    1  0.3069799E+006  0.2351804E+02  0.7546771E-02  0.1486094E+00
         21   -1    0    0  502  501  0.00000000000E+00  0.00000000000E+00  0.67270640277E+02  0.67270640277E+02  0.00000000000E+00 0. -1.
         21   -1    0    0  504  502 -0.00000000000E+00 -0.00000000000E+00 -0.26310916982E+02  0.26310916982E+02  0.00000000000E+00 0.  1.
         21    1    1    2  503  501 -0.64521241128E+00  0.23509192223E+02  0.59276911527E+02  0.63771864158E+02  0.00000000000E+00 0. -1.
         21    1    1    2  504  503  0.64521241128E+00 -0.23509192223E+02 -0.18317188232E+02  0.29809693101E+02  0.00000000000E+00 0.  1.
</event>
<event>
 4    1  0.3069799E+006  0.3072731E+02  0.7546771E-02  0.1413379E+00
         21   -1    0    0  503  501  0.00000000000E+00  0.00000000000E+00  0.33106286151E+02  0.33106286151E+02  0.00000000000E+00 0. -1.
         21   -1    0    0  504  502 -0.00000000000E+00 -0.00000000000E+00 -0.30096891943E+03  0.30096891943E+03  0.00000000000E+00 0.  1.
         21    1    1    2  503  502  0.30228580119E+02 -0.55136512609E+01 -0.29285789886E+03  0.29446547562E+03  0.00000000000E+00 0.  1.
         21    1    1    2  504  501 -0.30228580119E+02  0.55136512609E+01  0.24995265582E+02  0.39609729963E+02  0.00000000000E+00 0. -1.
</event>
<event>
 4    1  0.3069799E+006  0.2053381E+02  0.7546771E-02  0.1526026E+00
         21   -1    0    0  503  501  0.00000000000E+00  0.00000000000E+00  0.11031537812E+03  0.11031537812E+03  0.00000000000E+00 0. -1.
         21   -1    0    0  504  502 -0.00000000000E+00 -0.00000000000E+00 -0.38225855440E+01  0.38225855440E+01  0.00000000000E+00 0. -1.
         21    1    1    2  503  502  0.20292003708E+02  0.31419873825E+01  0.53882988122E+02  0.57662933572E+02  0.00000000000E+00 0. -1.
         21    1    1    2  504  501 -0.20292003708E+02 -0.31419873825E+01  0.52609804451E+02  0.56475030089E+02  0.00000000000E+00 0. -1.
</event>
<event>
 4    1  0.3069799E+006  0.3084400E+02  0.7546771E-02  0.1412401E+00
         21   -1    0    0  503  501  0.00000000000E+00  0.00000000000E+00  0.50361268469E+02  0.50361268469E+02  0.00000000000E+00 0.  1.
         21   -1    0    0  504  502 -0.00000000000E+00 -0.00000000000E+00 -0.36669839491E+02  0.36669839491E+02  0.00000000000E+00 0.  1.
         21    1    1    2  503  502  0.26486375183E+01 -0.30730071031E+02  0.37146026112E+02  0.48282292843E+02  0.00000000000E+00 0.  1.
         21    1    1    2  504  501 -0.26486375183E+01  0.30730071031E+02 -0.23454597134E+02  0.38748815117E+02  0.00000000000E+00 0.  1.
</event>
<event>
 4    1  0.3069799E+006  0.2232949E+02  0.7546771E-02  0.1501094E+00
         21   -1    0    0  503  501  0.00000000000E+00  0.00000000000E+00  0.20493862027E+03  0.20493862027E+03  0.00000000000E+00 0.  1.
         21   -1    0    0  501  502 -0.00000000000E+00 -0.00000000000E+00 -0.10937893472E+02  0.10937893472E+02  0.00000000000E+00 0.  1.
         21    1    1    2  503  504  0.97000268545E+01 -0.20112570094E+02  0.19218003433E+03  0.19347292211E+03  0.00000000000E+00 0.  1.
         21    1    1    2  504  502 -0.97000268545E+01  0.20112570094E+02  0.18206924695E+01  0.22403591628E+02  0.00000000000E+00 0.  1.
</event>
<event>
 4    1  0.3069799E+006  0.2801540E+02  0.7546771E-02  0.1437666E+00
         21   -1    0    0  502  501  0.00000000000E+00  0.00000000000E+00  0.20505445472E+03  0.20505445472E+03  0.00000000000E+00 0.  1.
         21   -1    0    0  504  502 -0.00000000000E+00 -0.00000000000E+00 -0.49889120894E+01  0.49889120894E+01  0.00000000000E+00 0.  1.
         21    1    1    2  503  501 -0.13827938874E+00  0.28015056436E+02  0.15070314419E+03  0.15328502920E+03  0.00000000000E+00 0.  1.
         21    1    1    2  504  503  0.13827938874E+00 -0.28015056436E+02  0.49362398440E+02  0.56758337609E+02  0.00000000000E+00 0.  1.
</event>
<event>
 4    1  0.3069799E+006  0.3090639E+02  0.7546771E-02  0.1411880E+00
         21   -1    0    0  504  501  0.00000000000E+00  0.00000000000E+00  0.23860259974E+03  0.23860259974E+03  0.00000000000E+00 0. -1.
         21   -1    0    0  503  502 -0.00000000000E+00 -0.00000000000E+00 -0.11297487870E+02  0.11297487870E+02  0.00000000000E+00 0. -1.
         21    1    1    2  503  501  0.30488703700E+02 -0.50639747340E+01  0.13252707613E+02  0.33627951952E+02  0.00000000000E+00 0. -1.
         21    1    1    2  504  502 -0.30488703700E+02  0.50639747340E+01  0.21405240426E+03  0.21627213566E+03  0.00000000000E+00 0. -1.
</event>
<event>
 4    1  0.3069799E+006  0.2143943E+02  0.7546771E-02  0.1513083E+00
         21   -1    0    0  504  501  0.00000000000E+00  0.00000000000E+00  0.29264529695E+02  0.29264529695E+02  0.00000000000E+00 0.  1.
         21   -1    0    0  503  502 -0.00000000000E+00 -0.00000000000E+00 -0.19614260913E+03  0.19614260913E+03  0.00000000000E+00 0.  1.
         21    1    1    2  503  501 -0.19581735361E+02 -0.87295327753E+01  0.24657847055E+02  0.32675044355E+02  0.00000000000E+00 0.  1.
         21    1    1    2  504  502  0.19581735361E+02  0.87295327753E+01 -0.19153592649E+03  0.19273209447E+03  0.00000000000E+00 0.  1.
</event>
<event>
 4    1  0.3069799E+006  0.4333590E+02  0.7546771E-02  0.1329973E+00
         21   -1    0    0  504  501  0.00000000000E+00  0.00000000000E+00  0.16698002314E+04  0.16698002314E+04  0.00000000000E+00 0.  1.
         21   -1    0    0  503  502 -0.00000000000E+00 -0.00000000000E+00 -0.11297321200E+02  0.11297321200E+02  0.00000000000E+00 0.  1.
         21    1    1    2  503  501 -0.29736581674E+02  0.31523574234E+02  0.16268639138E+04  0.16274409955E+04  0.00000000000E+00 0.  1.
         21    1    1    2  504  502  0.29736581674E+02 -0.31523574234E+02  0.31638996458E+02  0.53656557092E+02  0.00000000000E+00 0.  1.
</event>
<event>
 4    1  0.3069799E+006  0.5346260E+02  0.7546771E-02  0.1283820E+00
         21   -1    0    0  503  501  0.00000000000E+00  0.00000000000E+00  0.19144392228E+03  0.19144392228E+03  0.00000000000E+00 0. -1.
         21   -1    0    0  501  502 -0.00000000000E+00 -0.00000000000E+00 -0.21961107160E+02  0.21961107160E+02  0.00000000000E+00 0.  1.
         21    1    1    2  503  504 -0.48789578080E+02 -0.21859252156E+02  0.14511689866E+03  0.15465175107E+03  0.00000000000E+00 0. -1.
         21    1    1    2  504  502  0.48789578080E+02  0.21859252156E+02  0.24365916465E+02  0.58753278370E+02  0.00000000000E+00 0.  1.
</event>
<event>
 4    1  0.3069799E+006  0.2669544E+02  0.7546771E-02  0.1450692E+00
         21   -1    0    0  504  501  0.00000000000E+00  0.00000000000E+00  0.26376137474E+03  0.26376137474E+03  0.00000000000E+00 0.  1.
         21   -1    0    0  501  502 -0.00000000000E+00 -0.00000000000E+00 -0.33200331975E+01  0.33200331975E+01  0.00000000000E+00 0.  1.
         21    1    1    2  503  502  0.19061636883E+02  0.18689583666E+02  0.72597490056E+02  0.77350126701E+02  0.00000000000E+00 0.  1.
         21    1    1    2  504  503 -0.19061636883E+02 -0.18689583666E+02  0.18784385149E+03  0.18973128124E+03  0.00000000000E+00 0.  1.
</event>
<event>
 4    1  0.3069799E+006  0.2317712E+02  0.7546771E-02  0.1490286E+00
         21   -1    0    0  504  501  0.00000000000E+00  0.00000000000E+00  0.22803012877E+01  0.22803012877E+01  0.00000000000E+00 0.  1.
         21   -1    0    0  503  502 -0.00000000000E+00 -0.00000000000E+00 -0.38643874076E+03  0.38643874076E+03  0.00000000000E+00 0. -1.
         21    1    1    2  503  501  0.23105360292E+02  0.18224736537E+01 -0.31351865869E+03  0.31437418538E+03  0.00000000000E+00 0. -1.
         21    1    1    2  504  502 -0.23105360292E+02 -0.18224736537E+01 -0.70639780779E+02  0.74344856667E+02  0.00000000000E+00 0.  1.
</event>
<event>
 4    1  0.3069799E+006  0.2345326E+02  0.7546771E-02  0.1486884E+00
         21   -1    0    0  504  501  0.00000000000E+00  0.00000000000E+00  0.64738093033E+03  0.64738093033E+03  0.00000000000E+00 0. -1.
         21   -1    0    0  503  502 -0.00000000000E+00 -0.00000000000E+00 -0.28314908387E+01  0.28314908387E+01  0.00000000000E+00 0.  1.
         21    1    1    2  503  501  0.15825621779E+02 -0.17309103184E+02  0.50286125200E+02  0.55486482547E+02  0.00000000000E+00 0.  1.
         21    1    1    2  504  502 -0.15825621779E+02  0.17309103184E+02  0.59426331429E+03  0.59472593862E+03  0.00000000000E+00 0. -1.
</event>
<event>
 4    1  0.3069799E+006  0.2376477E+02  0.7546771E-02  0.1483112E+00
         21   -1    0    0  503  501  0.00000000000E+00  0.00000000000E+00  0.19909333985E+02  0.19909333985E+02  0.00000000000E+00 0. -1.
         21   -1    0    0  504  502 -0.00000000000E+00 -0.00000000000E+00 -0.51095292042E+02  0.51095292042E+02  0.00000000000E+00 0. -1.
         21    1    1    2  503  502 -0.56583794392E+01 -0.23081310841E+02 -0.39271331566E+02  0.45902087654E+02  0.00000000000E+00 0. -1.
         21    1    1    2  504  501  0.56583794392E+01  0.23081310841E+02  0.80853735092E+01  0.25102538374E+02  0.00000000000E+00 0. -1.
</event>
<event>
 4    1  0.3069799E+006  0.3682212E+02  0.7546771E-02  0.1368187E+00
         21   -1    0    0  504  501  0.00000000000E+00  0.00000000000E+00  0.12246814925E+03  0.12246814925E+03  0.00000000000E+00 0. -1.
         21   -1    0    0  503  502 -0.00000000000E+00 -0.00000000000E+00 -0.14196272813E+02  0.14196272813E+02  0.00000000000E+00 0. -1.
         21    1    1    2  503  501  0.58344628412E+01  0.36356950471E+02  0.22075555769E+02  0.42932493134E+02  0.00000000000E+00 0. -1.
         21    1    1    2  504  502 -0.58344628412E+01 -0.36356950471E+02  0.86196320672E+02  0.93731928933E+02  0.00000000000E+00 0. -1.
</event>
<event>
 4    1  0.3069799E+006  0.2022058E+02  0.7546771E-02  0.1530690E+00
         21   -1    0    0  504  501  0.00000000000E+00  0.00000000000E+00  0.27815127964E+02  0.27815127964E+02  0.00000000000E+00 0.  1.
         21   -1    0    0  503  502 -0.00000000000E+00 -0.00000000000E+00 -0.14740180165E+02  0.14740180165E+02  0.00000000000E+00 0.  1.
         21    1    1    2  503  501 -0.15637067470E+02  0.12820060574E+02  0.76536126482E+01  0.21620583220E+02  0.00000000000E+00 0.  1.
         21    1    1    2  504  502  0.15637067470E+02 -0.12820060574E+02  0.54213351505E+01  0.20934724909E+02  0.00000000000E+00 0.  1.
</event>
<event>
 4    1  0.3069799E+006  0.2106159E+02  0.7546771E-02  0.1518387E+00
         21   -1    0    0  502  501  0.00000000000E+00  0.00000000000E+00  0.14136380417E+03  0.14136380417E+03  0.00000000000E+00 0.  1.
         21   -1    0    0  504  502 -0.00000000000E+00 -0.00000000000E+00 -0.83385397724E+02  0.83385397724E+02  0.00000000000E+00 0.  1.
         21    1    1    2  503  501 -0.95209035701E+01  0.18786777462E+02  0.13922910347E+03  0.14081311681E+03  0.00000000000E+00 0.  1.
         21    1    1    2  504  503  0.95209035701E+01 -0.18786777462E+02 -0.81250697025E+02  0.83936085084E+02  0.00000000000E+00 0.  1.
</event>
<event>
 4    1  0.3069799E+006  0.2348830E+02  0.7546771E-02  0.1486456E+00
         21   -1    0    0  502  501  0.00000000000E+00  0.00000000000E+00  0.46673309142E+01  0.46673309142E+01  0.00000000000E+00 0.  1.
         21   -1    0    0  503  502 -0.00000000000E+00 -0.00000000000E+00 -0.30418402384E+03  0.30418402384E+03  0.00000000000E+00 0. -1.
         21    1    1    2  503  504 -0.83180319081E+01 -0.21966118515E+02 -0.27050740555E+03  0.27152524095E+03  0.00000000000E+00 0. -1.
         21    1    1    2  504  501  0.83180319081E+01  0.21966118515E+02 -0.29009287378E+02  0.37326113803E+02  0.00000000000E+00 0.  1.
</event>
<event>
 4    1  0.3069799E+006  0.3112320E+02  0.7546771E-02  0.1410081E+00
         21   -1    0    0  503  501  0.00000000000E+00  0.00000000000E+00  0.19655470594E+03  0.19655470594E+03  0.00000000000E+00 0.  1.
         21   -1    0    0  504  502 -0.00000000000E+00 -0.00000000000E+00 -0.58020708842E+01  0.58020708842E+01  0.00000000000E+00 0.  1.
         21    1    1    2  503  502  0.26617761003E+01  0.31009169051E+02  0.56109194201E+02  0.64163036798E+02  0.00000000000E+00 0.  1.
         21    1    1    2  504  501 -0.26617761003E+01 -0.31009169051E+02  0.13464344085E+03  0.13819374002E+03  0.00000000000E+00 0.  1.
</event>
<event>
 4    1  0.3069799E+006  0.2493325E+02  0.7546771E-02  0.1469552E+00
         21   -1    0    0  504  501  0.00000000000E+00  0.00000000000E+00  0.72249729607E+02  0.72249729607E+02  0.00000000000E+00 0.  1.
         21   -1    0    0  503  502 -0.00000000000E+00 -0.00000000000E+00 -0.12873120585E+02  0.12873120585E+02  0.00000000000E+00 0.  1.
         21    1    1    2  503  501  0.12945102059E+02 -0.21309420802E+02  0.54197104312E+02  0.59657297944E+02  0.00000000000E+00 0.  1.
         21    1    1    2  504  502 -0.12945102059E+02  0.21309420802E+02  0.51795047101E+01  0.25465552248E+02  0.00000000000E+00 0.  1.
</event>
<event>
 4    1  0.3069799E+006  0.3001869E+02  0.7546771E-02  0.1419434E+00
         21   -1    0    0  504  501  0.00000000000E+00  0.00000000000E+00  0.36588913448E+02  0.36588913448E+02  0.00000000000E+00 0. -1.
         21   -1    0    0  503  502 -0.00000000000E+00 -0.00000000000E+00 -0.10634434197E+04  0.10634434197E+04  0.00000000000E+00 0. -1.
         21    1    1    2  503  501 -0.27189297270E+02  0.12722582881E+02 -0.10570372014E+04  0.10574633645E+04  0.00000000000E+00 0. -1.
         21    1    1    2  504  502  0.27189297270E+02 -0.12722582881E+02  0.30182695208E+02  0.42568968642E+02  0.00000000000E+00 0. -1.
</event>
<event>
 4    1  0.3069799E+006  0.2169449E+02  0.7546771E-02  0.1509576E+00
         21   -1    0    0  504  501  0.00000000000E+00  0.00000000000E+00  0.32409092148E+02  0.32409092148E+02  0.00000000000E+00 0. -1.
         21   -1    0    0  503  502 -0.00000000000E+00 -0.00000000000E+00 -0.21065663885E+03  0.21065663885E+03  0.00000000000E+00 0. -1.
         21    1    1    2  503  501  0.10889820882E+02  0.18763329019E+02 -0.20639274366E+03  0.20752979389E+03  0.00000000000E+00 0. -1.
         21    1    1    2  504  502 -0.10889820882E+02 -0.18763329019E+02  0.28145196957E+02  0.35535937113E+02  0.00000000000E+00 0. -1.
</event>
<event>
 4    1  0.3069799E+006  0.2189991E+02  0.7546771E-02  0.1506794E+00
         21   -1    0    0  503  501  0.00000000000E+00  0.00000000000E+00  0.59731401110E+02  0.59731401110E+02  0.00000000000E+00 0. -1.
         21   -1    0    0  504  502 -0.00000000000E+00 -0.00000000000E+00 -0.80200480216E+02  0.80200480216E+02  0.00000000000E+00 0. -1.
         21    1    1    2  503  502  0.31662313632E+01 -0.21669822245E+02  0.56136688140E+02  0.60257231703E+02  0.00000000000E+00 0. -1.
         21    1    1    2  504  501 -0.31662313632E+01  0.21669822245E+02 -0.76605767246E+02  0.79674649623E+02  0.00000000000E+00 0. -1.
</event>
<event>
 4    1  0.3069799E+006  0.2821291E+02  0.7546771E-02  0.1435790E+00
         21   -1    0    0  503  501  0.00000000000E+00  0.00000000000E+00  0.31146454518E+02  0.31146454518E+02  0.00000000000E+00 0. -1.
         21   -1    0    0  504  502 -0.00000000000E+00 -0.00000000000E+00 -0.32753814465E+02  0.32753814465E+02  0.00000000000E+00 0. -1.
         21    1    1    2  503  502  0.21460042379E+02  0.18314885712E+02 -0.15781619804E+02  0.32326892539E+02  0.00000000000E+00 0. -1.
         21    1    1    2  504  501 -0.21460042379E+02 -0.18314885712E+02  0.14174259858E+02  0.31573376444E+02  0.00000000000E+00 0. -1.
</event>
<event>
 4    1  0.3069799E+006  0.2193917E+02  0.7546771E-02  0.1506267E+00
         21   -1    0    0  504  501  0.00000000000E+00  0.00000000000E+00  0.36476322385E+03  0.36476322385E+03  0.00000000000E+00 0. -1.
         21   -1    0    0  503  502 -0.00000000000E+00 -0.00000000000E+00 -0.10010352996E+02  0.10010352996E+02  0.00000000000E+00 0.  1.
         21    1    1    2  503  501 -0.23119799004E+01  0.21817009035E+02  0.35197632421E+03  0.35265941068E+03  0.00000000000E+00 0. -1.
         21    1    1    2  504  502  0.23119799004E+01 -0.21817009035E+02  0.27765466481E+01  0.22114166174E+02  0.00000000000E+00 0.  1.
</event>
<event>
 4    1  0.3069799E+006  0.2006673E+02  0.7546771E-02  0.1533018E+00
         21   -1    0    0  504  501  0.00000000000E+00  0.00000000000E+00  0.56940263774E+02  0.56940263774E+02  0.00000000000E+00 0.  1.
         21   -1    0    0  501  502 -0.00000000000E+00 -0.00000000000E+00 -0.25013687710E+03  0.25013687710E+03  0.00000000000E+00 0. -1.
         21    1    1    2  503  502  0.18412901920E+02 -0.79773869341E+01 -0.24795089715E+03  0.24876157472E+03  0.00000000000E+00 0. -1.
         21    1    1    2  504  503 -0.18412901920E+02  0.79773869341E+01  0.54754283821E+02  0.58315566157E+02  0.00000000000E+00 0.  1.
</event>
<event>
 4    1  0.3069799E+006  0.2188967E+02  0.7546771E-02  0.1506932E+00
         21   -1    0    0  504  501  0.00000000000E+00  0.00000000000E+00  0.11540580903E+03  0.11540580903E+03  0.00000000000E+00 0.  1.
         21   -1    0    0  503  502 -0.00000000000E+00 -0.00000000000E+00 -0.41966793337E+01  0.41966793337E+01  0.00000000000E+00 0.  1.
         21    1    1    2  503  501 -0.53731096117E+01 -0.21219971687E+02  0.49429768120E+02  0.54059776930E+02  0.00000000000E+00 0.  1.
         21    1    1    2  504  502  0.53731096117E+01  0.21219971687E+02  0.61779361575E+02  0.65542711432E+02  0.00000000000E+00 0.  1.
</event>
<event>
 4    1  0.3069799E+006  0.2614580E+02  0.7546771E-02  0.1456383E+00
         21   -1    0    0  502  501  0.00000000000E+00  0.00000000000E+00  0.29734111357E+02  0.29734111357E+02  0.00000000000E+00 0.  1.
         21   -1    0    0  504  502 -0.00000000000E+00 -0.00000000000E+00 -0.60636826416E+02  0.60636826416E+02  0.00000000000E+00 0.  1.
         21    1    1    2  503  501 -0.16712916764E+02  0.20106741878E+02  0.20152065387E+02  0.33010731514E+02  0.00000000000E+00 0.  1.
         21    1    1    2  504  503  0.16712916764E+02 -0.20106741878E+02 -0.51054780445E+02  0.57360206259E+02  0.00000000000E+00 0.  1.
</event>
<event>
 4    1  0.3069799E+006  0.4352183E+02  0.7546771E-02  0.1328998E+00
         21   -1    0    0  504  501  0.00000000000E+00  0.00000000000E+00  0.24671541531E+03  0.24671541531E+03  0.00000000000E+00 0. -1.
         21   -1    0    0  503  502 -0.00000000000E+00 -0.00000000000E+00 -0.14606135837E+02  0.14606135837E+02  0.00000000000E+00 0. -1.
         21    1    1    2  503  501 -0.93822842479E+01 -0.42498494045E+02  0.26062932197E+02  0.50728943302E+02  0.00000000000E+00 0. -1.
         21    1    1    2  504  502  0.93822842479E+01  0.42498494045E+02  0.20604634728E+03  0.21059260785E+03  0.00000000000E+00 0. -1.
</event>
<event>
 4    1  0.3069799E+006  0.3223546E+02  0.7546771E-02  0.1401115E+00
         21   -1    0    0  504  501  0.00000000000E+00  0.00000000000E+00  0.21206978152E+03  0.21206978152E+03  0.00000000000E+00 0.  1.
         21   -1    0    0  503  502 -0.00000000000E+00 -0.00000000000E+00 -0.61158859010E+01  0.61158859010E+01  0.00000000000E+00 0.  1.
         21    1    1    2  503  501  0.20589904639E+02  0.24802841563E+02  0.54333191966E+02  0.63176109977E+02  0.00000000000E+00 0.  1.
         21    1    1    2  504  502 -0.20589904639E+02 -0.24802841563E+02  0.15162070365E+03  0.15500955744E+03  0.00000000000E+00 0.  1.
</event>
<event>
 4    1  0.3069799E+006  0.3615988E+02  0.7546771E-02  0.1372587E+00
         21   -1    0    0  504  501  0.00000000000E+00  0.00000000000E+00  0.11138468689E+03  0.11138468689E+03  0.00000000000E+00 0.  1.
         21   -1    0    0  503  502 -0.00000000000E+00 -0.00000000000E+00 -0.12348275888E+02  0.12348275888E+02  0.00000000000E+00 0. -1.
         21    1    1    2  503  501  0.98208737952E+00 -0.36146536976E+02  0.63261331042E+02  0.72866539894E+02  0.00000000000E+00 0. -1.
         21    1    1    2  504  502 -0.98208737952E+00  0.36146536976E+02  0.35775079962E+02  0.50866422886E+02  0.00000000000E+00 0.  1.
</event>
<event>
 4    1  0.3069799E+006  0.2853518E+02  0.7546771E-02  0.1432768E+00
         21   -1    0    0  503  501  0.00000000000E+00  0.00000000000E+00  0.91716080378E+01  0.91716080378E+01  0.00000000000E+00 0. -1.
         21   -1    0    0  504  502 -0.00000000000E+00 -0.00000000000E+00 -0.19643322514E+03  0.19643322514E+03  0.00000000000E+00 0. -1.
         21    1    1    2  503  502  0.12601554074E+02 -0.25601898762E+02 -0.17526516970E+02  0.33487836335E+02  0.00000000000E+00 0. -1.
         21    1    1    2  504  501 -0.12601554074E+02  0.25601898762E+02 -0.16973510013E+03  0.17211699684E+03  0.00000000000E+00 0. -1.
</event>
<event>
 4    1  0.3069799E+006  0.2196150E+02  0.7546771E-02  0.1505967E+00
         21   -1    0    0  503  501  0.00000000000E+00  0.00000000000E+00  0.23480249033E+03  0.23480249033E+03  0.00000000000E+00 0. -1.
         21   -1    0    0  504  502 -0.00000000000E+00 -0.00000000000E+00 -0.28317454661E+01  0.28317454661E+01  0.00000000000E+00 0. -1.
         21    1    1    2  503  502  0.21643585350E+02 -0.37232794746E+01  0.17825022513E+03  0.17959802436E+03  0.00000000000E+00 0. -1.
         21    1    1    2  504  501 -0.21643585350E+02  0.37232794746E+01  0.53720519740E+02  0.58036211437E+02  0.00000000000E+00 0. -1.
</event>
<event>
 4    1  0.3069799E+006  0.6177782E+02  0.7546771E-02  0.1253909E+00
         21   -1    0    0  502  501  0.00000000000E+00  0.00000000000E+00  0.10905896775E+04  0.10905896775E+04  0.00000000000E+00 0.  1.
         21   -1    0    0  503  502 -0.00000000000E+00 -0.00000000000E+00 -0.84802296920E+01  0.84802296920E+01  0.00000000000E+00 0.  1.
         21    1    1    2  503  504  0.42130811917E+01 -0.61633995847E+02  0.11990282552E+03  0.13488212285E+03  0.00000000000E+00 0.  1.
         21    1    1    2  504  501 -0.42130811917E+01  0.61633995847E+02  0.96220662226E+03  0.96418778431E+03  0.00000000000E+00 0.  1.
</event>
<event>
 4    1  0.3069799E+006  0.2979575E+02  0.7546771E-02  0.1421380E+00
         21   -1    0    0  503  501  0.00000000000E+00  0.00000000000E+00  0.19821491775E+02  0.19821491775E+02  0.00000000000E+00 0.  1.
         21   -1    0    0  504  502 -0.00000000000E+00 -0.00000000000E+00 -0.21450080104E+03  0.21450080104E+03  0.00000000000E+00 0.  1.
         21    1    1    2  503  502  0.14859336900E+02  0.25826093609E+02 -0.20155340661E+03  0.20374386548E+03  0.00000000000E+00 0.  1.
         21    1    1    2  504  501 -0.14859336900E+02 -0.25826093609E+02  0.68740973424E+01  0.30578427338E+02  0.00000000000E+00 0.  1.
</event>
<event>
 4    1  0.3069799E+006  0.2325438E+02  0.7546771E-02  0.1489328E+00
         21   -1    0    0  502  501  0.00000000000E+00  0.00000000000E+00  0.21845379742E+02  0.21845379742E+02  0.00000000000E+00 0.  1.
         21   -1    0    0  504  502 -0.00000000000E+00 -0.00000000000E+00 -0.25280300226E+03  0.25280300226E+03  0.00000000000E+00 0.  1.
         21    1    1    2  503  501 -0.17307418170E+02 -0.15531241817E+02  0.14948871014E+02  0.27644799523E+02  0.00000000000E+00 0.  1.
         21    1    1    2  504  503  0.17307418170E+02  0.15531241817E+02 -0.24590649353E+03  0.24700358248E+03  0.00000000000E+00 0.  1.
</event>
