<event>
 4    1  0.3767413E+003  0.2069455E+02  0.7546771E-02  0.1523671E+00
          2   -1    0    0  502    0  0.00000000000E+00  0.00000000000E+00  0.13855216189E+03  0.13855216189E+03  0.00000000000E+00 0. -1.
          1   -1    0    0  501    0 -0.00000000000E+00 -0.00000000000E+00 -0.32494941699E+03  0.32494941699E+03  0.00000000000E+00 0.  1.
          2    1    1    2  501    0 -0.16310841142E+02 -0.12736592350E+02  0.13744729353E+03  0.13899648493E+03  0.00000000000E+00 0. -1.
          1    1    1    2  502    0  0.16310841142E+02  0.12736592350E+02 -0.32384454863E+03  0.32450509395E+03  0.00000000000E+00 0.  1.
</event>
<event>
 4    1  0.3767413E+003  0.4325898E+02  0.7546771E-02  0.1330378E+00
          2   -1    0    0  502    0  0.00000000000E+00  0.00000000000E+00  0.25607078199E+02  0.25607078199E+02  0.00000000000E+00 0.  1.
          1   -1    0    0  501    0 -0.00000000000E+00 -0.00000000000E+00 -0.90331012401E+02  0.90331012401E+02  0.00000000000E+00 0. -1.
          2    1    1    2  501    0 -0.36727470251E+02  0.22856776318E+02 -0.70283166868E+01  0.43826208256E+02  0.00000000000E+00 0.  1.
          1    1    1    2  502    0  0.36727470251E+02 -0.22856776318E+02 -0.57695617515E+02  0.72111882343E+02  0.00000000000E+00 0. -1.
</event>
<event>
 4    1  0.3767413E+003  0.6003529E+02  0.7546771E-02  0.1259713E+00
          2   -1    0    0  502    0  0.00000000000E+00  0.00000000000E+00  0.42654268314E+02  0.42654268314E+02  0.00000000000E+00 0. -1.
          1   -1    0    0  501    0 -0.00000000000E+00 -0.00000000000E+00 -0.23349159119E+03  0.23349159119E+03  0.00000000000E+00 0.  1.
          2    1    1    2  501    0  0.60032934799E+02  0.53156639212E+00  0.14876256075E+02  0.61850940318E+02  0.00000000000E+00 0. -1.
          1    1    1    2  502    0 -0.60032934799E+02 -0.53156639212E+00 -0.20571357895E+03  0.21429491919E+03  0.00000000000E+00 0.  1.
</event>
<event>
 4    1  0.3767413E+003  0.2681169E+02  0.7546771E-02  0.1449509E+00
          2   -1    0    0  502    0  0.00000000000E+00  0.00000000000E+00  0.38464291073E+03  0.38464291073E+03  0.00000000000E+00 0.  1.
          1   -1    0    0  501    0 -0.00000000000E+00 -0.00000000000E+00 -0.18833043111E+01  0.18833043111E+01  0.00000000000E+00 0.  1.
          2    1    1    2  501    0  0.16267834765E+02 -0.21312532499E+02  0.20827046074E+03  0.20998916950E+03  0.00000000000E+00 0.  1.
          1    1    1    2  502    0 -0.16267834765E+02  0.21312532499E+02  0.17448914568E+03  0.17653704554E+03  0.00000000000E+00 0.  1.
</event>
<event>
 4    1  0.3767413E+003  0.2002870E+02  0.7546771E-02  0.1533597E+00
          2   -1    0    0  502    0  0.00000000000E+00  0.00000000000E+00  0.36022864015E+02  0.36022864015E+02  0.00000000000E+00 0. -1.
          1   -1    0    0  501    0 -0.00000000000E+00 -0.00000000000E+00 -0.84488738933E+02  0.84488738933E+02  0.00000000000E+00 0. -1.
          2    1    1    2  501    0  0.11333070085E+02 -0.16513949910E+02  0.31911631489E+02  0.37676268969E+02  0.00000000000E+00 0. -1.
          1    1    1    2  502    0 -0.11333070085E+02  0.16513949910E+02 -0.80377506406E+02  0.82835333978E+02  0.00000000000E+00 0. -1.
</event>
<event>
 4    1  0.3767413E+003  0.2666753E+02  0.7546771E-02  0.1450977E+00
          2   -1    0    0  502    0  0.00000000000E+00  0.00000000000E+00  0.71945147648E+03  0.71945147648E+03  0.00000000000E+00 0. -1.
          1   -1    0    0  501    0 -0.00000000000E+00 -0.00000000000E+00 -0.72621499048E+02  0.72621499048E+02  0.00000000000E+00 0.  1.
          2    1    1    2  501    0  0.21006969874E+02 -0.16427553238E+02  0.71674696033E+03  0.71724288942E+03  0.00000000000E+00 0. -1.
          1    1    1    2  502    0 -0.21006969874E+02  0.16427553238E+02 -0.69916982897E+02  0.74830086103E+02  0.00000000000E+00 0.  1.
</event>
<event>
 4    1  0.3767413E+003  0.4647571E+02  0.7546771E-02  0.1314221E+00
          2   -1    0    0  502    0  0.00000000000E+00  0.00000000000E+00  0.83211351589E+02  0.83211351589E+02  0.00000000000E+00 0.  1.
          1   -1    0    0  501    0 -0.00000000000E+00 -0.00000000000E+00 -0.26297209171E+03  0.26297209171E+03  0.00000000000E+00 0. -1.
          2    1    1    2  501    0  0.59882097033E+01  0.46088313889E+02  0.74446525042E+02  0.87762614042E+02  0.00000000000E+00 0.  1.
          1    1    1    2  502    0 -0.59882097033E+01 -0.46088313889E+02 -0.25420726516E+03  0.25842082925E+03  0.00000000000E+00 0. -1.
</event>
<event>
 4    1  0.3767413E+003  0.2391970E+02  0.7546771E-02  0.1481261E+00
          2   -1    0    0  502    0  0.00000000000E+00  0.00000000000E+00  0.40457984420E+03  0.40457984420E+03  0.00000000000E+00 0.  1.
          1   -1    0    0  501    0 -0.00000000000E+00 -0.00000000000E+00 -0.51945243163E+01  0.51945243163E+01  0.00000000000E+00 0.  1.
          2    1    1    2  501    0 -0.18614068389E+02 -0.15022264853E+02  0.37447885096E+03  0.37524200431E+03  0.00000000000E+00 0.  1.
          1    1    1    2  502    0  0.18614068389E+02  0.15022264853E+02  0.24906468922E+02  0.34532364203E+02  0.00000000000E+00 0.  1.
</event>
<event>
 4    1  0.3767413E+003  0.2496999E+02  0.7546771E-02  0.1469139E+00
          2   -1    0    0  502    0  0.00000000000E+00  0.00000000000E+00  0.38592646820E+03  0.38592646820E+03  0.00000000000E+00 0. -1.
          1   -1    0    0  501    0 -0.00000000000E+00 -0.00000000000E+00 -0.33163066577E+01  0.33163066577E+01  0.00000000000E+00 0.  1.
          2    1    1    2  501    0  0.16130507588E+02 -0.19060620387E+02  0.33067809166E+03  0.33161951213E+03  0.00000000000E+00 0. -1.
          1    1    1    2  502    0 -0.16130507588E+02  0.19060620387E+02  0.51932069884E+02  0.57623262724E+02  0.00000000000E+00 0.  1.
</event>
<event>
 4    1  0.3767413E+003  0.3950049E+02  0.7546771E-02  0.1351438E+00
          2   -1    0    0  502    0  0.00000000000E+00  0.00000000000E+00  0.60860173554E+03  0.60860173554E+03  0.00000000000E+00 0.  1.
          1   -1    0    0  501    0 -0.00000000000E+00 -0.00000000000E+00 -0.61481704235E+02  0.61481704235E+02  0.00000000000E+00 0.  1.
          2    1    1    2  501    0 -0.19633973082E+02  0.34275296657E+02  0.60154189789E+03  0.60283741073E+03  0.00000000000E+00 0.  1.
          1    1    1    2  502    0  0.19633973082E+02 -0.34275296657E+02 -0.54421866583E+02  0.67246029045E+02  0.00000000000E+00 0.  1.
</event>
<event>
 4    1  0.3767413E+003  0.2211431E+02  0.7546771E-02  0.1503930E+00
          2   -1    0    0  502    0  0.00000000000E+00  0.00000000000E+00  0.68677184954E+03  0.68677184954E+03  0.00000000000E+00 0. -1.
          1   -1    0    0  501    0 -0.00000000000E+00 -0.00000000000E+00 -0.22235502173E+02  0.22235502173E+02  0.00000000000E+00 0. -1.
          2    1    1    2  501    0 -0.89339716769E+01  0.20229351076E+02  0.68104919554E+03  0.68140813705E+03  0.00000000000E+00 0. -1.
          1    1    1    2  502    0  0.89339716769E+01 -0.20229351076E+02 -0.16512848176E+02  0.27599214658E+02  0.00000000000E+00 0. -1.
</event>
<event>
 4    1  0.3767413E+003  0.2196994E+02  0.7546771E-02  0.1505854E+00
          2   -1    0    0  502    0  0.00000000000E+00  0.00000000000E+00  0.83413951123E+03  0.83413951123E+03  0.00000000000E+00 0.  1.
          1   -1    0    0  501    0 -0.00000000000E+00 -0.00000000000E+00 -0.92389971595E+00  0.92389971595E+00  0.00000000000E+00 0.  1.
          2    1    1    2  501    0 -0.19383132305E+02  0.10342756941E+02  0.67184325040E+03  0.67220237396E+03  0.00000000000E+00 0.  1.
          1    1    1    2  502    0  0.19383132305E+02 -0.10342756941E+02  0.16137236111E+03  0.16286103699E+03  0.00000000000E+00 0.  1.
</event>
<event>
 4    1  0.3767413E+003  0.2133473E+02  0.7546771E-02  0.1514539E+00
          2   -1    0    0  502    0  0.00000000000E+00  0.00000000000E+00  0.38048729123E+03  0.38048729123E+03  0.00000000000E+00 0.  1.
          1   -1    0    0  501    0 -0.00000000000E+00 -0.00000000000E+00 -0.34377111385E+03  0.34377111385E+03  0.00000000000E+00 0. -1.
          2    1    1    2  501    0 -0.20992301020E+02  0.38070946882E+01  0.37985665836E+03  0.38045532139E+03  0.00000000000E+00 0.  1.
          1    1    1    2  502    0  0.20992301020E+02 -0.38070946882E+01 -0.34314048097E+03  0.34380308369E+03  0.00000000000E+00 0. -1.
</event>
<event>
 4    1  0.3767413E+003  0.2587098E+02  0.7546771E-02  0.1459291E+00
          2   -1    0    0  502    0  0.00000000000E+00  0.00000000000E+00  0.14686695073E+03  0.14686695073E+03  0.00000000000E+00 0.  1.
          1   -1    0    0  501    0 -0.00000000000E+00 -0.00000000000E+00 -0.33136774173E+02  0.33136774173E+02  0.00000000000E+00 0. -1.
          2    1    1    2  501    0  0.24236017063E+02  0.90511301142E+01  0.14044924773E+03  0.14281210966E+03  0.00000000000E+00 0.  1.
          1    1    1    2  502    0 -0.24236017063E+02 -0.90511301142E+01 -0.26719071174E+02  0.37191615235E+02  0.00000000000E+00 0. -1.
</event>
<event>
 4    1  0.3767413E+003  0.2203080E+02  0.7546771E-02  0.1505041E+00
          2   -1    0    0  502    0  0.00000000000E+00  0.00000000000E+00  0.77926913082E+01  0.77926913082E+01  0.00000000000E+00 0. -1.
          1   -1    0    0  501    0 -0.00000000000E+00 -0.00000000000E+00 -0.62589172747E+02  0.62589172747E+02  0.00000000000E+00 0.  1.
          2    1    1    2  501    0  0.32262744872E+01  0.21793290502E+02 -0.24939090781E+02  0.33276337042E+02  0.00000000000E+00 0. -1.
          1    1    1    2  502    0 -0.32262744872E+01 -0.21793290502E+02 -0.29857390658E+02  0.37105527013E+02  0.00000000000E+00 0.  1.
</event>
<event>
 4    1  0.3767413E+003  0.2037562E+02  0.7546771E-02  0.1528369E+00
          2   -1    0    0  502    0  0.00000000000E+00  0.00000000000E+00  0.65968633181E+02  0.65968633181E+02  0.00000000000E+00 0.  1.
          1   -1    0    0  501    0 -0.00000000000E+00 -0.00000000000E+00 -0.46600840408E+03  0.46600840408E+03  0.00000000000E+00 0.  1.
          2    1    1    2  501    0 -0.10355270488E+02 -0.17548056579E+02  0.64166457572E+02  0.67323845656E+02  0.00000000000E+00 0.  1.
          1    1    1    2  502    0  0.10355270488E+02  0.17548056579E+02 -0.46420622847E+03  0.46465319161E+03  0.00000000000E+00 0.  1.
</event>
<event>
 4    1  0.3767413E+003  0.4981170E+02  0.7546771E-02  0.1298991E+00
          2   -1    0    0  502    0  0.00000000000E+00  0.00000000000E+00  0.65402544531E+03  0.65402544531E+03  0.00000000000E+00 0. -1.
          1   -1    0    0  501    0 -0.00000000000E+00 -0.00000000000E+00 -0.49050091006E+01  0.49050091006E+01  0.00000000000E+00 0. -1.
          2    1    1    2  501    0  0.43594149711E+02 -0.24098873919E+02  0.48137910356E+03  0.48394942603E+03  0.00000000000E+00 0. -1.
          1    1    1    2  502    0 -0.43594149711E+02  0.24098873919E+02  0.16774133265E+03  0.17498102838E+03  0.00000000000E+00 0. -1.
</event>
<event>
 4    1  0.3767413E+003  0.3272441E+02  0.7546771E-02  0.1397308E+00
          2   -1    0    0  502    0  0.00000000000E+00  0.00000000000E+00  0.52687654706E+03  0.52687654706E+03  0.00000000000E+00 0. -1.
          1   -1    0    0  501    0 -0.00000000000E+00 -0.00000000000E+00 -0.28374274556E+03  0.28374274556E+03  0.00000000000E+00 0.  1.
          2    1    1    2  501    0  0.30841403223E+02  0.10940512424E+02  0.52542227125E+03  0.52644035758E+03  0.00000000000E+00 0. -1.
          1    1    1    2  502    0 -0.30841403223E+02 -0.10940512424E+02 -0.28228846976E+03  0.28417893504E+03  0.00000000000E+00 0.  1.
</event>
<event>
 4    1  0.3767413E+003  0.3332978E+02  0.7546771E-02  0.1392701E+00
          2   -1    0    0  502    0  0.00000000000E+00  0.00000000000E+00  0.83622003610E+03  0.83622003610E+03  0.00000000000E+00 0. -1.
          1   -1    0    0  501    0 -0.00000000000E+00 -0.00000000000E+00 -0.32430607807E+02  0.32430607807E+02  0.00000000000E+00 0. -1.
          2    1    1    2  501    0  0.32387848733E+02 -0.78677304867E+01  0.82723144423E+03  0.82790261279E+03  0.00000000000E+00 0. -1.
          1    1    1    2  502    0 -0.32387848733E+02  0.78677304867E+01 -0.23442015943E+02  0.40748031118E+02  0.00000000000E+00 0. -1.
</event>
<event>
 4    1  0.3767413E+003  0.5643733E+02  0.7546771E-02  0.1272443E+00
          2   -1    0    0  502    0  0.00000000000E+00  0.00000000000E+00  0.39044042114E+02  0.39044042114E+02  0.00000000000E+00 0.  1.
          1   -1    0    0  501    0 -0.00000000000E+00 -0.00000000000E+00 -0.34517663713E+03  0.34517663713E+03  0.00000000000E+00 0.  1.
          2    1    1    2  501    0  0.19396647212E+02 -0.52999450764E+02  0.14814431393E+02  0.58349285187E+02  0.00000000000E+00 0.  1.
          1    1    1    2  502    0 -0.19396647212E+02  0.52999450764E+02 -0.32094702641E+03  0.32587139406E+03  0.00000000000E+00 0.  1.
</event>
<event>
 4    1  0.3767413E+003  0.4805508E+02  0.7546771E-02  0.1306833E+00
          2   -1    0    0  502    0  0.00000000000E+00  0.00000000000E+00  0.15360827299E+04  0.15360827299E+04  0.00000000000E+00 0. -1.
          1   -1    0    0  501    0 -0.00000000000E+00 -0.00000000000E+00 -0.16588861014E+01  0.16588861014E+01  0.00000000000E+00 0.  1.
          2    1    1    2  501    0  0.36573098665E+02  0.31172083437E+02  0.10026312884E+04  0.10037822428E+04  0.00000000000E+00 0. -1.
          1    1    1    2  502    0 -0.36573098665E+02 -0.31172083437E+02  0.53179255532E+03  0.53395937319E+03  0.00000000000E+00 0.  1.
</event>
<event>
 4    1  0.3767413E+003  0.3967233E+02  0.7546771E-02  0.1350417E+00
          2   -1    0    0  502    0  0.00000000000E+00  0.00000000000E+00  0.12647252240E+02  0.12647252240E+02  0.00000000000E+00 0. -1.
          1   -1    0    0  501    0 -0.00000000000E+00 -0.00000000000E+00 -0.38981548579E+03  0.38981548579E+03  0.00000000000E+00 0.  1.
          2    1    1    2  501    0  0.17917317123E+02  0.35395810030E+02 -0.22552025184E+02  0.45634279445E+02  0.00000000000E+00 0. -1.
          1    1    1    2  502    0 -0.17917317123E+02 -0.35395810030E+02 -0.35461620837E+03  0.35682845859E+03  0.00000000000E+00 0.  1.
</event>
<event>
 4    1  0.3767413E+003  0.3908862E+02  0.7546771E-02  0.1353911E+00
          2   -1    0    0  502    0  0.00000000000E+00  0.00000000000E+00  0.14675885462E+04  0.14675885462E+04  0.00000000000E+00 0. -1.
          1   -1    0    0  501    0 -0.00000000000E+00 -0.00000000000E+00 -0.25433558637E+01  0.25433558637E+01  0.00000000000E+00 0. -1.
          2    1    1    2  501    0 -0.37155269697E+02 -0.12141079576E+02  0.12974509467E+04  0.12980396292E+04  0.00000000000E+00 0. -1.
          1    1    1    2  502    0  0.37155269697E+02  0.12141079576E+02  0.16759424363E+03  0.17209227285E+03  0.00000000000E+00 0. -1.
</event>
<event>
 4    1  0.3767413E+003  0.2185786E+02  0.7546771E-02  0.1507361E+00
          2   -1    0    0  502    0  0.00000000000E+00  0.00000000000E+00  0.91001348584E+03  0.91001348584E+03  0.00000000000E+00 0.  1.
          1   -1    0    0  501    0 -0.00000000000E+00 -0.00000000000E+00 -0.37510600920E+01  0.37510600920E+01  0.00000000000E+00 0. -1.
          2    1    1    2  501    0  0.12500191804E+02 -0.17930738078E+02  0.87683549335E+03  0.87710788878E+03  0.00000000000E+00 0.  1.
          1    1    1    2  502    0 -0.12500191804E+02  0.17930738078E+02  0.29426932399E+02  0.36656657152E+02  0.00000000000E+00 0. -1.
</event>
<event>
 4    1  0.3767413E+003  0.3089077E+02  0.7546771E-02  0.1412010E+00
          2   -1    0    0  502    0  0.00000000000E+00  0.00000000000E+00  0.30033611056E+03  0.30033611056E+03  0.00000000000E+00 0.  1.
          1   -1    0    0  501    0 -0.00000000000E+00 -0.00000000000E+00 -0.32795520035E+01  0.32795520035E+01  0.00000000000E+00 0.  1.
          2    1    1    2  501    0 -0.30749184073E+02  0.29542609700E+01  0.17534154293E+03  0.17804183963E+03  0.00000000000E+00 0.  1.
          1    1    1    2  502    0  0.30749184073E+02 -0.29542609700E+01  0.12171501562E+03  0.12557382294E+03  0.00000000000E+00 0.  1.
</event>
<event>
 4    1  0.3767413E+003  0.2310602E+02  0.7546771E-02  0.1491171E+00
          2   -1    0    0  502    0  0.00000000000E+00  0.00000000000E+00  0.67142706681E+01  0.67142706681E+01  0.00000000000E+00 0. -1.
          1   -1    0    0  501    0 -0.00000000000E+00 -0.00000000000E+00 -0.60681005779E+03  0.60681005779E+03  0.00000000000E+00 0. -1.
          2    1    1    2  501    0 -0.22818184709E+02 -0.36357154284E+01 -0.14089999737E+02  0.27063186669E+02  0.00000000000E+00 0. -1.
          1    1    1    2  502    0  0.22818184709E+02  0.36357154284E+01 -0.58600578738E+03  0.58646114179E+03  0.00000000000E+00 0. -1.
</event>
<event>
 4    1  0.3767413E+003  0.3242752E+02  0.7546771E-02  0.1399610E+00
          2   -1    0    0  502    0  0.00000000000E+00  0.00000000000E+00  0.18145251789E+02  0.18145251789E+02  0.00000000000E+00 0. -1.
          1   -1    0    0  501    0 -0.00000000000E+00 -0.00000000000E+00 -0.42035166851E+03  0.42035166851E+03  0.00000000000E+00 0.  1.
          2    1    1    2  501    0 -0.22117391895E+02  0.23714241130E+02  0.24717569772E+01  0.32521590354E+02  0.00000000000E+00 0. -1.
          1    1    1    2  502    0  0.22117391895E+02 -0.23714241130E+02 -0.40467817370E+03  0.40597532994E+03  0.00000000000E+00 0.  1.
</event>
<event>
 4    1  0.3767413E+003  0.2256991E+02  0.7546771E-02  0.1497971E+00
          2   -1    0    0  502    0  0.00000000000E+00  0.00000000000E+00  0.33748700307E+02  0.33748700307E+02  0.00000000000E+00 0.  1.
          1   -1    0    0  501    0 -0.00000000000E+00 -0.00000000000E+00 -0.79930016756E+02  0.79930016756E+02  0.00000000000E+00 0. -1.
          2    1    1    2  501    0  0.60166531894E+01  0.21753176092E+02  0.28101399512E+02  0.36042883351E+02  0.00000000000E+00 0.  1.
          1    1    1    2  502    0 -0.60166531894E+01 -0.21753176092E+02 -0.74282715960E+02  0.77635833712E+02  0.00000000000E+00 0. -1.
</event>
<event>
 4    1  0.3767413E+003  0.2222884E+02  0.7546771E-02  0.1502415E+00
          2   -1    0    0  502    0  0.00000000000E+00  0.00000000000E+00  0.15614583857E+02  0.15614583857E+02  0.00000000000E+00 0. -1.
          1   -1    0    0  501    0 -0.00000000000E+00 -0.00000000000E+00 -0.51233941895E+03  0.51233941895E+03  0.00000000000E+00 0.  1.
          2    1    1    2  501    0 -0.20642268435E+02  0.82473171022E+01  0.73323282650E+01  0.23406933231E+02  0.00000000000E+00 0. -1.
          1    1    1    2  502    0  0.20642268435E+02 -0.82473171022E+01 -0.50405716335E+03  0.50454706957E+03  0.00000000000E+00 0.  1.
</event>
<event>
 4    1  0.3767413E+003  0.2191628E+02  0.7546771E-02  0.1506574E+00
          2   -1    0    0  502    0  0.00000000000E+00  0.00000000000E+00  0.55224815848E+03  0.55224815848E+03  0.00000000000E+00 0. -1.
          1   -1    0    0  501    0 -0.00000000000E+00 -0.00000000000E+00 -0.66848294461E+01  0.66848294461E+01  0.00000000000E+00 0.  1.
          2    1    1    2  501    0  0.12945464404E+02 -0.17684413967E+02  0.53343424029E+03  0.53388426860E+03  0.00000000000E+00 0. -1.
          1    1    1    2  502    0 -0.12945464404E+02  0.17684413967E+02  0.12129088741E+02  0.25048719323E+02  0.00000000000E+00 0.  1.
</event>
<event>
 4    1  0.3767413E+003  0.3291542E+02  0.7546771E-02  0.1395842E+00
          2   -1    0    0  502    0  0.00000000000E+00  0.00000000000E+00  0.11236273049E+04  0.11236273049E+04  0.00000000000E+00 0.  1.
          1   -1    0    0  501    0 -0.00000000000E+00 -0.00000000000E+00 -0.12418895534E+02  0.12418895534E+02  0.00000000000E+00 0. -1.
          2    1    1    2  501    0 -0.37926484559E+01 -0.32696186502E+02  0.11011307549E+04  0.11016226051E+04  0.00000000000E+00 0.  1.
          1    1    1    2  502    0  0.37926484559E+01  0.32696186502E+02  0.10077654496E+02  0.34423595312E+02  0.00000000000E+00 0. -1.
</event>
<event>
 4    1  0.3767413E+003  0.5447738E+02  0.7546771E-02  0.1279846E+00
          2   -1    0    0  502    0  0.00000000000E+00  0.00000000000E+00  0.48291481356E+03  0.48291481356E+03  0.00000000000E+00 0.  1.
          1   -1    0    0  501    0 -0.00000000000E+00 -0.00000000000E+00 -0.40261498476E+02  0.40261498476E+02  0.00000000000E+00 0.  1.
          2    1    1    2  501    0 -0.50542586354E+02  0.20328114415E+02  0.46212402063E+03  0.46532396856E+03  0.00000000000E+00 0.  1.
          1    1    1    2  502    0  0.50542586354E+02 -0.20328114415E+02 -0.19470705549E+02  0.57852343475E+02  0.00000000000E+00 0.  1.
</event>
<event>
 4    1  0.3767413E+003  0.2776829E+02  0.7546771E-02  0.1440039E+00
          2   -1    0    0  502    0  0.00000000000E+00  0.00000000000E+00  0.14309004557E+02  0.14309004557E+02  0.00000000000E+00 0. -1.
          1   -1    0    0  501    0 -0.00000000000E+00 -0.00000000000E+00 -0.79657569492E+02  0.79657569492E+02  0.00000000000E+00 0.  1.
          2    1    1    2  501    0  0.23847388286E+02  0.14226040794E+02 -0.59511923395E+01  0.28398853058E+02  0.00000000000E+00 0. -1.
          1    1    1    2  502    0 -0.23847388286E+02 -0.14226040794E+02 -0.59397372596E+02  0.65567720991E+02  0.00000000000E+00 0.  1.
</event>
<event>
 4    1  0.3767413E+003  0.5916628E+02  0.7546771E-02  0.1262692E+00
          2   -1    0    0  502    0  0.00000000000E+00  0.00000000000E+00  0.15562818772E+03  0.15562818772E+03  0.00000000000E+00 0.  1.
          1   -1    0    0  501    0 -0.00000000000E+00 -0.00000000000E+00 -0.39468621068E+02  0.39468621068E+02  0.00000000000E+00 0.  1.
          2    1    1    2  501    0 -0.27531831422E+02  0.52370290651E+02  0.12205304000E+03  0.13563772947E+03  0.00000000000E+00 0.  1.
          1    1    1    2  502    0  0.27531831422E+02 -0.52370290651E+02 -0.58934733489E+01  0.59459079310E+02  0.00000000000E+00 0.  1.
</event>
<event>
 4    1  0.3767413E+003  0.2619677E+02  0.7546771E-02  0.1455848E+00
          2   -1    0    0  502    0  0.00000000000E+00  0.00000000000E+00  0.39500724032E+03  0.39500724032E+03  0.00000000000E+00 0.  1.
          1   -1    0    0  501    0 -0.00000000000E+00 -0.00000000000E+00 -0.20994599775E+01  0.20994599775E+01  0.00000000000E+00 0.  1.
          2    1    1    2  501    0  0.10325796164E+02  0.24075894090E+02  0.27891253731E+03  0.28014009747E+03  0.00000000000E+00 0.  1.
          1    1    1    2  502    0 -0.10325796164E+02 -0.24075894090E+02  0.11399524304E+03  0.11696660283E+03  0.00000000000E+00 0.  1.
</event>
<event>
 4    1  0.3767413E+003  0.2669457E+02  0.7546771E-02  0.1450701E+00
          2   -1    0    0  502    0  0.00000000000E+00  0.00000000000E+00  0.17070201858E+03  0.17070201858E+03  0.00000000000E+00 0.  1.
          1   -1    0    0  501    0 -0.00000000000E+00 -0.00000000000E+00 -0.23318595344E+03  0.23318595344E+03  0.00000000000E+00 0.  1.
          2    1    1    2  501    0 -0.18750192526E+02 -0.19000792783E+02  0.16888624167E+03  0.17098293035E+03  0.00000000000E+00 0.  1.
          1    1    1    2  502    0  0.18750192526E+02  0.19000792783E+02 -0.23137017653E+03  0.23290504166E+03  0.00000000000E+00 0.  1.
</event>
<event>
 4    1  0.3767413E+003  0.4295319E+02  0.7546771E-02  0.1331998E+00
          2   -1    0    0  502    0  0.00000000000E+00  0.00000000000E+00  0.21219531856E+02  0.21219531856E+02  0.00000000000E+00 0.  1.
          1   -1    0    0  501    0 -0.00000000000E+00 -0.00000000000E+00 -0.22574879443E+03  0.22574879443E+03  0.00000000000E+00 0. -1.
          2    1    1    2  501    0 -0.36853747765E+02  0.22063050458E+02 -0.54377564265E+01  0.43296028857E+02  0.00000000000E+00 0.  1.
          1    1    1    2  502    0  0.36853747765E+02 -0.22063050458E+02 -0.19909150615E+03  0.20367229743E+03  0.00000000000E+00 0. -1.
</event>
<event>
 4    1  0.3767413E+003  0.2570808E+02  0.7546771E-02  0.1461036E+00
          2   -1    0    0  502    0  0.00000000000E+00  0.00000000000E+00  0.30735584546E+04  0.30735584546E+04  0.00000000000E+00 0. -1.
          1   -1    0    0  501    0 -0.00000000000E+00 -0.00000000000E+00 -0.21629654932E+00  0.21629654932E+00  0.00000000000E+00 0. -1.
          2    1    1    2  501    0 -0.21009928525E+02  0.14815144778E+02  0.16543018791E+04  0.16545016206E+04  0.00000000000E+00 0. -1.
          1    1    1    2  502    0  0.21009928525E+02 -0.14815144778E+02  0.14190402790E+04  0.14192731305E+04  0.00000000000E+00 0. -1.
</event>
<event>
 4    1  0.3767413E+003  0.2879845E+02  0.7546771E-02  0.1430333E+00
          2   -1    0    0  502    0  0.00000000000E+00  0.00000000000E+00  0.13122857463E+04  0.13122857463E+04  0.00000000000E+00 0.  1.
          1   -1    0    0  501    0 -0.00000000000E+00 -0.00000000000E+00 -0.64540610343E+00  0.64540610343E+00  0.00000000000E+00 0.  1.
          2    1    1    2  501    0  0.12373552653E+02 -0.26004709879E+02  0.56116814071E+03  0.56190660424E+03  0.00000000000E+00 0.  1.
          1    1    1    2  502    0 -0.12373552653E+02  0.26004709879E+02  0.75047219945E+03  0.75102454813E+03  0.00000000000E+00 0.  1.
</event>
<event>
 4    1  0.3767413E+003  0.2020299E+02  0.7546771E-02  0.1530955E+00
          2   -1    0    0  502    0  0.00000000000E+00  0.00000000000E+00  0.22344828646E+01  0.22344828646E+01  0.00000000000E+00 0.  1.
          1   -1    0    0  501    0 -0.00000000000E+00 -0.00000000000E+00 -0.21655164579E+03  0.21655164579E+03  0.00000000000E+00 0.  1.
          2    1    1    2  501    0 -0.17270017028E+02 -0.10483664642E+02 -0.63884636370E+02  0.67003040801E+02  0.00000000000E+00 0.  1.
          1    1    1    2  502    0  0.17270017028E+02  0.10483664642E+02 -0.15043252655E+03  0.15178308785E+03  0.00000000000E+00 0.  1.
</event>
<event>
 4    1  0.3767413E+003  0.3201698E+02  0.7546771E-02  0.1402842E+00
          2   -1    0    0  502    0  0.00000000000E+00  0.00000000000E+00  0.17398803357E+04  0.17398803357E+04  0.00000000000E+00 0.  1.
          1   -1    0    0  501    0 -0.00000000000E+00 -0.00000000000E+00 -0.22202566749E+01  0.22202566749E+01  0.00000000000E+00 0. -1.
          2    1    1    2  501    0 -0.29524351139E+02 -0.12385459070E+02  0.16154163757E+04  0.16157336271E+04  0.00000000000E+00 0.  1.
          1    1    1    2  502    0  0.29524351139E+02  0.12385459070E+02  0.12224370331E+03  0.12636696525E+03  0.00000000000E+00 0. -1.
</event>
<event>
 4    1  0.3767413E+003  0.2039564E+02  0.7546771E-02  0.1528071E+00
          2   -1    0    0  502    0  0.00000000000E+00  0.00000000000E+00  0.18308838017E+03  0.18308838017E+03  0.00000000000E+00 0.  1.
          1   -1    0    0  501    0 -0.00000000000E+00 -0.00000000000E+00 -0.52431904641E+03  0.52431904641E+03  0.00000000000E+00 0.  1.
          2    1    1    2  501    0 -0.19019118558E+02  0.73658289518E+01  0.18232119656E+03  0.18345844495E+03  0.00000000000E+00 0.  1.
          1    1    1    2  502    0  0.19019118558E+02 -0.73658289518E+01 -0.52355186280E+03  0.52394898163E+03  0.00000000000E+00 0.  1.
</event>
<event>
 4    1  0.3767413E+003  0.2035257E+02  0.7546771E-02  0.1528712E+00
          2   -1    0    0  502    0  0.00000000000E+00  0.00000000000E+00  0.66938966022E+03  0.66938966022E+03  0.00000000000E+00 0.  1.
          1   -1    0    0  501    0 -0.00000000000E+00 -0.00000000000E+00 -0.84914349094E+00  0.84914349094E+00  0.00000000000E+00 0.  1.
          2    1    1    2  501    0  0.61874508463E+01 -0.19389240896E+02  0.50880604328E+03  0.50921293865E+03  0.00000000000E+00 0.  1.
          1    1    1    2  502    0 -0.61874508463E+01  0.19389240896E+02  0.15973447344E+03  0.16102586505E+03  0.00000000000E+00 0.  1.
</event>
<event>
 4    1  0.3767413E+003  0.2205827E+02  0.7546771E-02  0.1504675E+00
          2   -1    0    0  502    0  0.00000000000E+00  0.00000000000E+00  0.30698793531E+02  0.30698793531E+02  0.00000000000E+00 0.  1.
          1   -1    0    0  501    0 -0.00000000000E+00 -0.00000000000E+00 -0.46960596691E+03  0.46960596691E+03  0.00000000000E+00 0. -1.
          2    1    1    2  501    0  0.40403566927E+01 -0.21685087028E+02  0.26441098402E+02  0.34433982725E+02  0.00000000000E+00 0.  1.
          1    1    1    2  502    0 -0.40403566927E+01  0.21685087028E+02 -0.46534827178E+03  0.46587077772E+03  0.00000000000E+00 0. -1.
</event>
<event>
 4    1  0.3767413E+003  0.2660056E+02  0.7546771E-02  0.1451662E+00
          2   -1    0    0  502    0  0.00000000000E+00  0.00000000000E+00  0.52298362023E+01  0.52298362023E+01  0.00000000000E+00 0.  1.
          1   -1    0    0  501    0 -0.00000000000E+00 -0.00000000000E+00 -0.10519787397E+04  0.10519787397E+04  0.00000000000E+00 0. -1.
          2    1    1    2  501    0  0.23462810736E+02 -0.12533397078E+02 -0.29932453451E+02  0.40044241777E+02  0.00000000000E+00 0.  1.
          1    1    1    2  502    0 -0.23462810736E+02  0.12533397078E+02 -0.10168164500E+04  0.10171643341E+04  0.00000000000E+00 0. -1.
</event>
<event>
 4    1  0.3767413E+003  0.2760553E+02  0.7546771E-02  0.1441618E+00
          2   -1    0    0  502    0  0.00000000000E+00  0.00000000000E+00  0.10755010610E+03  0.10755010610E+03  0.00000000000E+00 0. -1.
          1   -1    0    0  501    0 -0.00000000000E+00 -0.00000000000E+00 -0.99394068157E+03  0.99394068157E+03  0.00000000000E+00 0. -1.
          2    1    1    2  501    0  0.26716392011E+02  0.69498027532E+01  0.10558349777E+03  0.10913267321E+03  0.00000000000E+00 0. -1.
          1    1    1    2  502    0 -0.26716392011E+02 -0.69498027532E+01 -0.99197407324E+03  0.99235811447E+03  0.00000000000E+00 0. -1.
</event>
<event>
 4    1  0.3767413E+003  0.3628059E+02  0.7546771E-02  0.1371777E+00
          2   -1    0    0  502    0  0.00000000000E+00  0.00000000000E+00  0.22147751589E+04  0.22147751589E+04  0.00000000000E+00 0. -1.
          1   -1    0    0  501    0 -0.00000000000E+00 -0.00000000000E+00 -0.68812289855E+00  0.68812289855E+00  0.00000000000E+00 0. -1.
          2    1    1    2  501    0  0.36120620190E+02 -0.34032065956E+01  0.15160347780E+04  0.15164688355E+04  0.00000000000E+00 0. -1.
          1    1    1    2  502    0 -0.36120620190E+02  0.34032065956E+01  0.69805225802E+03  0.69899444629E+03  0.00000000000E+00 0. -1.
</event>
<event>
 4    1  0.3767413E+003  0.2387661E+02  0.7546771E-02  0.1481774E+00
          2   -1    0    0  502    0  0.00000000000E+00  0.00000000000E+00  0.57494980308E+02  0.57494980308E+02  0.00000000000E+00 0. -1.
          1   -1    0    0  501    0 -0.00000000000E+00 -0.00000000000E+00 -0.85516092198E+03  0.85516092198E+03  0.00000000000E+00 0.  1.
          2    1    1    2  501    0 -0.10815293420E+02  0.21286657221E+02  0.54841725736E+02  0.59813938418E+02  0.00000000000E+00 0. -1.
          1    1    1    2  502    0  0.10815293420E+02 -0.21286657221E+02 -0.85250766741E+03  0.85284196387E+03  0.00000000000E+00 0.  1.
</event>
<event>
 4    1  0.3767413E+003  0.2001471E+02  0.7546771E-02  0.1533811E+00
          2   -1    0    0  502    0  0.00000000000E+00  0.00000000000E+00  0.61217220799E+01  0.61217220799E+01  0.00000000000E+00 0. -1.
          1   -1    0    0  501    0 -0.00000000000E+00 -0.00000000000E+00 -0.38011598228E+03  0.38011598228E+03  0.00000000000E+00 0.  1.
          2    1    1    2  501    0 -0.20010072148E+02 -0.43099838865E+00 -0.11285587176E+02  0.22977232751E+02  0.00000000000E+00 0. -1.
          1    1    1    2  502    0  0.20010072148E+02  0.43099838865E+00 -0.36270867302E+03  0.36326047161E+03  0.00000000000E+00 0.  1.
</event>
<event>
 4    1  0.3767413E+003  0.2114557E+02  0.7546771E-02  0.1517197E+00
          2   -1    0    0  502    0  0.00000000000E+00  0.00000000000E+00  0.17410043195E+01  0.17410043195E+01  0.00000000000E+00 0.  1.
          1   -1    0    0  501    0 -0.00000000000E+00 -0.00000000000E+00 -0.64975943599E+03  0.64975943599E+03  0.00000000000E+00 0. -1.
          2    1    1    2  501    0  0.20672642505E+02 -0.44471419412E+01 -0.70690137503E+02  0.73785030729E+02  0.00000000000E+00 0.  1.
          1    1    1    2  502    0 -0.20672642505E+02  0.44471419412E+01 -0.57732829417E+03  0.57771540958E+03  0.00000000000E+00 0. -1.
</event>
<event>
 4    1  0.3767413E+003  0.2429053E+02  0.7546771E-02  0.1476899E+00
          2   -1    0    0  502    0  0.00000000000E+00  0.00000000000E+00  0.15305064548E+04  0.15305064548E+04  0.00000000000E+00 0.  1.
          1   -1    0    0  501    0 -0.00000000000E+00 -0.00000000000E+00 -0.78113647907E+02  0.78113647907E+02  0.00000000000E+00 0. -1.
          2    1    1    2  501    0  0.19284297064E+02 -0.14769763537E+02  0.15285192512E+04  0.15287122460E+04  0.00000000000E+00 0.  1.
          1    1    1    2  502    0 -0.19284297064E+02  0.14769763537E+02 -0.76126444306E+02  0.79907856628E+02  0.00000000000E+00 0. -1.
</event>
<event>
 4    1  0.3767413E+003  0.3069486E+02  0.7546771E-02  0.1413652E+00
          2   -1    0    0  502    0  0.00000000000E+00  0.00000000000E+00  0.24554903952E+03  0.24554903952E+03  0.00000000000E+00 0. -1.
          1   -1    0    0  501    0 -0.00000000000E+00 -0.00000000000E+00 -0.38801963577E+02  0.38801963577E+02  0.00000000000E+00 0.  1.
          2    1    1    2  501    0  0.18211726923E+02 -0.24708442769E+02  0.23833643581E+03  0.24030487048E+03  0.00000000000E+00 0. -1.
          1    1    1    2  502    0 -0.18211726923E+02  0.24708442769E+02 -0.31589359868E+02  0.44046132616E+02  0.00000000000E+00 0.  1.
</event>
<event>
 4    1  0.3767413E+003  0.2444456E+02  0.7546771E-02  0.1475114E+00
          2   -1    0    0  502    0  0.00000000000E+00  0.00000000000E+00  0.90798642184E+00  0.90798642184E+00  0.00000000000E+00 0.  1.
          1   -1    0    0  501    0 -0.00000000000E+00 -0.00000000000E+00 -0.78464881729E+03  0.78464881729E+03  0.00000000000E+00 0.  1.
          2    1    1    2  501    0 -0.68305188765E+00  0.24435015972E+02 -0.23412506980E+03  0.23539771637E+03  0.00000000000E+00 0.  1.
          1    1    1    2  502    0  0.68305188765E+00 -0.24435015972E+02 -0.54961576108E+03  0.55015908735E+03  0.00000000000E+00 0.  1.
</event>
<event>
 4    1  0.3767413E+003  0.2238338E+02  0.7546771E-02  0.1500390E+00
          2   -1    0    0  502    0  0.00000000000E+00  0.00000000000E+00  0.15028006369E+02  0.15028006369E+02  0.00000000000E+00 0.  1.
          1   -1    0    0  501    0 -0.00000000000E+00 -0.00000000000E+00 -0.51308772717E+02  0.51308772717E+02  0.00000000000E+00 0. -1.
          2    1    1    2  501    0  0.17991480533E+02 -0.13316241667E+02  0.14888036669E+01  0.22432837544E+02  0.00000000000E+00 0.  1.
          1    1    1    2  502    0 -0.17991480533E+02  0.13316241667E+02 -0.37769570015E+02  0.43903941543E+02  0.00000000000E+00 0. -1.
</event>
<event>
 4    1  0.3767413E+003  0.2089961E+02  0.7546771E-02  0.1520703E+00
          2   -1    0    0  502    0  0.00000000000E+00  0.00000000000E+00  0.34327725551E+03  0.34327725551E+03  0.00000000000E+00 0.  1.
          1   -1    0    0  501    0 -0.00000000000E+00 -0.00000000000E+00 -0.18121656845E+01  0.18121656845E+01  0.00000000000E+00 0. -1.
          2    1    1    2  501    0 -0.54050665509E+01 -0.20188587152E+02  0.26489898990E+03  0.26572216438E+03  0.00000000000E+00 0.  1.
          1    1    1    2  502    0  0.54050665509E+01  0.20188587152E+02  0.76566099925E+02  0.79367256809E+02  0.00000000000E+00 0. -1.
</event>
<event>
 4    1  0.3767413E+003  0.2302802E+02  0.7546771E-02  0.1492147E+00
          2   -1    0    0  502    0  0.00000000000E+00  0.00000000000E+00  0.48321312430E+01  0.48321312430E+01  0.00000000000E+00 0. -1.
          1   -1    0    0  501    0 -0.00000000000E+00 -0.00000000000E+00 -0.13738967727E+03  0.13738967727E+03  0.00000000000E+00 0. -1.
          2    1    1    2  501    0  0.16622144116E+02 -0.15937187265E+02 -0.34379157971E+02  0.41378933236E+02  0.00000000000E+00 0. -1.
          1    1    1    2  502    0 -0.16622144116E+02  0.15937187265E+02 -0.98178388058E+02  0.10084287528E+03  0.00000000000E+00 0. -1.
</event>
<event>
 4    1  0.3767413E+003  0.2432306E+02  0.7546771E-02  0.1476521E+00
          2   -1    0    0  502    0  0.00000000000E+00  0.00000000000E+00  0.14390788615E+01  0.14390788615E+01  0.00000000000E+00 0. -1.
          1   -1    0    0  501    0 -0.00000000000E+00 -0.00000000000E+00 -0.45559373075E+03  0.45559373075E+03  0.00000000000E+00 0. -1.
          2    1    1    2  501    0  0.24932524377E+01  0.24194933597E+02 -0.15566745383E+03  0.15755623536E+03  0.00000000000E+00 0. -1.
          1    1    1    2  502    0 -0.24932524377E+01 -0.24194933597E+02 -0.29848719806E+03  0.29947657425E+03  0.00000000000E+00 0. -1.
</event>
<event>
 4    1  0.3767413E+003  0.2991868E+02  0.7546771E-02  0.1420305E+00
          2   -1    0    0  502    0  0.00000000000E+00  0.00000000000E+00  0.10475041298E+04  0.10475041298E+04  0.00000000000E+00 0. -1.
          1   -1    0    0  501    0 -0.00000000000E+00 -0.00000000000E+00 -0.29201594599E+01  0.29201594599E+01  0.00000000000E+00 0. -1.
          2    1    1    2  501    0  0.22080859311E+02  0.20188192661E+02  0.96402240449E+03  0.96448655969E+03  0.00000000000E+00 0. -1.
          1    1    1    2  502    0 -0.22080859311E+02 -0.20188192661E+02  0.80561565853E+02  0.85937729569E+02  0.00000000000E+00 0. -1.
</event>
<event>
 4    1  0.3767413E+003  0.3060805E+02  0.7546771E-02  0.1414385E+00
          2   -1    0    0  502    0  0.00000000000E+00  0.00000000000E+00  0.87629213827E+01  0.87629213827E+01  0.00000000000E+00 0. -1.
          1   -1    0    0  501    0 -0.00000000000E+00 -0.00000000000E+00 -0.77920494611E+03  0.77920494611E+03  0.00000000000E+00 0.  1.
          2    1    1    2  501    0  0.20734120127E+02  0.22515523669E+02 -0.19262151241E+02  0.36164665268E+02  0.00000000000E+00 0. -1.
          1    1    1    2  502    0 -0.20734120127E+02 -0.22515523669E+02 -0.75117987349E+03  0.75180320223E+03  0.00000000000E+00 0.  1.
</event>
<event>
 4    1  0.3767413E+003  0.2067702E+02  0.7546771E-02  0.1523927E+00
          2   -1    0    0  502    0  0.00000000000E+00  0.00000000000E+00  0.98489669035E+02  0.98489669035E+02  0.00000000000E+00 0.  1.
          1   -1    0    0  501    0 -0.00000000000E+00 -0.00000000000E+00 -0.40700704692E+03  0.40700704692E+03  0.00000000000E+00 0. -1.
          2    1    1    2  501    0 -0.20655228846E+02 -0.94903176360E+00  0.97138205674E+02  0.99314501165E+02  0.00000000000E+00 0.  1.
          1    1    1    2  502    0  0.20655228846E+02  0.94903176360E+00 -0.40565558356E+03  0.40618221479E+03  0.00000000000E+00 0. -1.
</event>
<event>
 4    1  0.3767413E+003  0.2683050E+02  0.7546771E-02  0.1449318E+00
          2   -1    0    0  502    0  0.00000000000E+00  0.00000000000E+00  0.49504306341E+02  0.49504306341E+02  0.00000000000E+00 0.  1.
          1   -1    0    0  501    0 -0.00000000000E+00 -0.00000000000E+00 -0.15363593281E+03  0.15363593281E+03  0.00000000000E+00 0. -1.
          2    1    1    2  501    0 -0.10154980100E+02  0.24834498295E+02  0.44578020898E+02  0.52029567302E+02  0.00000000000E+00 0.  1.
          1    1    1    2  502    0  0.10154980100E+02 -0.24834498295E+02 -0.14870964737E+03  0.15111067185E+03  0.00000000000E+00 0. -1.
</event>
<event>
 4    1  0.3767413E+003  0.2275926E+02  0.7546771E-02  0.1495543E+00
          2   -1    0    0  502    0  0.00000000000E+00  0.00000000000E+00  0.85748489566E+03  0.85748489566E+03  0.00000000000E+00 0. -1.
          1   -1    0    0  501    0 -0.00000000000E+00 -0.00000000000E+00 -0.80015562480E+00  0.80015562480E+00  0.00000000000E+00 0. -1.
          2    1    1    2  501    0  0.22256053520E+02 -0.47593977563E+01  0.64078099154E+03  0.64118504575E+03  0.00000000000E+00 0. -1.
          1    1    1    2  502    0 -0.22256053520E+02  0.47593977563E+01  0.21590374850E+03  0.21710000553E+03  0.00000000000E+00 0. -1.
</event>
<event>
 4    1  0.3767413E+003  0.2811725E+02  0.7546771E-02  0.1436697E+00
          2   -1    0    0  502    0  0.00000000000E+00  0.00000000000E+00  0.56611585095E+02  0.56611585095E+02  0.00000000000E+00 0.  1.
          1   -1    0    0  501    0 -0.00000000000E+00 -0.00000000000E+00 -0.55206059013E+02  0.55206059013E+02  0.00000000000E+00 0.  1.
          2    1    1    2  501    0 -0.28100609701E+02 -0.96707361253E+00  0.49025552232E+02  0.56516230134E+02  0.00000000000E+00 0.  1.
          1    1    1    2  502    0  0.28100609701E+02  0.96707361253E+00 -0.47620026151E+02  0.55301413974E+02  0.00000000000E+00 0.  1.
</event>
<event>
 4    1  0.3767413E+003  0.2277062E+02  0.7546771E-02  0.1495399E+00
          2   -1    0    0  502    0  0.00000000000E+00  0.00000000000E+00  0.57695550450E+03  0.57695550450E+03  0.00000000000E+00 0.  1.
          1   -1    0    0  501    0 -0.00000000000E+00 -0.00000000000E+00 -0.10266151051E+01  0.10266151051E+01  0.00000000000E+00 0. -1.
          2    1    1    2  501    0  0.96363879502E+01  0.20631071917E+02  0.38998024037E+03  0.39064445341E+03  0.00000000000E+00 0.  1.
          1    1    1    2  502    0 -0.96363879502E+01 -0.20631071917E+02  0.18594864902E+03  0.18733766619E+03  0.00000000000E+00 0. -1.
</event>
<event>
 4    1  0.3767413E+003  0.2547687E+02  0.7546771E-02  0.1463539E+00
          2   -1    0    0  502    0  0.00000000000E+00  0.00000000000E+00  0.11946364056E+04  0.11946364056E+04  0.00000000000E+00 0. -1.
          1   -1    0    0  501    0 -0.00000000000E+00 -0.00000000000E+00 -0.28107204909E+02  0.28107204909E+02  0.00000000000E+00 0.  1.
          2    1    1    2  501    0 -0.24844612928E+02  0.56405593121E+01  0.11886985702E+04  0.11889715562E+04  0.00000000000E+00 0. -1.
          1    1    1    2  502    0  0.24844612928E+02 -0.56405593121E+01 -0.22169369559E+02  0.33772054240E+02  0.00000000000E+00 0.  1.
</event>
<event>
 4    1  0.3767413E+003  0.2327592E+02  0.7546771E-02  0.1489062E+00
          2   -1    0    0  502    0  0.00000000000E+00  0.00000000000E+00  0.32438975219E+03  0.32438975219E+03  0.00000000000E+00 0.  1.
          1   -1    0    0  501    0 -0.00000000000E+00 -0.00000000000E+00 -0.12427009183E+04  0.12427009183E+04  0.00000000000E+00 0. -1.
          2    1    1    2  501    0  0.59506692289E+01  0.22502404353E+02  0.32386305589E+03  0.32469839488E+03  0.00000000000E+00 0.  1.
          1    1    1    2  502    0 -0.59506692289E+01 -0.22502404353E+02 -0.12421742220E+04  0.12423922756E+04  0.00000000000E+00 0. -1.
</event>
<event>
 4    1  0.3767413E+003  0.3284543E+02  0.7546771E-02  0.1396378E+00
          2   -1    0    0  502    0  0.00000000000E+00  0.00000000000E+00  0.15666501160E+04  0.15666501160E+04  0.00000000000E+00 0. -1.
          1   -1    0    0  501    0 -0.00000000000E+00 -0.00000000000E+00 -0.38682679459E+03  0.38682679459E+03  0.00000000000E+00 0. -1.
          2    1    1    2  501    0 -0.58965075318E+01 -0.32311821032E+02  0.15657803485E+04  0.15661248106E+04  0.00000000000E+00 0. -1.
          1    1    1    2  502    0  0.58965075318E+01  0.32311821032E+02 -0.38595702711E+03  0.38735209998E+03  0.00000000000E+00 0. -1.
</event>
<event>
 4    1  0.3767413E+003  0.2062187E+02  0.7546771E-02  0.1524733E+00
          2   -1    0    0  502    0  0.00000000000E+00  0.00000000000E+00  0.13870707164E+02  0.13870707164E+02  0.00000000000E+00 0.  1.
          1   -1    0    0  501    0 -0.00000000000E+00 -0.00000000000E+00 -0.12043093452E+03  0.12043093452E+03  0.00000000000E+00 0. -1.
          2    1    1    2  501    0 -0.20420535691E+02  0.28745737895E+01  0.46964788669E+01  0.21149902272E+02  0.00000000000E+00 0.  1.
          1    1    1    2  502    0  0.20420535691E+02 -0.28745737895E+01 -0.11125670623E+03  0.11315173941E+03  0.00000000000E+00 0. -1.
</event>
<event>
 4    1  0.3767413E+003  0.2521776E+02  0.7546771E-02  0.1466382E+00
          2   -1    0    0  502    0  0.00000000000E+00  0.00000000000E+00  0.44794991519E+02  0.44794991519E+02  0.00000000000E+00 0.  1.
          1   -1    0    0  501    0 -0.00000000000E+00 -0.00000000000E+00 -0.74177539587E+02  0.74177539587E+02  0.00000000000E+00 0. -1.
          2    1    1    2  501    0  0.36193256075E+01  0.24956677667E+02  0.38800528256E+02  0.46275439177E+02  0.00000000000E+00 0.  1.
          1    1    1    2  502    0 -0.36193256075E+01 -0.24956677667E+02 -0.68183076324E+02  0.72697091930E+02  0.00000000000E+00 0. -1.
</event>
<event>
 4    1  0.3767413E+003  0.2083348E+02  0.7546771E-02  0.1521656E+00
          2   -1    0    0  502    0  0.00000000000E+00  0.00000000000E+00  0.64208194551E+03  0.64208194551E+03  0.00000000000E+00 0.  1.
          1   -1    0    0  501    0 -0.00000000000E+00 -0.00000000000E+00 -0.19661357095E+02  0.19661357095E+02  0.00000000000E+00 0. -1.
          2    1    1    2  501    0  0.16030145052E+02  0.13306706253E+02  0.63634433193E+03  0.63668527764E+03  0.00000000000E+00 0.  1.
          1    1    1    2  502    0 -0.16030145052E+02 -0.13306706253E+02 -0.13923743515E+02  0.25058024966E+02  0.00000000000E+00 0. -1.
</event>
<event>
 4    1  0.3767413E+003  0.3061853E+02  0.7546771E-02  0.1414296E+00
          2   -1    0    0  502    0  0.00000000000E+00  0.00000000000E+00  0.28662565449E+03  0.28662565449E+03  0.00000000000E+00 0. -1.
          1   -1    0    0  501    0 -0.00000000000E+00 -0.00000000000E+00 -0.30009963270E+02  0.30009963270E+02  0.00000000000E+00 0.  1.
          2    1    1    2  501    0  0.30566586750E+02  0.17827183378E+01  0.27774926030E+03  0.27943182694E+03  0.00000000000E+00 0. -1.
          1    1    1    2  502    0 -0.30566586750E+02 -0.17827183378E+01 -0.21133569071E+02  0.37203790827E+02  0.00000000000E+00 0.  1.
</event>
<event>
 4    1  0.3767413E+003  0.2053963E+02  0.7546771E-02  0.1525940E+00
          2   -1    0    0  502    0  0.00000000000E+00  0.00000000000E+00  0.40690530404E+02  0.40690530404E+02  0.00000000000E+00 0.  1.
          1   -1    0    0  501    0 -0.00000000000E+00 -0.00000000000E+00 -0.11790393343E+02  0.11790393343E+02  0.00000000000E+00 0. -1.
          2    1    1    2  501    0  0.19336950183E+02  0.69252349940E+01  0.23564467867E+02  0.31259569222E+02  0.00000000000E+00 0.  1.
          1    1    1    2  502    0 -0.19336950183E+02 -0.69252349940E+01  0.53356691936E+01  0.21221354524E+02  0.00000000000E+00 0. -1.
</event>
<event>
 4    1  0.3767413E+003  0.5253715E+02  0.7546771E-02  0.1287532E+00
          2   -1    0    0  502    0  0.00000000000E+00  0.00000000000E+00  0.51530208567E+03  0.51530208567E+03  0.00000000000E+00 0.  1.
          1   -1    0    0  501    0 -0.00000000000E+00 -0.00000000000E+00 -0.17269966536E+04  0.17269966536E+04  0.00000000000E+00 0.  1.
          2    1    1    2  501    0  0.19982241680E+02 -0.48588706888E+02  0.51356208150E+03  0.51624235004E+03  0.00000000000E+00 0.  1.
          1    1    1    2  502    0 -0.19982241680E+02  0.48588706888E+02 -0.17252566495E+04  0.17260563893E+04  0.00000000000E+00 0.  1.
</event>
<event>
 4    1  0.3767413E+003  0.2903565E+02  0.7546771E-02  0.1428166E+00
          2   -1    0    0  502    0  0.00000000000E+00  0.00000000000E+00  0.14354636953E+04  0.14354636953E+04  0.00000000000E+00 0.  1.
          1   -1    0    0  501    0 -0.00000000000E+00 -0.00000000000E+00 -0.54625971499E+02  0.54625971499E+02  0.00000000000E+00 0.  1.
          2    1    1    2  501    0  0.12785102668E+02 -0.26069327843E+02  0.14314476735E+04  0.14317421244E+04  0.00000000000E+00 0.  1.
          1    1    1    2  502    0 -0.12785102668E+02  0.26069327843E+02 -0.50609949679E+02  0.58347542458E+02  0.00000000000E+00 0.  1.
</event>
<event>
 4    1  0.3767413E+003  0.2253711E+02  0.7546771E-02  0.1498394E+00
          2   -1    0    0  502    0  0.00000000000E+00  0.00000000000E+00  0.32971934850E+00  0.32971934850E+00  0.00000000000E+00 0. -1.
          1   -1    0    0  501    0 -0.00000000000E+00 -0.00000000000E+00 -0.16752011938E+04  0.16752011938E+04  0.00000000000E+00 0. -1.
          2    1    1    2  501    0 -0.21361849867E+02 -0.71827644589E+01 -0.10750283660E+04  0.10752645760E+04  0.00000000000E+00 0. -1.
          1    1    1    2  502    0  0.21361849867E+02  0.71827644589E+01 -0.59984310842E+03  0.60026633710E+03  0.00000000000E+00 0. -1.
</event>
<event>
 4    1  0.3767413E+003  0.2931295E+02  0.7546771E-02  0.1425662E+00
          2   -1    0    0  502    0  0.00000000000E+00  0.00000000000E+00  0.24169947322E+02  0.24169947322E+02  0.00000000000E+00 0.  1.
          1   -1    0    0  501    0 -0.00000000000E+00 -0.00000000000E+00 -0.45095388395E+02  0.45095388395E+02  0.00000000000E+00 0.  1.
          2    1    1    2  501    0 -0.38355621764E+01  0.29060929696E+02  0.54707206942E+01  0.29819087125E+02  0.00000000000E+00 0.  1.
          1    1    1    2  502    0  0.38355621764E+01 -0.29060929696E+02 -0.26396161767E+02  0.39446248593E+02  0.00000000000E+00 0.  1.
</event>
<event>
 4    1  0.3767413E+003  0.2053890E+02  0.7546771E-02  0.1525951E+00
          2   -1    0    0  502    0  0.00000000000E+00  0.00000000000E+00  0.23457616905E+03  0.23457616905E+03  0.00000000000E+00 0.  1.
          1   -1    0    0  501    0 -0.00000000000E+00 -0.00000000000E+00 -0.50922085010E+02  0.50922085010E+02  0.00000000000E+00 0.  1.
          2    1    1    2  501    0 -0.20526136108E+02 -0.72400031869E+00  0.23203289062E+03  0.23294013988E+03  0.00000000000E+00 0.  1.
          1    1    1    2  502    0  0.20526136108E+02  0.72400031869E+00 -0.48378806578E+02  0.52558114178E+02  0.00000000000E+00 0.  1.
</event>
<event>
 4    1  0.3767413E+003  0.3625309E+02  0.7546771E-02  0.1371961E+00
          2   -1    0    0  502    0  0.00000000000E+00  0.00000000000E+00  0.20450430687E+04  0.20450430687E+04  0.00000000000E+00 0. -1.
          1   -1    0    0  501    0 -0.00000000000E+00 -0.00000000000E+00 -0.48574464902E+03  0.48574464902E+03  0.00000000000E+00 0.  1.
          2    1    1    2  501    0  0.18808668201E+02  0.30992264804E+02  0.20442056956E+04  0.20445271367E+04  0.00000000000E+00 0. -1.
          1    1    1    2  502    0 -0.18808668201E+02 -0.30992264804E+02 -0.48490727592E+03  0.48626058109E+03  0.00000000000E+00 0.  1.
</event>
<event>
 4    1  0.3767413E+003  0.2503438E+02  0.7546771E-02  0.1468419E+00
          2   -1    0    0  502    0  0.00000000000E+00  0.00000000000E+00  0.43479778896E+01  0.43479778896E+01  0.00000000000E+00 0. -1.
          1   -1    0    0  501    0 -0.00000000000E+00 -0.00000000000E+00 -0.22125258780E+03  0.22125258780E+03  0.00000000000E+00 0.  1.
          2    1    1    2  501    0 -0.11891717079E+02  0.22029689360E+02 -0.41859554284E+02  0.48774403463E+02  0.00000000000E+00 0. -1.
          1    1    1    2  502    0  0.11891717079E+02 -0.22029689360E+02 -0.17504505563E+03  0.17682616223E+03  0.00000000000E+00 0.  1.
</event>
<event>
 4    1  0.3767413E+003  0.6475456E+02  0.7546771E-02  0.1244481E+00
          2   -1    0    0  502    0  0.00000000000E+00  0.00000000000E+00  0.15753017047E+02  0.15753017047E+02  0.00000000000E+00 0. -1.
          1   -1    0    0  501    0 -0.00000000000E+00 -0.00000000000E+00 -0.11869223793E+04  0.11869223793E+04  0.00000000000E+00 0. -1.
          2    1    1    2  501    0  0.64735969704E+02  0.15513962814E+01 -0.55950359598E+02  0.85578007356E+02  0.00000000000E+00 0. -1.
          1    1    1    2  502    0 -0.64735969704E+02 -0.15513962814E+01 -0.11152190027E+04  0.11170973890E+04  0.00000000000E+00 0. -1.
</event>
<event>
 4    1  0.3767413E+003  0.2302603E+02  0.7546771E-02  0.1492172E+00
          2   -1    0    0  502    0  0.00000000000E+00  0.00000000000E+00  0.95026684121E+02  0.95026684121E+02  0.00000000000E+00 0.  1.
          1   -1    0    0  501    0 -0.00000000000E+00 -0.00000000000E+00 -0.10051872023E+02  0.10051872023E+02  0.00000000000E+00 0. -1.
          2    1    1    2  501    0  0.44663298059E+01 -0.22588713796E+02  0.77532825979E+02  0.80879770012E+02  0.00000000000E+00 0.  1.
          1    1    1    2  502    0 -0.44663298059E+01  0.22588713796E+02  0.74419861179E+01  0.24198786132E+02  0.00000000000E+00 0. -1.
</event>
<event>
 4    1  0.3767413E+003  0.3098750E+02  0.7546771E-02  0.1411205E+00
          2   -1    0    0  502    0  0.00000000000E+00  0.00000000000E+00  0.40906367002E+02  0.40906367002E+02  0.00000000000E+00 0.  1.
          1   -1    0    0  501    0 -0.00000000000E+00 -0.00000000000E+00 -0.14399440146E+03  0.14399440146E+03  0.00000000000E+00 0.  1.
          2    1    1    2  501    0  0.28186676390E+02 -0.12873860829E+02  0.33035789438E+02  0.45294463264E+02  0.00000000000E+00 0.  1.
          1    1    1    2  502    0 -0.28186676390E+02  0.12873860829E+02 -0.13612382389E+03  0.13960630519E+03  0.00000000000E+00 0.  1.
</event>
<event>
 4    1  0.3767413E+003  0.2510934E+02  0.7546771E-02  0.1467584E+00
          2   -1    0    0  502    0  0.00000000000E+00  0.00000000000E+00  0.15494717037E+01  0.15494717037E+01  0.00000000000E+00 0.  1.
          1   -1    0    0  501    0 -0.00000000000E+00 -0.00000000000E+00 -0.40747519558E+03  0.40747519558E+03  0.00000000000E+00 0.  1.
          2    1    1    2  501    0 -0.60197054374E-01  0.25109268688E+02 -0.19527457531E+03  0.19688229671E+03  0.00000000000E+00 0.  1.
          1    1    1    2  502    0  0.60197054374E-01 -0.25109268688E+02 -0.21065114857E+03  0.21214237057E+03  0.00000000000E+00 0.  1.
</event>
<event>
 4    1  0.3767413E+003  0.2693777E+02  0.7546771E-02  0.1448234E+00
          2   -1    0    0  502    0  0.00000000000E+00  0.00000000000E+00  0.72274419187E+00  0.72274419187E+00  0.00000000000E+00 0.  1.
          1   -1    0    0  501    0 -0.00000000000E+00 -0.00000000000E+00 -0.13895698712E+04  0.13895698712E+04  0.00000000000E+00 0.  1.
          2    1    1    2  501    0  0.22640509106E+01 -0.26842460844E+02 -0.32825506689E+03  0.32935851677E+03  0.00000000000E+00 0.  1.
          1    1    1    2  502    0 -0.22640509106E+01  0.26842460844E+02 -0.10605920601E+04  0.10609340986E+04  0.00000000000E+00 0.  1.
</event>
<event>
 4    1  0.3767413E+003  0.2840702E+02  0.7546771E-02  0.1433964E+00
          2   -1    0    0  502    0  0.00000000000E+00  0.00000000000E+00  0.65756911895E+01  0.65756911895E+01  0.00000000000E+00 0. -1.
          1   -1    0    0  501    0 -0.00000000000E+00 -0.00000000000E+00 -0.13397598005E+03  0.13397598005E+03  0.00000000000E+00 0. -1.
          2    1    1    2  501    0 -0.27530911053E+02 -0.70004874437E+01 -0.84071328957E+02  0.88740893845E+02  0.00000000000E+00 0. -1.
          1    1    1    2  502    0  0.27530911053E+02  0.70004874437E+01 -0.43328959905E+02  0.51810777395E+02  0.00000000000E+00 0. -1.
</event>
<event>
 4    1  0.3767413E+003  0.2050931E+02  0.7546771E-02  0.1526387E+00
          2   -1    0    0  502    0  0.00000000000E+00  0.00000000000E+00  0.11412702493E+04  0.11412702493E+04  0.00000000000E+00 0.  1.
          1   -1    0    0  501    0 -0.00000000000E+00 -0.00000000000E+00 -0.15505374475E+01  0.15505374475E+01  0.00000000000E+00 0.  1.
          2    1    1    2  501    0 -0.20508495544E+02 -0.18260911500E+00  0.10687567133E+04  0.10689534807E+04  0.00000000000E+00 0.  1.
          1    1    1    2  502    0  0.20508495544E+02  0.18260911500E+00  0.70962998634E+02  0.73867306101E+02  0.00000000000E+00 0.  1.
</event>
<event>
 4    1  0.3767413E+003  0.2543860E+02  0.7546771E-02  0.1463956E+00
          2   -1    0    0  502    0  0.00000000000E+00  0.00000000000E+00  0.13936516811E+04  0.13936516811E+04  0.00000000000E+00 0.  1.
          1   -1    0    0  501    0 -0.00000000000E+00 -0.00000000000E+00 -0.83211227288E+02  0.83211227288E+02  0.00000000000E+00 0. -1.
          2    1    1    2  501    0  0.17143202932E+02  0.18794499174E+02  0.13915884982E+04  0.13918209910E+04  0.00000000000E+00 0.  1.
          1    1    1    2  502    0 -0.17143202932E+02 -0.18794499174E+02 -0.81148044396E+02  0.85041917401E+02  0.00000000000E+00 0. -1.
</event>
<event>
 4    1  0.3767413E+003  0.6420620E+02  0.7546771E-02  0.1246174E+00
          2   -1    0    0  502    0  0.00000000000E+00  0.00000000000E+00  0.14569497588E+04  0.14569497588E+04  0.00000000000E+00 0.  1.
          1   -1    0    0  501    0 -0.00000000000E+00 -0.00000000000E+00 -0.11465309427E+02  0.11465309427E+02  0.00000000000E+00 0.  1.
          2    1    1    2  501    0 -0.46154230468E+02 -0.44634330628E+02  0.13599447985E+04  0.13614596180E+04  0.00000000000E+00 0.  1.
          1    1    1    2  502    0  0.46154230468E+02  0.44634330628E+02  0.85539650816E+02  0.10695545018E+03  0.00000000000E+00 0.  1.
</event>
<event>
 4    1  0.3767413E+003  0.2891494E+02  0.7546771E-02  0.1429266E+00
          2   -1    0    0  502    0  0.00000000000E+00  0.00000000000E+00  0.80804721806E+01  0.80804721806E+01  0.00000000000E+00 0.  1.
          1   -1    0    0  501    0 -0.00000000000E+00 -0.00000000000E+00 -0.20339298423E+03  0.20339298423E+03  0.00000000000E+00 0.  1.
          2    1    1    2  501    0 -0.27867586054E+02  0.77117759017E+01 -0.23543327456E+02  0.37287559691E+02  0.00000000000E+00 0.  1.
          1    1    1    2  502    0  0.27867586054E+02 -0.77117759017E+01 -0.17176918459E+03  0.17418589672E+03  0.00000000000E+00 0.  1.
</event>
<event>
 4    1  0.3767413E+003  0.2478236E+02  0.7546771E-02  0.1471253E+00
          2   -1    0    0  502    0  0.00000000000E+00  0.00000000000E+00  0.17538101419E+04  0.17538101419E+04  0.00000000000E+00 0. -1.
          1   -1    0    0  501    0 -0.00000000000E+00 -0.00000000000E+00 -0.43021871717E+02  0.43021871717E+02  0.00000000000E+00 0. -1.
          2    1    1    2  501    0 -0.87276358411E+01 -0.23194691924E+02  0.17501462099E+04  0.17503216623E+04  0.00000000000E+00 0. -1.
          1    1    1    2  502    0  0.87276358411E+01  0.23194691924E+02 -0.39357939737E+02  0.46510351334E+02  0.00000000000E+00 0. -1.
</event>
<event>
 4    1  0.3767413E+003  0.7969149E+02  0.7546771E-02  0.1204566E+00
          2   -1    0    0  502    0  0.00000000000E+00  0.00000000000E+00  0.19874301001E+03  0.19874301001E+03  0.00000000000E+00 0.  1.
          1   -1    0    0  501    0 -0.00000000000E+00 -0.00000000000E+00 -0.59010039703E+02  0.59010039703E+02  0.00000000000E+00 0. -1.
          2    1    1    2  501    0  0.29500227052E+00 -0.79690940636E+02  0.15713126214E+03  0.17618446750E+03  0.00000000000E+00 0.  1.
          1    1    1    2  502    0 -0.29500227052E+00  0.79690940636E+02 -0.17398291833E+02  0.81568582215E+02  0.00000000000E+00 0. -1.
</event>
<event>
 4    1  0.3767413E+003  0.2998879E+02  0.7546771E-02  0.1419694E+00
          2   -1    0    0  502    0  0.00000000000E+00  0.00000000000E+00  0.12791325386E+04  0.12791325386E+04  0.00000000000E+00 0. -1.
          1   -1    0    0  501    0 -0.00000000000E+00 -0.00000000000E+00 -0.53088162908E+01  0.53088162908E+01  0.00000000000E+00 0. -1.
          2    1    1    2  501    0 -0.29980601653E+02  0.70075795224E+00  0.12350963576E+04  0.12354603758E+04  0.00000000000E+00 0. -1.
          1    1    1    2  502    0  0.29980601653E+02 -0.70075795224E+00  0.38727364647E+02  0.48980979060E+02  0.00000000000E+00 0. -1.
</event>
<event>
 4    1  0.3767413E+003  0.2987392E+02  0.7546771E-02  0.1420695E+00
          2   -1    0    0  502    0  0.00000000000E+00  0.00000000000E+00  0.39993158868E+03  0.39993158868E+03  0.00000000000E+00 0.  1.
          1   -1    0    0  501    0 -0.00000000000E+00 -0.00000000000E+00 -0.11959607569E+02  0.11959607569E+02  0.00000000000E+00 0.  1.
          2    1    1    2  501    0  0.28359969311E+02  0.93895191573E+01  0.37972709811E+03  0.38090040689E+03  0.00000000000E+00 0.  1.
          1    1    1    2  502    0 -0.28359969311E+02 -0.93895191573E+01  0.82448829991E+01  0.30990789357E+02  0.00000000000E+00 0.  1.
</event>
<event>
 4    1  0.3767413E+003  0.2479678E+02  0.7546771E-02  0.1471090E+00
          2   -1    0    0  502    0  0.00000000000E+00  0.00000000000E+00  0.12905559200E+04  0.12905559200E+04  0.00000000000E+00 0.  1.
          1   -1    0    0  501    0 -0.00000000000E+00 -0.00000000000E+00 -0.15503243725E+02  0.15503243725E+02  0.00000000000E+00 0. -1.
          2    1    1    2  501    0  0.65619228814E+01 -0.23912788975E+02  0.12804431564E+04  0.12806832384E+04  0.00000000000E+00 0.  1.
          1    1    1    2  502    0 -0.65619228814E+01  0.23912788975E+02 -0.53904801647E+01  0.25375925300E+02  0.00000000000E+00 0. -1.
</event>
<event>
 4    1  0.3767413E+003  0.2913640E+02  0.7546771E-02  0.1427252E+00
          2   -1    0    0  502    0  0.00000000000E+00  0.00000000000E+00  0.10249692510E+04  0.10249692510E+04  0.00000000000E+00 0.  1.
          1   -1    0    0  501    0 -0.00000000000E+00 -0.00000000000E+00 -0.79644654515E+01  0.79644654515E+01  0.00000000000E+00 0.  1.
          2    1    1    2  501    0 -0.28203647145E+02 -0.73132847869E+01  0.99737774984E+03  0.99780323998E+03  0.00000000000E+00 0.  1.
          1    1    1    2  502    0  0.28203647145E+02  0.73132847869E+01  0.19627035726E+02  0.35130476485E+02  0.00000000000E+00 0.  1.
</event>
<event>
 4    1  0.3767413E+003  0.3222998E+02  0.7546771E-02  0.1401158E+00
          2   -1    0    0  502    0  0.00000000000E+00  0.00000000000E+00  0.48136809670E+01  0.48136809670E+01  0.00000000000E+00 0.  1.
          1   -1    0    0  501    0 -0.00000000000E+00 -0.00000000000E+00 -0.22653274118E+03  0.22653274118E+03  0.00000000000E+00 0.  1.
          2    1    1    2  501    0 -0.24067641121E+02 -0.21436428368E+02 -0.85676443812E+02  0.91538105916E+02  0.00000000000E+00 0.  1.
          1    1    1    2  502    0  0.24067641121E+02  0.21436428368E+02 -0.13604261640E+03  0.13980831623E+03  0.00000000000E+00 0.  1.
</event>
<event>
 4    1  0.3767413E+003  0.2041406E+02  0.7546771E-02  0.1527797E+00
          2   -1    0    0  502    0  0.00000000000E+00  0.00000000000E+00  0.11850036443E+04  0.11850036443E+04  0.00000000000E+00 0.  1.
          1   -1    0    0  501    0 -0.00000000000E+00 -0.00000000000E+00 -0.10735755691E+01  0.10735755691E+01  0.00000000000E+00 0.  1.
          2    1    1    2  501    0  0.19200170605E+02 -0.69344935961E+01  0.10782669289E+04  0.10784601540E+04  0.00000000000E+00 0.  1.
          1    1    1    2  502    0 -0.19200170605E+02  0.69344935961E+01  0.10566313983E+03  0.10761706590E+03  0.00000000000E+00 0.  1.
</event>
<event>
 4    1  0.3767413E+003  0.2170007E+02  0.7546771E-02  0.1509500E+00
          2   -1    0    0  502    0  0.00000000000E+00  0.00000000000E+00  0.32919449032E+01  0.32919449032E+01  0.00000000000E+00 0.  1.
          1   -1    0    0  501    0 -0.00000000000E+00 -0.00000000000E+00 -0.53443450409E+03  0.53443450409E+03  0.00000000000E+00 0.  1.
          2    1    1    2  501    0 -0.70821805978E+01 -0.20511842576E+02 -0.35485753065E+02  0.41594851106E+02  0.00000000000E+00 0.  1.
          1    1    1    2  502    0  0.70821805978E+01  0.20511842576E+02 -0.49565680612E+03  0.49613159789E+03  0.00000000000E+00 0.  1.
</event>
<event>
 4    1  0.3767413E+003  0.2839403E+02  0.7546771E-02  0.1434086E+00
          2   -1    0    0  502    0  0.00000000000E+00  0.00000000000E+00  0.64630259440E+02  0.64630259440E+02  0.00000000000E+00 0.  1.
          1   -1    0    0  501    0 -0.00000000000E+00 -0.00000000000E+00 -0.56464437823E+02  0.56464437823E+02  0.00000000000E+00 0. -1.
          2    1    1    2  501    0 -0.18686604542E+02 -0.21378299222E+02  0.57525194806E+02  0.64151141099E+02  0.00000000000E+00 0.  1.
          1    1    1    2  502    0  0.18686604542E+02  0.21378299222E+02 -0.49359373189E+02  0.56943556163E+02  0.00000000000E+00 0. -1.
</event>
<event>
 4    1  0.3767413E+003  0.2192843E+02  0.7546771E-02  0.1506411E+00
          2   -1    0    0  502    0  0.00000000000E+00  0.00000000000E+00  0.76966954884E+02  0.76966954884E+02  0.00000000000E+00 0. -1.
          1   -1    0    0  501    0 -0.00000000000E+00 -0.00000000000E+00 -0.65990037528E+01  0.65990037528E+01  0.00000000000E+00 0. -1.
          2    1    1    2  501    0  0.15897060380E+02  0.15104292415E+02  0.44826351077E+02  0.49902484196E+02  0.00000000000E+00 0. -1.
          1    1    1    2  502    0 -0.15897060380E+02 -0.15104292415E+02  0.25541600055E+02  0.33663474441E+02  0.00000000000E+00 0. -1.
</event>
<event>
 4    1  0.3767413E+003  0.2724317E+02  0.7546771E-02  0.1445181E+00
          2   -1    0    0  502    0  0.00000000000E+00  0.00000000000E+00  0.83236455761E+02  0.83236455761E+02  0.00000000000E+00 0. -1.
          1   -1    0    0  501    0 -0.00000000000E+00 -0.00000000000E+00 -0.17719684530E+03  0.17719684530E+03  0.00000000000E+00 0.  1.
          2    1    1    2  501    0 -0.15395291803E+02 -0.22476106185E+02  0.79917879251E+02  0.84433747891E+02  0.00000000000E+00 0. -1.
          1    1    1    2  502    0  0.15395291803E+02  0.22476106185E+02 -0.17387826879E+03  0.17599955317E+03  0.00000000000E+00 0.  1.
</event>
<event>
 4    1  0.3767413E+003  0.5652750E+02  0.7546771E-02  0.1272110E+00
          2   -1    0    0  502    0  0.00000000000E+00  0.00000000000E+00  0.32785401312E+04  0.32785401312E+04  0.00000000000E+00 0.  1.
          1   -1    0    0  501    0 -0.00000000000E+00 -0.00000000000E+00 -0.13988415314E+02  0.13988415314E+02  0.00000000000E+00 0.  1.
          2    1    1    2  501    0 -0.56075750692E+02 -0.71321762459E+01  0.32201538994E+04  0.32206500110E+04  0.00000000000E+00 0.  1.
          1    1    1    2  502    0  0.56075750692E+02  0.71321762459E+01  0.44397816479E+02  0.71878535474E+02  0.00000000000E+00 0.  1.
</event>
<event>
 4    1  0.3767413E+003  0.2156720E+02  0.7546771E-02  0.1511319E+00
          2   -1    0    0  502    0  0.00000000000E+00  0.00000000000E+00  0.94457627026E+03  0.94457627026E+03  0.00000000000E+00 0.  1.
          1   -1    0    0  501    0 -0.00000000000E+00 -0.00000000000E+00 -0.23467545815E+03  0.23467545815E+03  0.00000000000E+00 0.  1.
          2    1    1    2  501    0 -0.42326873895E+01  0.21147776805E+02  0.94395731771E+03  0.94420366540E+03  0.00000000000E+00 0.  1.
          1    1    1    2  502    0  0.42326873895E+01 -0.21147776805E+02 -0.23405650560E+03  0.23504806300E+03  0.00000000000E+00 0.  1.
</event>
<event>
 4    1  0.3767413E+003  0.2407132E+02  0.7546771E-02  0.1479467E+00
          2   -1    0    0  502    0  0.00000000000E+00  0.00000000000E+00  0.13390679683E+04  0.13390679683E+04  0.00000000000E+00 0.  1.
          1   -1    0    0  501    0 -0.00000000000E+00 -0.00000000000E+00 -0.54628552361E+00  0.54628552361E+00  0.00000000000E+00 0. -1.
          2    1    1    2  501    0 -0.52918086305E+00  0.24065503085E+02  0.97466979360E+03  0.97496699177E+03  0.00000000000E+00 0.  1.
          1    1    1    2  502    0  0.52918086305E+00 -0.24065503085E+02  0.36385188922E+03  0.36464726211E+03  0.00000000000E+00 0. -1.
</event>
<event>
 4    1  0.3767413E+003  0.2120045E+02  0.7546771E-02  0.1516422E+00
          2   -1    0    0  502    0  0.00000000000E+00  0.00000000000E+00  0.87764569794E+00  0.87764569794E+00  0.00000000000E+00 0. -1.
          1   -1    0    0  501    0 -0.00000000000E+00 -0.00000000000E+00 -0.14138527031E+04  0.14138527031E+04  0.00000000000E+00 0. -1.
          2    1    1    2  501    0  0.68133285944E+01  0.20075793746E+02 -0.14157556978E+03  0.14315411590E+03  0.00000000000E+00 0. -1.
          1    1    1    2  502    0 -0.68133285944E+01 -0.20075793746E+02 -0.12713994876E+04  0.12715762329E+04  0.00000000000E+00 0. -1.
</event>
<event>
 4    1  0.3767413E+003  0.2400182E+02  0.7546771E-02  0.1480287E+00
          2   -1    0    0  502    0  0.00000000000E+00  0.00000000000E+00  0.11843369622E+04  0.11843369622E+04  0.00000000000E+00 0. -1.
          1   -1    0    0  501    0 -0.00000000000E+00 -0.00000000000E+00 -0.75476630082E+00  0.75476630082E+00  0.00000000000E+00 0.  1.
          2    1    1    2  501    0 -0.95624226048E+01 -0.22014704665E+02  0.94510618776E+03  0.94541091241E+03  0.00000000000E+00 0. -1.
          1    1    1    2  502    0  0.95624226048E+01  0.22014704665E+02  0.23847600815E+03  0.23968081611E+03  0.00000000000E+00 0.  1.
</event>
<event>
 4    1  0.3767413E+003  0.2291525E+02  0.7546771E-02  0.1493565E+00
          2   -1    0    0  502    0  0.00000000000E+00  0.00000000000E+00  0.67025778974E+02  0.67025778974E+02  0.00000000000E+00 0.  1.
          1   -1    0    0  501    0 -0.00000000000E+00 -0.00000000000E+00 -0.28989048444E+02  0.28989048444E+02  0.00000000000E+00 0. -1.
          2    1    1    2  501    0  0.22893622225E+02 -0.99534188709E+00  0.60028759866E+02  0.64253876577E+02  0.00000000000E+00 0.  1.
          1    1    1    2  502    0 -0.22893622225E+02  0.99534188709E+00 -0.21992029336E+02  0.31760950841E+02  0.00000000000E+00 0. -1.
</event>
<event>
 4    1  0.3767413E+003  0.2232266E+02  0.7546771E-02  0.1501183E+00
          2   -1    0    0  502    0  0.00000000000E+00  0.00000000000E+00  0.93837976638E+02  0.93837976638E+02  0.00000000000E+00 0. -1.
          1   -1    0    0  501    0 -0.00000000000E+00 -0.00000000000E+00 -0.53156688312E+01  0.53156688312E+01  0.00000000000E+00 0.  1.
          2    1    1    2  501    0  0.11059124932E+02  0.19390638856E+02  0.45847154076E+02  0.50992770628E+02  0.00000000000E+00 0. -1.
          1    1    1    2  502    0 -0.11059124932E+02 -0.19390638856E+02  0.42675153731E+02  0.48160874841E+02  0.00000000000E+00 0.  1.
</event>
<event>
 4    1  0.3767413E+003  0.2342844E+02  0.7546771E-02  0.1487187E+00
          2   -1    0    0  502    0  0.00000000000E+00  0.00000000000E+00  0.10091832565E+02  0.10091832565E+02  0.00000000000E+00 0. -1.
          1   -1    0    0  501    0 -0.00000000000E+00 -0.00000000000E+00 -0.17760753821E+03  0.17760753821E+03  0.00000000000E+00 0.  1.
          2    1    1    2  501    0 -0.15676727953E+02  0.17410692431E+02 -0.55880763514E+01  0.24085651487E+02  0.00000000000E+00 0. -1.
          1    1    1    2  502    0  0.15676727953E+02 -0.17410692431E+02 -0.16192762930E+03  0.16361371929E+03  0.00000000000E+00 0.  1.
</event>
<event>
 4    1  0.3767413E+003  0.2222771E+02  0.7546771E-02  0.1502430E+00
          2   -1    0    0  502    0  0.00000000000E+00  0.00000000000E+00  0.71184729291E+03  0.71184729291E+03  0.00000000000E+00 0. -1.
          1   -1    0    0  501    0 -0.00000000000E+00 -0.00000000000E+00 -0.53107366008E+01  0.53107366008E+01  0.00000000000E+00 0.  1.
          2    1    1    2  501    0  0.21649235462E+02  0.50380342267E+01  0.68759553797E+03  0.68795471873E+03  0.00000000000E+00 0. -1.
          1    1    1    2  502    0 -0.21649235462E+02 -0.50380342267E+01  0.18941018342E+02  0.29203310784E+02  0.00000000000E+00 0.  1.
</event>
<event>
 4    1  0.3767413E+003  0.2862608E+02  0.7546771E-02  0.1431924E+00
          2   -1    0    0  502    0  0.00000000000E+00  0.00000000000E+00  0.55227136277E+03  0.55227136277E+03  0.00000000000E+00 0.  1.
          1   -1    0    0  501    0 -0.00000000000E+00 -0.00000000000E+00 -0.31040184624E+03  0.31040184624E+03  0.00000000000E+00 0. -1.
          2    1    1    2  501    0 -0.27179140475E+02 -0.89859334826E+01  0.55123918782E+03  0.55198196969E+03  0.00000000000E+00 0.  1.
          1    1    1    2  502    0  0.27179140475E+02  0.89859334826E+01 -0.30936967129E+03  0.31069123932E+03  0.00000000000E+00 0. -1.
</event>
<event>
 4    1  0.3767413E+003  0.3130884E+02  0.7546771E-02  0.1408554E+00
          2   -1    0    0  502    0  0.00000000000E+00  0.00000000000E+00  0.20618874993E+02  0.20618874993E+02  0.00000000000E+00 0. -1.
          1   -1    0    0  501    0 -0.00000000000E+00 -0.00000000000E+00 -0.10103577028E+03  0.10103577028E+03  0.00000000000E+00 0. -1.
          2    1    1    2  501    0 -0.11124422127E+02  0.29265862388E+02  0.40520695366E+01  0.31569965735E+02  0.00000000000E+00 0. -1.
          1    1    1    2  502    0  0.11124422127E+02 -0.29265862388E+02 -0.84468964822E+02  0.90084679535E+02  0.00000000000E+00 0. -1.
</event>
<event>
 4    1  0.3767413E+003  0.2129168E+02  0.7546771E-02  0.1515141E+00
          2   -1    0    0  502    0  0.00000000000E+00  0.00000000000E+00  0.22547724911E+03  0.22547724911E+03  0.00000000000E+00 0.  1.
          1   -1    0    0  501    0 -0.00000000000E+00 -0.00000000000E+00 -0.21280497239E+01  0.21280497239E+01  0.00000000000E+00 0.  1.
          2    1    1    2  501    0 -0.12726234993E+01  0.21253614281E+02  0.13841452428E+03  0.14004255147E+03  0.00000000000E+00 0.  1.
          1    1    1    2  502    0  0.12726234993E+01 -0.21253614281E+02  0.84934675106E+02  0.87562747364E+02  0.00000000000E+00 0.  1.
</event>
<event>
 4    1  0.3767413E+003  0.2222648E+02  0.7546771E-02  0.1502447E+00
          2   -1    0    0  502    0  0.00000000000E+00  0.00000000000E+00  0.55211825671E+03  0.55211825671E+03  0.00000000000E+00 0. -1.
          1   -1    0    0  501    0 -0.00000000000E+00 -0.00000000000E+00 -0.10251115058E+03  0.10251115058E+03  0.00000000000E+00 0. -1.
          2    1    1    2  501    0  0.21535462711E+02  0.54991190129E+01  0.55068664736E+03  0.55113501072E+03  0.00000000000E+00 0. -1.
          1    1    1    2  502    0 -0.21535462711E+02 -0.54991190129E+01 -0.10107954123E+03  0.10349439656E+03  0.00000000000E+00 0. -1.
</event>
<event>
 4    1  0.3767413E+003  0.3759997E+02  0.7546771E-02  0.1363154E+00
          2   -1    0    0  502    0  0.00000000000E+00  0.00000000000E+00  0.17224994189E+02  0.17224994189E+02  0.00000000000E+00 0. -1.
          1   -1    0    0  501    0 -0.00000000000E+00 -0.00000000000E+00 -0.16591534177E+03  0.16591534177E+03  0.00000000000E+00 0.  1.
          2    1    1    2  501    0 -0.33825078381E+02  0.16420163996E+02 -0.92520963073E+01  0.38721557293E+02  0.00000000000E+00 0. -1.
          1    1    1    2  502    0  0.33825078381E+02 -0.16420163996E+02 -0.13943825127E+03  0.14441877866E+03  0.00000000000E+00 0.  1.
</event>
<event>
 4    1  0.3767413E+003  0.2499599E+02  0.7546771E-02  0.1468848E+00
          2   -1    0    0  502    0  0.00000000000E+00  0.00000000000E+00  0.13888364387E+03  0.13888364387E+03  0.00000000000E+00 0. -1.
          1   -1    0    0  501    0 -0.00000000000E+00 -0.00000000000E+00 -0.54277137852E+03  0.54277137852E+03  0.00000000000E+00 0.  1.
          2    1    1    2  501    0 -0.23780925468E+02 -0.76985043360E+01  0.13746824151E+03  0.13972228458E+03  0.00000000000E+00 0. -1.
          1    1    1    2  502    0  0.23780925468E+02  0.76985043360E+01 -0.54135597616E+03  0.54193273781E+03  0.00000000000E+00 0.  1.
</event>
<event>
 4    1  0.3767413E+003  0.2436825E+02  0.7546771E-02  0.1475996E+00
          2   -1    0    0  502    0  0.00000000000E+00  0.00000000000E+00  0.34649717727E+03  0.34649717727E+03  0.00000000000E+00 0.  1.
          1   -1    0    0  501    0 -0.00000000000E+00 -0.00000000000E+00 -0.31466261098E+02  0.31466261098E+02  0.00000000000E+00 0.  1.
          2    1    1    2  501    0  0.24324438383E+02  0.14606216859E+01  0.34127884704E+03  0.34214772125E+03  0.00000000000E+00 0.  1.
          1    1    1    2  502    0 -0.24324438383E+02 -0.14606216859E+01 -0.26247930865E+02  0.35815717124E+02  0.00000000000E+00 0.  1.
</event>
<event>
 4    1  0.3767413E+003  0.3043521E+02  0.7546771E-02  0.1415851E+00
          2   -1    0    0  502    0  0.00000000000E+00  0.00000000000E+00  0.10284675886E+04  0.10284675886E+04  0.00000000000E+00 0. -1.
          1   -1    0    0  501    0 -0.00000000000E+00 -0.00000000000E+00 -0.20034279287E+01  0.20034279287E+01  0.00000000000E+00 0. -1.
          2    1    1    2  501    0 -0.28474266225E+02  0.10747933346E+02  0.89549357080E+03  0.89601062340E+03  0.00000000000E+00 0. -1.
          1    1    1    2  502    0  0.28474266225E+02 -0.10747933346E+02  0.13097058990E+03  0.13446039316E+03  0.00000000000E+00 0. -1.
</event>
<event>
 4    1  0.3767413E+003  0.2683824E+02  0.7546771E-02  0.1449240E+00
          2   -1    0    0  502    0  0.00000000000E+00  0.00000000000E+00  0.49314914106E+03  0.49314914106E+03  0.00000000000E+00 0.  1.
          1   -1    0    0  501    0 -0.00000000000E+00 -0.00000000000E+00 -0.27770885619E+01  0.27770885619E+01  0.00000000000E+00 0. -1.
          2    1    1    2  501    0 -0.21872589822E+02 -0.15552515901E+02  0.41591281284E+03  0.41677782909E+03  0.00000000000E+00 0.  1.
          1    1    1    2  502    0  0.21872589822E+02  0.15552515901E+02  0.74459239662E+02  0.79148400536E+02  0.00000000000E+00 0. -1.
</event>
<event>
 4    1  0.3767413E+003  0.3352361E+02  0.7546771E-02  0.1391251E+00
          2   -1    0    0  502    0  0.00000000000E+00  0.00000000000E+00  0.86058881400E+02  0.86058881400E+02  0.00000000000E+00 0. -1.
          1   -1    0    0  501    0 -0.00000000000E+00 -0.00000000000E+00 -0.60609325609E+02  0.60609325609E+02  0.00000000000E+00 0. -1.
          2    1    1    2  501    0  0.31854950054E+02  0.10444829777E+02  0.77679925273E+02  0.84604982728E+02  0.00000000000E+00 0. -1.
          1    1    1    2  502    0 -0.31854950054E+02 -0.10444829777E+02 -0.52230369481E+02  0.62063224281E+02  0.00000000000E+00 0. -1.
</event>
<event>
 4    1  0.3767413E+003  0.2032056E+02  0.7546771E-02  0.1529190E+00
          2   -1    0    0  502    0  0.00000000000E+00  0.00000000000E+00  0.35734788947E+02  0.35734788947E+02  0.00000000000E+00 0.  1.
          1   -1    0    0  501    0 -0.00000000000E+00 -0.00000000000E+00 -0.37123496863E+02  0.37123496863E+02  0.00000000000E+00 0. -1.
          2    1    1    2  501    0  0.20119869206E+02  0.28488734968E+01  0.29538197473E+02  0.35852898446E+02  0.00000000000E+00 0.  1.
          1    1    1    2  502    0 -0.20119869206E+02 -0.28488734968E+01 -0.30926905388E+02  0.37005387364E+02  0.00000000000E+00 0. -1.
</event>
<event>
 4    1  0.3767413E+003  0.2099953E+02  0.7546771E-02  0.1519272E+00
          2   -1    0    0  502    0  0.00000000000E+00  0.00000000000E+00  0.84923897988E+02  0.84923897988E+02  0.00000000000E+00 0. -1.
          1   -1    0    0  501    0 -0.00000000000E+00 -0.00000000000E+00 -0.56290623771E+02  0.56290623771E+02  0.00000000000E+00 0. -1.
          2    1    1    2  501    0 -0.12385385494E+02 -0.16958253341E+02  0.81588455998E+02  0.84247589178E+02  0.00000000000E+00 0. -1.
          1    1    1    2  502    0  0.12385385494E+02  0.16958253341E+02 -0.52955181781E+02  0.56966932580E+02  0.00000000000E+00 0. -1.
</event>
<event>
 4    1  0.3767413E+003  0.2247498E+02  0.7546771E-02  0.1499198E+00
          2   -1    0    0  502    0  0.00000000000E+00  0.00000000000E+00  0.32321615869E+02  0.32321615869E+02  0.00000000000E+00 0. -1.
          1   -1    0    0  501    0 -0.00000000000E+00 -0.00000000000E+00 -0.16665612924E+02  0.16665612924E+02  0.00000000000E+00 0. -1.
          2    1    1    2  501    0 -0.20795071824E+02  0.85258351201E+01  0.13939429039E+02  0.26446787302E+02  0.00000000000E+00 0. -1.
          1    1    1    2  502    0  0.20795071824E+02 -0.85258351201E+01  0.17165739057E+01  0.22540441491E+02  0.00000000000E+00 0. -1.
</event>
<event>
 4    1  0.3767413E+003  0.3044534E+02  0.7546771E-02  0.1415765E+00
          2   -1    0    0  502    0  0.00000000000E+00  0.00000000000E+00  0.13451888821E+02  0.13451888821E+02  0.00000000000E+00 0. -1.
          1   -1    0    0  501    0 -0.00000000000E+00 -0.00000000000E+00 -0.29927595566E+03  0.29927595566E+03  0.00000000000E+00 0. -1.
          2    1    1    2  501    0 -0.23476453699E+02  0.19384915208E+02 -0.57249085942E+01  0.30978918547E+02  0.00000000000E+00 0. -1.
          1    1    1    2  502    0  0.23476453699E+02 -0.19384915208E+02 -0.28009915825E+03  0.28174892594E+03  0.00000000000E+00 0. -1.
</event>
<event>
 4    1  0.3767413E+003  0.2747903E+02  0.7546771E-02  0.1442855E+00
          2   -1    0    0  502    0  0.00000000000E+00  0.00000000000E+00  0.38296431825E+03  0.38296431825E+03  0.00000000000E+00 0.  1.
          1   -1    0    0  501    0 -0.00000000000E+00 -0.00000000000E+00 -0.10010870906E+02  0.10010870906E+02  0.00000000000E+00 0. -1.
          2    1    1    2  501    0 -0.92475479211E+01  0.25876241002E+02  0.36255443954E+03  0.36359430499E+03  0.00000000000E+00 0.  1.
          1    1    1    2  502    0  0.92475479211E+01 -0.25876241002E+02  0.10399007800E+02  0.29380884163E+02  0.00000000000E+00 0. -1.
</event>
<event>
 4    1  0.3767413E+003  0.2847884E+02  0.7546771E-02  0.1433293E+00
          2   -1    0    0  502    0  0.00000000000E+00  0.00000000000E+00  0.14228302805E+01  0.14228302805E+01  0.00000000000E+00 0. -1.
          1   -1    0    0  501    0 -0.00000000000E+00 -0.00000000000E+00 -0.60139547190E+03  0.60139547190E+03  0.00000000000E+00 0. -1.
          2    1    1    2  501    0  0.28169059223E+02  0.41890532391E+01 -0.23114327626E+03  0.23289108661E+03  0.00000000000E+00 0. -1.
          1    1    1    2  502    0 -0.28169059223E+02 -0.41890532391E+01 -0.36882936536E+03  0.36992721556E+03  0.00000000000E+00 0. -1.
</event>
<event>
 4    1  0.3767413E+003  0.4278329E+02  0.7546771E-02  0.1332905E+00
          2   -1    0    0  502    0  0.00000000000E+00  0.00000000000E+00  0.31514125976E+04  0.31514125976E+04  0.00000000000E+00 0.  1.
          1   -1    0    0  501    0 -0.00000000000E+00 -0.00000000000E+00 -0.50288867810E+02  0.50288867810E+02  0.00000000000E+00 0.  1.
          2    1    1    2  501    0 -0.11537469553E+02  0.41198257129E+02  0.31421410664E+04  0.31424323208E+04  0.00000000000E+00 0.  1.
          1    1    1    2  502    0  0.11537469553E+02 -0.41198257129E+02 -0.41017336646E+02  0.59269144584E+02  0.00000000000E+00 0.  1.
</event>
<event>
 4    1  0.3767413E+003  0.2155803E+02  0.7546771E-02  0.1511445E+00
          2   -1    0    0  502    0  0.00000000000E+00  0.00000000000E+00  0.92304209997E+03  0.92304209997E+03  0.00000000000E+00 0. -1.
          1   -1    0    0  501    0 -0.00000000000E+00 -0.00000000000E+00 -0.63551526417E+00  0.63551526417E+00  0.00000000000E+00 0.  1.
          2    1    1    2  501    0  0.20356661110E+02 -0.70961006976E+01  0.25070646008E+03  0.25163163041E+03  0.00000000000E+00 0. -1.
          1    1    1    2  502    0 -0.20356661110E+02  0.70961006976E+01  0.67170012463E+03  0.67204598483E+03  0.00000000000E+00 0.  1.
</event>
<event>
 4    1  0.3767413E+003  0.4277019E+02  0.7546771E-02  0.1332975E+00
          2   -1    0    0  502    0  0.00000000000E+00  0.00000000000E+00  0.13320866022E+04  0.13320866022E+04  0.00000000000E+00 0. -1.
          1   -1    0    0  501    0 -0.00000000000E+00 -0.00000000000E+00 -0.33666520386E+01  0.33666520386E+01  0.00000000000E+00 0. -1.
          2    1    1    2  501    0 -0.38601069277E+02  0.18418658754E+02  0.11781632832E+04  0.11789393586E+04  0.00000000000E+00 0. -1.
          1    1    1    2  502    0  0.38601069277E+02 -0.18418658754E+02  0.15055666696E+03  0.15651389557E+03  0.00000000000E+00 0. -1.
</event>
<event>
 4    1  0.3767413E+003  0.2282984E+02  0.7546771E-02  0.1494646E+00
          2   -1    0    0  502    0  0.00000000000E+00  0.00000000000E+00  0.27148755782E+01  0.27148755782E+01  0.00000000000E+00 0.  1.
          1   -1    0    0  501    0 -0.00000000000E+00 -0.00000000000E+00 -0.20086952615E+03  0.20086952615E+03  0.00000000000E+00 0.  1.
          2    1    1    2  501    0 -0.22793328089E+02  0.12906502481E+01 -0.77663273297E+02  0.80949277963E+02  0.00000000000E+00 0.  1.
          1    1    1    2  502    0  0.22793328089E+02 -0.12906502481E+01 -0.12049137728E+03  0.12263512377E+03  0.00000000000E+00 0.  1.
</event>
<event>
 4    1  0.3767413E+003  0.3244669E+02  0.7546771E-02  0.1399461E+00
          2   -1    0    0  502    0  0.00000000000E+00  0.00000000000E+00  0.68069200406E+01  0.68069200406E+01  0.00000000000E+00 0. -1.
          1   -1    0    0  501    0 -0.00000000000E+00 -0.00000000000E+00 -0.30621963539E+03  0.30621963539E+03  0.00000000000E+00 0. -1.
          2    1    1    2  501    0 -0.12219719272E+02 -0.30057698124E+02 -0.25981475608E+03  0.26183295101E+03  0.00000000000E+00 0. -1.
          1    1    1    2  502    0  0.12219719272E+02  0.30057698124E+02 -0.39597959267E+02  0.51193604422E+02  0.00000000000E+00 0. -1.
</event>
<event>
 4    1  0.3767413E+003  0.2191361E+02  0.7546771E-02  0.1506610E+00
          2   -1    0    0  502    0  0.00000000000E+00  0.00000000000E+00  0.15212952970E+04  0.15212952970E+04  0.00000000000E+00 0.  1.
          1   -1    0    0  501    0 -0.00000000000E+00 -0.00000000000E+00 -0.64784486244E+01  0.64784486244E+01  0.00000000000E+00 0. -1.
          2    1    1    2  501    0  0.11603539860E+02  0.18589358383E+02  0.15024530824E+04  0.15026128814E+04  0.00000000000E+00 0.  1.
          1    1    1    2  502    0 -0.11603539860E+02 -0.18589358383E+02  0.12363765992E+02  0.25160864292E+02  0.00000000000E+00 0. -1.
</event>
<event>
 4    1  0.3767413E+003  0.2865886E+02  0.7546771E-02  0.1431620E+00
          2   -1    0    0  502    0  0.00000000000E+00  0.00000000000E+00  0.10870419493E+04  0.10870419493E+04  0.00000000000E+00 0.  1.
          1   -1    0    0  501    0 -0.00000000000E+00 -0.00000000000E+00 -0.54672008710E+02  0.54672008710E+02  0.00000000000E+00 0.  1.
          2    1    1    2  501    0 -0.18895561329E+02 -0.21547345007E+02  0.10830836179E+04  0.10834627144E+04  0.00000000000E+00 0.  1.
          1    1    1    2  502    0  0.18895561329E+02  0.21547345007E+02 -0.50713677270E+02  0.58251243566E+02  0.00000000000E+00 0.  1.
</event>
<event>
 4    1  0.3767413E+003  0.2461024E+02  0.7546771E-02  0.1473211E+00
          2   -1    0    0  502    0  0.00000000000E+00  0.00000000000E+00  0.21512113819E+04  0.21512113819E+04  0.00000000000E+00 0.  1.
          1   -1    0    0  501    0 -0.00000000000E+00 -0.00000000000E+00 -0.40846816677E+00  0.40846816677E+00  0.00000000000E+00 0.  1.
          2    1    1    2  501    0  0.13139635463E+02  0.20808990564E+02  0.16750901415E+04  0.16752709173E+04  0.00000000000E+00 0.  1.
          1    1    1    2  502    0 -0.13139635463E+02 -0.20808990564E+02  0.47571277218E+03  0.47634893274E+03  0.00000000000E+00 0.  1.
</event>
<event>
 4    1  0.3767413E+003  0.2588175E+02  0.7546771E-02  0.1459176E+00
          2   -1    0    0  502    0  0.00000000000E+00  0.00000000000E+00  0.98039158011E+03  0.98039158011E+03  0.00000000000E+00 0. -1.
          1   -1    0    0  501    0 -0.00000000000E+00 -0.00000000000E+00 -0.35139400542E+02  0.35139400542E+02  0.00000000000E+00 0. -1.
          2    1    1    2  501    0 -0.14289197836E+02 -0.21579712965E+02  0.97543076115E+03  0.97577406964E+03  0.00000000000E+00 0. -1.
          1    1    1    2  502    0  0.14289197836E+02  0.21579712965E+02 -0.30178581584E+02  0.39756911008E+02  0.00000000000E+00 0. -1.
</event>
<event>
 4    1  0.3767413E+003  0.2291088E+02  0.7546771E-02  0.1493620E+00
          2   -1    0    0  502    0  0.00000000000E+00  0.00000000000E+00  0.70574404069E+02  0.70574404069E+02  0.00000000000E+00 0.  1.
          1   -1    0    0  501    0 -0.00000000000E+00 -0.00000000000E+00 -0.82486875034E+01  0.82486875034E+01  0.00000000000E+00 0. -1.
          2    1    1    2  501    0  0.91040739945E+01 -0.21024372860E+02  0.43520877111E+02  0.49183078004E+02  0.00000000000E+00 0.  1.
          1    1    1    2  502    0 -0.91040739945E+01  0.21024372860E+02  0.18804839455E+02  0.29640013569E+02  0.00000000000E+00 0. -1.
</event>
<event>
 4    1  0.3767413E+003  0.2392778E+02  0.7546771E-02  0.1481165E+00
          2   -1    0    0  502    0  0.00000000000E+00  0.00000000000E+00  0.15499225407E+02  0.15499225407E+02  0.00000000000E+00 0. -1.
          1   -1    0    0  501    0 -0.00000000000E+00 -0.00000000000E+00 -0.18326943558E+03  0.18326943558E+03  0.00000000000E+00 0.  1.
          2    1    1    2  501    0 -0.14118375786E+01  0.23886087451E+02  0.49202232401E+01  0.24428406739E+02  0.00000000000E+00 0. -1.
          1    1    1    2  502    0  0.14118375786E+01 -0.23886087451E+02 -0.17269043342E+03  0.17434025425E+03  0.00000000000E+00 0.  1.
</event>
<event>
 4    1  0.3767413E+003  0.3509311E+02  0.7546771E-02  0.1379910E+00
          2   -1    0    0  502    0  0.00000000000E+00  0.00000000000E+00  0.16501701615E+04  0.16501701615E+04  0.00000000000E+00 0.  1.
          1   -1    0    0  501    0 -0.00000000000E+00 -0.00000000000E+00 -0.18533016315E+02  0.18533016315E+02  0.00000000000E+00 0.  1.
          2    1    1    2  501    0  0.32199845710E+02 -0.13953357395E+02  0.16331983732E+04  0.16335753587E+04  0.00000000000E+00 0.  1.
          1    1    1    2  502    0 -0.32199845710E+02  0.13953357395E+02 -0.15612279913E+01  0.35127819163E+02  0.00000000000E+00 0.  1.
</event>
<event>
 4    1  0.3767413E+003  0.3933872E+02  0.7546771E-02  0.1352405E+00
          2   -1    0    0  502    0  0.00000000000E+00  0.00000000000E+00  0.19124744590E+04  0.19124744590E+04  0.00000000000E+00 0.  1.
          1   -1    0    0  501    0 -0.00000000000E+00 -0.00000000000E+00 -0.20527320166E+01  0.20527320166E+01  0.00000000000E+00 0.  1.
          2    1    1    2  501    0 -0.38400420230E+02  0.85406644202E+01  0.17002815405E+04  0.17007365617E+04  0.00000000000E+00 0.  1.
          1    1    1    2  502    0  0.38400420230E+02 -0.85406644202E+01  0.21014018645E+03  0.21379062932E+03  0.00000000000E+00 0.  1.
</event>
<event>
 4    1  0.3767413E+003  0.2222205E+02  0.7546771E-02  0.1502505E+00
          2   -1    0    0  502    0  0.00000000000E+00  0.00000000000E+00  0.38987409035E+02  0.38987409035E+02  0.00000000000E+00 0. -1.
          1   -1    0    0  501    0 -0.00000000000E+00 -0.00000000000E+00 -0.27620390839E+02  0.27620390839E+02  0.00000000000E+00 0.  1.
          2    1    1    2  501    0 -0.20963695349E+02 -0.73717566623E+01  0.30188963518E+02  0.37485901847E+02  0.00000000000E+00 0. -1.
          1    1    1    2  502    0  0.20963695349E+02  0.73717566623E+01 -0.18821945323E+02  0.29121898027E+02  0.00000000000E+00 0.  1.
</event>
<event>
 4    1  0.3767413E+003  0.2824643E+02  0.7546771E-02  0.1435474E+00
          2   -1    0    0  502    0  0.00000000000E+00  0.00000000000E+00  0.28856695697E+02  0.28856695697E+02  0.00000000000E+00 0. -1.
          1   -1    0    0  501    0 -0.00000000000E+00 -0.00000000000E+00 -0.19846666178E+03  0.19846666178E+03  0.00000000000E+00 0. -1.
          2    1    1    2  501    0 -0.17894555736E+02  0.21855100821E+02  0.20642590773E+02  0.34985384245E+02  0.00000000000E+00 0. -1.
          1    1    1    2  502    0  0.17894555736E+02 -0.21855100821E+02 -0.19025255686E+03  0.19233797324E+03  0.00000000000E+00 0. -1.
</event>
<event>
 4    1  0.3767413E+003  0.2084646E+02  0.7546771E-02  0.1521468E+00
          2   -1    0    0  502    0  0.00000000000E+00  0.00000000000E+00  0.21363453778E+03  0.21363453778E+03  0.00000000000E+00 0.  1.
          1   -1    0    0  501    0 -0.00000000000E+00 -0.00000000000E+00 -0.57680263018E+02  0.57680263018E+02  0.00000000000E+00 0.  1.
          2    1    1    2  501    0 -0.20756036447E+02  0.19395001338E+01  0.21122096754E+03  0.21224719512E+03  0.00000000000E+00 0.  1.
          1    1    1    2  502    0  0.20756036447E+02 -0.19395001338E+01 -0.55266692777E+02  0.59067605675E+02  0.00000000000E+00 0.  1.
</event>
<event>
 4    1  0.3767413E+003  0.2117662E+02  0.7546771E-02  0.1516758E+00
          2   -1    0    0  502    0  0.00000000000E+00  0.00000000000E+00  0.29197056029E+03  0.29197056029E+03  0.00000000000E+00 0. -1.
          1   -1    0    0  501    0 -0.00000000000E+00 -0.00000000000E+00 -0.56981934680E+02  0.56981934680E+02  0.00000000000E+00 0.  1.
          2    1    1    2  501    0 -0.74345679822E+01  0.19828678835E+02  0.28960300550E+03  0.29037622165E+03  0.00000000000E+00 0. -1.
          1    1    1    2  502    0  0.74345679822E+01 -0.19828678835E+02 -0.54614379889E+02  0.58576273320E+02  0.00000000000E+00 0.  1.
</event>
<event>
 4    1  0.3767413E+003  0.3015525E+02  0.7546771E-02  0.1418252E+00
          2   -1    0    0  502    0  0.00000000000E+00  0.00000000000E+00  0.12635275987E+04  0.12635275987E+04  0.00000000000E+00 0. -1.
          1   -1    0    0  501    0 -0.00000000000E+00 -0.00000000000E+00 -0.17730841509E+01  0.17730841509E+01  0.00000000000E+00 0. -1.
          2    1    1    2  501    0  0.22568628989E+01  0.30070675000E+02  0.11185135644E+04  0.11189199849E+04  0.00000000000E+00 0. -1.
          1    1    1    2  502    0 -0.22568628989E+01 -0.30070675000E+02  0.14324095021E+03  0.14638069799E+03  0.00000000000E+00 0. -1.
</event>
<event>
 4    1  0.3767413E+003  0.6620283E+02  0.7546771E-02  0.1240099E+00
          2   -1    0    0  502    0  0.00000000000E+00  0.00000000000E+00  0.54779003243E+03  0.54779003243E+03  0.00000000000E+00 0.  1.
          1   -1    0    0  501    0 -0.00000000000E+00 -0.00000000000E+00 -0.79234512163E+02  0.79234512163E+02  0.00000000000E+00 0. -1.
          2    1    1    2  501    0 -0.38671288355E+02 -0.53734025941E+02  0.53154005809E+03  0.53564694290E+03  0.00000000000E+00 0.  1.
          1    1    1    2  502    0  0.38671288355E+02  0.53734025941E+02 -0.62984537820E+02  0.91377601694E+02  0.00000000000E+00 0. -1.
</event>
<event>
 4    1  0.3767413E+003  0.2339297E+02  0.7546771E-02  0.1487622E+00
          2   -1    0    0  502    0  0.00000000000E+00  0.00000000000E+00  0.26365095886E+02  0.26365095886E+02  0.00000000000E+00 0. -1.
          1   -1    0    0  501    0 -0.00000000000E+00 -0.00000000000E+00 -0.29301993417E+03  0.29301993417E+03  0.00000000000E+00 0. -1.
          2    1    1    2  501    0  0.17616662014E+02  0.15391045564E+02  0.20605364168E+02  0.31173900888E+02  0.00000000000E+00 0. -1.
          1    1    1    2  502    0 -0.17616662014E+02 -0.15391045564E+02 -0.28726020245E+03  0.28821112916E+03  0.00000000000E+00 0. -1.
</event>
<event>
 4    1  0.3767413E+003  0.3849781E+02  0.7546771E-02  0.1357521E+00
          2   -1    0    0  502    0  0.00000000000E+00  0.00000000000E+00  0.43684745975E+03  0.43684745975E+03  0.00000000000E+00 0. -1.
          1   -1    0    0  501    0 -0.00000000000E+00 -0.00000000000E+00 -0.97924304093E+01  0.97924304093E+01  0.00000000000E+00 0. -1.
          2    1    1    2  501    0 -0.36902047635E+02 -0.10969055594E+02  0.39406357688E+03  0.39593962157E+03  0.00000000000E+00 0. -1.
          1    1    1    2  502    0  0.36902047635E+02  0.10969055594E+02  0.32991452461E+02  0.50700268596E+02  0.00000000000E+00 0. -1.
</event>
<event>
 4    1  0.3767413E+003  0.8948488E+02  0.7546771E-02  0.1183393E+00
          2   -1    0    0  502    0  0.00000000000E+00  0.00000000000E+00  0.18355136317E+04  0.18355136317E+04  0.00000000000E+00 0.  1.
          1   -1    0    0  501    0 -0.00000000000E+00 -0.00000000000E+00 -0.19965009123E+02  0.19965009123E+02  0.00000000000E+00 0. -1.
          2    1    1    2  501    0  0.87862464828E+02  0.16962650556E+02  0.17279134732E+04  0.17302290355E+04  0.00000000000E+00 0.  1.
          1    1    1    2  502    0 -0.87862464828E+02 -0.16962650556E+02  0.87635149367E+02  0.12524960537E+03  0.00000000000E+00 0. -1.
</event>
<event>
 4    1  0.3767413E+003  0.2277388E+02  0.7546771E-02  0.1495357E+00
          2   -1    0    0  502    0  0.00000000000E+00  0.00000000000E+00  0.11075639963E+04  0.11075639963E+04  0.00000000000E+00 0.  1.
          1   -1    0    0  501    0 -0.00000000000E+00 -0.00000000000E+00 -0.18559397331E+01  0.18559397331E+01  0.00000000000E+00 0.  1.
          2    1    1    2  501    0 -0.18680017120E+02  0.13027149351E+02  0.10325052844E+04  0.10327564146E+04  0.00000000000E+00 0.  1.
          1    1    1    2  502    0  0.18680017120E+02 -0.13027149351E+02  0.73202772148E+02  0.76663521378E+02  0.00000000000E+00 0.  1.
</event>
<event>
 4    1  0.3767413E+003  0.3688999E+02  0.7546771E-02  0.1367742E+00
          2   -1    0    0  502    0  0.00000000000E+00  0.00000000000E+00  0.23683744120E+03  0.23683744120E+03  0.00000000000E+00 0.  1.
          1   -1    0    0  501    0 -0.00000000000E+00 -0.00000000000E+00 -0.81378809741E+03  0.81378809741E+03  0.00000000000E+00 0. -1.
          2    1    1    2  501    0 -0.26464607193E+02  0.25700108606E+02  0.23497958588E+03  0.23785768181E+03  0.00000000000E+00 0.  1.
          1    1    1    2  502    0  0.26464607193E+02 -0.25700108606E+02 -0.81193024209E+03  0.81276785679E+03  0.00000000000E+00 0. -1.
</event>
<event>
 4    1  0.3767413E+003  0.2080487E+02  0.7546771E-02  0.1522069E+00
          2   -1    0    0  502    0  0.00000000000E+00  0.00000000000E+00  0.72899098167E+01  0.72899098167E+01  0.00000000000E+00 0.  1.
          1   -1    0    0  501    0 -0.00000000000E+00 -0.00000000000E+00 -0.15215998960E+03  0.15215998960E+03  0.00000000000E+00 0.  1.
          2    1    1    2  501    0  0.14306722681E+02 -0.15104975594E+02 -0.10178994464E+02  0.23161488075E+02  0.00000000000E+00 0.  1.
          1    1    1    2  502    0 -0.14306722681E+02  0.15104975594E+02 -0.13469108532E+03  0.13628841134E+03  0.00000000000E+00 0.  1.
</event>
<event>
 4    1  0.3767413E+003  0.2241825E+02  0.7546771E-02  0.1499935E+00
          2   -1    0    0  502    0  0.00000000000E+00  0.00000000000E+00  0.22264565187E+02  0.22264565187E+02  0.00000000000E+00 0. -1.
          1   -1    0    0  501    0 -0.00000000000E+00 -0.00000000000E+00 -0.44439849481E+02  0.44439849481E+02  0.00000000000E+00 0.  1.
          2    1    1    2  501    0 -0.15343425595E+00  0.22417728035E+02  0.12307806672E+02  0.25574600240E+02  0.00000000000E+00 0. -1.
          1    1    1    2  502    0  0.15343425595E+00 -0.22417728035E+02 -0.34483090966E+02  0.41129814429E+02  0.00000000000E+00 0.  1.
</event>
<event>
 4    1  0.3767413E+003  0.2240518E+02  0.7546771E-02  0.1500105E+00
          2   -1    0    0  502    0  0.00000000000E+00  0.00000000000E+00  0.62236443370E+01  0.62236443370E+01  0.00000000000E+00 0.  1.
          1   -1    0    0  501    0 -0.00000000000E+00 -0.00000000000E+00 -0.17050933679E+03  0.17050933679E+03  0.00000000000E+00 0.  1.
          2    1    1    2  501    0  0.22236272555E+02 -0.27459644181E+01 -0.17996239647E+02  0.28737723973E+02  0.00000000000E+00 0.  1.
          1    1    1    2  502    0 -0.22236272555E+02  0.27459644181E+01 -0.14628945281E+03  0.14799525716E+03  0.00000000000E+00 0.  1.
</event>
<event>
 4    1  0.3767413E+003  0.1500514E+03  0.7546771E-02  0.1097564E+00
          2   -1    0    0  502    0  0.00000000000E+00  0.00000000000E+00  0.15805157615E+03  0.15805157615E+03  0.00000000000E+00 0. -1.
          1   -1    0    0  501    0 -0.00000000000E+00 -0.00000000000E+00 -0.27127520260E+04  0.27127520260E+04  0.00000000000E+00 0.  1.
          2    1    1    2  501    0  0.14997998375E+03 -0.46298023754E+01  0.11985432783E+03  0.19204293920E+03  0.00000000000E+00 0. -1.
          1    1    1    2  502    0 -0.14997998375E+03  0.46298023754E+01 -0.26745547777E+04  0.26787606630E+04  0.00000000000E+00 0.  1.
</event>
<event>
 4    1  0.3767413E+003  0.3109901E+02  0.7546771E-02  0.1410280E+00
          2   -1    0    0  502    0  0.00000000000E+00  0.00000000000E+00  0.58452892509E+01  0.58452892509E+01  0.00000000000E+00 0.  1.
          1   -1    0    0  501    0 -0.00000000000E+00 -0.00000000000E+00 -0.18258553670E+04  0.18258553670E+04  0.00000000000E+00 0. -1.
          2    1    1    2  501    0  0.87865814908E+01  0.29831933972E+02 -0.36636844125E+02  0.48056286231E+02  0.00000000000E+00 0.  1.
          1    1    1    2  502    0 -0.87865814908E+01 -0.29831933972E+02 -0.17833732336E+04  0.17836443700E+04  0.00000000000E+00 0. -1.
</event>
<event>
 4    1  0.3767413E+003  0.3123555E+02  0.7546771E-02  0.1409155E+00
          2   -1    0    0  502    0  0.00000000000E+00  0.00000000000E+00  0.47741406823E+03  0.47741406823E+03  0.00000000000E+00 0.  1.
          1   -1    0    0  501    0 -0.00000000000E+00 -0.00000000000E+00 -0.11166051019E+02  0.11166051019E+02  0.00000000000E+00 0. -1.
          2    1    1    2  501    0 -0.31235372910E+02 -0.10614657272E+00  0.45393004607E+03  0.45500345770E+03  0.00000000000E+00 0.  1.
          1    1    1    2  502    0  0.31235372910E+02  0.10614657272E+00  0.12317971136E+02  0.33576661550E+02  0.00000000000E+00 0. -1.
</event>
<event>
 4    1  0.3767413E+003  0.2778156E+02  0.7546771E-02  0.1439911E+00
          2   -1    0    0  502    0  0.00000000000E+00  0.00000000000E+00  0.12809421957E+03  0.12809421957E+03  0.00000000000E+00 0.  1.
          1   -1    0    0  501    0 -0.00000000000E+00 -0.00000000000E+00 -0.76902593052E+01  0.76902593052E+01  0.00000000000E+00 0.  1.
          2    1    1    2  501    0  0.13770485283E+02  0.24128589586E+02  0.91791446593E+02  0.95903518016E+02  0.00000000000E+00 0.  1.
          1    1    1    2  502    0 -0.13770485283E+02 -0.24128589586E+02  0.28612513670E+02  0.39880960856E+02  0.00000000000E+00 0.  1.
</event>
<event>
 4    1  0.3767413E+003  0.2358133E+02  0.7546771E-02  0.1485325E+00
          2   -1    0    0  502    0  0.00000000000E+00  0.00000000000E+00  0.13717278644E+03  0.13717278644E+03  0.00000000000E+00 0.  1.
          1   -1    0    0  501    0 -0.00000000000E+00 -0.00000000000E+00 -0.47469635233E+03  0.47469635233E+03  0.00000000000E+00 0.  1.
          2    1    1    2  501    0  0.22632410455E+02 -0.66221568535E+01  0.13586366070E+03  0.13789493560E+03  0.00000000000E+00 0.  1.
          1    1    1    2  502    0 -0.22632410455E+02  0.66221568535E+01 -0.47338722659E+03  0.47397420317E+03  0.00000000000E+00 0.  1.
</event>
<event>
 4    1  0.3767413E+003  0.2544599E+02  0.7546771E-02  0.1463875E+00
          2   -1    0    0  502    0  0.00000000000E+00  0.00000000000E+00  0.12055305795E+04  0.12055305795E+04  0.00000000000E+00 0. -1.
          1   -1    0    0  501    0 -0.00000000000E+00 -0.00000000000E+00 -0.57385107388E+00  0.57385107388E+00  0.00000000000E+00 0. -1.
          2    1    1    2  501    0  0.22686911019E+02  0.11523974958E+02  0.44987862652E+03  0.45059768811E+03  0.00000000000E+00 0. -1.
          1    1    1    2  502    0 -0.22686911019E+02 -0.11523974958E+02  0.75507810192E+03  0.75550674248E+03  0.00000000000E+00 0. -1.
</event>
<event>
 4    1  0.3767413E+003  0.2386671E+02  0.7546771E-02  0.1481892E+00
          2   -1    0    0  502    0  0.00000000000E+00  0.00000000000E+00  0.10193140036E+03  0.10193140036E+03  0.00000000000E+00 0.  1.
          1   -1    0    0  501    0 -0.00000000000E+00 -0.00000000000E+00 -0.11149457177E+02  0.11149457177E+02  0.00000000000E+00 0.  1.
          2    1    1    2  501    0 -0.39989882598E+01  0.23529302102E+02  0.85322513214E+02  0.88597693117E+02  0.00000000000E+00 0.  1.
          1    1    1    2  502    0  0.39989882598E+01 -0.23529302102E+02  0.54594299701E+01  0.24483164422E+02  0.00000000000E+00 0.  1.
</event>
<event>
 4    1  0.3767413E+003  0.2120689E+02  0.7546771E-02  0.1516331E+00
          2   -1    0    0  502    0  0.00000000000E+00  0.00000000000E+00  0.20156106645E+04  0.20156106645E+04  0.00000000000E+00 0.  1.
          1   -1    0    0  501    0 -0.00000000000E+00 -0.00000000000E+00 -0.22693019106E+00  0.22693019106E+00  0.00000000000E+00 0.  1.
          2    1    1    2  501    0  0.20441803232E+02  0.56448592971E+01  0.87716301249E+03  0.87741933090E+03  0.00000000000E+00 0.  1.
          1    1    1    2  502    0 -0.20441803232E+02 -0.56448592971E+01  0.11382207218E+04  0.11384182638E+04  0.00000000000E+00 0.  1.
</event>
<event>
 4    1  0.3767413E+003  0.5647315E+02  0.7546771E-02  0.1272310E+00
          2   -1    0    0  502    0  0.00000000000E+00  0.00000000000E+00  0.53590286874E+03  0.53590286874E+03  0.00000000000E+00 0.  1.
          1   -1    0    0  501    0 -0.00000000000E+00 -0.00000000000E+00 -0.77772811097E+02  0.77772811097E+02  0.00000000000E+00 0.  1.
          2    1    1    2  501    0 -0.44595218260E+02 -0.34647992807E+02  0.52392978202E+03  0.52696454661E+03  0.00000000000E+00 0.  1.
          1    1    1    2  502    0  0.44595218260E+02  0.34647992807E+02 -0.65799724378E+02  0.86711133226E+02  0.00000000000E+00 0.  1.
</event>
<event>
 4    1  0.3767413E+003  0.3005662E+02  0.7546771E-02  0.1419105E+00
          2   -1    0    0  502    0  0.00000000000E+00  0.00000000000E+00  0.19367592907E+04  0.19367592907E+04  0.00000000000E+00 0.  1.
          1   -1    0    0  501    0 -0.00000000000E+00 -0.00000000000E+00 -0.63546512767E+01  0.63546512767E+01  0.00000000000E+00 0. -1.
          2    1    1    2  501    0  0.24939013119E+02 -0.16776351395E+02  0.19004222512E+04  0.19006599205E+04  0.00000000000E+00 0.  1.
          1    1    1    2  502    0 -0.24939013119E+02  0.16776351395E+02  0.29982388266E+02  0.42454021571E+02  0.00000000000E+00 0. -1.
</event>
<event>
 4    1  0.3767413E+003  0.2596245E+02  0.7546771E-02  0.1458318E+00
          2   -1    0    0  502    0  0.00000000000E+00  0.00000000000E+00  0.21169388317E+03  0.21169388317E+03  0.00000000000E+00 0. -1.
          1   -1    0    0  501    0 -0.00000000000E+00 -0.00000000000E+00 -0.45382507389E+01  0.45382507389E+01  0.00000000000E+00 0. -1.
          2    1    1    2  501    0  0.56221865854E+01  0.25346395951E+02  0.16263650984E+03  0.16469572885E+03  0.00000000000E+00 0. -1.
          1    1    1    2  502    0 -0.56221865854E+01 -0.25346395951E+02  0.44519122590E+02  0.51536405054E+02  0.00000000000E+00 0. -1.
</event>
<event>
 4    1  0.3767413E+003  0.2948070E+02  0.7546771E-02  0.1424164E+00
          2   -1    0    0  502    0  0.00000000000E+00  0.00000000000E+00  0.14253598425E+04  0.14253598425E+04  0.00000000000E+00 0.  1.
          1   -1    0    0  501    0 -0.00000000000E+00 -0.00000000000E+00 -0.29054147819E+02  0.29054147819E+02  0.00000000000E+00 0.  1.
          2    1    1    2  501    0  0.25900238879E+02  0.14081520950E+02  0.14176885652E+04  0.14179950563E+04  0.00000000000E+00 0.  1.
          1    1    1    2  502    0 -0.25900238879E+02 -0.14081520950E+02 -0.21382870536E+02  0.36418934068E+02  0.00000000000E+00 0.  1.
</event>
<event>
 4    1  0.3767413E+003  0.2054060E+02  0.7546771E-02  0.1525926E+00
          2   -1    0    0  502    0  0.00000000000E+00  0.00000000000E+00  0.82969558387E+02  0.82969558387E+02  0.00000000000E+00 0. -1.
          1   -1    0    0  501    0 -0.00000000000E+00 -0.00000000000E+00 -0.26261524413E+03  0.26261524413E+03  0.00000000000E+00 0.  1.
          2    1    1    2  501    0 -0.16058970468E+02  0.12807249558E+02  0.81288433712E+02  0.83843459071E+02  0.00000000000E+00 0. -1.
          1    1    1    2  502    0  0.16058970468E+02 -0.12807249558E+02 -0.26093411946E+03  0.26174134345E+03  0.00000000000E+00 0.  1.
</event>
<event>
 4    1  0.3767413E+003  0.2570431E+02  0.7546771E-02  0.1461076E+00
          2   -1    0    0  502    0  0.00000000000E+00  0.00000000000E+00  0.17299670358E+02  0.17299670358E+02  0.00000000000E+00 0.  1.
          1   -1    0    0  501    0 -0.00000000000E+00 -0.00000000000E+00 -0.38213562873E+02  0.38213562873E+02  0.00000000000E+00 0.  1.
          2    1    1    2  501    0 -0.25420889945E+02 -0.38065547134E+01 -0.97998116255E+01  0.27509049643E+02  0.00000000000E+00 0.  1.
          1    1    1    2  502    0  0.25420889945E+02  0.38065547134E+01 -0.11114080889E+02  0.28004183587E+02  0.00000000000E+00 0.  1.
</event>
<event>
 4    1  0.3767413E+003  0.2028134E+02  0.7546771E-02  0.1529777E+00
          2   -1    0    0  502    0  0.00000000000E+00  0.00000000000E+00  0.20466352603E+04  0.20466352603E+04  0.00000000000E+00 0. -1.
          1   -1    0    0  501    0 -0.00000000000E+00 -0.00000000000E+00 -0.21005940985E+00  0.21005940985E+00  0.00000000000E+00 0.  1.
          2    1    1    2  501    0  0.40397819553E+01 -0.19874936220E+02  0.12359827714E+04  0.12361491593E+04  0.00000000000E+00 0. -1.
          1    1    1    2  502    0 -0.40397819553E+01  0.19874936220E+02  0.81044242951E+03  0.81069616039E+03  0.00000000000E+00 0.  1.
</event>
<event>
 4    1  0.3767413E+003  0.2284090E+02  0.7546771E-02  0.1494506E+00
          2   -1    0    0  502    0  0.00000000000E+00  0.00000000000E+00  0.66486688244E+03  0.66486688244E+03  0.00000000000E+00 0.  1.
          1   -1    0    0  501    0 -0.00000000000E+00 -0.00000000000E+00 -0.23729877350E+01  0.23729877350E+01  0.00000000000E+00 0.  1.
          2    1    1    2  501    0  0.22831441424E+02 -0.65736311474E+00  0.60418981970E+03  0.60462140640E+03  0.00000000000E+00 0.  1.
          1    1    1    2  502    0 -0.22831441424E+02  0.65736311474E+00  0.58304075004E+02  0.62618463777E+02  0.00000000000E+00 0.  1.
</event>
<event>
 4    1  0.3767413E+003  0.4175580E+02  0.7546771E-02  0.1338493E+00
          2   -1    0    0  502    0  0.00000000000E+00  0.00000000000E+00  0.36265302068E+02  0.36265302068E+02  0.00000000000E+00 0.  1.
          1   -1    0    0  501    0 -0.00000000000E+00 -0.00000000000E+00 -0.73550761361E+02  0.73550761361E+02  0.00000000000E+00 0. -1.
          2    1    1    2  501    0  0.37921813700E+02 -0.17478056873E+02  0.13670788472E+02  0.43936737291E+02  0.00000000000E+00 0.  1.
          1    1    1    2  502    0 -0.37921813700E+02  0.17478056873E+02 -0.50956247764E+02  0.65879326139E+02  0.00000000000E+00 0. -1.
</event>
<event>
 4    1  0.3767413E+003  0.4372985E+02  0.7546771E-02  0.1327914E+00
          2   -1    0    0  502    0  0.00000000000E+00  0.00000000000E+00  0.11477102096E+04  0.11477102096E+04  0.00000000000E+00 0.  1.
          1   -1    0    0  501    0 -0.00000000000E+00 -0.00000000000E+00 -0.12196156013E+03  0.12196156013E+03  0.00000000000E+00 0. -1.
          2    1    1    2  501    0 -0.23186721074E+02  0.37076624616E+02  0.11433588673E+04  0.11441948258E+04  0.00000000000E+00 0.  1.
          1    1    1    2  502    0  0.23186721074E+02 -0.37076624616E+02 -0.11761021778E+03  0.12547694391E+03  0.00000000000E+00 0. -1.
</event>
<event>
 4    1  0.3767413E+003  0.2078506E+02  0.7546771E-02  0.1522356E+00
          2   -1    0    0  502    0  0.00000000000E+00  0.00000000000E+00  0.86857457494E+02  0.86857457494E+02  0.00000000000E+00 0. -1.
          1   -1    0    0  501    0 -0.00000000000E+00 -0.00000000000E+00 -0.17948676855E+02  0.17948676855E+02  0.00000000000E+00 0.  1.
          2    1    1    2  501    0  0.12102235650E+02 -0.16898362669E+02  0.79008804026E+02  0.81697061650E+02  0.00000000000E+00 0. -1.
          1    1    1    2  502    0 -0.12102235650E+02  0.16898362669E+02 -0.10100023387E+02  0.23109072700E+02  0.00000000000E+00 0.  1.
</event>
<event>
 4    1  0.3767413E+003  0.2269736E+02  0.7546771E-02  0.1496334E+00
          2   -1    0    0  502    0  0.00000000000E+00  0.00000000000E+00  0.13399309787E+03  0.13399309787E+03  0.00000000000E+00 0. -1.
          1   -1    0    0  501    0 -0.00000000000E+00 -0.00000000000E+00 -0.11264915310E+03  0.11264915310E+03  0.00000000000E+00 0. -1.
          2    1    1    2  501    0 -0.20743655709E+02  0.92125424791E+01  0.13187033320E+03  0.13380939791E+03  0.00000000000E+00 0. -1.
          1    1    1    2  502    0  0.20743655709E+02 -0.92125424791E+01 -0.11052638842E+03  0.11283285306E+03  0.00000000000E+00 0. -1.
</event>
<event>
 4    1  0.3767413E+003  0.3818424E+02  0.7546771E-02  0.1359468E+00
          2   -1    0    0  502    0  0.00000000000E+00  0.00000000000E+00  0.20750611275E+02  0.20750611275E+02  0.00000000000E+00 0. -1.
          1   -1    0    0  501    0 -0.00000000000E+00 -0.00000000000E+00 -0.29379722117E+03  0.29379722117E+03  0.00000000000E+00 0. -1.
          2    1    1    2  501    0  0.35135289928E+02  0.14951515134E+02  0.66060415578E+00  0.38189956807E+02  0.00000000000E+00 0. -1.
          1    1    1    2  502    0 -0.35135289928E+02 -0.14951515134E+02 -0.27370721405E+03  0.27635787563E+03  0.00000000000E+00 0. -1.
</event>
<event>
 4    1  0.3767413E+003  0.2023991E+02  0.7546771E-02  0.1530399E+00
          2   -1    0    0  502    0  0.00000000000E+00  0.00000000000E+00  0.83603967589E+03  0.83603967589E+03  0.00000000000E+00 0. -1.
          1   -1    0    0  501    0 -0.00000000000E+00 -0.00000000000E+00 -0.85097251375E+02  0.85097251375E+02  0.00000000000E+00 0. -1.
          2    1    1    2  501    0  0.61779985664E+01  0.19273977313E+02  0.83471177591E+03  0.83495712627E+03  0.00000000000E+00 0. -1.
          1    1    1    2  502    0 -0.61779985664E+01 -0.19273977313E+02 -0.83769351391E+02  0.86179800999E+02  0.00000000000E+00 0. -1.
</event>
<event>
 4    1  0.3767413E+003  0.2795743E+02  0.7546771E-02  0.1438221E+00
          2   -1    0    0  502    0  0.00000000000E+00  0.00000000000E+00  0.22591512423E+03  0.22591512423E+03  0.00000000000E+00 0.  1.
          1   -1    0    0  501    0 -0.00000000000E+00 -0.00000000000E+00 -0.52068320449E+03  0.52068320449E+03  0.00000000000E+00 0. -1.
          2    1    1    2  501    0  0.27499969144E+02  0.50368183308E+01  0.22467282604E+03  0.22640560197E+03  0.00000000000E+00 0.  1.
          1    1    1    2  502    0 -0.27499969144E+02 -0.50368183308E+01 -0.51944090629E+03  0.52019272676E+03  0.00000000000E+00 0. -1.
</event>
<event>
 4    1  0.3767413E+003  0.2231236E+02  0.7546771E-02  0.1501318E+00
          2   -1    0    0  502    0  0.00000000000E+00  0.00000000000E+00  0.96478429971E+03  0.96478429971E+03  0.00000000000E+00 0.  1.
          1   -1    0    0  501    0 -0.00000000000E+00 -0.00000000000E+00 -0.29313561240E+01  0.29313561240E+01  0.00000000000E+00 0. -1.
          2    1    1    2  501    0 -0.21561371844E+02  0.57400826771E+01  0.92013715145E+03  0.92040763729E+03  0.00000000000E+00 0.  1.
          1    1    1    2  502    0  0.21561371844E+02 -0.57400826771E+01  0.41715792136E+02  0.47308018543E+02  0.00000000000E+00 0. -1.
</event>
<event>
 4    1  0.3767413E+003  0.4325616E+02  0.7546771E-02  0.1330393E+00
          2   -1    0    0  502    0  0.00000000000E+00  0.00000000000E+00  0.21055418453E+03  0.21055418453E+03  0.00000000000E+00 0. -1.
          1   -1    0    0  501    0 -0.00000000000E+00 -0.00000000000E+00 -0.34459606011E+03  0.34459606011E+03  0.00000000000E+00 0.  1.
          2    1    1    2  501    0  0.32174160101E+02 -0.28912256970E+02  0.20695172066E+03  0.21142400494E+03  0.00000000000E+00 0. -1.
          1    1    1    2  502    0 -0.32174160101E+02  0.28912256970E+02 -0.34099359624E+03  0.34372623970E+03  0.00000000000E+00 0.  1.
</event>
<event>
 4    1  0.3767413E+003  0.2125372E+02  0.7546771E-02  0.1515673E+00
          2   -1    0    0  502    0  0.00000000000E+00  0.00000000000E+00  0.14375545727E+04  0.14375545727E+04  0.00000000000E+00 0.  1.
          1   -1    0    0  501    0 -0.00000000000E+00 -0.00000000000E+00 -0.18544932661E+03  0.18544932661E+03  0.00000000000E+00 0.  1.
          2    1    1    2  501    0 -0.21177166193E+02  0.18022377674E+01  0.14368667702E+04  0.14370239510E+04  0.00000000000E+00 0.  1.
          1    1    1    2  502    0  0.21177166193E+02 -0.18022377674E+01 -0.18476152405E+03  0.18597994837E+03  0.00000000000E+00 0.  1.
</event>
<event>
 4    1  0.3767413E+003  0.3228043E+02  0.7546771E-02  0.1400762E+00
          2   -1    0    0  502    0  0.00000000000E+00  0.00000000000E+00  0.15038380836E+02  0.15038380836E+02  0.00000000000E+00 0.  1.
          1   -1    0    0  501    0 -0.00000000000E+00 -0.00000000000E+00 -0.26535348697E+03  0.26535348697E+03  0.00000000000E+00 0.  1.
          2    1    1    2  501    0  0.59120772297E+01 -0.31734419612E+02 -0.46483666826E+01  0.32613392312E+02  0.00000000000E+00 0.  1.
          1    1    1    2  502    0 -0.59120772297E+01  0.31734419612E+02 -0.24566673945E+03  0.24777847549E+03  0.00000000000E+00 0.  1.
</event>
<event>
 4    1  0.3767413E+003  0.4405140E+02  0.7546771E-02  0.1326251E+00
          2   -1    0    0  502    0  0.00000000000E+00  0.00000000000E+00  0.71195269451E+03  0.71195269451E+03  0.00000000000E+00 0. -1.
          1   -1    0    0  501    0 -0.00000000000E+00 -0.00000000000E+00 -0.88143065626E+01  0.88143065626E+01  0.00000000000E+00 0.  1.
          2    1    1    2  501    0 -0.15108451893E+01  0.44025480130E+02  0.65109343676E+03  0.65258194041E+03  0.00000000000E+00 0. -1.
          1    1    1    2  502    0  0.15108451893E+01 -0.44025480130E+02  0.52044951188E+02  0.68185060666E+02  0.00000000000E+00 0.  1.
</event>
<event>
 4    1  0.3767413E+003  0.2524964E+02  0.7546771E-02  0.1466030E+00
          2   -1    0    0  502    0  0.00000000000E+00  0.00000000000E+00  0.76996329329E+02  0.76996329329E+02  0.00000000000E+00 0. -1.
          1   -1    0    0  501    0 -0.00000000000E+00 -0.00000000000E+00 -0.83706814272E+01  0.83706814272E+01  0.00000000000E+00 0. -1.
          2    1    1    2  501    0 -0.10807007283E+02 -0.22820012875E+02  0.38750733738E+02  0.46251094682E+02  0.00000000000E+00 0. -1.
          1    1    1    2  502    0  0.10807007283E+02  0.22820012875E+02  0.29874914164E+02  0.39115916075E+02  0.00000000000E+00 0. -1.
</event>
<event>
 4    1  0.3767413E+003  0.3335523E+02  0.7546771E-02  0.1392510E+00
          2   -1    0    0  502    0  0.00000000000E+00  0.00000000000E+00  0.11835738061E+04  0.11835738061E+04  0.00000000000E+00 0.  1.
          1   -1    0    0  501    0 -0.00000000000E+00 -0.00000000000E+00 -0.22398788895E+02  0.22398788895E+02  0.00000000000E+00 0.  1.
          2    1    1    2  501    0  0.33277654962E+02 -0.22735704209E+01  0.11707854296E+04  0.11712604722E+04  0.00000000000E+00 0.  1.
          1    1    1    2  502    0 -0.33277654962E+02  0.22735704209E+01 -0.96104124427E+01  0.34712122804E+02  0.00000000000E+00 0.  1.
</event>
<event>
 4    1  0.3767413E+003  0.2554000E+02  0.7546771E-02  0.1462852E+00
          2   -1    0    0  502    0  0.00000000000E+00  0.00000000000E+00  0.31421243944E+02  0.31421243944E+02  0.00000000000E+00 0.  1.
          1   -1    0    0  501    0 -0.00000000000E+00 -0.00000000000E+00 -0.12051369718E+03  0.12051369718E+03  0.00000000000E+00 0. -1.
          2    1    1    2  501    0 -0.24791442087E+02 -0.61380646379E+01  0.24569185644E+02  0.35439191885E+02  0.00000000000E+00 0.  1.
          1    1    1    2  502    0  0.24791442087E+02  0.61380646379E+01 -0.11366163888E+03  0.11649574924E+03  0.00000000000E+00 0. -1.
</event>
<event>
 4    1  0.3767413E+003  0.2249127E+02  0.7546771E-02  0.1498987E+00
          2   -1    0    0  502    0  0.00000000000E+00  0.00000000000E+00  0.36404868029E+01  0.36404868029E+01  0.00000000000E+00 0.  1.
          1   -1    0    0  501    0 -0.00000000000E+00 -0.00000000000E+00 -0.13897531155E+03  0.13897531155E+03  0.00000000000E+00 0.  1.
          2    1    1    2  501    0 -0.14200816343E+02  0.17441157578E+02 -0.66767242701E+02  0.70453685924E+02  0.00000000000E+00 0.  1.
          1    1    1    2  502    0  0.14200816343E+02 -0.17441157578E+02 -0.68567582048E+02  0.72162112430E+02  0.00000000000E+00 0.  1.
</event>
<event>
 4    1  0.3767413E+003  0.5622258E+02  0.7546771E-02  0.1273237E+00
          2   -1    0    0  502    0  0.00000000000E+00  0.00000000000E+00  0.38410513747E+03  0.38410513747E+03  0.00000000000E+00 0.  1.
          1   -1    0    0  501    0 -0.00000000000E+00 -0.00000000000E+00 -0.17719406598E+02  0.17719406598E+02  0.00000000000E+00 0.  1.
          2    1    1    2  501    0 -0.23017965495E+02 -0.51294756981E+02  0.33022548841E+03  0.33497739032E+03  0.00000000000E+00 0.  1.
          1    1    1    2  502    0  0.23017965495E+02  0.51294756981E+02  0.36160242460E+02  0.66847153747E+02  0.00000000000E+00 0.  1.
</event>
<event>
 4    1  0.3767413E+003  0.2365779E+02  0.7546771E-02  0.1484399E+00
          2   -1    0    0  502    0  0.00000000000E+00  0.00000000000E+00  0.16648626899E+03  0.16648626899E+03  0.00000000000E+00 0.  1.
          1   -1    0    0  501    0 -0.00000000000E+00 -0.00000000000E+00 -0.43702704772E+01  0.43702704772E+01  0.00000000000E+00 0.  1.
          2    1    1    2  501    0 -0.16035247948E+02  0.17394300105E+02  0.12209565279E+03  0.12436655211E+03  0.00000000000E+00 0.  1.
          1    1    1    2  502    0  0.16035247948E+02 -0.17394300105E+02  0.40020345718E+02  0.46489987355E+02  0.00000000000E+00 0.  1.
</event>
<event>
 4    1  0.3767413E+003  0.3022233E+02  0.7546771E-02  0.1417674E+00
          2   -1    0    0  502    0  0.00000000000E+00  0.00000000000E+00  0.11854142107E+03  0.11854142107E+03  0.00000000000E+00 0. -1.
          1   -1    0    0  501    0 -0.00000000000E+00 -0.00000000000E+00 -0.71136821310E+03  0.71136821310E+03  0.00000000000E+00 0.  1.
          2    1    1    2  501    0  0.10494068885E+02  0.28341911389E+02  0.11628799643E+03  0.12015110294E+03  0.00000000000E+00 0. -1.
          1    1    1    2  502    0 -0.10494068885E+02 -0.28341911389E+02 -0.70911478847E+03  0.70975853123E+03  0.00000000000E+00 0.  1.
</event>
<event>
 4    1  0.3767413E+003  0.2920150E+02  0.7546771E-02  0.1426665E+00
          2   -1    0    0  502    0  0.00000000000E+00  0.00000000000E+00  0.58388846612E+02  0.58388846612E+02  0.00000000000E+00 0.  1.
          1   -1    0    0  501    0 -0.00000000000E+00 -0.00000000000E+00 -0.95500451388E+03  0.95500451388E+03  0.00000000000E+00 0. -1.
          2    1    1    2  501    0  0.25333737190E+01 -0.29091398994E+02  0.54499622658E+02  0.61829898493E+02  0.00000000000E+00 0.  1.
          1    1    1    2  502    0 -0.25333737190E+01  0.29091398994E+02 -0.95111528993E+03  0.95156346200E+03  0.00000000000E+00 0. -1.
</event>
<event>
 4    1  0.3767413E+003  0.2285757E+02  0.7546771E-02  0.1494294E+00
          2   -1    0    0  502    0  0.00000000000E+00  0.00000000000E+00  0.19362149516E+03  0.19362149516E+03  0.00000000000E+00 0. -1.
          1   -1    0    0  501    0 -0.00000000000E+00 -0.00000000000E+00 -0.53868819297E+03  0.53868819297E+03  0.00000000000E+00 0. -1.
          2    1    1    2  501    0 -0.11123317533E+02 -0.19968482952E+02  0.19270327088E+03  0.19405416541E+03  0.00000000000E+00 0. -1.
          1    1    1    2  502    0  0.11123317533E+02  0.19968482952E+02 -0.53776996869E+03  0.53825552271E+03  0.00000000000E+00 0. -1.
</event>
<event>
 4    1  0.3767413E+003  0.2033011E+02  0.7546771E-02  0.1529048E+00
          2   -1    0    0  502    0  0.00000000000E+00  0.00000000000E+00  0.72536828588E+01  0.72536828588E+01  0.00000000000E+00 0. -1.
          1   -1    0    0  501    0 -0.00000000000E+00 -0.00000000000E+00 -0.44640092156E+03  0.44640092156E+03  0.00000000000E+00 0.  1.
          2    1    1    2  501    0 -0.35916229541E+01 -0.20010337726E+02 -0.77167550662E+01  0.21745382960E+02  0.00000000000E+00 0. -1.
          1    1    1    2  502    0  0.35916229541E+01  0.20010337726E+02 -0.43143048363E+03  0.43190922145E+03  0.00000000000E+00 0.  1.
</event>
<event>
 4    1  0.3767413E+003  0.4560021E+02  0.7546771E-02  0.1318465E+00
          2   -1    0    0  502    0  0.00000000000E+00  0.00000000000E+00  0.89339095678E+03  0.89339095678E+03  0.00000000000E+00 0.  1.
          1   -1    0    0  501    0 -0.00000000000E+00 -0.00000000000E+00 -0.74045708941E+02  0.74045708941E+02  0.00000000000E+00 0.  1.
          2    1    1    2  501    0 -0.44359321285E+02 -0.10565507644E+02  0.88572778396E+03  0.88690083246E+03  0.00000000000E+00 0.  1.
          1    1    1    2  502    0  0.44359321285E+02  0.10565507644E+02 -0.66382536124E+02  0.80535833260E+02  0.00000000000E+00 0.  1.
</event>
<event>
 4    1  0.3767413E+003  0.2234887E+02  0.7546771E-02  0.1500840E+00
          2   -1    0    0  502    0  0.00000000000E+00  0.00000000000E+00  0.26153113090E+01  0.26153113090E+01  0.00000000000E+00 0.  1.
          1   -1    0    0  501    0 -0.00000000000E+00 -0.00000000000E+00 -0.14155007882E+04  0.14155007882E+04  0.00000000000E+00 0. -1.
          2    1    1    2  501    0  0.20437366756E+02 -0.90435586029E+01 -0.46950282973E+02  0.51998086343E+02  0.00000000000E+00 0.  1.
          1    1    1    2  502    0 -0.20437366756E+02  0.90435586029E+01 -0.13659351940E+04  0.13661180132E+04  0.00000000000E+00 0. -1.
</event>
<event>
 4    1  0.3767413E+003  0.2189752E+02  0.7546771E-02  0.1506826E+00
          2   -1    0    0  502    0  0.00000000000E+00  0.00000000000E+00  0.14806287123E+03  0.14806287123E+03  0.00000000000E+00 0. -1.
          1   -1    0    0  501    0 -0.00000000000E+00 -0.00000000000E+00 -0.17863537226E+02  0.17863537226E+02  0.00000000000E+00 0.  1.
          2    1    1    2  501    0  0.17988404517E+02 -0.12486735479E+02  0.14016688350E+03  0.14186703807E+03  0.00000000000E+00 0. -1.
          1    1    1    2  502    0 -0.17988404517E+02  0.12486735479E+02 -0.99675495032E+01  0.24059370380E+02  0.00000000000E+00 0.  1.
</event>
<event>
 4    1  0.3767413E+003  0.5446730E+02  0.7546771E-02  0.1279885E+00
          2   -1    0    0  502    0  0.00000000000E+00  0.00000000000E+00  0.83133409382E+03  0.83133409382E+03  0.00000000000E+00 0. -1.
          1   -1    0    0  501    0 -0.00000000000E+00 -0.00000000000E+00 -0.22289772732E+02  0.22289772732E+02  0.00000000000E+00 0.  1.
          2    1    1    2  501    0 -0.24407668683E+02 -0.48692427697E+02  0.79567854786E+03  0.79754061861E+03  0.00000000000E+00 0. -1.
          1    1    1    2  502    0  0.24407668683E+02  0.48692427697E+02  0.13365773223E+02  0.56083247939E+02  0.00000000000E+00 0.  1.
</event>
<event>
 4    1  0.3767413E+003  0.2162229E+02  0.7546771E-02  0.1510563E+00
          2   -1    0    0  502    0  0.00000000000E+00  0.00000000000E+00  0.28217188642E+01  0.28217188642E+01  0.00000000000E+00 0.  1.
          1   -1    0    0  501    0 -0.00000000000E+00 -0.00000000000E+00 -0.18424013093E+03  0.18424013093E+03  0.00000000000E+00 0.  1.
          2    1    1    2  501    0 -0.47626697249E+01  0.21091223968E+02 -0.12038956532E+03  0.12231586238E+03  0.00000000000E+00 0.  1.
          1    1    1    2  502    0  0.47626697249E+01 -0.21091223968E+02 -0.61028846752E+02  0.64745987422E+02  0.00000000000E+00 0.  1.
</event>
<event>
 4    1  0.3767413E+003  0.2120856E+02  0.7546771E-02  0.1516308E+00
          2   -1    0    0  502    0  0.00000000000E+00  0.00000000000E+00  0.37606450935E+03  0.37606450935E+03  0.00000000000E+00 0. -1.
          1   -1    0    0  501    0 -0.00000000000E+00 -0.00000000000E+00 -0.75455597585E+01  0.75455597585E+01  0.00000000000E+00 0.  1.
          2    1    1    2  501    0 -0.20286053010E+02  0.61870005425E+01  0.36020708452E+03  0.36083091146E+03  0.00000000000E+00 0. -1.
          1    1    1    2  502    0  0.20286053010E+02 -0.61870005425E+01  0.83118650704E+01  0.22779157653E+02  0.00000000000E+00 0.  1.
</event>
<event>
 4    1  0.3767413E+003  0.2036146E+02  0.7546771E-02  0.1528580E+00
          2   -1    0    0  502    0  0.00000000000E+00  0.00000000000E+00  0.83105886502E+02  0.83105886502E+02  0.00000000000E+00 0.  1.
          1   -1    0    0  501    0 -0.00000000000E+00 -0.00000000000E+00 -0.98981037354E+02  0.98981037354E+02  0.00000000000E+00 0. -1.
          2    1    1    2  501    0 -0.19708257064E+02 -0.51160009448E+01  0.80781912942E+02  0.83308500891E+02  0.00000000000E+00 0.  1.
          1    1    1    2  502    0  0.19708257064E+02  0.51160009448E+01 -0.96657063794E+02  0.98778422965E+02  0.00000000000E+00 0. -1.
</event>
<event>
 4    1  0.3767413E+003  0.2093689E+02  0.7546771E-02  0.1520168E+00
          2   -1    0    0  502    0  0.00000000000E+00  0.00000000000E+00  0.12230278134E+04  0.12230278134E+04  0.00000000000E+00 0. -1.
          1   -1    0    0  501    0 -0.00000000000E+00 -0.00000000000E+00 -0.93234611099E+00  0.93234611099E+00  0.00000000000E+00 0.  1.
          2    1    1    2  501    0 -0.17445182317E+02 -0.11576661645E+02  0.10911988900E+04  0.10913997302E+04  0.00000000000E+00 0. -1.
          1    1    1    2  502    0  0.17445182317E+02  0.11576661645E+02  0.13089657734E+03  0.13256042939E+03  0.00000000000E+00 0.  1.
</event>
<event>
 4    1  0.3767413E+003  0.1048752E+03  0.7546771E-02  0.1155618E+00
          2   -1    0    0  502    0  0.00000000000E+00  0.00000000000E+00  0.62568874305E+03  0.62568874305E+03  0.00000000000E+00 0. -1.
          1   -1    0    0  501    0 -0.00000000000E+00 -0.00000000000E+00 -0.64624385473E+02  0.64624385473E+02  0.00000000000E+00 0. -1.
          2    1    1    2  501    0 -0.10289447639E+03  0.20286144576E+02  0.57502707908E+03  0.58451256839E+03  0.00000000000E+00 0. -1.
          1    1    1    2  502    0  0.10289447639E+03 -0.20286144576E+02 -0.13962721501E+02  0.10580056013E+03  0.00000000000E+00 0. -1.
</event>
<event>
 4    1  0.3767413E+003  0.2694095E+02  0.7546771E-02  0.1448202E+00
          2   -1    0    0  502    0  0.00000000000E+00  0.00000000000E+00  0.49521521133E+01  0.49521521133E+01  0.00000000000E+00 0.  1.
          1   -1    0    0  501    0 -0.00000000000E+00 -0.00000000000E+00 -0.52330475670E+03  0.52330475670E+03  0.00000000000E+00 0.  1.
          2    1    1    2  501    0 -0.25524624812E+02 -0.86202284207E+01 -0.35067833358E+02  0.44221801707E+02  0.00000000000E+00 0.  1.
          1    1    1    2  502    0  0.25524624812E+02  0.86202284207E+01 -0.48328477123E+03  0.48403510711E+03  0.00000000000E+00 0.  1.
</event>
<event>
 4    1  0.3767413E+003  0.2405363E+02  0.7546771E-02  0.1479675E+00
          2   -1    0    0  502    0  0.00000000000E+00  0.00000000000E+00  0.44478819960E+03  0.44478819960E+03  0.00000000000E+00 0. -1.
          1   -1    0    0  501    0 -0.00000000000E+00 -0.00000000000E+00 -0.34366752108E+02  0.34366752108E+02  0.00000000000E+00 0.  1.
          2    1    1    2  501    0  0.15860988133E+01 -0.24001279075E+02  0.44021042272E+03  0.44086709264E+03  0.00000000000E+00 0. -1.
          1    1    1    2  502    0 -0.15860988133E+01  0.24001279075E+02 -0.29788975226E+02  0.38287859064E+02  0.00000000000E+00 0.  1.
</event>
<event>
 4    1  0.3767413E+003  0.2819617E+02  0.7546771E-02  0.1435949E+00
          2   -1    0    0  502    0  0.00000000000E+00  0.00000000000E+00  0.33049647577E+03  0.33049647577E+03  0.00000000000E+00 0.  1.
          1   -1    0    0  501    0 -0.00000000000E+00 -0.00000000000E+00 -0.26416219925E+01  0.26416219925E+01  0.00000000000E+00 0. -1.
          2    1    1    2  501    0  0.27758472859E+02 -0.49488336336E+01  0.21372255405E+03  0.21557447409E+03  0.00000000000E+00 0.  1.
          1    1    1    2  502    0 -0.27758472859E+02  0.49488336336E+01  0.11413229973E+03  0.11756362367E+03  0.00000000000E+00 0. -1.
</event>
<event>
 4    1  0.3767413E+003  0.2062272E+02  0.7546771E-02  0.1524720E+00
          2   -1    0    0  502    0  0.00000000000E+00  0.00000000000E+00  0.90344842862E+03  0.90344842862E+03  0.00000000000E+00 0. -1.
          1   -1    0    0  501    0 -0.00000000000E+00 -0.00000000000E+00 -0.72686317339E+00  0.72686317339E+00  0.00000000000E+00 0. -1.
          2    1    1    2  501    0 -0.95855805769E+01 -0.18259607574E+02  0.71971837271E+03  0.72001377254E+03  0.00000000000E+00 0. -1.
          1    1    1    2  502    0  0.95855805769E+01  0.18259607574E+02  0.18300319273E+03  0.18416151926E+03  0.00000000000E+00 0. -1.
</event>
<event>
 4    1  0.3767413E+003  0.3934996E+02  0.7546771E-02  0.1352338E+00
          2   -1    0    0  502    0  0.00000000000E+00  0.00000000000E+00  0.60506103938E+01  0.60506103938E+01  0.00000000000E+00 0.  1.
          1   -1    0    0  501    0 -0.00000000000E+00 -0.00000000000E+00 -0.96936861182E+03  0.96936861182E+03  0.00000000000E+00 0. -1.
          2    1    1    2  501    0 -0.36831377853E+02 -0.13851666222E+02 -0.63250152304E+02  0.74491615757E+02  0.00000000000E+00 0.  1.
          1    1    1    2  502    0  0.36831377853E+02  0.13851666222E+02 -0.90006784912E+03  0.90092760646E+03  0.00000000000E+00 0. -1.
</event>
<event>
 4    1  0.3767413E+003  0.3102122E+02  0.7546771E-02  0.1410925E+00
          2   -1    0    0  502    0  0.00000000000E+00  0.00000000000E+00  0.28920614299E+03  0.28920614299E+03  0.00000000000E+00 0. -1.
          1   -1    0    0  501    0 -0.00000000000E+00 -0.00000000000E+00 -0.67314591838E+01  0.67314591838E+01  0.00000000000E+00 0.  1.
          2    1    1    2  501    0  0.14920410689E+02 -0.27197380125E+02  0.24646054899E+03  0.24840514961E+03  0.00000000000E+00 0. -1.
          1    1    1    2  502    0 -0.14920410689E+02  0.27197380125E+02  0.36014134812E+02  0.47532452567E+02  0.00000000000E+00 0.  1.
</event>
<event>
 4    1  0.3767413E+003  0.2187369E+02  0.7546771E-02  0.1507147E+00
          2   -1    0    0  502    0  0.00000000000E+00  0.00000000000E+00  0.20126872111E+03  0.20126872111E+03  0.00000000000E+00 0.  1.
          1   -1    0    0  501    0 -0.00000000000E+00 -0.00000000000E+00 -0.12254098047E+02  0.12254098047E+02  0.00000000000E+00 0. -1.
          2    1    1    2  501    0 -0.21762337494E+02 -0.22043320063E+01  0.19035544193E+03  0.19160807051E+03  0.00000000000E+00 0.  1.
          1    1    1    2  502    0  0.21762337494E+02  0.22043320063E+01 -0.13408188691E+01  0.21914748642E+02  0.00000000000E+00 0. -1.
</event>
<event>
 4    1  0.3767413E+003  0.2773411E+02  0.7546771E-02  0.1440370E+00
          2   -1    0    0  502    0  0.00000000000E+00  0.00000000000E+00  0.12137676777E+03  0.12137676777E+03  0.00000000000E+00 0. -1.
          1   -1    0    0  501    0 -0.00000000000E+00 -0.00000000000E+00 -0.11862537113E+02  0.11862537113E+02  0.00000000000E+00 0.  1.
          2    1    1    2  501    0  0.20094937810E+02 -0.19114772245E+02  0.10022403049E+03  0.10399056367E+03  0.00000000000E+00 0. -1.
          1    1    1    2  502    0 -0.20094937810E+02  0.19114772245E+02  0.92902001623E+01  0.29248741214E+02  0.00000000000E+00 0.  1.
</event>
<event>
 4    1  0.3767413E+003  0.2769322E+02  0.7546771E-02  0.1440766E+00
          2   -1    0    0  502    0  0.00000000000E+00  0.00000000000E+00  0.39698035216E+03  0.39698035216E+03  0.00000000000E+00 0. -1.
          1   -1    0    0  501    0 -0.00000000000E+00 -0.00000000000E+00 -0.21767866216E+03  0.21767866216E+03  0.00000000000E+00 0. -1.
          2    1    1    2  501    0  0.11497520841E+02 -0.25193681916E+02  0.39561355775E+03  0.39658164566E+03  0.00000000000E+00 0. -1.
          1    1    1    2  502    0 -0.11497520841E+02  0.25193681916E+02 -0.21631186775E+03  0.21807736866E+03  0.00000000000E+00 0. -1.
</event>
<event>
 4    1  0.3767413E+003  0.2542990E+02  0.7546771E-02  0.1464051E+00
          2   -1    0    0  502    0  0.00000000000E+00  0.00000000000E+00  0.16806544284E+03  0.16806544284E+03  0.00000000000E+00 0. -1.
          1   -1    0    0  501    0 -0.00000000000E+00 -0.00000000000E+00 -0.38494749887E+01  0.38494749887E+01  0.00000000000E+00 0. -1.
          2    1    1    2  501    0 -0.14472492541E+02 -0.20909965252E+02  0.83909038408E+02  0.87677855892E+02  0.00000000000E+00 0. -1.
          1    1    1    2  502    0  0.14472492541E+02  0.20909965252E+02  0.80306929446E+02  0.84237061940E+02  0.00000000000E+00 0. -1.
</event>
<event>
 4    1  0.3767413E+003  0.2061674E+02  0.7546771E-02  0.1524808E+00
          2   -1    0    0  502    0  0.00000000000E+00  0.00000000000E+00  0.12910695833E+03  0.12910695833E+03  0.00000000000E+00 0.  1.
          1   -1    0    0  501    0 -0.00000000000E+00 -0.00000000000E+00 -0.33722587618E+01  0.33722587618E+01  0.00000000000E+00 0.  1.
          2    1    1    2  501    0 -0.65646463376E+01  0.19543683211E+02  0.73071417917E+02  0.75924187525E+02  0.00000000000E+00 0.  1.
          1    1    1    2  502    0  0.65646463376E+01 -0.19543683211E+02  0.52663281656E+02  0.56555029571E+02  0.00000000000E+00 0.  1.
</event>
<event>
 4    1  0.3767413E+003  0.2905375E+02  0.7546771E-02  0.1428001E+00
          2   -1    0    0  502    0  0.00000000000E+00  0.00000000000E+00  0.46610512879E+03  0.46610512879E+03  0.00000000000E+00 0. -1.
          1   -1    0    0  501    0 -0.00000000000E+00 -0.00000000000E+00 -0.17973276075E+04  0.17973276075E+04  0.00000000000E+00 0. -1.
          2    1    1    2  501    0  0.53842932062E+01 -0.28550482320E+02  0.46553481950E+03  0.46644055229E+03  0.00000000000E+00 0. -1.
          1    1    1    2  502    0 -0.53842932062E+01  0.28550482320E+02 -0.17967572982E+04  0.17969921840E+04  0.00000000000E+00 0. -1.
</event>
<event>
 4    1  0.3767413E+003  0.2128689E+02  0.7546771E-02  0.1515208E+00
          2   -1    0    0  502    0  0.00000000000E+00  0.00000000000E+00  0.10269583535E+02  0.10269583535E+02  0.00000000000E+00 0. -1.
          1   -1    0    0  501    0 -0.00000000000E+00 -0.00000000000E+00 -0.10753840708E+04  0.10753840708E+04  0.00000000000E+00 0. -1.
          2    1    1    2  501    0 -0.20747199562E+02 -0.47629040307E+01 -0.98330879324E+00  0.21309585652E+02  0.00000000000E+00 0. -1.
          1    1    1    2  502    0  0.20747199562E+02  0.47629040307E+01 -0.10641311785E+04  0.10643440687E+04  0.00000000000E+00 0. -1.
</event>
<event>
 4    1  0.3767413E+003  0.2528256E+02  0.7546771E-02  0.1465667E+00
          2   -1    0    0  502    0  0.00000000000E+00  0.00000000000E+00  0.11010885188E+04  0.11010885188E+04  0.00000000000E+00 0. -1.
          1   -1    0    0  501    0 -0.00000000000E+00 -0.00000000000E+00 -0.21750745672E+02  0.21750745672E+02  0.00000000000E+00 0.  1.
          2    1    1    2  501    0 -0.22120388188E+02 -0.12243216056E+02  0.10935457532E+04  0.10938379781E+04  0.00000000000E+00 0. -1.
          1    1    1    2  502    0  0.22120388188E+02  0.12243216056E+02 -0.14207980102E+02  0.29001286378E+02  0.00000000000E+00 0.  1.
</event>
<event>
 4    1  0.3767413E+003  0.3087443E+02  0.7546771E-02  0.1412147E+00
          2   -1    0    0  502    0  0.00000000000E+00  0.00000000000E+00  0.66191935684E+03  0.66191935684E+03  0.00000000000E+00 0. -1.
          1   -1    0    0  501    0 -0.00000000000E+00 -0.00000000000E+00 -0.54629986080E+02  0.54629986080E+02  0.00000000000E+00 0.  1.
          2    1    1    2  501    0  0.67494424942E+01 -0.30127656707E+02  0.65716558021E+03  0.65789043957E+03  0.00000000000E+00 0. -1.
          1    1    1    2  502    0 -0.67494424942E+01  0.30127656707E+02 -0.49876209449E+02  0.58658903345E+02  0.00000000000E+00 0.  1.
</event>
<event>
 4    1  0.3767413E+003  0.2469332E+02  0.7546771E-02  0.1472264E+00
          2   -1    0    0  502    0  0.00000000000E+00  0.00000000000E+00  0.32906507289E+02  0.32906507289E+02  0.00000000000E+00 0. -1.
          1   -1    0    0  501    0 -0.00000000000E+00 -0.00000000000E+00 -0.24463421858E+03  0.24463421858E+03  0.00000000000E+00 0.  1.
          2    1    1    2  501    0  0.13923350690E+02 -0.20393629836E+02  0.27547374534E+02  0.36994833099E+02  0.00000000000E+00 0. -1.
          1    1    1    2  502    0 -0.13923350690E+02  0.20393629836E+02 -0.23927508582E+03  0.24054589277E+03  0.00000000000E+00 0.  1.
</event>
<event>
 4    1  0.3767413E+003  0.2559290E+02  0.7546771E-02  0.1462279E+00
          2   -1    0    0  502    0  0.00000000000E+00  0.00000000000E+00  0.15427831265E+03  0.15427831265E+03  0.00000000000E+00 0. -1.
          1   -1    0    0  501    0 -0.00000000000E+00 -0.00000000000E+00 -0.54285058864E+01  0.54285058864E+01  0.00000000000E+00 0. -1.
          2    1    1    2  501    0  0.15315677344E+02 -0.20504310780E+02  0.11170156867E+03  0.11459597365E+03  0.00000000000E+00 0. -1.
          1    1    1    2  502    0 -0.15315677344E+02  0.20504310780E+02  0.37148238094E+02  0.45110844889E+02  0.00000000000E+00 0. -1.
</event>
<event>
 4    1  0.3767413E+003  0.2267330E+02  0.7546771E-02  0.1496642E+00
          2   -1    0    0  502    0  0.00000000000E+00  0.00000000000E+00  0.14344959643E+03  0.14344959643E+03  0.00000000000E+00 0.  1.
          1   -1    0    0  501    0 -0.00000000000E+00 -0.00000000000E+00 -0.55574322758E+02  0.55574322758E+02  0.00000000000E+00 0. -1.
          2    1    1    2  501    0 -0.19060975917E+02  0.12278335897E+02  0.14018764090E+03  0.14200934123E+03  0.00000000000E+00 0.  1.
          1    1    1    2  502    0  0.19060975917E+02 -0.12278335897E+02 -0.52312367226E+02  0.57014577961E+02  0.00000000000E+00 0. -1.
</event>
<event>
 4    1  0.3767413E+003  0.2075180E+02  0.7546771E-02  0.1522838E+00
          2   -1    0    0  502    0  0.00000000000E+00  0.00000000000E+00  0.69033497140E+03  0.69033497140E+03  0.00000000000E+00 0. -1.
          1   -1    0    0  501    0 -0.00000000000E+00 -0.00000000000E+00 -0.14611122998E+02  0.14611122998E+02  0.00000000000E+00 0. -1.
          2    1    1    2  501    0  0.41079581628E+00  0.20747736081E+02  0.68272863413E+03  0.68304394088E+03  0.00000000000E+00 0. -1.
          1    1    1    2  502    0 -0.41079581628E+00 -0.20747736081E+02 -0.70047857301E+01  0.21902153520E+02  0.00000000000E+00 0. -1.
</event>
<event>
 4    1  0.3767413E+003  0.3053709E+02  0.7546771E-02  0.1414986E+00
          2   -1    0    0  502    0  0.00000000000E+00  0.00000000000E+00  0.16713451185E+01  0.16713451185E+01  0.00000000000E+00 0.  1.
          1   -1    0    0  501    0 -0.00000000000E+00 -0.00000000000E+00 -0.18432354828E+04  0.18432354828E+04  0.00000000000E+00 0. -1.
          2    1    1    2  501    0  0.30533457768E+02 -0.47068687026E+00 -0.15049042067E+03  0.15355741696E+03  0.00000000000E+00 0.  1.
          1    1    1    2  502    0 -0.30533457768E+02  0.47068687026E+00 -0.16910737171E+04  0.16913494110E+04  0.00000000000E+00 0. -1.
</event>
<event>
 4    1  0.3767413E+003  0.3667534E+02  0.7546771E-02  0.1369153E+00
          2   -1    0    0  502    0  0.00000000000E+00  0.00000000000E+00  0.10769742299E+04  0.10769742299E+04  0.00000000000E+00 0.  1.
          1   -1    0    0  501    0 -0.00000000000E+00 -0.00000000000E+00 -0.33956318074E+02  0.33956318074E+02  0.00000000000E+00 0.  1.
          2    1    1    2  501    0 -0.88063549816E+01  0.35602364518E+02  0.10666632752E+04  0.10672935974E+04  0.00000000000E+00 0.  1.
          1    1    1    2  502    0  0.88063549816E+01 -0.35602364518E+02 -0.23645363410E+02  0.43636950605E+02  0.00000000000E+00 0.  1.
</event>
<event>
 4    1  0.3767413E+003  0.3826408E+02  0.7546771E-02  0.1358970E+00
          2   -1    0    0  502    0  0.00000000000E+00  0.00000000000E+00  0.23416319531E+04  0.23416319531E+04  0.00000000000E+00 0. -1.
          1   -1    0    0  501    0 -0.00000000000E+00 -0.00000000000E+00 -0.79224525116E+00  0.79224525116E+00  0.00000000000E+00 0. -1.
          2    1    1    2  501    0 -0.30189617373E+02  0.23510136434E+02  0.17081183641E+04  0.17085468929E+04  0.00000000000E+00 0. -1.
          1    1    1    2  502    0  0.30189617373E+02 -0.23510136434E+02  0.63272134376E+03  0.63387730545E+03  0.00000000000E+00 0. -1.
</event>
<event>
 4    1  0.3767413E+003  0.3198494E+02  0.7546771E-02  0.1403097E+00
          2   -1    0    0  502    0  0.00000000000E+00  0.00000000000E+00  0.17104076492E+02  0.17104076492E+02  0.00000000000E+00 0. -1.
          1   -1    0    0  501    0 -0.00000000000E+00 -0.00000000000E+00 -0.80592317562E+02  0.80592317562E+02  0.00000000000E+00 0. -1.
          2    1    1    2  501    0  0.67704764740E+01 -0.31260152688E+02 -0.69400338929E+01  0.32729200543E+02  0.00000000000E+00 0. -1.
          1    1    1    2  502    0 -0.67704764740E+01  0.31260152688E+02 -0.56548207177E+02  0.64967193511E+02  0.00000000000E+00 0. -1.
</event>
<event>
 4    1  0.3767413E+003  0.2439192E+02  0.7546771E-02  0.1475722E+00
          2   -1    0    0  502    0  0.00000000000E+00  0.00000000000E+00  0.25100736168E+03  0.25100736168E+03  0.00000000000E+00 0. -1.
          1   -1    0    0  501    0 -0.00000000000E+00 -0.00000000000E+00 -0.32117227161E+01  0.32117227161E+01  0.00000000000E+00 0.  1.
          2    1    1    2  501    0  0.21120879033E+02 -0.12201396039E+02  0.18895770907E+03  0.19052554006E+03  0.00000000000E+00 0. -1.
          1    1    1    2  502    0 -0.21120879033E+02  0.12201396039E+02  0.58837929888E+02  0.63693544335E+02  0.00000000000E+00 0.  1.
</event>
<event>
 4    1  0.3767413E+003  0.2643234E+02  0.7546771E-02  0.1453395E+00
          2   -1    0    0  502    0  0.00000000000E+00  0.00000000000E+00  0.87232351998E+03  0.87232351998E+03  0.00000000000E+00 0.  1.
          1   -1    0    0  501    0 -0.00000000000E+00 -0.00000000000E+00 -0.47547136737E+01  0.47547136737E+01  0.00000000000E+00 0.  1.
          2    1    1    2  501    0  0.18224535742E+02  0.19145103098E+02  0.83368559013E+03  0.83410450896E+03  0.00000000000E+00 0.  1.
          1    1    1    2  502    0 -0.18224535742E+02 -0.19145103098E+02  0.33883216176E+02  0.42973724694E+02  0.00000000000E+00 0.  1.
</event>
<event>
 4    1  0.3767413E+003  0.7235940E+02  0.7546771E-02  0.1222791E+00
          2   -1    0    0  502    0  0.00000000000E+00  0.00000000000E+00  0.44061131968E+03  0.44061131968E+03  0.00000000000E+00 0. -1.
          1   -1    0    0  501    0 -0.00000000000E+00 -0.00000000000E+00 -0.30129521928E+02  0.30129521928E+02  0.00000000000E+00 0.  1.
          2    1    1    2  501    0 -0.69833155214E+02  0.18952902575E+02  0.38840618527E+03  0.39508891004E+03  0.00000000000E+00 0. -1.
          1    1    1    2  502    0  0.69833155214E+02 -0.18952902575E+02  0.22075612484E+02  0.75651931567E+02  0.00000000000E+00 0.  1.
</event>
<event>
 4    1  0.3767413E+003  0.2305965E+02  0.7546771E-02  0.1491750E+00
          2   -1    0    0  502    0  0.00000000000E+00  0.00000000000E+00  0.50279273745E+02  0.50279273745E+02  0.00000000000E+00 0. -1.
          1   -1    0    0  501    0 -0.00000000000E+00 -0.00000000000E+00 -0.79248190736E+03  0.79248190736E+03  0.00000000000E+00 0.  1.
          2    1    1    2  501    0 -0.17268913965E+02 -0.15281763343E+02  0.47458111693E+02  0.52763813792E+02  0.00000000000E+00 0. -1.
          1    1    1    2  502    0  0.17268913965E+02  0.15281763343E+02 -0.78966074531E+03  0.78999736731E+03  0.00000000000E+00 0.  1.
</event>
<event>
 4    1  0.3767413E+003  0.4133120E+02  0.7546771E-02  0.1340857E+00
          2   -1    0    0  502    0  0.00000000000E+00  0.00000000000E+00  0.11233255507E+04  0.11233255507E+04  0.00000000000E+00 0.  1.
          1   -1    0    0  501    0 -0.00000000000E+00 -0.00000000000E+00 -0.43289972542E+01  0.43289972542E+01  0.00000000000E+00 0.  1.
          2    1    1    2  501    0 -0.20483301562E+01  0.41280411204E+02  0.10136198304E+04  0.10144621376E+04  0.00000000000E+00 0.  1.
          1    1    1    2  502    0  0.20483301562E+01 -0.41280411204E+02  0.10537672301E+03  0.11319241034E+03  0.00000000000E+00 0.  1.
</event>
<event>
 4    1  0.3767413E+003  0.2107987E+02  0.7546771E-02  0.1518127E+00
          2   -1    0    0  502    0  0.00000000000E+00  0.00000000000E+00  0.36462771814E+00  0.36462771814E+00  0.00000000000E+00 0. -1.
          1   -1    0    0  501    0 -0.00000000000E+00 -0.00000000000E+00 -0.13190282493E+04  0.13190282493E+04  0.00000000000E+00 0. -1.
          2    1    1    2  501    0  0.19007550821E+02 -0.91144999501E+01 -0.47736498174E+03  0.47783018625E+03  0.00000000000E+00 0. -1.
          1    1    1    2  502    0 -0.19007550821E+02  0.91144999501E+01 -0.84129863981E+03  0.84156269074E+03  0.00000000000E+00 0. -1.
</event>
<event>
 4    1  0.3767413E+003  0.3008888E+02  0.7546771E-02  0.1418826E+00
          2   -1    0    0  502    0  0.00000000000E+00  0.00000000000E+00  0.47490510778E+02  0.47490510778E+02  0.00000000000E+00 0. -1.
          1   -1    0    0  501    0 -0.00000000000E+00 -0.00000000000E+00 -0.20493085305E+02  0.20493085305E+02  0.00000000000E+00 0. -1.
          2    1    1    2  501    0 -0.18381614173E+02  0.23821353185E+02  0.22476280528E+02  0.37556940684E+02  0.00000000000E+00 0. -1.
          1    1    1    2  502    0  0.18381614173E+02 -0.23821353185E+02  0.45211449453E+01  0.30426655399E+02  0.00000000000E+00 0. -1.
</event>
<event>
 4    1  0.3767413E+003  0.2355829E+02  0.7546771E-02  0.1485604E+00
          2   -1    0    0  502    0  0.00000000000E+00  0.00000000000E+00  0.11865483572E+04  0.11865483572E+04  0.00000000000E+00 0. -1.
          1   -1    0    0  501    0 -0.00000000000E+00 -0.00000000000E+00 -0.25854092090E+01  0.25854092090E+01  0.00000000000E+00 0. -1.
          2    1    1    2  501    0 -0.19056493920E+02  0.13850738219E+02  0.11300844690E+04  0.11303299961E+04  0.00000000000E+00 0. -1.
          1    1    1    2  502    0  0.19056493920E+02 -0.13850738219E+02  0.53878479032E+02  0.58803770394E+02  0.00000000000E+00 0. -1.
</event>
<event>
 4    1  0.3767413E+003  0.2911650E+02  0.7546771E-02  0.1427432E+00
          2   -1    0    0  502    0  0.00000000000E+00  0.00000000000E+00  0.16575600708E+02  0.16575600708E+02  0.00000000000E+00 0.  1.
          1   -1    0    0  501    0 -0.00000000000E+00 -0.00000000000E+00 -0.50452953808E+03  0.50452953808E+03  0.00000000000E+00 0.  1.
          2    1    1    2  501    0  0.26152948950E+02  0.12798196853E+02  0.30162799338E+01  0.29272316720E+02  0.00000000000E+00 0.  1.
          1    1    1    2  502    0 -0.26152948950E+02 -0.12798196853E+02 -0.49097021731E+03  0.49183282207E+03  0.00000000000E+00 0.  1.
</event>
<event>
 4    1  0.3767413E+003  0.2415060E+02  0.7546771E-02  0.1478534E+00
          2   -1    0    0  502    0  0.00000000000E+00  0.00000000000E+00  0.60672585622E+02  0.60672585622E+02  0.00000000000E+00 0. -1.
          1   -1    0    0  501    0 -0.00000000000E+00 -0.00000000000E+00 -0.58528894571E+03  0.58528894571E+03  0.00000000000E+00 0. -1.
          2    1    1    2  501    0 -0.17952917005E+02  0.16153767473E+02  0.58009200257E+02  0.62835648696E+02  0.00000000000E+00 0. -1.
          1    1    1    2  502    0  0.17952917005E+02 -0.16153767473E+02 -0.58262556034E+03  0.58312588264E+03  0.00000000000E+00 0. -1.
</event>
<event>
 4    1  0.3767413E+003  0.2052099E+02  0.7546771E-02  0.1526215E+00
          2   -1    0    0  502    0  0.00000000000E+00  0.00000000000E+00  0.44993940352E+02  0.44993940352E+02  0.00000000000E+00 0.  1.
          1   -1    0    0  501    0 -0.00000000000E+00 -0.00000000000E+00 -0.20268983747E+03  0.20268983747E+03  0.00000000000E+00 0.  1.
          2    1    1    2  501    0 -0.20268110248E+02 -0.32116292421E+01  0.42100926309E+02  0.46835871418E+02  0.00000000000E+00 0.  1.
          1    1    1    2  502    0  0.20268110248E+02  0.32116292421E+01 -0.19979682342E+03  0.20084790640E+03  0.00000000000E+00 0.  1.
</event>
<event>
 4    1  0.3767413E+003  0.3213702E+02  0.7546771E-02  0.1401891E+00
          2   -1    0    0  502    0  0.00000000000E+00  0.00000000000E+00  0.32767109620E+01  0.32767109620E+01  0.00000000000E+00 0. -1.
          1   -1    0    0  501    0 -0.00000000000E+00 -0.00000000000E+00 -0.32549660244E+03  0.32549660244E+03  0.00000000000E+00 0. -1.
          2    1    1    2  501    0 -0.30241190552E+02 -0.10874635674E+02 -0.19036130735E+03  0.19305495239E+03  0.00000000000E+00 0. -1.
          1    1    1    2  502    0  0.30241190552E+02  0.10874635674E+02 -0.13185858413E+03  0.13571836101E+03  0.00000000000E+00 0. -1.
</event>
<event>
 4    1  0.3767413E+003  0.2004246E+02  0.7546771E-02  0.1533388E+00
          2   -1    0    0  502    0  0.00000000000E+00  0.00000000000E+00  0.67936249327E+00  0.67936249327E+00  0.00000000000E+00 0.  1.
          1   -1    0    0  501    0 -0.00000000000E+00 -0.00000000000E+00 -0.14377331109E+04  0.14377331109E+04  0.00000000000E+00 0.  1.
          2    1    1    2  501    0 -0.70603152558E+01 -0.18757717887E+02 -0.16668674757E+03  0.16788737846E+03  0.00000000000E+00 0.  1.
          1    1    1    2  502    0  0.70603152558E+01  0.18757717887E+02 -0.12703670009E+04  0.12705250950E+04  0.00000000000E+00 0.  1.
</event>
<event>
 4    1  0.3767413E+003  0.2011928E+02  0.7546771E-02  0.1532220E+00
          2   -1    0    0  502    0  0.00000000000E+00  0.00000000000E+00  0.16965159247E+03  0.16965159247E+03  0.00000000000E+00 0.  1.
          1   -1    0    0  501    0 -0.00000000000E+00 -0.00000000000E+00 -0.14974406943E+03  0.14974406943E+03  0.00000000000E+00 0. -1.
          2    1    1    2  501    0 -0.51310492034E+01 -0.19453985925E+02  0.16837419361E+03  0.16957197383E+03  0.00000000000E+00 0.  1.
          1    1    1    2  502    0  0.51310492034E+01  0.19453985925E+02 -0.14846667057E+03  0.14982368806E+03  0.00000000000E+00 0. -1.
</event>
<event>
 4    1  0.3767413E+003  0.2602070E+02  0.7546771E-02  0.1457701E+00
          2   -1    0    0  502    0  0.00000000000E+00  0.00000000000E+00  0.16263988103E+02  0.16263988103E+02  0.00000000000E+00 0.  1.
          1   -1    0    0  501    0 -0.00000000000E+00 -0.00000000000E+00 -0.24365718046E+03  0.24365718046E+03  0.00000000000E+00 0.  1.
          2    1    1    2  501    0  0.69938752835E+01 -0.25063166333E+02  0.46420241746E+01  0.26431515025E+02  0.00000000000E+00 0.  1.
          1    1    1    2  502    0 -0.69938752835E+01  0.25063166333E+02 -0.23203521653E+03  0.23348965353E+03  0.00000000000E+00 0.  1.
</event>
<event>
 4    1  0.3767413E+003  0.2270431E+02  0.7546771E-02  0.1496245E+00
          2   -1    0    0  502    0  0.00000000000E+00  0.00000000000E+00  0.12295235876E+04  0.12295235876E+04  0.00000000000E+00 0. -1.
          1   -1    0    0  501    0 -0.00000000000E+00 -0.00000000000E+00 -0.44401006108E+00  0.44401006108E+00  0.00000000000E+00 0. -1.
          2    1    1    2  501    0 -0.71494493857E+01  0.21549257196E+02  0.46933173469E+03  0.46988058302E+03  0.00000000000E+00 0. -1.
          1    1    1    2  502    0  0.71494493857E+01 -0.21549257196E+02  0.75974784284E+03  0.76008701464E+03  0.00000000000E+00 0. -1.
</event>
<event>
 4    1  0.3767413E+003  0.3121713E+02  0.7546771E-02  0.1409306E+00
          2   -1    0    0  502    0  0.00000000000E+00  0.00000000000E+00  0.25351713169E+03  0.25351713169E+03  0.00000000000E+00 0. -1.
          1   -1    0    0  501    0 -0.00000000000E+00 -0.00000000000E+00 -0.54815459083E+01  0.54815459083E+01  0.00000000000E+00 0. -1.
          2    1    1    2  501    0 -0.16564974774E+01 -0.31173148898E+02  0.19479906115E+03  0.19728452403E+03  0.00000000000E+00 0. -1.
          1    1    1    2  502    0  0.16564974774E+01  0.31173148898E+02  0.53236524635E+02  0.61714153574E+02  0.00000000000E+00 0. -1.
</event>
<event>
 4    1  0.3767413E+003  0.2383035E+02  0.7546771E-02  0.1482327E+00
          2   -1    0    0  502    0  0.00000000000E+00  0.00000000000E+00  0.14741712877E+04  0.14741712877E+04  0.00000000000E+00 0. -1.
          1   -1    0    0  501    0 -0.00000000000E+00 -0.00000000000E+00 -0.39764144520E+00  0.39764144520E+00  0.00000000000E+00 0. -1.
          2    1    1    2  501    0  0.86818497912E+01  0.22192578780E+02  0.60659464817E+03  0.60706256041E+03  0.00000000000E+00 0. -1.
          1    1    1    2  502    0 -0.86818497912E+01 -0.22192578780E+02  0.86717899806E+03  0.86750636870E+03  0.00000000000E+00 0. -1.
</event>
<event>
 4    1  0.3767413E+003  0.2315949E+02  0.7546771E-02  0.1490505E+00
          2   -1    0    0  502    0  0.00000000000E+00  0.00000000000E+00  0.94083130207E+01  0.94083130207E+01  0.00000000000E+00 0. -1.
          1   -1    0    0  501    0 -0.00000000000E+00 -0.00000000000E+00 -0.13677768674E+04  0.13677768674E+04  0.00000000000E+00 0. -1.
          2    1    1    2  501    0  0.59449324522E+01 -0.22383470060E+02 -0.50947955928E+01  0.23713264135E+02  0.00000000000E+00 0. -1.
          1    1    1    2  502    0 -0.59449324522E+01  0.22383470060E+02 -0.13532737588E+04  0.13534719163E+04  0.00000000000E+00 0. -1.
</event>
<event>
 4    1  0.3767413E+003  0.2680874E+02  0.7546771E-02  0.1449539E+00
          2   -1    0    0  502    0  0.00000000000E+00  0.00000000000E+00  0.73357109054E+03  0.73357109054E+03  0.00000000000E+00 0. -1.
          1   -1    0    0  501    0 -0.00000000000E+00 -0.00000000000E+00 -0.28154932607E+03  0.28154932607E+03  0.00000000000E+00 0.  1.
          2    1    1    2  501    0  0.10409864743E+02  0.24705125663E+02  0.73268721325E+03  0.73317750987E+03  0.00000000000E+00 0. -1.
          1    1    1    2  502    0 -0.10409864743E+02 -0.24705125663E+02 -0.28066544879E+03  0.28194290674E+03  0.00000000000E+00 0.  1.
</event>
<event>
 4    1  0.3767413E+003  0.3150092E+02  0.7546771E-02  0.1406987E+00
          2   -1    0    0  502    0  0.00000000000E+00  0.00000000000E+00  0.21382350046E+03  0.21382350046E+03  0.00000000000E+00 0.  1.
          1   -1    0    0  501    0 -0.00000000000E+00 -0.00000000000E+00 -0.12193041132E+02  0.12193041132E+02  0.00000000000E+00 0. -1.
          2    1    1    2  501    0  0.29839999645E+02 -0.10093667584E+02  0.18975432863E+03  0.19235127485E+03  0.00000000000E+00 0.  1.
          1    1    1    2  502    0 -0.29839999645E+02  0.10093667584E+02  0.11876130696E+02  0.33665266736E+02  0.00000000000E+00 0. -1.
</event>
<event>
 4    1  0.3767413E+003  0.6517278E+02  0.7546771E-02  0.1243202E+00
          2   -1    0    0  502    0  0.00000000000E+00  0.00000000000E+00  0.51432903923E+03  0.51432903923E+03  0.00000000000E+00 0. -1.
          1   -1    0    0  501    0 -0.00000000000E+00 -0.00000000000E+00 -0.95131866867E+01  0.95131866867E+01  0.00000000000E+00 0. -1.
          2    1    1    2  501    0 -0.61228872537E+02 -0.22327468130E+02  0.34753570252E+03  0.35359377143E+03  0.00000000000E+00 0. -1.
          1    1    1    2  502    0  0.61228872537E+02  0.22327468130E+02  0.15728015003E+03  0.17024845449E+03  0.00000000000E+00 0. -1.
</event>
<event>
 4    1  0.3767413E+003  0.4651442E+02  0.7546771E-02  0.1314036E+00
          2   -1    0    0  502    0  0.00000000000E+00  0.00000000000E+00  0.33432661577E+01  0.33432661577E+01  0.00000000000E+00 0.  1.
          1   -1    0    0  501    0 -0.00000000000E+00 -0.00000000000E+00 -0.19677222061E+04  0.19677222061E+04  0.00000000000E+00 0.  1.
          2    1    1    2  501    0 -0.38137159840E+02 -0.26629831679E+02 -0.17482352943E+03  0.18090565867E+03  0.00000000000E+00 0.  1.
          1    1    1    2  502    0  0.38137159840E+02  0.26629831679E+02 -0.17895554105E+04  0.17901598136E+04  0.00000000000E+00 0.  1.
</event>
<event>
 4    1  0.3767413E+003  0.2165046E+02  0.7546771E-02  0.1510177E+00
          2   -1    0    0  502    0  0.00000000000E+00  0.00000000000E+00  0.20649714136E+04  0.20649714136E+04  0.00000000000E+00 0. -1.
          1   -1    0    0  501    0 -0.00000000000E+00 -0.00000000000E+00 -0.23695617323E+00  0.23695617323E+00  0.00000000000E+00 0. -1.
          2    1    1    2  501    0  0.21591202054E+02  0.16007227256E+01  0.12440626547E+04  0.12442510322E+04  0.00000000000E+00 0. -1.
          1    1    1    2  502    0 -0.21591202054E+02 -0.16007227256E+01  0.82067180277E+03  0.82095733761E+03  0.00000000000E+00 0. -1.
</event>
<event>
 4    1  0.3767413E+003  0.2863892E+02  0.7546771E-02  0.1431805E+00
          2   -1    0    0  502    0  0.00000000000E+00  0.00000000000E+00  0.47293305416E+03  0.47293305416E+03  0.00000000000E+00 0.  1.
          1   -1    0    0  501    0 -0.00000000000E+00 -0.00000000000E+00 -0.41993033446E+01  0.41993033446E+01  0.00000000000E+00 0. -1.
          2    1    1    2  501    0  0.12189589194E+02  0.25915276248E+02  0.41714859694E+03  0.41813052933E+03  0.00000000000E+00 0.  1.
          1    1    1    2  502    0 -0.12189589194E+02 -0.25915276248E+02  0.51585153874E+02  0.59001828174E+02  0.00000000000E+00 0. -1.
</event>
<event>
 4    1  0.3767413E+003  0.2104511E+02  0.7546771E-02  0.1518622E+00
          2   -1    0    0  502    0  0.00000000000E+00  0.00000000000E+00  0.11854043874E+01  0.11854043874E+01  0.00000000000E+00 0. -1.
          1   -1    0    0  501    0 -0.00000000000E+00 -0.00000000000E+00 -0.37388407861E+03  0.37388407861E+03  0.00000000000E+00 0. -1.
          2    1    1    2  501    0  0.93285879241E+01 -0.18864611653E+02 -0.19129067907E+03  0.19244484931E+03  0.00000000000E+00 0. -1.
          1    1    1    2  502    0 -0.93285879241E+01  0.18864611653E+02 -0.18140799515E+03  0.18262463368E+03  0.00000000000E+00 0. -1.
</event>
<event>
 4    1  0.3767413E+003  0.5236347E+02  0.7546771E-02  0.1288238E+00
          2   -1    0    0  502    0  0.00000000000E+00  0.00000000000E+00  0.91656992320E+03  0.91656992320E+03  0.00000000000E+00 0. -1.
          1   -1    0    0  501    0 -0.00000000000E+00 -0.00000000000E+00 -0.47000641910E+02  0.47000641910E+02  0.00000000000E+00 0. -1.
          2    1    1    2  501    0 -0.36171583887E+02 -0.37862250396E+02  0.90098543211E+03  0.90250577969E+03  0.00000000000E+00 0. -1.
          1    1    1    2  502    0  0.36171583887E+02  0.37862250396E+02 -0.31416150826E+02  0.61064785422E+02  0.00000000000E+00 0. -1.
</event>
<event>
 4    1  0.3767413E+003  0.2222903E+02  0.7546771E-02  0.1502413E+00
          2   -1    0    0  502    0  0.00000000000E+00  0.00000000000E+00  0.44857241551E+03  0.44857241551E+03  0.00000000000E+00 0.  1.
          1   -1    0    0  501    0 -0.00000000000E+00 -0.00000000000E+00 -0.12307330716E+01  0.12307330716E+01  0.00000000000E+00 0.  1.
          2    1    1    2  501    0 -0.76736638621E+01  0.20862514637E+02  0.29653195215E+03  0.29736396601E+03  0.00000000000E+00 0.  1.
          1    1    1    2  502    0  0.76736638621E+01 -0.20862514637E+02  0.15080973029E+03  0.15243918257E+03  0.00000000000E+00 0.  1.
</event>
<event>
 4    1  0.3767413E+003  0.2209661E+02  0.7546771E-02  0.1504165E+00
          2   -1    0    0  502    0  0.00000000000E+00  0.00000000000E+00  0.67992336525E+03  0.67992336525E+03  0.00000000000E+00 0.  1.
          1   -1    0    0  501    0 -0.00000000000E+00 -0.00000000000E+00 -0.43178120246E+01  0.43178120246E+01  0.00000000000E+00 0. -1.
          2    1    1    2  501    0  0.11332423912E+01 -0.22067530483E+02  0.65018088306E+03  0.65055625493E+03  0.00000000000E+00 0.  1.
          1    1    1    2  502    0 -0.11332423912E+01  0.22067530483E+02  0.25424670166E+02  0.33684922339E+02  0.00000000000E+00 0. -1.
</event>
<event>
 4    1  0.3767413E+003  0.3591355E+02  0.7546771E-02  0.1374252E+00
          2   -1    0    0  502    0  0.00000000000E+00  0.00000000000E+00  0.63662309338E+03  0.63662309338E+03  0.00000000000E+00 0.  1.
          1   -1    0    0  501    0 -0.00000000000E+00 -0.00000000000E+00 -0.49284255273E+01  0.49284255273E+01  0.00000000000E+00 0. -1.
          2    1    1    2  501    0  0.18044907162E+02 -0.31050995495E+02  0.56201431183E+03  0.56316060737E+03  0.00000000000E+00 0.  1.
          1    1    1    2  502    0 -0.18044907162E+02  0.31050995495E+02  0.69680356027E+02  0.78390911538E+02  0.00000000000E+00 0. -1.
</event>
<event>
 4    1  0.3767413E+003  0.2004484E+02  0.7546771E-02  0.1533351E+00
          2   -1    0    0  502    0  0.00000000000E+00  0.00000000000E+00  0.60659946113E+03  0.60659946113E+03  0.00000000000E+00 0.  1.
          1   -1    0    0  501    0 -0.00000000000E+00 -0.00000000000E+00 -0.18231419555E+02  0.18231419555E+02  0.00000000000E+00 0.  1.
          2    1    1    2  501    0  0.82626158734E+01  0.18262660459E+02  0.60087170337E+03  0.60120595431E+03  0.00000000000E+00 0.  1.
          1    1    1    2  502    0 -0.82626158734E+01 -0.18262660459E+02 -0.12503661793E+02  0.23624926377E+02  0.00000000000E+00 0.  1.
</event>
<event>
 4    1  0.3767413E+003  0.2120484E+02  0.7546771E-02  0.1516360E+00
          2   -1    0    0  502    0  0.00000000000E+00  0.00000000000E+00  0.12136202174E+04  0.12136202174E+04  0.00000000000E+00 0.  1.
          1   -1    0    0  501    0 -0.00000000000E+00 -0.00000000000E+00 -0.25775976617E+02  0.25775976617E+02  0.00000000000E+00 0. -1.
          2    1    1    2  501    0 -0.18331037039E+02  0.10659196296E+02  0.12091503826E+04  0.12093363028E+04  0.00000000000E+00 0.  1.
          1    1    1    2  502    0  0.18331037039E+02 -0.10659196296E+02 -0.21306141815E+02  0.30059891278E+02  0.00000000000E+00 0. -1.
</event>
<event>
 4    1  0.3767413E+003  0.2232633E+02  0.7546771E-02  0.1501135E+00
          2   -1    0    0  502    0  0.00000000000E+00  0.00000000000E+00  0.13310158712E+04  0.13310158712E+04  0.00000000000E+00 0.  1.
          1   -1    0    0  501    0 -0.00000000000E+00 -0.00000000000E+00 -0.28383158900E+02  0.28383158900E+02  0.00000000000E+00 0. -1.
          2    1    1    2  501    0 -0.18913644034E+02 -0.11863343608E+02  0.13265168582E+04  0.13267047297E+04  0.00000000000E+00 0.  1.
          1    1    1    2  502    0  0.18913644034E+02  0.11863343608E+02 -0.23884145881E+02  0.32694300370E+02  0.00000000000E+00 0. -1.
</event>
<event>
 4    1  0.3767413E+003  0.5816280E+02  0.7546771E-02  0.1266206E+00
          2   -1    0    0  502    0  0.00000000000E+00  0.00000000000E+00  0.11264777756E+04  0.11264777756E+04  0.00000000000E+00 0. -1.
          1   -1    0    0  501    0 -0.00000000000E+00 -0.00000000000E+00 -0.81484274475E+01  0.81484274475E+01  0.00000000000E+00 0.  1.
          2    1    1    2  501    0  0.22126325452E+02 -0.53789744474E+02  0.10099740760E+04  0.10116474411E+04  0.00000000000E+00 0. -1.
          1    1    1    2  502    0 -0.22126325452E+02  0.53789744474E+02  0.10835527220E+03  0.12297876199E+03  0.00000000000E+00 0.  1.
</event>
<event>
 4    1  0.3767413E+003  0.3699586E+02  0.7546771E-02  0.1367050E+00
          2   -1    0    0  502    0  0.00000000000E+00  0.00000000000E+00  0.94835400911E+03  0.94835400911E+03  0.00000000000E+00 0. -1.
          1   -1    0    0  501    0 -0.00000000000E+00 -0.00000000000E+00 -0.26294052768E+02  0.26294052768E+02  0.00000000000E+00 0. -1.
          2    1    1    2  501    0 -0.30748211865E+02 -0.20572830373E+02  0.93479112383E+03  0.93552292280E+03  0.00000000000E+00 0. -1.
          1    1    1    2  502    0  0.30748211865E+02  0.20572830373E+02 -0.12731167490E+02  0.39125139081E+02  0.00000000000E+00 0. -1.
</event>
<event>
 4    1  0.3767413E+003  0.8893096E+02  0.7546771E-02  0.1184507E+00
          2   -1    0    0  502    0  0.00000000000E+00  0.00000000000E+00  0.13303586861E+04  0.13303586861E+04  0.00000000000E+00 0.  1.
          1   -1    0    0  501    0 -0.00000000000E+00 -0.00000000000E+00 -0.11446936557E+03  0.11446936557E+03  0.00000000000E+00 0.  1.
          2    1    1    2  501    0 -0.74342171837E+02  0.48805302489E+02  0.13113498363E+04  0.13143618639E+04  0.00000000000E+00 0.  1.
          1    1    1    2  502    0  0.74342171837E+02 -0.48805302489E+02 -0.95460515812E+02  0.13046618774E+03  0.00000000000E+00 0.  1.
</event>
<event>
 4    1  0.3767413E+003  0.2393542E+02  0.7546771E-02  0.1481075E+00
          2   -1    0    0  502    0  0.00000000000E+00  0.00000000000E+00  0.40728938858E+01  0.40728938858E+01  0.00000000000E+00 0. -1.
          1   -1    0    0  501    0 -0.00000000000E+00 -0.00000000000E+00 -0.17149626280E+04  0.17149626280E+04  0.00000000000E+00 0.  1.
          2    1    1    2  501    0 -0.10376174054E+02  0.21569403216E+02 -0.31930336476E+02  0.39905520052E+02  0.00000000000E+00 0. -1.
          1    1    1    2  502    0  0.10376174054E+02 -0.21569403216E+02 -0.16789593976E+04  0.16791300018E+04  0.00000000000E+00 0.  1.
</event>
<event>
 4    1  0.3767413E+003  0.4875338E+02  0.7546771E-02  0.1303670E+00
          2   -1    0    0  502    0  0.00000000000E+00  0.00000000000E+00  0.21717303917E+04  0.21717303917E+04  0.00000000000E+00 0.  1.
          1   -1    0    0  501    0 -0.00000000000E+00 -0.00000000000E+00 -0.32353243214E+01  0.32353243214E+01  0.00000000000E+00 0.  1.
          2    1    1    2  501    0 -0.13549615854E+02  0.46832683479E+02  0.19688683066E+04  0.19694718330E+04  0.00000000000E+00 0.  1.
          1    1    1    2  502    0  0.13549615854E+02 -0.46832683479E+02  0.19962676080E+03  0.20549388303E+03  0.00000000000E+00 0.  1.
</event>
<event>
 4    1  0.3767413E+003  0.4623337E+02  0.7546771E-02  0.1315385E+00
          2   -1    0    0  502    0  0.00000000000E+00  0.00000000000E+00  0.16396147861E+03  0.16396147861E+03  0.00000000000E+00 0. -1.
          1   -1    0    0  501    0 -0.00000000000E+00 -0.00000000000E+00 -0.16980495806E+02  0.16980495806E+02  0.00000000000E+00 0. -1.
          2    1    1    2  501    0  0.42974897067E+02  0.17049422253E+02  0.11709071135E+03  0.12588788370E+03  0.00000000000E+00 0. -1.
          1    1    1    2  502    0 -0.42974897067E+02 -0.17049422253E+02  0.29890271448E+02  0.55054090713E+02  0.00000000000E+00 0. -1.
</event>
<event>
 4    1  0.3767413E+003  0.4570762E+02  0.7546771E-02  0.1317938E+00
          2   -1    0    0  502    0  0.00000000000E+00  0.00000000000E+00  0.25116753683E+04  0.25116753683E+04  0.00000000000E+00 0.  1.
          1   -1    0    0  501    0 -0.00000000000E+00 -0.00000000000E+00 -0.84153947971E+00  0.84153947971E+00  0.00000000000E+00 0.  1.
          2    1    1    2  501    0 -0.25677389392E+02 -0.37813471472E+02  0.13906329100E+04  0.13913838713E+04  0.00000000000E+00 0.  1.
          1    1    1    2  502    0  0.25677389392E+02  0.37813471472E+02  0.11202009189E+04  0.11211330365E+04  0.00000000000E+00 0.  1.
</event>
<event>
 4    1  0.3767413E+003  0.2326008E+02  0.7546771E-02  0.1489258E+00
          2   -1    0    0  502    0  0.00000000000E+00  0.00000000000E+00  0.30997348090E+02  0.30997348090E+02  0.00000000000E+00 0. -1.
          1   -1    0    0  501    0 -0.00000000000E+00 -0.00000000000E+00 -0.27860762205E+02  0.27860762205E+02  0.00000000000E+00 0.  1.
          2    1    1    2  501    0 -0.10779883082E+02 -0.20611292556E+02  0.19554320322E+02  0.30387541911E+02  0.00000000000E+00 0. -1.
          1    1    1    2  502    0  0.10779883082E+02  0.20611292556E+02 -0.16417734437E+02  0.28470568385E+02  0.00000000000E+00 0.  1.
</event>
<event>
 4    1  0.3767413E+003  0.2456101E+02  0.7546771E-02  0.1473775E+00
          2   -1    0    0  502    0  0.00000000000E+00  0.00000000000E+00  0.71537811364E+03  0.71537811364E+03  0.00000000000E+00 0. -1.
          1   -1    0    0  501    0 -0.00000000000E+00 -0.00000000000E+00 -0.55160680012E+01  0.55160680012E+01  0.00000000000E+00 0.  1.
          2    1    1    2  501    0  0.15236218389E+02  0.19263983003E+02  0.68668497115E+03  0.68712407395E+03  0.00000000000E+00 0. -1.
          1    1    1    2  502    0 -0.15236218389E+02 -0.19263983003E+02  0.23177074489E+02  0.33770107696E+02  0.00000000000E+00 0.  1.
</event>
<event>
 4    1  0.3767413E+003  0.2932242E+02  0.7546771E-02  0.1425577E+00
          2   -1    0    0  502    0  0.00000000000E+00  0.00000000000E+00  0.11577611536E+03  0.11577611536E+03  0.00000000000E+00 0. -1.
          1   -1    0    0  501    0 -0.00000000000E+00 -0.00000000000E+00 -0.95245471502E+01  0.95245471502E+01  0.00000000000E+00 0.  1.
          2    1    1    2  501    0 -0.22289452011E+02  0.19052153231E+02  0.82530377541E+02  0.87584630106E+02  0.00000000000E+00 0. -1.
          1    1    1    2  502    0  0.22289452011E+02 -0.19052153231E+02  0.23721190671E+02  0.37716032407E+02  0.00000000000E+00 0.  1.
</event>
<event>
 4    1  0.3767413E+003  0.2059933E+02  0.7546771E-02  0.1525063E+00
          2   -1    0    0  502    0  0.00000000000E+00  0.00000000000E+00  0.67014504536E+01  0.67014504536E+01  0.00000000000E+00 0.  1.
          1   -1    0    0  501    0 -0.00000000000E+00 -0.00000000000E+00 -0.26282107475E+03  0.26282107475E+03  0.00000000000E+00 0. -1.
          2    1    1    2  501    0  0.46648586213E+01 -0.20064180663E+02 -0.10648975994E+02  0.23189069437E+02  0.00000000000E+00 0.  1.
          1    1    1    2  502    0 -0.46648586213E+01  0.20064180663E+02 -0.24547064831E+03  0.24633345577E+03  0.00000000000E+00 0. -1.
</event>
<event>
 4    1  0.3767413E+003  0.2634356E+02  0.7546771E-02  0.1454316E+00
          2   -1    0    0  502    0  0.00000000000E+00  0.00000000000E+00  0.64629683268E+02  0.64629683268E+02  0.00000000000E+00 0. -1.
          1   -1    0    0  501    0 -0.00000000000E+00 -0.00000000000E+00 -0.65002469996E+03  0.65002469996E+03  0.00000000000E+00 0. -1.
          2    1    1    2  501    0  0.25719787213E+02  0.56987587736E+01  0.61666026112E+02  0.67057304467E+02  0.00000000000E+00 0. -1.
          1    1    1    2  502    0 -0.25719787213E+02 -0.56987587736E+01 -0.64706104280E+03  0.64759707876E+03  0.00000000000E+00 0. -1.
</event>
<event>
 4    1  0.3767413E+003  0.3872081E+02  0.7546771E-02  0.1356149E+00
          2   -1    0    0  502    0  0.00000000000E+00  0.00000000000E+00  0.12869818192E+03  0.12869818192E+03  0.00000000000E+00 0. -1.
          1   -1    0    0  501    0 -0.00000000000E+00 -0.00000000000E+00 -0.17540150267E+03  0.17540150267E+03  0.00000000000E+00 0.  1.
          2    1    1    2  501    0 -0.22192485511E+02  0.31730030524E+02  0.12356204141E+03  0.12948698517E+03  0.00000000000E+00 0. -1.
          1    1    1    2  502    0  0.22192485511E+02 -0.31730030524E+02 -0.17026536215E+03  0.17461269942E+03  0.00000000000E+00 0.  1.
</event>
<event>
 4    1  0.3767413E+003  0.2230475E+02  0.7546771E-02  0.1501418E+00
          2   -1    0    0  502    0  0.00000000000E+00  0.00000000000E+00  0.86211443592E+01  0.86211443592E+01  0.00000000000E+00 0. -1.
          1   -1    0    0  501    0 -0.00000000000E+00 -0.00000000000E+00 -0.15821457622E+03  0.15821457622E+03  0.00000000000E+00 0. -1.
          2    1    1    2  501    0  0.22287565146E+02 -0.87551035271E+00 -0.83100166053E+01  0.23802488410E+02  0.00000000000E+00 0. -1.
          1    1    1    2  502    0 -0.22287565146E+02  0.87551035271E+00 -0.14128341525E+03  0.14303323217E+03  0.00000000000E+00 0. -1.
</event>
<event>
 4    1  0.3767413E+003  0.2353110E+02  0.7546771E-02  0.1485935E+00
          2   -1    0    0  502    0  0.00000000000E+00  0.00000000000E+00  0.14515441150E+03  0.14515441150E+03  0.00000000000E+00 0.  1.
          1   -1    0    0  501    0 -0.00000000000E+00 -0.00000000000E+00 -0.61593096387E+03  0.61593096387E+03  0.00000000000E+00 0.  1.
          2    1    1    2  501    0 -0.23528913646E+02 -0.32059665162E+00  0.14397417381E+03  0.14588445868E+03  0.00000000000E+00 0.  1.
          1    1    1    2  502    0  0.23528913646E+02  0.32059665162E+00 -0.61475072618E+03  0.61520091669E+03  0.00000000000E+00 0.  1.
</event>
<event>
 4    1  0.3767413E+003  0.2438639E+02  0.7546771E-02  0.1475786E+00
          2   -1    0    0  502    0  0.00000000000E+00  0.00000000000E+00  0.13964985162E+02  0.13964985162E+02  0.00000000000E+00 0. -1.
          1   -1    0    0  501    0 -0.00000000000E+00 -0.00000000000E+00 -0.50205673045E+02  0.50205673045E+02  0.00000000000E+00 0. -1.
          2    1    1    2  501    0 -0.24260842102E+02 -0.24713264677E+01 -0.56196867771E+01  0.25025522841E+02  0.00000000000E+00 0. -1.
          1    1    1    2  502    0  0.24260842102E+02  0.24713264677E+01 -0.30621001106E+02  0.39145135365E+02  0.00000000000E+00 0. -1.
</event>
<event>
 4    1  0.3767413E+003  0.2093333E+02  0.7546771E-02  0.1520219E+00
          2   -1    0    0  502    0  0.00000000000E+00  0.00000000000E+00  0.88043145561E+01  0.88043145561E+01  0.00000000000E+00 0.  1.
          1   -1    0    0  501    0 -0.00000000000E+00 -0.00000000000E+00 -0.55030979447E+02  0.55030979447E+02  0.00000000000E+00 0. -1.
          2    1    1    2  501    0  0.20412631703E+02 -0.46399320566E+01 -0.13246085480E+02  0.24772228061E+02  0.00000000000E+00 0.  1.
          1    1    1    2  502    0 -0.20412631703E+02  0.46399320566E+01 -0.32980579411E+02  0.39063065942E+02  0.00000000000E+00 0. -1.
</event>
<event>
 4    1  0.3767413E+003  0.3067357E+02  0.7546771E-02  0.1413832E+00
          2   -1    0    0  502    0  0.00000000000E+00  0.00000000000E+00  0.38558073481E+03  0.38558073481E+03  0.00000000000E+00 0.  1.
          1   -1    0    0  501    0 -0.00000000000E+00 -0.00000000000E+00 -0.24926978515E+01  0.24926978515E+01  0.00000000000E+00 0.  1.
          2    1    1    2  501    0 -0.10347419202E+02 -0.28875578726E+02  0.21972125282E+03  0.22185197108E+03  0.00000000000E+00 0.  1.
          1    1    1    2  502    0  0.10347419202E+02  0.28875578726E+02  0.16336678414E+03  0.16622146158E+03  0.00000000000E+00 0.  1.
</event>
<event>
 4    1  0.3767413E+003  0.2025548E+02  0.7546771E-02  0.1530165E+00
          2   -1    0    0  502    0  0.00000000000E+00  0.00000000000E+00  0.44333738662E+03  0.44333738662E+03  0.00000000000E+00 0.  1.
          1   -1    0    0  501    0 -0.00000000000E+00 -0.00000000000E+00 -0.98386781751E+03  0.98386781751E+03  0.00000000000E+00 0.  1.
          2    1    1    2  501    0 -0.12990806981E+02 -0.15541023920E+02  0.44300169340E+03  0.44346452490E+03  0.00000000000E+00 0.  1.
          1    1    1    2  502    0  0.12990806981E+02  0.15541023920E+02 -0.98353212428E+03  0.98374067924E+03  0.00000000000E+00 0.  1.
</event>
<event>
 4    1  0.3767413E+003  0.2111028E+02  0.7546771E-02  0.1517696E+00
          2   -1    0    0  502    0  0.00000000000E+00  0.00000000000E+00  0.34293753999E+03  0.34293753999E+03  0.00000000000E+00 0. -1.
          1   -1    0    0  501    0 -0.00000000000E+00 -0.00000000000E+00 -0.34783359198E+01  0.34783359198E+01  0.00000000000E+00 0. -1.
          2    1    1    2  501    0  0.66651708233E+01 -0.20030466121E+02  0.30681627634E+03  0.30754165815E+03  0.00000000000E+00 0. -1.
          1    1    1    2  502    0 -0.66651708233E+01  0.20030466121E+02  0.32642927735E+02  0.38874217757E+02  0.00000000000E+00 0. -1.
</event>
<event>
 4    1  0.3767413E+003  0.9719134E+02  0.7546771E-02  0.1168766E+00
          2   -1    0    0  502    0  0.00000000000E+00  0.00000000000E+00  0.94656841189E+02  0.94656841189E+02  0.00000000000E+00 0. -1.
          1   -1    0    0  501    0 -0.00000000000E+00 -0.00000000000E+00 -0.52750506802E+03  0.52750506802E+03  0.00000000000E+00 0. -1.
          2    1    1    2  501    0 -0.26950425786E+01  0.97153963670E+02  0.63690330906E+02  0.11620074940E+03  0.00000000000E+00 0. -1.
          1    1    1    2  502    0  0.26950425786E+01 -0.97153963670E+02 -0.49653855774E+03  0.50596115980E+03  0.00000000000E+00 0. -1.
</event>
<event>
 4    1  0.3767413E+003  0.6649785E+02  0.7546771E-02  0.1239222E+00
          2   -1    0    0  502    0  0.00000000000E+00  0.00000000000E+00  0.14446848992E+03  0.14446848992E+03  0.00000000000E+00 0. -1.
          1   -1    0    0  501    0 -0.00000000000E+00 -0.00000000000E+00 -0.35099708965E+02  0.35099708965E+02  0.00000000000E+00 0. -1.
          2    1    1    2  501    0  0.87550413586E+01  0.65918990993E+02  0.86800962726E+02  0.10934519309E+03  0.00000000000E+00 0. -1.
          1    1    1    2  502    0 -0.87550413586E+01 -0.65918990993E+02  0.22567818230E+02  0.70223005792E+02  0.00000000000E+00 0. -1.
</event>
<event>
 4    1  0.3767413E+003  0.2309653E+02  0.7546771E-02  0.1491290E+00
          2   -1    0    0  502    0  0.00000000000E+00  0.00000000000E+00  0.14450768929E+03  0.14450768929E+03  0.00000000000E+00 0.  1.
          1   -1    0    0  501    0 -0.00000000000E+00 -0.00000000000E+00 -0.21605619182E+02  0.21605619182E+02  0.00000000000E+00 0.  1.
          2    1    1    2  501    0  0.61470466457E+01  0.22263504427E+02  0.13708011737E+03  0.13901225985E+03  0.00000000000E+00 0.  1.
          1    1    1    2  502    0 -0.61470466457E+01 -0.22263504427E+02 -0.14178047263E+02  0.27101048615E+02  0.00000000000E+00 0.  1.
</event>
<event>
 4    1  0.3767413E+003  0.2243576E+02  0.7546771E-02  0.1499708E+00
          2   -1    0    0  502    0  0.00000000000E+00  0.00000000000E+00  0.11543087350E+04  0.11543087350E+04  0.00000000000E+00 0. -1.
          1   -1    0    0  501    0 -0.00000000000E+00 -0.00000000000E+00 -0.77785558524E+01  0.77785558524E+01  0.00000000000E+00 0.  1.
          2    1    1    2  501    0 -0.19912117285E+02  0.10337828335E+02  0.11377869097E+04  0.11380080909E+04  0.00000000000E+00 0. -1.
          1    1    1    2  502    0  0.19912117285E+02 -0.10337828335E+02  0.87432694667E+01  0.24079199954E+02  0.00000000000E+00 0.  1.
</event>
<event>
 4    1  0.3767413E+003  0.3301675E+02  0.7546771E-02  0.1395069E+00
          2   -1    0    0  502    0  0.00000000000E+00  0.00000000000E+00  0.13546827408E+02  0.13546827408E+02  0.00000000000E+00 0. -1.
          1   -1    0    0  501    0 -0.00000000000E+00 -0.00000000000E+00 -0.47184322978E+03  0.47184322978E+03  0.00000000000E+00 0.  1.
          2    1    1    2  501    0 -0.30391850296E+02 -0.12901212233E+02 -0.81148156048E+01  0.33999354020E+02  0.00000000000E+00 0. -1.
          1    1    1    2  502    0  0.30391850296E+02  0.12901212233E+02 -0.45018158677E+03  0.45139070317E+03  0.00000000000E+00 0.  1.
</event>
<event>
 4    1  0.3767413E+003  0.2347070E+02  0.7546771E-02  0.1486671E+00
          2   -1    0    0  502    0  0.00000000000E+00  0.00000000000E+00  0.21893553531E+03  0.21893553531E+03  0.00000000000E+00 0. -1.
          1   -1    0    0  501    0 -0.00000000000E+00 -0.00000000000E+00 -0.14057256635E+02  0.14057256635E+02  0.00000000000E+00 0. -1.
          2    1    1    2  501    0 -0.20193003841E+02  0.11963118444E+02  0.20799589156E+03  0.20931594424E+03  0.00000000000E+00 0. -1.
          1    1    1    2  502    0  0.20193003841E+02 -0.11963118444E+02 -0.31176128870E+01  0.23676847703E+02  0.00000000000E+00 0. -1.
</event>
<event>
 4    1  0.3767413E+003  0.2396009E+02  0.7546771E-02  0.1480782E+00
          2   -1    0    0  502    0  0.00000000000E+00  0.00000000000E+00  0.28101430393E+01  0.28101430393E+01  0.00000000000E+00 0.  1.
          1   -1    0    0  501    0 -0.00000000000E+00 -0.00000000000E+00 -0.42004876488E+03  0.42004876488E+03  0.00000000000E+00 0.  1.
          2    1    1    2  501    0  0.22652343765E+02  0.78075216962E+01 -0.57089124728E+02  0.61913279959E+02  0.00000000000E+00 0.  1.
          1    1    1    2  502    0 -0.22652343765E+02 -0.78075216962E+01 -0.36014949712E+03  0.36094562796E+03  0.00000000000E+00 0.  1.
</event>
<event>
 4    1  0.3767413E+003  0.2225140E+02  0.7546771E-02  0.1502119E+00
          2   -1    0    0  502    0  0.00000000000E+00  0.00000000000E+00  0.11574601320E+02  0.11574601320E+02  0.00000000000E+00 0.  1.
          1   -1    0    0  501    0 -0.00000000000E+00 -0.00000000000E+00 -0.45438441957E+02  0.45438441957E+02  0.00000000000E+00 0.  1.
          2    1    1    2  501    0  0.20566176699E+02 -0.84945376401E+01 -0.10032627231E+02  0.24408572324E+02  0.00000000000E+00 0.  1.
          1    1    1    2  502    0 -0.20566176699E+02  0.84945376401E+01 -0.23831213405E+02  0.32604470953E+02  0.00000000000E+00 0.  1.
</event>
<event>
 4    1  0.3767413E+003  0.2143637E+02  0.7546771E-02  0.1513125E+00
          2   -1    0    0  502    0  0.00000000000E+00  0.00000000000E+00  0.32702049894E+00  0.32702049894E+00  0.00000000000E+00 0. -1.
          1   -1    0    0  501    0 -0.00000000000E+00 -0.00000000000E+00 -0.15014525877E+04  0.15014525877E+04  0.00000000000E+00 0.  1.
          2    1    1    2  501    0 -0.13429434602E+02 -0.16708328344E+02 -0.56040932175E+03  0.56081915611E+03  0.00000000000E+00 0. -1.
          1    1    1    2  502    0  0.13429434602E+02  0.16708328344E+02 -0.94071624549E+03  0.94096045214E+03  0.00000000000E+00 0.  1.
</event>
<event>
 4    1  0.3767413E+003  0.2147821E+02  0.7546771E-02  0.1512546E+00
          2   -1    0    0  502    0  0.00000000000E+00  0.00000000000E+00  0.13069229849E+04  0.13069229849E+04  0.00000000000E+00 0. -1.
          1   -1    0    0  501    0 -0.00000000000E+00 -0.00000000000E+00 -0.10281187070E+01  0.10281187070E+01  0.00000000000E+00 0. -1.
          2    1    1    2  501    0  0.17558146604E+02  0.12370324649E+02  0.11829005215E+04  0.11830954979E+04  0.00000000000E+00 0. -1.
          1    1    1    2  502    0 -0.17558146604E+02 -0.12370324649E+02  0.12299434473E+03  0.12485560572E+03  0.00000000000E+00 0. -1.
</event>
<event>
 4    1  0.3767413E+003  0.2645548E+02  0.7546771E-02  0.1453156E+00
          2   -1    0    0  502    0  0.00000000000E+00  0.00000000000E+00  0.23798731269E+03  0.23798731269E+03  0.00000000000E+00 0. -1.
          1   -1    0    0  501    0 -0.00000000000E+00 -0.00000000000E+00 -0.44932681510E+03  0.44932681510E+03  0.00000000000E+00 0.  1.
          2    1    1    2  501    0 -0.98265709125E+01  0.24562790557E+02  0.23686083486E+03  0.23833368890E+03  0.00000000000E+00 0. -1.
          1    1    1    2  502    0  0.98265709125E+01 -0.24562790557E+02 -0.44820033727E+03  0.44898043889E+03  0.00000000000E+00 0.  1.
</event>
<event>
 4    1  0.3767413E+003  0.2781725E+02  0.7546771E-02  0.1439567E+00
          2   -1    0    0  502    0  0.00000000000E+00  0.00000000000E+00  0.24721382762E+03  0.24721382762E+03  0.00000000000E+00 0.  1.
          1   -1    0    0  501    0 -0.00000000000E+00 -0.00000000000E+00 -0.34134915188E+01  0.34134915188E+01  0.00000000000E+00 0. -1.
          2    1    1    2  501    0  0.26489571973E+02 -0.84912839079E+01  0.15800845761E+03  0.16043837446E+03  0.00000000000E+00 0.  1.
          1    1    1    2  502    0 -0.26489571973E+02  0.84912839079E+01  0.85791878491E+02  0.90188944671E+02  0.00000000000E+00 0. -1.
</event>
<event>
 4    1  0.3767413E+003  0.3085028E+02  0.7546771E-02  0.1412348E+00
          2   -1    0    0  502    0  0.00000000000E+00  0.00000000000E+00  0.34438788149E+03  0.34438788149E+03  0.00000000000E+00 0.  1.
          1   -1    0    0  501    0 -0.00000000000E+00 -0.00000000000E+00 -0.30330300517E+01  0.30330300517E+01  0.00000000000E+00 0.  1.
          2    1    1    2  501    0 -0.29427153138E+02  0.92618682169E+01  0.22245430897E+03  0.22458330108E+03  0.00000000000E+00 0.  1.
          1    1    1    2  502    0  0.29427153138E+02 -0.92618682169E+01  0.11890054247E+03  0.12283761046E+03  0.00000000000E+00 0.  1.
</event>
<event>
 4    1  0.3767413E+003  0.2243062E+02  0.7546771E-02  0.1499774E+00
          2   -1    0    0  502    0  0.00000000000E+00  0.00000000000E+00  0.83563448151E+03  0.83563448151E+03  0.00000000000E+00 0.  1.
          1   -1    0    0  501    0 -0.00000000000E+00 -0.00000000000E+00 -0.14566571501E+02  0.14566571501E+02  0.00000000000E+00 0. -1.
          2    1    1    2  501    0 -0.11371831602E+02 -0.19334276429E+02  0.82675618630E+03  0.82706041157E+03  0.00000000000E+00 0.  1.
          1    1    1    2  502    0  0.11371831602E+02  0.19334276429E+02 -0.56882762939E+01  0.23140641439E+02  0.00000000000E+00 0. -1.
</event>
<event>
 4    1  0.3767413E+003  0.2107433E+02  0.7546771E-02  0.1518206E+00
          2   -1    0    0  502    0  0.00000000000E+00  0.00000000000E+00  0.49935207099E+01  0.49935207099E+01  0.00000000000E+00 0.  1.
          1   -1    0    0  501    0 -0.00000000000E+00 -0.00000000000E+00 -0.84203376732E+03  0.84203376732E+03  0.00000000000E+00 0. -1.
          2    1    1    2  501    0  0.16204242350E+01  0.21011942291E+02 -0.17997583271E+02  0.27713543569E+02  0.00000000000E+00 0.  1.
          1    1    1    2  502    0 -0.16204242350E+01 -0.21011942291E+02 -0.81904266334E+03  0.81931374446E+03  0.00000000000E+00 0. -1.
</event>
<event>
 4    1  0.3767413E+003  0.2091942E+02  0.7546771E-02  0.1520418E+00
          2   -1    0    0  502    0  0.00000000000E+00  0.00000000000E+00  0.89366838714E+03  0.89366838714E+03  0.00000000000E+00 0.  1.
          1   -1    0    0  501    0 -0.00000000000E+00 -0.00000000000E+00 -0.14066014007E+02  0.14066014007E+02  0.00000000000E+00 0.  1.
          2    1    1    2  501    0  0.17302964883E+02 -0.11757107473E+02  0.88569797341E+03  0.88594498829E+03  0.00000000000E+00 0.  1.
          1    1    1    2  502    0 -0.17302964883E+02  0.11757107473E+02 -0.60956002793E+01  0.21789412857E+02  0.00000000000E+00 0.  1.
</event>
<event>
 4    1  0.3767413E+003  0.4574333E+02  0.7546771E-02  0.1317764E+00
          2   -1    0    0  502    0  0.00000000000E+00  0.00000000000E+00  0.13976705727E+04  0.13976705727E+04  0.00000000000E+00 0.  1.
          1   -1    0    0  501    0 -0.00000000000E+00 -0.00000000000E+00 -0.11416342642E+02  0.11416342642E+02  0.00000000000E+00 0. -1.
          2    1    1    2  501    0 -0.36466081414E+02 -0.27616614601E+02  0.13498521130E+04  0.13506269580E+04  0.00000000000E+00 0.  1.
          1    1    1    2  502    0  0.36466081414E+02  0.27616614601E+02  0.36402117069E+02  0.58459957431E+02  0.00000000000E+00 0. -1.
</event>
<event>
 4    1  0.3767413E+003  0.2346183E+02  0.7546771E-02  0.1486779E+00
          2   -1    0    0  502    0  0.00000000000E+00  0.00000000000E+00  0.11074622187E+04  0.11074622187E+04  0.00000000000E+00 0. -1.
          1   -1    0    0  501    0 -0.00000000000E+00 -0.00000000000E+00 -0.49770506514E+00  0.49770506514E+00  0.00000000000E+00 0.  1.
          2    1    1    2  501    0 -0.22348710888E+02  0.71409024816E+01  0.57367313462E+03  0.57415269985E+03  0.00000000000E+00 0. -1.
          1    1    1    2  502    0  0.22348710888E+02 -0.71409024816E+01  0.53329137906E+03  0.53380722395E+03  0.00000000000E+00 0.  1.
</event>
<event>
 4    1  0.3767413E+003  0.2273891E+02  0.7546771E-02  0.1495803E+00
          2   -1    0    0  502    0  0.00000000000E+00  0.00000000000E+00  0.32780450615E+02  0.32780450615E+02  0.00000000000E+00 0. -1.
          1   -1    0    0  501    0 -0.00000000000E+00 -0.00000000000E+00 -0.24490273365E+02  0.24490273365E+02  0.00000000000E+00 0. -1.
          2    1    1    2  501    0 -0.16622009042E+02 -0.15516656575E+02  0.21228997678E+02  0.31108329404E+02  0.00000000000E+00 0. -1.
          1    1    1    2  502    0  0.16622009042E+02  0.15516656575E+02 -0.12938820429E+02  0.26162394576E+02  0.00000000000E+00 0. -1.
</event>
<event>
 4    1  0.3767413E+003  0.2727503E+02  0.7546771E-02  0.1444865E+00
          2   -1    0    0  502    0  0.00000000000E+00  0.00000000000E+00  0.18841423423E+03  0.18841423423E+03  0.00000000000E+00 0.  1.
          1   -1    0    0  501    0 -0.00000000000E+00 -0.00000000000E+00 -0.87397176481E+01  0.87397176481E+01  0.00000000000E+00 0. -1.
          2    1    1    2  501    0  0.19036814709E+02  0.19532713917E+02  0.16282603493E+03  0.16509465430E+03  0.00000000000E+00 0.  1.
          1    1    1    2  502    0 -0.19036814709E+02 -0.19532713917E+02  0.16848481650E+02  0.32059297577E+02  0.00000000000E+00 0. -1.
</event>
<event>
 4    1  0.3767413E+003  0.3066995E+02  0.7546771E-02  0.1413862E+00
          2   -1    0    0  502    0  0.00000000000E+00  0.00000000000E+00  0.20880506628E+04  0.20880506628E+04  0.00000000000E+00 0.  1.
          1   -1    0    0  501    0 -0.00000000000E+00 -0.00000000000E+00 -0.45632283725E+00  0.45632283725E+00  0.00000000000E+00 0. -1.
          2    1    1    2  501    0 -0.26185904660E+02  0.15966976246E+02  0.11618591161E+04  0.11622638476E+04  0.00000000000E+00 0.  1.
          1    1    1    2  502    0  0.26185904660E+02 -0.15966976246E+02  0.92573522386E+03  0.92624313797E+03  0.00000000000E+00 0. -1.
</event>
<event>
 4    1  0.3767413E+003  0.3154546E+02  0.7546771E-02  0.1406625E+00
          2   -1    0    0  502    0  0.00000000000E+00  0.00000000000E+00  0.30970607526E+03  0.30970607526E+03  0.00000000000E+00 0.  1.
          1   -1    0    0  501    0 -0.00000000000E+00 -0.00000000000E+00 -0.12125660909E+02  0.12125660909E+02  0.00000000000E+00 0.  1.
          2    1    1    2  501    0 -0.26039174187E+02 -0.17806671923E+02  0.28674838592E+03  0.28847834058E+03  0.00000000000E+00 0.  1.
          1    1    1    2  502    0  0.26039174187E+02  0.17806671923E+02  0.10832028433E+02  0.33353395588E+02  0.00000000000E+00 0.  1.
</event>
<event>
 4    1  0.3767413E+003  0.2023371E+02  0.7546771E-02  0.1530493E+00
          2   -1    0    0  502    0  0.00000000000E+00  0.00000000000E+00  0.13301150377E+04  0.13301150377E+04  0.00000000000E+00 0.  1.
          1   -1    0    0  501    0 -0.00000000000E+00 -0.00000000000E+00 -0.94075876380E+02  0.94075876380E+02  0.00000000000E+00 0. -1.
          2    1    1    2  501    0  0.96967889279E+01  0.17758807864E+02  0.13289491751E+04  0.13291031987E+04  0.00000000000E+00 0.  1.
          1    1    1    2  502    0 -0.96967889279E+01 -0.17758807864E+02 -0.92910013702E+02  0.95087715391E+02  0.00000000000E+00 0. -1.
</event>
<event>
 4    1  0.3767413E+003  0.2193771E+02  0.7546771E-02  0.1506286E+00
          2   -1    0    0  502    0  0.00000000000E+00  0.00000000000E+00  0.62974818011E+01  0.62974818011E+01  0.00000000000E+00 0.  1.
          1   -1    0    0  501    0 -0.00000000000E+00 -0.00000000000E+00 -0.19260864530E+03  0.19260864530E+03  0.00000000000E+00 0. -1.
          2    1    1    2  501    0  0.25521893926E+01 -0.21788750469E+02 -0.15912565290E+02  0.27101163292E+02  0.00000000000E+00 0.  1.
          1    1    1    2  502    0 -0.25521893926E+01  0.21788750469E+02 -0.17039859821E+03  0.17180496381E+03  0.00000000000E+00 0. -1.
</event>
<event>
 4    1  0.3767413E+003  0.2524688E+02  0.7546771E-02  0.1466060E+00
          2   -1    0    0  502    0  0.00000000000E+00  0.00000000000E+00  0.43644306457E+03  0.43644306457E+03  0.00000000000E+00 0.  1.
          1   -1    0    0  501    0 -0.00000000000E+00 -0.00000000000E+00 -0.14624104714E+01  0.14624104714E+01  0.00000000000E+00 0.  1.
          2    1    1    2  501    0 -0.20297330998E+02  0.15014107997E+02  0.22549854566E+03  0.22690746832E+03  0.00000000000E+00 0.  1.
          1    1    1    2  502    0  0.20297330998E+02 -0.15014107997E+02  0.20948210844E+03  0.21099800673E+03  0.00000000000E+00 0.  1.
</event>
<event>
 4    1  0.3767413E+003  0.4110455E+02  0.7546771E-02  0.1342132E+00
          2   -1    0    0  502    0  0.00000000000E+00  0.00000000000E+00  0.24425122264E+03  0.24425122264E+03  0.00000000000E+00 0.  1.
          1   -1    0    0  501    0 -0.00000000000E+00 -0.00000000000E+00 -0.14725534542E+03  0.14725534542E+03  0.00000000000E+00 0.  1.
          2    1    1    2  501    0  0.28621468574E+02 -0.29502472678E+02  0.23959810857E+03  0.24309841214E+03  0.00000000000E+00 0.  1.
          1    1    1    2  502    0 -0.28621468574E+02  0.29502472678E+02 -0.14260223135E+03  0.14840815592E+03  0.00000000000E+00 0.  1.
</event>
<event>
 4    1  0.3767413E+003  0.8645300E+02  0.7546771E-02  0.1189610E+00
          2   -1    0    0  502    0  0.00000000000E+00  0.00000000000E+00  0.33345245783E+02  0.33345245783E+02  0.00000000000E+00 0. -1.
          1   -1    0    0  501    0 -0.00000000000E+00 -0.00000000000E+00 -0.31838998184E+03  0.31838998184E+03  0.00000000000E+00 0. -1.
          2    1    1    2  501    0 -0.67097427966E+02 -0.54516567763E+02 -0.46838508398E+02  0.98325819952E+02  0.00000000000E+00 0. -1.
          1    1    1    2  502    0  0.67097427966E+02  0.54516567763E+02 -0.23820622766E+03  0.25340940767E+03  0.00000000000E+00 0. -1.
</event>
<event>
 4    1  0.3767413E+003  0.2991741E+02  0.7546771E-02  0.1420316E+00
          2   -1    0    0  502    0  0.00000000000E+00  0.00000000000E+00  0.26881623321E+03  0.26881623321E+03  0.00000000000E+00 0.  1.
          1   -1    0    0  501    0 -0.00000000000E+00 -0.00000000000E+00 -0.56492258297E+03  0.56492258297E+03  0.00000000000E+00 0.  1.
          2    1    1    2  501    0 -0.29915258263E+02  0.35891041948E+00  0.26758592205E+03  0.26925318414E+03  0.00000000000E+00 0.  1.
          1    1    1    2  502    0  0.29915258263E+02 -0.35891041948E+00 -0.56369227180E+03  0.56448563204E+03  0.00000000000E+00 0.  1.
</event>
<event>
 4    1  0.3767413E+003  0.2390900E+02  0.7546771E-02  0.1481389E+00
          2   -1    0    0  502    0  0.00000000000E+00  0.00000000000E+00  0.15534164644E+04  0.15534164644E+04  0.00000000000E+00 0. -1.
          1   -1    0    0  501    0 -0.00000000000E+00 -0.00000000000E+00 -0.79252936125E+01  0.79252936125E+01  0.00000000000E+00 0.  1.
          2    1    1    2  501    0 -0.74467729903E+01  0.22719727446E+02  0.15350768965E+04  0.15352630780E+04  0.00000000000E+00 0. -1.
          1    1    1    2  502    0  0.74467729903E+01 -0.22719727446E+02  0.10414274285E+02  0.26078680029E+02  0.00000000000E+00 0.  1.
</event>
<event>
 4    1  0.3767413E+003  0.2733447E+02  0.7546771E-02  0.1444277E+00
          2   -1    0    0  502    0  0.00000000000E+00  0.00000000000E+00  0.43369072481E+03  0.43369072481E+03  0.00000000000E+00 0.  1.
          1   -1    0    0  501    0 -0.00000000000E+00 -0.00000000000E+00 -0.15311643425E+02  0.15311643425E+02  0.00000000000E+00 0.  1.
          2    1    1    2  501    0 -0.24456097940E+02 -0.12209520931E+02  0.42068380016E+03  0.42157091081E+03  0.00000000000E+00 0.  1.
          1    1    1    2  502    0  0.24456097940E+02  0.12209520931E+02 -0.23047187710E+01  0.27431457424E+02  0.00000000000E+00 0.  1.
</event>
<event>
 4    1  0.3767413E+003  0.3130339E+02  0.7546771E-02  0.1408598E+00
          2   -1    0    0  502    0  0.00000000000E+00  0.00000000000E+00  0.55998637070E+02  0.55998637070E+02  0.00000000000E+00 0.  1.
          1   -1    0    0  501    0 -0.00000000000E+00 -0.00000000000E+00 -0.54008882902E+02  0.54008882902E+02  0.00000000000E+00 0. -1.
          2    1    1    2  501    0 -0.31228488830E+02 -0.21641863287E+01  0.46218661869E+02  0.55821742378E+02  0.00000000000E+00 0.  1.
          1    1    1    2  502    0  0.31228488830E+02  0.21641863287E+01 -0.44228907701E+02  0.54185777594E+02  0.00000000000E+00 0. -1.
</event>
<event>
 4    1  0.3767413E+003  0.2005674E+02  0.7546771E-02  0.1533170E+00
          2   -1    0    0  502    0  0.00000000000E+00  0.00000000000E+00  0.46508317736E+03  0.46508317736E+03  0.00000000000E+00 0. -1.
          1   -1    0    0  501    0 -0.00000000000E+00 -0.00000000000E+00 -0.52235171165E+01  0.52235171165E+01  0.00000000000E+00 0. -1.
          2    1    1    2  501    0  0.36510460585E+01 -0.19721625384E+02  0.44473346951E+03  0.44518550240E+03  0.00000000000E+00 0. -1.
          1    1    1    2  502    0 -0.36510460585E+01  0.19721625384E+02  0.15126190727E+02  0.25121192070E+02  0.00000000000E+00 0. -1.
</event>
<event>
 4    1  0.3767413E+003  0.2441202E+02  0.7546771E-02  0.1475490E+00
          2   -1    0    0  502    0  0.00000000000E+00  0.00000000000E+00  0.13048122224E+04  0.13048122224E+04  0.00000000000E+00 0. -1.
          1   -1    0    0  501    0 -0.00000000000E+00 -0.00000000000E+00 -0.70079557110E+01  0.70079557110E+01  0.00000000000E+00 0. -1.
          2    1    1    2  501    0  0.22742319721E+02 -0.88732052441E+01  0.12830783027E+04  0.12833105149E+04  0.00000000000E+00 0. -1.
          1    1    1    2  502    0 -0.22742319721E+02  0.88732052441E+01  0.14725963934E+02  0.28509663123E+02  0.00000000000E+00 0. -1.
</event>
<event>
 4    1  0.3767413E+003  0.2013576E+02  0.7546771E-02  0.1531970E+00
          2   -1    0    0  502    0  0.00000000000E+00  0.00000000000E+00  0.23824546753E+03  0.23824546753E+03  0.00000000000E+00 0.  1.
          1   -1    0    0  501    0 -0.00000000000E+00 -0.00000000000E+00 -0.80524402393E+01  0.80524402393E+01  0.00000000000E+00 0. -1.
          2    1    1    2  501    0 -0.94686001020E+01  0.17770607561E+02  0.22446075215E+03  0.22536210448E+03  0.00000000000E+00 0.  1.
          1    1    1    2  502    0  0.94686001020E+01 -0.17770607561E+02  0.57322751408E+01  0.20935803287E+02  0.00000000000E+00 0. -1.
</event>
<event>
 4    1  0.3767413E+003  0.2522673E+02  0.7546771E-02  0.1466283E+00
          2   -1    0    0  502    0  0.00000000000E+00  0.00000000000E+00  0.47460103466E+02  0.47460103466E+02  0.00000000000E+00 0. -1.
          1   -1    0    0  501    0 -0.00000000000E+00 -0.00000000000E+00 -0.11071566787E+03  0.11071566787E+03  0.00000000000E+00 0.  1.
          2    1    1    2  501    0  0.72432408334E+01 -0.24164506586E+02  0.42516376298E+02  0.49437133511E+02  0.00000000000E+00 0. -1.
          1    1    1    2  502    0 -0.72432408334E+01  0.24164506586E+02 -0.10577194071E+03  0.10873863783E+03  0.00000000000E+00 0.  1.
</event>
<event>
 4    1  0.3767413E+003  0.2176677E+02  0.7546771E-02  0.1508593E+00
          2   -1    0    0  502    0  0.00000000000E+00  0.00000000000E+00  0.30331176071E+03  0.30331176071E+03  0.00000000000E+00 0. -1.
          1   -1    0    0  501    0 -0.00000000000E+00 -0.00000000000E+00 -0.61196697499E+02  0.61196697499E+02  0.00000000000E+00 0. -1.
          2    1    1    2  501    0 -0.19605306257E+01 -0.21678294904E+02  0.30097067924E+03  0.30175675951E+03  0.00000000000E+00 0. -1.
          1    1    1    2  502    0  0.19605306257E+01  0.21678294904E+02 -0.58855616032E+02  0.62751698692E+02  0.00000000000E+00 0. -1.
</event>
<event>
 4    1  0.3767413E+003  0.3602850E+02  0.7546771E-02  0.1373473E+00
          2   -1    0    0  502    0  0.00000000000E+00  0.00000000000E+00  0.14950428500E+02  0.14950428500E+02  0.00000000000E+00 0.  1.
          1   -1    0    0  501    0 -0.00000000000E+00 -0.00000000000E+00 -0.21303328066E+03  0.21303328066E+03  0.00000000000E+00 0. -1.
          2    1    1    2  501    0 -0.26459274712E+02 -0.24453212963E+02 -0.11301734941E+02  0.37759529329E+02  0.00000000000E+00 0.  1.
          1    1    1    2  502    0  0.26459274712E+02  0.24453212963E+02 -0.18678111722E+03  0.19022417983E+03  0.00000000000E+00 0. -1.
</event>
<event>
 4    1  0.3767413E+003  0.3545042E+02  0.7546771E-02  0.1377424E+00
          2   -1    0    0  502    0  0.00000000000E+00  0.00000000000E+00  0.14766728313E+02  0.14766728313E+02  0.00000000000E+00 0.  1.
          1   -1    0    0  501    0 -0.00000000000E+00 -0.00000000000E+00 -0.84696985688E+03  0.84696985688E+03  0.00000000000E+00 0.  1.
          2    1    1    2  501    0  0.21643199721E+02  0.28076749089E+02 -0.74535948086E+01  0.36225515996E+02  0.00000000000E+00 0.  1.
          1    1    1    2  502    0 -0.21643199721E+02 -0.28076749089E+02 -0.82474953375E+03  0.82551106919E+03  0.00000000000E+00 0.  1.
</event>
<event>
 4    1  0.3767413E+003  0.3899343E+02  0.7546771E-02  0.1354487E+00
          2   -1    0    0  502    0  0.00000000000E+00  0.00000000000E+00  0.20745629163E+02  0.20745629163E+02  0.00000000000E+00 0.  1.
          1   -1    0    0  501    0 -0.00000000000E+00 -0.00000000000E+00 -0.40899969068E+03  0.40899969068E+03  0.00000000000E+00 0. -1.
          2    1    1    2  501    0 -0.34001631452E+02 -0.19088652620E+02  0.54356067894E+00  0.38997218599E+02  0.00000000000E+00 0.  1.
          1    1    1    2  502    0  0.34001631452E+02  0.19088652620E+02 -0.38879762219E+03  0.39074810124E+03  0.00000000000E+00 0. -1.
</event>
<event>
 4    1  0.3767413E+003  0.2973397E+02  0.7546771E-02  0.1421923E+00
          2   -1    0    0  502    0  0.00000000000E+00  0.00000000000E+00  0.28724034166E+03  0.28724034166E+03  0.00000000000E+00 0.  1.
          1   -1    0    0  501    0 -0.00000000000E+00 -0.00000000000E+00 -0.24186081784E+02  0.24186081784E+02  0.00000000000E+00 0. -1.
          2    1    1    2  501    0 -0.25560920778E+02 -0.15190399638E+02  0.27699520497E+03  0.27858652603E+03  0.00000000000E+00 0.  1.
          1    1    1    2  502    0  0.25560920778E+02  0.15190399638E+02 -0.13940945088E+02  0.32839897414E+02  0.00000000000E+00 0. -1.
</event>
<event>
 4    1  0.3767413E+003  0.3265579E+02  0.7546771E-02  0.1397838E+00
          2   -1    0    0  502    0  0.00000000000E+00  0.00000000000E+00  0.81823329388E+01  0.81823329388E+01  0.00000000000E+00 0.  1.
          1   -1    0    0  501    0 -0.00000000000E+00 -0.00000000000E+00 -0.28975112130E+03  0.28975112130E+03  0.00000000000E+00 0.  1.
          2    1    1    2  501    0  0.30624968324E+02 -0.11336297092E+02 -0.30287476075E+02  0.44539101064E+02  0.00000000000E+00 0.  1.
          1    1    1    2  502    0 -0.30624968324E+02  0.11336297092E+02 -0.25128131228E+03  0.25339435317E+03  0.00000000000E+00 0.  1.
</event>
<event>
 4    1  0.3767413E+003  0.3395393E+02  0.7546771E-02  0.1388070E+00
          2   -1    0    0  502    0  0.00000000000E+00  0.00000000000E+00  0.23054634533E+03  0.23054634533E+03  0.00000000000E+00 0.  1.
          1   -1    0    0  501    0 -0.00000000000E+00 -0.00000000000E+00 -0.26720142388E+03  0.26720142388E+03  0.00000000000E+00 0.  1.
          2    1    1    2  501    0 -0.20936778333E+02 -0.26730522888E+02  0.22820654487E+03  0.23071865262E+03  0.00000000000E+00 0.  1.
          1    1    1    2  502    0  0.20936778333E+02  0.26730522888E+02 -0.26486162343E+03  0.26702911659E+03  0.00000000000E+00 0.  1.
</event>
<event>
 4    1  0.3767413E+003  0.3199322E+02  0.7546771E-02  0.1403031E+00
          2   -1    0    0  502    0  0.00000000000E+00  0.00000000000E+00  0.15433773789E+03  0.15433773789E+03  0.00000000000E+00 0.  1.
          1   -1    0    0  501    0 -0.00000000000E+00 -0.00000000000E+00 -0.65148783242E+02  0.65148783242E+02  0.00000000000E+00 0.  1.
          2    1    1    2  501    0  0.15108509058E+01 -0.31957524570E+02  0.14860205240E+03  0.15200702624E+03  0.00000000000E+00 0.  1.
          1    1    1    2  502    0 -0.15108509058E+01  0.31957524570E+02 -0.59413097753E+02  0.67479494898E+02  0.00000000000E+00 0.  1.
</event>
<event>
 4    1  0.3767413E+003  0.2648206E+02  0.7546771E-02  0.1452881E+00
          2   -1    0    0  502    0  0.00000000000E+00  0.00000000000E+00  0.11205156372E+04  0.11205156372E+04  0.00000000000E+00 0.  1.
          1   -1    0    0  501    0 -0.00000000000E+00 -0.00000000000E+00 -0.17827880857E+03  0.17827880857E+03  0.00000000000E+00 0.  1.
          2    1    1    2  501    0  0.15146336528E+02 -0.21722980281E+02  0.11193747363E+04  0.11196879475E+04  0.00000000000E+00 0.  1.
          1    1    1    2  502    0 -0.15146336528E+02  0.21722980281E+02 -0.17713790771E+03  0.17910649829E+03  0.00000000000E+00 0.  1.
</event>
<event>
 4    1  0.3767413E+003  0.3747312E+02  0.7546771E-02  0.1363965E+00
          2   -1    0    0  502    0  0.00000000000E+00  0.00000000000E+00  0.25012767640E+04  0.25012767640E+04  0.00000000000E+00 0. -1.
          1   -1    0    0  501    0 -0.00000000000E+00 -0.00000000000E+00 -0.14428730793E+01  0.14428730793E+01  0.00000000000E+00 0.  1.
          2    1    1    2  501    0 -0.17275071100E+02  0.33253670311E+02  0.22279891216E+04  0.22283042343E+04  0.00000000000E+00 0. -1.
          1    1    1    2  502    0  0.17275071100E+02 -0.33253670311E+02  0.27184476932E+03  0.27441540277E+03  0.00000000000E+00 0.  1.
</event>
<event>
 4    1  0.5782388E+003  0.2735990E+02  0.7546771E-02  0.1444026E+00
          2   -1    0    0  502    0  0.00000000000E+00  0.00000000000E+00  0.13853272661E+04  0.13853272661E+04  0.00000000000E+00 0.  1.
          1   -1    0    0  501    0 -0.00000000000E+00 -0.00000000000E+00 -0.10619804792E+04  0.10619804792E+04  0.00000000000E+00 0. -1.
          2    1    1    2  501    0 -0.24438955229E+01 -0.27250533810E+02  0.13850159196E+04  0.13852861299E+04  0.00000000000E+00 0.  1.
          1    1    1    2  502    0  0.24438955229E+01  0.27250533810E+02 -0.10616691327E+04  0.10620216154E+04  0.00000000000E+00 0. -1.
</event>
<event>
 4    1  0.3767413E+003  0.3200419E+02  0.7546771E-02  0.1402944E+00
          2   -1    0    0  502    0  0.00000000000E+00  0.00000000000E+00  0.79244458339E+02  0.79244458339E+02  0.00000000000E+00 0. -1.
          1   -1    0    0  501    0 -0.00000000000E+00 -0.00000000000E+00 -0.12276363559E+03  0.12276363559E+03  0.00000000000E+00 0.  1.
          2    1    1    2  501    0  0.20264686685E+02  0.24771166905E+02  0.73779398046E+02  0.80421811795E+02  0.00000000000E+00 0. -1.
          1    1    1    2  502    0 -0.20264686685E+02 -0.24771166905E+02 -0.11729857529E+03  0.12158628213E+03  0.00000000000E+00 0.  1.
</event>
<event>
 4    1  0.3767413E+003  0.2167967E+02  0.7546771E-02  0.1509778E+00
          2   -1    0    0  502    0  0.00000000000E+00  0.00000000000E+00  0.29873357900E+01  0.29873357900E+01  0.00000000000E+00 0.  1.
          1   -1    0    0  501    0 -0.00000000000E+00 -0.00000000000E+00 -0.17537926327E+03  0.17537926327E+03  0.00000000000E+00 0.  1.
          2    1    1    2  501    0  0.15650717901E-01 -0.21679666524E+02 -0.57588373423E+02  0.61533965735E+02  0.00000000000E+00 0.  1.
          1    1    1    2  502    0 -0.15650717901E-01  0.21679666524E+02 -0.11480355406E+03  0.11683263332E+03  0.00000000000E+00 0.  1.
</event>
<event>
 4    1  0.3767413E+003  0.2133598E+02  0.7546771E-02  0.1514522E+00
          2   -1    0    0  502    0  0.00000000000E+00  0.00000000000E+00  0.99233689569E+03  0.99233689569E+03  0.00000000000E+00 0.  1.
          1   -1    0    0  501    0 -0.00000000000E+00 -0.00000000000E+00 -0.18555284260E+03  0.18555284260E+03  0.00000000000E+00 0. -1.
          2    1    1    2  501    0 -0.96563663642E+01  0.19025735017E+02  0.99160842560E+03  0.99183793723E+03  0.00000000000E+00 0.  1.
          1    1    1    2  502    0  0.96563663642E+01 -0.19025735017E+02 -0.18482437251E+03  0.18605180106E+03  0.00000000000E+00 0. -1.
</event>
<event>
 4    1  0.3767413E+003  0.2040004E+02  0.7546771E-02  0.1528006E+00
          2   -1    0    0  502    0  0.00000000000E+00  0.00000000000E+00  0.44004508639E+03  0.44004508639E+03  0.00000000000E+00 0.  1.
          1   -1    0    0  501    0 -0.00000000000E+00 -0.00000000000E+00 -0.22972839405E+01  0.22972839405E+01  0.00000000000E+00 0.  1.
          2    1    1    2  501    0  0.20383640102E+02 -0.81791590693E+00  0.38851795977E+03  0.38905316710E+03  0.00000000000E+00 0.  1.
          1    1    1    2  502    0 -0.20383640102E+02  0.81791590693E+00  0.49229842679E+02  0.53289203226E+02  0.00000000000E+00 0.  1.
</event>
<event>
 4    1  0.3767413E+003  0.2430561E+02  0.7546771E-02  0.1476724E+00
          2   -1    0    0  502    0  0.00000000000E+00  0.00000000000E+00  0.38985706489E+02  0.38985706489E+02  0.00000000000E+00 0.  1.
          1   -1    0    0  501    0 -0.00000000000E+00 -0.00000000000E+00 -0.33146348238E+03  0.33146348238E+03  0.00000000000E+00 0.  1.
          2    1    1    2  501    0 -0.10421956775E+02 -0.21957809354E+02  0.34702278703E+02  0.42367566862E+02  0.00000000000E+00 0.  1.
          1    1    1    2  502    0  0.10421956775E+02  0.21957809354E+02 -0.32718005460E+03  0.32808162201E+03  0.00000000000E+00 0.  1.
</event>
<event>
 4    1  0.3767413E+003  0.2031340E+02  0.7546771E-02  0.1529298E+00
          2   -1    0    0  502    0  0.00000000000E+00  0.00000000000E+00  0.17721186032E+02  0.17721186032E+02  0.00000000000E+00 0.  1.
          1   -1    0    0  501    0 -0.00000000000E+00 -0.00000000000E+00 -0.61087238175E+02  0.61087238175E+02  0.00000000000E+00 0. -1.
          2    1    1    2  501    0  0.21111601076E+01 -0.20203396689E+02  0.93145204825E+01  0.22347136877E+02  0.00000000000E+00 0.  1.
          1    1    1    2  502    0 -0.21111601076E+01  0.20203396689E+02 -0.52680572625E+02  0.56461287329E+02  0.00000000000E+00 0. -1.
</event>
<event>
 4    1  0.3767413E+003  0.2304408E+02  0.7546771E-02  0.1491945E+00
          2   -1    0    0  502    0  0.00000000000E+00  0.00000000000E+00  0.17552038490E+01  0.17552038490E+01  0.00000000000E+00 0. -1.
          1   -1    0    0  501    0 -0.00000000000E+00 -0.00000000000E+00 -0.16812484820E+04  0.16812484820E+04  0.00000000000E+00 0.  1.
          2    1    1    2  501    0  0.22564477824E+02  0.46769590891E+01 -0.77712506788E+02  0.81057160801E+02  0.00000000000E+00 0. -1.
          1    1    1    2  502    0 -0.22564477824E+02 -0.46769590891E+01 -0.16017807713E+04  0.16019465250E+04  0.00000000000E+00 0.  1.
</event>
<event>
 4    1  0.3767413E+003  0.2045835E+02  0.7546771E-02  0.1527140E+00
          2   -1    0    0  502    0  0.00000000000E+00  0.00000000000E+00  0.90608151563E+02  0.90608151563E+02  0.00000000000E+00 0. -1.
          1   -1    0    0  501    0 -0.00000000000E+00 -0.00000000000E+00 -0.83249935775E+02  0.83249935775E+02  0.00000000000E+00 0. -1.
          2    1    1    2  501    0  0.15149043056E+02  0.13749571449E+02  0.88162025408E+02  0.90504623885E+02  0.00000000000E+00 0. -1.
          1    1    1    2  502    0 -0.15149043056E+02 -0.13749571449E+02 -0.80803809620E+02  0.83353463453E+02  0.00000000000E+00 0. -1.
</event>
<event>
 4    1  0.3767413E+003  0.2685123E+02  0.7546771E-02  0.1449108E+00
          2   -1    0    0  502    0  0.00000000000E+00  0.00000000000E+00  0.89803675902E+03  0.89803675902E+03  0.00000000000E+00 0. -1.
          1   -1    0    0  501    0 -0.00000000000E+00 -0.00000000000E+00 -0.57130177517E+01  0.57130177517E+01  0.00000000000E+00 0. -1.
          2    1    1    2  501    0  0.25912721199E+02 -0.70370040018E+01  0.86508428573E+03  0.86550090119E+03  0.00000000000E+00 0. -1.
          1    1    1    2  502    0 -0.25912721199E+02  0.70370040018E+01  0.27239455542E+02  0.38248875585E+02  0.00000000000E+00 0. -1.
</event>
<event>
 4    1  0.3767413E+003  0.2269896E+02  0.7546771E-02  0.1496313E+00
          2   -1    0    0  502    0  0.00000000000E+00  0.00000000000E+00  0.32318387072E+02  0.32318387072E+02  0.00000000000E+00 0.  1.
          1   -1    0    0  501    0 -0.00000000000E+00 -0.00000000000E+00 -0.18522582710E+02  0.18522582710E+02  0.00000000000E+00 0.  1.
          2    1    1    2  501    0 -0.20502415132E+02 -0.97413353644E+01  0.16384976029E+02  0.27994822386E+02  0.00000000000E+00 0.  1.
          1    1    1    2  502    0  0.20502415132E+02  0.97413353644E+01 -0.25891716680E+01  0.22846147396E+02  0.00000000000E+00 0.  1.
</event>
<event>
 4    1  0.3767413E+003  0.2153921E+02  0.7546771E-02  0.1511704E+00
          2   -1    0    0  502    0  0.00000000000E+00  0.00000000000E+00  0.14901228790E+03  0.14901228790E+03  0.00000000000E+00 0.  1.
          1   -1    0    0  501    0 -0.00000000000E+00 -0.00000000000E+00 -0.67424049402E+02  0.67424049402E+02  0.00000000000E+00 0.  1.
          2    1    1    2  501    0  0.13009378455E+02 -0.17166649246E+02  0.14648417952E+03  0.14805928753E+03  0.00000000000E+00 0.  1.
          1    1    1    2  502    0 -0.13009378455E+02  0.17166649246E+02 -0.64895941023E+02  0.68377049771E+02  0.00000000000E+00 0.  1.
</event>
<event>
 4    1  0.3767413E+003  0.2414116E+02  0.7546771E-02  0.1478645E+00
          2   -1    0    0  502    0  0.00000000000E+00  0.00000000000E+00  0.38944205222E+03  0.38944205222E+03  0.00000000000E+00 0.  1.
          1   -1    0    0  501    0 -0.00000000000E+00 -0.00000000000E+00 -0.42118682276E+02  0.42118682276E+02  0.00000000000E+00 0. -1.
          2    1    1    2  501    0  0.18177593834E+02  0.15886178706E+02  0.38557401487E+03  0.38632902627E+03  0.00000000000E+00 0.  1.
          1    1    1    2  502    0 -0.18177593834E+02 -0.15886178706E+02 -0.38250644931E+02  0.45231708226E+02  0.00000000000E+00 0. -1.
</event>
<event>
 4    1  0.3767413E+003  0.5805536E+02  0.7546771E-02  0.1266587E+00
          2   -1    0    0  502    0  0.00000000000E+00  0.00000000000E+00  0.12453552553E+04  0.12453552553E+04  0.00000000000E+00 0. -1.
          1   -1    0    0  501    0 -0.00000000000E+00 -0.00000000000E+00 -0.91156981479E+01  0.91156981479E+01  0.00000000000E+00 0.  1.
          2    1    1    2  501    0 -0.14638675613E+02 -0.56179478554E+02  0.11440656073E+04  0.11455376634E+04  0.00000000000E+00 0. -1.
          1    1    1    2  502    0  0.14638675613E+02  0.56179478554E+02  0.92173949896E+02  0.10893329002E+03  0.00000000000E+00 0.  1.
</event>
<event>
 4    1  0.3767413E+003  0.5345805E+02  0.7546771E-02  0.1283838E+00
          2   -1    0    0  502    0  0.00000000000E+00  0.00000000000E+00  0.54286530204E+02  0.54286530204E+02  0.00000000000E+00 0. -1.
          1   -1    0    0  501    0 -0.00000000000E+00 -0.00000000000E+00 -0.81464479240E+02  0.81464479240E+02  0.00000000000E+00 0. -1.
          2    1    1    2  501    0  0.43048131069E+02 -0.31695772236E+02  0.26784202444E+02  0.59792617159E+02  0.00000000000E+00 0. -1.
          1    1    1    2  502    0 -0.43048131069E+02  0.31695772236E+02 -0.53962151480E+02  0.75958392285E+02  0.00000000000E+00 0. -1.
</event>
<event>
 4    1  0.3767413E+003  0.4029142E+02  0.7546771E-02  0.1346786E+00
          2   -1    0    0  502    0  0.00000000000E+00  0.00000000000E+00  0.37582337199E+03  0.37582337199E+03  0.00000000000E+00 0.  1.
          1   -1    0    0  501    0 -0.00000000000E+00 -0.00000000000E+00 -0.18081240563E+02  0.18081240563E+02  0.00000000000E+00 0. -1.
          2    1    1    2  501    0 -0.18985323897E+02  0.35538097515E+02  0.35069449743E+03  0.35300145811E+03  0.00000000000E+00 0.  1.
          1    1    1    2  502    0  0.18985323897E+02 -0.35538097515E+02  0.70476339948E+01  0.40903154443E+02  0.00000000000E+00 0. -1.
</event>
<event>
 4    1  0.3767413E+003  0.2356622E+02  0.7546771E-02  0.1485508E+00
          2   -1    0    0  502    0  0.00000000000E+00  0.00000000000E+00  0.31355394606E+01  0.31355394606E+01  0.00000000000E+00 0.  1.
          1   -1    0    0  501    0 -0.00000000000E+00 -0.00000000000E+00 -0.13476487584E+04  0.13476487584E+04  0.00000000000E+00 0. -1.
          2    1    1    2  501    0  0.19575033994E+02  0.13121924980E+02 -0.42810306553E+02  0.48868079747E+02  0.00000000000E+00 0.  1.
          1    1    1    2  502    0 -0.19575033994E+02 -0.13121924980E+02 -0.13017029124E+04  0.13019162181E+04  0.00000000000E+00 0. -1.
</event>
<event>
 4    1  0.3767413E+003  0.2317792E+02  0.7546771E-02  0.1490276E+00
          2   -1    0    0  502    0  0.00000000000E+00  0.00000000000E+00  0.67172457243E+01  0.67172457243E+01  0.00000000000E+00 0.  1.
          1   -1    0    0  501    0 -0.00000000000E+00 -0.00000000000E+00 -0.34970820968E+03  0.34970820968E+03  0.00000000000E+00 0.  1.
          2    1    1    2  501    0  0.18831409369E+02  0.13512741973E+02 -0.14981737879E+02  0.27598344956E+02  0.00000000000E+00 0.  1.
          1    1    1    2  502    0 -0.18831409369E+02 -0.13512741973E+02 -0.32800922608E+03  0.32882711045E+03  0.00000000000E+00 0.  1.
</event>
<event>
 4    1  0.3767413E+003  0.2477561E+02  0.7546771E-02  0.1471329E+00
          2   -1    0    0  502    0  0.00000000000E+00  0.00000000000E+00  0.90885979761E+00  0.90885979761E+00  0.00000000000E+00 0. -1.
          1   -1    0    0  501    0 -0.00000000000E+00 -0.00000000000E+00 -0.79755204986E+03  0.79755204986E+03  0.00000000000E+00 0. -1.
          2    1    1    2  501    0 -0.18251579982E+02  0.16754426222E+02 -0.24207166596E+03  0.24333623329E+03  0.00000000000E+00 0. -1.
          1    1    1    2  502    0  0.18251579982E+02 -0.16754426222E+02 -0.55457152410E+03  0.55512467637E+03  0.00000000000E+00 0. -1.
</event>
<event>
 4    1  0.3767413E+003  0.2148261E+02  0.7546771E-02  0.1512485E+00
          2   -1    0    0  502    0  0.00000000000E+00  0.00000000000E+00  0.62398177712E+03  0.62398177712E+03  0.00000000000E+00 0. -1.
          1   -1    0    0  501    0 -0.00000000000E+00 -0.00000000000E+00 -0.16171213589E+02  0.16171213589E+02  0.00000000000E+00 0. -1.
          2    1    1    2  501    0  0.16113090908E+02  0.14208131862E+02  0.61657657934E+03  0.61695071189E+03  0.00000000000E+00 0. -1.
          1    1    1    2  502    0 -0.16113090908E+02 -0.14208131862E+02 -0.87660158031E+01  0.23202278825E+02  0.00000000000E+00 0. -1.
</event>
<event>
 4    1  0.3767413E+003  0.2295106E+02  0.7546771E-02  0.1493114E+00
          2   -1    0    0  502    0  0.00000000000E+00  0.00000000000E+00  0.16247886776E+02  0.16247886776E+02  0.00000000000E+00 0. -1.
          1   -1    0    0  501    0 -0.00000000000E+00 -0.00000000000E+00 -0.32432731993E+02  0.32432731993E+02  0.00000000000E+00 0. -1.
          2    1    1    2  501    0  0.83237482554E+01  0.21388453831E+02 -0.85813369986E+01  0.24502858751E+02  0.00000000000E+00 0. -1.
          1    1    1    2  502    0 -0.83237482554E+01 -0.21388453831E+02 -0.76035082177E+01  0.24177760018E+02  0.00000000000E+00 0. -1.
</event>
<event>
 4    1  0.3767413E+003  0.3947383E+02  0.7546771E-02  0.1351597E+00
          2   -1    0    0  502    0  0.00000000000E+00  0.00000000000E+00  0.49028429448E+03  0.49028429448E+03  0.00000000000E+00 0. -1.
          1   -1    0    0  501    0 -0.00000000000E+00 -0.00000000000E+00 -0.10027594432E+03  0.10027594432E+03  0.00000000000E+00 0. -1.
          2    1    1    2  501    0  0.10171316038E+02  0.38140889952E+02  0.48556735053E+03  0.48716920578E+03  0.00000000000E+00 0. -1.
          1    1    1    2  502    0 -0.10171316038E+02 -0.38140889952E+02 -0.95559000374E+02  0.10339103302E+03  0.00000000000E+00 0. -1.
</event>
<event>
 4    1  0.3767413E+003  0.5965337E+02  0.7546771E-02  0.1261015E+00
          2   -1    0    0  502    0  0.00000000000E+00  0.00000000000E+00  0.27862229793E+02  0.27862229793E+02  0.00000000000E+00 0. -1.
          1   -1    0    0  501    0 -0.00000000000E+00 -0.00000000000E+00 -0.43346728378E+03  0.43346728378E+03  0.00000000000E+00 0. -1.
          2    1    1    2  501    0  0.58447773002E+02  0.11932396689E+02 -0.90776480784E+01  0.60340102372E+02  0.00000000000E+00 0. -1.
          1    1    1    2  502    0 -0.58447773002E+02 -0.11932396689E+02 -0.39652740590E+03  0.40098941120E+03  0.00000000000E+00 0. -1.
</event>
<event>
 4    1  0.3767413E+003  0.2900522E+02  0.7546771E-02  0.1428442E+00
          2   -1    0    0  502    0  0.00000000000E+00  0.00000000000E+00  0.15494777290E+02  0.15494777290E+02  0.00000000000E+00 0.  1.
          1   -1    0    0  501    0 -0.00000000000E+00 -0.00000000000E+00 -0.88522867752E+03  0.88522867752E+03  0.00000000000E+00 0.  1.
          2    1    1    2  501    0 -0.24647845159E+02  0.15290071089E+02  0.14646732924E+01  0.29042173003E+02  0.00000000000E+00 0.  1.
          1    1    1    2  502    0  0.24647845159E+02 -0.15290071089E+02 -0.87119857352E+03  0.87168128181E+03  0.00000000000E+00 0.  1.
</event>
<event>
 4    1  0.3767413E+003  0.2122703E+02  0.7546771E-02  0.1516048E+00
          2   -1    0    0  502    0  0.00000000000E+00  0.00000000000E+00  0.86836614415E+02  0.86836614415E+02  0.00000000000E+00 0. -1.
          1   -1    0    0  501    0 -0.00000000000E+00 -0.00000000000E+00 -0.68465619295E+01  0.68465619295E+01  0.00000000000E+00 0. -1.
          2    1    1    2  501    0  0.11174818917E+01 -0.21197598146E+02  0.63043527085E+02  0.66521223984E+02  0.00000000000E+00 0. -1.
          1    1    1    2  502    0 -0.11174818917E+01  0.21197598146E+02  0.16946525400E+02  0.27161952361E+02  0.00000000000E+00 0. -1.
</event>
<event>
 4    1  0.3767413E+003  0.4596489E+02  0.7546771E-02  0.1316684E+00
          2   -1    0    0  502    0  0.00000000000E+00  0.00000000000E+00  0.75362702580E+02  0.75362702580E+02  0.00000000000E+00 0. -1.
          1   -1    0    0  501    0 -0.00000000000E+00 -0.00000000000E+00 -0.31786197846E+03  0.31786197846E+03  0.00000000000E+00 0. -1.
          2    1    1    2  501    0  0.43049907459E+02  0.16108284237E+02  0.66492217433E+02  0.80833076970E+02  0.00000000000E+00 0. -1.
          1    1    1    2  502    0 -0.43049907459E+02 -0.16108284237E+02 -0.30899149331E+03  0.31239160407E+03  0.00000000000E+00 0. -1.
</event>
<event>
 4    1  0.3767413E+003  0.2562001E+02  0.7546771E-02  0.1461985E+00
          2   -1    0    0  502    0  0.00000000000E+00  0.00000000000E+00  0.17431721364E+02  0.17431721364E+02  0.00000000000E+00 0. -1.
          1   -1    0    0  501    0 -0.00000000000E+00 -0.00000000000E+00 -0.69324484524E+03  0.69324484524E+03  0.00000000000E+00 0. -1.
          2    1    1    2  501    0 -0.12845556557E+02  0.22167019773E+02  0.76466272773E+01  0.26736791086E+02  0.00000000000E+00 0. -1.
          1    1    1    2  502    0  0.12845556557E+02 -0.22167019773E+02 -0.68345975115E+03  0.68393977551E+03  0.00000000000E+00 0. -1.
</event>
<event>
 4    1  0.3767413E+003  0.2850444E+02  0.7546771E-02  0.1433054E+00
          2   -1    0    0  502    0  0.00000000000E+00  0.00000000000E+00  0.71001928719E+01  0.71001928719E+01  0.00000000000E+00 0.  1.
          1   -1    0    0  501    0 -0.00000000000E+00 -0.00000000000E+00 -0.13200786061E+03  0.13200786061E+03  0.00000000000E+00 0.  1.
          2    1    1    2  501    0 -0.24466925203E+02 -0.14624361246E+02 -0.87831862635E+02  0.92341423341E+02  0.00000000000E+00 0.  1.
          1    1    1    2  502    0  0.24466925203E+02  0.14624361246E+02 -0.37075805107E+02  0.46766630145E+02  0.00000000000E+00 0.  1.
</event>
<event>
 4    1  0.3767413E+003  0.2167400E+02  0.7546771E-02  0.1509856E+00
          2   -1    0    0  502    0  0.00000000000E+00  0.00000000000E+00  0.12744252662E+04  0.12744252662E+04  0.00000000000E+00 0.  1.
          1   -1    0    0  501    0 -0.00000000000E+00 -0.00000000000E+00 -0.12559884300E+03  0.12559884300E+03  0.00000000000E+00 0. -1.
          2    1    1    2  501    0 -0.17713511900E+02  0.12489746864E+02  0.12733973147E+04  0.12735817537E+04  0.00000000000E+00 0.  1.
          1    1    1    2  502    0  0.17713511900E+02 -0.12489746864E+02 -0.12457089145E+03  0.12644235555E+03  0.00000000000E+00 0. -1.
</event>
<event>
 4    1  0.3767413E+003  0.2372946E+02  0.7546771E-02  0.1483536E+00
          2   -1    0    0  502    0  0.00000000000E+00  0.00000000000E+00  0.99905114075E+01  0.99905114075E+01  0.00000000000E+00 0. -1.
          1   -1    0    0  501    0 -0.00000000000E+00 -0.00000000000E+00 -0.29386552966E+03  0.29386552966E+03  0.00000000000E+00 0.  1.
          2    1    1    2  501    0  0.18012744860E+02 -0.15447595464E+02 -0.53539550984E+01  0.24325953593E+02  0.00000000000E+00 0. -1.
          1    1    1    2  502    0 -0.18012744860E+02  0.15447595464E+02 -0.27852106315E+03  0.27953008747E+03  0.00000000000E+00 0.  1.
</event>
<event>
 4    1  0.3767413E+003  0.2365370E+02  0.7546771E-02  0.1484449E+00
          2   -1    0    0  502    0  0.00000000000E+00  0.00000000000E+00  0.13214554837E+03  0.13214554837E+03  0.00000000000E+00 0. -1.
          1   -1    0    0  501    0 -0.00000000000E+00 -0.00000000000E+00 -0.37594206291E+02  0.37594206291E+02  0.00000000000E+00 0.  1.
          2    1    1    2  501    0 -0.12923636766E+02 -0.19811038722E+02  0.12722370784E+03  0.12940390055E+03  0.00000000000E+00 0. -1.
          1    1    1    2  502    0  0.12923636766E+02  0.19811038722E+02 -0.32672365757E+02  0.40335854109E+02  0.00000000000E+00 0.  1.
</event>
<event>
 4    1  0.3767413E+003  0.2351263E+02  0.7546771E-02  0.1486159E+00
          2   -1    0    0  502    0  0.00000000000E+00  0.00000000000E+00  0.25765311128E+01  0.25765311128E+01  0.00000000000E+00 0.  1.
          1   -1    0    0  501    0 -0.00000000000E+00 -0.00000000000E+00 -0.12911820917E+04  0.12911820917E+04  0.00000000000E+00 0.  1.
          2    1    1    2  501    0  0.18589402115E+02  0.14397146570E+02 -0.53613154671E+02  0.58542412438E+02  0.00000000000E+00 0.  1.
          1    1    1    2  502    0 -0.18589402115E+02 -0.14397146570E+02 -0.12349924059E+04  0.12352162103E+04  0.00000000000E+00 0.  1.
</event>
<event>
 4    1  0.3767413E+003  0.2056820E+02  0.7546771E-02  0.1525520E+00
          2   -1    0    0  502    0  0.00000000000E+00  0.00000000000E+00  0.65436421182E+02  0.65436421182E+02  0.00000000000E+00 0. -1.
          1   -1    0    0  501    0 -0.00000000000E+00 -0.00000000000E+00 -0.65529501460E+01  0.65529501460E+01  0.00000000000E+00 0. -1.
          2    1    1    2  501    0  0.20330612911E+02 -0.31172307576E+01  0.33610130928E+02  0.39404211068E+02  0.00000000000E+00 0. -1.
          1    1    1    2  502    0 -0.20330612911E+02  0.31172307576E+01  0.25273340108E+02  0.32585160260E+02  0.00000000000E+00 0. -1.
</event>
<event>
 4    1  0.3767413E+003  0.2178532E+02  0.7546771E-02  0.1508341E+00
          2   -1    0    0  502    0  0.00000000000E+00  0.00000000000E+00  0.54904978384E+02  0.54904978384E+02  0.00000000000E+00 0. -1.
          1   -1    0    0  501    0 -0.00000000000E+00 -0.00000000000E+00 -0.64576012217E+03  0.64576012217E+03  0.00000000000E+00 0. -1.
          2    1    1    2  501    0 -0.53209059755E+01 -0.21125528436E+02  0.52552335708E+02  0.56888909117E+02  0.00000000000E+00 0. -1.
          1    1    1    2  502    0  0.53209059755E+01  0.21125528436E+02 -0.64340747949E+03  0.64377619144E+03  0.00000000000E+00 0. -1.
</event>
<event>
 4    1  0.3767413E+003  0.2101098E+02  0.7546771E-02  0.1519108E+00
          2   -1    0    0  502    0  0.00000000000E+00  0.00000000000E+00  0.52917988511E+03  0.52917988511E+03  0.00000000000E+00 0.  1.
          1   -1    0    0  501    0 -0.00000000000E+00 -0.00000000000E+00 -0.96102172598E+01  0.96102172598E+01  0.00000000000E+00 0.  1.
          2    1    1    2  501    0  0.20471550978E+02 -0.47304153462E+01  0.51722175886E+03  0.51764834498E+03  0.00000000000E+00 0.  1.
          1    1    1    2  502    0 -0.20471550978E+02  0.47304153462E+01  0.23479089946E+01  0.21141757388E+02  0.00000000000E+00 0.  1.
</event>
<event>
 4    1  0.3767413E+003  0.2083449E+02  0.7546771E-02  0.1521641E+00
          2   -1    0    0  502    0  0.00000000000E+00  0.00000000000E+00  0.25867442487E+03  0.25867442487E+03  0.00000000000E+00 0.  1.
          1   -1    0    0  501    0 -0.00000000000E+00 -0.00000000000E+00 -0.21854879879E+02  0.21854879879E+02  0.00000000000E+00 0. -1.
          2    1    1    2  501    0 -0.87634364036E+00 -0.20816048808E+02  0.25318193359E+03  0.25403772823E+03  0.00000000000E+00 0.  1.
          1    1    1    2  502    0  0.87634364036E+00  0.20816048808E+02 -0.16362388597E+02  0.26491576524E+02  0.00000000000E+00 0. -1.
</event>
<event>
 4    1  0.3767413E+003  0.2216804E+02  0.7546771E-02  0.1503218E+00
          2   -1    0    0  502    0  0.00000000000E+00  0.00000000000E+00  0.86057677293E+01  0.86057677293E+01  0.00000000000E+00 0.  1.
          1   -1    0    0  501    0 -0.00000000000E+00 -0.00000000000E+00 -0.82866963468E+02  0.82866963468E+02  0.00000000000E+00 0. -1.
          2    1    1    2  501    0  0.50631964718E+01  0.21582075954E+02 -0.11628811136E+02  0.25033002405E+02  0.00000000000E+00 0.  1.
          1    1    1    2  502    0 -0.50631964718E+01 -0.21582075954E+02 -0.62632384602E+02  0.66439728792E+02  0.00000000000E+00 0. -1.
</event>
<event>
 4    1  0.3767413E+003  0.3161836E+02  0.7546771E-02  0.1406036E+00
          2   -1    0    0  502    0  0.00000000000E+00  0.00000000000E+00  0.13345098769E+03  0.13345098769E+03  0.00000000000E+00 0.  1.
          1   -1    0    0  501    0 -0.00000000000E+00 -0.00000000000E+00 -0.19379043153E+02  0.19379043153E+02  0.00000000000E+00 0. -1.
          2    1    1    2  501    0  0.48731386327E+01  0.31240566295E+02  0.11688572672E+03  0.12108671922E+03  0.00000000000E+00 0.  1.
          1    1    1    2  502    0 -0.48731386327E+01 -0.31240566295E+02 -0.28137821763E+01  0.31743311621E+02  0.00000000000E+00 0. -1.
</event>
<event>
 4    1  0.3767413E+003  0.3594380E+02  0.7546771E-02  0.1374047E+00
          2   -1    0    0  502    0  0.00000000000E+00  0.00000000000E+00  0.20223165093E+04  0.20223165093E+04  0.00000000000E+00 0. -1.
          1   -1    0    0  501    0 -0.00000000000E+00 -0.00000000000E+00 -0.51890562481E+01  0.51890562481E+01  0.00000000000E+00 0.  1.
          2    1    1    2  501    0 -0.33661545373E+02 -0.12603849804E+02  0.19578635868E+04  0.19581934994E+04  0.00000000000E+00 0. -1.
          1    1    1    2  502    0  0.33661545373E+02  0.12603849804E+02  0.59263866224E+02  0.69312066096E+02  0.00000000000E+00 0.  1.
</event>
<event>
 4    1  0.3767413E+003  0.2093845E+02  0.7546771E-02  0.1520145E+00
          2   -1    0    0  502    0  0.00000000000E+00  0.00000000000E+00  0.35149433318E+02  0.35149433318E+02  0.00000000000E+00 0. -1.
          1   -1    0    0  501    0 -0.00000000000E+00 -0.00000000000E+00 -0.16416564722E+02  0.16416564722E+02  0.00000000000E+00 0. -1.
          2    1    1    2  501    0  0.20353762064E+02  0.49135167312E+01 -0.32703835263E+01  0.21192302499E+02  0.00000000000E+00 0. -1.
          1    1    1    2  502    0 -0.20353762064E+02 -0.49135167312E+01  0.22003252122E+02  0.30373695540E+02  0.00000000000E+00 0. -1.
</event>
<event>
 4    1  0.3767413E+003  0.2051062E+02  0.7546771E-02  0.1526368E+00
          2   -1    0    0  502    0  0.00000000000E+00  0.00000000000E+00  0.92919040217E+02  0.92919040217E+02  0.00000000000E+00 0.  1.
          1   -1    0    0  501    0 -0.00000000000E+00 -0.00000000000E+00 -0.13267662992E+02  0.13267662992E+02  0.00000000000E+00 0. -1.
          2    1    1    2  501    0  0.20396783209E+02 -0.21579546498E+01  0.82918431810E+02  0.85417514992E+02  0.00000000000E+00 0.  1.
          1    1    1    2  502    0 -0.20396783209E+02  0.21579546498E+01 -0.32670545856E+01  0.20769188217E+02  0.00000000000E+00 0. -1.
</event>
<event>
 4    1  0.3767413E+003  0.2196061E+02  0.7546771E-02  0.1505979E+00
          2   -1    0    0  502    0  0.00000000000E+00  0.00000000000E+00  0.29247492106E+01  0.29247492106E+01  0.00000000000E+00 0. -1.
          1   -1    0    0  501    0 -0.00000000000E+00 -0.00000000000E+00 -0.24025219702E+03  0.24025219702E+03  0.00000000000E+00 0. -1.
          2    1    1    2  501    0  0.76161354625E+01 -0.20597639157E+02 -0.50566527908E+02  0.55129320719E+02  0.00000000000E+00 0. -1.
          1    1    1    2  502    0 -0.76161354625E+01  0.20597639157E+02 -0.18676091990E+03  0.18804762551E+03  0.00000000000E+00 0. -1.
</event>
<event>
 4    1  0.3767413E+003  0.3036429E+02  0.7546771E-02  0.1416457E+00
          2   -1    0    0  502    0  0.00000000000E+00  0.00000000000E+00  0.19295260569E+04  0.19295260569E+04  0.00000000000E+00 0. -1.
          1   -1    0    0  501    0 -0.00000000000E+00 -0.00000000000E+00 -0.58218995478E+00  0.58218995478E+00  0.00000000000E+00 0. -1.
          2    1    1    2  501    0  0.51458669704E+01  0.29925073452E+02  0.13730559473E+04  0.13733916500E+04  0.00000000000E+00 0. -1.
          1    1    1    2  502    0 -0.51458669704E+01 -0.29925073452E+02  0.55588791970E+03  0.55671659687E+03  0.00000000000E+00 0. -1.
</event>
<event>
 4    1  0.3767413E+003  0.2267544E+02  0.7546771E-02  0.1496614E+00
          2   -1    0    0  502    0  0.00000000000E+00  0.00000000000E+00  0.11384255876E+04  0.11384255876E+04  0.00000000000E+00 0.  1.
          1   -1    0    0  501    0 -0.00000000000E+00 -0.00000000000E+00 -0.52284661951E+00  0.52284661951E+00  0.00000000000E+00 0.  1.
          2    1    1    2  501    0 -0.11212570753E+02  0.19709231842E+02  0.77908786045E+03  0.77941777621E+03  0.00000000000E+00 0.  1.
          1    1    1    2  502    0  0.11212570753E+02 -0.19709231842E+02  0.35881488050E+03  0.35953065798E+03  0.00000000000E+00 0.  1.
</event>
<event>
 4    1  0.3767413E+003  0.4821455E+02  0.7546771E-02  0.1306105E+00
          2   -1    0    0  502    0  0.00000000000E+00  0.00000000000E+00  0.18348787248E+03  0.18348787248E+03  0.00000000000E+00 0. -1.
          1   -1    0    0  501    0 -0.00000000000E+00 -0.00000000000E+00 -0.13166244678E+02  0.13166244678E+02  0.00000000000E+00 0. -1.
          2    1    1    2  501    0 -0.44438695943E+02 -0.18704077849E+02  0.66055679073E+02  0.81780150178E+02  0.00000000000E+00 0. -1.
          1    1    1    2  502    0  0.44438695943E+02  0.18704077849E+02  0.10426594872E+03  0.11487396698E+03  0.00000000000E+00 0. -1.
</event>
<event>
 4    1  0.3767413E+003  0.5169469E+02  0.7546771E-02  0.1290987E+00
          2   -1    0    0  502    0  0.00000000000E+00  0.00000000000E+00  0.16220445913E+04  0.16220445913E+04  0.00000000000E+00 0. -1.
          1   -1    0    0  501    0 -0.00000000000E+00 -0.00000000000E+00 -0.44021902063E+02  0.44021902063E+02  0.00000000000E+00 0. -1.
          2    1    1    2  501    0  0.17980143139E+02 -0.48467051261E+02  0.16063078737E+04  0.16071394854E+04  0.00000000000E+00 0. -1.
          1    1    1    2  502    0 -0.17980143139E+02  0.48467051261E+02 -0.28285184436E+02  0.58927007932E+02  0.00000000000E+00 0. -1.
</event>
<event>
 4    1  0.3767413E+003  0.2340460E+02  0.7546771E-02  0.1487479E+00
          2   -1    0    0  502    0  0.00000000000E+00  0.00000000000E+00  0.37362445874E+02  0.37362445874E+02  0.00000000000E+00 0. -1.
          1   -1    0    0  501    0 -0.00000000000E+00 -0.00000000000E+00 -0.79355343564E+02  0.79355343564E+02  0.00000000000E+00 0.  1.
          2    1    1    2  501    0 -0.15919707567E+01 -0.23350398788E+02  0.31696403127E+02  0.39400983054E+02  0.00000000000E+00 0. -1.
          1    1    1    2  502    0  0.15919707567E+01  0.23350398788E+02 -0.73689300817E+02  0.77316806383E+02  0.00000000000E+00 0.  1.
</event>
<event>
 4    1  0.3767413E+003  0.2485767E+02  0.7546771E-02  0.1470402E+00
          2   -1    0    0  502    0  0.00000000000E+00  0.00000000000E+00  0.64052324446E+02  0.64052324446E+02  0.00000000000E+00 0. -1.
          1   -1    0    0  501    0 -0.00000000000E+00 -0.00000000000E+00 -0.38404149286E+02  0.38404149286E+02  0.00000000000E+00 0. -1.
          2    1    1    2  501    0 -0.18001464079E+02  0.17142084125E+02  0.57153738691E+02  0.62325384904E+02  0.00000000000E+00 0. -1.
          1    1    1    2  502    0  0.18001464079E+02 -0.17142084125E+02 -0.31505563531E+02  0.40131088828E+02  0.00000000000E+00 0. -1.
</event>
<event>
 4    1  0.3767413E+003  0.4069959E+02  0.7546771E-02  0.1344434E+00
          2   -1    0    0  502    0  0.00000000000E+00  0.00000000000E+00  0.67113619542E+02  0.67113619542E+02  0.00000000000E+00 0. -1.
          1   -1    0    0  501    0 -0.00000000000E+00 -0.00000000000E+00 -0.36767845025E+03  0.36767845025E+03  0.00000000000E+00 0.  1.
          2    1    1    2  501    0 -0.28601403171E+02  0.28955420749E+02  0.59690238130E+02  0.72245284843E+02  0.00000000000E+00 0. -1.
          1    1    1    2  502    0  0.28601403171E+02 -0.28955420749E+02 -0.36025506884E+03  0.36254678495E+03  0.00000000000E+00 0.  1.
</event>
<event>
 4    1  0.3767413E+003  0.2080034E+02  0.7546771E-02  0.1522135E+00
          2   -1    0    0  502    0  0.00000000000E+00  0.00000000000E+00  0.11157921719E+04  0.11157921719E+04  0.00000000000E+00 0. -1.
          1   -1    0    0  501    0 -0.00000000000E+00 -0.00000000000E+00 -0.60764048880E+00  0.60764048880E+00  0.00000000000E+00 0. -1.
          2    1    1    2  501    0  0.18615337036E+02  0.92802745955E+01  0.89337970567E+03  0.89362181754E+03  0.00000000000E+00 0. -1.
          1    1    1    2  502    0 -0.18615337036E+02 -0.92802745955E+01  0.22180482575E+03  0.22277799487E+03  0.00000000000E+00 0. -1.
</event>
<event>
 4    1  0.3767413E+003  0.2135700E+02  0.7546771E-02  0.1514228E+00
          2   -1    0    0  502    0  0.00000000000E+00  0.00000000000E+00  0.39218221715E+01  0.39218221715E+01  0.00000000000E+00 0.  1.
          1   -1    0    0  501    0 -0.00000000000E+00 -0.00000000000E+00 -0.12300750979E+03  0.12300750979E+03  0.00000000000E+00 0.  1.
          2    1    1    2  501    0 -0.20317288564E+02  0.65824823842E+01 -0.44726656986E+02  0.49564050824E+02  0.00000000000E+00 0.  1.
          1    1    1    2  502    0  0.20317288564E+02 -0.65824823842E+01 -0.74359030630E+02  0.77365281136E+02  0.00000000000E+00 0.  1.
</event>
<event>
 4    1  0.3767413E+003  0.2691588E+02  0.7546771E-02  0.1448455E+00
          2   -1    0    0  502    0  0.00000000000E+00  0.00000000000E+00  0.76575196582E+00  0.76575196582E+00  0.00000000000E+00 0.  1.
          1   -1    0    0  501    0 -0.00000000000E+00 -0.00000000000E+00 -0.16090713222E+04  0.16090713222E+04  0.00000000000E+00 0.  1.
          2    1    1    2  501    0 -0.73127602599E+00  0.26905944160E+02 -0.28747789148E+03  0.28873517743E+03  0.00000000000E+00 0.  1.
          1    1    1    2  502    0  0.73127602599E+00 -0.26905944160E+02 -0.13208276788E+04  0.13211018968E+04  0.00000000000E+00 0.  1.
</event>
<event>
 4    1  0.3767413E+003  0.7724196E+02  0.7546771E-02  0.1210399E+00
          2   -1    0    0  502    0  0.00000000000E+00  0.00000000000E+00  0.62707121893E+03  0.62707121893E+03  0.00000000000E+00 0. -1.
          1   -1    0    0  501    0 -0.00000000000E+00 -0.00000000000E+00 -0.17454420729E+03  0.17454420729E+03  0.00000000000E+00 0. -1.
          2    1    1    2  501    0 -0.77237209466E+02 -0.85690818628E+00  0.61599392676E+03  0.62081787879E+03  0.00000000000E+00 0. -1.
          1    1    1    2  502    0  0.77237209466E+02  0.85690818628E+00 -0.16346691512E+03  0.18079754743E+03  0.00000000000E+00 0. -1.
</event>
<event>
 4    1  0.3767413E+003  0.2358033E+02  0.7546771E-02  0.1485337E+00
          2   -1    0    0  502    0  0.00000000000E+00  0.00000000000E+00  0.78176811068E+03  0.78176811068E+03  0.00000000000E+00 0. -1.
          1   -1    0    0  501    0 -0.00000000000E+00 -0.00000000000E+00 -0.86341238061E+02  0.86341238061E+02  0.00000000000E+00 0. -1.
          2    1    1    2  501    0  0.14134249769E+02 -0.18874711141E+02  0.77997661829E+03  0.78033297817E+03  0.00000000000E+00 0. -1.
          1    1    1    2  502    0 -0.14134249769E+02  0.18874711141E+02 -0.84549745673E+02  0.87776370571E+02  0.00000000000E+00 0. -1.
</event>
<event>
 4    1  0.3767413E+003  0.3582644E+02  0.7546771E-02  0.1374844E+00
          2   -1    0    0  502    0  0.00000000000E+00  0.00000000000E+00  0.20617387769E+03  0.20617387769E+03  0.00000000000E+00 0. -1.
          1   -1    0    0  501    0 -0.00000000000E+00 -0.00000000000E+00 -0.13311095240E+02  0.13311095240E+02  0.00000000000E+00 0.  1.
          2    1    1    2  501    0  0.22225257184E+02 -0.28099324883E+02  0.17649889199E+03  0.18009828702E+03  0.00000000000E+00 0. -1.
          1    1    1    2  502    0 -0.22225257184E+02  0.28099324883E+02  0.16363890464E+02  0.39386685909E+02  0.00000000000E+00 0.  1.
</event>
<event>
 4    1  0.3767413E+003  0.3058618E+02  0.7546771E-02  0.1414570E+00
          2   -1    0    0  502    0  0.00000000000E+00  0.00000000000E+00  0.28082738125E+01  0.28082738125E+01  0.00000000000E+00 0. -1.
          1   -1    0    0  501    0 -0.00000000000E+00 -0.00000000000E+00 -0.39889011999E+03  0.39889011999E+03  0.00000000000E+00 0. -1.
          2    1    1    2  501    0  0.13820376121E+02 -0.27285740275E+02 -0.11648948550E+03  0.12043801165E+03  0.00000000000E+00 0. -1.
          1    1    1    2  502    0 -0.13820376121E+02  0.27285740275E+02 -0.27959236067E+03  0.28126038215E+03  0.00000000000E+00 0. -1.
</event>
<event>
 4    1  0.3767413E+003  0.3286538E+02  0.7546771E-02  0.1396225E+00
          2   -1    0    0  502    0  0.00000000000E+00  0.00000000000E+00  0.27378992099E+03  0.27378992099E+03  0.00000000000E+00 0. -1.
          1   -1    0    0  501    0 -0.00000000000E+00 -0.00000000000E+00 -0.54446941667E+01  0.54446941667E+01  0.00000000000E+00 0. -1.
          2    1    1    2  501    0 -0.25816419722E+02 -0.20338275510E+02  0.20744445019E+03  0.21003174258E+03  0.00000000000E+00 0. -1.
          1    1    1    2  502    0  0.25816419722E+02  0.20338275510E+02  0.60900776639E+02  0.69202872579E+02  0.00000000000E+00 0. -1.
</event>
<event>
 4    1  0.3767413E+003  0.2336471E+02  0.7546771E-02  0.1487969E+00
          2   -1    0    0  502    0  0.00000000000E+00  0.00000000000E+00  0.14209387872E+04  0.14209387872E+04  0.00000000000E+00 0. -1.
          1   -1    0    0  501    0 -0.00000000000E+00 -0.00000000000E+00 -0.29809355308E+02  0.29809355308E+02  0.00000000000E+00 0.  1.
          2    1    1    2  501    0 -0.96358812873E+01  0.21285194221E+02  0.14162492388E+04  0.14164419564E+04  0.00000000000E+00 0. -1.
          1    1    1    2  502    0  0.96358812873E+01 -0.21285194221E+02 -0.25119806898E+02  0.34306186028E+02  0.00000000000E+00 0.  1.
</event>
<event>
 4    1  0.3767413E+003  0.2709350E+02  0.7546771E-02  0.1446671E+00
          2   -1    0    0  502    0  0.00000000000E+00  0.00000000000E+00  0.79299071764E+03  0.79299071764E+03  0.00000000000E+00 0. -1.
          1   -1    0    0  501    0 -0.00000000000E+00 -0.00000000000E+00 -0.10727550777E+01  0.10727550777E+01  0.00000000000E+00 0. -1.
          2    1    1    2  501    0  0.18917181642E+02 -0.19395830768E+02  0.54296667815E+03  0.54364222756E+03  0.00000000000E+00 0. -1.
          1    1    1    2  502    0 -0.18917181642E+02  0.19395830768E+02  0.24895128442E+03  0.25042124516E+03  0.00000000000E+00 0. -1.
</event>
<event>
 4    1  0.3767413E+003  0.2130058E+02  0.7546771E-02  0.1515016E+00
          2   -1    0    0  502    0  0.00000000000E+00  0.00000000000E+00  0.58732819870E+02  0.58732819870E+02  0.00000000000E+00 0. -1.
          1   -1    0    0  501    0 -0.00000000000E+00 -0.00000000000E+00 -0.94578627114E+01  0.94578627114E+01  0.00000000000E+00 0.  1.
          2    1    1    2  501    0  0.20975515830E+02  0.37070879272E+01  0.39231421904E+02  0.44641003908E+02  0.00000000000E+00 0. -1.
          1    1    1    2  502    0 -0.20975515830E+02 -0.37070879272E+01  0.10043535254E+02  0.23549678673E+02  0.00000000000E+00 0.  1.
</event>
<event>
 4    1  0.3767413E+003  0.2243796E+02  0.7546771E-02  0.1499679E+00
          2   -1    0    0  502    0  0.00000000000E+00  0.00000000000E+00  0.23082945565E+01  0.23082945565E+01  0.00000000000E+00 0. -1.
          1   -1    0    0  501    0 -0.00000000000E+00 -0.00000000000E+00 -0.15305266285E+04  0.15305266285E+04  0.00000000000E+00 0. -1.
          2    1    1    2  501    0  0.66749561988E+01  0.21422110392E+02 -0.54399325624E+02  0.58845122842E+02  0.00000000000E+00 0. -1.
          1    1    1    2  502    0 -0.66749561988E+01 -0.21422110392E+02 -0.14738190083E+04  0.14739898002E+04  0.00000000000E+00 0. -1.
</event>
<event>
 4    1  0.3767413E+003  0.2406427E+02  0.7546771E-02  0.1479550E+00
          2   -1    0    0  502    0  0.00000000000E+00  0.00000000000E+00  0.64449864392E+01  0.64449864392E+01  0.00000000000E+00 0.  1.
          1   -1    0    0  501    0 -0.00000000000E+00 -0.00000000000E+00 -0.15933361907E+03  0.15933361907E+03  0.00000000000E+00 0.  1.
          2    1    1    2  501    0  0.20688565463E+02  0.12291124568E+02 -0.13118155220E+03  0.13337049194E+03  0.00000000000E+00 0.  1.
          1    1    1    2  502    0 -0.20688565463E+02 -0.12291124568E+02 -0.21707080437E+02  0.32408113570E+02  0.00000000000E+00 0.  1.
</event>
<event>
 4    1  0.3767413E+003  0.2171833E+02  0.7546771E-02  0.1509251E+00
          2   -1    0    0  502    0  0.00000000000E+00  0.00000000000E+00  0.10425557885E+02  0.10425557885E+02  0.00000000000E+00 0.  1.
          1   -1    0    0  501    0 -0.00000000000E+00 -0.00000000000E+00 -0.35019694629E+03  0.35019694629E+03  0.00000000000E+00 0.  1.
          2    1    1    2  501    0 -0.18381716153E+02 -0.11567132014E+02 -0.16246387454E+01  0.21779014734E+02  0.00000000000E+00 0.  1.
          1    1    1    2  502    0  0.18381716153E+02  0.11567132014E+02 -0.33814674966E+03  0.33884348944E+03  0.00000000000E+00 0.  1.
</event>
<event>
 4    1  0.3767413E+003  0.2488500E+02  0.7546771E-02  0.1470094E+00
          2   -1    0    0  502    0  0.00000000000E+00  0.00000000000E+00  0.16729544657E+03  0.16729544657E+03  0.00000000000E+00 0. -1.
          1   -1    0    0  501    0 -0.00000000000E+00 -0.00000000000E+00 -0.43705717670E+03  0.43705717670E+03  0.00000000000E+00 0. -1.
          2    1    1    2  501    0  0.12050979312E+02  0.21772389608E+02  0.16601309916E+03  0.16786784130E+03  0.00000000000E+00 0. -1.
          1    1    1    2  502    0 -0.12050979312E+02 -0.21772389608E+02 -0.43577482928E+03  0.43648478197E+03  0.00000000000E+00 0. -1.
</event>
<event>
 4    1  0.3767413E+003  0.5102604E+02  0.7546771E-02  0.1293784E+00
          2   -1    0    0  502    0  0.00000000000E+00  0.00000000000E+00  0.21413010843E+02  0.21413010843E+02  0.00000000000E+00 0.  1.
          1   -1    0    0  501    0 -0.00000000000E+00 -0.00000000000E+00 -0.13222294917E+03  0.13222294917E+03  0.00000000000E+00 0.  1.
          2    1    1    2  501    0 -0.21649682628E+02  0.46205468462E+02 -0.77186699392E+02  0.92528053242E+02  0.00000000000E+00 0.  1.
          1    1    1    2  502    0  0.21649682628E+02 -0.46205468462E+02 -0.33623238936E+02  0.61107906773E+02  0.00000000000E+00 0.  1.
</event>
<event>
 4    1  0.3767413E+003  0.2286079E+02  0.7546771E-02  0.1494254E+00
          2   -1    0    0  502    0  0.00000000000E+00  0.00000000000E+00  0.13931132167E+01  0.13931132167E+01  0.00000000000E+00 0.  1.
          1   -1    0    0  501    0 -0.00000000000E+00 -0.00000000000E+00 -0.42223311395E+03  0.42223311395E+03  0.00000000000E+00 0.  1.
          2    1    1    2  501    0 -0.16421369889E+02  0.15904531831E+02 -0.13968320589E+03  0.14154156113E+03  0.00000000000E+00 0.  1.
          1    1    1    2  502    0  0.16421369889E+02 -0.15904531831E+02 -0.28115679485E+03  0.28208466603E+03  0.00000000000E+00 0.  1.
</event>
<event>
 4    1  0.3767413E+003  0.2274485E+02  0.7546771E-02  0.1495727E+00
          2   -1    0    0  502    0  0.00000000000E+00  0.00000000000E+00  0.11427779809E+03  0.11427779809E+03  0.00000000000E+00 0.  1.
          1   -1    0    0  501    0 -0.00000000000E+00 -0.00000000000E+00 -0.78738152438E+01  0.78738152438E+01  0.00000000000E+00 0.  1.
          2    1    1    2  501    0 -0.21001544988E+02  0.87328538367E+01  0.13382382317E+02  0.26389690875E+02  0.00000000000E+00 0.  1.
          1    1    1    2  502    0  0.21001544988E+02 -0.87328538367E+01  0.93021600530E+02  0.95761922460E+02  0.00000000000E+00 0.  1.
</event>
<event>
 4    1  0.4577527E+003  0.2713155E+02  0.7546771E-02  0.1446291E+00
          2   -1    0    0  502    0  0.00000000000E+00  0.00000000000E+00  0.75428757558E+03  0.75428757558E+03  0.00000000000E+00 0.  1.
          1   -1    0    0  501    0 -0.00000000000E+00 -0.00000000000E+00 -0.59220599426E+03  0.59220599426E+03  0.00000000000E+00 0. -1.
          2    1    1    2  501    0  0.25859909348E+02 -0.82088970439E+01  0.75373261425E+03  0.75422077318E+03  0.00000000000E+00 0.  1.
          1    1    1    2  502    0 -0.25859909348E+02  0.82088970439E+01 -0.59165103293E+03  0.59227279666E+03  0.00000000000E+00 0. -1.
</event>
<event>
 4    1  0.3767413E+003  0.2927589E+02  0.7546771E-02  0.1425995E+00
          2   -1    0    0  502    0  0.00000000000E+00  0.00000000000E+00  0.13247222689E+03  0.13247222689E+03  0.00000000000E+00 0. -1.
          1   -1    0    0  501    0 -0.00000000000E+00 -0.00000000000E+00 -0.39697214866E+03  0.39697214866E+03  0.00000000000E+00 0. -1.
          2    1    1    2  501    0 -0.25889817230E+02 -0.13667302476E+02  0.13030613854E+03  0.13355436172E+03  0.00000000000E+00 0. -1.
          1    1    1    2  502    0  0.25889817230E+02  0.13667302476E+02 -0.39480606031E+03  0.39589001383E+03  0.00000000000E+00 0. -1.
</event>
<event>
 4    1  0.3767413E+003  0.2216662E+02  0.7546771E-02  0.1503237E+00
          2   -1    0    0  502    0  0.00000000000E+00  0.00000000000E+00  0.48459143844E+02  0.48459143844E+02  0.00000000000E+00 0.  1.
          1   -1    0    0  501    0 -0.00000000000E+00 -0.00000000000E+00 -0.87984047232E+02  0.87984047232E+02  0.00000000000E+00 0. -1.
          2    1    1    2  501    0  0.60380413732E+01  0.21328410084E+02  0.44407774407E+02  0.49632745725E+02  0.00000000000E+00 0.  1.
          1    1    1    2  502    0 -0.60380413732E+01 -0.21328410084E+02 -0.83932677795E+02  0.86810445352E+02  0.00000000000E+00 0. -1.
</event>
<event>
 4    1  0.3767413E+003  0.2627261E+02  0.7546771E-02  0.1455055E+00
          2   -1    0    0  502    0  0.00000000000E+00  0.00000000000E+00  0.85100981475E+03  0.85100981475E+03  0.00000000000E+00 0.  1.
          1   -1    0    0  501    0 -0.00000000000E+00 -0.00000000000E+00 -0.11860791961E+02  0.11860791961E+02  0.00000000000E+00 0.  1.
          2    1    1    2  501    0 -0.18620757948E+02  0.18534219810E+02  0.83599684755E+03  0.83640957613E+03  0.00000000000E+00 0.  1.
          1    1    1    2  502    0  0.18620757948E+02 -0.18534219810E+02  0.31521752369E+01  0.26461030578E+02  0.00000000000E+00 0.  1.
</event>
<event>
 4    1  0.3767413E+003  0.2396027E+02  0.7546771E-02  0.1480780E+00
          2   -1    0    0  502    0  0.00000000000E+00  0.00000000000E+00  0.21548414293E+02  0.21548414293E+02  0.00000000000E+00 0. -1.
          1   -1    0    0  501    0 -0.00000000000E+00 -0.00000000000E+00 -0.40861038399E+02  0.40861038399E+02  0.00000000000E+00 0. -1.
          2    1    1    2  501    0  0.33431464654E+01 -0.23725887926E+02  0.87513955061E+01  0.25508455646E+02  0.00000000000E+00 0. -1.
          1    1    1    2  502    0 -0.33431464654E+01  0.23725887926E+02 -0.28064019612E+02  0.36900997045E+02  0.00000000000E+00 0. -1.
</event>
<event>
 4    1  0.3767413E+003  0.4402291E+02  0.7546771E-02  0.1326398E+00
          2   -1    0    0  502    0  0.00000000000E+00  0.00000000000E+00  0.22627555350E+02  0.22627555350E+02  0.00000000000E+00 0.  1.
          1   -1    0    0  501    0 -0.00000000000E+00 -0.00000000000E+00 -0.91244830148E+02  0.91244830148E+02  0.00000000000E+00 0.  1.
          2    1    1    2  501    0  0.29828683663E+02  0.32376914284E+02 -0.48409252463E+02  0.65432947906E+02  0.00000000000E+00 0.  1.
          1    1    1    2  502    0 -0.29828683663E+02 -0.32376914284E+02 -0.20208022335E+02  0.48439437593E+02  0.00000000000E+00 0.  1.
</event>
<event>
 4    1  0.3767413E+003  0.2825571E+02  0.7546771E-02  0.1435386E+00
          2   -1    0    0  502    0  0.00000000000E+00  0.00000000000E+00  0.24926686952E+02  0.24926686952E+02  0.00000000000E+00 0.  1.
          1   -1    0    0  501    0 -0.00000000000E+00 -0.00000000000E+00 -0.57877974498E+02  0.57877974498E+02  0.00000000000E+00 0.  1.
          2    1    1    2  501    0 -0.27752364274E+02  0.53095478474E+01  0.11192946714E+02  0.30391891637E+02  0.00000000000E+00 0.  1.
          1    1    1    2  502    0  0.27752364274E+02 -0.53095478474E+01 -0.44144234260E+02  0.52412769814E+02  0.00000000000E+00 0.  1.
</event>
<event>
 4    1  0.3767413E+003  0.2048014E+02  0.7546771E-02  0.1526818E+00
          2   -1    0    0  502    0  0.00000000000E+00  0.00000000000E+00  0.62982134547E+00  0.62982134547E+00  0.00000000000E+00 0.  1.
          1   -1    0    0  501    0 -0.00000000000E+00 -0.00000000000E+00 -0.10915342611E+04  0.10915342611E+04  0.00000000000E+00 0.  1.
          2    1    1    2  501    0  0.12068494679E+02  0.16546533551E+02 -0.20447413317E+03  0.20549722011E+03  0.00000000000E+00 0.  1.
          1    1    1    2  502    0 -0.12068494679E+02 -0.16546533551E+02 -0.88643030657E+03  0.88666686233E+03  0.00000000000E+00 0.  1.
</event>
<event>
 4    1  0.3767413E+003  0.3567036E+02  0.7546771E-02  0.1375911E+00
          2   -1    0    0  502    0  0.00000000000E+00  0.00000000000E+00  0.77401323386E+02  0.77401323386E+02  0.00000000000E+00 0. -1.
          1   -1    0    0  501    0 -0.00000000000E+00 -0.00000000000E+00 -0.17454121060E+02  0.17454121060E+02  0.00000000000E+00 0. -1.
          2    1    1    2  501    0  0.14968560532E+01 -0.35638943511E+02  0.41413247783E+02  0.54657405395E+02  0.00000000000E+00 0. -1.
          1    1    1    2  502    0 -0.14968560532E+01  0.35638943511E+02  0.18533954543E+02  0.40198039052E+02  0.00000000000E+00 0. -1.
</event>
<event>
 4    1  0.3767413E+003  0.2520894E+02  0.7546771E-02  0.1466479E+00
          2   -1    0    0  502    0  0.00000000000E+00  0.00000000000E+00  0.64028463566E+02  0.64028463566E+02  0.00000000000E+00 0. -1.
          1   -1    0    0  501    0 -0.00000000000E+00 -0.00000000000E+00 -0.69658270810E+02  0.69658270810E+02  0.00000000000E+00 0. -1.
          2    1    1    2  501    0  0.12677893305E+02 -0.21789029913E+02  0.59083528851E+02  0.64236704342E+02  0.00000000000E+00 0. -1.
          1    1    1    2  502    0 -0.12677893305E+02  0.21789029913E+02 -0.64713336095E+02  0.69450030034E+02  0.00000000000E+00 0. -1.
</event>
<event>
 4    1  0.3767413E+003  0.3099935E+02  0.7546771E-02  0.1411106E+00
          2   -1    0    0  502    0  0.00000000000E+00  0.00000000000E+00  0.11916513004E+04  0.11916513004E+04  0.00000000000E+00 0. -1.
          1   -1    0    0  501    0 -0.00000000000E+00 -0.00000000000E+00 -0.98601057406E+02  0.98601057406E+02  0.00000000000E+00 0. -1.
          2    1    1    2  501    0  0.30256622994E+02  0.67450874911E+01  0.11890077983E+04  0.11894118310E+04  0.00000000000E+00 0. -1.
          1    1    1    2  502    0 -0.30256622994E+02 -0.67450874911E+01 -0.95957555242E+02  0.10084052681E+03  0.00000000000E+00 0. -1.
</event>
<event>
 4    1  0.3767413E+003  0.7634132E+02  0.7546771E-02  0.1212606E+00
          2   -1    0    0  502    0  0.00000000000E+00  0.00000000000E+00  0.27127468626E+01  0.27127468626E+01  0.00000000000E+00 0.  1.
          1   -1    0    0  501    0 -0.00000000000E+00 -0.00000000000E+00 -0.21502911815E+04  0.21502911815E+04  0.00000000000E+00 0. -1.
          2    1    1    2  501    0  0.51224098606E+02  0.56604668439E+02 -0.10416513660E+04  0.10444450991E+04  0.00000000000E+00 0.  1.
          1    1    1    2  502    0 -0.51224098606E+02 -0.56604668439E+02 -0.11059270687E+04  0.11085588293E+04  0.00000000000E+00 0. -1.
</event>
<event>
 4    1  0.3767413E+003  0.4707758E+02  0.7546771E-02  0.1311366E+00
          2   -1    0    0  502    0  0.00000000000E+00  0.00000000000E+00  0.11172398879E+04  0.11172398879E+04  0.00000000000E+00 0. -1.
          1   -1    0    0  501    0 -0.00000000000E+00 -0.00000000000E+00 -0.21174343270E+01  0.21174343270E+01  0.00000000000E+00 0. -1.
          2    1    1    2  501    0  0.32729209915E+02  0.33839259194E+02  0.41691933436E+03  0.41956885967E+03  0.00000000000E+00 0. -1.
          1    1    1    2  502    0 -0.32729209915E+02 -0.33839259194E+02  0.69820311924E+03  0.69978846258E+03  0.00000000000E+00 0. -1.
</event>
<event>
 4    1  0.3767413E+003  0.2818881E+02  0.7546771E-02  0.1436018E+00
          2   -1    0    0  502    0  0.00000000000E+00  0.00000000000E+00  0.13758886678E+04  0.13758886678E+04  0.00000000000E+00 0.  1.
          1   -1    0    0  501    0 -0.00000000000E+00 -0.00000000000E+00 -0.10319826296E+03  0.10319826296E+03  0.00000000000E+00 0.  1.
          2    1    1    2  501    0  0.25023841794E+02  0.12977535461E+02  0.13738164260E+04  0.13741055933E+04  0.00000000000E+00 0.  1.
          1    1    1    2  502    0 -0.25023841794E+02 -0.12977535461E+02 -0.10112602111E+03  0.10498133754E+03  0.00000000000E+00 0.  1.
</event>
<event>
 4    1  0.3767413E+003  0.2217797E+02  0.7546771E-02  0.1503087E+00
          2   -1    0    0  502    0  0.00000000000E+00  0.00000000000E+00  0.89932622159E+02  0.89932622159E+02  0.00000000000E+00 0.  1.
          1   -1    0    0  501    0 -0.00000000000E+00 -0.00000000000E+00 -0.98125314298E+02  0.98125314298E+02  0.00000000000E+00 0.  1.
          2    1    1    2  501    0  0.11514793153E+02  0.18954470756E+02  0.87274596629E+02  0.90048418308E+02  0.00000000000E+00 0.  1.
          1    1    1    2  502    0 -0.11514793153E+02 -0.18954470756E+02 -0.95467288768E+02  0.98009518149E+02  0.00000000000E+00 0.  1.
</event>
<event>
 4    1  0.3767413E+003  0.4604559E+02  0.7546771E-02  0.1316292E+00
          2   -1    0    0  502    0  0.00000000000E+00  0.00000000000E+00  0.14745024710E+03  0.14745024710E+03  0.00000000000E+00 0.  1.
          1   -1    0    0  501    0 -0.00000000000E+00 -0.00000000000E+00 -0.19356029978E+04  0.19356029978E+04  0.00000000000E+00 0. -1.
          2    1    1    2  501    0  0.17289950586E+02 -0.42676153886E+02  0.14357442778E+03  0.15077736174E+03  0.00000000000E+00 0.  1.
          1    1    1    2  502    0 -0.17289950586E+02  0.42676153886E+02 -0.19317271785E+04  0.19322758831E+04  0.00000000000E+00 0. -1.
</event>
<event>
 4    1  0.3767413E+003  0.2315681E+02  0.7546771E-02  0.1490538E+00
          2   -1    0    0  502    0  0.00000000000E+00  0.00000000000E+00  0.21486624412E+03  0.21486624412E+03  0.00000000000E+00 0.  1.
          1   -1    0    0  501    0 -0.00000000000E+00 -0.00000000000E+00 -0.12204537375E+02  0.12204537375E+02  0.00000000000E+00 0.  1.
          2    1    1    2  501    0 -0.11344389024E+01  0.23129005444E+02  0.20259474447E+03  0.20391387479E+03  0.00000000000E+00 0.  1.
          1    1    1    2  502    0  0.11344389024E+01 -0.23129005444E+02  0.66962278111E-01  0.23156906710E+02  0.00000000000E+00 0.  1.
</event>
<event>
 4    1  0.3767413E+003  0.2075859E+02  0.7546771E-02  0.1522740E+00
          2   -1    0    0  502    0  0.00000000000E+00  0.00000000000E+00  0.79592892974E+02  0.79592892974E+02  0.00000000000E+00 0.  1.
          1   -1    0    0  501    0 -0.00000000000E+00 -0.00000000000E+00 -0.11411823847E+02  0.11411823847E+02  0.00000000000E+00 0.  1.
          2    1    1    2  501    0  0.19628842507E+02 -0.67547939771E+01  0.11028398026E+01  0.20787855961E+02  0.00000000000E+00 0.  1.
          1    1    1    2  502    0 -0.19628842507E+02  0.67547939771E+01  0.67078229324E+02  0.70216860860E+02  0.00000000000E+00 0.  1.
</event>
<event>
 4    1  0.3767413E+003  0.2273643E+02  0.7546771E-02  0.1495835E+00
          2   -1    0    0  502    0  0.00000000000E+00  0.00000000000E+00  0.83780533073E+03  0.83780533073E+03  0.00000000000E+00 0. -1.
          1   -1    0    0  501    0 -0.00000000000E+00 -0.00000000000E+00 -0.69400258805E+00  0.69400258805E+00  0.00000000000E+00 0.  1.
          2    1    1    2  501    0 -0.20678442137E+02  0.94523726206E+01  0.55818588900E+03  0.55864875548E+03  0.00000000000E+00 0. -1.
          1    1    1    2  502    0  0.20678442137E+02 -0.94523726206E+01  0.27892543914E+03  0.27985057784E+03  0.00000000000E+00 0.  1.
</event>
<event>
 4    1  0.3767413E+003  0.4536628E+02  0.7546771E-02  0.1319618E+00
          2   -1    0    0  502    0  0.00000000000E+00  0.00000000000E+00  0.68169424487E+02  0.68169424487E+02  0.00000000000E+00 0. -1.
          1   -1    0    0  501    0 -0.00000000000E+00 -0.00000000000E+00 -0.30872222538E+02  0.30872222538E+02  0.00000000000E+00 0. -1.
          2    1    1    2  501    0 -0.24846451053E+02 -0.37957233180E+02  0.11292058802E+02  0.46750489544E+02  0.00000000000E+00 0. -1.
          1    1    1    2  502    0  0.24846451053E+02  0.37957233180E+02  0.26005143147E+02  0.52291157481E+02  0.00000000000E+00 0. -1.
</event>
<event>
 4    1  0.3767413E+003  0.2285117E+02  0.7546771E-02  0.1494375E+00
          2   -1    0    0  502    0  0.00000000000E+00  0.00000000000E+00  0.58408367264E+03  0.58408367264E+03  0.00000000000E+00 0.  1.
          1   -1    0    0  501    0 -0.00000000000E+00 -0.00000000000E+00 -0.18616996074E+03  0.18616996074E+03  0.00000000000E+00 0. -1.
          2    1    1    2  501    0 -0.18540700220E+02 -0.13357340216E+02  0.58315784870E+03  0.58360539117E+03  0.00000000000E+00 0.  1.
          1    1    1    2  502    0  0.18540700220E+02  0.13357340216E+02 -0.18524413680E+03  0.18664824221E+03  0.00000000000E+00 0. -1.
</event>
<event>
 4    1  0.3767413E+003  0.2418161E+02  0.7546771E-02  0.1478171E+00
          2   -1    0    0  502    0  0.00000000000E+00  0.00000000000E+00  0.12187338986E+03  0.12187338986E+03  0.00000000000E+00 0. -1.
          1   -1    0    0  501    0 -0.00000000000E+00 -0.00000000000E+00 -0.10210758292E+04  0.10210758292E+04  0.00000000000E+00 0. -1.
          2    1    1    2  501    0 -0.24181496095E+02  0.73115322686E-01  0.12052913552E+03  0.12293096684E+03  0.00000000000E+00 0. -1.
          1    1    1    2  502    0  0.24181496095E+02 -0.73115322686E-01 -0.10197315748E+04  0.10200182522E+04  0.00000000000E+00 0. -1.
</event>
<event>
 4    1  0.3767413E+003  0.2374996E+02  0.7546771E-02  0.1483290E+00
          2   -1    0    0  502    0  0.00000000000E+00  0.00000000000E+00  0.89361946616E+03  0.89361946616E+03  0.00000000000E+00 0.  1.
          1   -1    0    0  501    0 -0.00000000000E+00 -0.00000000000E+00 -0.11775801007E+02  0.11775801007E+02  0.00000000000E+00 0. -1.
          2    1    1    2  501    0 -0.23276806543E+02  0.47170909860E+01  0.88131957271E+03  0.88163952379E+03  0.00000000000E+00 0.  1.
          1    1    1    2  502    0  0.23276806543E+02 -0.47170909860E+01  0.52409243803E+00  0.23755743371E+02  0.00000000000E+00 0. -1.
</event>
<event>
 4    1  0.3767413E+003  0.7622249E+02  0.7546771E-02  0.1212900E+00
          2   -1    0    0  502    0  0.00000000000E+00  0.00000000000E+00  0.20900204531E+04  0.20900204531E+04  0.00000000000E+00 0.  1.
          1   -1    0    0  501    0 -0.00000000000E+00 -0.00000000000E+00 -0.40026381043E+03  0.40026381043E+03  0.00000000000E+00 0.  1.
          2    1    1    2  501    0  0.57931302878E+02 -0.49536165271E+02  0.20856891926E+04  0.20870815210E+04  0.00000000000E+00 0.  1.
          1    1    1    2  502    0 -0.57931302878E+02  0.49536165271E+02 -0.39593254987E+03  0.40320274251E+03  0.00000000000E+00 0.  1.
</event>
<event>
 4    1  0.3767413E+003  0.2213447E+02  0.7546771E-02  0.1503662E+00
          2   -1    0    0  502    0  0.00000000000E+00  0.00000000000E+00  0.10561106161E+03  0.10561106161E+03  0.00000000000E+00 0.  1.
          1   -1    0    0  501    0 -0.00000000000E+00 -0.00000000000E+00 -0.25255395626E+03  0.25255395626E+03  0.00000000000E+00 0.  1.
          2    1    1    2  501    0 -0.14553214339E+02  0.16677496588E+02  0.10395869571E+03  0.10628897099E+03  0.00000000000E+00 0.  1.
          1    1    1    2  502    0  0.14553214339E+02 -0.16677496588E+02 -0.25090159037E+03  0.25187604688E+03  0.00000000000E+00 0.  1.
</event>
<event>
 4    1  0.3767413E+003  0.6259274E+02  0.7546771E-02  0.1251269E+00
          2   -1    0    0  502    0  0.00000000000E+00  0.00000000000E+00  0.41425106391E+03  0.41425106391E+03  0.00000000000E+00 0.  1.
          1   -1    0    0  501    0 -0.00000000000E+00 -0.00000000000E+00 -0.10872320390E+02  0.10872320390E+02  0.00000000000E+00 0.  1.
          2    1    1    2  501    0 -0.39439614455E+02  0.48604196094E+02  0.27836334915E+03  0.28531387141E+03  0.00000000000E+00 0.  1.
          1    1    1    2  502    0  0.39439614455E+02 -0.48604196094E+02  0.12501539437E+03  0.13980951289E+03  0.00000000000E+00 0.  1.
</event>
<event>
 4    1  0.3767413E+003  0.2179266E+02  0.7546771E-02  0.1508242E+00
          2   -1    0    0  502    0  0.00000000000E+00  0.00000000000E+00  0.64561473100E+01  0.64561473100E+01  0.00000000000E+00 0. -1.
          1   -1    0    0  501    0 -0.00000000000E+00 -0.00000000000E+00 -0.76885266895E+02  0.76885266895E+02  0.00000000000E+00 0.  1.
          2    1    1    2  501    0  0.13491905443E+02  0.17113986476E+02 -0.26549663138E+02  0.34348284649E+02  0.00000000000E+00 0. -1.
          1    1    1    2  502    0 -0.13491905443E+02 -0.17113986476E+02 -0.43879456448E+02  0.48993129557E+02  0.00000000000E+00 0.  1.
</event>
<event>
 4    1  0.3767413E+003  0.2819187E+02  0.7546771E-02  0.1435989E+00
          2   -1    0    0  502    0  0.00000000000E+00  0.00000000000E+00  0.11270075344E+04  0.11270075344E+04  0.00000000000E+00 0.  1.
          1   -1    0    0  501    0 -0.00000000000E+00 -0.00000000000E+00 -0.30141538570E+03  0.30141538570E+03  0.00000000000E+00 0. -1.
          2    1    1    2  501    0  0.27989613357E+02 -0.33708804129E+01  0.11261715341E+04  0.11265243475E+04  0.00000000000E+00 0.  1.
          1    1    1    2  502    0 -0.27989613357E+02  0.33708804129E+01 -0.30057938534E+03  0.30189857267E+03  0.00000000000E+00 0. -1.
</event>
<event>
 4    1  0.3767413E+003  0.3418609E+02  0.7546771E-02  0.1386377E+00
          2   -1    0    0  502    0  0.00000000000E+00  0.00000000000E+00  0.53587651936E+03  0.53587651936E+03  0.00000000000E+00 0.  1.
          1   -1    0    0  501    0 -0.00000000000E+00 -0.00000000000E+00 -0.71093387450E+01  0.71093387450E+01  0.00000000000E+00 0.  1.
          2    1    1    2  501    0  0.32248937620E+02 -0.11344384274E+02  0.49043068791E+03  0.49162073662E+03  0.00000000000E+00 0.  1.
          1    1    1    2  502    0 -0.32248937620E+02  0.11344384274E+02  0.38336492708E+02  0.51365121487E+02  0.00000000000E+00 0.  1.
</event>
<event>
 4    1  0.3767413E+003  0.3204987E+02  0.7546771E-02  0.1402581E+00
          2   -1    0    0  502    0  0.00000000000E+00  0.00000000000E+00  0.14327159320E+03  0.14327159320E+03  0.00000000000E+00 0.  1.
          1   -1    0    0  501    0 -0.00000000000E+00 -0.00000000000E+00 -0.54514712507E+03  0.54514712507E+03  0.00000000000E+00 0.  1.
          2    1    1    2  501    0  0.28675660270E+02 -0.14314356047E+02  0.14100064898E+03  0.14459729352E+03  0.00000000000E+00 0.  1.
          1    1    1    2  502    0 -0.28675660270E+02  0.14314356047E+02 -0.54287618085E+03  0.54382142475E+03  0.00000000000E+00 0.  1.
</event>
<event>
 4    1  0.3767413E+003  0.2109614E+02  0.7546771E-02  0.1517897E+00
          2   -1    0    0  502    0  0.00000000000E+00  0.00000000000E+00  0.11888393128E+04  0.11888393128E+04  0.00000000000E+00 0. -1.
          1   -1    0    0  501    0 -0.00000000000E+00 -0.00000000000E+00 -0.13791234153E+01  0.13791234153E+01  0.00000000000E+00 0. -1.
          2    1    1    2  501    0 -0.25625151537E+01  0.20939930937E+02  0.11016885981E+04  0.11018905637E+04  0.00000000000E+00 0. -1.
          1    1    1    2  502    0  0.25625151537E+01 -0.20939930937E+02  0.85771591345E+02  0.88327872574E+02  0.00000000000E+00 0. -1.
</event>
<event>
 4    1  0.3767413E+003  0.2415331E+02  0.7546771E-02  0.1478502E+00
          2   -1    0    0  502    0  0.00000000000E+00  0.00000000000E+00  0.33482501772E+03  0.33482501772E+03  0.00000000000E+00 0.  1.
          1   -1    0    0  501    0 -0.00000000000E+00 -0.00000000000E+00 -0.18314651752E+02  0.18314651752E+02  0.00000000000E+00 0.  1.
          2    1    1    2  501    0  0.65081943460E+01  0.23259956056E+02  0.32621624144E+03  0.32710918411E+03  0.00000000000E+00 0.  1.
          1    1    1    2  502    0 -0.65081943460E+01 -0.23259956056E+02 -0.97058754740E+01  0.26030485360E+02  0.00000000000E+00 0.  1.
</event>
<event>
 4    1  0.3767413E+003  0.2169753E+02  0.7546771E-02  0.1509535E+00
          2   -1    0    0  502    0  0.00000000000E+00  0.00000000000E+00  0.92174711682E+03  0.92174711682E+03  0.00000000000E+00 0. -1.
          1   -1    0    0  501    0 -0.00000000000E+00 -0.00000000000E+00 -0.52977191273E+00  0.52977191273E+00  0.00000000000E+00 0. -1.
          2    1    1    2  501    0  0.20521682851E+02  0.70458114247E+01  0.54798759862E+03  0.54841698658E+03  0.00000000000E+00 0. -1.
          1    1    1    2  502    0 -0.20521682851E+02 -0.70458114247E+01  0.37322974629E+03  0.37385990216E+03  0.00000000000E+00 0. -1.
</event>
<event>
 4    1  0.3767413E+003  0.2469423E+02  0.7546771E-02  0.1472253E+00
          2   -1    0    0  502    0  0.00000000000E+00  0.00000000000E+00  0.11422155681E+04  0.11422155681E+04  0.00000000000E+00 0. -1.
          1   -1    0    0  501    0 -0.00000000000E+00 -0.00000000000E+00 -0.55286300456E+00  0.55286300456E+00  0.00000000000E+00 0. -1.
          2    1    1    2  501    0  0.22249831223E+02 -0.10712143011E+02  0.67671099515E+03  0.67716141056E+03  0.00000000000E+00 0. -1.
          1    1    1    2  502    0 -0.22249831223E+02  0.10712143011E+02  0.46495170993E+03  0.46560702053E+03  0.00000000000E+00 0. -1.
</event>
<event>
 4    1  0.3767413E+003  0.2433827E+02  0.7546771E-02  0.1476344E+00
          2   -1    0    0  502    0  0.00000000000E+00  0.00000000000E+00  0.42207626150E+03  0.42207626150E+03  0.00000000000E+00 0. -1.
          1   -1    0    0  501    0 -0.00000000000E+00 -0.00000000000E+00 -0.47463372529E+01  0.47463372529E+01  0.00000000000E+00 0. -1.
          2    1    1    2  501    0  0.24317956972E+02 -0.99421029883E+00  0.38776708722E+03  0.38853013450E+03  0.00000000000E+00 0. -1.
          1    1    1    2  502    0 -0.24317956972E+02  0.99421029883E+00  0.29562837036E+02  0.38292464259E+02  0.00000000000E+00 0. -1.
</event>
<event>
 4    1  0.3767413E+003  0.2037802E+02  0.7546771E-02  0.1528333E+00
          2   -1    0    0  502    0  0.00000000000E+00  0.00000000000E+00  0.93978238648E+02  0.93978238648E+02  0.00000000000E+00 0.  1.
          1   -1    0    0  501    0 -0.00000000000E+00 -0.00000000000E+00 -0.63493286238E+02  0.63493286238E+02  0.00000000000E+00 0.  1.
          2    1    1    2  501    0  0.16620131630E+02  0.11791306339E+02  0.91189087246E+02  0.93438286121E+02  0.00000000000E+00 0.  1.
          1    1    1    2  502    0 -0.16620131630E+02 -0.11791306339E+02 -0.60704134835E+02  0.64033238765E+02  0.00000000000E+00 0.  1.
</event>
<event>
 4    1  0.3767413E+003  0.6270689E+02  0.7546771E-02  0.1250903E+00
          2   -1    0    0  502    0  0.00000000000E+00  0.00000000000E+00  0.54722383780E+03  0.54722383780E+03  0.00000000000E+00 0.  1.
          1   -1    0    0  501    0 -0.00000000000E+00 -0.00000000000E+00 -0.12038564500E+04  0.12038564500E+04  0.00000000000E+00 0. -1.
          2    1    1    2  501    0 -0.57748250537E+02  0.24439586684E+02  0.54460694235E+03  0.54820513997E+03  0.00000000000E+00 0.  1.
          1    1    1    2  502    0  0.57748250537E+02 -0.24439586684E+02 -0.12012395545E+04  0.12028751478E+04  0.00000000000E+00 0. -1.
</event>
<event>
 4    1  0.3767413E+003  0.2032789E+02  0.7546771E-02  0.1529081E+00
          2   -1    0    0  502    0  0.00000000000E+00  0.00000000000E+00  0.20070285993E+02  0.20070285993E+02  0.00000000000E+00 0.  1.
          1   -1    0    0  501    0 -0.00000000000E+00 -0.00000000000E+00 -0.39052319946E+03  0.39052319946E+03  0.00000000000E+00 0.  1.
          2    1    1    2  501    0 -0.40409854608E+01 -0.19922191672E+02  0.14585279190E+02  0.25019065801E+02  0.00000000000E+00 0.  1.
          1    1    1    2  502    0  0.40409854608E+01  0.19922191672E+02 -0.38503819266E+03  0.38557441965E+03  0.00000000000E+00 0.  1.
</event>
<event>
 4    1  0.3767413E+003  0.2042354E+02  0.7546771E-02  0.1527657E+00
          2   -1    0    0  502    0  0.00000000000E+00  0.00000000000E+00  0.35361256245E+03  0.35361256245E+03  0.00000000000E+00 0.  1.
          1   -1    0    0  501    0 -0.00000000000E+00 -0.00000000000E+00 -0.32925866275E+01  0.32925866275E+01  0.00000000000E+00 0.  1.
          2    1    1    2  501    0 -0.15140422740E+02 -0.13707242529E+02  0.31811609946E+03  0.31877103638E+03  0.00000000000E+00 0.  1.
          1    1    1    2  502    0  0.15140422740E+02  0.13707242529E+02  0.32203876359E+02  0.38134112695E+02  0.00000000000E+00 0.  1.
</event>
<event>
 4    1  0.3767413E+003  0.2705019E+02  0.7546771E-02  0.1447105E+00
          2   -1    0    0  502    0  0.00000000000E+00  0.00000000000E+00  0.19351831494E+01  0.19351831494E+01  0.00000000000E+00 0. -1.
          1   -1    0    0  501    0 -0.00000000000E+00 -0.00000000000E+00 -0.50055857258E+03  0.50055857258E+03  0.00000000000E+00 0.  1.
          2    1    1    2  501    0  0.21975188763E+02  0.15773517078E+02 -0.12504650732E+03  0.12793882036E+03  0.00000000000E+00 0. -1.
          1    1    1    2  502    0 -0.21975188763E+02 -0.15773517078E+02 -0.37357688212E+03  0.37455493538E+03  0.00000000000E+00 0.  1.
</event>
<event>
 4    1  0.3767413E+003  0.2142832E+02  0.7546771E-02  0.1513237E+00
          2   -1    0    0  502    0  0.00000000000E+00  0.00000000000E+00  0.51018038414E+03  0.51018038414E+03  0.00000000000E+00 0.  1.
          1   -1    0    0  501    0 -0.00000000000E+00 -0.00000000000E+00 -0.33360912284E+03  0.33360912284E+03  0.00000000000E+00 0. -1.
          2    1    1    2  501    0  0.19535277044E+02 -0.88060147412E+01  0.50961089957E+03  0.51006121388E+03  0.00000000000E+00 0.  1.
          1    1    1    2  502    0 -0.19535277044E+02  0.88060147412E+01 -0.33303963828E+03  0.33372829310E+03  0.00000000000E+00 0. -1.
</event>
<event>
 4    1  0.3767413E+003  0.3348559E+02  0.7546771E-02  0.1391534E+00
          2   -1    0    0  502    0  0.00000000000E+00  0.00000000000E+00  0.56685205034E+02  0.56685205034E+02  0.00000000000E+00 0. -1.
          1   -1    0    0  501    0 -0.00000000000E+00 -0.00000000000E+00 -0.74315093021E+02  0.74315093021E+02  0.00000000000E+00 0.  1.
          2    1    1    2  501    0  0.61722224754E+01  0.32911830401E+02  0.47294786527E+02  0.57948958086E+02  0.00000000000E+00 0. -1.
          1    1    1    2  502    0 -0.61722224754E+01 -0.32911830401E+02 -0.64924674513E+02  0.73051339969E+02  0.00000000000E+00 0.  1.
</event>
<event>
 4    1  0.3767413E+003  0.3498851E+02  0.7546771E-02  0.1380644E+00
          2   -1    0    0  502    0  0.00000000000E+00  0.00000000000E+00  0.14257922909E+04  0.14257922909E+04  0.00000000000E+00 0.  1.
          1   -1    0    0  501    0 -0.00000000000E+00 -0.00000000000E+00 -0.53217643119E+02  0.53217643119E+02  0.00000000000E+00 0. -1.
          2    1    1    2  501    0  0.18908086294E+02  0.29439430672E+02  0.14198024885E+04  0.14202335379E+04  0.00000000000E+00 0.  1.
          1    1    1    2  502    0 -0.18908086294E+02 -0.29439430672E+02 -0.47227840704E+02  0.58776396140E+02  0.00000000000E+00 0. -1.
</event>
<event>
 4    1  0.3767413E+003  0.2566048E+02  0.7546771E-02  0.1461548E+00
          2   -1    0    0  502    0  0.00000000000E+00  0.00000000000E+00  0.29082340715E+02  0.29082340715E+02  0.00000000000E+00 0.  1.
          1   -1    0    0  501    0 -0.00000000000E+00 -0.00000000000E+00 -0.41930211865E+02  0.41930211865E+02  0.00000000000E+00 0.  1.
          2    1    1    2  501    0  0.22006664506E+02  0.13197234356E+02  0.17658262898E+02  0.31149229941E+02  0.00000000000E+00 0.  1.
          1    1    1    2  502    0 -0.22006664506E+02 -0.13197234356E+02 -0.30506134048E+02  0.39863322639E+02  0.00000000000E+00 0.  1.
</event>
<event>
 4    1  0.3767413E+003  0.3454240E+02  0.7546771E-02  0.1383809E+00
          2   -1    0    0  502    0  0.00000000000E+00  0.00000000000E+00  0.45891970325E+01  0.45891970325E+01  0.00000000000E+00 0. -1.
          1   -1    0    0  501    0 -0.00000000000E+00 -0.00000000000E+00 -0.85122667740E+03  0.85122667740E+03  0.00000000000E+00 0. -1.
          2    1    1    2  501    0 -0.46958496864E+01 -0.34221719952E+02 -0.66698597527E+02  0.75112449253E+02  0.00000000000E+00 0. -1.
          1    1    1    2  502    0  0.46958496864E+01  0.34221719952E+02 -0.77993888284E+03  0.78070342518E+03  0.00000000000E+00 0. -1.
</event>
<event>
 4    1  0.3767413E+003  0.2969373E+02  0.7546771E-02  0.1422277E+00
          2   -1    0    0  502    0  0.00000000000E+00  0.00000000000E+00  0.97024068744E+03  0.97024068744E+03  0.00000000000E+00 0. -1.
          1   -1    0    0  501    0 -0.00000000000E+00 -0.00000000000E+00 -0.89776442829E+02  0.89776442829E+02  0.00000000000E+00 0. -1.
          2    1    1    2  501    0  0.27367701906E+02  0.11520694034E+02  0.96755135985E+03  0.96800689638E+03  0.00000000000E+00 0. -1.
          1    1    1    2  502    0 -0.27367701906E+02 -0.11520694034E+02 -0.87087115240E+02  0.92010233884E+02  0.00000000000E+00 0. -1.
</event>
<event>
 4    1  0.3767413E+003  0.2503971E+02  0.7546771E-02  0.1468360E+00
          2   -1    0    0  502    0  0.00000000000E+00  0.00000000000E+00  0.78772531058E+01  0.78772531058E+01  0.00000000000E+00 0.  1.
          1   -1    0    0  501    0 -0.00000000000E+00 -0.00000000000E+00 -0.38002023384E+03  0.38002023384E+03  0.00000000000E+00 0. -1.
          2    1    1    2  501    0  0.24344952884E+02 -0.58574836769E+01 -0.13625897536E+02  0.28507050524E+02  0.00000000000E+00 0.  1.
          1    1    1    2  502    0 -0.24344952884E+02  0.58574836769E+01 -0.35851708320E+03  0.35939043642E+03  0.00000000000E+00 0. -1.
</event>
<event>
 4    1  0.3767413E+003  0.3224277E+02  0.7546771E-02  0.1401058E+00
          2   -1    0    0  502    0  0.00000000000E+00  0.00000000000E+00  0.27837984348E+03  0.27837984348E+03  0.00000000000E+00 0. -1.
          1   -1    0    0  501    0 -0.00000000000E+00 -0.00000000000E+00 -0.53973576176E+02  0.53973576176E+02  0.00000000000E+00 0.  1.
          2    1    1    2  501    0 -0.31305368399E+02  0.77181733568E+01  0.27252788929E+03  0.27442858221E+03  0.00000000000E+00 0. -1.
          1    1    1    2  502    0  0.31305368399E+02 -0.77181733568E+01 -0.48121621989E+02  0.57924837448E+02  0.00000000000E+00 0.  1.
</event>
<event>
 4    1  0.3767413E+003  0.2326147E+02  0.7546771E-02  0.1489241E+00
          2   -1    0    0  502    0  0.00000000000E+00  0.00000000000E+00  0.85956271895E+01  0.85956271895E+01  0.00000000000E+00 0. -1.
          1   -1    0    0  501    0 -0.00000000000E+00 -0.00000000000E+00 -0.12734500830E+03  0.12734500830E+03  0.00000000000E+00 0. -1.
          2    1    1    2  501    0  0.22248936856E+02 -0.67882727524E+01 -0.11040549546E+02  0.25748583892E+02  0.00000000000E+00 0. -1.
          1    1    1    2  502    0 -0.22248936856E+02  0.67882727524E+01 -0.10770883157E+03  0.11019205160E+03  0.00000000000E+00 0. -1.
</event>
<event>
 4    1  0.3767413E+003  0.2247244E+02  0.7546771E-02  0.1499231E+00
          2   -1    0    0  502    0  0.00000000000E+00  0.00000000000E+00  0.11620971263E+04  0.11620971263E+04  0.00000000000E+00 0.  1.
          1   -1    0    0  501    0 -0.00000000000E+00 -0.00000000000E+00 -0.11725200924E+02  0.11725200924E+02  0.00000000000E+00 0. -1.
          2    1    1    2  501    0 -0.21280546854E+02  0.72214278218E+01  0.11511181619E+04  0.11513374976E+04  0.00000000000E+00 0.  1.
          1    1    1    2  502    0  0.21280546854E+02 -0.72214278218E+01 -0.74623653784E+00  0.22484829623E+02  0.00000000000E+00 0. -1.
</event>
<event>
 4    1  0.3767413E+003  0.2329952E+02  0.7546771E-02  0.1488771E+00
          2   -1    0    0  502    0  0.00000000000E+00  0.00000000000E+00  0.60027545797E+03  0.60027545797E+03  0.00000000000E+00 0. -1.
          1   -1    0    0  501    0 -0.00000000000E+00 -0.00000000000E+00 -0.26103465113E+03  0.26103465113E+03  0.00000000000E+00 0.  1.
          2    1    1    2  501    0  0.23132333882E+02 -0.27861930542E+01  0.59952880038E+03  0.59998137490E+03  0.00000000000E+00 0. -1.
          1    1    1    2  502    0 -0.23132333882E+02  0.27861930542E+01 -0.26028799354E+03  0.26132873421E+03  0.00000000000E+00 0.  1.
</event>
<event>
 4    1  0.3767413E+003  0.2910368E+02  0.7546771E-02  0.1427549E+00
          2   -1    0    0  502    0  0.00000000000E+00  0.00000000000E+00  0.64432746524E+02  0.64432746524E+02  0.00000000000E+00 0. -1.
          1   -1    0    0  501    0 -0.00000000000E+00 -0.00000000000E+00 -0.33444305772E+02  0.33444305772E+02  0.00000000000E+00 0. -1.
          2    1    1    2  501    0  0.26673064227E+02  0.11643523263E+02  0.53620213518E+02  0.61009436048E+02  0.00000000000E+00 0. -1.
          1    1    1    2  502    0 -0.26673064227E+02 -0.11643523263E+02 -0.22631772766E+02  0.36867616247E+02  0.00000000000E+00 0. -1.
</event>
<event>
 4    1  0.3767413E+003  0.2177736E+02  0.7546771E-02  0.1508449E+00
          2   -1    0    0  502    0  0.00000000000E+00  0.00000000000E+00  0.29699632910E+01  0.29699632910E+01  0.00000000000E+00 0.  1.
          1   -1    0    0  501    0 -0.00000000000E+00 -0.00000000000E+00 -0.75128397618E+03  0.75128397618E+03  0.00000000000E+00 0. -1.
          2    1    1    2  501    0 -0.21775723908E+02  0.26683860090E+00 -0.39500030633E+02  0.45105496057E+02  0.00000000000E+00 0.  1.
          1    1    1    2  502    0  0.21775723908E+02 -0.26683860090E+00 -0.70881398226E+03  0.70914844342E+03  0.00000000000E+00 0. -1.
</event>
<event>
 4    1  0.3767413E+003  0.2557568E+02  0.7546771E-02  0.1462465E+00
          2   -1    0    0  502    0  0.00000000000E+00  0.00000000000E+00  0.33035838755E+02  0.33035838755E+02  0.00000000000E+00 0.  1.
          1   -1    0    0  501    0 -0.00000000000E+00 -0.00000000000E+00 -0.68944115279E+03  0.68944115279E+03  0.00000000000E+00 0.  1.
          2    1    1    2  501    0 -0.17407065805E+02 -0.18737916105E+02  0.27810816303E+02  0.37783024539E+02  0.00000000000E+00 0.  1.
          1    1    1    2  502    0  0.17407065805E+02  0.18737916105E+02 -0.68421613034E+03  0.68469396701E+03  0.00000000000E+00 0.  1.
</event>
<event>
 4    1  0.3767413E+003  0.3525283E+02  0.7546771E-02  0.1378794E+00
          2   -1    0    0  502    0  0.00000000000E+00  0.00000000000E+00  0.26525735453E+03  0.26525735453E+03  0.00000000000E+00 0.  1.
          1   -1    0    0  501    0 -0.00000000000E+00 -0.00000000000E+00 -0.68186878455E+03  0.68186878455E+03  0.00000000000E+00 0.  1.
          2    1    1    2  501    0 -0.35238353977E+02  0.10100590791E+01  0.26362762541E+03  0.26597422185E+03  0.00000000000E+00 0.  1.
          1    1    1    2  502    0  0.35238353977E+02 -0.10100590791E+01 -0.68023905543E+03  0.68115191723E+03  0.00000000000E+00 0.  1.
</event>
<event>
 4    1  0.3767413E+003  0.2035240E+02  0.7546771E-02  0.1528715E+00
          2   -1    0    0  502    0  0.00000000000E+00  0.00000000000E+00  0.10543241963E+02  0.10543241963E+02  0.00000000000E+00 0.  1.
          1   -1    0    0  501    0 -0.00000000000E+00 -0.00000000000E+00 -0.17684805516E+03  0.17684805516E+03  0.00000000000E+00 0.  1.
          2    1    1    2  501    0 -0.16669946034E+02  0.11676177233E+02 -0.51706080288E+00  0.20358967740E+02  0.00000000000E+00 0.  1.
          1    1    1    2  502    0  0.16669946034E+02 -0.11676177233E+02 -0.16578775239E+03  0.16703232938E+03  0.00000000000E+00 0.  1.
</event>
<event>
 4    1  0.3767413E+003  0.2205217E+02  0.7546771E-02  0.1504756E+00
          2   -1    0    0  502    0  0.00000000000E+00  0.00000000000E+00  0.27634445712E+02  0.27634445712E+02  0.00000000000E+00 0.  1.
          1   -1    0    0  501    0 -0.00000000000E+00 -0.00000000000E+00 -0.19810525045E+03  0.19810525045E+03  0.00000000000E+00 0. -1.
          2    1    1    2  501    0  0.21758104165E+02 -0.35893205675E+01  0.22504809183E+02  0.31508169661E+02  0.00000000000E+00 0.  1.
          1    1    1    2  502    0 -0.21758104165E+02  0.35893205675E+01 -0.19297561392E+03  0.19423152650E+03  0.00000000000E+00 0. -1.
</event>
<event>
 4    1  0.3767413E+003  0.5912496E+02  0.7546771E-02  0.1262835E+00
          2   -1    0    0  502    0  0.00000000000E+00  0.00000000000E+00  0.20457071152E+03  0.20457071152E+03  0.00000000000E+00 0.  1.
          1   -1    0    0  501    0 -0.00000000000E+00 -0.00000000000E+00 -0.12586951158E+03  0.12586951158E+03  0.00000000000E+00 0.  1.
          2    1    1    2  501    0  0.47405518571E+02  0.35333809224E+02  0.19294650120E+03  0.20180216448E+03  0.00000000000E+00 0.  1.
          1    1    1    2  502    0 -0.47405518571E+02 -0.35333809224E+02 -0.11424530126E+03  0.12863805862E+03  0.00000000000E+00 0.  1.
</event>
<event>
 4    1  0.3767413E+003  0.2515846E+02  0.7546771E-02  0.1467038E+00
          2   -1    0    0  502    0  0.00000000000E+00  0.00000000000E+00  0.56004190509E+03  0.56004190509E+03  0.00000000000E+00 0.  1.
          1   -1    0    0  501    0 -0.00000000000E+00 -0.00000000000E+00 -0.39645433178E+01  0.39645433178E+01  0.00000000000E+00 0.  1.
          2    1    1    2  501    0 -0.25131774284E+02 -0.11583747580E+01  0.51648206862E+03  0.51709445473E+03  0.00000000000E+00 0.  1.
          1    1    1    2  502    0  0.25131774284E+02  0.11583747580E+01  0.39595293159E+02  0.46911993680E+02  0.00000000000E+00 0.  1.
</event>
<event>
 4    1  0.3767413E+003  0.2218656E+02  0.7546771E-02  0.1502973E+00
          2   -1    0    0  502    0  0.00000000000E+00  0.00000000000E+00  0.93327952624E+02  0.93327952624E+02  0.00000000000E+00 0. -1.
          1   -1    0    0  501    0 -0.00000000000E+00 -0.00000000000E+00 -0.16427596356E+03  0.16427596356E+03  0.00000000000E+00 0. -1.
          2    1    1    2  501    0 -0.22008531150E+02 -0.28050184974E+01  0.91243387697E+02  0.93902073303E+02  0.00000000000E+00 0. -1.
          1    1    1    2  502    0  0.22008531150E+02  0.28050184974E+01 -0.16219139863E+03  0.16370184288E+03  0.00000000000E+00 0. -1.
</event>
<event>
 4    1  0.3767413E+003  0.2678506E+02  0.7546771E-02  0.1449779E+00
          2   -1    0    0  502    0  0.00000000000E+00  0.00000000000E+00  0.14349330242E+04  0.14349330242E+04  0.00000000000E+00 0. -1.
          1   -1    0    0  501    0 -0.00000000000E+00 -0.00000000000E+00 -0.28989747031E+03  0.28989747031E+03  0.00000000000E+00 0.  1.
          2    1    1    2  501    0  0.17185845667E+02  0.20544728867E+02  0.14341890073E+04  0.14344391056E+04  0.00000000000E+00 0. -1.
          1    1    1    2  502    0 -0.17185845667E+02 -0.20544728867E+02 -0.28915345335E+03  0.29039138892E+03  0.00000000000E+00 0.  1.
</event>
<event>
 4    1  0.3767413E+003  0.2686339E+02  0.7546771E-02  0.1448985E+00
          2   -1    0    0  502    0  0.00000000000E+00  0.00000000000E+00  0.26890352024E+02  0.26890352024E+02  0.00000000000E+00 0. -1.
          1   -1    0    0  501    0 -0.00000000000E+00 -0.00000000000E+00 -0.27165701827E+02  0.27165701827E+02  0.00000000000E+00 0. -1.
          2    1    1    2  501    0 -0.18174061535E+01  0.26801844632E+02  0.28378374919E+01  0.27012870311E+02  0.00000000000E+00 0. -1.
          1    1    1    2  502    0  0.18174061535E+01 -0.26801844632E+02 -0.31131872954E+01  0.27043183540E+02  0.00000000000E+00 0. -1.
</event>
<event>
 4    1  0.3767413E+003  0.2026498E+02  0.7546771E-02  0.1530023E+00
          2   -1    0    0  502    0  0.00000000000E+00  0.00000000000E+00  0.34529205370E+01  0.34529205370E+01  0.00000000000E+00 0. -1.
          1   -1    0    0  501    0 -0.00000000000E+00 -0.00000000000E+00 -0.19556399282E+03  0.19556399282E+03  0.00000000000E+00 0.  1.
          2    1    1    2  501    0  0.59053846540E+00  0.20256368956E+02 -0.33765972299E+02  0.39380326360E+02  0.00000000000E+00 0. -1.
          1    1    1    2  502    0 -0.59053846540E+00 -0.20256368956E+02 -0.15834509998E+03  0.15963658700E+03  0.00000000000E+00 0.  1.
</event>
<event>
 4    1  0.3767413E+003  0.2093860E+02  0.7546771E-02  0.1520143E+00
          2   -1    0    0  502    0  0.00000000000E+00  0.00000000000E+00  0.98203371315E+03  0.98203371315E+03  0.00000000000E+00 0.  1.
          1   -1    0    0  501    0 -0.00000000000E+00 -0.00000000000E+00 -0.70879150927E+00  0.70879150927E+00  0.00000000000E+00 0.  1.
          2    1    1    2  501    0 -0.10211796171E+02 -0.18279608002E+02  0.78960481801E+03  0.78988239218E+03  0.00000000000E+00 0.  1.
          1    1    1    2  502    0  0.10211796171E+02  0.18279608002E+02  0.19172010363E+03  0.19286011248E+03  0.00000000000E+00 0.  1.
</event>
<event>
 4    1  0.3767413E+003  0.3977588E+02  0.7546771E-02  0.1349804E+00
          2   -1    0    0  502    0  0.00000000000E+00  0.00000000000E+00  0.11726712307E+02  0.11726712307E+02  0.00000000000E+00 0. -1.
          1   -1    0    0  501    0 -0.00000000000E+00 -0.00000000000E+00 -0.13767660432E+03  0.13767660432E+03  0.00000000000E+00 0. -1.
          2    1    1    2  501    0  0.38401262854E+02  0.10366399042E+02 -0.73553224464E+02  0.83619352108E+02  0.00000000000E+00 0. -1.
          1    1    1    2  502    0 -0.38401262854E+02 -0.10366399042E+02 -0.52396667553E+02  0.65783964524E+02  0.00000000000E+00 0. -1.
</event>
<event>
 4    1  0.3767413E+003  0.3481654E+02  0.7546771E-02  0.1381858E+00
          2   -1    0    0  502    0  0.00000000000E+00  0.00000000000E+00  0.21227979473E+03  0.21227979473E+03  0.00000000000E+00 0.  1.
          1   -1    0    0  501    0 -0.00000000000E+00 -0.00000000000E+00 -0.47151398417E+02  0.47151398417E+02  0.00000000000E+00 0. -1.
          2    1    1    2  501    0 -0.34805663702E+02 -0.87030518574E+00  0.20417167628E+03  0.20711896352E+03  0.00000000000E+00 0.  1.
          1    1    1    2  502    0  0.34805663702E+02  0.87030518574E+00 -0.39043279969E+02  0.52312229618E+02  0.00000000000E+00 0. -1.
</event>
<event>
 4    1  0.3767413E+003  0.2783142E+02  0.7546771E-02  0.1439430E+00
          2   -1    0    0  502    0  0.00000000000E+00  0.00000000000E+00  0.13977673010E+02  0.13977673010E+02  0.00000000000E+00 0. -1.
          1   -1    0    0  501    0 -0.00000000000E+00 -0.00000000000E+00 -0.29959695942E+03  0.29959695942E+03  0.00000000000E+00 0. -1.
          2    1    1    2  501    0  0.19050453754E+02  0.20289613409E+02 -0.12635034891E+01  0.27860090481E+02  0.00000000000E+00 0. -1.
          1    1    1    2  502    0 -0.19050453754E+02 -0.20289613409E+02 -0.28435578292E+03  0.28571454195E+03  0.00000000000E+00 0. -1.
</event>
<event>
 4    1  0.3767413E+003  0.2562420E+02  0.7546771E-02  0.1461940E+00
          2   -1    0    0  502    0  0.00000000000E+00  0.00000000000E+00  0.26675515079E+02  0.26675515079E+02  0.00000000000E+00 0.  1.
          1   -1    0    0  501    0 -0.00000000000E+00 -0.00000000000E+00 -0.24763431335E+02  0.24763431335E+02  0.00000000000E+00 0. -1.
          2    1    1    2  501    0  0.78052774157E+01  0.24406498990E+02  0.29518478082E+01  0.25793661120E+02  0.00000000000E+00 0.  1.
          1    1    1    2  502    0 -0.78052774157E+01 -0.24406498990E+02 -0.10397640638E+01  0.25645285294E+02  0.00000000000E+00 0. -1.
</event>
<event>
 4    1  0.3767413E+003  0.2029187E+02  0.7546771E-02  0.1529620E+00
          2   -1    0    0  502    0  0.00000000000E+00  0.00000000000E+00  0.18307119111E+02  0.18307119111E+02  0.00000000000E+00 0.  1.
          1   -1    0    0  501    0 -0.00000000000E+00 -0.00000000000E+00 -0.46489990786E+03  0.46489990786E+03  0.00000000000E+00 0.  1.
          2    1    1    2  501    0  0.19563426727E+02  0.53881580313E+01  0.12390296274E+02  0.23775604178E+02  0.00000000000E+00 0.  1.
          1    1    1    2  502    0 -0.19563426727E+02 -0.53881580313E+01 -0.45898308503E+03  0.45943142279E+03  0.00000000000E+00 0.  1.
</event>
<event>
 4    1  0.3767413E+003  0.2285875E+02  0.7546771E-02  0.1494279E+00
          2   -1    0    0  502    0  0.00000000000E+00  0.00000000000E+00  0.10235174144E+03  0.10235174144E+03  0.00000000000E+00 0. -1.
          1   -1    0    0  501    0 -0.00000000000E+00 -0.00000000000E+00 -0.51227994465E+01  0.51227994465E+01  0.00000000000E+00 0. -1.
          2    1    1    2  501    0  0.22836054944E+02 -0.10181638434E+01  0.45461218207E+02  0.50884618736E+02  0.00000000000E+00 0. -1.
          1    1    1    2  502    0 -0.22836054944E+02  0.10181638434E+01  0.51767723789E+02  0.56589922154E+02  0.00000000000E+00 0. -1.
</event>
<event>
 4    1  0.3767413E+003  0.2107515E+02  0.7546771E-02  0.1518194E+00
          2   -1    0    0  502    0  0.00000000000E+00  0.00000000000E+00  0.41869716738E+02  0.41869716738E+02  0.00000000000E+00 0. -1.
          1   -1    0    0  501    0 -0.00000000000E+00 -0.00000000000E+00 -0.11958016791E+04  0.11958016791E+04  0.00000000000E+00 0. -1.
          2    1    1    2  501    0  0.15140648300E+01 -0.21020696463E+02  0.39118694825E+02  0.44434607649E+02  0.00000000000E+00 0. -1.
          1    1    1    2  502    0 -0.15140648300E+01  0.21020696463E+02 -0.11930506572E+04  0.11932367882E+04  0.00000000000E+00 0. -1.
</event>
<event>
 4    1  0.3767413E+003  0.2713539E+02  0.7546771E-02  0.1446253E+00
          2   -1    0    0  502    0  0.00000000000E+00  0.00000000000E+00  0.70706108821E+01  0.70706108821E+01  0.00000000000E+00 0. -1.
          1   -1    0    0  501    0 -0.00000000000E+00 -0.00000000000E+00 -0.56184804894E+03  0.56184804894E+03  0.00000000000E+00 0.  1.
          2    1    1    2  501    0 -0.21546807217E+02 -0.16494375122E+02 -0.20641768271E+02  0.34094162393E+02  0.00000000000E+00 0. -1.
          1    1    1    2  502    0  0.21546807217E+02  0.16494375122E+02 -0.53413566979E+03  0.53482449743E+03  0.00000000000E+00 0.  1.
</event>
<event>
 4    1  0.3767413E+003  0.2077196E+02  0.7546771E-02  0.1522546E+00
          2   -1    0    0  502    0  0.00000000000E+00  0.00000000000E+00  0.17752961638E+03  0.17752961638E+03  0.00000000000E+00 0. -1.
          1   -1    0    0  501    0 -0.00000000000E+00 -0.00000000000E+00 -0.72369022176E+01  0.72369022176E+01  0.00000000000E+00 0.  1.
          2    1    1    2  501    0 -0.14134469063E+02  0.15221400800E+02  0.16043507534E+03  0.16177418724E+03  0.00000000000E+00 0. -1.
          1    1    1    2  502    0  0.14134469063E+02 -0.15221400800E+02  0.98576388194E+01  0.22992331354E+02  0.00000000000E+00 0.  1.
</event>
<event>
 4    1  0.3767413E+003  0.2708528E+02  0.7546771E-02  0.1446753E+00
          2   -1    0    0  502    0  0.00000000000E+00  0.00000000000E+00  0.22405460040E+03  0.22405460040E+03  0.00000000000E+00 0. -1.
          1   -1    0    0  501    0 -0.00000000000E+00 -0.00000000000E+00 -0.41690077809E+02  0.41690077809E+02  0.00000000000E+00 0.  1.
          2    1    1    2  501    0  0.14287240913E+02 -0.23010587894E+02  0.21873015303E+03  0.22040075374E+03  0.00000000000E+00 0. -1.
          1    1    1    2  502    0 -0.14287240913E+02  0.23010587894E+02 -0.36365630440E+02  0.45343924460E+02  0.00000000000E+00 0.  1.
</event>
<event>
 4    1  0.3767413E+003  0.2149170E+02  0.7546771E-02  0.1512359E+00
          2   -1    0    0  502    0  0.00000000000E+00  0.00000000000E+00  0.97489019904E+03  0.97489019904E+03  0.00000000000E+00 0. -1.
          1   -1    0    0  501    0 -0.00000000000E+00 -0.00000000000E+00 -0.29075396734E+01  0.29075396734E+01  0.00000000000E+00 0. -1.
          2    1    1    2  501    0 -0.47688597913E+00  0.21486408346E+02  0.93328645700E+03  0.93353387940E+03  0.00000000000E+00 0. -1.
          1    1    1    2  502    0  0.47688597913E+00 -0.21486408346E+02  0.38696202362E+02  0.44263859311E+02  0.00000000000E+00 0. -1.
</event>
<event>
 4    1  0.3767413E+003  0.2019376E+02  0.7546771E-02  0.1531094E+00
          2   -1    0    0  502    0  0.00000000000E+00  0.00000000000E+00  0.22724292886E+03  0.22724292886E+03  0.00000000000E+00 0.  1.
          1   -1    0    0  501    0 -0.00000000000E+00 -0.00000000000E+00 -0.55003985422E+03  0.55003985422E+03  0.00000000000E+00 0.  1.
          2    1    1    2  501    0 -0.17881532686E+02 -0.93829024217E+01  0.22660844045E+03  0.22750642486E+03  0.00000000000E+00 0.  1.
          1    1    1    2  502    0  0.17881532686E+02  0.93829024217E+01 -0.54940536581E+03  0.54977635821E+03  0.00000000000E+00 0.  1.
</event>
<event>
 4    1  0.3767413E+003  0.2656656E+02  0.7546771E-02  0.1452011E+00
          2   -1    0    0  502    0  0.00000000000E+00  0.00000000000E+00  0.38812375763E+03  0.38812375763E+03  0.00000000000E+00 0. -1.
          1   -1    0    0  501    0 -0.00000000000E+00 -0.00000000000E+00 -0.45066902373E+01  0.45066902373E+01  0.00000000000E+00 0.  1.
          2    1    1    2  501    0  0.15252299994E+02  0.21751995144E+02  0.34342958998E+03  0.34445560704E+03  0.00000000000E+00 0. -1.
          1    1    1    2  502    0 -0.15252299994E+02 -0.21751995144E+02  0.40187477411E+02  0.48174840825E+02  0.00000000000E+00 0.  1.
</event>
<event>
 4    1  0.3767413E+003  0.2697214E+02  0.7546771E-02  0.1447888E+00
          2   -1    0    0  502    0  0.00000000000E+00  0.00000000000E+00  0.48013628208E+01  0.48013628208E+01  0.00000000000E+00 0. -1.
          1   -1    0    0  501    0 -0.00000000000E+00 -0.00000000000E+00 -0.58822761288E+03  0.58822761288E+03  0.00000000000E+00 0.  1.
          2    1    1    2  501    0  0.13655109310E+02 -0.23260142662E+02 -0.36225868541E+02  0.45164253547E+02  0.00000000000E+00 0. -1.
          1    1    1    2  502    0 -0.13655109310E+02  0.23260142662E+02 -0.54720038151E+03  0.54786472215E+03  0.00000000000E+00 0.  1.
</event>
<event>
 4    1  0.3767413E+003  0.2006498E+02  0.7546771E-02  0.1533045E+00
          2   -1    0    0  502    0  0.00000000000E+00  0.00000000000E+00  0.11848561816E+03  0.11848561816E+03  0.00000000000E+00 0. -1.
          1   -1    0    0  501    0 -0.00000000000E+00 -0.00000000000E+00 -0.76315240868E+01  0.76315240868E+01  0.00000000000E+00 0. -1.
          2    1    1    2  501    0 -0.14092919483E+01  0.20015431392E+02  0.10239418141E+03  0.10434161195E+03  0.00000000000E+00 0. -1.
          1    1    1    2  502    0  0.14092919483E+01 -0.20015431392E+02  0.84599126685E+01  0.21775530302E+02  0.00000000000E+00 0. -1.
</event>
<event>
 4    1  0.3767413E+003  0.2062337E+02  0.7546771E-02  0.1524711E+00
          2   -1    0    0  502    0  0.00000000000E+00  0.00000000000E+00  0.17613876857E+02  0.17613876857E+02  0.00000000000E+00 0.  1.
          1   -1    0    0  501    0 -0.00000000000E+00 -0.00000000000E+00 -0.52688795856E+03  0.52688795856E+03  0.00000000000E+00 0.  1.
          2    1    1    2  501    0  0.18008703873E+02  0.10050368273E+02  0.11302138816E+02  0.23517263009E+02  0.00000000000E+00 0.  1.
          1    1    1    2  502    0 -0.18008703873E+02 -0.10050368273E+02 -0.52057622052E+03  0.52098457241E+03  0.00000000000E+00 0.  1.
</event>
<event>
 4    1  0.3767413E+003  0.2494006E+02  0.7546771E-02  0.1469475E+00
          2   -1    0    0  502    0  0.00000000000E+00  0.00000000000E+00  0.50222346144E+03  0.50222346144E+03  0.00000000000E+00 0.  1.
          1   -1    0    0  501    0 -0.00000000000E+00 -0.00000000000E+00 -0.21940639197E+02  0.21940639197E+02  0.00000000000E+00 0.  1.
          2    1    1    2  501    0  0.24472141500E+02  0.48084129576E+01  0.49471901455E+03  0.49534726193E+03  0.00000000000E+00 0.  1.
          1    1    1    2  502    0 -0.24472141500E+02 -0.48084129576E+01 -0.14436192306E+02  0.28816838707E+02  0.00000000000E+00 0.  1.
</event>
<event>
 4    1  0.3767413E+003  0.4122010E+02  0.7546771E-02  0.1341481E+00
          2   -1    0    0  502    0  0.00000000000E+00  0.00000000000E+00  0.34934226178E+03  0.34934226178E+03  0.00000000000E+00 0. -1.
          1   -1    0    0  501    0 -0.00000000000E+00 -0.00000000000E+00 -0.47754905866E+03  0.47754905866E+03  0.00000000000E+00 0.  1.
          2    1    1    2  501    0  0.40796669081E+02  0.58930986812E+01  0.34723145982E+03  0.34966953472E+03  0.00000000000E+00 0. -1.
          1    1    1    2  502    0 -0.40796669081E+02 -0.58930986812E+01 -0.47543825670E+03  0.47722178571E+03  0.00000000000E+00 0.  1.
</event>
<event>
 4    1  0.3767413E+003  0.2551556E+02  0.7546771E-02  0.1463118E+00
          2   -1    0    0  502    0  0.00000000000E+00  0.00000000000E+00  0.18605553978E+04  0.18605553978E+04  0.00000000000E+00 0.  1.
          1   -1    0    0  501    0 -0.00000000000E+00 -0.00000000000E+00 -0.31512851308E+01  0.31512851308E+01  0.00000000000E+00 0.  1.
          2    1    1    2  501    0  0.24032745114E+02 -0.85715080484E+01  0.18072969150E+04  0.18074770213E+04  0.00000000000E+00 0.  1.
          1    1    1    2  502    0 -0.24032745114E+02  0.85715080484E+01  0.50107197670E+02  0.56229661623E+02  0.00000000000E+00 0.  1.
</event>
<event>
 4    1  0.3767413E+003  0.2628862E+02  0.7546771E-02  0.1454888E+00
          2   -1    0    0  502    0  0.00000000000E+00  0.00000000000E+00  0.17164672987E+04  0.17164672987E+04  0.00000000000E+00 0.  1.
          1   -1    0    0  501    0 -0.00000000000E+00 -0.00000000000E+00 -0.46538313093E+00  0.46538313093E+00  0.00000000000E+00 0.  1.
          2    1    1    2  501    0 -0.23903557218E+02 -0.10941278484E+02  0.11732509011E+04  0.11735453841E+04  0.00000000000E+00 0.  1.
          1    1    1    2  502    0  0.23903557218E+02  0.10941278484E+02  0.54275101449E+03  0.54338729775E+03  0.00000000000E+00 0.  1.
</event>
<event>
 4    1  0.3767413E+003  0.2649851E+02  0.7546771E-02  0.1452712E+00
          2   -1    0    0  502    0  0.00000000000E+00  0.00000000000E+00  0.93311066733E+03  0.93311066733E+03  0.00000000000E+00 0.  1.
          1   -1    0    0  501    0 -0.00000000000E+00 -0.00000000000E+00 -0.85132517556E+00  0.85132517556E+00  0.00000000000E+00 0.  1.
          2    1    1    2  501    0 -0.25996772504E+02 -0.51321622913E+01  0.62523045902E+03  0.62579173705E+03  0.00000000000E+00 0.  1.
          1    1    1    2  502    0  0.25996772504E+02  0.51321622913E+01  0.30702888314E+03  0.30817025546E+03  0.00000000000E+00 0.  1.
</event>
<event>
 4    1  0.3767413E+003  0.4158470E+02  0.7546771E-02  0.1339442E+00
          2   -1    0    0  502    0  0.00000000000E+00  0.00000000000E+00  0.21040401369E+04  0.21040401369E+04  0.00000000000E+00 0. -1.
          1   -1    0    0  501    0 -0.00000000000E+00 -0.00000000000E+00 -0.35549957308E+01  0.35549957308E+01  0.00000000000E+00 0. -1.
          2    1    1    2  501    0  0.21758876288E+02 -0.35437809226E+02  0.19742297842E+04  0.19746677006E+04  0.00000000000E+00 0. -1.
          1    1    1    2  502    0 -0.21758876288E+02  0.35437809226E+02  0.12625535701E+03  0.13292743206E+03  0.00000000000E+00 0. -1.
</event>
<event>
 4    1  0.3767413E+003  0.2308484E+02  0.7546771E-02  0.1491436E+00
          2   -1    0    0  502    0  0.00000000000E+00  0.00000000000E+00  0.14487723539E+04  0.14487723539E+04  0.00000000000E+00 0.  1.
          1   -1    0    0  501    0 -0.00000000000E+00 -0.00000000000E+00 -0.24165985438E+01  0.24165985438E+01  0.00000000000E+00 0.  1.
          2    1    1    2  501    0  0.53698799906E+01  0.22451593356E+02  0.13912719171E+04  0.13914634228E+04  0.00000000000E+00 0.  1.
          1    1    1    2  502    0 -0.53698799906E+01 -0.22451593356E+02  0.55083838268E+02  0.59725529664E+02  0.00000000000E+00 0.  1.
</event>
<event>
 4    1  0.3767413E+003  0.2110383E+02  0.7546771E-02  0.1517788E+00
          2   -1    0    0  502    0  0.00000000000E+00  0.00000000000E+00  0.39185341848E+01  0.39185341848E+01  0.00000000000E+00 0. -1.
          1   -1    0    0  501    0 -0.00000000000E+00 -0.00000000000E+00 -0.10001645876E+04  0.10001645876E+04  0.00000000000E+00 0.  1.
          2    1    1    2  501    0  0.63585544608E+01 -0.20123129096E+02 -0.25467223857E+02  0.33074930543E+02  0.00000000000E+00 0. -1.
          1    1    1    2  502    0 -0.63585544608E+01  0.20123129096E+02 -0.97077882951E+03  0.97100819120E+03  0.00000000000E+00 0.  1.
</event>
<event>
 4    1  0.3767413E+003  0.2336280E+02  0.7546771E-02  0.1487992E+00
          2   -1    0    0  502    0  0.00000000000E+00  0.00000000000E+00  0.45659839100E+03  0.45659839100E+03  0.00000000000E+00 0.  1.
          1   -1    0    0  501    0 -0.00000000000E+00 -0.00000000000E+00 -0.31539228529E+01  0.31539228529E+01  0.00000000000E+00 0. -1.
          2    1    1    2  501    0  0.57881577765E+01 -0.22634436109E+02  0.40786961051E+03  0.40853817403E+03  0.00000000000E+00 0.  1.
          1    1    1    2  502    0 -0.57881577765E+01  0.22634436109E+02  0.45574857640E+02  0.51214139818E+02  0.00000000000E+00 0. -1.
</event>
<event>
 4    1  0.3767413E+003  0.2257204E+02  0.7546771E-02  0.1497943E+00
          2   -1    0    0  502    0  0.00000000000E+00  0.00000000000E+00  0.36233888223E+03  0.36233888223E+03  0.00000000000E+00 0.  1.
          1   -1    0    0  501    0 -0.00000000000E+00 -0.00000000000E+00 -0.67104615719E+01  0.67104615719E+01  0.00000000000E+00 0.  1.
          2    1    1    2  501    0  0.53942734845E+01 -0.21918000984E+02  0.34187070233E+03  0.34261505230E+03  0.00000000000E+00 0.  1.
          1    1    1    2  502    0 -0.53942734845E+01  0.21918000984E+02  0.13757718335E+02  0.26434291505E+02  0.00000000000E+00 0.  1.
</event>
<event>
 4    1  0.3767413E+003  0.2323371E+02  0.7546771E-02  0.1489584E+00
          2   -1    0    0  502    0  0.00000000000E+00  0.00000000000E+00  0.33822341907E+02  0.33822341907E+02  0.00000000000E+00 0. -1.
          1   -1    0    0  501    0 -0.00000000000E+00 -0.00000000000E+00 -0.65107771425E+03  0.65107771425E+03  0.00000000000E+00 0.  1.
          2    1    1    2  501    0  0.22435865401E+02 -0.60363108390E+01  0.29599021935E+02  0.37628542415E+02  0.00000000000E+00 0. -1.
          1    1    1    2  502    0 -0.22435865401E+02  0.60363108390E+01 -0.64685439427E+03  0.64727151374E+03  0.00000000000E+00 0.  1.
</event>
<event>
 4    1  0.3767413E+003  0.1025539E+03  0.7546771E-02  0.1159455E+00
          2   -1    0    0  502    0  0.00000000000E+00  0.00000000000E+00  0.17417764572E+04  0.17417764572E+04  0.00000000000E+00 0.  1.
          1   -1    0    0  501    0 -0.00000000000E+00 -0.00000000000E+00 -0.99101515173E+01  0.99101515173E+01  0.00000000000E+00 0. -1.
          2    1    1    2  501    0 -0.99458354277E+02 -0.25006924273E+02  0.14133869731E+04  0.14171026943E+04  0.00000000000E+00 0.  1.
          1    1    1    2  502    0  0.99458354277E+02  0.25006924273E+02  0.31847933260E+03  0.33458391442E+03  0.00000000000E+00 0. -1.
</event>
<event>
 4    1  0.3767413E+003  0.2854044E+02  0.7546771E-02  0.1432719E+00
          2   -1    0    0  502    0  0.00000000000E+00  0.00000000000E+00  0.26518482892E+03  0.26518482892E+03  0.00000000000E+00 0.  1.
          1   -1    0    0  501    0 -0.00000000000E+00 -0.00000000000E+00 -0.26873903367E+03  0.26873903367E+03  0.00000000000E+00 0. -1.
          2    1    1    2  501    0  0.28210994778E+02 -0.43239481325E+01  0.26365477196E+03  0.26519501415E+03  0.00000000000E+00 0.  1.
          1    1    1    2  502    0 -0.28210994778E+02  0.43239481325E+01 -0.26720897671E+03  0.26872884844E+03  0.00000000000E+00 0. -1.
</event>
<event>
 4    1  0.3767413E+003  0.3022671E+02  0.7546771E-02  0.1417636E+00
          2   -1    0    0  502    0  0.00000000000E+00  0.00000000000E+00  0.14960626770E+01  0.14960626770E+01  0.00000000000E+00 0.  1.
          1   -1    0    0  501    0 -0.00000000000E+00 -0.00000000000E+00 -0.14299433644E+04  0.14299433644E+04  0.00000000000E+00 0. -1.
          2    1    1    2  501    0 -0.30109017588E+02  0.26648093425E+01 -0.17248666032E+03  0.17511511110E+03  0.00000000000E+00 0.  1.
          1    1    1    2  502    0  0.30109017588E+02 -0.26648093425E+01 -0.12559606414E+04  0.12563243160E+04  0.00000000000E+00 0. -1.
</event>
<event>
 4    1  0.3767413E+003  0.3823505E+02  0.7546771E-02  0.1359151E+00
          2   -1    0    0  502    0  0.00000000000E+00  0.00000000000E+00  0.18379844779E+04  0.18379844779E+04  0.00000000000E+00 0.  1.
          1   -1    0    0  501    0 -0.00000000000E+00 -0.00000000000E+00 -0.56481473379E+03  0.56481473379E+03  0.00000000000E+00 0. -1.
          2    1    1    2  501    0 -0.28646849037E+02  0.25323445900E+02  0.18371382528E+04  0.18375360891E+04  0.00000000000E+00 0.  1.
          1    1    1    2  502    0  0.28646849037E+02 -0.25323445900E+02 -0.56396850872E+03  0.56526312254E+03  0.00000000000E+00 0. -1.
</event>
<event>
 4    1  0.3767413E+003  0.2387740E+02  0.7546771E-02  0.1481765E+00
          2   -1    0    0  502    0  0.00000000000E+00  0.00000000000E+00  0.21670847630E+02  0.21670847630E+02  0.00000000000E+00 0.  1.
          1   -1    0    0  501    0 -0.00000000000E+00 -0.00000000000E+00 -0.12816748316E+03  0.12816748316E+03  0.00000000000E+00 0.  1.
          2    1    1    2  501    0 -0.12037994847E+02  0.20620789908E+02  0.13540444507E+02  0.27449479664E+02  0.00000000000E+00 0.  1.
          1    1    1    2  502    0  0.12037994847E+02 -0.20620789908E+02 -0.12003708004E+03  0.12238885113E+03  0.00000000000E+00 0.  1.
</event>
<event>
 4    1  0.3767413E+003  0.4481664E+02  0.7546771E-02  0.1322359E+00
          2   -1    0    0  502    0  0.00000000000E+00  0.00000000000E+00  0.86887750547E+03  0.86887750547E+03  0.00000000000E+00 0. -1.
          1   -1    0    0  501    0 -0.00000000000E+00 -0.00000000000E+00 -0.45282081566E+02  0.45282081566E+02  0.00000000000E+00 0.  1.
          2    1    1    2  501    0 -0.90817559289E+00 -0.44807437427E+02  0.85705777545E+03  0.85822873507E+03  0.00000000000E+00 0. -1.
          1    1    1    2  502    0  0.90817559289E+00  0.44807437427E+02 -0.33462351543E+02  0.55930851973E+02  0.00000000000E+00 0.  1.
</event>
<event>
 4    1  0.3767413E+003  0.2786545E+02  0.7546771E-02  0.1439103E+00
          2   -1    0    0  502    0  0.00000000000E+00  0.00000000000E+00  0.21183090662E+03  0.21183090662E+03  0.00000000000E+00 0.  1.
          1   -1    0    0  501    0 -0.00000000000E+00 -0.00000000000E+00 -0.37782169751E+01  0.37782169751E+01  0.00000000000E+00 0.  1.
          2    1    1    2  501    0  0.25795851857E+02  0.10538375134E+02  0.12264003420E+03  0.12576589884E+03  0.00000000000E+00 0.  1.
          1    1    1    2  502    0 -0.25795851857E+02 -0.10538375134E+02  0.85412655447E+02  0.89843224753E+02  0.00000000000E+00 0.  1.
</event>
<event>
 4    1  0.3767413E+003  0.4547674E+02  0.7546771E-02  0.1319073E+00
          2   -1    0    0  502    0  0.00000000000E+00  0.00000000000E+00  0.79313629132E+03  0.79313629132E+03  0.00000000000E+00 0.  1.
          1   -1    0    0  501    0 -0.00000000000E+00 -0.00000000000E+00 -0.45507367284E+02  0.45507367284E+02  0.00000000000E+00 0.  1.
          2    1    1    2  501    0 -0.38541570810E+02 -0.24138797474E+02  0.78094566685E+03  0.78226866791E+03  0.00000000000E+00 0.  1.
          1    1    1    2  502    0  0.38541570810E+02  0.24138797474E+02 -0.33316742814E+02  0.56374990694E+02  0.00000000000E+00 0.  1.
</event>
<event>
 4    1  0.3767413E+003  0.2483277E+02  0.7546771E-02  0.1470683E+00
          2   -1    0    0  502    0  0.00000000000E+00  0.00000000000E+00  0.43276473442E+03  0.43276473442E+03  0.00000000000E+00 0.  1.
          1   -1    0    0  501    0 -0.00000000000E+00 -0.00000000000E+00 -0.14395105786E+01  0.14395105786E+01  0.00000000000E+00 0.  1.
          2    1    1    2  501    0  0.17670538596E+02  0.17447577981E+02  0.19382417051E+03  0.19540848238E+03  0.00000000000E+00 0.  1.
          1    1    1    2  502    0 -0.17670538596E+02 -0.17447577981E+02  0.23750105333E+03  0.23879576262E+03  0.00000000000E+00 0.  1.
</event>
<event>
 4    1  0.3767413E+003  0.2341609E+02  0.7546771E-02  0.1487338E+00
          2   -1    0    0  502    0  0.00000000000E+00  0.00000000000E+00  0.15364504649E+03  0.15364504649E+03  0.00000000000E+00 0.  1.
          1   -1    0    0  501    0 -0.00000000000E+00 -0.00000000000E+00 -0.14329157013E+04  0.14329157013E+04  0.00000000000E+00 0.  1.
          2    1    1    2  501    0  0.16448678996E+02  0.16665960750E+02  0.15265659141E+03  0.15444205447E+03  0.00000000000E+00 0.  1.
          1    1    1    2  502    0 -0.16448678996E+02 -0.16665960750E+02 -0.14319272463E+04  0.14321186934E+04  0.00000000000E+00 0.  1.
</event>
<event>
 4    1  0.3767413E+003  0.2717269E+02  0.7546771E-02  0.1445881E+00
          2   -1    0    0  502    0  0.00000000000E+00  0.00000000000E+00  0.21075821649E+01  0.21075821649E+01  0.00000000000E+00 0.  1.
          1   -1    0    0  501    0 -0.00000000000E+00 -0.00000000000E+00 -0.79641495585E+03  0.79641495585E+03  0.00000000000E+00 0.  1.
          2    1    1    2  501    0 -0.68807894257E+00 -0.27163975132E+02 -0.98343814140E+02  0.10202872525E+03  0.00000000000E+00 0.  1.
          1    1    1    2  502    0  0.68807894257E+00  0.27163975132E+02 -0.69596355955E+03  0.69649381276E+03  0.00000000000E+00 0.  1.
</event>
<event>
 4    1  0.3767413E+003  0.2579683E+02  0.7546771E-02  0.1460083E+00
          2   -1    0    0  502    0  0.00000000000E+00  0.00000000000E+00  0.58662174615E+03  0.58662174615E+03  0.00000000000E+00 0. -1.
          1   -1    0    0  501    0 -0.00000000000E+00 -0.00000000000E+00 -0.15259906777E+01  0.15259906777E+01  0.00000000000E+00 0. -1.
          2    1    1    2  501    0  0.47874953560E+01  0.25348692249E+02  0.44151305368E+03  0.44226604310E+03  0.00000000000E+00 0. -1.
          1    1    1    2  502    0 -0.47874953560E+01 -0.25348692249E+02  0.14358270179E+03  0.14588169372E+03  0.00000000000E+00 0. -1.
</event>
<event>
 4    1  0.3767413E+003  0.4689579E+02  0.7546771E-02  0.1312223E+00
          2   -1    0    0  502    0  0.00000000000E+00  0.00000000000E+00  0.18663290830E+04  0.18663290830E+04  0.00000000000E+00 0.  1.
          1   -1    0    0  501    0 -0.00000000000E+00 -0.00000000000E+00 -0.18950645895E+01  0.18950645895E+01  0.00000000000E+00 0.  1.
          2    1    1    2  501    0 -0.11010701183E+02 -0.45584860220E+02  0.15066717992E+04  0.15074014480E+04  0.00000000000E+00 0.  1.
          1    1    1    2  502    0  0.11010701183E+02  0.45584860220E+02  0.35776221916E+03  0.36082269951E+03  0.00000000000E+00 0.  1.
</event>
<event>
 4    1  0.3767413E+003  0.4452849E+02  0.7546771E-02  0.1323814E+00
          2   -1    0    0  502    0  0.00000000000E+00  0.00000000000E+00  0.12601512960E+04  0.12601512960E+04  0.00000000000E+00 0.  1.
          1   -1    0    0  501    0 -0.00000000000E+00 -0.00000000000E+00 -0.48391298615E+03  0.48391298615E+03  0.00000000000E+00 0. -1.
          2    1    1    2  501    0 -0.42991243996E+02 -0.11599105934E+02  0.12587324283E+04  0.12595197943E+04  0.00000000000E+00 0.  1.
          1    1    1    2  502    0  0.42991243996E+02  0.11599105934E+02 -0.48249411845E+03  0.48454448780E+03  0.00000000000E+00 0. -1.
</event>
<event>
 4    1  0.3767413E+003  0.4148699E+02  0.7546771E-02  0.1339986E+00
          2   -1    0    0  502    0  0.00000000000E+00  0.00000000000E+00  0.48458672608E+03  0.48458672608E+03  0.00000000000E+00 0. -1.
          1   -1    0    0  501    0 -0.00000000000E+00 -0.00000000000E+00 -0.21368538352E+03  0.21368538352E+03  0.00000000000E+00 0.  1.
          2    1    1    2  501    0 -0.32390577629E+02  0.25923365420E+02  0.48167293586E+03  0.48345629330E+03  0.00000000000E+00 0. -1.
          1    1    1    2  502    0  0.32390577629E+02 -0.25923365420E+02 -0.21077159330E+03  0.21481581631E+03  0.00000000000E+00 0.  1.
</event>
<event>
 4    1  0.3767413E+003  0.7016632E+02  0.7546771E-02  0.1228724E+00
          2   -1    0    0  502    0  0.00000000000E+00  0.00000000000E+00  0.50273272694E+02  0.50273272694E+02  0.00000000000E+00 0.  1.
          1   -1    0    0  501    0 -0.00000000000E+00 -0.00000000000E+00 -0.22297435774E+03  0.22297435774E+03  0.00000000000E+00 0.  1.
          2    1    1    2  501    0  0.57413095001E+02  0.40336693006E+02  0.15962087184E+02  0.71959019639E+02  0.00000000000E+00 0.  1.
          1    1    1    2  502    0 -0.57413095001E+02 -0.40336693006E+02 -0.18866317223E+03  0.20128861080E+03  0.00000000000E+00 0.  1.
</event>
<event>
 4    1  0.3767413E+003  0.3630963E+02  0.7546771E-02  0.1371583E+00
          2   -1    0    0  502    0  0.00000000000E+00  0.00000000000E+00  0.51811545228E+03  0.51811545228E+03  0.00000000000E+00 0. -1.
          1   -1    0    0  501    0 -0.00000000000E+00 -0.00000000000E+00 -0.19043447752E+04  0.19043447752E+04  0.00000000000E+00 0. -1.
          2    1    1    2  501    0 -0.36249896519E+02 -0.20819464236E+01  0.51730595867E+03  0.51857867713E+03  0.00000000000E+00 0. -1.
          1    1    1    2  502    0  0.36249896519E+02  0.20819464236E+01 -0.19035352816E+04  0.19038815503E+04  0.00000000000E+00 0. -1.
</event>
<event>
 4    1  0.3767413E+003  0.2005275E+02  0.7546771E-02  0.1533231E+00
          2   -1    0    0  502    0  0.00000000000E+00  0.00000000000E+00  0.61581833050E+03  0.61581833050E+03  0.00000000000E+00 0.  1.
          1   -1    0    0  501    0 -0.00000000000E+00 -0.00000000000E+00 -0.69152718100E+00  0.69152718100E+00  0.00000000000E+00 0.  1.
          2    1    1    2  501    0  0.11811043241E+02 -0.16205302215E+02  0.23477824975E+03  0.23563306032E+03  0.00000000000E+00 0.  1.
          1    1    1    2  502    0 -0.11811043241E+02  0.16205302215E+02  0.38034855357E+03  0.38087679736E+03  0.00000000000E+00 0.  1.
</event>
<event>
 4    1  0.3767413E+003  0.2168325E+02  0.7546771E-02  0.1509729E+00
          2   -1    0    0  502    0  0.00000000000E+00  0.00000000000E+00  0.14719350133E+02  0.14719350133E+02  0.00000000000E+00 0. -1.
          1   -1    0    0  501    0 -0.00000000000E+00 -0.00000000000E+00 -0.59489321817E+03  0.59489321817E+03  0.00000000000E+00 0. -1.
          2    1    1    2  501    0  0.20706256376E+02  0.64353945178E+01  0.64234074115E+01  0.22614674848E+02  0.00000000000E+00 0. -1.
          1    1    1    2  502    0 -0.20706256376E+02 -0.64353945178E+01 -0.58659727545E+03  0.58699789345E+03  0.00000000000E+00 0. -1.
</event>
<event>
 4    1  0.3767413E+003  0.2067567E+02  0.7546771E-02  0.1523946E+00
          2   -1    0    0  502    0  0.00000000000E+00  0.00000000000E+00  0.26776997658E+03  0.26776997658E+03  0.00000000000E+00 0. -1.
          1   -1    0    0  501    0 -0.00000000000E+00 -0.00000000000E+00 -0.73923858258E+01  0.73923858258E+01  0.00000000000E+00 0.  1.
          2    1    1    2  501    0  0.58990382332E+01  0.19816271978E+02  0.25201150025E+03  0.25285822025E+03  0.00000000000E+00 0. -1.
          1    1    1    2  502    0 -0.58990382332E+01 -0.19816271978E+02  0.83660905034E+01  0.22304142160E+02  0.00000000000E+00 0.  1.
</event>
<event>
 4    1  0.3767413E+003  0.2855805E+02  0.7546771E-02  0.1432555E+00
          2   -1    0    0  502    0  0.00000000000E+00  0.00000000000E+00  0.41976810411E+03  0.41976810411E+03  0.00000000000E+00 0.  1.
          1   -1    0    0  501    0 -0.00000000000E+00 -0.00000000000E+00 -0.58005997505E+03  0.58005997505E+03  0.00000000000E+00 0.  1.
          2    1    1    2  501    0 -0.17799567239E+02  0.22332440420E+02  0.41893018062E+03  0.41990243953E+03  0.00000000000E+00 0.  1.
          1    1    1    2  502    0  0.17799567239E+02 -0.22332440420E+02 -0.57922205156E+03  0.57992563963E+03  0.00000000000E+00 0.  1.
</event>
<event>
 4    1  0.3767413E+003  0.2532342E+02  0.7546771E-02  0.1465218E+00
          2   -1    0    0  502    0  0.00000000000E+00  0.00000000000E+00  0.12835266343E+04  0.12835266343E+04  0.00000000000E+00 0. -1.
          1   -1    0    0  501    0 -0.00000000000E+00 -0.00000000000E+00 -0.90849909355E+00  0.90849909355E+00  0.00000000000E+00 0. -1.
          2    1    1    2  501    0 -0.16783550186E+02  0.18962803448E+02  0.10721504669E+04  0.10724494856E+04  0.00000000000E+00 0. -1.
          1    1    1    2  502    0  0.16783550186E+02 -0.18962803448E+02  0.21046766822E+03  0.21198564771E+03  0.00000000000E+00 0. -1.
</event>
<event>
 4    1  0.3767413E+003  0.2042194E+02  0.7546771E-02  0.1527680E+00
          2   -1    0    0  502    0  0.00000000000E+00  0.00000000000E+00  0.35165544151E+03  0.35165544151E+03  0.00000000000E+00 0.  1.
          1   -1    0    0  501    0 -0.00000000000E+00 -0.00000000000E+00 -0.24928943443E+01  0.24928943443E+01  0.00000000000E+00 0. -1.
          2    1    1    2  501    0 -0.20421123328E+02  0.18301322370E+00  0.30279280723E+03  0.30348070760E+03  0.00000000000E+00 0.  1.
          1    1    1    2  502    0  0.20421123328E+02 -0.18301322370E+00  0.46369739938E+02  0.50667628262E+02  0.00000000000E+00 0. -1.
</event>
<event>
 4    1  0.3767413E+003  0.2877121E+02  0.7546771E-02  0.1430584E+00
          2   -1    0    0  502    0  0.00000000000E+00  0.00000000000E+00  0.73054749105E+03  0.73054749105E+03  0.00000000000E+00 0.  1.
          1   -1    0    0  501    0 -0.00000000000E+00 -0.00000000000E+00 -0.49599892711E+02  0.49599892711E+02  0.00000000000E+00 0. -1.
          2    1    1    2  501    0  0.28076162925E+02 -0.62858093978E+01  0.72606617591E+03  0.72663599837E+03  0.00000000000E+00 0.  1.
          1    1    1    2  502    0 -0.28076162925E+02  0.62858093978E+01 -0.45118577572E+02  0.53511385391E+02  0.00000000000E+00 0. -1.
</event>
<event>
 4    1  0.3767413E+003  0.3533508E+02  0.7546771E-02  0.1378223E+00
          2   -1    0    0  502    0  0.00000000000E+00  0.00000000000E+00  0.28225257673E+02  0.28225257673E+02  0.00000000000E+00 0. -1.
          1   -1    0    0  501    0 -0.00000000000E+00 -0.00000000000E+00 -0.77631276548E+02  0.77631276548E+02  0.00000000000E+00 0. -1.
          2    1    1    2  501    0  0.34412637527E+02  0.80210939203E+01  0.10011654802E+02  0.36726023487E+02  0.00000000000E+00 0. -1.
          1    1    1    2  502    0 -0.34412637527E+02 -0.80210939203E+01 -0.59417673677E+02  0.69130510735E+02  0.00000000000E+00 0. -1.
</event>
<event>
 4    1  0.3767413E+003  0.7973156E+02  0.7546771E-02  0.1204472E+00
          2   -1    0    0  502    0  0.00000000000E+00  0.00000000000E+00  0.15848737800E+03  0.15848737800E+03  0.00000000000E+00 0.  1.
          1   -1    0    0  501    0 -0.00000000000E+00 -0.00000000000E+00 -0.10529042493E+03  0.10529042493E+03  0.00000000000E+00 0. -1.
          2    1    1    2  501    0  0.78931811546E+02 -0.11264574049E+02  0.13036764898E+03  0.15281637805E+03  0.00000000000E+00 0.  1.
          1    1    1    2  502    0 -0.78931811546E+02  0.11264574049E+02 -0.77170695915E+02  0.11096142488E+03  0.00000000000E+00 0. -1.
</event>
<event>
 4    1  0.3767413E+003  0.2328165E+02  0.7546771E-02  0.1488991E+00
          2   -1    0    0  502    0  0.00000000000E+00  0.00000000000E+00  0.38567525263E+03  0.38567525263E+03  0.00000000000E+00 0. -1.
          1   -1    0    0  501    0 -0.00000000000E+00 -0.00000000000E+00 -0.12096844640E+03  0.12096844640E+03  0.00000000000E+00 0. -1.
          2    1    1    2  501    0 -0.16757383080E+02  0.16162472820E+02  0.38419939866E+03  0.38490416124E+03  0.00000000000E+00 0. -1.
          1    1    1    2  502    0  0.16757383080E+02 -0.16162472820E+02 -0.11949259243E+03  0.12173953779E+03  0.00000000000E+00 0. -1.
</event>
<event>
 4    1  0.3767413E+003  0.2622699E+02  0.7546771E-02  0.1455532E+00
          2   -1    0    0  502    0  0.00000000000E+00  0.00000000000E+00  0.12563492999E+03  0.12563492999E+03  0.00000000000E+00 0.  1.
          1   -1    0    0  501    0 -0.00000000000E+00 -0.00000000000E+00 -0.38745420923E+03  0.38745420923E+03  0.00000000000E+00 0. -1.
          2    1    1    2  501    0  0.20458515708E+02 -0.16410480857E+02  0.12381589435E+03  0.12656314804E+03  0.00000000000E+00 0.  1.
          1    1    1    2  502    0 -0.20458515708E+02  0.16410480857E+02 -0.38563517359E+03  0.38652599118E+03  0.00000000000E+00 0. -1.
</event>
<event>
 4    1  0.3767413E+003  0.3768877E+02  0.7546771E-02  0.1362589E+00
          2   -1    0    0  502    0  0.00000000000E+00  0.00000000000E+00  0.12926365401E+04  0.12926365401E+04  0.00000000000E+00 0. -1.
          1   -1    0    0  501    0 -0.00000000000E+00 -0.00000000000E+00 -0.30604606189E+02  0.30604606189E+02  0.00000000000E+00 0.  1.
          2    1    1    2  501    0  0.30741371984E+02  0.21803937359E+02  0.12806500581E+04  0.12812045172E+04  0.00000000000E+00 0. -1.
          1    1    1    2  502    0 -0.30741371984E+02 -0.21803937359E+02 -0.18618124184E+02  0.42036629074E+02  0.00000000000E+00 0.  1.
</event>
<event>
 4    1  0.3767413E+003  0.2414633E+02  0.7546771E-02  0.1478584E+00
          2   -1    0    0  502    0  0.00000000000E+00  0.00000000000E+00  0.33171673134E+01  0.33171673134E+01  0.00000000000E+00 0. -1.
          1   -1    0    0  501    0 -0.00000000000E+00 -0.00000000000E+00 -0.13675130386E+04  0.13675130386E+04  0.00000000000E+00 0. -1.
          2    1    1    2  501    0  0.21931972275E+02  0.10101180087E+02 -0.42245287587E+02  0.48659116004E+02  0.00000000000E+00 0. -1.
          1    1    1    2  502    0 -0.21931972275E+02 -0.10101180087E+02 -0.13219505837E+04  0.13221710899E+04  0.00000000000E+00 0. -1.
</event>
<event>
 4    1  0.3767413E+003  0.2464323E+02  0.7546771E-02  0.1472834E+00
          2   -1    0    0  502    0  0.00000000000E+00  0.00000000000E+00  0.67230770212E+03  0.67230770212E+03  0.00000000000E+00 0. -1.
          1   -1    0    0  501    0 -0.00000000000E+00 -0.00000000000E+00 -0.10631032337E+01  0.10631032337E+01  0.00000000000E+00 0.  1.
          2    1    1    2  501    0 -0.18856157650E+02  0.15866133709E+02  0.46616206382E+03  0.46681298035E+03  0.00000000000E+00 0. -1.
          1    1    1    2  502    0  0.18856157650E+02 -0.15866133709E+02  0.20508253507E+03  0.20655782500E+03  0.00000000000E+00 0.  1.
</event>
<event>
 4    1  0.3767413E+003  0.3162451E+02  0.7546771E-02  0.1405986E+00
          2   -1    0    0  502    0  0.00000000000E+00  0.00000000000E+00  0.13515597081E+04  0.13515597081E+04  0.00000000000E+00 0. -1.
          1   -1    0    0  501    0 -0.00000000000E+00 -0.00000000000E+00 -0.94830530117E+01  0.94830530117E+01  0.00000000000E+00 0. -1.
          2    1    1    2  501    0  0.25134887910E+02 -0.19192371285E+02  0.13244698150E+04  0.13248473121E+04  0.00000000000E+00 0. -1.
          1    1    1    2  502    0 -0.25134887910E+02  0.19192371285E+02  0.17606840068E+02  0.36195448926E+02  0.00000000000E+00 0. -1.
</event>
<event>
 4    1  0.3767413E+003  0.2219134E+02  0.7546771E-02  0.1502910E+00
          2   -1    0    0  502    0  0.00000000000E+00  0.00000000000E+00  0.25224169426E+02  0.25224169426E+02  0.00000000000E+00 0.  1.
          1   -1    0    0  501    0 -0.00000000000E+00 -0.00000000000E+00 -0.31288680562E+03  0.31288680562E+03  0.00000000000E+00 0.  1.
          2    1    1    2  501    0  0.95994246730E+01 -0.20007669019E+02  0.19864953013E+02  0.29783756175E+02  0.00000000000E+00 0.  1.
          1    1    1    2  502    0 -0.95994246730E+01  0.20007669019E+02 -0.30752758921E+03  0.30832721887E+03  0.00000000000E+00 0.  1.
</event>
<event>
 4    1  0.3767413E+003  0.2451869E+02  0.7546771E-02  0.1474260E+00
          2   -1    0    0  502    0  0.00000000000E+00  0.00000000000E+00  0.20586618491E+03  0.20586618491E+03  0.00000000000E+00 0. -1.
          1   -1    0    0  501    0 -0.00000000000E+00 -0.00000000000E+00 -0.14475143402E+02  0.14475143402E+02  0.00000000000E+00 0.  1.
          2    1    1    2  501    0  0.30844744587E+00 -0.24516753566E+02  0.19412808853E+03  0.19567033782E+03  0.00000000000E+00 0. -1.
          1    1    1    2  502    0 -0.30844744587E+00  0.24516753566E+02 -0.27370470280E+01  0.24670990489E+02  0.00000000000E+00 0.  1.
</event>
<event>
 4    1  0.3767413E+003  0.2212387E+02  0.7546771E-02  0.1503803E+00
          2   -1    0    0  502    0  0.00000000000E+00  0.00000000000E+00  0.11983752868E+03  0.11983752868E+03  0.00000000000E+00 0. -1.
          1   -1    0    0  501    0 -0.00000000000E+00 -0.00000000000E+00 -0.40852032344E+01  0.40852032344E+01  0.00000000000E+00 0. -1.
          2    1    1    2  501    0  0.12077702045E+01  0.22090864239E+02  0.57009996539E+02  0.61152307373E+02  0.00000000000E+00 0. -1.
          1    1    1    2  502    0 -0.12077702045E+01 -0.22090864239E+02  0.58742328903E+02  0.62770424538E+02  0.00000000000E+00 0. -1.
</event>
<event>
 4    1  0.3767413E+003  0.2010402E+02  0.7546771E-02  0.1532452E+00
          2   -1    0    0  502    0  0.00000000000E+00  0.00000000000E+00  0.20256126476E+03  0.20256126476E+03  0.00000000000E+00 0. -1.
          1   -1    0    0  501    0 -0.00000000000E+00 -0.00000000000E+00 -0.20103579893E+01  0.20103579893E+01  0.00000000000E+00 0. -1.
          2    1    1    2  501    0 -0.92440320834E+01  0.17852704929E+02  0.91424061432E+02  0.93608387505E+02  0.00000000000E+00 0. -1.
          1    1    1    2  502    0  0.92440320834E+01 -0.17852704929E+02  0.10912684534E+03  0.11096323524E+03  0.00000000000E+00 0. -1.
</event>
<event>
 4    1  0.3767413E+003  0.3319964E+02  0.7546771E-02  0.1393682E+00
          2   -1    0    0  502    0  0.00000000000E+00  0.00000000000E+00  0.23209771312E+04  0.23209771312E+04  0.00000000000E+00 0. -1.
          1   -1    0    0  501    0 -0.00000000000E+00 -0.00000000000E+00 -0.20114634808E+01  0.20114634808E+01  0.00000000000E+00 0. -1.
          2    1    1    2  501    0  0.31623723792E+02 -0.10107227939E+02  0.21746492414E+04  0.21749026505E+04  0.00000000000E+00 0. -1.
          1    1    1    2  502    0 -0.31623723792E+02  0.10107227939E+02  0.14431642634E+03  0.14808594421E+03  0.00000000000E+00 0. -1.
</event>
<event>
 4    1  0.3767413E+003  0.2244638E+02  0.7546771E-02  0.1499569E+00
          2   -1    0    0  502    0  0.00000000000E+00  0.00000000000E+00  0.43580421907E+02  0.43580421907E+02  0.00000000000E+00 0.  1.
          1   -1    0    0  501    0 -0.00000000000E+00 -0.00000000000E+00 -0.26037043268E+02  0.26037043268E+02  0.00000000000E+00 0.  1.
          2    1    1    2  501    0 -0.62597739233E+01 -0.21555865006E+02  0.34726326615E+02  0.41349218202E+02  0.00000000000E+00 0.  1.
          1    1    1    2  502    0  0.62597739233E+01  0.21555865006E+02 -0.17182947977E+02  0.28268246973E+02  0.00000000000E+00 0.  1.
</event>
<event>
 4    1  0.3767413E+003  0.6535209E+02  0.7546771E-02  0.1242657E+00
          2   -1    0    0  502    0  0.00000000000E+00  0.00000000000E+00  0.16866335679E+04  0.16866335679E+04  0.00000000000E+00 0.  1.
          1   -1    0    0  501    0 -0.00000000000E+00 -0.00000000000E+00 -0.17771217909E+02  0.17771217909E+02  0.00000000000E+00 0. -1.
          2    1    1    2  501    0 -0.64520982987E+02  0.10389354714E+02  0.16235867383E+04  0.16249014717E+04  0.00000000000E+00 0.  1.
          1    1    1    2  502    0  0.64520982987E+02 -0.10389354714E+02  0.45275611635E+02  0.79503314056E+02  0.00000000000E+00 0. -1.
</event>
<event>
 4    1  0.3767413E+003  0.2007759E+02  0.7546771E-02  0.1532853E+00
          2   -1    0    0  502    0  0.00000000000E+00  0.00000000000E+00  0.37204845455E+03  0.37204845455E+03  0.00000000000E+00 0. -1.
          1   -1    0    0  501    0 -0.00000000000E+00 -0.00000000000E+00 -0.28677294837E+02  0.28677294837E+02  0.00000000000E+00 0. -1.
          2    1    1    2  501    0  0.18125729839E+01  0.19995608226E+02  0.36822694981E+03  0.36877390951E+03  0.00000000000E+00 0. -1.
          1    1    1    2  502    0 -0.18125729839E+01 -0.19995608226E+02 -0.24855790106E+02  0.31951839868E+02  0.00000000000E+00 0. -1.
</event>
<event>
 4    1  0.3767413E+003  0.2053214E+02  0.7546771E-02  0.1526051E+00
          2   -1    0    0  502    0  0.00000000000E+00  0.00000000000E+00  0.10459547337E+04  0.10459547337E+04  0.00000000000E+00 0.  1.
          1   -1    0    0  501    0 -0.00000000000E+00 -0.00000000000E+00 -0.48263254012E+00  0.48263254012E+00  0.00000000000E+00 0.  1.
          2    1    1    2  501    0 -0.17928674724E+02  0.10006566402E+02  0.73520353135E+03  0.73549017754E+03  0.00000000000E+00 0.  1.
          1    1    1    2  502    0  0.17928674724E+02 -0.10006566402E+02  0.31026856979E+03  0.31094718868E+03  0.00000000000E+00 0.  1.
</event>
<event>
 4    1  0.3767413E+003  0.2091146E+02  0.7546771E-02  0.1520533E+00
          2   -1    0    0  502    0  0.00000000000E+00  0.00000000000E+00  0.27373869674E+03  0.27373869674E+03  0.00000000000E+00 0.  1.
          1   -1    0    0  501    0 -0.00000000000E+00 -0.00000000000E+00 -0.52887235394E+02  0.52887235394E+02  0.00000000000E+00 0. -1.
          2    1    1    2  501    0 -0.19392482435E+02  0.78243650314E+01  0.27125333565E+03  0.27205819445E+03  0.00000000000E+00 0.  1.
          1    1    1    2  502    0  0.19392482435E+02 -0.78243650314E+01 -0.50401874304E+02  0.54567737689E+02  0.00000000000E+00 0. -1.
</event>
<event>
 4    1  0.3767413E+003  0.2317541E+02  0.7546771E-02  0.1490307E+00
          2   -1    0    0  502    0  0.00000000000E+00  0.00000000000E+00  0.89796094344E+03  0.89796094344E+03  0.00000000000E+00 0. -1.
          1   -1    0    0  501    0 -0.00000000000E+00 -0.00000000000E+00 -0.32634118899E+01  0.32634118899E+01  0.00000000000E+00 0. -1.
          2    1    1    2  501    0 -0.22642291244E+02 -0.49423023172E+01  0.85457743176E+03  0.85489162271E+03  0.00000000000E+00 0. -1.
          1    1    1    2  502    0  0.22642291244E+02  0.49423023172E+01  0.40120099795E+02  0.46332732625E+02  0.00000000000E+00 0. -1.
</event>
<event>
 4    1  0.3767413E+003  0.2342333E+02  0.7546771E-02  0.1487250E+00
          2   -1    0    0  502    0  0.00000000000E+00  0.00000000000E+00  0.66752965370E+03  0.66752965370E+03  0.00000000000E+00 0.  1.
          1   -1    0    0  501    0 -0.00000000000E+00 -0.00000000000E+00 -0.14097905721E+01  0.14097905721E+01  0.00000000000E+00 0.  1.
          2    1    1    2  501    0 -0.21675204716E+02 -0.88790811068E+01  0.54904426268E+03  0.54954367885E+03  0.00000000000E+00 0.  1.
          1    1    1    2  502    0  0.21675204716E+02  0.88790811068E+01  0.11707560045E+03  0.11939576542E+03  0.00000000000E+00 0.  1.
</event>
<event>
 4    1  0.3767413E+003  0.2090854E+02  0.7546771E-02  0.1520575E+00
          2   -1    0    0  502    0  0.00000000000E+00  0.00000000000E+00  0.45815416979E+02  0.45815416979E+02  0.00000000000E+00 0.  1.
          1   -1    0    0  501    0 -0.00000000000E+00 -0.00000000000E+00 -0.17877719768E+02  0.17877719768E+02  0.00000000000E+00 0. -1.
          2    1    1    2  501    0  0.17812071191E+02  0.10949756430E+02  0.35714890215E+02  0.41385026629E+02  0.00000000000E+00 0.  1.
          1    1    1    2  502    0 -0.17812071191E+02 -0.10949756430E+02 -0.77771930045E+01  0.22308110118E+02  0.00000000000E+00 0. -1.
</event>
<event>
 4    1  0.3767413E+003  0.2042467E+02  0.7546771E-02  0.1527640E+00
          2   -1    0    0  502    0  0.00000000000E+00  0.00000000000E+00  0.73884682027E+01  0.73884682027E+01  0.00000000000E+00 0.  1.
          1   -1    0    0  501    0 -0.00000000000E+00 -0.00000000000E+00 -0.32170162716E+03  0.32170162716E+03  0.00000000000E+00 0.  1.
          2    1    1    2  501    0  0.40201794019E+00 -0.20420710282E+02 -0.77473365580E+01  0.21844638944E+02  0.00000000000E+00 0.  1.
          1    1    1    2  502    0 -0.40201794019E+00  0.20420710282E+02 -0.30656582240E+03  0.30724545642E+03  0.00000000000E+00 0.  1.
</event>
<event>
 4    1  0.3767413E+003  0.2028961E+02  0.7546771E-02  0.1529654E+00
          2   -1    0    0  502    0  0.00000000000E+00  0.00000000000E+00  0.41275486428E+03  0.41275486428E+03  0.00000000000E+00 0. -1.
          1   -1    0    0  501    0 -0.00000000000E+00 -0.00000000000E+00 -0.10311496331E+01  0.10311496331E+01  0.00000000000E+00 0. -1.
          2    1    1    2  501    0 -0.37081410258E+01 -0.19947877030E+02  0.24331008696E+03  0.24415459555E+03  0.00000000000E+00 0. -1.
          1    1    1    2  502    0  0.37081410258E+01  0.19947877030E+02  0.16841362768E+03  0.16963141837E+03  0.00000000000E+00 0. -1.
</event>
<event>
 4    1  0.3767413E+003  0.2127040E+02  0.7546771E-02  0.1515439E+00
          2   -1    0    0  502    0  0.00000000000E+00  0.00000000000E+00  0.52857931963E+03  0.52857931963E+03  0.00000000000E+00 0.  1.
          1   -1    0    0  501    0 -0.00000000000E+00 -0.00000000000E+00 -0.20162882281E+02  0.20162882281E+02  0.00000000000E+00 0.  1.
          2    1    1    2  501    0  0.15672125319E+02 -0.14381046536E+02  0.52269249345E+03  0.52312510236E+03  0.00000000000E+00 0.  1.
          1    1    1    2  502    0 -0.15672125319E+02  0.14381046536E+02 -0.14276056102E+02  0.25617099549E+02  0.00000000000E+00 0.  1.
</event>
<event>
 4    1  0.3767413E+003  0.2045209E+02  0.7546771E-02  0.1527233E+00
          2   -1    0    0  502    0  0.00000000000E+00  0.00000000000E+00  0.12381773973E+03  0.12381773973E+03  0.00000000000E+00 0.  1.
          1   -1    0    0  501    0 -0.00000000000E+00 -0.00000000000E+00 -0.69279660140E+03  0.69279660140E+03  0.00000000000E+00 0.  1.
          2    1    1    2  501    0 -0.19028400161E+02 -0.74971935872E+01  0.12282101755E+03  0.12451220935E+03  0.00000000000E+00 0.  1.
          1    1    1    2  502    0  0.19028400161E+02  0.74971935872E+01 -0.69179987922E+03  0.69210213178E+03  0.00000000000E+00 0.  1.
</event>
<event>
 4    1  0.3767413E+003  0.3200624E+02  0.7546771E-02  0.1402928E+00
          2   -1    0    0  502    0  0.00000000000E+00  0.00000000000E+00  0.10370779383E+04  0.10370779383E+04  0.00000000000E+00 0.  1.
          1   -1    0    0  501    0 -0.00000000000E+00 -0.00000000000E+00 -0.23128514847E+01  0.23128514847E+01  0.00000000000E+00 0. -1.
          2    1    1    2  501    0  0.13322303728E+02 -0.29101811788E+02  0.91074738210E+03  0.91130960338E+03  0.00000000000E+00 0.  1.
          1    1    1    2  502    0 -0.13322303728E+02  0.29101811788E+02  0.12401770474E+03  0.12808118642E+03  0.00000000000E+00 0. -1.
</event>
<event>
 4    1  0.3767413E+003  0.2787938E+02  0.7546771E-02  0.1438969E+00
          2   -1    0    0  502    0  0.00000000000E+00  0.00000000000E+00  0.35797766207E+01  0.35797766207E+01  0.00000000000E+00 0. -1.
          1   -1    0    0  501    0 -0.00000000000E+00 -0.00000000000E+00 -0.27378252974E+03  0.27378252974E+03  0.00000000000E+00 0. -1.
          2    1    1    2  501    0 -0.19550556353E+01  0.27810747360E+02 -0.72014007107E+02  0.77222258002E+02  0.00000000000E+00 0. -1.
          1    1    1    2  502    0  0.19550556353E+01 -0.27810747360E+02 -0.19818874602E+03  0.20014004836E+03  0.00000000000E+00 0. -1.
</event>
<event>
 4    1  0.3767413E+003  0.2089878E+02  0.7546771E-02  0.1520715E+00
          2   -1    0    0  502    0  0.00000000000E+00  0.00000000000E+00  0.10974914824E+04  0.10974914824E+04  0.00000000000E+00 0. -1.
          1   -1    0    0  501    0 -0.00000000000E+00 -0.00000000000E+00 -0.97098093722E+02  0.97098093722E+02  0.00000000000E+00 0.  1.
          2    1    1    2  501    0  0.18314857364E+02  0.10066038493E+02  0.10962662047E+04  0.10964653896E+04  0.00000000000E+00 0. -1.
          1    1    1    2  502    0 -0.18314857364E+02 -0.10066038493E+02 -0.95872815991E+02  0.98124186505E+02  0.00000000000E+00 0.  1.
</event>
<event>
 4    1  0.3767413E+003  0.3118617E+02  0.7546771E-02  0.1409561E+00
          2   -1    0    0  502    0  0.00000000000E+00  0.00000000000E+00  0.36061295247E+03  0.36061295247E+03  0.00000000000E+00 0. -1.
          1   -1    0    0  501    0 -0.00000000000E+00 -0.00000000000E+00 -0.27412278590E+01  0.27412278590E+01  0.00000000000E+00 0. -1.
          2    1    1    2  501    0  0.15016094697E+02 -0.27333005323E+02  0.15586134085E+03  0.15895072775E+03  0.00000000000E+00 0. -1.
          1    1    1    2  502    0 -0.15016094697E+02  0.27333005323E+02  0.20201038376E+03  0.20440345258E+03  0.00000000000E+00 0. -1.
</event>
<event>
 4    1  0.3767413E+003  0.3273184E+02  0.7546771E-02  0.1397251E+00
          2   -1    0    0  502    0  0.00000000000E+00  0.00000000000E+00  0.12838924090E+03  0.12838924090E+03  0.00000000000E+00 0. -1.
          1   -1    0    0  501    0 -0.00000000000E+00 -0.00000000000E+00 -0.12889295074E+02  0.12889295074E+02  0.00000000000E+00 0.  1.
          2    1    1    2  501    0  0.32409150117E+02  0.45848115473E+01  0.99694739879E+02  0.10493052305E+03  0.00000000000E+00 0. -1.
          1    1    1    2  502    0 -0.32409150117E+02 -0.45848115473E+01  0.15805205943E+02  0.36348012919E+02  0.00000000000E+00 0.  1.
</event>
<event>
 4    1  0.3767413E+003  0.2824781E+02  0.7546771E-02  0.1435461E+00
          2   -1    0    0  502    0  0.00000000000E+00  0.00000000000E+00  0.40977609802E+01  0.40977609802E+01  0.00000000000E+00 0.  1.
          1   -1    0    0  501    0 -0.00000000000E+00 -0.00000000000E+00 -0.21179124648E+03  0.21179124648E+03  0.00000000000E+00 0.  1.
          2    1    1    2  501    0  0.21944720003E+02  0.17786730519E+02 -0.73205294279E+02  0.78466257901E+02  0.00000000000E+00 0.  1.
          1    1    1    2  502    0 -0.21944720003E+02 -0.17786730519E+02 -0.13448819122E+03  0.13742274956E+03  0.00000000000E+00 0.  1.
</event>
<event>
 4    1  0.3767413E+003  0.2714796E+02  0.7546771E-02  0.1446127E+00
          2   -1    0    0  502    0  0.00000000000E+00  0.00000000000E+00  0.14311092519E+04  0.14311092519E+04  0.00000000000E+00 0. -1.
          1   -1    0    0  501    0 -0.00000000000E+00 -0.00000000000E+00 -0.13723350489E+02  0.13723350489E+02  0.00000000000E+00 0.  1.
          2    1    1    2  501    0  0.15565788802E+02  0.22242259489E+02  0.14174246530E+04  0.14176846119E+04  0.00000000000E+00 0. -1.
          1    1    1    2  502    0 -0.15565788802E+02 -0.22242259489E+02 -0.38751545072E-01  0.27147990532E+02  0.00000000000E+00 0.  1.
</event>
<event>
 4    1  0.3767413E+003  0.3009490E+02  0.7546771E-02  0.1418774E+00
          2   -1    0    0  502    0  0.00000000000E+00  0.00000000000E+00  0.18253753414E+03  0.18253753414E+03  0.00000000000E+00 0. -1.
          1   -1    0    0  501    0 -0.00000000000E+00 -0.00000000000E+00 -0.98800110732E+01  0.98800110732E+01  0.00000000000E+00 0. -1.
          2    1    1    2  501    0  0.27702320279E+02  0.11759435080E+02  0.15420885197E+03  0.15711802216E+03  0.00000000000E+00 0. -1.
          1    1    1    2  502    0 -0.27702320279E+02 -0.11759435080E+02  0.18448671091E+02  0.35299523046E+02  0.00000000000E+00 0. -1.
</event>
<event>
 4    1  0.3767413E+003  0.9104312E+02  0.7546771E-02  0.1180304E+00
          2   -1    0    0  502    0  0.00000000000E+00  0.00000000000E+00  0.12106789356E+03  0.12106789356E+03  0.00000000000E+00 0. -1.
          1   -1    0    0  501    0 -0.00000000000E+00 -0.00000000000E+00 -0.11782073843E+03  0.11782073843E+03  0.00000000000E+00 0. -1.
          2    1    1    2  501    0 -0.75160369892E+02  0.51378673763E+02  0.78931814816E+02  0.12049514808E+03  0.00000000000E+00 0. -1.
          1    1    1    2  502    0  0.75160369892E+02 -0.51378673763E+02 -0.75684659684E+02  0.11839348391E+03  0.00000000000E+00 0. -1.
</event>
<event>
 4    1  0.3767413E+003  0.2908270E+02  0.7546771E-02  0.1427739E+00
          2   -1    0    0  502    0  0.00000000000E+00  0.00000000000E+00  0.10942481526E+02  0.10942481526E+02  0.00000000000E+00 0.  1.
          1   -1    0    0  501    0 -0.00000000000E+00 -0.00000000000E+00 -0.85524613366E+02  0.85524613366E+02  0.00000000000E+00 0.  1.
          2    1    1    2  501    0  0.99743090317E+01  0.27318785496E+02 -0.52252880370E+02  0.59801056752E+02  0.00000000000E+00 0.  1.
          1    1    1    2  502    0 -0.99743090317E+01 -0.27318785496E+02 -0.22329251470E+02  0.36666038140E+02  0.00000000000E+00 0.  1.
</event>
<event>
 4    1  0.3767413E+003  0.2463130E+02  0.7546771E-02  0.1472970E+00
          2   -1    0    0  502    0  0.00000000000E+00  0.00000000000E+00  0.14408391932E+02  0.14408391932E+02  0.00000000000E+00 0.  1.
          1   -1    0    0  501    0 -0.00000000000E+00 -0.00000000000E+00 -0.64308098141E+03  0.64308098141E+03  0.00000000000E+00 0.  1.
          2    1    1    2  501    0  0.12851421062E+02  0.21012903737E+02  0.34634683626E+01  0.24873615738E+02  0.00000000000E+00 0.  1.
          1    1    1    2  502    0 -0.12851421062E+02 -0.21012903737E+02 -0.63213605784E+03  0.63261575760E+03  0.00000000000E+00 0.  1.
</event>
<event>
 4    1  0.3767413E+003  0.5663412E+02  0.7546771E-02  0.1271718E+00
          2   -1    0    0  502    0  0.00000000000E+00  0.00000000000E+00  0.39891120434E+02  0.39891120434E+02  0.00000000000E+00 0. -1.
          1   -1    0    0  501    0 -0.00000000000E+00 -0.00000000000E+00 -0.25515859492E+03  0.25515859492E+03  0.00000000000E+00 0. -1.
          2    1    1    2  501    0 -0.56519339517E+02  0.36037990632E+01  0.14454510706E+02  0.58449602110E+02  0.00000000000E+00 0. -1.
          1    1    1    2  502    0  0.56519339517E+02 -0.36037990632E+01 -0.22972198520E+03  0.23660011325E+03  0.00000000000E+00 0. -1.
</event>
<event>
 4    1  0.3767413E+003  0.2321008E+02  0.7546771E-02  0.1489877E+00
          2   -1    0    0  502    0  0.00000000000E+00  0.00000000000E+00  0.29730428626E+01  0.29730428626E+01  0.00000000000E+00 0. -1.
          1   -1    0    0  501    0 -0.00000000000E+00 -0.00000000000E+00 -0.58502465413E+03  0.58502465413E+03  0.00000000000E+00 0.  1.
          2    1    1    2  501    0  0.21848621170E+02  0.78323493648E+01 -0.46763584097E+02  0.52206711649E+02  0.00000000000E+00 0. -1.
          1    1    1    2  502    0 -0.21848621170E+02 -0.78323493648E+01 -0.53528802717E+03  0.53579098534E+03  0.00000000000E+00 0.  1.
</event>
<event>
 4    1  0.3767413E+003  0.2052936E+02  0.7546771E-02  0.1526092E+00
          2   -1    0    0  502    0  0.00000000000E+00  0.00000000000E+00  0.25447316153E+03  0.25447316153E+03  0.00000000000E+00 0. -1.
          1   -1    0    0  501    0 -0.00000000000E+00 -0.00000000000E+00 -0.24737174167E+02  0.24737174167E+02  0.00000000000E+00 0.  1.
          2    1    1    2  501    0 -0.18679096784E+02  0.85173993166E+01  0.24971883368E+03  0.25056127123E+03  0.00000000000E+00 0. -1.
          1    1    1    2  502    0  0.18679096784E+02 -0.85173993166E+01 -0.19982846316E+02  0.28649064465E+02  0.00000000000E+00 0.  1.
</event>
<event>
 4    1  0.3767413E+003  0.2048179E+02  0.7546771E-02  0.1526794E+00
          2   -1    0    0  502    0  0.00000000000E+00  0.00000000000E+00  0.37048084687E+02  0.37048084687E+02  0.00000000000E+00 0.  1.
          1   -1    0    0  501    0 -0.00000000000E+00 -0.00000000000E+00 -0.14969698768E+03  0.14969698768E+03  0.00000000000E+00 0. -1.
          2    1    1    2  501    0  0.15209549626E+02 -0.13717635142E+02  0.33447257925E+02  0.39220185828E+02  0.00000000000E+00 0.  1.
          1    1    1    2  502    0 -0.15209549626E+02  0.13717635142E+02 -0.14609616092E+03  0.14752488654E+03  0.00000000000E+00 0. -1.
</event>
<event>
 4    1  0.3767413E+003  0.2116939E+02  0.7546771E-02  0.1516860E+00
          2   -1    0    0  502    0  0.00000000000E+00  0.00000000000E+00  0.19051058352E+03  0.19051058352E+03  0.00000000000E+00 0. -1.
          1   -1    0    0  501    0 -0.00000000000E+00 -0.00000000000E+00 -0.77928148503E+02  0.77928148503E+02  0.00000000000E+00 0.  1.
          2    1    1    2  501    0 -0.31882052908E-01 -0.21169365260E+02  0.18846929920E+03  0.18965447473E+03  0.00000000000E+00 0. -1.
          1    1    1    2  502    0  0.31882052908E-01  0.21169365260E+02 -0.75886864185E+02  0.78784257297E+02  0.00000000000E+00 0.  1.
</event>
<event>
 4    1  0.3767413E+003  0.2527502E+02  0.7546771E-02  0.1465750E+00
          2   -1    0    0  502    0  0.00000000000E+00  0.00000000000E+00  0.73153670982E+01  0.73153670982E+01  0.00000000000E+00 0.  1.
          1   -1    0    0  501    0 -0.00000000000E+00 -0.00000000000E+00 -0.59093918698E+03  0.59093918698E+03  0.00000000000E+00 0.  1.
          2    1    1    2  501    0 -0.23456254884E+02 -0.94143813107E+01 -0.15669639760E+02  0.29738259513E+02  0.00000000000E+00 0.  1.
          1    1    1    2  502    0  0.23456254884E+02  0.94143813107E+01 -0.56795418012E+03  0.56851629456E+03  0.00000000000E+00 0.  1.
</event>
<event>
 4    1  0.3767413E+003  0.2724042E+02  0.7546771E-02  0.1445208E+00
          2   -1    0    0  502    0  0.00000000000E+00  0.00000000000E+00  0.12037082759E+02  0.12037082759E+02  0.00000000000E+00 0.  1.
          1   -1    0    0  501    0 -0.00000000000E+00 -0.00000000000E+00 -0.68607412233E+02  0.68607412233E+02  0.00000000000E+00 0. -1.
          2    1    1    2  501    0  0.22829036741E+02 -0.14861859193E+02 -0.41129253314E+02  0.49332091536E+02  0.00000000000E+00 0.  1.
          1    1    1    2  502    0 -0.22829036741E+02  0.14861859193E+02 -0.15441076160E+02  0.31312403456E+02  0.00000000000E+00 0. -1.
</event>
<event>
 4    1  0.3767413E+003  0.6001756E+02  0.7546771E-02  0.1259773E+00
          2   -1    0    0  502    0  0.00000000000E+00  0.00000000000E+00  0.12567539920E+04  0.12567539920E+04  0.00000000000E+00 0.  1.
          1   -1    0    0  501    0 -0.00000000000E+00 -0.00000000000E+00 -0.80227013706E+03  0.80227013706E+03  0.00000000000E+00 0. -1.
          2    1    1    2  501    0  0.85918648111E+01 -0.59399387338E+02  0.12549133234E+04  0.12563477053E+04  0.00000000000E+00 0.  1.
          1    1    1    2  502    0 -0.85918648111E+01  0.59399387338E+02 -0.80042946844E+03  0.80267642378E+03  0.00000000000E+00 0. -1.
</event>
<event>
 4    1  0.3767413E+003  0.2250987E+02  0.7546771E-02  0.1498746E+00
          2   -1    0    0  502    0  0.00000000000E+00  0.00000000000E+00  0.23926284761E+02  0.23926284761E+02  0.00000000000E+00 0.  1.
          1   -1    0    0  501    0 -0.00000000000E+00 -0.00000000000E+00 -0.25780454465E+03  0.25780454465E+03  0.00000000000E+00 0. -1.
          2    1    1    2  501    0 -0.15535913960E+02  0.16288946352E+02  0.18016639636E+02  0.28832164324E+02  0.00000000000E+00 0.  1.
          1    1    1    2  502    0  0.15535913960E+02 -0.16288946352E+02 -0.25189489953E+03  0.25289866509E+03  0.00000000000E+00 0. -1.
</event>
<event>
 4    1  0.3767413E+003  0.2781012E+02  0.7546771E-02  0.1439636E+00
          2   -1    0    0  502    0  0.00000000000E+00  0.00000000000E+00  0.12629556567E+04  0.12629556567E+04  0.00000000000E+00 0. -1.
          1   -1    0    0  501    0 -0.00000000000E+00 -0.00000000000E+00 -0.70895726771E+00  0.70895726771E+00  0.00000000000E+00 0. -1.
          2    1    1    2  501    0  0.26752525717E+02  0.75963761432E+01  0.86432967919E+03  0.86477696367E+03  0.00000000000E+00 0. -1.
          1    1    1    2  502    0 -0.26752525717E+02 -0.75963761432E+01  0.39791702020E+03  0.39888765026E+03  0.00000000000E+00 0. -1.
</event>
<event>
 4    1  0.3767413E+003  0.2397958E+02  0.7546771E-02  0.1480551E+00
          2   -1    0    0  502    0  0.00000000000E+00  0.00000000000E+00  0.96433842757E+03  0.96433842757E+03  0.00000000000E+00 0.  1.
          1   -1    0    0  501    0 -0.00000000000E+00 -0.00000000000E+00 -0.42351971468E+01  0.42351971468E+01  0.00000000000E+00 0. -1.
          2    1    1    2  501    0  0.30710870186E+01  0.23782105685E+02  0.92895371629E+03  0.92926316355E+03  0.00000000000E+00 0.  1.
          1    1    1    2  502    0 -0.30710870186E+01 -0.23782105685E+02  0.31149514137E+02  0.39310461168E+02  0.00000000000E+00 0. -1.
</event>
<event>
 4    1  0.3767413E+003  0.2707047E+02  0.7546771E-02  0.1446901E+00
          2   -1    0    0  502    0  0.00000000000E+00  0.00000000000E+00  0.21602023598E+03  0.21602023598E+03  0.00000000000E+00 0.  1.
          1   -1    0    0  501    0 -0.00000000000E+00 -0.00000000000E+00 -0.33848627558E+03  0.33848627558E+03  0.00000000000E+00 0. -1.
          2    1    1    2  501    0  0.10900050104E+02  0.24779011617E+02  0.21462741568E+03  0.21632784857E+03  0.00000000000E+00 0.  1.
          1    1    1    2  502    0 -0.10900050104E+02 -0.24779011617E+02 -0.33709345528E+03  0.33817866299E+03  0.00000000000E+00 0. -1.
</event>
<event>
 4    1  0.3767413E+003  0.5588511E+02  0.7546771E-02  0.1274493E+00
          2   -1    0    0  502    0  0.00000000000E+00  0.00000000000E+00  0.67458602208E+03  0.67458602208E+03  0.00000000000E+00 0.  1.
          1   -1    0    0  501    0 -0.00000000000E+00 -0.00000000000E+00 -0.81222622750E+02  0.81222622750E+02  0.00000000000E+00 0. -1.
          2    1    1    2  501    0 -0.45613082770E+02  0.32289188124E+02  0.66365766093E+03  0.66600648337E+03  0.00000000000E+00 0.  1.
          1    1    1    2  502    0  0.45613082770E+02 -0.32289188124E+02 -0.70294261594E+02  0.89802161459E+02  0.00000000000E+00 0. -1.
</event>
<event>
 4    1  0.3767413E+003  0.3971217E+02  0.7546771E-02  0.1350181E+00
          2   -1    0    0  502    0  0.00000000000E+00  0.00000000000E+00  0.12766814022E+04  0.12766814022E+04  0.00000000000E+00 0. -1.
          1   -1    0    0  501    0 -0.00000000000E+00 -0.00000000000E+00 -0.51745336502E+01  0.51745336502E+01  0.00000000000E+00 0.  1.
          2    1    1    2  501    0 -0.24019976313E+02 -0.31624315600E+02  0.11949708552E+04  0.11956305455E+04  0.00000000000E+00 0. -1.
          1    1    1    2  502    0  0.24019976313E+02  0.31624315600E+02  0.76536013397E+02  0.86225390379E+02  0.00000000000E+00 0.  1.
</event>
<event>
 4    1  0.3767413E+003  0.2032702E+02  0.7546771E-02  0.1529094E+00
          2   -1    0    0  502    0  0.00000000000E+00  0.00000000000E+00  0.13719370399E+04  0.13719370399E+04  0.00000000000E+00 0.  1.
          1   -1    0    0  501    0 -0.00000000000E+00 -0.00000000000E+00 -0.55615914011E+01  0.55615914011E+01  0.00000000000E+00 0. -1.
          2    1    1    2  501    0 -0.19915230009E+02 -0.40707710918E+01  0.13530289458E+04  0.13531816270E+04  0.00000000000E+00 0.  1.
          1    1    1    2  502    0  0.19915230009E+02  0.40707710918E+01  0.13346502755E+02  0.24317004326E+02  0.00000000000E+00 0. -1.
</event>
<event>
 4    1  0.3767413E+003  0.9071981E+02  0.7546771E-02  0.1180939E+00
          2   -1    0    0  502    0  0.00000000000E+00  0.00000000000E+00  0.26861373747E+02  0.26861373747E+02  0.00000000000E+00 0. -1.
          1   -1    0    0  501    0 -0.00000000000E+00 -0.00000000000E+00 -0.39793169526E+03  0.39793169526E+03  0.00000000000E+00 0.  1.
          2    1    1    2  501    0 -0.67274644239E+02  0.60862190998E+02 -0.83664250820E+02  0.12340903904E+03  0.00000000000E+00 0. -1.
          1    1    1    2  502    0  0.67274644239E+02 -0.60862190998E+02 -0.28740607070E+03  0.30138402997E+03  0.00000000000E+00 0.  1.
</event>
<event>
 4    1  0.3767413E+003  0.3557915E+02  0.7546771E-02  0.1376537E+00
          2   -1    0    0  502    0  0.00000000000E+00  0.00000000000E+00  0.56056817937E+02  0.56056817937E+02  0.00000000000E+00 0. -1.
          1   -1    0    0  501    0 -0.00000000000E+00 -0.00000000000E+00 -0.82812065636E+03  0.82812065636E+03  0.00000000000E+00 0.  1.
          2    1    1    2  501    0  0.34918111871E+02 -0.68264987148E+01  0.49987500294E+02  0.61356546570E+02  0.00000000000E+00 0. -1.
          1    1    1    2  502    0 -0.34918111871E+02  0.68264987148E+01 -0.82205133871E+03  0.82282092772E+03  0.00000000000E+00 0.  1.
</event>
<event>
 4    1  0.3767413E+003  0.2579101E+02  0.7546771E-02  0.1460146E+00
          2   -1    0    0  502    0  0.00000000000E+00  0.00000000000E+00  0.49528038755E+02  0.49528038755E+02  0.00000000000E+00 0. -1.
          1   -1    0    0  501    0 -0.00000000000E+00 -0.00000000000E+00 -0.62203342925E+02  0.62203342925E+02  0.00000000000E+00 0. -1.
          2    1    1    2  501    0 -0.20225015480E+02  0.16003908131E+02  0.43130791369E+02  0.50253770911E+02  0.00000000000E+00 0. -1.
          1    1    1    2  502    0  0.20225015480E+02 -0.16003908131E+02 -0.55806095539E+02  0.61477610770E+02  0.00000000000E+00 0. -1.
</event>
<event>
 4    1  0.3767413E+003  0.3787838E+02  0.7546771E-02  0.1361388E+00
          2   -1    0    0  502    0  0.00000000000E+00  0.00000000000E+00  0.40516260854E+03  0.40516260854E+03  0.00000000000E+00 0.  1.
          1   -1    0    0  501    0 -0.00000000000E+00 -0.00000000000E+00 -0.64916901588E+01  0.64916901588E+01  0.00000000000E+00 0. -1.
          2    1    1    2  501    0  0.31273602573E+02 -0.21371315313E+02  0.33809700394E+03  0.34021222113E+03  0.00000000000E+00 0.  1.
          1    1    1    2  502    0 -0.31273602573E+02  0.21371315313E+02  0.60573914447E+02  0.71442077570E+02  0.00000000000E+00 0. -1.
</event>
<event>
 4    1  0.3767413E+003  0.2725773E+02  0.7546771E-02  0.1445036E+00
          2   -1    0    0  502    0  0.00000000000E+00  0.00000000000E+00  0.24791719339E+03  0.24791719339E+03  0.00000000000E+00 0.  1.
          1   -1    0    0  501    0 -0.00000000000E+00 -0.00000000000E+00 -0.80633750022E+02  0.80633750022E+02  0.00000000000E+00 0.  1.
          2    1    1    2  501    0 -0.25166181041E+02 -0.10471254756E+02  0.24483548623E+03  0.24634812596E+03  0.00000000000E+00 0.  1.
          1    1    1    2  502    0  0.25166181041E+02  0.10471254756E+02 -0.77552042866E+02  0.82202817452E+02  0.00000000000E+00 0.  1.
</event>
<event>
 4    1  0.3767413E+003  0.3802833E+02  0.7546771E-02  0.1360444E+00
          2   -1    0    0  502    0  0.00000000000E+00  0.00000000000E+00  0.30144145017E+02  0.30144145017E+02  0.00000000000E+00 0.  1.
          1   -1    0    0  501    0 -0.00000000000E+00 -0.00000000000E+00 -0.72136541160E+02  0.72136541160E+02  0.00000000000E+00 0.  1.
          2    1    1    2  501    0  0.88801479235E+01 -0.36976976384E+02  0.86010776983E+01  0.38988874660E+02  0.00000000000E+00 0.  1.
          1    1    1    2  502    0 -0.88801479235E+01  0.36976976384E+02 -0.50593473841E+02  0.63291811516E+02  0.00000000000E+00 0.  1.
</event>
<event>
 4    1  0.3767413E+003  0.3415244E+02  0.7546771E-02  0.1386622E+00
          2   -1    0    0  502    0  0.00000000000E+00  0.00000000000E+00  0.55146886786E+02  0.55146886786E+02  0.00000000000E+00 0.  1.
          1   -1    0    0  501    0 -0.00000000000E+00 -0.00000000000E+00 -0.65374101661E+03  0.65374101661E+03  0.00000000000E+00 0.  1.
          2    1    1    2  501    0 -0.18557356888E+02 -0.28670785689E+02  0.49366052465E+02  0.60028298182E+02  0.00000000000E+00 0.  1.
          1    1    1    2  502    0  0.18557356888E+02  0.28670785689E+02 -0.64796018229E+03  0.64885960521E+03  0.00000000000E+00 0.  1.
</event>
<event>
 4    1  0.3767413E+003  0.2778711E+02  0.7546771E-02  0.1439858E+00
          2   -1    0    0  502    0  0.00000000000E+00  0.00000000000E+00  0.11884706234E+04  0.11884706234E+04  0.00000000000E+00 0. -1.
          1   -1    0    0  501    0 -0.00000000000E+00 -0.00000000000E+00 -0.18951459753E+01  0.18951459753E+01  0.00000000000E+00 0.  1.
          2    1    1    2  501    0  0.29350643155E+00  0.27785556191E+02  0.10757855790E+04  0.10761443841E+04  0.00000000000E+00 0. -1.
          1    1    1    2  502    0 -0.29350643155E+00 -0.27785556191E+02  0.11078989842E+03  0.11422138535E+03  0.00000000000E+00 0.  1.
</event>
<event>
 4    1  0.3767413E+003  0.2393350E+02  0.7546771E-02  0.1481097E+00
          2   -1    0    0  502    0  0.00000000000E+00  0.00000000000E+00  0.14303672933E+02  0.14303672933E+02  0.00000000000E+00 0. -1.
          1   -1    0    0  501    0 -0.00000000000E+00 -0.00000000000E+00 -0.64840153978E+03  0.64840153978E+03  0.00000000000E+00 0. -1.
          2    1    1    2  501    0  0.29934049496E+01 -0.23745562630E+02  0.39081189728E+01  0.24250476525E+02  0.00000000000E+00 0. -1.
          1    1    1    2  502    0 -0.29934049496E+01  0.23745562630E+02 -0.63800598582E+03  0.63845473619E+03  0.00000000000E+00 0. -1.
</event>
<event>
 4    1  0.3767413E+003  0.4333167E+02  0.7546771E-02  0.1329996E+00
          2   -1    0    0  502    0  0.00000000000E+00  0.00000000000E+00  0.20998031078E+04  0.20998031078E+04  0.00000000000E+00 0.  1.
          1   -1    0    0  501    0 -0.00000000000E+00 -0.00000000000E+00 -0.96080629356E+00  0.96080629356E+00  0.00000000000E+00 0.  1.
          2    1    1    2  501    0  0.43295698505E+02 -0.17652620335E+01  0.13259897862E+04  0.13266976094E+04  0.00000000000E+00 0.  1.
          1    1    1    2  502    0 -0.43295698505E+02  0.17652620335E+01  0.77285251523E+03  0.77406630463E+03  0.00000000000E+00 0.  1.
</event>
<event>
 4    1  0.3767413E+003  0.2342712E+02  0.7546771E-02  0.1487203E+00
          2   -1    0    0  502    0  0.00000000000E+00  0.00000000000E+00  0.35985685410E+03  0.35985685410E+03  0.00000000000E+00 0.  1.
          1   -1    0    0  501    0 -0.00000000000E+00 -0.00000000000E+00 -0.30811975803E+02  0.30811975803E+02  0.00000000000E+00 0.  1.
          2    1    1    2  501    0 -0.77032397965E+01 -0.22124422825E+02  0.35496116247E+03  0.35573340699E+03  0.00000000000E+00 0.  1.
          1    1    1    2  502    0  0.77032397965E+01  0.22124422825E+02 -0.25916284172E+02  0.34935422911E+02  0.00000000000E+00 0.  1.
</event>
<event>
 4    1  0.3767413E+003  0.2316447E+02  0.7546771E-02  0.1490443E+00
          2   -1    0    0  502    0  0.00000000000E+00  0.00000000000E+00  0.55299670742E+03  0.55299670742E+03  0.00000000000E+00 0.  1.
          1   -1    0    0  501    0 -0.00000000000E+00 -0.00000000000E+00 -0.99667735735E+01  0.99667735735E+01  0.00000000000E+00 0.  1.
          2    1    1    2  501    0  0.21312342113E+02 -0.90761688396E+01  0.53894378836E+03  0.53944137752E+03  0.00000000000E+00 0.  1.
          1    1    1    2  502    0 -0.21312342113E+02  0.90761688396E+01  0.40861454909E+01  0.23522103479E+02  0.00000000000E+00 0.  1.
</event>
<event>
 4    1  0.3767413E+003  0.3873420E+02  0.7546771E-02  0.1356067E+00
          2   -1    0    0  502    0  0.00000000000E+00  0.00000000000E+00  0.12072462400E+03  0.12072462400E+03  0.00000000000E+00 0. -1.
          1   -1    0    0  501    0 -0.00000000000E+00 -0.00000000000E+00 -0.74912268837E+02  0.74912268837E+02  0.00000000000E+00 0.  1.
          2    1    1    2  501    0  0.43782319310E+01  0.38485962415E+02  0.11224298346E+03  0.11873847546E+03  0.00000000000E+00 0. -1.
          1    1    1    2  502    0 -0.43782319310E+01 -0.38485962415E+02 -0.66430628304E+02  0.76898417374E+02  0.00000000000E+00 0.  1.
</event>
<event>
 4    1  0.3767413E+003  0.2099567E+02  0.7546771E-02  0.1519327E+00
          2   -1    0    0  502    0  0.00000000000E+00  0.00000000000E+00  0.16191486391E+02  0.16191486391E+02  0.00000000000E+00 0. -1.
          1   -1    0    0  501    0 -0.00000000000E+00 -0.00000000000E+00 -0.11585923186E+03  0.11585923186E+03  0.00000000000E+00 0. -1.
          2    1    1    2  501    0  0.14357742865E+02  0.15319033233E+02 -0.10758301462E+03  0.10961260236E+03  0.00000000000E+00 0. -1.
          1    1    1    2  502    0 -0.14357742865E+02 -0.15319033233E+02  0.79152691517E+01  0.22438115899E+02  0.00000000000E+00 0. -1.
</event>
<event>
 4    1  0.3767413E+003  0.2846647E+02  0.7546771E-02  0.1433408E+00
          2   -1    0    0  502    0  0.00000000000E+00  0.00000000000E+00  0.95716727056E+01  0.95716727056E+01  0.00000000000E+00 0.  1.
          1   -1    0    0  501    0 -0.00000000000E+00 -0.00000000000E+00 -0.12380116078E+04  0.12380116078E+04  0.00000000000E+00 0. -1.
          2    1    1    2  501    0 -0.27679369385E+02 -0.66477473911E+01 -0.12134685742E+02  0.30944961350E+02  0.00000000000E+00 0.  1.
          1    1    1    2  502    0  0.27679369385E+02  0.66477473911E+01 -0.12163052494E+04  0.12166383192E+04  0.00000000000E+00 0. -1.
</event>
<event>
 4    1  0.3767413E+003  0.7063266E+02  0.7546771E-02  0.1227442E+00
          2   -1    0    0  502    0  0.00000000000E+00  0.00000000000E+00  0.37644841622E+02  0.37644841622E+02  0.00000000000E+00 0.  1.
          1   -1    0    0  501    0 -0.00000000000E+00 -0.00000000000E+00 -0.19266253478E+03  0.19266253478E+03  0.00000000000E+00 0. -1.
          2    1    1    2  501    0  0.57201732282E+02 -0.41435899637E+02 -0.13174416141E+02  0.71850798155E+02  0.00000000000E+00 0.  1.
          1    1    1    2  502    0 -0.57201732282E+02  0.41435899637E+02 -0.14184327702E+03  0.15845657825E+03  0.00000000000E+00 0. -1.
</event>
<event>
 4    1  0.3767413E+003  0.2603957E+02  0.7546771E-02  0.1457502E+00
          2   -1    0    0  502    0  0.00000000000E+00  0.00000000000E+00  0.92115670118E+03  0.92115670118E+03  0.00000000000E+00 0.  1.
          1   -1    0    0  501    0 -0.00000000000E+00 -0.00000000000E+00 -0.19770799642E+01  0.19770799642E+01  0.00000000000E+00 0. -1.
          2    1    1    2  501    0 -0.21016876735E+01  0.25954615594E+02  0.82527361774E+03  0.82568432424E+03  0.00000000000E+00 0.  1.
          1    1    1    2  502    0  0.21016876735E+01 -0.25954615594E+02  0.93906003480E+02  0.97449456906E+02  0.00000000000E+00 0. -1.
</event>
<event>
 4    1  0.3767413E+003  0.4492438E+02  0.7546771E-02  0.1321818E+00
          2   -1    0    0  502    0  0.00000000000E+00  0.00000000000E+00  0.35006155093E+03  0.35006155093E+03  0.00000000000E+00 0.  1.
          1   -1    0    0  501    0 -0.00000000000E+00 -0.00000000000E+00 -0.74116484660E+01  0.74116484660E+01  0.00000000000E+00 0. -1.
          2    1    1    2  501    0 -0.28085030441E+02  0.35063247411E+02  0.25556538340E+03  0.25948384429E+03  0.00000000000E+00 0.  1.
          1    1    1    2  502    0  0.28085030441E+02 -0.35063247411E+02  0.87084519061E+02  0.97989355105E+02  0.00000000000E+00 0. -1.
</event>
<event>
 4    1  0.3767413E+003  0.2697173E+02  0.7546771E-02  0.1447892E+00
          2   -1    0    0  502    0  0.00000000000E+00  0.00000000000E+00  0.37297318819E+02  0.37297318819E+02  0.00000000000E+00 0. -1.
          1   -1    0    0  501    0 -0.00000000000E+00 -0.00000000000E+00 -0.76231462725E+03  0.76231462725E+03  0.00000000000E+00 0.  1.
          2    1    1    2  501    0  0.25810107586E+02 -0.78302253673E+01  0.32149420416E+02  0.41964977254E+02  0.00000000000E+00 0. -1.
          1    1    1    2  502    0 -0.25810107586E+02  0.78302253673E+01 -0.75716672884E+03  0.75764696881E+03  0.00000000000E+00 0.  1.
</event>
<event>
 4    1  0.3767413E+003  0.2873184E+02  0.7546771E-02  0.1430946E+00
          2   -1    0    0  502    0  0.00000000000E+00  0.00000000000E+00  0.88062120437E+02  0.88062120437E+02  0.00000000000E+00 0.  1.
          1   -1    0    0  501    0 -0.00000000000E+00 -0.00000000000E+00 -0.93965646087E+01  0.93965646087E+01  0.00000000000E+00 0.  1.
          2    1    1    2  501    0  0.28521912715E+02  0.34667178772E+01  0.36958911068E+02  0.46813232585E+02  0.00000000000E+00 0.  1.
          1    1    1    2  502    0 -0.28521912715E+02 -0.34667178772E+01  0.41706644760E+02  0.50645452460E+02  0.00000000000E+00 0.  1.
</event>
<event>
 4    1  0.3767413E+003  0.2291294E+02  0.7546771E-02  0.1493594E+00
          2   -1    0    0  502    0  0.00000000000E+00  0.00000000000E+00  0.36027587592E+03  0.36027587592E+03  0.00000000000E+00 0. -1.
          1   -1    0    0  501    0 -0.00000000000E+00 -0.00000000000E+00 -0.41907073482E+01  0.41907073482E+01  0.00000000000E+00 0.  1.
          2    1    1    2  501    0  0.19478156266E+02 -0.12066650478E+02  0.32522037363E+03  0.32602652354E+03  0.00000000000E+00 0. -1.
          1    1    1    2  502    0 -0.19478156266E+02  0.12066650478E+02  0.30864794936E+02  0.38440059725E+02  0.00000000000E+00 0.  1.
</event>
<event>
 4    1  0.3767413E+003  0.2132573E+02  0.7546771E-02  0.1514665E+00
          2   -1    0    0  502    0  0.00000000000E+00  0.00000000000E+00  0.56913398758E+02  0.56913398758E+02  0.00000000000E+00 0. -1.
          1   -1    0    0  501    0 -0.00000000000E+00 -0.00000000000E+00 -0.60530809929E+03  0.60530809929E+03  0.00000000000E+00 0.  1.
          2    1    1    2  501    0 -0.62949761384E+01  0.20375481306E+02  0.54720590056E+02  0.58729293705E+02  0.00000000000E+00 0. -1.
          1    1    1    2  502    0  0.62949761384E+01 -0.20375481306E+02 -0.60311529059E+03  0.60349220434E+03  0.00000000000E+00 0.  1.
</event>
<event>
 4    1  0.3767413E+003  0.6189096E+02  0.7546771E-02  0.1253540E+00
          2   -1    0    0  502    0  0.00000000000E+00  0.00000000000E+00  0.25899568761E+04  0.25899568761E+04  0.00000000000E+00 0. -1.
          1   -1    0    0  501    0 -0.00000000000E+00 -0.00000000000E+00 -0.19047974874E+02  0.19047974874E+02  0.00000000000E+00 0. -1.
          2    1    1    2  501    0 -0.44340484845E+02  0.43178836808E+02  0.25382896962E+04  0.25390441257E+04  0.00000000000E+00 0. -1.
          1    1    1    2  502    0  0.44340484845E+02 -0.43178836808E+02  0.32619205073E+02  0.69960725296E+02  0.00000000000E+00 0. -1.
</event>
<event>
 4    1  0.3767413E+003  0.7043029E+02  0.7546771E-02  0.1227997E+00
          2   -1    0    0  502    0  0.00000000000E+00  0.00000000000E+00  0.16777872524E+03  0.16777872524E+03  0.00000000000E+00 0.  1.
          1   -1    0    0  501    0 -0.00000000000E+00 -0.00000000000E+00 -0.30267993878E+02  0.30267993878E+02  0.00000000000E+00 0.  1.
          2    1    1    2  501    0 -0.62457181909E+02  0.32550355649E+02  0.83843469718E+02  0.10949955543E+03  0.00000000000E+00 0.  1.
          1    1    1    2  502    0  0.62457181909E+02 -0.32550355649E+02  0.53667261644E+02  0.88547163688E+02  0.00000000000E+00 0.  1.
</event>
<event>
 4    1  0.3767413E+003  0.2135121E+02  0.7546771E-02  0.1514309E+00
          2   -1    0    0  502    0  0.00000000000E+00  0.00000000000E+00  0.30967490924E+03  0.30967490924E+03  0.00000000000E+00 0. -1.
          1   -1    0    0  501    0 -0.00000000000E+00 -0.00000000000E+00 -0.85197772217E+01  0.85197772217E+01  0.00000000000E+00 0. -1.
          2    1    1    2  501    0  0.79130441513E+01 -0.19830734122E+02  0.29527859742E+03  0.29604953028E+03  0.00000000000E+00 0. -1.
          1    1    1    2  502    0 -0.79130441513E+01  0.19830734122E+02  0.58765345995E+01  0.22145156185E+02  0.00000000000E+00 0. -1.
</event>
<event>
 4    1  0.3767413E+003  0.2791773E+02  0.7546771E-02  0.1438601E+00
          2   -1    0    0  502    0  0.00000000000E+00  0.00000000000E+00  0.47399321764E+03  0.47399321764E+03  0.00000000000E+00 0. -1.
          1   -1    0    0  501    0 -0.00000000000E+00 -0.00000000000E+00 -0.37861339912E+02  0.37861339912E+02  0.00000000000E+00 0.  1.
          2    1    1    2  501    0 -0.25972958330E+02 -0.10237428771E+02  0.46837404099E+03  0.46920533009E+03  0.00000000000E+00 0. -1.
          1    1    1    2  502    0  0.25972958330E+02  0.10237428771E+02 -0.32242163255E+02  0.42649227468E+02  0.00000000000E+00 0.  1.
</event>
<event>
 4    1  0.3767413E+003  0.2880035E+02  0.7546771E-02  0.1430316E+00
          2   -1    0    0  502    0  0.00000000000E+00  0.00000000000E+00  0.33219088227E+01  0.33219088227E+01  0.00000000000E+00 0.  1.
          1   -1    0    0  501    0 -0.00000000000E+00 -0.00000000000E+00 -0.17690555335E+04  0.17690555335E+04  0.00000000000E+00 0.  1.
          2    1    1    2  501    0 -0.14868727593E+02 -0.24665381323E+02 -0.61596593351E+02  0.67997061764E+02  0.00000000000E+00 0.  1.
          1    1    1    2  502    0  0.14868727593E+02  0.24665381323E+02 -0.17041370313E+04  0.17043803805E+04  0.00000000000E+00 0.  1.
</event>
<event>
 4    1  0.3767413E+003  0.2076721E+02  0.7546771E-02  0.1522615E+00
          2   -1    0    0  502    0  0.00000000000E+00  0.00000000000E+00  0.83829923742E+01  0.83829923742E+01  0.00000000000E+00 0. -1.
          1   -1    0    0  501    0 -0.00000000000E+00 -0.00000000000E+00 -0.87780650787E+03  0.87780650787E+03  0.00000000000E+00 0. -1.
          2    1    1    2  501    0  0.66375717687E+01  0.19677893996E+02 -0.47975354521E+01  0.21314155332E+02  0.00000000000E+00 0. -1.
          1    1    1    2  502    0 -0.66375717687E+01 -0.19677893996E+02 -0.86462598004E+03  0.86487534491E+03  0.00000000000E+00 0. -1.
</event>
<event>
 4    1  0.4692509E+003  0.2476130E+02  0.7546771E-02  0.1471491E+00
          2   -1    0    0  502    0  0.00000000000E+00  0.00000000000E+00  0.70378542760E+03  0.70378542760E+03  0.00000000000E+00 0.  1.
          1   -1    0    0  501    0 -0.00000000000E+00 -0.00000000000E+00 -0.74855196746E+03  0.74855196746E+03  0.00000000000E+00 0. -1.
          2    1    1    2  501    0 -0.14390787420E+02 -0.20150121880E+02  0.70336274074E+03  0.70379845641E+03  0.00000000000E+00 0.  1.
          1    1    1    2  502    0  0.14390787420E+02  0.20150121880E+02 -0.74812928061E+03  0.74853893865E+03  0.00000000000E+00 0. -1.
</event>
<event>
 4    1  0.3767413E+003  0.2784704E+02  0.7546771E-02  0.1439280E+00
          2   -1    0    0  502    0  0.00000000000E+00  0.00000000000E+00  0.87378498886E+03  0.87378498886E+03  0.00000000000E+00 0.  1.
          1   -1    0    0  501    0 -0.00000000000E+00 -0.00000000000E+00 -0.44271614720E+02  0.44271614720E+02  0.00000000000E+00 0. -1.
          2    1    1    2  501    0  0.13342754690E+02 -0.24442349816E+02  0.86916085308E+03  0.86960683420E+03  0.00000000000E+00 0.  1.
          1    1    1    2  502    0 -0.13342754690E+02  0.24442349816E+02 -0.39647478935E+02  0.48449769382E+02  0.00000000000E+00 0. -1.
</event>
<event>
 4    1  0.3767413E+003  0.2975948E+02  0.7546771E-02  0.1421698E+00
          2   -1    0    0  502    0  0.00000000000E+00  0.00000000000E+00  0.37949834120E+01  0.37949834120E+01  0.00000000000E+00 0.  1.
          1   -1    0    0  501    0 -0.00000000000E+00 -0.00000000000E+00 -0.60774317113E+03  0.60774317113E+03  0.00000000000E+00 0.  1.
          2    1    1    2  501    0  0.28160896259E+02 -0.96223846702E+01 -0.61987357134E+02  0.68760881388E+02  0.00000000000E+00 0.  1.
          1    1    1    2  502    0 -0.28160896259E+02  0.96223846702E+01 -0.54196083058E+03  0.54277727315E+03  0.00000000000E+00 0.  1.
</event>
<event>
 4    1  0.3767413E+003  0.2316382E+02  0.7546771E-02  0.1490451E+00
          2   -1    0    0  502    0  0.00000000000E+00  0.00000000000E+00  0.70665270432E+01  0.70665270432E+01  0.00000000000E+00 0.  1.
          1   -1    0    0  501    0 -0.00000000000E+00 -0.00000000000E+00 -0.25660790622E+03  0.25660790622E+03  0.00000000000E+00 0.  1.
          2    1    1    2  501    0  0.21010831834E+02  0.97523071706E+01 -0.14145166363E+02  0.27141265279E+02  0.00000000000E+00 0.  1.
          1    1    1    2  502    0 -0.21010831834E+02 -0.97523071706E+01 -0.23539621281E+03  0.23653316798E+03  0.00000000000E+00 0.  1.
</event>
<event>
 4    1  0.3767413E+003  0.3959077E+02  0.7546771E-02  0.1350901E+00
          2   -1    0    0  502    0  0.00000000000E+00  0.00000000000E+00  0.12199553155E+04  0.12199553155E+04  0.00000000000E+00 0.  1.
          1   -1    0    0  501    0 -0.00000000000E+00 -0.00000000000E+00 -0.62802608936E+01  0.62802608936E+01  0.00000000000E+00 0.  1.
          2    1    1    2  501    0 -0.27640679867E+02 -0.28344701627E+02  0.11536542168E+04  0.11543333493E+04  0.00000000000E+00 0.  1.
          1    1    1    2  502    0  0.27640679867E+02  0.28344701627E+02  0.60020837778E+02  0.71902227097E+02  0.00000000000E+00 0.  1.
</event>
<event>
 4    1  0.3767413E+003  0.2422296E+02  0.7546771E-02  0.1477687E+00
          2   -1    0    0  502    0  0.00000000000E+00  0.00000000000E+00  0.19741043069E+03  0.19741043069E+03  0.00000000000E+00 0.  1.
          1   -1    0    0  501    0 -0.00000000000E+00 -0.00000000000E+00 -0.31622277858E+01  0.31622277858E+01  0.00000000000E+00 0.  1.
          2    1    1    2  501    0 -0.17132786819E+02 -0.17123654058E+02  0.12170533942E+03  0.12409247179E+03  0.00000000000E+00 0.  1.
          1    1    1    2  502    0  0.17132786819E+02  0.17123654058E+02  0.72542863491E+02  0.76480186689E+02  0.00000000000E+00 0.  1.
</event>
<event>
 4    1  0.3767413E+003  0.2124535E+02  0.7546771E-02  0.1515791E+00
          2   -1    0    0  502    0  0.00000000000E+00  0.00000000000E+00  0.20355614468E+02  0.20355614468E+02  0.00000000000E+00 0.  1.
          1   -1    0    0  501    0 -0.00000000000E+00 -0.00000000000E+00 -0.26119266602E+02  0.26119266602E+02  0.00000000000E+00 0.  1.
          2    1    1    2  501    0  0.72145859219E+01 -0.19982863388E+02  0.61494025216E+01  0.22117419166E+02  0.00000000000E+00 0.  1.
          1    1    1    2  502    0 -0.72145859219E+01  0.19982863388E+02 -0.11913054656E+02  0.24357461904E+02  0.00000000000E+00 0.  1.
</event>
<event>
 4    1  0.3767413E+003  0.2005808E+02  0.7546771E-02  0.1533150E+00
          2   -1    0    0  502    0  0.00000000000E+00  0.00000000000E+00  0.74770695662E+03  0.74770695662E+03  0.00000000000E+00 0. -1.
          1   -1    0    0  501    0 -0.00000000000E+00 -0.00000000000E+00 -0.83983975761E+00  0.83983975761E+00  0.00000000000E+00 0. -1.
          2    1    1    2  501    0  0.10477248411E+02  0.17104201940E+02  0.59778099862E+03  0.59811742056E+03  0.00000000000E+00 0. -1.
          1    1    1    2  502    0 -0.10477248411E+02 -0.17104201940E+02  0.14908611824E+03  0.15042937582E+03  0.00000000000E+00 0. -1.
</event>
<event>
 4    1  0.3767413E+003  0.2062846E+02  0.7546771E-02  0.1524636E+00
          2   -1    0    0  502    0  0.00000000000E+00  0.00000000000E+00  0.57297053874E+02  0.57297053874E+02  0.00000000000E+00 0. -1.
          1   -1    0    0  501    0 -0.00000000000E+00 -0.00000000000E+00 -0.84321188589E+01  0.84321188589E+01  0.00000000000E+00 0. -1.
          2    1    1    2  501    0  0.11045398215E+02  0.17422179657E+02  0.35780327393E+02  0.41300907908E+02  0.00000000000E+00 0. -1.
          1    1    1    2  502    0 -0.11045398215E+02 -0.17422179657E+02  0.13084607622E+02  0.24428264825E+02  0.00000000000E+00 0. -1.
</event>
<event>
 4    1  0.3767413E+003  0.2106840E+02  0.7546771E-02  0.1518290E+00
          2   -1    0    0  502    0  0.00000000000E+00  0.00000000000E+00  0.13513289843E+03  0.13513289843E+03  0.00000000000E+00 0.  1.
          1   -1    0    0  501    0 -0.00000000000E+00 -0.00000000000E+00 -0.34107088062E+01  0.34107088062E+01  0.00000000000E+00 0.  1.
          2    1    1    2  501    0  0.38783758566E+01  0.20708350359E+02  0.79173335931E+02  0.81928595108E+02  0.00000000000E+00 0.  1.
          1    1    1    2  502    0 -0.38783758566E+01 -0.20708350359E+02  0.52548853694E+02  0.56615012129E+02  0.00000000000E+00 0.  1.
</event>
<event>
 4    1  0.3767413E+003  0.2161254E+02  0.7546771E-02  0.1510696E+00
          2   -1    0    0  502    0  0.00000000000E+00  0.00000000000E+00  0.14488579014E+04  0.14488579014E+04  0.00000000000E+00 0. -1.
          1   -1    0    0  501    0 -0.00000000000E+00 -0.00000000000E+00 -0.53613356458E+01  0.53613356458E+01  0.00000000000E+00 0. -1.
          2    1    1    2  501    0  0.17153704064E+02 -0.13147329640E+02  0.14266573437E+04  0.14268210393E+04  0.00000000000E+00 0. -1.
          1    1    1    2  502    0 -0.17153704064E+02  0.13147329640E+02  0.16839222014E+02  0.27398197711E+02  0.00000000000E+00 0. -1.
</event>
<event>
 4    1  0.3767413E+003  0.2138585E+02  0.7546771E-02  0.1513827E+00
          2   -1    0    0  502    0  0.00000000000E+00  0.00000000000E+00  0.16394588570E+04  0.16394588570E+04  0.00000000000E+00 0. -1.
          1   -1    0    0  501    0 -0.00000000000E+00 -0.00000000000E+00 -0.15719343811E+01  0.15719343811E+01  0.00000000000E+00 0. -1.
          2    1    1    2  501    0 -0.17620752486E+02  0.12118736105E+02  0.15630983452E+04  0.15632446358E+04  0.00000000000E+00 0. -1.
          1    1    1    2  502    0  0.17620752486E+02 -0.12118736105E+02  0.74788577383E+02  0.77786155516E+02  0.00000000000E+00 0. -1.
</event>
<event>
 4    1  0.3767413E+003  0.2977878E+02  0.7546771E-02  0.1421529E+00
          2   -1    0    0  502    0  0.00000000000E+00  0.00000000000E+00  0.96389789296E+03  0.96389789296E+03  0.00000000000E+00 0. -1.
          1   -1    0    0  501    0 -0.00000000000E+00 -0.00000000000E+00 -0.12646133418E+01  0.12646133418E+01  0.00000000000E+00 0.  1.
          2    1    1    2  501    0  0.28783332575E+02 -0.76351462031E+01  0.73323765032E+03  0.73384209987E+03  0.00000000000E+00 0. -1.
          1    1    1    2  502    0 -0.28783332575E+02  0.76351462031E+01  0.22939562930E+03  0.23132040644E+03  0.00000000000E+00 0.  1.
</event>
<event>
 4    1  0.3767413E+003  0.3644732E+02  0.7546771E-02  0.1370664E+00
          2   -1    0    0  502    0  0.00000000000E+00  0.00000000000E+00  0.29272865340E+02  0.29272865340E+02  0.00000000000E+00 0. -1.
          1   -1    0    0  501    0 -0.00000000000E+00 -0.00000000000E+00 -0.50864799091E+02  0.50864799091E+02  0.00000000000E+00 0. -1.
          2    1    1    2  501    0  0.35236408279E+02 -0.93167791748E+01  0.23615120130E+01  0.36523739973E+02  0.00000000000E+00 0. -1.
          1    1    1    2  502    0 -0.35236408279E+02  0.93167791748E+01 -0.23953445764E+02  0.43613924458E+02  0.00000000000E+00 0. -1.
</event>
<event>
 4    1  0.3767413E+003  0.7531590E+02  0.7546771E-02  0.1215160E+00
          2   -1    0    0  502    0  0.00000000000E+00  0.00000000000E+00  0.18371021300E+04  0.18371021300E+04  0.00000000000E+00 0.  1.
          1   -1    0    0  501    0 -0.00000000000E+00 -0.00000000000E+00 -0.15613969282E+03  0.15613969282E+03  0.00000000000E+00 0.  1.
          2    1    1    2  501    0  0.34834078721E+02 -0.66776278991E+02  0.18271986031E+04  0.18287501796E+04  0.00000000000E+00 0.  1.
          1    1    1    2  502    0 -0.34834078721E+02  0.66776278991E+02 -0.14623616586E+03  0.16449164320E+03  0.00000000000E+00 0.  1.
</event>
<event>
 4    1  0.3767413E+003  0.2586954E+02  0.7546771E-02  0.1459307E+00
          2   -1    0    0  502    0  0.00000000000E+00  0.00000000000E+00  0.18542880349E+04  0.18542880349E+04  0.00000000000E+00 0. -1.
          1   -1    0    0  501    0 -0.00000000000E+00 -0.00000000000E+00 -0.87211767982E+00  0.87211767982E+00  0.00000000000E+00 0.  1.
          2    1    1    2  501    0  0.25867600144E+02  0.31685441570E+00  0.16368775690E+04  0.16370819799E+04  0.00000000000E+00 0. -1.
          1    1    1    2  502    0 -0.25867600144E+02 -0.31685441570E+00  0.21653834819E+03  0.21807817262E+03  0.00000000000E+00 0.  1.
</event>
<event>
 4    1  0.3767413E+003  0.2293650E+02  0.7546771E-02  0.1493297E+00
          2   -1    0    0  502    0  0.00000000000E+00  0.00000000000E+00  0.77619758986E+03  0.77619758986E+03  0.00000000000E+00 0. -1.
          1   -1    0    0  501    0 -0.00000000000E+00 -0.00000000000E+00 -0.92674331117E+01  0.92674331117E+01  0.00000000000E+00 0.  1.
          2    1    1    2  501    0  0.38594574411E+01  0.22609461181E+02  0.76156379207E+03  0.76190911042E+03  0.00000000000E+00 0. -1.
          1    1    1    2  502    0 -0.38594574411E+01 -0.22609461181E+02  0.53663646859E+01  0.23555912561E+02  0.00000000000E+00 0.  1.
</event>
<event>
 4    1  0.3767413E+003  0.2149225E+02  0.7546771E-02  0.1512351E+00
          2   -1    0    0  502    0  0.00000000000E+00  0.00000000000E+00  0.80931552510E+03  0.80931552510E+03  0.00000000000E+00 0.  1.
          1   -1    0    0  501    0 -0.00000000000E+00 -0.00000000000E+00 -0.12298661250E+01  0.12298661250E+01  0.00000000000E+00 0. -1.
          2    1    1    2  501    0 -0.21491531256E+02 -0.17594177348E+00  0.70073041839E+03  0.70105993761E+03  0.00000000000E+00 0.  1.
          1    1    1    2  502    0  0.21491531256E+02  0.17594177348E+00  0.10735524059E+03  0.10948545361E+03  0.00000000000E+00 0. -1.
</event>
<event>
 4    1  0.3767413E+003  0.1096629E+03  0.7546771E-02  0.1148040E+00
          2   -1    0    0  502    0  0.00000000000E+00  0.00000000000E+00  0.71786260272E+02  0.71786260272E+02  0.00000000000E+00 0.  1.
          1   -1    0    0  501    0 -0.00000000000E+00 -0.00000000000E+00 -0.18803814323E+03  0.18803814323E+03  0.00000000000E+00 0.  1.
          2    1    1    2  501    0 -0.74959139945E+02 -0.80044236483E+02 -0.15216872824E+02  0.11071362009E+03  0.00000000000E+00 0.  1.
          1    1    1    2  502    0  0.74959139945E+02  0.80044236483E+02 -0.10103501013E+03  0.14911078340E+03  0.00000000000E+00 0.  1.
</event>
<event>
 4    1  0.3767413E+003  0.2246832E+02  0.7546771E-02  0.1499285E+00
          2   -1    0    0  502    0  0.00000000000E+00  0.00000000000E+00  0.22967730180E+01  0.22967730180E+01  0.00000000000E+00 0. -1.
          1   -1    0    0  501    0 -0.00000000000E+00 -0.00000000000E+00 -0.27675892658E+03  0.27675892658E+03  0.00000000000E+00 0.  1.
          2    1    1    2  501    0 -0.21744200473E+02 -0.56582013397E+01 -0.73931670984E+02  0.77270417827E+02  0.00000000000E+00 0. -1.
          1    1    1    2  502    0  0.21744200473E+02  0.56582013397E+01 -0.20053048258E+03  0.20178528178E+03  0.00000000000E+00 0.  1.
</event>
<event>
 4    1  0.3767413E+003  0.2315485E+02  0.7546771E-02  0.1490563E+00
          2   -1    0    0  502    0  0.00000000000E+00  0.00000000000E+00  0.12089202033E+03  0.12089202033E+03  0.00000000000E+00 0. -1.
          1   -1    0    0  501    0 -0.00000000000E+00 -0.00000000000E+00 -0.60138791992E+02  0.60138791992E+02  0.00000000000E+00 0. -1.
          2    1    1    2  501    0 -0.22538897331E+02  0.53051999541E+01  0.11749058840E+03  0.11975051316E+03  0.00000000000E+00 0. -1.
          1    1    1    2  502    0  0.22538897331E+02 -0.53051999541E+01 -0.56737360058E+02  0.61280299166E+02  0.00000000000E+00 0. -1.
</event>
<event>
 4    1  0.3767413E+003  0.2040261E+02  0.7546771E-02  0.1527968E+00
          2   -1    0    0  502    0  0.00000000000E+00  0.00000000000E+00  0.40984537618E+03  0.40984537618E+03  0.00000000000E+00 0.  1.
          1   -1    0    0  501    0 -0.00000000000E+00 -0.00000000000E+00 -0.11443032797E+03  0.11443032797E+03  0.00000000000E+00 0. -1.
          2    1    1    2  501    0  0.10056729142E+02 -0.17751858955E+02  0.40867943480E+03  0.40918840004E+03  0.00000000000E+00 0.  1.
          1    1    1    2  502    0 -0.10056729142E+02  0.17751858955E+02 -0.11326438659E+03  0.11508730411E+03  0.00000000000E+00 0. -1.
</event>
<event>
 4    1  0.3767413E+003  0.2386240E+02  0.7546771E-02  0.1481944E+00
          2   -1    0    0  502    0  0.00000000000E+00  0.00000000000E+00  0.20532404091E+02  0.20532404091E+02  0.00000000000E+00 0.  1.
          1   -1    0    0  501    0 -0.00000000000E+00 -0.00000000000E+00 -0.10885781968E+04  0.10885781968E+04  0.00000000000E+00 0.  1.
          2    1    1    2  501    0 -0.19441196809E+02 -0.13836691024E+02  0.13422945998E+02  0.27378634574E+02  0.00000000000E+00 0.  1.
          1    1    1    2  502    0  0.19441196809E+02  0.13836691024E+02 -0.10814687387E+04  0.10817319663E+04  0.00000000000E+00 0.  1.
</event>
<event>
 4    1  0.4468796E+003  0.2090309E+02  0.7546771E-02  0.1520653E+00
          2   -1    0    0  502    0  0.00000000000E+00  0.00000000000E+00  0.15464561668E+04  0.15464561668E+04  0.00000000000E+00 0.  1.
          1   -1    0    0  501    0 -0.00000000000E+00 -0.00000000000E+00 -0.71426467294E+03  0.71426467294E+03  0.00000000000E+00 0.  1.
          2    1    1    2  501    0 -0.85387941072E+01  0.19079517912E+02  0.15462325760E+04  0.15463738610E+04  0.00000000000E+00 0.  1.
          1    1    1    2  502    0  0.85387941072E+01 -0.19079517912E+02 -0.71404108214E+03  0.71434697871E+03  0.00000000000E+00 0.  1.
</event>
<event>
 4    1  0.3767413E+003  0.2141986E+02  0.7546771E-02  0.1513354E+00
          2   -1    0    0  502    0  0.00000000000E+00  0.00000000000E+00  0.13051169047E+04  0.13051169047E+04  0.00000000000E+00 0.  1.
          1   -1    0    0  501    0 -0.00000000000E+00 -0.00000000000E+00 -0.10729858228E+01  0.10729858228E+01  0.00000000000E+00 0. -1.
          2    1    1    2  501    0  0.20892192461E+02 -0.47251056637E+01  0.11875460271E+04  0.11877391872E+04  0.00000000000E+00 0.  1.
          1    1    1    2  502    0 -0.20892192461E+02  0.47251056637E+01  0.11649789184E+03  0.11845070338E+03  0.00000000000E+00 0. -1.
</event>
<event>
 4    1  0.3767413E+003  0.2439283E+02  0.7546771E-02  0.1475712E+00
          2   -1    0    0  502    0  0.00000000000E+00  0.00000000000E+00  0.18959669428E+01  0.18959669428E+01  0.00000000000E+00 0. -1.
          1   -1    0    0  501    0 -0.00000000000E+00 -0.00000000000E+00 -0.62131260910E+03  0.62131260910E+03  0.00000000000E+00 0. -1.
          2    1    1    2  501    0  0.54878458654E+01 -0.23767496428E+02 -0.90499018333E+02  0.93728771772E+02  0.00000000000E+00 0. -1.
          1    1    1    2  502    0 -0.54878458654E+01  0.23767496428E+02 -0.52891762383E+03  0.52947980427E+03  0.00000000000E+00 0. -1.
</event>
<event>
 4    1  0.3767413E+003  0.2270916E+02  0.7546771E-02  0.1496183E+00
          2   -1    0    0  502    0  0.00000000000E+00  0.00000000000E+00  0.73931267352E+02  0.73931267352E+02  0.00000000000E+00 0.  1.
          1   -1    0    0  501    0 -0.00000000000E+00 -0.00000000000E+00 -0.26668153031E+03  0.26668153031E+03  0.00000000000E+00 0. -1.
          2    1    1    2  501    0 -0.21916195963E+02 -0.59486415891E+01  0.71689191853E+02  0.75200041295E+02  0.00000000000E+00 0.  1.
          1    1    1    2  502    0  0.21916195963E+02  0.59486415891E+01 -0.26443945481E+03  0.26541275637E+03  0.00000000000E+00 0. -1.
</event>
<event>
 4    1  0.3767413E+003  0.2529363E+02  0.7546771E-02  0.1465545E+00
          2   -1    0    0  502    0  0.00000000000E+00  0.00000000000E+00  0.19614407413E+02  0.19614407413E+02  0.00000000000E+00 0. -1.
          1   -1    0    0  501    0 -0.00000000000E+00 -0.00000000000E+00 -0.36402026741E+02  0.36402026741E+02  0.00000000000E+00 0.  1.
          2    1    1    2  501    0 -0.14560109582E+02 -0.20682624377E+02  0.63735284536E+00  0.25301659250E+02  0.00000000000E+00 0. -1.
          1    1    1    2  502    0  0.14560109582E+02  0.20682624377E+02 -0.17424972174E+02  0.30714774904E+02  0.00000000000E+00 0.  1.
</event>
<event>
 4    1  0.3767413E+003  0.2151985E+02  0.7546771E-02  0.1511971E+00
          2   -1    0    0  502    0  0.00000000000E+00  0.00000000000E+00  0.18957624141E+03  0.18957624141E+03  0.00000000000E+00 0.  1.
          1   -1    0    0  501    0 -0.00000000000E+00 -0.00000000000E+00 -0.32990180265E+01  0.32990180265E+01  0.00000000000E+00 0. -1.
          2    1    1    2  501    0  0.18743299330E+02 -0.10573208779E+02  0.14226748147E+03  0.14388585857E+03  0.00000000000E+00 0.  1.
          1    1    1    2  502    0 -0.18743299330E+02  0.10573208779E+02  0.44009741917E+02  0.48989400866E+02  0.00000000000E+00 0. -1.
</event>
<event>
 4    1  0.3767413E+003  0.2287714E+02  0.7546771E-02  0.1494047E+00
          2   -1    0    0  502    0  0.00000000000E+00  0.00000000000E+00  0.17215469969E+03  0.17215469969E+03  0.00000000000E+00 0. -1.
          1   -1    0    0  501    0 -0.00000000000E+00 -0.00000000000E+00 -0.32269153805E+03  0.32269153805E+03  0.00000000000E+00 0. -1.
          2    1    1    2  501    0 -0.20496082446E+02 -0.10162391998E+02  0.17098645492E+03  0.17251009064E+03  0.00000000000E+00 0. -1.
          1    1    1    2  502    0  0.20496082446E+02  0.10162391998E+02 -0.32152329328E+03  0.32233614710E+03  0.00000000000E+00 0. -1.
</event>
<event>
 4    1  0.3767413E+003  0.2383222E+02  0.7546771E-02  0.1482304E+00
          2   -1    0    0  502    0  0.00000000000E+00  0.00000000000E+00  0.87780110620E+02  0.87780110620E+02  0.00000000000E+00 0. -1.
          1   -1    0    0  501    0 -0.00000000000E+00 -0.00000000000E+00 -0.47725040283E+03  0.47725040283E+03  0.00000000000E+00 0.  1.
          2    1    1    2  501    0 -0.79003303183E+01 -0.22484648617E+02  0.85858444289E+02  0.89104697398E+02  0.00000000000E+00 0. -1.
          1    1    1    2  502    0  0.79003303183E+01  0.22484648617E+02 -0.47532873650E+03  0.47592581605E+03  0.00000000000E+00 0.  1.
</event>
<event>
 4    1  0.3767413E+003  0.3887880E+02  0.7546771E-02  0.1355184E+00
          2   -1    0    0  502    0  0.00000000000E+00  0.00000000000E+00  0.27230387117E+04  0.27230387117E+04  0.00000000000E+00 0.  1.
          1   -1    0    0  501    0 -0.00000000000E+00 -0.00000000000E+00 -0.93638029348E+01  0.93638029348E+01  0.00000000000E+00 0.  1.
          2    1    1    2  501    0 -0.38760090357E+02  0.30358275684E+01  0.26819248148E+04  0.26822066053E+04  0.00000000000E+00 0.  1.
          1    1    1    2  502    0  0.38760090357E+02 -0.30358275684E+01  0.31750093924E+02  0.50195909373E+02  0.00000000000E+00 0.  1.
</event>
<event>
 4    1  0.3767413E+003  0.4909659E+02  0.7546771E-02  0.1302138E+00
          2   -1    0    0  502    0  0.00000000000E+00  0.00000000000E+00  0.14360841681E+04  0.14360841681E+04  0.00000000000E+00 0. -1.
          1   -1    0    0  501    0 -0.00000000000E+00 -0.00000000000E+00 -0.67913020232E+02  0.67913020232E+02  0.00000000000E+00 0.  1.
          2    1    1    2  501    0 -0.16332565519E+02 -0.46300347265E+02  0.14267330107E+04  0.14275775141E+04  0.00000000000E+00 0. -1.
          1    1    1    2  502    0  0.16332565519E+02  0.46300347265E+02 -0.58561862769E+02  0.76419674327E+02  0.00000000000E+00 0.  1.
</event>
<event>
 4    1  0.3767413E+003  0.2007428E+02  0.7546771E-02  0.1532903E+00
          2   -1    0    0  502    0  0.00000000000E+00  0.00000000000E+00  0.13634599613E+02  0.13634599613E+02  0.00000000000E+00 0.  1.
          1   -1    0    0  501    0 -0.00000000000E+00 -0.00000000000E+00 -0.34615921692E+02  0.34615921692E+02  0.00000000000E+00 0. -1.
          2    1    1    2  501    0 -0.86941153741E+01  0.18093892625E+02 -0.12664339125E+01  0.20114185227E+02  0.00000000000E+00 0.  1.
          1    1    1    2  502    0  0.86941153741E+01 -0.18093892625E+02 -0.19714888167E+02  0.28136336078E+02  0.00000000000E+00 0. -1.
</event>
<event>
 4    1  0.3767413E+003  0.2882136E+02  0.7546771E-02  0.1430123E+00
          2   -1    0    0  502    0  0.00000000000E+00  0.00000000000E+00  0.22245752746E+04  0.22245752746E+04  0.00000000000E+00 0. -1.
          1   -1    0    0  501    0 -0.00000000000E+00 -0.00000000000E+00 -0.46471710004E+00  0.46471710004E+00  0.00000000000E+00 0.  1.
          2    1    1    2  501    0 -0.16574152501E+02  0.23578985315E+02  0.16051994113E+04  0.16054581343E+04  0.00000000000E+00 0. -1.
          1    1    1    2  502    0  0.16574152501E+02 -0.23578985315E+02  0.61891114623E+03  0.61958185739E+03  0.00000000000E+00 0.  1.
</event>
<event>
 4    1  0.3767413E+003  0.2188449E+02  0.7546771E-02  0.1507002E+00
          2   -1    0    0  502    0  0.00000000000E+00  0.00000000000E+00  0.12117124388E+02  0.12117124388E+02  0.00000000000E+00 0. -1.
          1   -1    0    0  501    0 -0.00000000000E+00 -0.00000000000E+00 -0.27385276255E+03  0.27385276255E+03  0.00000000000E+00 0. -1.
          2    1    1    2  501    0  0.20148867439E+02 -0.85413225744E+01  0.13967395487E+01  0.21929020310E+02  0.00000000000E+00 0. -1.
          1    1    1    2  502    0 -0.20148867439E+02  0.85413225744E+01 -0.26313237771E+03  0.26404086663E+03  0.00000000000E+00 0. -1.
</event>
<event>
 4    1  0.3767413E+003  0.2501202E+02  0.7546771E-02  0.1468669E+00
          2   -1    0    0  502    0  0.00000000000E+00  0.00000000000E+00  0.51186575070E+01  0.51186575070E+01  0.00000000000E+00 0. -1.
          1   -1    0    0  501    0 -0.00000000000E+00 -0.00000000000E+00 -0.12019640302E+04  0.12019640302E+04  0.00000000000E+00 0.  1.
          2    1    1    2  501    0  0.17131810331E+02 -0.18223665444E+02 -0.26388806881E+02  0.36358905870E+02  0.00000000000E+00 0. -1.
          1    1    1    2  502    0 -0.17131810331E+02  0.18223665444E+02 -0.11704565658E+04  0.11707237819E+04  0.00000000000E+00 0.  1.
</event>
<event>
 4    1  0.3767413E+003  0.3150219E+02  0.7546771E-02  0.1406977E+00
          2   -1    0    0  502    0  0.00000000000E+00  0.00000000000E+00  0.26931255322E+01  0.26931255322E+01  0.00000000000E+00 0. -1.
          1   -1    0    0  501    0 -0.00000000000E+00 -0.00000000000E+00 -0.52162505367E+03  0.52162505367E+03  0.00000000000E+00 0. -1.
          2    1    1    2  501    0 -0.29766322367E+02 -0.10312822316E+02 -0.11742165575E+03  0.12157398361E+03  0.00000000000E+00 0. -1.
          1    1    1    2  502    0  0.29766322367E+02  0.10312822316E+02 -0.40151027238E+03  0.40274419559E+03  0.00000000000E+00 0. -1.
</event>
<event>
 4    1  0.3767413E+003  0.2769656E+02  0.7546771E-02  0.1440734E+00
          2   -1    0    0  502    0  0.00000000000E+00  0.00000000000E+00  0.10201109488E+02  0.10201109488E+02  0.00000000000E+00 0. -1.
          1   -1    0    0  501    0 -0.00000000000E+00 -0.00000000000E+00 -0.22688906895E+03  0.22688906895E+03  0.00000000000E+00 0.  1.
          2    1    1    2  501    0 -0.22714523377E+02  0.15847701628E+02 -0.11414178488E+02  0.29956346401E+02  0.00000000000E+00 0. -1.
          1    1    1    2  502    0  0.22714523377E+02 -0.15847701628E+02 -0.20527378097E+03  0.20713383203E+03  0.00000000000E+00 0.  1.
</event>
<event>
 4    1  0.3767413E+003  0.2389569E+02  0.7546771E-02  0.1481547E+00
          2   -1    0    0  502    0  0.00000000000E+00  0.00000000000E+00  0.25886969251E+03  0.25886969251E+03  0.00000000000E+00 0. -1.
          1   -1    0    0  501    0 -0.00000000000E+00 -0.00000000000E+00 -0.52053729901E+01  0.52053729901E+01  0.00000000000E+00 0.  1.
          2    1    1    2  501    0 -0.19752290072E+02  0.13448094690E+02  0.22706363948E+03  0.22831754332E+03  0.00000000000E+00 0. -1.
          1    1    1    2  502    0  0.19752290072E+02 -0.13448094690E+02  0.26600680040E+02  0.35757522180E+02  0.00000000000E+00 0.  1.
</event>
<event>
 4    1  0.3767413E+003  0.4215488E+02  0.7546771E-02  0.1336301E+00
          2   -1    0    0  502    0  0.00000000000E+00  0.00000000000E+00  0.17573853080E+04  0.17573853080E+04  0.00000000000E+00 0. -1.
          1   -1    0    0  501    0 -0.00000000000E+00 -0.00000000000E+00 -0.55667803095E+01  0.55667803095E+01  0.00000000000E+00 0.  1.
          2    1    1    2  501    0 -0.13410919699E+02  0.39964751920E+02  0.16733184690E+04  0.16738493758E+04  0.00000000000E+00 0. -1.
          1    1    1    2  502    0  0.13410919699E+02 -0.39964751920E+02  0.78500058725E+02  0.89102712546E+02  0.00000000000E+00 0.  1.
</event>
<event>
 4    1  0.3767413E+003  0.2335159E+02  0.7546771E-02  0.1488130E+00
          2   -1    0    0  502    0  0.00000000000E+00  0.00000000000E+00  0.13197268359E+04  0.13197268359E+04  0.00000000000E+00 0. -1.
          1   -1    0    0  501    0 -0.00000000000E+00 -0.00000000000E+00 -0.57170866128E+01  0.57170866128E+01  0.00000000000E+00 0.  1.
          2    1    1    2  501    0  0.11358768102E+02 -0.20402819792E+02  0.12953294143E+04  0.12955398829E+04  0.00000000000E+00 0. -1.
          1    1    1    2  502    0 -0.11358768102E+02  0.20402819792E+02  0.18680334947E+02  0.29904039560E+02  0.00000000000E+00 0.  1.
</event>
<event>
 4    1  0.3767413E+003  0.3182871E+02  0.7546771E-02  0.1404344E+00
          2   -1    0    0  502    0  0.00000000000E+00  0.00000000000E+00  0.90625562905E+03  0.90625562905E+03  0.00000000000E+00 0. -1.
          1   -1    0    0  501    0 -0.00000000000E+00 -0.00000000000E+00 -0.18635216814E+01  0.18635216814E+01  0.00000000000E+00 0. -1.
          2    1    1    2  501    0  0.76969744261E+01  0.30884026996E+02  0.73941735682E+03  0.74010208357E+03  0.00000000000E+00 0. -1.
          1    1    1    2  502    0 -0.76969744261E+01 -0.30884026996E+02  0.16497475055E+03  0.16801706716E+03  0.00000000000E+00 0. -1.
</event>
<event>
 4    1  0.3767413E+003  0.2276907E+02  0.7546771E-02  0.1495418E+00
          2   -1    0    0  502    0  0.00000000000E+00  0.00000000000E+00  0.50825144785E+01  0.50825144785E+01  0.00000000000E+00 0. -1.
          1   -1    0    0  501    0 -0.00000000000E+00 -0.00000000000E+00 -0.32006340820E+03  0.32006340820E+03  0.00000000000E+00 0. -1.
          2    1    1    2  501    0 -0.17813176269E+02 -0.14181726762E+02 -0.23300824678E+02  0.32578506003E+02  0.00000000000E+00 0. -1.
          1    1    1    2  502    0  0.17813176269E+02  0.14181726762E+02 -0.29168006905E+03  0.29256741668E+03  0.00000000000E+00 0. -1.
</event>
<event>
 4    1  0.3767413E+003  0.2335282E+02  0.7546771E-02  0.1488115E+00
          2   -1    0    0  502    0  0.00000000000E+00  0.00000000000E+00  0.55878976085E+01  0.55878976085E+01  0.00000000000E+00 0.  1.
          1   -1    0    0  501    0 -0.00000000000E+00 -0.00000000000E+00 -0.19790601933E+03  0.19790601933E+03  0.00000000000E+00 0.  1.
          2    1    1    2  501    0 -0.36120034936E+01 -0.23071791190E+02 -0.23721303490E+02  0.33287450446E+02  0.00000000000E+00 0.  1.
          1    1    1    2  502    0  0.36120034936E+01  0.23071791190E+02 -0.16859681823E+03  0.17020646650E+03  0.00000000000E+00 0.  1.
</event>
<event>
 4    1  0.3767413E+003  0.2218023E+02  0.7546771E-02  0.1503057E+00
          2   -1    0    0  502    0  0.00000000000E+00  0.00000000000E+00  0.89786286023E+01  0.89786286023E+01  0.00000000000E+00 0.  1.
          1   -1    0    0  501    0 -0.00000000000E+00 -0.00000000000E+00 -0.55372984363E+02  0.55372984363E+02  0.00000000000E+00 0. -1.
          2    1    1    2  501    0 -0.13601489011E+02  0.17520318645E+02 -0.26491396079E+02  0.34550776185E+02  0.00000000000E+00 0.  1.
          1    1    1    2  502    0  0.13601489011E+02 -0.17520318645E+02 -0.19902959681E+02  0.29800836780E+02  0.00000000000E+00 0. -1.
</event>
<event>
 4    1  0.3767413E+003  0.3227889E+02  0.7546771E-02  0.1400774E+00
          2   -1    0    0  502    0  0.00000000000E+00  0.00000000000E+00  0.55169037055E+03  0.55169037055E+03  0.00000000000E+00 0. -1.
          1   -1    0    0  501    0 -0.00000000000E+00 -0.00000000000E+00 -0.15487075822E+02  0.15487075822E+02  0.00000000000E+00 0.  1.
          2    1    1    2  501    0 -0.30811898265E+02 -0.96204742156E+01  0.53383694227E+03  0.53481193660E+03  0.00000000000E+00 0. -1.
          1    1    1    2  502    0  0.30811898265E+02  0.96204742156E+01  0.23663524587E+01  0.32365509772E+02  0.00000000000E+00 0.  1.
</event>
<event>
 4    1  0.3767413E+003  0.2775247E+02  0.7546771E-02  0.1440192E+00
          2   -1    0    0  502    0  0.00000000000E+00  0.00000000000E+00  0.34640387330E+03  0.34640387330E+03  0.00000000000E+00 0. -1.
          1   -1    0    0  501    0 -0.00000000000E+00 -0.00000000000E+00 -0.33752378732E+01  0.33752378732E+01  0.00000000000E+00 0. -1.
          2    1    1    2  501    0 -0.21781154727E+02 -0.17198280568E+02  0.27367988183E+03  0.27508340058E+03  0.00000000000E+00 0. -1.
          1    1    1    2  502    0  0.21781154727E+02  0.17198280568E+02  0.69348753600E+02  0.74695710597E+02  0.00000000000E+00 0. -1.
</event>
<event>
 4    1  0.3767413E+003  0.4790911E+02  0.7546771E-02  0.1307502E+00
          2   -1    0    0  502    0  0.00000000000E+00  0.00000000000E+00  0.74249326610E+01  0.74249326610E+01  0.00000000000E+00 0. -1.
          1   -1    0    0  501    0 -0.00000000000E+00 -0.00000000000E+00 -0.81348174358E+03  0.81348174358E+03  0.00000000000E+00 0. -1.
          2    1    1    2  501    0  0.42625680157E+02 -0.21870852512E+02 -0.79839923310E+02  0.93111203153E+02  0.00000000000E+00 0. -1.
          1    1    1    2  502    0 -0.42625680157E+02  0.21870852512E+02 -0.72621688761E+03  0.72779547309E+03  0.00000000000E+00 0. -1.
</event>
<event>
 4    1  0.3767413E+003  0.2012378E+02  0.7546771E-02  0.1532152E+00
          2   -1    0    0  502    0  0.00000000000E+00  0.00000000000E+00  0.28540144845E+03  0.28540144845E+03  0.00000000000E+00 0.  1.
          1   -1    0    0  501    0 -0.00000000000E+00 -0.00000000000E+00 -0.43077152253E+01  0.43077152253E+01  0.00000000000E+00 0.  1.
          2    1    1    2  501    0  0.49382733276E+01  0.19508462664E+02  0.25916903247E+03  0.25994913743E+03  0.00000000000E+00 0.  1.
          1    1    1    2  502    0 -0.49382733276E+01 -0.19508462664E+02  0.21924700755E+02  0.29760026246E+02  0.00000000000E+00 0.  1.
</event>
<event>
 4    1  0.3767413E+003  0.2382919E+02  0.7546771E-02  0.1482340E+00
          2   -1    0    0  502    0  0.00000000000E+00  0.00000000000E+00  0.82531912983E+03  0.82531912983E+03  0.00000000000E+00 0.  1.
          1   -1    0    0  501    0 -0.00000000000E+00 -0.00000000000E+00 -0.13452320716E+02  0.13452320716E+02  0.00000000000E+00 0. -1.
          2    1    1    2  501    0  0.10928864884E+02  0.21175222059E+02  0.81445373461E+03  0.81480225573E+03  0.00000000000E+00 0.  1.
          1    1    1    2  502    0 -0.10928864884E+02 -0.21175222059E+02 -0.25869254926E+01  0.23969194822E+02  0.00000000000E+00 0. -1.
</event>
<event>
 4    1  0.3767413E+003  0.3936011E+02  0.7546771E-02  0.1352277E+00
          2   -1    0    0  502    0  0.00000000000E+00  0.00000000000E+00  0.29055339026E+03  0.29055339026E+03  0.00000000000E+00 0.  1.
          1   -1    0    0  501    0 -0.00000000000E+00 -0.00000000000E+00 -0.97573280737E+01  0.97573280737E+01  0.00000000000E+00 0.  1.
          2    1    1    2  501    0 -0.19608391605E+02 -0.34128127955E+02  0.24152109905E+03  0.24470729336E+03  0.00000000000E+00 0.  1.
          1    1    1    2  502    0  0.19608391605E+02  0.34128127955E+02  0.39274963137E+02  0.55603424970E+02  0.00000000000E+00 0.  1.
</event>
<event>
 4    1  0.3767413E+003  0.5705267E+02  0.7546771E-02  0.1270189E+00
          2   -1    0    0  502    0  0.00000000000E+00  0.00000000000E+00  0.22262903108E+02  0.22262903108E+02  0.00000000000E+00 0.  1.
          1   -1    0    0  501    0 -0.00000000000E+00 -0.00000000000E+00 -0.14719374026E+03  0.14719374026E+03  0.00000000000E+00 0. -1.
          2    1    1    2  501    0  0.46618594678E+02 -0.32889409079E+02 -0.55530462532E+02  0.79615569259E+02  0.00000000000E+00 0.  1.
          1    1    1    2  502    0 -0.46618594678E+02  0.32889409079E+02 -0.69400374616E+02  0.89841074104E+02  0.00000000000E+00 0. -1.
</event>
<event>
 4    1  0.3767413E+003  0.2141154E+02  0.7546771E-02  0.1513470E+00
          2   -1    0    0  502    0  0.00000000000E+00  0.00000000000E+00  0.27325515753E+02  0.27325515753E+02  0.00000000000E+00 0. -1.
          1   -1    0    0  501    0 -0.00000000000E+00 -0.00000000000E+00 -0.10006911062E+04  0.10006911062E+04  0.00000000000E+00 0. -1.
          2    1    1    2  501    0 -0.12981611161E+02 -0.17027381382E+02  0.22998391751E+02  0.31422602823E+02  0.00000000000E+00 0. -1.
          1    1    1    2  502    0  0.12981611161E+02  0.17027381382E+02 -0.99636398215E+03  0.99659401908E+03  0.00000000000E+00 0. -1.
</event>
<event>
 4    1  0.3767413E+003  0.2307288E+02  0.7546771E-02  0.1491585E+00
          2   -1    0    0  502    0  0.00000000000E+00  0.00000000000E+00  0.10694193102E+03  0.10694193102E+03  0.00000000000E+00 0. -1.
          1   -1    0    0  501    0 -0.00000000000E+00 -0.00000000000E+00 -0.12364328246E+02  0.12364328246E+02  0.00000000000E+00 0.  1.
          2    1    1    2  501    0 -0.20988345270E+02  0.95836803353E+01  0.93395295268E+02  0.96203111925E+02  0.00000000000E+00 0. -1.
          1    1    1    2  502    0  0.20988345270E+02 -0.95836803353E+01  0.11823075044E+01  0.23103147339E+02  0.00000000000E+00 0.  1.
</event>
<event>
 4    1  0.3767413E+003  0.2563056E+02  0.7546771E-02  0.1461871E+00
          2   -1    0    0  502    0  0.00000000000E+00  0.00000000000E+00  0.63039927934E+01  0.63039927934E+01  0.00000000000E+00 0.  1.
          1   -1    0    0  501    0 -0.00000000000E+00 -0.00000000000E+00 -0.52555057250E+03  0.52555057250E+03  0.00000000000E+00 0. -1.
          2    1    1    2  501    0  0.17653368575E+02  0.18581825762E+02 -0.21515624639E+02  0.33464126678E+02  0.00000000000E+00 0.  1.
          1    1    1    2  502    0 -0.17653368575E+02 -0.18581825762E+02 -0.49773095507E+03  0.49839043862E+03  0.00000000000E+00 0. -1.
</event>
<event>
 4    1  0.3767413E+003  0.4589418E+02  0.7546771E-02  0.1317028E+00
          2   -1    0    0  502    0  0.00000000000E+00  0.00000000000E+00  0.10927043753E+02  0.10927043753E+02  0.00000000000E+00 0. -1.
          1   -1    0    0  501    0 -0.00000000000E+00 -0.00000000000E+00 -0.45719127532E+03  0.45719127532E+03  0.00000000000E+00 0. -1.
          2    1    1    2  501    0 -0.44504037876E+02  0.11210103785E+02 -0.45126102896E+02  0.64363351192E+02  0.00000000000E+00 0. -1.
          1    1    1    2  502    0  0.44504037876E+02 -0.11210103785E+02 -0.40113812867E+03  0.40375496788E+03  0.00000000000E+00 0. -1.
</event>
<event>
 4    1  0.3767413E+003  0.2495145E+02  0.7546771E-02  0.1469347E+00
          2   -1    0    0  502    0  0.00000000000E+00  0.00000000000E+00  0.10647131225E+03  0.10647131225E+03  0.00000000000E+00 0. -1.
          1   -1    0    0  501    0 -0.00000000000E+00 -0.00000000000E+00 -0.26257374398E+02  0.26257374398E+02  0.00000000000E+00 0.  1.
          2    1    1    2  501    0 -0.80276435944E+01  0.23624817008E+02  0.98617078812E+02  0.10172464438E+03  0.00000000000E+00 0. -1.
          1    1    1    2  502    0  0.80276435944E+01 -0.23624817008E+02 -0.18403140955E+02  0.31004042275E+02  0.00000000000E+00 0.  1.
</event>
<event>
 4    1  0.3767413E+003  0.4781096E+02  0.7546771E-02  0.1307953E+00
          2   -1    0    0  502    0  0.00000000000E+00  0.00000000000E+00  0.19384124770E+04  0.19384124770E+04  0.00000000000E+00 0. -1.
          1   -1    0    0  501    0 -0.00000000000E+00 -0.00000000000E+00 -0.21801602895E+01  0.21801602895E+01  0.00000000000E+00 0.  1.
          2    1    1    2  501    0 -0.36122657679E+02 -0.31321587256E+02  0.16255560227E+04  0.16262589803E+04  0.00000000000E+00 0. -1.
          1    1    1    2  502    0  0.36122657679E+02  0.31321587256E+02  0.31067629400E+03  0.31433365693E+03  0.00000000000E+00 0.  1.
</event>
<event>
 4    1  0.3767413E+003  0.2259693E+02  0.7546771E-02  0.1497622E+00
          2   -1    0    0  502    0  0.00000000000E+00  0.00000000000E+00  0.52390652757E+00  0.52390652757E+00  0.00000000000E+00 0. -1.
          1   -1    0    0  501    0 -0.00000000000E+00 -0.00000000000E+00 -0.13639507887E+04  0.13639507887E+04  0.00000000000E+00 0.  1.
          2    1    1    2  501    0 -0.22593239013E+02  0.40860105650E+00 -0.31722552119E+03  0.31802932679E+03  0.00000000000E+00 0. -1.
          1    1    1    2  502    0  0.22593239013E+02 -0.40860105650E+00 -0.10462013610E+04  0.10464453684E+04  0.00000000000E+00 0.  1.
</event>
<event>
 4    1  0.3767413E+003  0.2039679E+02  0.7546771E-02  0.1528054E+00
          2   -1    0    0  502    0  0.00000000000E+00  0.00000000000E+00  0.20281858599E+04  0.20281858599E+04  0.00000000000E+00 0. -1.
          1   -1    0    0  501    0 -0.00000000000E+00 -0.00000000000E+00 -0.22886532980E+00  0.22886532980E+00  0.00000000000E+00 0. -1.
          2    1    1    2  501    0 -0.20150574356E+02 -0.31596235609E+01  0.13406359421E+04  0.13407910941E+04  0.00000000000E+00 0. -1.
          1    1    1    2  502    0  0.20150574356E+02  0.31596235609E+01  0.68732105247E+03  0.68762363109E+03  0.00000000000E+00 0. -1.
</event>
<event>
 4    1  0.3767413E+003  0.2045490E+02  0.7546771E-02  0.1527192E+00
          2   -1    0    0  502    0  0.00000000000E+00  0.00000000000E+00  0.39771596817E+01  0.39771596817E+01  0.00000000000E+00 0.  1.
          1   -1    0    0  501    0 -0.00000000000E+00 -0.00000000000E+00 -0.22487407444E+03  0.22487407444E+03  0.00000000000E+00 0.  1.
          2    1    1    2  501    0 -0.19584308995E+02 -0.59040633126E+01 -0.26974518944E+02  0.33853032282E+02  0.00000000000E+00 0.  1.
          1    1    1    2  502    0  0.19584308995E+02  0.59040633126E+01 -0.19392239581E+03  0.19499820184E+03  0.00000000000E+00 0.  1.
</event>
<event>
 4    1  0.3767413E+003  0.2720642E+02  0.7546771E-02  0.1445545E+00
          2   -1    0    0  502    0  0.00000000000E+00  0.00000000000E+00  0.15143990835E+03  0.15143990835E+03  0.00000000000E+00 0. -1.
          1   -1    0    0  501    0 -0.00000000000E+00 -0.00000000000E+00 -0.70937764365E+02  0.70937764365E+02  0.00000000000E+00 0. -1.
          2    1    1    2  501    0 -0.18193545549E+02  0.20228307140E+02  0.14754104385E+03  0.15002849439E+03  0.00000000000E+00 0. -1.
          1    1    1    2  502    0  0.18193545549E+02 -0.20228307140E+02 -0.67038899862E+02  0.72349178324E+02  0.00000000000E+00 0. -1.
</event>
<event>
 4    1  0.3767413E+003  0.2110714E+02  0.7546771E-02  0.1517741E+00
          2   -1    0    0  502    0  0.00000000000E+00  0.00000000000E+00  0.16975357566E+03  0.16975357566E+03  0.00000000000E+00 0.  1.
          1   -1    0    0  501    0 -0.00000000000E+00 -0.00000000000E+00 -0.79481730576E+02  0.79481730576E+02  0.00000000000E+00 0. -1.
          2    1    1    2  501    0  0.38334636517E+01  0.20756105832E+02  0.16767888950E+03  0.16900213418E+03  0.00000000000E+00 0.  1.
          1    1    1    2  502    0 -0.38334636517E+01 -0.20756105832E+02 -0.77407044417E+02  0.80233172057E+02  0.00000000000E+00 0. -1.
</event>
<event>
 4    1  0.3767413E+003  0.2660071E+02  0.7546771E-02  0.1451661E+00
          2   -1    0    0  502    0  0.00000000000E+00  0.00000000000E+00  0.91770279586E+00  0.91770279586E+00  0.00000000000E+00 0. -1.
          1   -1    0    0  501    0 -0.00000000000E+00 -0.00000000000E+00 -0.11682265382E+04  0.11682265382E+04  0.00000000000E+00 0.  1.
          2    1    1    2  501    0 -0.22680264843E+02 -0.13899756618E+02 -0.24280337520E+03  0.24425617015E+03  0.00000000000E+00 0. -1.
          1    1    1    2  502    0  0.22680264843E+02  0.13899756618E+02 -0.92450546017E+03  0.92488807082E+03  0.00000000000E+00 0.  1.
</event>
<event>
 4    1  0.3767413E+003  0.2429187E+02  0.7546771E-02  0.1476883E+00
          2   -1    0    0  502    0  0.00000000000E+00  0.00000000000E+00  0.33476265272E+03  0.33476265272E+03  0.00000000000E+00 0. -1.
          1   -1    0    0  501    0 -0.00000000000E+00 -0.00000000000E+00 -0.60676979199E+01  0.60676979199E+01  0.00000000000E+00 0.  1.
          2    1    1    2  501    0  0.12634652204E+02  0.20747542828E+02  0.30789028311E+03  0.30884708417E+03  0.00000000000E+00 0. -1.
          1    1    1    2  502    0 -0.12634652204E+02 -0.20747542828E+02  0.20804671693E+02  0.31983266468E+02  0.00000000000E+00 0.  1.
</event>
<event>
 4    1  0.3767413E+003  0.2701590E+02  0.7546771E-02  0.1447449E+00
          2   -1    0    0  502    0  0.00000000000E+00  0.00000000000E+00  0.48584972993E+02  0.48584972993E+02  0.00000000000E+00 0.  1.
          1   -1    0    0  501    0 -0.00000000000E+00 -0.00000000000E+00 -0.16255716315E+02  0.16255716315E+02  0.00000000000E+00 0. -1.
          2    1    1    2  501    0  0.21299027315E+02  0.16619568957E+02  0.25094953092E+02  0.36872961741E+02  0.00000000000E+00 0.  1.
          1    1    1    2  502    0 -0.21299027315E+02 -0.16619568957E+02  0.72343035862E+01  0.27967727567E+02  0.00000000000E+00 0. -1.
</event>
<event>
 4    1  0.3767413E+003  0.3122251E+02  0.7546771E-02  0.1409262E+00
          2   -1    0    0  502    0  0.00000000000E+00  0.00000000000E+00  0.12941123500E+04  0.12941123500E+04  0.00000000000E+00 0.  1.
          1   -1    0    0  501    0 -0.00000000000E+00 -0.00000000000E+00 -0.16404233207E+01  0.16404233207E+01  0.00000000000E+00 0. -1.
          2    1    1    2  501    0 -0.17077258569E+02 -0.26138335701E+02  0.11226756991E+04  0.11231097768E+04  0.00000000000E+00 0.  1.
          1    1    1    2  502    0  0.17077258569E+02  0.26138335701E+02  0.16979622753E+03  0.17264299649E+03  0.00000000000E+00 0. -1.
</event>
<event>
 4    1  0.3767413E+003  0.2404305E+02  0.7546771E-02  0.1479800E+00
          2   -1    0    0  502    0  0.00000000000E+00  0.00000000000E+00  0.18203935524E+03  0.18203935524E+03  0.00000000000E+00 0. -1.
          1   -1    0    0  501    0 -0.00000000000E+00 -0.00000000000E+00 -0.42926247289E+01  0.42926247289E+01  0.00000000000E+00 0.  1.
          2    1    1    2  501    0 -0.19468569302E+02  0.14108262842E+02  0.13640079406E+03  0.13850359162E+03  0.00000000000E+00 0. -1.
          1    1    1    2  502    0  0.19468569302E+02 -0.14108262842E+02  0.41345936447E+02  0.47828388346E+02  0.00000000000E+00 0.  1.
</event>
<event>
 4    1  0.3767413E+003  0.3603608E+02  0.7546771E-02  0.1373422E+00
          2   -1    0    0  502    0  0.00000000000E+00  0.00000000000E+00  0.22569089604E+02  0.22569089604E+02  0.00000000000E+00 0.  1.
          1   -1    0    0  501    0 -0.00000000000E+00 -0.00000000000E+00 -0.15912064972E+03  0.15912064972E+03  0.00000000000E+00 0.  1.
          2    1    1    2  501    0 -0.35983850011E+02 -0.19394853484E+01  0.43089261699E+01  0.36292780409E+02  0.00000000000E+00 0.  1.
          1    1    1    2  502    0  0.35983850011E+02  0.19394853484E+01 -0.14086048629E+03  0.14539695891E+03  0.00000000000E+00 0.  1.
</event>
<event>
 4    1  0.3767413E+003  0.2077386E+02  0.7546771E-02  0.1522518E+00
          2   -1    0    0  502    0  0.00000000000E+00  0.00000000000E+00  0.85974964702E+00  0.85974964702E+00  0.00000000000E+00 0.  1.
          1   -1    0    0  501    0 -0.00000000000E+00 -0.00000000000E+00 -0.11312155579E+04  0.11312155579E+04  0.00000000000E+00 0.  1.
          2    1    1    2  501    0  0.20640116772E+02  0.23534299228E+01 -0.14300638718E+03  0.14450736946E+03  0.00000000000E+00 0.  1.
          1    1    1    2  502    0 -0.20640116772E+02 -0.23534299228E+01 -0.98734942110E+03  0.98756793812E+03  0.00000000000E+00 0.  1.
</event>
<event>
 4    1  0.3767413E+003  0.2277822E+02  0.7546771E-02  0.1495302E+00
          2   -1    0    0  502    0  0.00000000000E+00  0.00000000000E+00  0.14436312409E+03  0.14436312409E+03  0.00000000000E+00 0. -1.
          1   -1    0    0  501    0 -0.00000000000E+00 -0.00000000000E+00 -0.10645120691E+02  0.10645120691E+02  0.00000000000E+00 0. -1.
          2    1    1    2  501    0 -0.89855874803E+01  0.20930992193E+02  0.12993690814E+03  0.13191833577E+03  0.00000000000E+00 0. -1.
          1    1    1    2  502    0  0.89855874803E+01 -0.20930992193E+02  0.37810952577E+01  0.23089909005E+02  0.00000000000E+00 0. -1.
</event>
<event>
 4    1  0.3767413E+003  0.2973715E+02  0.7546771E-02  0.1421895E+00
          2   -1    0    0  502    0  0.00000000000E+00  0.00000000000E+00  0.45581059094E+02  0.45581059094E+02  0.00000000000E+00 0.  1.
          1   -1    0    0  501    0 -0.00000000000E+00 -0.00000000000E+00 -0.30725077068E+02  0.30725077068E+02  0.00000000000E+00 0.  1.
          2    1    1    2  501    0 -0.25142306983E+02 -0.15879618319E+02  0.30590889495E+02  0.42662634687E+02  0.00000000000E+00 0.  1.
          1    1    1    2  502    0  0.25142306983E+02  0.15879618319E+02 -0.15734907468E+02  0.33643501474E+02  0.00000000000E+00 0.  1.
</event>
<event>
 4    1  0.3767413E+003  0.3931119E+02  0.7546771E-02  0.1352570E+00
          2   -1    0    0  502    0  0.00000000000E+00  0.00000000000E+00  0.11004852285E+02  0.11004852285E+02  0.00000000000E+00 0. -1.
          1   -1    0    0  501    0 -0.00000000000E+00 -0.00000000000E+00 -0.85525039682E+03  0.85525039682E+03  0.00000000000E+00 0.  1.
          2    1    1    2  501    0 -0.22310208669E+02 -0.32367026766E+02 -0.26146778753E+02  0.47212539348E+02  0.00000000000E+00 0. -1.
          1    1    1    2  502    0  0.22310208669E+02  0.32367026766E+02 -0.81809876578E+03  0.81904270975E+03  0.00000000000E+00 0.  1.
</event>
<event>
 4    1  0.3767413E+003  0.2210538E+02  0.7546771E-02  0.1504048E+00
          2   -1    0    0  502    0  0.00000000000E+00  0.00000000000E+00  0.27967046480E+01  0.27967046480E+01  0.00000000000E+00 0.  1.
          1   -1    0    0  501    0 -0.00000000000E+00 -0.00000000000E+00 -0.19103532568E+03  0.19103532568E+03  0.00000000000E+00 0.  1.
          2    1    1    2  501    0 -0.19026013631E+02 -0.11254273737E+02 -0.65798854683E+02  0.69412802490E+02  0.00000000000E+00 0.  1.
          1    1    1    2  502    0  0.19026013631E+02  0.11254273737E+02 -0.12243976635E+03  0.12441922784E+03  0.00000000000E+00 0.  1.
</event>
<event>
 4    1  0.3767413E+003  0.3335955E+02  0.7546771E-02  0.1392478E+00
          2   -1    0    0  502    0  0.00000000000E+00  0.00000000000E+00  0.17982666569E+04  0.17982666569E+04  0.00000000000E+00 0.  1.
          1   -1    0    0  501    0 -0.00000000000E+00 -0.00000000000E+00 -0.10162616393E+01  0.10162616393E+01  0.00000000000E+00 0. -1.
          2    1    1    2  501    0 -0.54378274071E+01 -0.32913364746E+02  0.14612078162E+04  0.14615885678E+04  0.00000000000E+00 0.  1.
          1    1    1    2  502    0  0.54378274071E+01  0.32913364746E+02  0.33604257907E+03  0.33769435070E+03  0.00000000000E+00 0. -1.
</event>
<event>
 4    1  0.3767413E+003  0.4528603E+02  0.7546771E-02  0.1320015E+00
          2   -1    0    0  502    0  0.00000000000E+00  0.00000000000E+00  0.47121995714E+01  0.47121995714E+01  0.00000000000E+00 0.  1.
          1   -1    0    0  501    0 -0.00000000000E+00 -0.00000000000E+00 -0.84170499252E+03  0.84170499252E+03  0.00000000000E+00 0. -1.
          2    1    1    2  501    0  0.45140536484E+02  0.36272275465E+01 -0.12439376873E+03  0.13238064251E+03  0.00000000000E+00 0.  1.
          1    1    1    2  502    0 -0.45140536484E+02 -0.36272275465E+01 -0.71259902421E+03  0.71403654957E+03  0.00000000000E+00 0. -1.
</event>
<event>
 4    1  0.3767413E+003  0.2161238E+02  0.7546771E-02  0.1510698E+00
          2   -1    0    0  502    0  0.00000000000E+00  0.00000000000E+00  0.16414745590E+01  0.16414745590E+01  0.00000000000E+00 0.  1.
          1   -1    0    0  501    0 -0.00000000000E+00 -0.00000000000E+00 -0.41176598651E+03  0.41176598651E+03  0.00000000000E+00 0.  1.
          2    1    1    2  501    0  0.23938722117E+01 -0.21479394757E+02 -0.90172858622E+02  0.92726692249E+02  0.00000000000E+00 0.  1.
          1    1    1    2  502    0 -0.23938722117E+01  0.21479394757E+02 -0.31995165333E+03  0.32068076882E+03  0.00000000000E+00 0.  1.
</event>
<event>
 4    1  0.3767413E+003  0.2067744E+02  0.7546771E-02  0.1523920E+00
          2   -1    0    0  502    0  0.00000000000E+00  0.00000000000E+00  0.60533280605E+01  0.60533280605E+01  0.00000000000E+00 0. -1.
          1   -1    0    0  501    0 -0.00000000000E+00 -0.00000000000E+00 -0.74332550449E+02  0.74332550449E+02  0.00000000000E+00 0. -1.
          2    1    1    2  501    0 -0.18629582653E+01 -0.20593333842E+02 -0.43108097574E+02  0.47810711024E+02  0.00000000000E+00 0. -1.
          1    1    1    2  502    0  0.18629582653E+01  0.20593333842E+02 -0.25171124815E+02  0.32575167485E+02  0.00000000000E+00 0. -1.
</event>
<event>
 4    1  0.3767413E+003  0.2153832E+02  0.7546771E-02  0.1511716E+00
          2   -1    0    0  502    0  0.00000000000E+00  0.00000000000E+00  0.72086644306E+03  0.72086644306E+03  0.00000000000E+00 0.  1.
          1   -1    0    0  501    0 -0.00000000000E+00 -0.00000000000E+00 -0.86585443798E+00  0.86585443798E+00  0.00000000000E+00 0.  1.
          2    1    1    2  501    0  0.14387661677E+02 -0.16027924303E+02  0.54285970865E+03  0.54328681416E+03  0.00000000000E+00 0.  1.
          1    1    1    2  502    0 -0.14387661677E+02  0.16027924303E+02  0.17714087996E+03  0.17844548333E+03  0.00000000000E+00 0.  1.
</event>
<event>
 4    1  0.3767413E+003  0.2019801E+02  0.7546771E-02  0.1531030E+00
          2   -1    0    0  502    0  0.00000000000E+00  0.00000000000E+00  0.13567330873E+04  0.13567330873E+04  0.00000000000E+00 0.  1.
          1   -1    0    0  501    0 -0.00000000000E+00 -0.00000000000E+00 -0.16638396522E+01  0.16638396522E+01  0.00000000000E+00 0.  1.
          2    1    1    2  501    0 -0.48186519483E+01 -0.19614790786E+02  0.12923041544E+04  0.12924619866E+04  0.00000000000E+00 0.  1.
          1    1    1    2  502    0  0.48186519483E+01  0.19614790786E+02  0.62765093295E+02  0.65934940362E+02  0.00000000000E+00 0.  1.
</event>
<event>
 4    1  0.3767413E+003  0.2473888E+02  0.7546771E-02  0.1471746E+00
          2   -1    0    0  502    0  0.00000000000E+00  0.00000000000E+00  0.18117130962E+04  0.18117130962E+04  0.00000000000E+00 0. -1.
          1   -1    0    0  501    0 -0.00000000000E+00 -0.00000000000E+00 -0.28283682194E+01  0.28283682194E+01  0.00000000000E+00 0. -1.
          2    1    1    2  501    0  0.24448403415E+02  0.37799391686E+01  0.17558105020E+04  0.17559847754E+04  0.00000000000E+00 0. -1.
          1    1    1    2  502    0 -0.24448403415E+02 -0.37799391686E+01  0.53074225958E+02  0.58556689035E+02  0.00000000000E+00 0. -1.
</event>
<event>
 4    1  0.3767413E+003  0.2468291E+02  0.7546771E-02  0.1472382E+00
          2   -1    0    0  502    0  0.00000000000E+00  0.00000000000E+00  0.15043515282E+04  0.15043515282E+04  0.00000000000E+00 0. -1.
          1   -1    0    0  501    0 -0.00000000000E+00 -0.00000000000E+00 -0.69375887529E+00  0.69375887529E+00  0.00000000000E+00 0. -1.
          2    1    1    2  501    0  0.23334753133E+02  0.80458314056E+01  0.12373309662E+04  0.12375771354E+04  0.00000000000E+00 0. -1.
          1    1    1    2  502    0 -0.23334753133E+02 -0.80458314056E+01  0.26632680314E+03  0.26746815171E+03  0.00000000000E+00 0. -1.
</event>
<event>
 4    1  0.3767413E+003  0.4501931E+02  0.7546771E-02  0.1321343E+00
          2   -1    0    0  502    0  0.00000000000E+00  0.00000000000E+00  0.13973253060E+02  0.13973253060E+02  0.00000000000E+00 0.  1.
          1   -1    0    0  501    0 -0.00000000000E+00 -0.00000000000E+00 -0.15339948650E+03  0.15339948650E+03  0.00000000000E+00 0.  1.
          2    1    1    2  501    0 -0.21904674429E+02  0.39330953959E+02 -0.50182112014E+02  0.67416489581E+02  0.00000000000E+00 0.  1.
          1    1    1    2  502    0  0.21904674429E+02 -0.39330953959E+02 -0.89244121430E+02  0.99956249985E+02  0.00000000000E+00 0.  1.
</event>
<event>
 4    1  0.3767413E+003  0.2012609E+02  0.7546771E-02  0.1532117E+00
          2   -1    0    0  502    0  0.00000000000E+00  0.00000000000E+00  0.50618558826E+02  0.50618558826E+02  0.00000000000E+00 0. -1.
          1   -1    0    0  501    0 -0.00000000000E+00 -0.00000000000E+00 -0.50991063592E+03  0.50991063592E+03  0.00000000000E+00 0.  1.
          2    1    1    2  501    0 -0.14567532700E+02 -0.13886919210E+02  0.48410720566E+02  0.52427639655E+02  0.00000000000E+00 0. -1.
          1    1    1    2  502    0  0.14567532700E+02  0.13886919210E+02 -0.50770279766E+03  0.50810155509E+03  0.00000000000E+00 0.  1.
</event>
<event>
 4    1  0.3767413E+003  0.3359896E+02  0.7546771E-02  0.1390690E+00
          2   -1    0    0  502    0  0.00000000000E+00  0.00000000000E+00  0.12829607039E+03  0.12829607039E+03  0.00000000000E+00 0. -1.
          1   -1    0    0  501    0 -0.00000000000E+00 -0.00000000000E+00 -0.35399939074E+02  0.35399939074E+02  0.00000000000E+00 0. -1.
          2    1    1    2  501    0 -0.26084872906E+02  0.21177097590E+02  0.11739840890E+03  0.12211173764E+03  0.00000000000E+00 0. -1.
          1    1    1    2  502    0  0.26084872906E+02 -0.21177097590E+02 -0.24502277581E+02  0.41584271828E+02  0.00000000000E+00 0. -1.
</event>
<event>
 4    1  0.3767413E+003  0.2643746E+02  0.7546771E-02  0.1453342E+00
          2   -1    0    0  502    0  0.00000000000E+00  0.00000000000E+00  0.35777939932E+02  0.35777939932E+02  0.00000000000E+00 0. -1.
          1   -1    0    0  501    0 -0.00000000000E+00 -0.00000000000E+00 -0.26210706544E+03  0.26210706544E+03  0.00000000000E+00 0.  1.
          2    1    1    2  501    0 -0.12654205478E+02 -0.23212285730E+02  0.30119949277E+02  0.40076807127E+02  0.00000000000E+00 0. -1.
          1    1    1    2  502    0  0.12654205478E+02  0.23212285730E+02 -0.25644907478E+03  0.25780819825E+03  0.00000000000E+00 0.  1.
</event>
<event>
 4    1  0.3767413E+003  0.2366965E+02  0.7546771E-02  0.1484256E+00
          2   -1    0    0  502    0  0.00000000000E+00  0.00000000000E+00  0.48806694426E+01  0.48806694426E+01  0.00000000000E+00 0. -1.
          1   -1    0    0  501    0 -0.00000000000E+00 -0.00000000000E+00 -0.21006296798E+03  0.21006296798E+03  0.00000000000E+00 0. -1.
          2    1    1    2  501    0  0.13624264635E+02  0.19355403964E+02 -0.30213478661E+02  0.38381070103E+02  0.00000000000E+00 0. -1.
          1    1    1    2  502    0 -0.13624264635E+02 -0.19355403964E+02 -0.17496881987E+03  0.17656256732E+03  0.00000000000E+00 0. -1.
</event>
<event>
 4    1  0.3767413E+003  0.2259876E+02  0.7546771E-02  0.1497599E+00
          2   -1    0    0  502    0  0.00000000000E+00  0.00000000000E+00  0.10232587658E+04  0.10232587658E+04  0.00000000000E+00 0.  1.
          1   -1    0    0  501    0 -0.00000000000E+00 -0.00000000000E+00 -0.30053686610E+01  0.30053686610E+01  0.00000000000E+00 0. -1.
          2    1    1    2  501    0 -0.91457777860E+01 -0.20665399023E+02  0.97871826770E+03  0.97897913742E+03  0.00000000000E+00 0.  1.
          1    1    1    2  502    0  0.91457777860E+01  0.20665399023E+02  0.41535129452E+02  0.47284997057E+02  0.00000000000E+00 0. -1.
</event>
<event>
 4    1  0.3767413E+003  0.4310290E+02  0.7546771E-02  0.1331203E+00
          2   -1    0    0  502    0  0.00000000000E+00  0.00000000000E+00  0.11499104076E+02  0.11499104076E+02  0.00000000000E+00 0.  1.
          1   -1    0    0  501    0 -0.00000000000E+00 -0.00000000000E+00 -0.29961651555E+03  0.29961651555E+03  0.00000000000E+00 0. -1.
          2    1    1    2  501    0 -0.34574481647E+01 -0.42964006800E+02 -0.38467301253E+02  0.57771905749E+02  0.00000000000E+00 0.  1.
          1    1    1    2  502    0  0.34574481647E+01  0.42964006800E+02 -0.24965011022E+03  0.25334371388E+03  0.00000000000E+00 0. -1.
</event>
<event>
 4    1  0.3767413E+003  0.2397142E+02  0.7546771E-02  0.1480647E+00
          2   -1    0    0  502    0  0.00000000000E+00  0.00000000000E+00  0.11623259304E+02  0.11623259304E+02  0.00000000000E+00 0.  1.
          1   -1    0    0  501    0 -0.00000000000E+00 -0.00000000000E+00 -0.14212654241E+03  0.14212654241E+03  0.00000000000E+00 0. -1.
          2    1    1    2  501    0  0.44477314893E+01  0.23555183790E+02 -0.31704075130E+01  0.24180167133E+02  0.00000000000E+00 0.  1.
          1    1    1    2  502    0 -0.44477314893E+01 -0.23555183790E+02 -0.12733287559E+03  0.12956963458E+03  0.00000000000E+00 0. -1.
</event>
<event>
 4    1  0.3767413E+003  0.2586852E+02  0.7546771E-02  0.1459317E+00
          2   -1    0    0  502    0  0.00000000000E+00  0.00000000000E+00  0.95797124075E+03  0.95797124075E+03  0.00000000000E+00 0.  1.
          1   -1    0    0  501    0 -0.00000000000E+00 -0.00000000000E+00 -0.34574707126E+03  0.34574707126E+03  0.00000000000E+00 0.  1.
          2    1    1    2  501    0  0.25731051458E+02  0.26633203772E+01  0.95731240758E+03  0.95766185368E+03  0.00000000000E+00 0.  1.
          1    1    1    2  502    0 -0.25731051458E+02 -0.26633203772E+01 -0.34508823809E+03  0.34605645833E+03  0.00000000000E+00 0.  1.
</event>
<event>
 4    1  0.3767413E+003  0.4399568E+02  0.7546771E-02  0.1326538E+00
          2   -1    0    0  502    0  0.00000000000E+00  0.00000000000E+00  0.56781033991E+02  0.56781033991E+02  0.00000000000E+00 0.  1.
          1   -1    0    0  501    0 -0.00000000000E+00 -0.00000000000E+00 -0.59791358712E+03  0.59791358712E+03  0.00000000000E+00 0.  1.
          2    1    1    2  501    0 -0.86729368514E+01  0.43132356321E+02  0.47312471806E+02  0.64607197616E+02  0.00000000000E+00 0.  1.
          1    1    1    2  502    0  0.86729368514E+01 -0.43132356321E+02 -0.58844502494E+03  0.59008742350E+03  0.00000000000E+00 0.  1.
</event>
<event>
 4    1  0.3767413E+003  0.2261450E+02  0.7546771E-02  0.1497396E+00
          2   -1    0    0  502    0  0.00000000000E+00  0.00000000000E+00  0.99654165587E+01  0.99654165587E+01  0.00000000000E+00 0.  1.
          1   -1    0    0  501    0 -0.00000000000E+00 -0.00000000000E+00 -0.32213725051E+03  0.32213725051E+03  0.00000000000E+00 0. -1.
          2    1    1    2  501    0  0.22237798674E+02  0.41104503194E+01 -0.38346779785E+01  0.22937311239E+02  0.00000000000E+00 0.  1.
          1    1    1    2  502    0 -0.22237798674E+02 -0.41104503194E+01 -0.30833715598E+03  0.30916535583E+03  0.00000000000E+00 0. -1.
</event>
<event>
 4    1  0.3767413E+003  0.2920303E+02  0.7546771E-02  0.1426651E+00
          2   -1    0    0  502    0  0.00000000000E+00  0.00000000000E+00  0.98468915347E+02  0.98468915347E+02  0.00000000000E+00 0.  1.
          1   -1    0    0  501    0 -0.00000000000E+00 -0.00000000000E+00 -0.12318309298E+03  0.12318309298E+03  0.00000000000E+00 0.  1.
          2    1    1    2  501    0 -0.58071005227E+01  0.28619829689E+02  0.94501931594E+02  0.98911233654E+02  0.00000000000E+00 0.  1.
          1    1    1    2  502    0  0.58071005227E+01 -0.28619829689E+02 -0.11921610923E+03  0.12274077467E+03  0.00000000000E+00 0.  1.
</event>
<event>
 4    1  0.3767413E+003  0.4284440E+02  0.7546771E-02  0.1332578E+00
          2   -1    0    0  502    0  0.00000000000E+00  0.00000000000E+00  0.44471826516E+01  0.44471826516E+01  0.00000000000E+00 0.  1.
          1   -1    0    0  501    0 -0.00000000000E+00 -0.00000000000E+00 -0.65380754230E+03  0.65380754230E+03  0.00000000000E+00 0.  1.
          2    1    1    2  501    0  0.32237335906E+02 -0.28220505765E+02 -0.12483872284E+03  0.13198617160E+03  0.00000000000E+00 0.  1.
          1    1    1    2  502    0 -0.32237335906E+02  0.28220505765E+02 -0.52452163680E+03  0.52626855335E+03  0.00000000000E+00 0.  1.
</event>
<event>
 4    1  0.3767413E+003  0.2797277E+02  0.7546771E-02  0.1438074E+00
          2   -1    0    0  502    0  0.00000000000E+00  0.00000000000E+00  0.72066565075E+03  0.72066565075E+03  0.00000000000E+00 0.  1.
          1   -1    0    0  501    0 -0.00000000000E+00 -0.00000000000E+00 -0.63554432587E+01  0.63554432587E+01  0.00000000000E+00 0. -1.
          2    1    1    2  501    0 -0.14945196397E+02 -0.23645654428E+02  0.68816121355E+03  0.68872950547E+03  0.00000000000E+00 0.  1.
          1    1    1    2  502    0  0.14945196397E+02  0.23645654428E+02  0.26148993938E+02  0.38291588536E+02  0.00000000000E+00 0. -1.
</event>
<event>
 4    1  0.3767413E+003  0.2813335E+02  0.7546771E-02  0.1436544E+00
          2   -1    0    0  502    0  0.00000000000E+00  0.00000000000E+00  0.14315311872E+02  0.14315311872E+02  0.00000000000E+00 0.  1.
          1   -1    0    0  501    0 -0.00000000000E+00 -0.00000000000E+00 -0.65045566030E+03  0.65045566030E+03  0.00000000000E+00 0.  1.
          2    1    1    2  501    0  0.27921845591E+02  0.34432270456E+01 -0.12491935160E+00  0.28133625407E+02  0.00000000000E+00 0.  1.
          1    1    1    2  502    0 -0.27921845591E+02 -0.34432270456E+01 -0.63601542908E+03  0.63663734677E+03  0.00000000000E+00 0.  1.
</event>
<event>
 4    1  0.3767413E+003  0.2337503E+02  0.7546771E-02  0.1487842E+00
          2   -1    0    0  502    0  0.00000000000E+00  0.00000000000E+00  0.13755234198E+02  0.13755234198E+02  0.00000000000E+00 0. -1.
          1   -1    0    0  501    0 -0.00000000000E+00 -0.00000000000E+00 -0.62300264344E+03  0.62300264344E+03  0.00000000000E+00 0.  1.
          2    1    1    2  501    0  0.22554239516E+02  0.61398914619E+01  0.34381959080E+01  0.23626535472E+02  0.00000000000E+00 0. -1.
          1    1    1    2  502    0 -0.22554239516E+02 -0.61398914619E+01 -0.61268560515E+03  0.61313134216E+03  0.00000000000E+00 0.  1.
</event>
<event>
 4    1  0.3767413E+003  0.2292337E+02  0.7546771E-02  0.1493463E+00
          2   -1    0    0  502    0  0.00000000000E+00  0.00000000000E+00  0.26703229011E+03  0.26703229011E+03  0.00000000000E+00 0.  1.
          1   -1    0    0  501    0 -0.00000000000E+00 -0.00000000000E+00 -0.11111416690E+02  0.11111416690E+02  0.00000000000E+00 0.  1.
          2    1    1    2  501    0 -0.11234943626E+01 -0.22895817365E+02  0.25411769350E+03  0.25514953036E+03  0.00000000000E+00 0.  1.
          1    1    1    2  502    0  0.11234943626E+01  0.22895817365E+02  0.18031799186E+01  0.22994176441E+02  0.00000000000E+00 0.  1.
</event>
<event>
 4    1  0.3767413E+003  0.2714241E+02  0.7546771E-02  0.1446183E+00
          2   -1    0    0  502    0  0.00000000000E+00  0.00000000000E+00  0.53057350991E+03  0.53057350991E+03  0.00000000000E+00 0.  1.
          1   -1    0    0  501    0 -0.00000000000E+00 -0.00000000000E+00 -0.59849295305E+01  0.59849295305E+01  0.00000000000E+00 0.  1.
          2    1    1    2  501    0  0.23113388773E+02  0.14229608115E+02  0.49740207015E+03  0.49814207800E+03  0.00000000000E+00 0.  1.
          1    1    1    2  502    0 -0.23113388773E+02 -0.14229608115E+02  0.27186510231E+02  0.38416361439E+02  0.00000000000E+00 0.  1.
</event>
<event>
 4    1  0.3767413E+003  0.3038001E+02  0.7546771E-02  0.1416322E+00
          2   -1    0    0  502    0  0.00000000000E+00  0.00000000000E+00  0.48097885472E+02  0.48097885472E+02  0.00000000000E+00 0.  1.
          1   -1    0    0  501    0 -0.00000000000E+00 -0.00000000000E+00 -0.13697490877E+04  0.13697490877E+04  0.00000000000E+00 0.  1.
          2    1    1    2  501    0 -0.11749017611E+02  0.28016167888E+02  0.43114697260E+02  0.52742982450E+02  0.00000000000E+00 0.  1.
          1    1    1    2  502    0  0.11749017611E+02 -0.28016167888E+02 -0.13647658995E+04  0.13651039907E+04  0.00000000000E+00 0.  1.
</event>
<event>
 4    1  0.3767413E+003  0.2891082E+02  0.7546771E-02  0.1429303E+00
          2   -1    0    0  502    0  0.00000000000E+00  0.00000000000E+00  0.50112273861E+03  0.50112273861E+03  0.00000000000E+00 0. -1.
          1   -1    0    0  501    0 -0.00000000000E+00 -0.00000000000E+00 -0.16622989464E+02  0.16622989464E+02  0.00000000000E+00 0.  1.
          2    1    1    2  501    0 -0.57451764736E+01  0.28334231475E+02  0.48779204566E+03  0.48864804874E+03  0.00000000000E+00 0. -1.
          1    1    1    2  502    0  0.57451764736E+01 -0.28334231475E+02 -0.32922965215E+01  0.29097679329E+02  0.00000000000E+00 0.  1.
</event>
<event>
 4    1  0.3767413E+003  0.8031924E+02  0.7546771E-02  0.1203108E+00
          2   -1    0    0  502    0  0.00000000000E+00  0.00000000000E+00  0.66379417030E+02  0.66379417030E+02  0.00000000000E+00 0. -1.
          1   -1    0    0  501    0 -0.00000000000E+00 -0.00000000000E+00 -0.19724266860E+04  0.19724266860E+04  0.00000000000E+00 0. -1.
          2    1    1    2  501    0 -0.26674846842E+02  0.75760370000E+02  0.40947903552E+02  0.90154932876E+02  0.00000000000E+00 0. -1.
          1    1    1    2  502    0  0.26674846842E+02 -0.75760370000E+02 -0.19469951725E+04  0.19486511701E+04  0.00000000000E+00 0. -1.
</event>
<event>
 4    1  0.3767413E+003  0.2050292E+02  0.7546771E-02  0.1526482E+00
          2   -1    0    0  502    0  0.00000000000E+00  0.00000000000E+00  0.49548134468E+01  0.49548134468E+01  0.00000000000E+00 0. -1.
          1   -1    0    0  501    0 -0.00000000000E+00 -0.00000000000E+00 -0.85019082114E+02  0.85019082114E+02  0.00000000000E+00 0. -1.
          2    1    1    2  501    0 -0.11579260057E+01  0.20470186879E+02 -0.42093363234E+02  0.46821155174E+02  0.00000000000E+00 0. -1.
          1    1    1    2  502    0  0.11579260057E+01 -0.20470186879E+02 -0.37970905433E+02  0.43152740387E+02  0.00000000000E+00 0. -1.
</event>
<event>
 4    1  0.3767413E+003  0.2546280E+02  0.7546771E-02  0.1463692E+00
          2   -1    0    0  502    0  0.00000000000E+00  0.00000000000E+00  0.15288189795E+04  0.15288189795E+04  0.00000000000E+00 0. -1.
          1   -1    0    0  501    0 -0.00000000000E+00 -0.00000000000E+00 -0.27105331952E+02  0.27105331952E+02  0.00000000000E+00 0. -1.
          2    1    1    2  501    0  0.14416804714E+02 -0.20988328234E+02  0.15227090136E+04  0.15229218937E+04  0.00000000000E+00 0. -1.
          1    1    1    2  502    0 -0.14416804714E+02  0.20988328234E+02 -0.20995366073E+02  0.33002417741E+02  0.00000000000E+00 0. -1.
</event>
<event>
 4    1  0.3767413E+003  0.2427845E+02  0.7546771E-02  0.1477040E+00
          2   -1    0    0  502    0  0.00000000000E+00  0.00000000000E+00  0.16409903925E+02  0.16409903925E+02  0.00000000000E+00 0.  1.
          1   -1    0    0  501    0 -0.00000000000E+00 -0.00000000000E+00 -0.62497229949E+03  0.62497229949E+03  0.00000000000E+00 0.  1.
          2    1    1    2  501    0  0.15881731814E+02 -0.18363382237E+02  0.70577585200E+01  0.25283495960E+02  0.00000000000E+00 0.  1.
          1    1    1    2  502    0 -0.15881731814E+02  0.18363382237E+02 -0.61562015409E+03  0.61609870746E+03  0.00000000000E+00 0.  1.
</event>
<event>
 4    1  0.3767413E+003  0.4885682E+02  0.7546771E-02  0.1303206E+00
          2   -1    0    0  502    0  0.00000000000E+00  0.00000000000E+00  0.60292451285E+03  0.60292451285E+03  0.00000000000E+00 0. -1.
          1   -1    0    0  501    0 -0.00000000000E+00 -0.00000000000E+00 -0.16741323271E+02  0.16741323271E+02  0.00000000000E+00 0. -1.
          2    1    1    2  501    0 -0.19000415860E+02 -0.45010815817E+02  0.56382213443E+03  0.56593496854E+03  0.00000000000E+00 0. -1.
          1    1    1    2  502    0  0.19000415860E+02  0.45010815817E+02  0.22361055147E+02  0.53730867578E+02  0.00000000000E+00 0. -1.
</event>
<event>
 4    1  0.3767413E+003  0.2373786E+02  0.7546771E-02  0.1483435E+00
          2   -1    0    0  502    0  0.00000000000E+00  0.00000000000E+00  0.19097476788E+03  0.19097476788E+03  0.00000000000E+00 0.  1.
          1   -1    0    0  501    0 -0.00000000000E+00 -0.00000000000E+00 -0.52324678953E+01  0.52324678953E+01  0.00000000000E+00 0. -1.
          2    1    1    2  501    0  0.15354076512E+02  0.18103546375E+02  0.15765683069E+03  0.15943388071E+03  0.00000000000E+00 0.  1.
          1    1    1    2  502    0 -0.15354076512E+02 -0.18103546375E+02  0.28085469298E+02  0.36773355063E+02  0.00000000000E+00 0. -1.
</event>
<event>
 4    1  0.3767413E+003  0.2303909E+02  0.7546771E-02  0.1492008E+00
          2   -1    0    0  502    0  0.00000000000E+00  0.00000000000E+00  0.50311506160E+03  0.50311506160E+03  0.00000000000E+00 0.  1.
          1   -1    0    0  501    0 -0.00000000000E+00 -0.00000000000E+00 -0.23919859252E+02  0.23919859252E+02  0.00000000000E+00 0. -1.
          2    1    1    2  501    0  0.17685925273E+02 -0.14765078735E+02  0.49723808448E+03  0.49777154615E+03  0.00000000000E+00 0.  1.
          1    1    1    2  502    0 -0.17685925273E+02  0.14765078735E+02 -0.18042882135E+02  0.29263374695E+02  0.00000000000E+00 0. -1.
</event>
<event>
 4    1  0.3767413E+003  0.3890116E+02  0.7546771E-02  0.1355048E+00
          2   -1    0    0  502    0  0.00000000000E+00  0.00000000000E+00  0.35203495527E+02  0.35203495527E+02  0.00000000000E+00 0.  1.
          1   -1    0    0  501    0 -0.00000000000E+00 -0.00000000000E+00 -0.67815108041E+02  0.67815108041E+02  0.00000000000E+00 0.  1.
          2    1    1    2  501    0  0.32652274927E+02  0.21145423620E+02  0.14861008862E+02  0.41643121670E+02  0.00000000000E+00 0.  1.
          1    1    1    2  502    0 -0.32652274927E+02 -0.21145423620E+02 -0.47472621376E+02  0.61375481899E+02  0.00000000000E+00 0.  1.
</event>
<event>
 4    1  0.3767413E+003  0.2128570E+02  0.7546771E-02  0.1515225E+00
          2   -1    0    0  502    0  0.00000000000E+00  0.00000000000E+00  0.66878717359E+03  0.66878717359E+03  0.00000000000E+00 0. -1.
          1   -1    0    0  501    0 -0.00000000000E+00 -0.00000000000E+00 -0.72497620057E+00  0.72497620057E+00  0.00000000000E+00 0. -1.
          2    1    1    2  501    0  0.13012267723E+02  0.16845223604E+02  0.24833533510E+03  0.24924590133E+03  0.00000000000E+00 0. -1.
          1    1    1    2  502    0 -0.13012267723E+02 -0.16845223604E+02  0.41972686229E+03  0.42026624847E+03  0.00000000000E+00 0. -1.
</event>
<event>
 4    1  0.3767413E+003  0.2198477E+02  0.7546771E-02  0.1505656E+00
          2   -1    0    0  502    0  0.00000000000E+00  0.00000000000E+00  0.17834738288E+03  0.17834738288E+03  0.00000000000E+00 0.  1.
          1   -1    0    0  501    0 -0.00000000000E+00 -0.00000000000E+00 -0.32488521385E+03  0.32488521385E+03  0.00000000000E+00 0.  1.
          2    1    1    2  501    0 -0.11490137027E+02  0.18743177457E+02  0.17729574962E+03  0.17865361117E+03  0.00000000000E+00 0.  1.
          1    1    1    2  502    0  0.11490137027E+02 -0.18743177457E+02 -0.32383358059E+03  0.32457898556E+03  0.00000000000E+00 0.  1.
</event>
<event>
 4    1  0.3767413E+003  0.3984686E+02  0.7546771E-02  0.1349386E+00
          2   -1    0    0  502    0  0.00000000000E+00  0.00000000000E+00  0.10386100853E+03  0.10386100853E+03  0.00000000000E+00 0.  1.
          1   -1    0    0  501    0 -0.00000000000E+00 -0.00000000000E+00 -0.53334906304E+02  0.53334906304E+02  0.00000000000E+00 0. -1.
          2    1    1    2  501    0  0.12315525977E+02  0.37895912696E+02  0.91647778014E+02  0.99935417116E+02  0.00000000000E+00 0.  1.
          1    1    1    2  502    0 -0.12315525977E+02 -0.37895912696E+02 -0.41121675788E+02  0.57260497717E+02  0.00000000000E+00 0. -1.
</event>
<event>
 4    1  0.3767413E+003  0.2222955E+02  0.7546771E-02  0.1502406E+00
          2   -1    0    0  502    0  0.00000000000E+00  0.00000000000E+00  0.64868877935E+03  0.64868877935E+03  0.00000000000E+00 0.  1.
          1   -1    0    0  501    0 -0.00000000000E+00 -0.00000000000E+00 -0.16147094837E+03  0.16147094837E+03  0.00000000000E+00 0. -1.
          2    1    1    2  501    0  0.18615412681E+02 -0.12149871420E+02  0.64773212641E+03  0.64811346271E+03  0.00000000000E+00 0.  1.
          1    1    1    2  502    0 -0.18615412681E+02  0.12149871420E+02 -0.16051429543E+03  0.16204626501E+03  0.00000000000E+00 0. -1.
</event>
<event>
 4    1  0.3767413E+003  0.3113480E+02  0.7546771E-02  0.1409985E+00
          2   -1    0    0  502    0  0.00000000000E+00  0.00000000000E+00  0.21133256046E+03  0.21133256046E+03  0.00000000000E+00 0.  1.
          1   -1    0    0  501    0 -0.00000000000E+00 -0.00000000000E+00 -0.18560619911E+02  0.18560619911E+02  0.00000000000E+00 0. -1.
          2    1    1    2  501    0  0.25108815615E+02  0.18409868759E+02  0.19612262557E+03  0.19857859943E+03  0.00000000000E+00 0.  1.
          1    1    1    2  502    0 -0.25108815615E+02 -0.18409868759E+02 -0.33506850252E+01  0.31314580940E+02  0.00000000000E+00 0. -1.
</event>
<event>
 4    1  0.3767413E+003  0.2211937E+02  0.7546771E-02  0.1503863E+00
          2   -1    0    0  502    0  0.00000000000E+00  0.00000000000E+00  0.40536690225E+03  0.40536690225E+03  0.00000000000E+00 0. -1.
          1   -1    0    0  501    0 -0.00000000000E+00 -0.00000000000E+00 -0.16252186573E+02  0.16252186573E+02  0.00000000000E+00 0. -1.
          2    1    1    2  501    0 -0.92684906475E+01  0.20083863169E+02  0.39738799914E+03  0.39800312605E+03  0.00000000000E+00 0. -1.
          1    1    1    2  502    0  0.92684906475E+01 -0.20083863169E+02 -0.82732834656E+01  0.23615962779E+02  0.00000000000E+00 0. -1.
</event>
<event>
 4    1  0.3767413E+003  0.3611181E+02  0.7546771E-02  0.1372911E+00
          2   -1    0    0  502    0  0.00000000000E+00  0.00000000000E+00  0.62684154147E+03  0.62684154147E+03  0.00000000000E+00 0.  1.
          1   -1    0    0  501    0 -0.00000000000E+00 -0.00000000000E+00 -0.27727979064E+01  0.27727979064E+01  0.00000000000E+00 0.  1.
          2    1    1    2  501    0 -0.26527809491E+02  0.24501798787E+02  0.46935024525E+03  0.47073741676E+03  0.00000000000E+00 0.  1.
          1    1    1    2  502    0  0.26527809491E+02 -0.24501798787E+02  0.15471849832E+03  0.15887692262E+03  0.00000000000E+00 0.  1.
</event>
<event>
 4    1  0.3767413E+003  0.2022877E+02  0.7546771E-02  0.1530567E+00
          2   -1    0    0  502    0  0.00000000000E+00  0.00000000000E+00  0.89225535662E+03  0.89225535662E+03  0.00000000000E+00 0.  1.
          1   -1    0    0  501    0 -0.00000000000E+00 -0.00000000000E+00 -0.43113856386E+02  0.43113856386E+02  0.00000000000E+00 0. -1.
          2    1    1    2  501    0  0.17691516194E+02 -0.98088426583E+01  0.88976124681E+03  0.88999116820E+03  0.00000000000E+00 0.  1.
          1    1    1    2  502    0 -0.17691516194E+02  0.98088426583E+01 -0.40619746573E+02  0.45378044814E+02  0.00000000000E+00 0. -1.
</event>
<event>
 4    1  0.3767413E+003  0.5417813E+02  0.7546771E-02  0.1281007E+00
          2   -1    0    0  502    0  0.00000000000E+00  0.00000000000E+00  0.29097265902E+03  0.29097265902E+03  0.00000000000E+00 0. -1.
          1   -1    0    0  501    0 -0.00000000000E+00 -0.00000000000E+00 -0.11257042927E+03  0.11257042927E+03  0.00000000000E+00 0. -1.
          2    1    1    2  501    0  0.49196469804E+02 -0.22693099774E+02  0.28171981441E+03  0.28688207202E+03  0.00000000000E+00 0. -1.
          1    1    1    2  502    0 -0.49196469804E+02  0.22693099774E+02 -0.10331758465E+03  0.11666101627E+03  0.00000000000E+00 0. -1.
</event>
<event>
 4    1  0.3767413E+003  0.2039812E+02  0.7546771E-02  0.1528034E+00
          2   -1    0    0  502    0  0.00000000000E+00  0.00000000000E+00  0.45365880197E+03  0.45365880197E+03  0.00000000000E+00 0. -1.
          1   -1    0    0  501    0 -0.00000000000E+00 -0.00000000000E+00 -0.10351104858E+02  0.10351104858E+02  0.00000000000E+00 0. -1.
          2    1    1    2  501    0 -0.37489122989E+01 -0.20050656514E+02  0.44314189513E+03  0.44361111617E+03  0.00000000000E+00 0. -1.
          1    1    1    2  502    0  0.37489122989E+01  0.20050656514E+02  0.16580198268E+00  0.20398790660E+02  0.00000000000E+00 0. -1.
</event>
<event>
 4    1  0.4495176E+003  0.2544202E+02  0.7546771E-02  0.1463919E+00
          2   -1    0    0  502    0  0.00000000000E+00  0.00000000000E+00  0.62326293490E+03  0.62326293490E+03  0.00000000000E+00 0.  1.
          1   -1    0    0  501    0 -0.00000000000E+00 -0.00000000000E+00 -0.17334322965E+04  0.17334322965E+04  0.00000000000E+00 0.  1.
          2    1    1    2  501    0 -0.23652918943E+02 -0.93720767900E+01  0.62290988710E+03  0.62342924526E+03  0.00000000000E+00 0.  1.
          1    1    1    2  502    0  0.23652918943E+02  0.93720767900E+01 -0.17330792487E+04  0.17332659861E+04  0.00000000000E+00 0.  1.
</event>
<event>
 4    1  0.3767413E+003  0.2209284E+02  0.7546771E-02  0.1504215E+00
          2   -1    0    0  502    0  0.00000000000E+00  0.00000000000E+00  0.28522819898E+03  0.28522819898E+03  0.00000000000E+00 0. -1.
          1   -1    0    0  501    0 -0.00000000000E+00 -0.00000000000E+00 -0.53764271228E+02  0.53764271228E+02  0.00000000000E+00 0. -1.
          2    1    1    2  501    0 -0.89574751061E+01  0.20195470561E+02  0.28250897803E+03  0.28337151597E+03  0.00000000000E+00 0. -1.
          1    1    1    2  502    0  0.89574751061E+01 -0.20195470561E+02 -0.51045050286E+02  0.55620954237E+02  0.00000000000E+00 0. -1.
</event>
<event>
 4    1  0.3767413E+003  0.2558893E+02  0.7546771E-02  0.1462322E+00
          2   -1    0    0  502    0  0.00000000000E+00  0.00000000000E+00  0.47186317603E+02  0.47186317603E+02  0.00000000000E+00 0.  1.
          1   -1    0    0  501    0 -0.00000000000E+00 -0.00000000000E+00 -0.39480228628E+03  0.39480228628E+03  0.00000000000E+00 0. -1.
          2    1    1    2  501    0 -0.23603992338E+02  0.98815402589E+01  0.43267752402E+02  0.50268197602E+02  0.00000000000E+00 0.  1.
          1    1    1    2  502    0  0.23603992338E+02 -0.98815402589E+01 -0.39088372108E+03  0.39172040628E+03  0.00000000000E+00 0. -1.
</event>
<event>
 4    1  0.3767413E+003  0.2010815E+02  0.7546771E-02  0.1532389E+00
          2   -1    0    0  502    0  0.00000000000E+00  0.00000000000E+00  0.29309136884E+03  0.29309136884E+03  0.00000000000E+00 0.  1.
          1   -1    0    0  501    0 -0.00000000000E+00 -0.00000000000E+00 -0.15173043410E+01  0.15173043410E+01  0.00000000000E+00 0. -1.
          2    1    1    2  501    0 -0.15239588189E+02  0.13118404058E+02  0.19016972775E+03  0.19122986933E+03  0.00000000000E+00 0.  1.
          1    1    1    2  502    0  0.15239588189E+02 -0.13118404058E+02  0.10140433675E+03  0.10337880385E+03  0.00000000000E+00 0. -1.
</event>
<event>
 4    1  0.3767413E+003  0.2226675E+02  0.7546771E-02  0.1501917E+00
          2   -1    0    0  502    0  0.00000000000E+00  0.00000000000E+00  0.13170472686E+04  0.13170472686E+04  0.00000000000E+00 0.  1.
          1   -1    0    0  501    0 -0.00000000000E+00 -0.00000000000E+00 -0.45854171327E+01  0.45854171327E+01  0.00000000000E+00 0. -1.
          2    1    1    2  501    0 -0.76649409342E+01 -0.20905901348E+02  0.12893405257E+04  0.12895327833E+04  0.00000000000E+00 0.  1.
          1    1    1    2  502    0  0.76649409342E+01  0.20905901348E+02  0.23121325806E+02  0.32099902457E+02  0.00000000000E+00 0. -1.
</event>
<event>
 4    1  0.3767413E+003  0.2630921E+02  0.7546771E-02  0.1454673E+00
          2   -1    0    0  502    0  0.00000000000E+00  0.00000000000E+00  0.12620483815E+03  0.12620483815E+03  0.00000000000E+00 0.  1.
          1   -1    0    0  501    0 -0.00000000000E+00 -0.00000000000E+00 -0.15469563671E+02  0.15469563671E+02  0.00000000000E+00 0.  1.
          2    1    1    2  501    0 -0.24033117716E+02 -0.10704387387E+02  0.11227874663E+03  0.11531995318E+03  0.00000000000E+00 0.  1.
          1    1    1    2  502    0  0.24033117716E+02  0.10704387387E+02 -0.15434721585E+01  0.26354448633E+02  0.00000000000E+00 0.  1.
</event>
<event>
 4    1  0.3767413E+003  0.2161103E+02  0.7546771E-02  0.1510717E+00
          2   -1    0    0  502    0  0.00000000000E+00  0.00000000000E+00  0.95349692752E+02  0.95349692752E+02  0.00000000000E+00 0.  1.
          1   -1    0    0  501    0 -0.00000000000E+00 -0.00000000000E+00 -0.52609004049E+01  0.52609004049E+01  0.00000000000E+00 0. -1.
          2    1    1    2  501    0  0.19763844622E+02 -0.87422675483E+01  0.58253991675E+02  0.62133439807E+02  0.00000000000E+00 0.  1.
          1    1    1    2  502    0 -0.19763844622E+02  0.87422675483E+01  0.31834800671E+02  0.38477153350E+02  0.00000000000E+00 0. -1.
</event>
<event>
 4    1  0.3767413E+003  0.4058279E+02  0.7546771E-02  0.1345104E+00
          2   -1    0    0  502    0  0.00000000000E+00  0.00000000000E+00  0.58467405402E+03  0.58467405402E+03  0.00000000000E+00 0. -1.
          1   -1    0    0  501    0 -0.00000000000E+00 -0.00000000000E+00 -0.63325962299E+01  0.63325962299E+01  0.00000000000E+00 0.  1.
          2    1    1    2  501    0 -0.18244151773E+02 -0.36250702380E+02  0.50935067560E+03  0.51096484540E+03  0.00000000000E+00 0. -1.
          1    1    1    2  502    0  0.18244151773E+02  0.36250702380E+02  0.68990782190E+02  0.80041804853E+02  0.00000000000E+00 0.  1.
</event>
<event>
 4    1  0.3767413E+003  0.3187805E+02  0.7546771E-02  0.1403949E+00
          2   -1    0    0  502    0  0.00000000000E+00  0.00000000000E+00  0.42059594379E+03  0.42059594379E+03  0.00000000000E+00 0. -1.
          1   -1    0    0  501    0 -0.00000000000E+00 -0.00000000000E+00 -0.63596064443E+01  0.63596064443E+01  0.00000000000E+00 0. -1.
          2    1    1    2  501    0  0.19312784818E+02 -0.25361914429E+02  0.37522203880E+03  0.37657374944E+03  0.00000000000E+00 0. -1.
          1    1    1    2  502    0 -0.19312784818E+02  0.25361914429E+02  0.39014298544E+02  0.50381800799E+02  0.00000000000E+00 0. -1.
</event>
<event>
 4    1  0.3767413E+003  0.2987835E+02  0.7546771E-02  0.1420657E+00
          2   -1    0    0  502    0  0.00000000000E+00  0.00000000000E+00  0.40322089027E+03  0.40322089027E+03  0.00000000000E+00 0. -1.
          1   -1    0    0  501    0 -0.00000000000E+00 -0.00000000000E+00 -0.11285281735E+03  0.11285281735E+03  0.00000000000E+00 0.  1.
          2    1    1    2  501    0 -0.15576168998E+02  0.25497035857E+02  0.40067725155E+03  0.40178971588E+03  0.00000000000E+00 0. -1.
          1    1    1    2  502    0  0.15576168998E+02 -0.25497035857E+02 -0.11030917863E+03  0.11428399174E+03  0.00000000000E+00 0.  1.
</event>
<event>
 4    1  0.3767413E+003  0.2629052E+02  0.7546771E-02  0.1454868E+00
          2   -1    0    0  502    0  0.00000000000E+00  0.00000000000E+00  0.90514994809E+02  0.90514994809E+02  0.00000000000E+00 0.  1.
          1   -1    0    0  501    0 -0.00000000000E+00 -0.00000000000E+00 -0.24734384259E+02  0.24734384259E+02  0.00000000000E+00 0. -1.
          2    1    1    2  501    0 -0.25927941897E+02  0.43512104119E+01  0.80801054144E+02  0.84970592289E+02  0.00000000000E+00 0.  1.
          1    1    1    2  502    0  0.25927941897E+02 -0.43512104119E+01 -0.15020443595E+02  0.30278786779E+02  0.00000000000E+00 0. -1.
</event>
<event>
 4    1  0.3767413E+003  0.2307794E+02  0.7546771E-02  0.1491522E+00
          2   -1    0    0  502    0  0.00000000000E+00  0.00000000000E+00  0.72562917244E+02  0.72562917244E+02  0.00000000000E+00 0. -1.
          1   -1    0    0  501    0 -0.00000000000E+00 -0.00000000000E+00 -0.20028976128E+03  0.20028976128E+03  0.00000000000E+00 0.  1.
          2    1    1    2  501    0  0.14497338835E+02  0.17956011310E+02  0.70039882315E+02  0.73743991553E+02  0.00000000000E+00 0. -1.
          1    1    1    2  502    0 -0.14497338835E+02 -0.17956011310E+02 -0.19776672635E+03  0.19910868697E+03  0.00000000000E+00 0.  1.
</event>
<event>
 4    1  0.3767413E+003  0.2593366E+02  0.7546771E-02  0.1458624E+00
          2   -1    0    0  502    0  0.00000000000E+00  0.00000000000E+00  0.15800492491E+03  0.15800492491E+03  0.00000000000E+00 0.  1.
          1   -1    0    0  501    0 -0.00000000000E+00 -0.00000000000E+00 -0.79924965249E+02  0.79924965249E+02  0.00000000000E+00 0.  1.
          2    1    1    2  501    0 -0.16577749949E+02 -0.19943246660E+02  0.15479374262E+03  0.15695113136E+03  0.00000000000E+00 0.  1.
          1    1    1    2  502    0  0.16577749949E+02  0.19943246660E+02 -0.76713782960E+02  0.80978758800E+02  0.00000000000E+00 0.  1.
</event>
<event>
 4    1  0.3767413E+003  0.2833954E+02  0.7546771E-02  0.1434597E+00
          2   -1    0    0  502    0  0.00000000000E+00  0.00000000000E+00  0.82489829247E+03  0.82489829247E+03  0.00000000000E+00 0.  1.
          1   -1    0    0  501    0 -0.00000000000E+00 -0.00000000000E+00 -0.28015832076E+03  0.28015832076E+03  0.00000000000E+00 0.  1.
          2    1    1    2  501    0 -0.16283827217E+02 -0.23194100449E+02  0.82393737985E+03  0.82442460858E+03  0.00000000000E+00 0.  1.
          1    1    1    2  502    0  0.16283827217E+02  0.23194100449E+02 -0.27919740814E+03  0.28063200465E+03  0.00000000000E+00 0.  1.
</event>
<event>
 4    1  0.3767413E+003  0.2410153E+02  0.7546771E-02  0.1479111E+00
          2   -1    0    0  502    0  0.00000000000E+00  0.00000000000E+00  0.11015377609E+03  0.11015377609E+03  0.00000000000E+00 0.  1.
          1   -1    0    0  501    0 -0.00000000000E+00 -0.00000000000E+00 -0.21428218031E+02  0.21428218031E+02  0.00000000000E+00 0.  1.
          2    1    1    2  501    0  0.20689221040E+02 -0.12362849893E+02  0.10148756644E+03  0.10431016281E+03  0.00000000000E+00 0.  1.
          1    1    1    2  502    0 -0.20689221040E+02  0.12362849893E+02 -0.12762008381E+02  0.27271831304E+02  0.00000000000E+00 0.  1.
</event>
<event>
 4    1  0.3767413E+003  0.9863201E+02  0.7546771E-02  0.1166200E+00
          2   -1    0    0  502    0  0.00000000000E+00  0.00000000000E+00  0.25124721727E+04  0.25124721727E+04  0.00000000000E+00 0.  1.
          1   -1    0    0  501    0 -0.00000000000E+00 -0.00000000000E+00 -0.16091807314E+02  0.16091807314E+02  0.00000000000E+00 0.  1.
          2    1    1    2  501    0 -0.69083025446E+02 -0.70397505789E+02  0.23499168282E+04  0.23519858359E+04  0.00000000000E+00 0.  1.
          1    1    1    2  502    0  0.69083025446E+02  0.70397505789E+02  0.14646353723E+03  0.17657814407E+03  0.00000000000E+00 0.  1.
</event>
<event>
 4    1  0.3767413E+003  0.2384481E+02  0.7546771E-02  0.1482154E+00
          2   -1    0    0  502    0  0.00000000000E+00  0.00000000000E+00  0.11583224339E+02  0.11583224339E+02  0.00000000000E+00 0.  1.
          1   -1    0    0  501    0 -0.00000000000E+00 -0.00000000000E+00 -0.19756523062E+03  0.19756523062E+03  0.00000000000E+00 0. -1.
          2    1    1    2  501    0 -0.15693082746E+02 -0.17952777926E+02 -0.23338360667E+01  0.23958753559E+02  0.00000000000E+00 0.  1.
          1    1    1    2  502    0  0.15693082746E+02  0.17952777926E+02 -0.18364817022E+03  0.18518970140E+03  0.00000000000E+00 0. -1.
</event>
<event>
 4    1  0.3767413E+003  0.2207278E+02  0.7546771E-02  0.1504481E+00
          2   -1    0    0  502    0  0.00000000000E+00  0.00000000000E+00  0.31940481316E+01  0.31940481316E+01  0.00000000000E+00 0.  1.
          1   -1    0    0  501    0 -0.00000000000E+00 -0.00000000000E+00 -0.16909291508E+03  0.16909291508E+03  0.00000000000E+00 0. -1.
          2    1    1    2  501    0  0.17154579901E+02 -0.13889848088E+02 -0.55993849491E+02  0.60187363062E+02  0.00000000000E+00 0.  1.
          1    1    1    2  502    0 -0.17154579901E+02  0.13889848088E+02 -0.10990501745E+03  0.11209960015E+03  0.00000000000E+00 0. -1.
</event>
<event>
 4    1  0.3767413E+003  0.3174812E+02  0.7546771E-02  0.1404990E+00
          2   -1    0    0  502    0  0.00000000000E+00  0.00000000000E+00  0.48123317417E+01  0.48123317417E+01  0.00000000000E+00 0. -1.
          1   -1    0    0  501    0 -0.00000000000E+00 -0.00000000000E+00 -0.85041490595E+03  0.85041490595E+03  0.00000000000E+00 0.  1.
          2    1    1    2  501    0 -0.26965562631E+02 -0.16757143548E+02 -0.51562637721E+02  0.60552861507E+02  0.00000000000E+00 0. -1.
          1    1    1    2  502    0  0.26965562631E+02  0.16757143548E+02 -0.79403993649E+03  0.79467437619E+03  0.00000000000E+00 0.  1.
</event>
<event>
 4    1  0.3767413E+003  0.2936131E+02  0.7546771E-02  0.1425229E+00
          2   -1    0    0  502    0  0.00000000000E+00  0.00000000000E+00  0.63267923859E+03  0.63267923859E+03  0.00000000000E+00 0.  1.
          1   -1    0    0  501    0 -0.00000000000E+00 -0.00000000000E+00 -0.14045282222E+01  0.14045282222E+01  0.00000000000E+00 0. -1.
          2    1    1    2  501    0 -0.14687695699E+02 -0.25423553490E+02  0.26085619073E+03  0.26250340516E+03  0.00000000000E+00 0.  1.
          1    1    1    2  502    0  0.14687695699E+02  0.25423553490E+02  0.37041851964E+03  0.37158036165E+03  0.00000000000E+00 0. -1.
</event>
<event>
 4    1  0.3767413E+003  0.2651447E+02  0.7546771E-02  0.1452547E+00
          2   -1    0    0  502    0  0.00000000000E+00  0.00000000000E+00  0.10282186935E+02  0.10282186935E+02  0.00000000000E+00 0.  1.
          1   -1    0    0  501    0 -0.00000000000E+00 -0.00000000000E+00 -0.17412416045E+03  0.17412416045E+03  0.00000000000E+00 0.  1.
          2    1    1    2  501    0 -0.18063480439E+02 -0.19409481065E+02 -0.10065446595E+02  0.28360721006E+02  0.00000000000E+00 0.  1.
          1    1    1    2  502    0  0.18063480439E+02  0.19409481065E+02 -0.15377652692E+03  0.15604562638E+03  0.00000000000E+00 0.  1.
</event>
<event>
 4    1  0.3767413E+003  0.2423388E+02  0.7546771E-02  0.1477559E+00
          2   -1    0    0  502    0  0.00000000000E+00  0.00000000000E+00  0.13266714478E+03  0.13266714478E+03  0.00000000000E+00 0.  1.
          1   -1    0    0  501    0 -0.00000000000E+00 -0.00000000000E+00 -0.32482674050E+03  0.32482674050E+03  0.00000000000E+00 0. -1.
          2    1    1    2  501    0  0.22470344646E+02  0.90754920447E+01  0.13110312115E+03  0.13332407629E+03  0.00000000000E+00 0.  1.
          1    1    1    2  502    0 -0.22470344646E+02 -0.90754920447E+01 -0.32326271687E+03  0.32416980899E+03  0.00000000000E+00 0. -1.
</event>
<event>
 4    1  0.3767413E+003  0.2859881E+02  0.7546771E-02  0.1432177E+00
          2   -1    0    0  502    0  0.00000000000E+00  0.00000000000E+00  0.48780585074E+03  0.48780585074E+03  0.00000000000E+00 0. -1.
          1   -1    0    0  501    0 -0.00000000000E+00 -0.00000000000E+00 -0.72379590348E+01  0.72379590348E+01  0.00000000000E+00 0.  1.
          2    1    1    2  501    0  0.28537997021E+02 -0.18640568072E+01  0.45725065807E+03  0.45814414357E+03  0.00000000000E+00 0. -1.
          1    1    1    2  502    0 -0.28537997021E+02  0.18640568072E+01  0.23317233639E+02  0.36899666209E+02  0.00000000000E+00 0.  1.
</event>
<event>
 4    1  0.3767413E+003  0.3843045E+02  0.7546771E-02  0.1357937E+00
          2   -1    0    0  502    0  0.00000000000E+00  0.00000000000E+00  0.86154877498E+03  0.86154877498E+03  0.00000000000E+00 0. -1.
          1   -1    0    0  501    0 -0.00000000000E+00 -0.00000000000E+00 -0.40277775193E+03  0.40277775193E+03  0.00000000000E+00 0. -1.
          2    1    1    2  501    0 -0.35124892310E+02  0.15593002271E+02  0.86020208455E+03  0.86106011756E+03  0.00000000000E+00 0. -1.
          1    1    1    2  502    0  0.35124892310E+02 -0.15593002271E+02 -0.40143106150E+03  0.40326640935E+03  0.00000000000E+00 0. -1.
</event>
<event>
 4    1  0.3767413E+003  0.2001865E+02  0.7546771E-02  0.1533751E+00
          2   -1    0    0  502    0  0.00000000000E+00  0.00000000000E+00  0.12216241109E+04  0.12216241109E+04  0.00000000000E+00 0. -1.
          1   -1    0    0  501    0 -0.00000000000E+00 -0.00000000000E+00 -0.68823095336E+01  0.68823095336E+01  0.00000000000E+00 0. -1.
          2    1    1    2  501    0  0.13358839652E+02 -0.14909323595E+02  0.12068062476E+04  0.12069722722E+04  0.00000000000E+00 0. -1.
          1    1    1    2  502    0 -0.13358839652E+02  0.14909323595E+02  0.79355537224E+01  0.21534148225E+02  0.00000000000E+00 0. -1.
</event>
<event>
 4    1  0.3767413E+003  0.2130705E+02  0.7546771E-02  0.1514926E+00
          2   -1    0    0  502    0  0.00000000000E+00  0.00000000000E+00  0.15643524746E+04  0.15643524746E+04  0.00000000000E+00 0. -1.
          1   -1    0    0  501    0 -0.00000000000E+00 -0.00000000000E+00 -0.53918526679E+00  0.53918526679E+00  0.00000000000E+00 0. -1.
          2    1    1    2  501    0 -0.15879244816E+02  0.14207036178E+02  0.13136029223E+04  0.13137757144E+04  0.00000000000E+00 0. -1.
          1    1    1    2  502    0  0.15879244816E+02 -0.14207036178E+02  0.25021036706E+03  0.25111594549E+03  0.00000000000E+00 0. -1.
</event>
<event>
 4    1  0.3767413E+003  0.1805608E+03  0.7546771E-02  0.1069846E+00
          2   -1    0    0  502    0  0.00000000000E+00  0.00000000000E+00  0.28745983408E+03  0.28745983408E+03  0.00000000000E+00 0.  1.
          1   -1    0    0  501    0 -0.00000000000E+00 -0.00000000000E+00 -0.15192151799E+04  0.15192151799E+04  0.00000000000E+00 0.  1.
          2    1    1    2  501    0  0.68005548588E+02  0.16726462849E+03  0.25308719705E+03  0.31089441921E+03  0.00000000000E+00 0.  1.
          1    1    1    2  502    0 -0.68005548588E+02 -0.16726462849E+03 -0.14848425428E+04  0.14957805947E+04  0.00000000000E+00 0.  1.
</event>
<event>
 4    1  0.3767413E+003  0.4178937E+02  0.7546771E-02  0.1338308E+00
          2   -1    0    0  502    0  0.00000000000E+00  0.00000000000E+00  0.12731139455E+04  0.12731139455E+04  0.00000000000E+00 0.  1.
          1   -1    0    0  501    0 -0.00000000000E+00 -0.00000000000E+00 -0.81384213642E+01  0.81384213642E+01  0.00000000000E+00 0.  1.
          2    1    1    2  501    0  0.39886895320E+02 -0.12465427710E+02  0.12166361992E+04  0.12173536843E+04  0.00000000000E+00 0.  1.
          1    1    1    2  502    0 -0.39886895320E+02  0.12465427710E+02  0.48339324910E+02  0.63898682608E+02  0.00000000000E+00 0.  1.
</event>
<event>
 4    1  0.3767413E+003  0.2135492E+02  0.7546771E-02  0.1514257E+00
          2   -1    0    0  502    0  0.00000000000E+00  0.00000000000E+00  0.74078549216E+02  0.74078549216E+02  0.00000000000E+00 0.  1.
          1   -1    0    0  501    0 -0.00000000000E+00 -0.00000000000E+00 -0.11461770105E+03  0.11461770105E+03  0.00000000000E+00 0. -1.
          2    1    1    2  501    0  0.12111343129E+02  0.17588293281E+02  0.71509883291E+02  0.74630396631E+02  0.00000000000E+00 0.  1.
          1    1    1    2  502    0 -0.12111343129E+02 -0.17588293281E+02 -0.11204903513E+03  0.11406585363E+03  0.00000000000E+00 0. -1.
</event>
<event>
 4    1  0.3767413E+003  0.2729413E+02  0.7546771E-02  0.1444676E+00
          2   -1    0    0  502    0  0.00000000000E+00  0.00000000000E+00  0.19201879175E+02  0.19201879175E+02  0.00000000000E+00 0. -1.
          1   -1    0    0  501    0 -0.00000000000E+00 -0.00000000000E+00 -0.44630972896E+02  0.44630972896E+02  0.00000000000E+00 0.  1.
          2    1    1    2  501    0 -0.25896214456E+02 -0.86229543770E+01 -0.11749671931E+01  0.27319403604E+02  0.00000000000E+00 0. -1.
          1    1    1    2  502    0  0.25896214456E+02  0.86229543770E+01 -0.24254126528E+02  0.36513448467E+02  0.00000000000E+00 0.  1.
</event>
<event>
 4    1  0.3767413E+003  0.2092575E+02  0.7546771E-02  0.1520328E+00
          2   -1    0    0  502    0  0.00000000000E+00  0.00000000000E+00  0.27971734035E+03  0.27971734035E+03  0.00000000000E+00 0.  1.
          1   -1    0    0  501    0 -0.00000000000E+00 -0.00000000000E+00 -0.37280027948E+03  0.37280027948E+03  0.00000000000E+00 0.  1.
          2    1    1    2  501    0  0.11234407717E+01  0.20895571310E+02  0.27903160688E+03  0.27981516159E+03  0.00000000000E+00 0.  1.
          1    1    1    2  502    0 -0.11234407717E+01 -0.20895571310E+02 -0.37211454601E+03  0.37270245823E+03  0.00000000000E+00 0.  1.
</event>
<event>
 4    1  0.3767413E+003  0.4179004E+02  0.7546771E-02  0.1338304E+00
          2   -1    0    0  502    0  0.00000000000E+00  0.00000000000E+00  0.21225442329E+04  0.21225442329E+04  0.00000000000E+00 0. -1.
          1   -1    0    0  501    0 -0.00000000000E+00 -0.00000000000E+00 -0.20118489974E+03  0.20118489974E+03  0.00000000000E+00 0. -1.
          2    1    1    2  501    0 -0.37211477264E+02 -0.19018753939E+02  0.21201659497E+04  0.21205777659E+04  0.00000000000E+00 0. -1.
          1    1    1    2  502    0  0.37211477264E+02  0.19018753939E+02 -0.19880661652E+03  0.20315136675E+03  0.00000000000E+00 0. -1.
</event>
<event>
 4    1  0.3767413E+003  0.2007383E+02  0.7546771E-02  0.1532910E+00
          2   -1    0    0  502    0  0.00000000000E+00  0.00000000000E+00  0.25004427115E+03  0.25004427115E+03  0.00000000000E+00 0.  1.
          1   -1    0    0  501    0 -0.00000000000E+00 -0.00000000000E+00 -0.22542292912E+01  0.22542292912E+01  0.00000000000E+00 0.  1.
          2    1    1    2  501    0 -0.25335930152E+01 -0.19913299204E+02  0.19125208394E+03  0.19230267338E+03  0.00000000000E+00 0.  1.
          1    1    1    2  502    0  0.25335930152E+01  0.19913299204E+02  0.56537957916E+02  0.59995827055E+02  0.00000000000E+00 0.  1.
</event>
<event>
 4    1  0.3767413E+003  0.2043007E+02  0.7546771E-02  0.1527560E+00
          2   -1    0    0  502    0  0.00000000000E+00  0.00000000000E+00  0.66358610086E+02  0.66358610086E+02  0.00000000000E+00 0. -1.
          1   -1    0    0  501    0 -0.00000000000E+00 -0.00000000000E+00 -0.35028314045E+02  0.35028314045E+02  0.00000000000E+00 0. -1.
          2    1    1    2  501    0  0.93859125965E+00 -0.20408494906E+02  0.61582189009E+02  0.64882614166E+02  0.00000000000E+00 0. -1.
          1    1    1    2  502    0 -0.93859125965E+00  0.20408494906E+02 -0.30251892967E+02  0.36504309965E+02  0.00000000000E+00 0. -1.
</event>
<event>
 4    1  0.3767413E+003  0.3522435E+02  0.7546771E-02  0.1378993E+00
          2   -1    0    0  502    0  0.00000000000E+00  0.00000000000E+00  0.27566722078E+02  0.27566722078E+02  0.00000000000E+00 0. -1.
          1   -1    0    0  501    0 -0.00000000000E+00 -0.00000000000E+00 -0.60821061642E+02  0.60821061642E+02  0.00000000000E+00 0.  1.
          2    1    1    2  501    0 -0.99901992021E+01 -0.33777962150E+02  0.59062652275E+01  0.35716085676E+02  0.00000000000E+00 0. -1.
          1    1    1    2  502    0  0.99901992021E+01  0.33777962150E+02 -0.39160604792E+02  0.52671698043E+02  0.00000000000E+00 0.  1.
</event>
<event>
 4    1  0.3767413E+003  0.2291134E+02  0.7546771E-02  0.1493615E+00
          2   -1    0    0  502    0  0.00000000000E+00  0.00000000000E+00  0.81639073608E+01  0.81639073608E+01  0.00000000000E+00 0. -1.
          1   -1    0    0  501    0 -0.00000000000E+00 -0.00000000000E+00 -0.95427474429E+03  0.95427474429E+03  0.00000000000E+00 0.  1.
          2    1    1    2  501    0 -0.46146330878E+01 -0.22441802838E+02 -0.83310112455E+01  0.24378988936E+02  0.00000000000E+00 0. -1.
          1    1    1    2  502    0  0.46146330878E+01  0.22441802838E+02 -0.93777982569E+03  0.93805966272E+03  0.00000000000E+00 0.  1.
</event>
<event>
 4    1  0.3767413E+003  0.2617105E+02  0.7546771E-02  0.1456118E+00
          2   -1    0    0  502    0  0.00000000000E+00  0.00000000000E+00  0.14747067105E+04  0.14747067105E+04  0.00000000000E+00 0.  1.
          1   -1    0    0  501    0 -0.00000000000E+00 -0.00000000000E+00 -0.48433364204E+00  0.48433364204E+00  0.00000000000E+00 0.  1.
          2    1    1    2  501    0 -0.35696086892E+01  0.25926469335E+02  0.88656970847E+03  0.88695590189E+03  0.00000000000E+00 0.  1.
          1    1    1    2  502    0  0.35696086892E+01 -0.25926469335E+02  0.58765266834E+03  0.58823514221E+03  0.00000000000E+00 0.  1.
</event>
<event>
 4    1  0.3767413E+003  0.2790134E+02  0.7546771E-02  0.1438758E+00
          2   -1    0    0  502    0  0.00000000000E+00  0.00000000000E+00  0.42273483587E+03  0.42273483587E+03  0.00000000000E+00 0. -1.
          1   -1    0    0  501    0 -0.00000000000E+00 -0.00000000000E+00 -0.71566041523E+02  0.71566041523E+02  0.00000000000E+00 0. -1.
          2    1    1    2  501    0  0.27332967507E+02  0.56030048566E+01  0.41953426345E+03  0.42046103623E+03  0.00000000000E+00 0. -1.
          1    1    1    2  502    0 -0.27332967507E+02 -0.56030048566E+01 -0.68365469109E+02  0.73839841161E+02  0.00000000000E+00 0. -1.
</event>
<event>
 4    1  0.3767413E+003  0.3152072E+02  0.7546771E-02  0.1406826E+00
          2   -1    0    0  502    0  0.00000000000E+00  0.00000000000E+00  0.13855738924E+04  0.13855738924E+04  0.00000000000E+00 0. -1.
          1   -1    0    0  501    0 -0.00000000000E+00 -0.00000000000E+00 -0.12280899010E+02  0.12280899010E+02  0.00000000000E+00 0. -1.
          2    1    1    2  501    0 -0.31501408292E+02  0.11031788273E+01  0.13648621105E+04  0.13652260386E+04  0.00000000000E+00 0. -1.
          1    1    1    2  502    0  0.31501408292E+02 -0.11031788273E+01  0.84308829477E+01  0.32628752891E+02  0.00000000000E+00 0. -1.
</event>
<event>
 4    1  0.3767413E+003  0.2404013E+02  0.7546771E-02  0.1479834E+00
          2   -1    0    0  502    0  0.00000000000E+00  0.00000000000E+00  0.43879647791E+02  0.43879647791E+02  0.00000000000E+00 0. -1.
          1   -1    0    0  501    0 -0.00000000000E+00 -0.00000000000E+00 -0.48710264676E+03  0.48710264676E+03  0.00000000000E+00 0.  1.
          2    1    1    2  501    0  0.24009441552E+02 -0.12143099147E+01  0.40265749079E+02  0.46896251248E+02  0.00000000000E+00 0. -1.
          1    1    1    2  502    0 -0.24009441552E+02  0.12143099147E+01 -0.48348874805E+03  0.48408604330E+03  0.00000000000E+00 0.  1.
</event>
<event>
 4    1  0.3767413E+003  0.5067854E+02  0.7546771E-02  0.1295257E+00
          2   -1    0    0  502    0  0.00000000000E+00  0.00000000000E+00  0.26222752435E+03  0.26222752435E+03  0.00000000000E+00 0. -1.
          1   -1    0    0  501    0 -0.00000000000E+00 -0.00000000000E+00 -0.11548900219E+03  0.11548900219E+03  0.00000000000E+00 0. -1.
          2    1    1    2  501    0 -0.47330303287E+02  0.18115091531E+02  0.25404192600E+03  0.25904751362E+03  0.00000000000E+00 0. -1.
          1    1    1    2  502    0  0.47330303287E+02 -0.18115091531E+02 -0.10730340384E+03  0.11866901292E+03  0.00000000000E+00 0. -1.
</event>
<event>
 4    1  0.3767413E+003  0.2069099E+02  0.7546771E-02  0.1523723E+00
          2   -1    0    0  502    0  0.00000000000E+00  0.00000000000E+00  0.65386353825E+02  0.65386353825E+02  0.00000000000E+00 0.  1.
          1   -1    0    0  501    0 -0.00000000000E+00 -0.00000000000E+00 -0.82700919247E+02  0.82700919247E+02  0.00000000000E+00 0.  1.
          2    1    1    2  501    0  0.92762224942E+01  0.18495105026E+02  0.62394875306E+02  0.65736121563E+02  0.00000000000E+00 0.  1.
          1    1    1    2  502    0 -0.92762224942E+01 -0.18495105026E+02 -0.79709440729E+02  0.82351151509E+02  0.00000000000E+00 0.  1.
</event>
<event>
 4    1  0.3767413E+003  0.2221217E+02  0.7546771E-02  0.1502635E+00
          2   -1    0    0  502    0  0.00000000000E+00  0.00000000000E+00  0.32316376066E+03  0.32316376066E+03  0.00000000000E+00 0. -1.
          1   -1    0    0  501    0 -0.00000000000E+00 -0.00000000000E+00 -0.62917918740E+03  0.62917918740E+03  0.00000000000E+00 0.  1.
          2    1    1    2  501    0 -0.21034104229E+02 -0.71377091398E+01  0.32258568858E+03  0.32334951200E+03  0.00000000000E+00 0. -1.
          1    1    1    2  502    0  0.21034104229E+02  0.71377091398E+01 -0.62860111532E+03  0.62899343607E+03  0.00000000000E+00 0.  1.
</event>
<event>
 4    1  0.3767413E+003  0.2616467E+02  0.7546771E-02  0.1456185E+00
          2   -1    0    0  502    0  0.00000000000E+00  0.00000000000E+00  0.13274710402E+03  0.13274710402E+03  0.00000000000E+00 0. -1.
          1   -1    0    0  501    0 -0.00000000000E+00 -0.00000000000E+00 -0.23848124302E+03  0.23848124302E+03  0.00000000000E+00 0. -1.
          2    1    1    2  501    0  0.15531630790E+02 -0.21056071649E+02  0.13072920526E+03  0.13332184674E+03  0.00000000000E+00 0. -1.
          1    1    1    2  502    0 -0.15531630790E+02  0.21056071649E+02 -0.23646334426E+03  0.23790650031E+03  0.00000000000E+00 0. -1.
</event>
<event>
 4    1  0.3767413E+003  0.4717534E+02  0.7546771E-02  0.1310907E+00
          2   -1    0    0  502    0  0.00000000000E+00  0.00000000000E+00  0.29569221272E+04  0.29569221272E+04  0.00000000000E+00 0. -1.
          1   -1    0    0  501    0 -0.00000000000E+00 -0.00000000000E+00 -0.10122420912E+02  0.10122420912E+02  0.00000000000E+00 0.  1.
          2    1    1    2  501    0  0.27304426197E+02 -0.38470518910E+02  0.29007038387E+04  0.29010874293E+04  0.00000000000E+00 0. -1.
          1    1    1    2  502    0 -0.27304426197E+02  0.38470518910E+02  0.46095867588E+02  0.65957118826E+02  0.00000000000E+00 0.  1.
</event>
<event>
 4    1  0.3767413E+003  0.2079304E+02  0.7546771E-02  0.1522240E+00
          2   -1    0    0  502    0  0.00000000000E+00  0.00000000000E+00  0.10963875681E+01  0.10963875681E+01  0.00000000000E+00 0.  1.
          1   -1    0    0  501    0 -0.00000000000E+00 -0.00000000000E+00 -0.49840838936E+03  0.49840838936E+03  0.00000000000E+00 0.  1.
          2    1    1    2  501    0 -0.16135288764E+02  0.13114995584E+02 -0.13453274567E+03  0.13613012271E+03  0.00000000000E+00 0.  1.
          1    1    1    2  502    0  0.16135288764E+02 -0.13114995584E+02 -0.36277925613E+03  0.36337465422E+03  0.00000000000E+00 0.  1.
</event>
<event>
 4    1  0.3767413E+003  0.4222593E+02  0.7546771E-02  0.1335913E+00
          2   -1    0    0  502    0  0.00000000000E+00  0.00000000000E+00  0.92061508868E+02  0.92061508868E+02  0.00000000000E+00 0. -1.
          1   -1    0    0  501    0 -0.00000000000E+00 -0.00000000000E+00 -0.46582704190E+02  0.46582704190E+02  0.00000000000E+00 0.  1.
          2    1    1    2  501    0 -0.28724395240E+02 -0.30950572052E+02  0.75725607495E+02  0.86702920497E+02  0.00000000000E+00 0. -1.
          1    1    1    2  502    0  0.28724395240E+02  0.30950572052E+02 -0.30246802816E+02  0.51941292561E+02  0.00000000000E+00 0.  1.
</event>
<event>
 4    1  0.3767413E+003  0.2183451E+02  0.7546771E-02  0.1507676E+00
          2   -1    0    0  502    0  0.00000000000E+00  0.00000000000E+00  0.96335989261E+03  0.96335989261E+03  0.00000000000E+00 0.  1.
          1   -1    0    0  501    0 -0.00000000000E+00 -0.00000000000E+00 -0.16703612954E+02  0.16703612954E+02  0.00000000000E+00 0. -1.
          2    1    1    2  501    0  0.19657327271E+02 -0.95044828793E+01  0.95604622716E+03  0.95629552659E+03  0.00000000000E+00 0.  1.
          1    1    1    2  502    0 -0.19657327271E+02  0.95044828793E+01 -0.93899475059E+01  0.23767978972E+02  0.00000000000E+00 0. -1.
</event>
<event>
 4    1  0.3767413E+003  0.2579284E+02  0.7546771E-02  0.1460126E+00
          2   -1    0    0  502    0  0.00000000000E+00  0.00000000000E+00  0.35606759013E+03  0.35606759013E+03  0.00000000000E+00 0.  1.
          1   -1    0    0  501    0 -0.00000000000E+00 -0.00000000000E+00 -0.56845139577E+01  0.56845139577E+01  0.00000000000E+00 0. -1.
          2    1    1    2  501    0  0.25222995878E+02  0.53917694817E+01  0.32339079493E+03  0.32441775066E+03  0.00000000000E+00 0.  1.
          1    1    1    2  502    0 -0.25222995878E+02 -0.53917694817E+01  0.26992281250E+02  0.37334353433E+02  0.00000000000E+00 0. -1.
</event>
<event>
 4    1  0.3767413E+003  0.4897963E+02  0.7546771E-02  0.1302658E+00
          2   -1    0    0  502    0  0.00000000000E+00  0.00000000000E+00  0.20925469549E+04  0.20925469549E+04  0.00000000000E+00 0. -1.
          1   -1    0    0  501    0 -0.00000000000E+00 -0.00000000000E+00 -0.14067699932E+01  0.14067699932E+01  0.00000000000E+00 0. -1.
          2    1    1    2  501    0 -0.39937662379E+02 -0.28354629893E+02  0.59519048539E+03  0.59720240774E+03  0.00000000000E+00 0. -1.
          1    1    1    2  502    0  0.39937662379E+02  0.28354629893E+02  0.14959496995E+04  0.14967513172E+04  0.00000000000E+00 0. -1.
</event>
<event>
 4    1  0.3767413E+003  0.3655185E+02  0.7546771E-02  0.1369970E+00
          2   -1    0    0  502    0  0.00000000000E+00  0.00000000000E+00  0.57007856713E+01  0.57007856713E+01  0.00000000000E+00 0.  1.
          1   -1    0    0  501    0 -0.00000000000E+00 -0.00000000000E+00 -0.36970948011E+03  0.36970948011E+03  0.00000000000E+00 0. -1.
          2    1    1    2  501    0  0.20052897582E+02  0.30560087638E+02 -0.68431707167E+02  0.77581803303E+02  0.00000000000E+00 0.  1.
          1    1    1    2  502    0 -0.20052897582E+02 -0.30560087638E+02 -0.29557698728E+03  0.29782846248E+03  0.00000000000E+00 0. -1.
</event>
<event>
 4    1  0.3767413E+003  0.2557203E+02  0.7546771E-02  0.1462505E+00
          2   -1    0    0  502    0  0.00000000000E+00  0.00000000000E+00  0.36887225747E+03  0.36887225747E+03  0.00000000000E+00 0. -1.
          1   -1    0    0  501    0 -0.00000000000E+00 -0.00000000000E+00 -0.72622011264E+02  0.72622011264E+02  0.00000000000E+00 0. -1.
          2    1    1    2  501    0  0.25571534309E+02  0.15959230716E+00  0.36616127760E+03  0.36705314336E+03  0.00000000000E+00 0. -1.
          1    1    1    2  502    0 -0.25571534309E+02 -0.15959230716E+00 -0.69911031393E+02  0.74441125375E+02  0.00000000000E+00 0. -1.
</event>
<event>
 4    1  0.3767413E+003  0.3234849E+02  0.7546771E-02  0.1400228E+00
          2   -1    0    0  502    0  0.00000000000E+00  0.00000000000E+00  0.44626509191E+03  0.44626509191E+03  0.00000000000E+00 0.  1.
          1   -1    0    0  501    0 -0.00000000000E+00 -0.00000000000E+00 -0.19044641427E+03  0.19044641427E+03  0.00000000000E+00 0.  1.
          2    1    1    2  501    0  0.27233400036E+02 -0.17457566753E+02  0.44429916217E+03  0.44547521841E+03  0.00000000000E+00 0.  1.
          1    1    1    2  502    0 -0.27233400036E+02  0.17457566753E+02 -0.18848048453E+03  0.19123628778E+03  0.00000000000E+00 0.  1.
</event>
<event>
 4    1  0.3767413E+003  0.2861220E+02  0.7546771E-02  0.1432052E+00
          2   -1    0    0  502    0  0.00000000000E+00  0.00000000000E+00  0.81668069106E+03  0.81668069106E+03  0.00000000000E+00 0.  1.
          1   -1    0    0  501    0 -0.00000000000E+00 -0.00000000000E+00 -0.26607833212E+02  0.26607833212E+02  0.00000000000E+00 0. -1.
          2    1    1    2  501    0 -0.24040614019E+02 -0.15514739239E+02  0.80866194482E+03  0.80916796727E+03  0.00000000000E+00 0.  1.
          1    1    1    2  502    0  0.24040614019E+02  0.15514739239E+02 -0.18589086968E+02  0.34120557005E+02  0.00000000000E+00 0. -1.
</event>
<event>
 4    1  0.3767413E+003  0.2345361E+02  0.7546771E-02  0.1486879E+00
          2   -1    0    0  502    0  0.00000000000E+00  0.00000000000E+00  0.20819170477E+03  0.20819170477E+03  0.00000000000E+00 0. -1.
          1   -1    0    0  501    0 -0.00000000000E+00 -0.00000000000E+00 -0.26435784203E+01  0.26435784203E+01  0.00000000000E+00 0. -1.
          2    1    1    2  501    0  0.67575024647E+01 -0.22459032088E+02  0.10523171243E+03  0.10781365991E+03  0.00000000000E+00 0. -1.
          1    1    1    2  502    0 -0.67575024647E+01  0.22459032088E+02  0.10031641391E+03  0.10302162327E+03  0.00000000000E+00 0. -1.
</event>
<event>
 4    1  0.3767413E+003  0.2211848E+02  0.7546771E-02  0.1503874E+00
          2   -1    0    0  502    0  0.00000000000E+00  0.00000000000E+00  0.22630737841E+03  0.22630737841E+03  0.00000000000E+00 0.  1.
          1   -1    0    0  501    0 -0.00000000000E+00 -0.00000000000E+00 -0.72341980524E+01  0.72341980524E+01  0.00000000000E+00 0.  1.
          2    1    1    2  501    0 -0.81006906452E+01 -0.20581685160E+02  0.20731579447E+03  0.20849236338E+03  0.00000000000E+00 0.  1.
          1    1    1    2  502    0  0.81006906452E+01  0.20581685160E+02  0.11757385890E+02  0.25049213080E+02  0.00000000000E+00 0.  1.
</event>
<event>
 4    1  0.3767413E+003  0.2914386E+02  0.7546771E-02  0.1427185E+00
          2   -1    0    0  502    0  0.00000000000E+00  0.00000000000E+00  0.10505707553E+03  0.10505707553E+03  0.00000000000E+00 0.  1.
          1   -1    0    0  501    0 -0.00000000000E+00 -0.00000000000E+00 -0.87451227868E+02  0.87451227868E+02  0.00000000000E+00 0. -1.
          2    1    1    2  501    0 -0.19690120184E+02  0.21486357039E+02  0.10049988849E+03  0.10464029797E+03  0.00000000000E+00 0.  1.
          1    1    1    2  502    0  0.19690120184E+02 -0.21486357039E+02 -0.82894040835E+02  0.87868005426E+02  0.00000000000E+00 0. -1.
</event>
<event>
 4    1  0.3767413E+003  0.2099425E+02  0.7546771E-02  0.1519347E+00
          2   -1    0    0  502    0  0.00000000000E+00  0.00000000000E+00  0.79479479823E+02  0.79479479823E+02  0.00000000000E+00 0. -1.
          1   -1    0    0  501    0 -0.00000000000E+00 -0.00000000000E+00 -0.76607935241E+02  0.76607935241E+02  0.00000000000E+00 0. -1.
          2    1    1    2  501    0 -0.16233277967E+02  0.13313125069E+02  0.76601671788E+02  0.79426536708E+02  0.00000000000E+00 0. -1.
          1    1    1    2  502    0  0.16233277967E+02 -0.13313125069E+02 -0.73730127205E+02  0.76660878356E+02  0.00000000000E+00 0. -1.
</event>
<event>
 4    1  0.3767413E+003  0.2708848E+02  0.7546771E-02  0.1446721E+00
          2   -1    0    0  502    0  0.00000000000E+00  0.00000000000E+00  0.33144723383E+02  0.33144723383E+02  0.00000000000E+00 0.  1.
          1   -1    0    0  501    0 -0.00000000000E+00 -0.00000000000E+00 -0.11125516991E+03  0.11125516991E+03  0.00000000000E+00 0. -1.
          2    1    1    2  501    0 -0.22508347310E+02  0.15071829132E+02  0.25563060919E+02  0.37245883203E+02  0.00000000000E+00 0.  1.
          1    1    1    2  502    0  0.22508347310E+02 -0.15071829132E+02 -0.10367350745E+03  0.10715401009E+03  0.00000000000E+00 0. -1.
</event>
<event>
 4    1  0.3767413E+003  0.2951118E+02  0.7546771E-02  0.1423892E+00
          2   -1    0    0  502    0  0.00000000000E+00  0.00000000000E+00  0.65985742669E+03  0.65985742669E+03  0.00000000000E+00 0. -1.
          1   -1    0    0  501    0 -0.00000000000E+00 -0.00000000000E+00 -0.14368589580E+02  0.14368589580E+02  0.00000000000E+00 0. -1.
          2    1    1    2  501    0 -0.26604684623E+02  0.12771076343E+02  0.64400156933E+03  0.64467738516E+03  0.00000000000E+00 0. -1.
          1    1    1    2  502    0  0.26604684623E+02 -0.12771076343E+02  0.14872677756E+01  0.29548631107E+02  0.00000000000E+00 0. -1.
</event>
<event>
 4    1  0.3767413E+003  0.2029212E+02  0.7546771E-02  0.1529616E+00
          2   -1    0    0  502    0  0.00000000000E+00  0.00000000000E+00  0.48214586548E+03  0.48214586548E+03  0.00000000000E+00 0. -1.
          1   -1    0    0  501    0 -0.00000000000E+00 -0.00000000000E+00 -0.25362443304E+02  0.25362443304E+02  0.00000000000E+00 0. -1.
          2    1    1    2  501    0  0.17349961751E+02  0.10523739966E+02  0.47783691303E+03  0.47826758799E+03  0.00000000000E+00 0. -1.
          1    1    1    2  502    0 -0.17349961751E+02 -0.10523739966E+02 -0.21053490847E+02  0.29240720793E+02  0.00000000000E+00 0. -1.
</event>
<event>
 4    1  0.3767413E+003  0.2617104E+02  0.7546771E-02  0.1456118E+00
          2   -1    0    0  502    0  0.00000000000E+00  0.00000000000E+00  0.67566746600E+01  0.67566746600E+01  0.00000000000E+00 0. -1.
          1   -1    0    0  501    0 -0.00000000000E+00 -0.00000000000E+00 -0.81975536060E+03  0.81975536060E+03  0.00000000000E+00 0.  1.
          2    1    1    2  501    0 -0.24444286348E+02 -0.93488052245E+01 -0.19637561903E+02  0.32719369366E+02  0.00000000000E+00 0. -1.
          1    1    1    2  502    0  0.24444286348E+02  0.93488052245E+01 -0.79336112404E+03  0.79379266589E+03  0.00000000000E+00 0.  1.
</event>
<event>
 4    1  0.3767413E+003  0.3690214E+02  0.7546771E-02  0.1367662E+00
          2   -1    0    0  502    0  0.00000000000E+00  0.00000000000E+00  0.49800358178E+02  0.49800358178E+02  0.00000000000E+00 0.  1.
          1   -1    0    0  501    0 -0.00000000000E+00 -0.00000000000E+00 -0.27193918686E+04  0.27193918686E+04  0.00000000000E+00 0. -1.
          2    1    1    2  501    0 -0.29219040499E+02 -0.22539196423E+02  0.42821445392E+02  0.56528257434E+02  0.00000000000E+00 0.  1.
          1    1    1    2  502    0  0.29219040499E+02  0.22539196423E+02 -0.27124129558E+04  0.27126639693E+04  0.00000000000E+00 0. -1.
</event>
<event>
 4    1  0.3767413E+003  0.2151279E+02  0.7546771E-02  0.1512068E+00
          2   -1    0    0  502    0  0.00000000000E+00  0.00000000000E+00  0.11869388023E+02  0.11869388023E+02  0.00000000000E+00 0.  1.
          1   -1    0    0  501    0 -0.00000000000E+00 -0.00000000000E+00 -0.47365056407E+02  0.47365056407E+02  0.00000000000E+00 0.  1.
          2    1    1    2  501    0 -0.21167500733E+02 -0.38388216614E+01 -0.30201078640E+02  0.37079708603E+02  0.00000000000E+00 0.  1.
          1    1    1    2  502    0  0.21167500733E+02  0.38388216614E+01 -0.52945897445E+01  0.22154735827E+02  0.00000000000E+00 0.  1.
</event>
<event>
 4    1  0.3767413E+003  0.3577301E+02  0.7546771E-02  0.1375209E+00
          2   -1    0    0  502    0  0.00000000000E+00  0.00000000000E+00  0.23816341360E+02  0.23816341360E+02  0.00000000000E+00 0. -1.
          1   -1    0    0  501    0 -0.00000000000E+00 -0.00000000000E+00 -0.46533242810E+03  0.46533242810E+03  0.00000000000E+00 0. -1.
          2    1    1    2  501    0 -0.17633634825E+02 -0.31124956415E+02  0.92627169034E+01  0.36952752447E+02  0.00000000000E+00 0. -1.
          1    1    1    2  502    0  0.17633634825E+02  0.31124956415E+02 -0.45077880365E+03  0.45219601702E+03  0.00000000000E+00 0. -1.
</event>
<event>
 4    1  0.3767413E+003  0.2275873E+02  0.7546771E-02  0.1495550E+00
          2   -1    0    0  502    0  0.00000000000E+00  0.00000000000E+00  0.74838840563E+03  0.74838840563E+03  0.00000000000E+00 0. -1.
          1   -1    0    0  501    0 -0.00000000000E+00 -0.00000000000E+00 -0.43810941330E+03  0.43810941330E+03  0.00000000000E+00 0.  1.
          2    1    1    2  501    0  0.14463924843E+01 -0.22712718481E+02  0.74791963019E+03  0.74826581697E+03  0.00000000000E+00 0. -1.
          1    1    1    2  502    0 -0.14463924843E+01  0.22712718481E+02 -0.43764063786E+03  0.43823200196E+03  0.00000000000E+00 0.  1.
</event>
<event>
 4    1  0.3767413E+003  0.2324930E+02  0.7546771E-02  0.1489391E+00
          2   -1    0    0  502    0  0.00000000000E+00  0.00000000000E+00  0.95841872339E+03  0.95841872339E+03  0.00000000000E+00 0. -1.
          1   -1    0    0  501    0 -0.00000000000E+00 -0.00000000000E+00 -0.38763868492E+02  0.38763868492E+02  0.00000000000E+00 0. -1.
          2    1    1    2  501    0 -0.22911561158E+02  0.39484612572E+01  0.95477839615E+03  0.95506141988E+03  0.00000000000E+00 0. -1.
          1    1    1    2  502    0  0.22911561158E+02 -0.39484612572E+01 -0.35123541253E+02  0.42121172006E+02  0.00000000000E+00 0. -1.
</event>
<event>
 4    1  0.3767413E+003  0.6094989E+02  0.7546771E-02  0.1256639E+00
          2   -1    0    0  502    0  0.00000000000E+00  0.00000000000E+00  0.29743074095E+02  0.29743074095E+02  0.00000000000E+00 0.  1.
          1   -1    0    0  501    0 -0.00000000000E+00 -0.00000000000E+00 -0.70107481467E+03  0.70107481467E+03  0.00000000000E+00 0. -1.
          2    1    1    2  501    0 -0.47337121607E+02  0.38393825206E+02 -0.44017548399E+01  0.61108627391E+02  0.00000000000E+00 0.  1.
          1    1    1    2  502    0  0.47337121607E+02 -0.38393825206E+02 -0.66692998573E+03  0.66970926137E+03  0.00000000000E+00 0. -1.
</event>
<event>
 4    1  0.3767413E+003  0.2665534E+02  0.7546771E-02  0.1451101E+00
          2   -1    0    0  502    0  0.00000000000E+00  0.00000000000E+00  0.49373215260E+01  0.49373215260E+01  0.00000000000E+00 0. -1.
          1   -1    0    0  501    0 -0.00000000000E+00 -0.00000000000E+00 -0.19777443837E+03  0.19777443837E+03  0.00000000000E+00 0. -1.
          2    1    1    2  501    0 -0.11377209298E+01  0.26631047525E+02 -0.43521248779E+02  0.51035342621E+02  0.00000000000E+00 0. -1.
          1    1    1    2  502    0  0.11377209298E+01 -0.26631047525E+02 -0.14931586806E+03  0.15167641727E+03  0.00000000000E+00 0. -1.
</event>
<event>
 4    1  0.3767413E+003  0.2240827E+02  0.7546771E-02  0.1500065E+00
          2   -1    0    0  502    0  0.00000000000E+00  0.00000000000E+00  0.94307086621E+01  0.94307086621E+01  0.00000000000E+00 0.  1.
          1   -1    0    0  501    0 -0.00000000000E+00 -0.00000000000E+00 -0.35008891394E+03  0.35008891394E+03  0.00000000000E+00 0. -1.
          2    1    1    2  501    0 -0.21985884153E+02  0.43303162665E+01 -0.48023982548E+01  0.22917106491E+02  0.00000000000E+00 0.  1.
          1    1    1    2  502    0  0.21985884153E+02 -0.43303162665E+01 -0.33585580703E+03  0.33660251611E+03  0.00000000000E+00 0. -1.
</event>
<event>
 4    1  0.3767413E+003  0.2033132E+02  0.7546771E-02  0.1529030E+00
          2   -1    0    0  502    0  0.00000000000E+00  0.00000000000E+00  0.49865977395E+00  0.49865977395E+00  0.00000000000E+00 0. -1.
          1   -1    0    0  501    0 -0.00000000000E+00 -0.00000000000E+00 -0.83045465598E+03  0.83045465598E+03  0.00000000000E+00 0. -1.
          2    1    1    2  501    0 -0.17321827414E+02 -0.10645033041E+02 -0.39727422402E+03  0.39779413206E+03  0.00000000000E+00 0. -1.
          1    1    1    2  502    0  0.17321827414E+02  0.10645033041E+02 -0.43268177218E+03  0.43315918369E+03  0.00000000000E+00 0. -1.
</event>
<event>
 4    1  0.3767413E+003  0.4479487E+02  0.7546771E-02  0.1322468E+00
          2   -1    0    0  502    0  0.00000000000E+00  0.00000000000E+00  0.28342922277E+03  0.28342922277E+03  0.00000000000E+00 0.  1.
          1   -1    0    0  501    0 -0.00000000000E+00 -0.00000000000E+00 -0.71039963576E+01  0.71039963576E+01  0.00000000000E+00 0.  1.
          2    1    1    2  501    0  0.21257522085E+02  0.39429663616E+02  0.14666620581E+03  0.15335434961E+03  0.00000000000E+00 0.  1.
          1    1    1    2  502    0 -0.21257522085E+02 -0.39429663616E+02  0.12965902060E+03  0.13717886952E+03  0.00000000000E+00 0.  1.
</event>
<event>
 4    1  0.3767413E+003  0.2661871E+02  0.7546771E-02  0.1451476E+00
          2   -1    0    0  502    0  0.00000000000E+00  0.00000000000E+00  0.73826625061E+03  0.73826625061E+03  0.00000000000E+00 0. -1.
          1   -1    0    0  501    0 -0.00000000000E+00 -0.00000000000E+00 -0.14655129053E+02  0.14655129053E+02  0.00000000000E+00 0.  1.
          2    1    1    2  501    0 -0.21583058046E+02 -0.15579713038E+02  0.72573043040E+03  0.72621843371E+03  0.00000000000E+00 0. -1.
          1    1    1    2  502    0  0.21583058046E+02  0.15579713038E+02 -0.21193088356E+01  0.26702945959E+02  0.00000000000E+00 0.  1.
</event>
<event>
 4    1  0.3767413E+003  0.2281424E+02  0.7546771E-02  0.1494844E+00
          2   -1    0    0  502    0  0.00000000000E+00  0.00000000000E+00  0.14028218238E+04  0.14028218238E+04  0.00000000000E+00 0.  1.
          1   -1    0    0  501    0 -0.00000000000E+00 -0.00000000000E+00 -0.71842446947E+00  0.71842446947E+00  0.00000000000E+00 0. -1.
          2    1    1    2  501    0 -0.22810258157E+02 -0.42635712578E+00  0.11890468053E+04  0.11892656536E+04  0.00000000000E+00 0.  1.
          1    1    1    2  502    0  0.22810258157E+02  0.42635712578E+00  0.21305659410E+03  0.21427459473E+03  0.00000000000E+00 0. -1.
</event>
<event>
 4    1  0.3767413E+003  0.2531450E+02  0.7546771E-02  0.1465316E+00
          2   -1    0    0  502    0  0.00000000000E+00  0.00000000000E+00  0.64419534713E+02  0.64419534713E+02  0.00000000000E+00 0. -1.
          1   -1    0    0  501    0 -0.00000000000E+00 -0.00000000000E+00 -0.13340878807E+02  0.13340878807E+02  0.00000000000E+00 0. -1.
          2    1    1    2  501    0  0.11438025421E+02 -0.22583077013E+02  0.45147726067E+02  0.51760418873E+02  0.00000000000E+00 0. -1.
          1    1    1    2  502    0 -0.11438025421E+02  0.22583077013E+02  0.59309298383E+01  0.25999994647E+02  0.00000000000E+00 0. -1.
</event>
<event>
 4    1  0.3767413E+003  0.2795068E+02  0.7546771E-02  0.1438285E+00
          2   -1    0    0  502    0  0.00000000000E+00  0.00000000000E+00  0.44868803635E+03  0.44868803635E+03  0.00000000000E+00 0. -1.
          1   -1    0    0  501    0 -0.00000000000E+00 -0.00000000000E+00 -0.77027065590E+01  0.77027065590E+01  0.00000000000E+00 0. -1.
          2    1    1    2  501    0  0.17771814376E+02 -0.21573205206E+02  0.42124674869E+03  0.42217302596E+03  0.00000000000E+00 0. -1.
          1    1    1    2  502    0 -0.17771814376E+02  0.21573205206E+02  0.19738581100E+02  0.34217716945E+02  0.00000000000E+00 0. -1.
</event>
<event>
 4    1  0.3767413E+003  0.2374018E+02  0.7546771E-02  0.1483407E+00
          2   -1    0    0  502    0  0.00000000000E+00  0.00000000000E+00  0.19290756321E+04  0.19290756321E+04  0.00000000000E+00 0. -1.
          1   -1    0    0  501    0 -0.00000000000E+00 -0.00000000000E+00 -0.53435683236E+00  0.53435683236E+00  0.00000000000E+00 0. -1.
          2    1    1    2  501    0  0.38929096758E+01 -0.23418824754E+02  0.16138157440E+04  0.16139903505E+04  0.00000000000E+00 0. -1.
          1    1    1    2  502    0 -0.38929096758E+01  0.23418824754E+02  0.31472553131E+03  0.31561963842E+03  0.00000000000E+00 0. -1.
</event>
<event>
 4    1  0.3767413E+003  0.2615185E+02  0.7546771E-02  0.1456319E+00
          2   -1    0    0  502    0  0.00000000000E+00  0.00000000000E+00  0.25099247682E+03  0.25099247682E+03  0.00000000000E+00 0.  1.
          1   -1    0    0  501    0 -0.00000000000E+00 -0.00000000000E+00 -0.35911891150E+03  0.35911891150E+03  0.00000000000E+00 0.  1.
          2    1    1    2  501    0 -0.17206180100E+02  0.19694333504E+02  0.24983294878E+03  0.25119797312E+03  0.00000000000E+00 0.  1.
          1    1    1    2  502    0  0.17206180100E+02 -0.19694333504E+02 -0.35795938346E+03  0.35891341520E+03  0.00000000000E+00 0.  1.
</event>
<event>
 4    1  0.3767413E+003  0.3323867E+02  0.7546771E-02  0.1393387E+00
          2   -1    0    0  502    0  0.00000000000E+00  0.00000000000E+00  0.76877314775E+03  0.76877314775E+03  0.00000000000E+00 0.  1.
          1   -1    0    0  501    0 -0.00000000000E+00 -0.00000000000E+00 -0.11215531697E+02  0.11215531697E+02  0.00000000000E+00 0. -1.
          2    1    1    2  501    0 -0.12562045283E+02 -0.30773431616E+02  0.74293091222E+03  0.74367408816E+03  0.00000000000E+00 0.  1.
          1    1    1    2  502    0  0.12562045283E+02  0.30773431616E+02  0.14626703836E+02  0.36314591285E+02  0.00000000000E+00 0. -1.
</event>
<event>
 4    1  0.3767413E+003  0.3108507E+02  0.7546771E-02  0.1410396E+00
          2   -1    0    0  502    0  0.00000000000E+00  0.00000000000E+00  0.22860381505E+04  0.22860381505E+04  0.00000000000E+00 0. -1.
          1   -1    0    0  501    0 -0.00000000000E+00 -0.00000000000E+00 -0.46070242398E+00  0.46070242398E+00  0.00000000000E+00 0.  1.
          2    1    1    2  501    0  0.21691669832E+01 -0.31009293433E+02  0.14711888192E+04  0.14715171842E+04  0.00000000000E+00 0. -1.
          1    1    1    2  502    0 -0.21691669832E+01  0.31009293433E+02  0.81438862888E+03  0.81498166876E+03  0.00000000000E+00 0.  1.
</event>
<event>
 4    1  0.3767413E+003  0.2884622E+02  0.7546771E-02  0.1429895E+00
          2   -1    0    0  502    0  0.00000000000E+00  0.00000000000E+00  0.52493694913E+02  0.52493694913E+02  0.00000000000E+00 0. -1.
          1   -1    0    0  501    0 -0.00000000000E+00 -0.00000000000E+00 -0.97565046647E+02  0.97565046647E+02  0.00000000000E+00 0.  1.
          2    1    1    2  501    0 -0.65478510670E+01  0.28093238074E+02  0.46128652655E+02  0.54405486625E+02  0.00000000000E+00 0. -1.
          1    1    1    2  502    0  0.65478510670E+01 -0.28093238074E+02 -0.91200004390E+02  0.95653254936E+02  0.00000000000E+00 0.  1.
</event>
<event>
 4    1  0.3767413E+003  0.2449003E+02  0.7546771E-02  0.1474590E+00
          2   -1    0    0  502    0  0.00000000000E+00  0.00000000000E+00  0.20189791474E+04  0.20189791474E+04  0.00000000000E+00 0. -1.
          1   -1    0    0  501    0 -0.00000000000E+00 -0.00000000000E+00 -0.34766153951E+00  0.34766153951E+00  0.00000000000E+00 0. -1.
          2    1    1    2  501    0  0.88144596582E+01 -0.22848781138E+02  0.13945036144E+04  0.13947186426E+04  0.00000000000E+00 0. -1.
          1    1    1    2  502    0 -0.88144596582E+01  0.22848781138E+02  0.62412787144E+03  0.62460816630E+03  0.00000000000E+00 0. -1.
</event>
<event>
 4    1  0.3767413E+003  0.2741917E+02  0.7546771E-02  0.1443442E+00
          2   -1    0    0  502    0  0.00000000000E+00  0.00000000000E+00  0.43996874419E+01  0.43996874419E+01  0.00000000000E+00 0. -1.
          1   -1    0    0  501    0 -0.00000000000E+00 -0.00000000000E+00 -0.73789244275E+03  0.73789244275E+03  0.00000000000E+00 0.  1.
          2    1    1    2  501    0 -0.21759021915E+02  0.16684003505E+02 -0.41400518252E+02  0.49656962444E+02  0.00000000000E+00 0. -1.
          1    1    1    2  502    0  0.21759021915E+02 -0.16684003505E+02 -0.69209223706E+03  0.69263516775E+03  0.00000000000E+00 0.  1.
</event>
<event>
 4    1  0.4586509E+003  0.3539551E+02  0.7546771E-02  0.1377804E+00
          2   -1    0    0  502    0  0.00000000000E+00  0.00000000000E+00  0.12542482861E+04  0.12542482861E+04  0.00000000000E+00 0. -1.
          1   -1    0    0  501    0 -0.00000000000E+00 -0.00000000000E+00 -0.81189145107E+03  0.81189145107E+03  0.00000000000E+00 0.  1.
          2    1    1    2  501    0  0.20683062261E+02 -0.28723731843E+02  0.12536125921E+04  0.12541121851E+04  0.00000000000E+00 0. -1.
          1    1    1    2  502    0 -0.20683062261E+02  0.28723731843E+02 -0.81125575709E+03  0.81202755202E+03  0.00000000000E+00 0.  1.
</event>
<event>
 4    1  0.3767413E+003  0.2924605E+02  0.7546771E-02  0.1426263E+00
          2   -1    0    0  502    0  0.00000000000E+00  0.00000000000E+00  0.32650639708E+03  0.32650639708E+03  0.00000000000E+00 0.  1.
          1   -1    0    0  501    0 -0.00000000000E+00 -0.00000000000E+00 -0.28995847797E+02  0.28995847797E+02  0.00000000000E+00 0. -1.
          2    1    1    2  501    0  0.19188217767E+02 -0.22071326503E+02  0.31828684118E+03  0.31962766530E+03  0.00000000000E+00 0.  1.
          1    1    1    2  502    0 -0.19188217767E+02  0.22071326503E+02 -0.20776291901E+02  0.35874579577E+02  0.00000000000E+00 0. -1.
</event>
<event>
 4    1  0.3767413E+003  0.2525720E+02  0.7546771E-02  0.1465947E+00
          2   -1    0    0  502    0  0.00000000000E+00  0.00000000000E+00  0.16407447154E+04  0.16407447154E+04  0.00000000000E+00 0.  1.
          1   -1    0    0  501    0 -0.00000000000E+00 -0.00000000000E+00 -0.30412670461E+01  0.30412670461E+01  0.00000000000E+00 0.  1.
          2    1    1    2  501    0  0.13983431491E+02  0.21033067519E+02  0.15864124783E+04  0.15866135250E+04  0.00000000000E+00 0.  1.
          1    1    1    2  502    0 -0.13983431491E+02 -0.21033067519E+02  0.51290970036E+02  0.57172457467E+02  0.00000000000E+00 0.  1.
</event>
<event>
 4    1  0.3767413E+003  0.2221146E+02  0.7546771E-02  0.1502645E+00
          2   -1    0    0  502    0  0.00000000000E+00  0.00000000000E+00  0.10235316060E+04  0.10235316060E+04  0.00000000000E+00 0. -1.
          1   -1    0    0  501    0 -0.00000000000E+00 -0.00000000000E+00 -0.41466777826E+01  0.41466777826E+01  0.00000000000E+00 0. -1.
          2    1    1    2  501    0  0.15093251053E+02 -0.16295477458E+02  0.99274521044E+03  0.99299365641E+03  0.00000000000E+00 0. -1.
          1    1    1    2  502    0 -0.15093251053E+02  0.16295477458E+02  0.26639717778E+02  0.34684627376E+02  0.00000000000E+00 0. -1.
</event>
<event>
 4    1  0.3999339E+003  0.2687585E+02  0.7546771E-02  0.1448859E+00
          2   -1    0    0  502    0  0.00000000000E+00  0.00000000000E+00  0.15935335992E+04  0.15935335992E+04  0.00000000000E+00 0. -1.
          1   -1    0    0  501    0 -0.00000000000E+00 -0.00000000000E+00 -0.43391445588E+03  0.43391445588E+03  0.00000000000E+00 0. -1.
          2    1    1    2  501    0  0.25973860187E+02 -0.69043370554E+01  0.15930039817E+04  0.15932306792E+04  0.00000000000E+00 0. -1.
          1    1    1    2  502    0 -0.25973860187E+02  0.69043370554E+01 -0.43338483846E+03  0.43421737585E+03  0.00000000000E+00 0. -1.
</event>
<event>
 4    1  0.3767413E+003  0.2667896E+02  0.7546771E-02  0.1450860E+00
          2   -1    0    0  502    0  0.00000000000E+00  0.00000000000E+00  0.10097197469E+03  0.10097197469E+03  0.00000000000E+00 0. -1.
          1   -1    0    0  501    0 -0.00000000000E+00 -0.00000000000E+00 -0.13104160195E+02  0.13104160195E+02  0.00000000000E+00 0.  1.
          2    1    1    2  501    0 -0.26598535475E+02  0.20699579994E+01  0.82705850348E+02  0.86902384877E+02  0.00000000000E+00 0. -1.
          1    1    1    2  502    0  0.26598535475E+02 -0.20699579994E+01  0.51619641452E+01  0.27173750005E+02  0.00000000000E+00 0.  1.
</event>
<event>
 4    1  0.3767413E+003  0.2089346E+02  0.7546771E-02  0.1520791E+00
          2   -1    0    0  502    0  0.00000000000E+00  0.00000000000E+00  0.81604334978E+03  0.81604334978E+03  0.00000000000E+00 0. -1.
          1   -1    0    0  501    0 -0.00000000000E+00 -0.00000000000E+00 -0.16119964821E+01  0.16119964821E+01  0.00000000000E+00 0. -1.
          2    1    1    2  501    0  0.11470561146E+02 -0.17463185160E+02  0.74139293507E+03  0.74168727965E+03  0.00000000000E+00 0. -1.
          1    1    1    2  502    0 -0.11470561146E+02  0.17463185160E+02  0.73038418221E+02  0.75968066615E+02  0.00000000000E+00 0. -1.
</event>
<event>
 4    1  0.3767413E+003  0.3374997E+02  0.7546771E-02  0.1389571E+00
          2   -1    0    0  502    0  0.00000000000E+00  0.00000000000E+00  0.67525851476E+03  0.67525851476E+03  0.00000000000E+00 0.  1.
          1   -1    0    0  501    0 -0.00000000000E+00 -0.00000000000E+00 -0.45256114709E+01  0.45256114709E+01  0.00000000000E+00 0.  1.
          2    1    1    2  501    0 -0.26186795177E+02 -0.21291135198E+02  0.60456130002E+03  0.60550262275E+03  0.00000000000E+00 0.  1.
          1    1    1    2  502    0  0.26186795177E+02  0.21291135198E+02  0.66171603268E+02  0.74281503476E+02  0.00000000000E+00 0.  1.
</event>
<event>
 4    1  0.3767413E+003  0.2318825E+02  0.7546771E-02  0.1490148E+00
          2   -1    0    0  502    0  0.00000000000E+00  0.00000000000E+00  0.16584283369E+04  0.16584283369E+04  0.00000000000E+00 0. -1.
          1   -1    0    0  501    0 -0.00000000000E+00 -0.00000000000E+00 -0.19404684623E+03  0.19404684623E+03  0.00000000000E+00 0.  1.
          2    1    1    2  501    0  0.18135044340E+02  0.14450438528E+02  0.16576542198E+04  0.16578163974E+04  0.00000000000E+00 0. -1.
          1    1    1    2  502    0 -0.18135044340E+02 -0.14450438528E+02 -0.19327272918E+03  0.19465878570E+03  0.00000000000E+00 0.  1.
</event>
<event>
 4    1  0.3767413E+003  0.2033536E+02  0.7546771E-02  0.1528969E+00
          2   -1    0    0  502    0  0.00000000000E+00  0.00000000000E+00  0.83309553614E+03  0.83309553614E+03  0.00000000000E+00 0.  1.
          1   -1    0    0  501    0 -0.00000000000E+00 -0.00000000000E+00 -0.73560056417E+00  0.73560056417E+00  0.00000000000E+00 0. -1.
          2    1    1    2  501    0 -0.96971090106E+01  0.17874369648E+02  0.65393610328E+03  0.65425220992E+03  0.00000000000E+00 0.  1.
          1    1    1    2  502    0  0.96971090106E+01 -0.17874369648E+02  0.17842383229E+03  0.17957892678E+03  0.00000000000E+00 0. -1.
</event>
<event>
 4    1  0.3767413E+003  0.2218494E+02  0.7546771E-02  0.1502995E+00
          2   -1    0    0  502    0  0.00000000000E+00  0.00000000000E+00  0.11121726938E+02  0.11121726938E+02  0.00000000000E+00 0.  1.
          1   -1    0    0  501    0 -0.00000000000E+00 -0.00000000000E+00 -0.48737194543E+02  0.48737194543E+02  0.00000000000E+00 0.  1.
          2    1    1    2  501    0 -0.21390002989E+02 -0.58855163512E+01 -0.97294607959E+01  0.24224655580E+02  0.00000000000E+00 0.  1.
          1    1    1    2  502    0  0.21390002989E+02  0.58855163512E+01 -0.27886006808E+02  0.35634265901E+02  0.00000000000E+00 0.  1.
</event>
<event>
 4    1  0.3767413E+003  0.2837180E+02  0.7546771E-02  0.1434294E+00
          2   -1    0    0  502    0  0.00000000000E+00  0.00000000000E+00  0.11275981082E+04  0.11275981082E+04  0.00000000000E+00 0. -1.
          1   -1    0    0  501    0 -0.00000000000E+00 -0.00000000000E+00 -0.73764490682E+01  0.73764490682E+01  0.00000000000E+00 0.  1.
          2    1    1    2  501    0 -0.14923768928E+02  0.24129649873E+02  0.10994396545E+04  0.10998056705E+04  0.00000000000E+00 0. -1.
          1    1    1    2  502    0  0.14923768928E+02 -0.24129649873E+02  0.20782004597E+02  0.35168886777E+02  0.00000000000E+00 0.  1.
</event>
<event>
 4    1  0.3767413E+003  0.3191110E+02  0.7546771E-02  0.1403685E+00
          2   -1    0    0  502    0  0.00000000000E+00  0.00000000000E+00  0.15214770248E+03  0.15214770248E+03  0.00000000000E+00 0. -1.
          1   -1    0    0  501    0 -0.00000000000E+00 -0.00000000000E+00 -0.46098145002E+03  0.46098145002E+03  0.00000000000E+00 0. -1.
          2    1    1    2  501    0  0.22459941716E+02 -0.22668686570E+02  0.14991407001E+03  0.15327278532E+03  0.00000000000E+00 0. -1.
          1    1    1    2  502    0 -0.22459941716E+02  0.22668686570E+02 -0.45874781754E+03  0.45985636718E+03  0.00000000000E+00 0. -1.
</event>
<event>
 4    1  0.3767413E+003  0.2041663E+02  0.7546771E-02  0.1527759E+00
          2   -1    0    0  502    0  0.00000000000E+00  0.00000000000E+00  0.73057937972E+01  0.73057937972E+01  0.00000000000E+00 0.  1.
          1   -1    0    0  501    0 -0.00000000000E+00 -0.00000000000E+00 -0.11788516111E+03  0.11788516111E+03  0.00000000000E+00 0.  1.
          2    1    1    2  501    0  0.67033154278E+01 -0.19284820254E+02 -0.10325199805E+02  0.22878996502E+02  0.00000000000E+00 0.  1.
          1    1    1    2  502    0 -0.67033154278E+01  0.19284820254E+02 -0.10025416751E+03  0.10231195841E+03  0.00000000000E+00 0.  1.
</event>
<event>
 4    1  0.3767413E+003  0.2326077E+02  0.7546771E-02  0.1489249E+00
          2   -1    0    0  502    0  0.00000000000E+00  0.00000000000E+00  0.35142304774E+03  0.35142304774E+03  0.00000000000E+00 0. -1.
          1   -1    0    0  501    0 -0.00000000000E+00 -0.00000000000E+00 -0.82752277726E+02  0.82752277726E+02  0.00000000000E+00 0.  1.
          2    1    1    2  501    0  0.45176192260E+01 -0.22817852757E+02  0.34939406988E+03  0.35016750185E+03  0.00000000000E+00 0. -1.
          1    1    1    2  502    0 -0.45176192260E+01  0.22817852757E+02 -0.80723299862E+02  0.84007823615E+02  0.00000000000E+00 0.  1.
</event>
<event>
 4    1  0.3767413E+003  0.3242603E+02  0.7546771E-02  0.1399622E+00
          2   -1    0    0  502    0  0.00000000000E+00  0.00000000000E+00  0.10909716078E+04  0.10909716078E+04  0.00000000000E+00 0.  1.
          1   -1    0    0  501    0 -0.00000000000E+00 -0.00000000000E+00 -0.21478161965E+04  0.21478161965E+04  0.00000000000E+00 0.  1.
          2    1    1    2  501    0 -0.32374044312E+02 -0.18354509136E+01  0.10906082384E+04  0.10910901783E+04  0.00000000000E+00 0.  1.
          1    1    1    2  502    0  0.32374044312E+02  0.18354509136E+01 -0.21474528272E+04  0.21476976259E+04  0.00000000000E+00 0.  1.
</event>
<event>
 4    1  0.3767413E+003  0.2307396E+02  0.7546771E-02  0.1491572E+00
          2   -1    0    0  502    0  0.00000000000E+00  0.00000000000E+00  0.54357795359E+03  0.54357795359E+03  0.00000000000E+00 0.  1.
          1   -1    0    0  501    0 -0.00000000000E+00 -0.00000000000E+00 -0.19820057095E+01  0.19820057095E+01  0.00000000000E+00 0. -1.
          2    1    1    2  501    0  0.21783189150E+02  0.76092122129E+01  0.46480358641E+03  0.46537595703E+03  0.00000000000E+00 0.  1.
          1    1    1    2  502    0 -0.21783189150E+02 -0.76092122129E+01  0.76792361469E+02  0.80184002270E+02  0.00000000000E+00 0. -1.
</event>
<event>
 4    1  0.3767413E+003  0.2527903E+02  0.7546771E-02  0.1465706E+00
          2   -1    0    0  502    0  0.00000000000E+00  0.00000000000E+00  0.11398728299E+03  0.11398728299E+03  0.00000000000E+00 0.  1.
          1   -1    0    0  501    0 -0.00000000000E+00 -0.00000000000E+00 -0.69493676299E+02  0.69493676299E+02  0.00000000000E+00 0.  1.
          2    1    1    2  501    0 -0.34954513536E+01  0.25036201864E+02  0.11020906878E+03  0.11307107687E+03  0.00000000000E+00 0.  1.
          1    1    1    2  502    0  0.34954513536E+01 -0.25036201864E+02 -0.65715462090E+02  0.70409882415E+02  0.00000000000E+00 0.  1.
</event>
<event>
 4    1  0.3767413E+003  0.2008516E+02  0.7546771E-02  0.1532738E+00
          2   -1    0    0  502    0  0.00000000000E+00  0.00000000000E+00  0.32053021102E+02  0.32053021102E+02  0.00000000000E+00 0.  1.
          1   -1    0    0  501    0 -0.00000000000E+00 -0.00000000000E+00 -0.80320595609E+02  0.80320595609E+02  0.00000000000E+00 0. -1.
          2    1    1    2  501    0  0.11759147742E+02 -0.16283000010E+02  0.27463484912E+02  0.34024353755E+02  0.00000000000E+00 0.  1.
          1    1    1    2  502    0 -0.11759147742E+02  0.16283000010E+02 -0.75731059419E+02  0.78349262955E+02  0.00000000000E+00 0. -1.
</event>
<event>
 4    1  0.3767413E+003  0.2458087E+02  0.7546771E-02  0.1473547E+00
          2   -1    0    0  502    0  0.00000000000E+00  0.00000000000E+00  0.44454174533E+03  0.44454174533E+03  0.00000000000E+00 0. -1.
          1   -1    0    0  501    0 -0.00000000000E+00 -0.00000000000E+00 -0.30612171583E+01  0.30612171583E+01  0.00000000000E+00 0.  1.
          2    1    1    2  501    0  0.22339214373E+02 -0.10255663322E+02  0.38761801248E+03  0.38839663068E+03  0.00000000000E+00 0. -1.
          1    1    1    2  502    0 -0.22339214373E+02  0.10255663322E+02  0.53862515697E+02  0.59206331808E+02  0.00000000000E+00 0.  1.
</event>
<event>
 4    1  0.3767413E+003  0.2748874E+02  0.7546771E-02  0.1442759E+00
          2   -1    0    0  502    0  0.00000000000E+00  0.00000000000E+00  0.28762449469E+02  0.28762449469E+02  0.00000000000E+00 0. -1.
          1   -1    0    0  501    0 -0.00000000000E+00 -0.00000000000E+00 -0.16070207116E+03  0.16070207116E+03  0.00000000000E+00 0.  1.
          2    1    1    2  501    0  0.83252414649E+00 -0.27476127745E+02  0.20673750876E+02  0.34395271006E+02  0.00000000000E+00 0. -1.
          1    1    1    2  502    0 -0.83252414649E+00  0.27476127745E+02 -0.15261337257E+03  0.15506924962E+03  0.00000000000E+00 0.  1.
</event>
<event>
 4    1  0.3767413E+003  0.2636615E+02  0.7546771E-02  0.1454081E+00
          2   -1    0    0  502    0  0.00000000000E+00  0.00000000000E+00  0.15773019190E+02  0.15773019190E+02  0.00000000000E+00 0. -1.
          1   -1    0    0  501    0 -0.00000000000E+00 -0.00000000000E+00 -0.35043895306E+03  0.35043895306E+03  0.00000000000E+00 0. -1.
          2    1    1    2  501    0 -0.22728973168E+02 -0.13362921485E+02  0.38719263094E+01  0.26648934411E+02  0.00000000000E+00 0. -1.
          1    1    1    2  502    0  0.22728973168E+02  0.13362921485E+02 -0.33853786018E+03  0.33956303784E+03  0.00000000000E+00 0. -1.
</event>
<event>
 4    1  0.3767413E+003  0.2093288E+02  0.7546771E-02  0.1520225E+00
          2   -1    0    0  502    0  0.00000000000E+00  0.00000000000E+00  0.35710393249E+00  0.35710393249E+00  0.00000000000E+00 0. -1.
          1   -1    0    0  501    0 -0.00000000000E+00 -0.00000000000E+00 -0.16069764726E+04  0.16069764726E+04  0.00000000000E+00 0. -1.
          2    1    1    2  501    0  0.24498744243E+01 -0.20789025978E+02 -0.41254143376E+03  0.41307217293E+03  0.00000000000E+00 0. -1.
          1    1    1    2  502    0 -0.24498744243E+01  0.20789025978E+02 -0.11940779349E+04  0.11942614036E+04  0.00000000000E+00 0. -1.
</event>
<event>
 4    1  0.3767413E+003  0.2109308E+02  0.7546771E-02  0.1517940E+00
          2   -1    0    0  502    0  0.00000000000E+00  0.00000000000E+00  0.13329086768E+03  0.13329086768E+03  0.00000000000E+00 0.  1.
          1   -1    0    0  501    0 -0.00000000000E+00 -0.00000000000E+00 -0.33452766608E+01  0.33452766608E+01  0.00000000000E+00 0.  1.
          2    1    1    2  501    0  0.17212925927E+02  0.12191513392E+02  0.68170726637E+02  0.71359412750E+02  0.00000000000E+00 0.  1.
          1    1    1    2  502    0 -0.17212925927E+02 -0.12191513392E+02  0.61774864378E+02  0.65276731587E+02  0.00000000000E+00 0.  1.
</event>
<event>
 4    1  0.3767413E+003  0.2492524E+02  0.7546771E-02  0.1469641E+00
          2   -1    0    0  502    0  0.00000000000E+00  0.00000000000E+00  0.32716504039E+03  0.32716504039E+03  0.00000000000E+00 0.  1.
          1   -1    0    0  501    0 -0.00000000000E+00 -0.00000000000E+00 -0.15859129606E+02  0.15859129606E+02  0.00000000000E+00 0.  1.
          2    1    1    2  501    0  0.24380447924E+02 -0.51828123768E+01  0.31656948694E+03  0.31754922114E+03  0.00000000000E+00 0.  1.
          1    1    1    2  502    0 -0.24380447924E+02  0.51828123768E+01 -0.52635761581E+01  0.25474948853E+02  0.00000000000E+00 0.  1.
</event>
<event>
 4    1  0.3767413E+003  0.2119402E+02  0.7546771E-02  0.1516513E+00
          2   -1    0    0  502    0  0.00000000000E+00  0.00000000000E+00  0.11327504955E+04  0.11327504955E+04  0.00000000000E+00 0.  1.
          1   -1    0    0  501    0 -0.00000000000E+00 -0.00000000000E+00 -0.84243930276E+02  0.84243930276E+02  0.00000000000E+00 0. -1.
          2    1    1    2  501    0  0.18907249518E+02 -0.95761333501E+01  0.11313166766E+04  0.11315151829E+04  0.00000000000E+00 0.  1.
          1    1    1    2  502    0 -0.18907249518E+02  0.95761333501E+01 -0.82810111375E+02  0.85479242862E+02  0.00000000000E+00 0. -1.
</event>
<event>
 4    1  0.3767413E+003  0.2490946E+02  0.7546771E-02  0.1469819E+00
          2   -1    0    0  502    0  0.00000000000E+00  0.00000000000E+00  0.84504018677E+03  0.84504018677E+03  0.00000000000E+00 0. -1.
          1   -1    0    0  501    0 -0.00000000000E+00 -0.00000000000E+00 -0.30047760910E+01  0.30047760910E+01  0.00000000000E+00 0. -1.
          2    1    1    2  501    0 -0.22173859469E+02 -0.11349049869E+02  0.78960886735E+03  0.79000167365E+03  0.00000000000E+00 0. -1.
          1    1    1    2  502    0  0.22173859469E+02  0.11349049869E+02  0.52426543332E+02  0.58043289211E+02  0.00000000000E+00 0. -1.
</event>
<event>
 4    1  0.3767413E+003  0.2035346E+02  0.7546771E-02  0.1528699E+00
          2   -1    0    0  502    0  0.00000000000E+00  0.00000000000E+00  0.58499292132E+03  0.58499292132E+03  0.00000000000E+00 0.  1.
          1   -1    0    0  501    0 -0.00000000000E+00 -0.00000000000E+00 -0.40342635304E+01  0.40342635304E+01  0.00000000000E+00 0.  1.
          2    1    1    2  501    0 -0.11586018183E+01  0.20320453435E+02  0.55789798100E+03  0.55826912900E+03  0.00000000000E+00 0.  1.
          1    1    1    2  502    0  0.11586018183E+01 -0.20320453435E+02  0.23060676790E+02  0.30758055855E+02  0.00000000000E+00 0.  1.
</event>
<event>
 4    1  0.3767413E+003  0.3217323E+02  0.7546771E-02  0.1401606E+00
          2   -1    0    0  502    0  0.00000000000E+00  0.00000000000E+00  0.60167143627E+02  0.60167143627E+02  0.00000000000E+00 0.  1.
          1   -1    0    0  501    0 -0.00000000000E+00 -0.00000000000E+00 -0.74067571432E+02  0.74067571432E+02  0.00000000000E+00 0.  1.
          2    1    1    2  501    0 -0.27452084320E+02  0.16777959988E+02  0.51857971480E+02  0.61027584590E+02  0.00000000000E+00 0.  1.
          1    1    1    2  502    0  0.27452084320E+02 -0.16777959988E+02 -0.65758399285E+02  0.73207130468E+02  0.00000000000E+00 0.  1.
</event>
<event>
 4    1  0.3767413E+003  0.3440758E+02  0.7546771E-02  0.1384777E+00
          2   -1    0    0  502    0  0.00000000000E+00  0.00000000000E+00  0.21884010096E+03  0.21884010096E+03  0.00000000000E+00 0.  1.
          1   -1    0    0  501    0 -0.00000000000E+00 -0.00000000000E+00 -0.23026977769E+02  0.23026977769E+02  0.00000000000E+00 0.  1.
          2    1    1    2  501    0 -0.19213282446E+02  0.28543502496E+02  0.20368482394E+03  0.20657054306E+03  0.00000000000E+00 0.  1.
          1    1    1    2  502    0  0.19213282446E+02 -0.28543502496E+02 -0.78717007525E+01  0.35296535663E+02  0.00000000000E+00 0.  1.
</event>
<event>
 4    1  0.3767413E+003  0.2123395E+02  0.7546771E-02  0.1515951E+00
          2   -1    0    0  502    0  0.00000000000E+00  0.00000000000E+00  0.56979218483E+00  0.56979218483E+00  0.00000000000E+00 0.  1.
          1   -1    0    0  501    0 -0.00000000000E+00 -0.00000000000E+00 -0.17229310199E+04  0.17229310199E+04  0.00000000000E+00 0. -1.
          2    1    1    2  501    0 -0.59339768602E+01 -0.20387953800E+02 -0.22750381018E+03  0.22849259154E+03  0.00000000000E+00 0.  1.
          1    1    1    2  502    0  0.59339768602E+01  0.20387953800E+02 -0.14948574176E+04  0.14950082206E+04  0.00000000000E+00 0. -1.
</event>
<event>
 4    1  0.3767413E+003  0.2055725E+02  0.7546771E-02  0.1525681E+00
          2   -1    0    0  502    0  0.00000000000E+00  0.00000000000E+00  0.16833580736E+03  0.16833580736E+03  0.00000000000E+00 0. -1.
          1   -1    0    0  501    0 -0.00000000000E+00 -0.00000000000E+00 -0.25524373619E+01  0.25524373619E+01  0.00000000000E+00 0. -1.
          2    1    1    2  501    0 -0.18847125083E+02 -0.82089157310E+01  0.93849117996E+02  0.96074228438E+02  0.00000000000E+00 0. -1.
          1    1    1    2  502    0  0.18847125083E+02  0.82089157310E+01  0.71934251998E+02  0.74814016280E+02  0.00000000000E+00 0. -1.
</event>
<event>
 4    1  0.3767413E+003  0.2167328E+02  0.7546771E-02  0.1509865E+00
          2   -1    0    0  502    0  0.00000000000E+00  0.00000000000E+00  0.12442773323E+01  0.12442773323E+01  0.00000000000E+00 0. -1.
          1   -1    0    0  501    0 -0.00000000000E+00 -0.00000000000E+00 -0.45437745343E+03  0.45437745343E+03  0.00000000000E+00 0. -1.
          2    1    1    2  501    0  0.21279150660E+02 -0.41144577389E+01 -0.13286898398E+03  0.13462502709E+03  0.00000000000E+00 0. -1.
          1    1    1    2  502    0 -0.21279150660E+02  0.41144577389E+01 -0.32026419212E+03  0.32099670368E+03  0.00000000000E+00 0. -1.
</event>
<event>
 4    1  0.3767413E+003  0.2754042E+02  0.7546771E-02  0.1442254E+00
          2   -1    0    0  502    0  0.00000000000E+00  0.00000000000E+00  0.19069621585E+04  0.19069621585E+04  0.00000000000E+00 0.  1.
          1   -1    0    0  501    0 -0.00000000000E+00 -0.00000000000E+00 -0.94083270240E+02  0.94083270240E+02  0.00000000000E+00 0.  1.
          2    1    1    2  501    0  0.27389954165E+02  0.28748899053E+01  0.19048450494E+04  0.19050441299E+04  0.00000000000E+00 0.  1.
          1    1    1    2  502    0 -0.27389954165E+02 -0.28748899053E+01 -0.91966161156E+02  0.96001298840E+02  0.00000000000E+00 0.  1.
</event>
<event>
 4    1  0.3767413E+003  0.6483138E+02  0.7546771E-02  0.1244245E+00
          2   -1    0    0  502    0  0.00000000000E+00  0.00000000000E+00  0.18575345800E+03  0.18575345800E+03  0.00000000000E+00 0.  1.
          1   -1    0    0  501    0 -0.00000000000E+00 -0.00000000000E+00 -0.31730338969E+03  0.31730338969E+03  0.00000000000E+00 0. -1.
          2    1    1    2  501    0 -0.57692086032E+02 -0.29575841977E+02  0.17661918232E+03  0.18814208137E+03  0.00000000000E+00 0.  1.
          1    1    1    2  502    0  0.57692086032E+02  0.29575841977E+02 -0.30816911401E+03  0.31491476632E+03  0.00000000000E+00 0. -1.
</event>
<event>
 4    1  0.3767413E+003  0.3068920E+02  0.7546771E-02  0.1413700E+00
          2   -1    0    0  502    0  0.00000000000E+00  0.00000000000E+00  0.23639924472E+03  0.23639924472E+03  0.00000000000E+00 0.  1.
          1   -1    0    0  501    0 -0.00000000000E+00 -0.00000000000E+00 -0.54764804309E+03  0.54764804309E+03  0.00000000000E+00 0.  1.
          2    1    1    2  501    0  0.21440204983E+02 -0.21957786857E+02  0.23497068730E+03  0.23696634926E+03  0.00000000000E+00 0.  1.
          1    1    1    2  502    0 -0.21440204983E+02  0.21957786857E+02 -0.54621948567E+03  0.54708093855E+03  0.00000000000E+00 0.  1.
</event>
<event>
 4    1  0.3767413E+003  0.5362663E+02  0.7546771E-02  0.1283171E+00
          2   -1    0    0  502    0  0.00000000000E+00  0.00000000000E+00  0.67869164412E+03  0.67869164412E+03  0.00000000000E+00 0. -1.
          1   -1    0    0  501    0 -0.00000000000E+00 -0.00000000000E+00 -0.47528642416E+01  0.47528642416E+01  0.00000000000E+00 0.  1.
          2    1    1    2  501    0 -0.52985406138E+02 -0.82681198521E+01  0.44951798442E+03  0.45270545985E+03  0.00000000000E+00 0. -1.
          1    1    1    2  502    0  0.52985406138E+02  0.82681198521E+01  0.22442079546E+03  0.23073904851E+03  0.00000000000E+00 0.  1.
</event>
<event>
 4    1  0.3767413E+003  0.2332724E+02  0.7546771E-02  0.1488429E+00
          2   -1    0    0  502    0  0.00000000000E+00  0.00000000000E+00  0.10167808306E+02  0.10167808306E+02  0.00000000000E+00 0. -1.
          1   -1    0    0  501    0 -0.00000000000E+00 -0.00000000000E+00 -0.28619248241E+03  0.28619248241E+03  0.00000000000E+00 0. -1.
          2    1    1    2  501    0  0.98764224258E+01 -0.21133302117E+02 -0.44034526690E+01  0.23739220158E+02  0.00000000000E+00 0. -1.
          1    1    1    2  502    0 -0.98764224258E+01  0.21133302117E+02 -0.27162122144E+03  0.27262107056E+03  0.00000000000E+00 0. -1.
</event>
<event>
 4    1  0.3767413E+003  0.2731568E+02  0.7546771E-02  0.1444463E+00
          2   -1    0    0  502    0  0.00000000000E+00  0.00000000000E+00  0.36135317704E+03  0.36135317704E+03  0.00000000000E+00 0.  1.
          1   -1    0    0  501    0 -0.00000000000E+00 -0.00000000000E+00 -0.36370926373E+01  0.36370926373E+01  0.00000000000E+00 0.  1.
          2    1    1    2  501    0  0.14077963997E+02 -0.23408487487E+02  0.29884429930E+03  0.30009008911E+03  0.00000000000E+00 0.  1.
          1    1    1    2  502    0 -0.14077963997E+02  0.23408487487E+02  0.58871785102E+02  0.64900180569E+02  0.00000000000E+00 0.  1.
</event>
<event>
 4    1  0.3767413E+003  0.2189751E+02  0.7546771E-02  0.1506826E+00
          2   -1    0    0  502    0  0.00000000000E+00  0.00000000000E+00  0.15448547986E+04  0.15448547986E+04  0.00000000000E+00 0.  1.
          1   -1    0    0  501    0 -0.00000000000E+00 -0.00000000000E+00 -0.26164806169E+01  0.26164806169E+01  0.00000000000E+00 0.  1.
          2    1    1    2  501    0  0.17063800463E+02 -0.13723255402E+02  0.14975134439E+04  0.14976735344E+04  0.00000000000E+00 0.  1.
          1    1    1    2  502    0 -0.17063800463E+02  0.13723255402E+02  0.44724874028E+02  0.49797744747E+02  0.00000000000E+00 0.  1.
</event>
<event>
 4    1  0.3767413E+003  0.2536840E+02  0.7546771E-02  0.1464724E+00
          2   -1    0    0  502    0  0.00000000000E+00  0.00000000000E+00  0.37201896421E+03  0.37201896421E+03  0.00000000000E+00 0.  1.
          1   -1    0    0  501    0 -0.00000000000E+00 -0.00000000000E+00 -0.17571215065E+01  0.17571215065E+01  0.00000000000E+00 0.  1.
          2    1    1    2  501    0  0.23080714227E+02  0.10527873485E+02  0.20839250097E+03  0.20993091709E+03  0.00000000000E+00 0.  1.
          1    1    1    2  502    0 -0.23080714227E+02 -0.10527873485E+02  0.16186934173E+03  0.16384516862E+03  0.00000000000E+00 0.  1.
</event>
<event>
 4    1  0.3767413E+003  0.2957477E+02  0.7546771E-02  0.1423328E+00
          2   -1    0    0  502    0  0.00000000000E+00  0.00000000000E+00  0.42826718926E+02  0.42826718926E+02  0.00000000000E+00 0. -1.
          1   -1    0    0  501    0 -0.00000000000E+00 -0.00000000000E+00 -0.31250958730E+02  0.31250958730E+02  0.00000000000E+00 0.  1.
          2    1    1    2  501    0  0.11038039403E+02  0.27437727459E+02  0.27589610695E+02  0.40445689761E+02  0.00000000000E+00 0. -1.
          1    1    1    2  502    0 -0.11038039403E+02 -0.27437727459E+02 -0.16013850499E+02  0.33631987895E+02  0.00000000000E+00 0.  1.
</event>
<event>
 4    1  0.3767413E+003  0.2520493E+02  0.7546771E-02  0.1466524E+00
          2   -1    0    0  502    0  0.00000000000E+00  0.00000000000E+00  0.14756103109E+04  0.14756103109E+04  0.00000000000E+00 0. -1.
          1   -1    0    0  501    0 -0.00000000000E+00 -0.00000000000E+00 -0.18305869597E+01  0.18305869597E+01  0.00000000000E+00 0. -1.
          2    1    1    2  501    0 -0.11515797023E+02 -0.22420413710E+02  0.13829283907E+04  0.13831580612E+04  0.00000000000E+00 0. -1.
          1    1    1    2  502    0  0.11515797023E+02  0.22420413710E+02  0.90851333235E+02  0.94282836628E+02  0.00000000000E+00 0. -1.
</event>
<event>
 4    1  0.3767413E+003  0.2428475E+02  0.7546771E-02  0.1476966E+00
          2   -1    0    0  502    0  0.00000000000E+00  0.00000000000E+00  0.73072979353E+01  0.73072979353E+01  0.00000000000E+00 0. -1.
          1   -1    0    0  501    0 -0.00000000000E+00 -0.00000000000E+00 -0.88893982726E+02  0.88893982726E+02  0.00000000000E+00 0. -1.
          2    1    1    2  501    0 -0.74291786078E+01 -0.23120474895E+02 -0.26195778370E+02  0.35720692302E+02  0.00000000000E+00 0. -1.
          1    1    1    2  502    0  0.74291786078E+01  0.23120474895E+02 -0.55390906421E+02  0.60480588359E+02  0.00000000000E+00 0. -1.
</event>
<event>
 4    1  0.3767413E+003  0.2440821E+02  0.7546771E-02  0.1475534E+00
          2   -1    0    0  502    0  0.00000000000E+00  0.00000000000E+00  0.35997283979E+01  0.35997283979E+01  0.00000000000E+00 0. -1.
          1   -1    0    0  501    0 -0.00000000000E+00 -0.00000000000E+00 -0.43450837249E+03  0.43450837249E+03  0.00000000000E+00 0.  1.
          2    1    1    2  501    0  0.22315347967E+02  0.98886803861E+01 -0.43095374887E+02  0.49527488239E+02  0.00000000000E+00 0. -1.
          1    1    1    2  502    0 -0.22315347967E+02 -0.98886803861E+01 -0.38781326920E+03  0.38858061265E+03  0.00000000000E+00 0.  1.
</event>
<event>
 4    1  0.3767413E+003  0.2113167E+02  0.7546771E-02  0.1517393E+00
          2   -1    0    0  502    0  0.00000000000E+00  0.00000000000E+00  0.20515499224E+02  0.20515499224E+02  0.00000000000E+00 0.  1.
          1   -1    0    0  501    0 -0.00000000000E+00 -0.00000000000E+00 -0.35761750485E+03  0.35761750485E+03  0.00000000000E+00 0. -1.
          2    1    1    2  501    0  0.19816928869E+02 -0.73373496725E+01  0.14671424855E+02  0.25725436387E+02  0.00000000000E+00 0.  1.
          1    1    1    2  502    0 -0.19816928869E+02  0.73373496725E+01 -0.35177343048E+03  0.35240756768E+03  0.00000000000E+00 0. -1.
</event>
<event>
 4    1  0.3767413E+003  0.2907677E+02  0.7546771E-02  0.1427792E+00
          2   -1    0    0  502    0  0.00000000000E+00  0.00000000000E+00  0.10128030159E+03  0.10128030159E+03  0.00000000000E+00 0. -1.
          1   -1    0    0  501    0 -0.00000000000E+00 -0.00000000000E+00 -0.90787231570E+01  0.90787231570E+01  0.00000000000E+00 0. -1.
          2    1    1    2  501    0  0.11942144115E+02  0.26511203387E+02  0.61758479666E+02  0.68261032235E+02  0.00000000000E+00 0. -1.
          1    1    1    2  502    0 -0.11942144115E+02 -0.26511203387E+02  0.30443098770E+02  0.42097992515E+02  0.00000000000E+00 0. -1.
</event>
<event>
 4    1  0.3767413E+003  0.2675011E+02  0.7546771E-02  0.1450135E+00
          2   -1    0    0  502    0  0.00000000000E+00  0.00000000000E+00  0.19313114871E+04  0.19313114871E+04  0.00000000000E+00 0. -1.
          1   -1    0    0  501    0 -0.00000000000E+00 -0.00000000000E+00 -0.13059259578E+02  0.13059259578E+02  0.00000000000E+00 0. -1.
          2    1    1    2  501    0  0.16761005233E+02  0.20847952600E+02  0.19174211413E+04  0.19176077288E+04  0.00000000000E+00 0. -1.
          1    1    1    2  502    0 -0.16761005233E+02 -0.20847952600E+02  0.83108626280E+00  0.26763017925E+02  0.00000000000E+00 0. -1.
</event>
<event>
 4    1  0.3767413E+003  0.4305769E+02  0.7546771E-02  0.1331443E+00
          2   -1    0    0  502    0  0.00000000000E+00  0.00000000000E+00  0.39367925752E+02  0.39367925752E+02  0.00000000000E+00 0. -1.
          1   -1    0    0  501    0 -0.00000000000E+00 -0.00000000000E+00 -0.13273509869E+04  0.13273509869E+04  0.00000000000E+00 0.  1.
          2    1    1    2  501    0 -0.33447126189E+02  0.27115569146E+02  0.27135948543E+02  0.50895226139E+02  0.00000000000E+00 0. -1.
          1    1    1    2  502    0  0.33447126189E+02 -0.27115569146E+02 -0.13151190097E+04  0.13158236865E+04  0.00000000000E+00 0.  1.
</event>
<event>
 4    1  0.3767413E+003  0.2581432E+02  0.7546771E-02  0.1459896E+00
          2   -1    0    0  502    0  0.00000000000E+00  0.00000000000E+00  0.14798339290E+04  0.14798339290E+04  0.00000000000E+00 0.  1.
          1   -1    0    0  501    0 -0.00000000000E+00 -0.00000000000E+00 -0.97375245616E+00  0.97375245616E+00  0.00000000000E+00 0.  1.
          2    1    1    2  501    0  0.13847138177E+02  0.21786140278E+02  0.12822805586E+04  0.12825403737E+04  0.00000000000E+00 0.  1.
          1    1    1    2  502    0 -0.13847138177E+02 -0.21786140278E+02  0.19657961801E+03  0.19826730784E+03  0.00000000000E+00 0.  1.
</event>
<event>
 4    1  0.3767413E+003  0.2622572E+02  0.7546771E-02  0.1455545E+00
          2   -1    0    0  502    0  0.00000000000E+00  0.00000000000E+00  0.11006109238E+04  0.11006109238E+04  0.00000000000E+00 0. -1.
          1   -1    0    0  501    0 -0.00000000000E+00 -0.00000000000E+00 -0.11935294086E+01  0.11935294086E+01  0.00000000000E+00 0. -1.
          2    1    1    2  501    0  0.16982025934E+02  0.19984976209E+02  0.92995659793E+03  0.93032632044E+03  0.00000000000E+00 0. -1.
          1    1    1    2  502    0 -0.16982025934E+02 -0.19984976209E+02  0.16946079648E+03  0.17147813278E+03  0.00000000000E+00 0. -1.
</event>
<event>
 4    1  0.3767413E+003  0.2742844E+02  0.7546771E-02  0.1443351E+00
          2   -1    0    0  502    0  0.00000000000E+00  0.00000000000E+00  0.11802192707E+04  0.11802192707E+04  0.00000000000E+00 0.  1.
          1   -1    0    0  501    0 -0.00000000000E+00 -0.00000000000E+00 -0.21736033398E+01  0.21736033398E+01  0.00000000000E+00 0.  1.
          2    1    1    2  501    0  0.22132107555E+02  0.16201519524E+02  0.10860273169E+04  0.10863736247E+04  0.00000000000E+00 0.  1.
          1    1    1    2  502    0 -0.22132107555E+02 -0.16201519524E+02  0.92018350445E+02  0.96019249312E+02  0.00000000000E+00 0.  1.
</event>
<event>
 4    1  0.3767413E+003  0.3072487E+02  0.7546771E-02  0.1413400E+00
          2   -1    0    0  502    0  0.00000000000E+00  0.00000000000E+00  0.91149323960E+03  0.91149323960E+03  0.00000000000E+00 0. -1.
          1   -1    0    0  501    0 -0.00000000000E+00 -0.00000000000E+00 -0.75674099142E+01  0.75674099142E+01  0.00000000000E+00 0. -1.
          2    1    1    2  501    0  0.17565283183E+02 -0.25208702251E+02  0.87889084069E+03  0.87942772738E+03  0.00000000000E+00 0. -1.
          1    1    1    2  502    0 -0.17565283183E+02  0.25208702251E+02  0.25034988994E+02  0.39632922128E+02  0.00000000000E+00 0. -1.
</event>
<event>
 4    1  0.3767413E+003  0.2148686E+02  0.7546771E-02  0.1512426E+00
          2   -1    0    0  502    0  0.00000000000E+00  0.00000000000E+00  0.37432239277E+03  0.37432239277E+03  0.00000000000E+00 0.  1.
          1   -1    0    0  501    0 -0.00000000000E+00 -0.00000000000E+00 -0.10296036082E+03  0.10296036082E+03  0.00000000000E+00 0.  1.
          2    1    1    2  501    0 -0.18360711578E+02  0.11161061535E+02  0.37288871290E+03  0.37350726530E+03  0.00000000000E+00 0.  1.
          1    1    1    2  502    0  0.18360711578E+02 -0.11161061535E+02 -0.10152668095E+03  0.10377548829E+03  0.00000000000E+00 0.  1.
</event>
<event>
 4    1  0.3767413E+003  0.2662581E+02  0.7546771E-02  0.1451404E+00
          2   -1    0    0  502    0  0.00000000000E+00  0.00000000000E+00  0.33146200111E+03  0.33146200111E+03  0.00000000000E+00 0. -1.
          1   -1    0    0  501    0 -0.00000000000E+00 -0.00000000000E+00 -0.36203606186E+02  0.36203606186E+02  0.00000000000E+00 0.  1.
          2    1    1    2  501    0 -0.16347714618E+02  0.21016330459E+02  0.32594917398E+03  0.32703485738E+03  0.00000000000E+00 0. -1.
          1    1    1    2  502    0  0.16347714618E+02 -0.21016330459E+02 -0.30690779063E+02  0.40630749915E+02  0.00000000000E+00 0.  1.
</event>
<event>
 4    1  0.3767413E+003  0.3473430E+02  0.7546771E-02  0.1382441E+00
          2   -1    0    0  502    0  0.00000000000E+00  0.00000000000E+00  0.36963784309E+02  0.36963784309E+02  0.00000000000E+00 0. -1.
          1   -1    0    0  501    0 -0.00000000000E+00 -0.00000000000E+00 -0.36363761919E+02  0.36363761919E+02  0.00000000000E+00 0.  1.
          2    1    1    2  501    0 -0.28780559923E+02  0.19446102237E+02  0.12033721148E+02  0.36759787355E+02  0.00000000000E+00 0. -1.
          1    1    1    2  502    0  0.28780559923E+02 -0.19446102237E+02 -0.11433698758E+02  0.36567758873E+02  0.00000000000E+00 0.  1.
</event>
<event>
 4    1  0.3767413E+003  0.6110986E+02  0.7546771E-02  0.1256108E+00
          2   -1    0    0  502    0  0.00000000000E+00  0.00000000000E+00  0.21755457639E+03  0.21755457639E+03  0.00000000000E+00 0.  1.
          1   -1    0    0  501    0 -0.00000000000E+00 -0.00000000000E+00 -0.65460934988E+02  0.65460934988E+02  0.00000000000E+00 0.  1.
          2    1    1    2  501    0  0.26174835595E+02 -0.55220398080E+02  0.19759335175E+03  0.20682733629E+03  0.00000000000E+00 0.  1.
          1    1    1    2  502    0 -0.26174835595E+02  0.55220398080E+02 -0.45499710341E+02  0.76188175091E+02  0.00000000000E+00 0.  1.
</event>
<event>
 4    1  0.3767413E+003  0.2044222E+02  0.7546771E-02  0.1527379E+00
          2   -1    0    0  502    0  0.00000000000E+00  0.00000000000E+00  0.51626701900E+01  0.51626701900E+01  0.00000000000E+00 0.  1.
          1   -1    0    0  501    0 -0.00000000000E+00 -0.00000000000E+00 -0.78536930680E+03  0.78536930680E+03  0.00000000000E+00 0.  1.
          2    1    1    2  501    0  0.19116246346E+02 -0.72424808594E+01 -0.15759966740E+02  0.25812031206E+02  0.00000000000E+00 0.  1.
          1    1    1    2  502    0 -0.19116246346E+02  0.72424808594E+01 -0.76444666987E+03  0.76471994578E+03  0.00000000000E+00 0.  1.
</event>
<event>
 4    1  0.3767413E+003  0.2099747E+02  0.7546771E-02  0.1519301E+00
          2   -1    0    0  502    0  0.00000000000E+00  0.00000000000E+00  0.11313514691E+04  0.11313514691E+04  0.00000000000E+00 0. -1.
          1   -1    0    0  501    0 -0.00000000000E+00 -0.00000000000E+00 -0.62920209919E+00  0.62920209919E+00  0.00000000000E+00 0.  1.
          2    1    1    2  501    0 -0.94081860986E+01 -0.18771784126E+02  0.91455261910E+03  0.91479363079E+03  0.00000000000E+00 0. -1.
          1    1    1    2  502    0  0.94081860986E+01  0.18771784126E+02  0.21616964792E+03  0.21718704042E+03  0.00000000000E+00 0.  1.
</event>
<event>
 4    1  0.3767413E+003  0.2350217E+02  0.7546771E-02  0.1486287E+00
          2   -1    0    0  502    0  0.00000000000E+00  0.00000000000E+00  0.92257557945E+03  0.92257557945E+03  0.00000000000E+00 0. -1.
          1   -1    0    0  501    0 -0.00000000000E+00 -0.00000000000E+00 -0.96797839044E+00  0.96797839044E+00  0.00000000000E+00 0. -1.
          2    1    1    2  501    0 -0.19458966108E+02 -0.13179545574E+02  0.74601581556E+03  0.74638592487E+03  0.00000000000E+00 0. -1.
          1    1    1    2  502    0  0.19458966108E+02  0.13179545574E+02  0.17559178550E+03  0.17715763297E+03  0.00000000000E+00 0. -1.
</event>
<event>
 4    1  0.3767413E+003  0.2739392E+02  0.7546771E-02  0.1443691E+00
          2   -1    0    0  502    0  0.00000000000E+00  0.00000000000E+00  0.19719048738E+02  0.19719048738E+02  0.00000000000E+00 0. -1.
          1   -1    0    0  501    0 -0.00000000000E+00 -0.00000000000E+00 -0.89524903756E+02  0.89524903756E+02  0.00000000000E+00 0. -1.
          2    1    1    2  501    0 -0.19598642498E+02 -0.19139492948E+02  0.65130752435E+01  0.28157541214E+02  0.00000000000E+00 0. -1.
          1    1    1    2  502    0  0.19598642498E+02  0.19139492948E+02 -0.76318930262E+02  0.81086411281E+02  0.00000000000E+00 0. -1.
</event>
<event>
 4    1  0.3767413E+003  0.2004672E+02  0.7546771E-02  0.1533323E+00
          2   -1    0    0  502    0  0.00000000000E+00  0.00000000000E+00  0.64115821950E+02  0.64115821950E+02  0.00000000000E+00 0. -1.
          1   -1    0    0  501    0 -0.00000000000E+00 -0.00000000000E+00 -0.30312319771E+02  0.30312319771E+02  0.00000000000E+00 0.  1.
          2    1    1    2  501    0 -0.18133370132E+02  0.85470422189E+01  0.58952049698E+02  0.62267288416E+02  0.00000000000E+00 0. -1.
          1    1    1    2  502    0  0.18133370132E+02 -0.85470422189E+01 -0.25148547519E+02  0.32160853306E+02  0.00000000000E+00 0.  1.
</event>
<event>
 4    1  0.3767413E+003  0.2062803E+02  0.7546771E-02  0.1524642E+00
          2   -1    0    0  502    0  0.00000000000E+00  0.00000000000E+00  0.20448949757E+03  0.20448949757E+03  0.00000000000E+00 0.  1.
          1   -1    0    0  501    0 -0.00000000000E+00 -0.00000000000E+00 -0.19347476080E+03  0.19347476080E+03  0.00000000000E+00 0.  1.
          2    1    1    2  501    0 -0.15653804643E+02 -0.13434058433E+02  0.20341655460E+03  0.20445980097E+03  0.00000000000E+00 0.  1.
          1    1    1    2  502    0  0.15653804643E+02  0.13434058433E+02 -0.19240181784E+03  0.19350445740E+03  0.00000000000E+00 0.  1.
</event>
<event>
 4    1  0.3767413E+003  0.2144551E+02  0.7546771E-02  0.1512998E+00
          2   -1    0    0  502    0  0.00000000000E+00  0.00000000000E+00  0.13426928476E+04  0.13426928476E+04  0.00000000000E+00 0. -1.
          1   -1    0    0  501    0 -0.00000000000E+00 -0.00000000000E+00 -0.17416677618E+01  0.17416677618E+01  0.00000000000E+00 0.  1.
          2    1    1    2  501    0  0.17766155676E+02 -0.12011394071E+02  0.12729762861E+04  0.12731569169E+04  0.00000000000E+00 0. -1.
          1    1    1    2  502    0 -0.17766155676E+02  0.12011394071E+02  0.67974893733E+02  0.71277598536E+02  0.00000000000E+00 0.  1.
</event>
<event>
 4    1  0.3767413E+003  0.3825956E+02  0.7546771E-02  0.1358998E+00
          2   -1    0    0  502    0  0.00000000000E+00  0.00000000000E+00  0.15197717848E+04  0.15197717848E+04  0.00000000000E+00 0. -1.
          1   -1    0    0  501    0 -0.00000000000E+00 -0.00000000000E+00 -0.98004494573E+00  0.98004494573E+00  0.00000000000E+00 0.  1.
          2    1    1    2  501    0  0.29845220013E+02  0.23938578158E+02  0.65960827247E+03  0.66071693318E+03  0.00000000000E+00 0. -1.
          1    1    1    2  502    0 -0.29845220013E+02 -0.23938578158E+02  0.85918346734E+03  0.86003489652E+03  0.00000000000E+00 0.  1.
</event>
<event>
 4    1  0.3767413E+003  0.3820698E+02  0.7546771E-02  0.1359326E+00
          2   -1    0    0  502    0  0.00000000000E+00  0.00000000000E+00  0.44435457426E+03  0.44435457426E+03  0.00000000000E+00 0. -1.
          1   -1    0    0  501    0 -0.00000000000E+00 -0.00000000000E+00 -0.28822081134E+03  0.28822081134E+03  0.00000000000E+00 0. -1.
          2    1    1    2  501    0 -0.27914582279E+02 -0.26087339970E+02  0.44226110986E+03  0.44390839427E+03  0.00000000000E+00 0. -1.
          1    1    1    2  502    0  0.27914582279E+02  0.26087339970E+02 -0.28612734694E+03  0.28866699132E+03  0.00000000000E+00 0. -1.
</event>
<event>
 4    1  0.3767413E+003  0.2299413E+02  0.7546771E-02  0.1492572E+00
          2   -1    0    0  502    0  0.00000000000E+00  0.00000000000E+00  0.90267421969E+03  0.90267421969E+03  0.00000000000E+00 0. -1.
          1   -1    0    0  501    0 -0.00000000000E+00 -0.00000000000E+00 -0.23314733326E+03  0.23314733326E+03  0.00000000000E+00 0. -1.
          2    1    1    2  501    0  0.18740448255E+02  0.13323881607E+02  0.90196038806E+03  0.90225344103E+03  0.00000000000E+00 0. -1.
          1    1    1    2  502    0 -0.18740448255E+02 -0.13323881607E+02 -0.23243350164E+03  0.23356811192E+03  0.00000000000E+00 0. -1.
</event>
<event>
 4    1  0.3767413E+003  0.3117279E+02  0.7546771E-02  0.1409671E+00
          2   -1    0    0  502    0  0.00000000000E+00  0.00000000000E+00  0.25979747129E+04  0.25979747129E+04  0.00000000000E+00 0.  1.
          1   -1    0    0  501    0 -0.00000000000E+00 -0.00000000000E+00 -0.50360884025E+00  0.50360884025E+00  0.00000000000E+00 0. -1.
          2    1    1    2  501    0  0.26233073462E+02  0.16839501101E+02  0.19577500773E+04  0.19579982401E+04  0.00000000000E+00 0.  1.
          1    1    1    2  502    0 -0.26233073462E+02 -0.16839501101E+02  0.63972102679E+03  0.64048008170E+03  0.00000000000E+00 0. -1.
</event>
<event>
 4    1  0.3767413E+003  0.4138435E+02  0.7546771E-02  0.1340559E+00
          2   -1    0    0  502    0  0.00000000000E+00  0.00000000000E+00  0.86870089236E+03  0.86870089236E+03  0.00000000000E+00 0.  1.
          1   -1    0    0  501    0 -0.00000000000E+00 -0.00000000000E+00 -0.53017148410E+02  0.53017148410E+02  0.00000000000E+00 0.  1.
          2    1    1    2  501    0  0.33771942747E+02  0.23919042939E+02  0.86005083892E+03  0.86104593969E+03  0.00000000000E+00 0.  1.
          1    1    1    2  502    0 -0.33771942747E+02 -0.23919042939E+02 -0.44367094975E+02  0.60672101073E+02  0.00000000000E+00 0.  1.
</event>
<event>
 4    1  0.3767413E+003  0.4426451E+02  0.7546771E-02  0.1325158E+00
          2   -1    0    0  502    0  0.00000000000E+00  0.00000000000E+00  0.16079583892E+03  0.16079583892E+03  0.00000000000E+00 0. -1.
          1   -1    0    0  501    0 -0.00000000000E+00 -0.00000000000E+00 -0.57442532137E+03  0.57442532137E+03  0.00000000000E+00 0. -1.
          2    1    1    2  501    0 -0.43937244798E+02  0.53726545858E+01  0.15687586953E+03  0.16300118202E+03  0.00000000000E+00 0. -1.
          1    1    1    2  502    0  0.43937244798E+02 -0.53726545858E+01 -0.57050535198E+03  0.57221997828E+03  0.00000000000E+00 0. -1.
</event>
<event>
 4    1  0.3767413E+003  0.2372771E+02  0.7546771E-02  0.1483557E+00
          2   -1    0    0  502    0  0.00000000000E+00  0.00000000000E+00  0.34177522820E+03  0.34177522820E+03  0.00000000000E+00 0. -1.
          1   -1    0    0  501    0 -0.00000000000E+00 -0.00000000000E+00 -0.18740772995E+01  0.18740772995E+01  0.00000000000E+00 0. -1.
          2    1    1    2  501    0  0.78950530485E+01  0.22375713321E+02  0.22972245399E+03  0.23094460435E+03  0.00000000000E+00 0. -1.
          1    1    1    2  502    0 -0.78950530485E+01 -0.22375713321E+02  0.11017869691E+03  0.11270470115E+03  0.00000000000E+00 0. -1.
</event>
<event>
 4    1  0.3767413E+003  0.2995778E+02  0.7546771E-02  0.1419964E+00
          2   -1    0    0  502    0  0.00000000000E+00  0.00000000000E+00  0.11898143206E+02  0.11898143206E+02  0.00000000000E+00 0. -1.
          1   -1    0    0  501    0 -0.00000000000E+00 -0.00000000000E+00 -0.22320126102E+03  0.22320126102E+03  0.00000000000E+00 0. -1.
          2    1    1    2  501    0  0.14949775185E+02  0.25960986675E+02 -0.10005026406E+02  0.31584318270E+02  0.00000000000E+00 0. -1.
          1    1    1    2  502    0 -0.14949775185E+02 -0.25960986675E+02 -0.20129809141E+03  0.20351508595E+03  0.00000000000E+00 0. -1.
</event>
<event>
 4    1  0.3767413E+003  0.2090990E+02  0.7546771E-02  0.1520555E+00
          2   -1    0    0  502    0  0.00000000000E+00  0.00000000000E+00  0.96158862944E+00  0.96158862944E+00  0.00000000000E+00 0. -1.
          1   -1    0    0  501    0 -0.00000000000E+00 -0.00000000000E+00 -0.53781462922E+03  0.53781462922E+03  0.00000000000E+00 0. -1.
          2    1    1    2  501    0  0.20909474731E+02  0.13392697967E+00 -0.16251851702E+03  0.16385814732E+03  0.00000000000E+00 0. -1.
          1    1    1    2  502    0 -0.20909474731E+02 -0.13392697967E+00 -0.37433452358E+03  0.37491807053E+03  0.00000000000E+00 0. -1.
</event>
<event>
 4    1  0.3767413E+003  0.2929884E+02  0.7546771E-02  0.1425789E+00
          2   -1    0    0  502    0  0.00000000000E+00  0.00000000000E+00  0.15509211094E+04  0.15509211094E+04  0.00000000000E+00 0.  1.
          1   -1    0    0  501    0 -0.00000000000E+00 -0.00000000000E+00 -0.40747015056E+02  0.40747015056E+02  0.00000000000E+00 0.  1.
          2    1    1    2  501    0  0.28752863491E+02 -0.56298025653E+01  0.15454974780E+04  0.15457751700E+04  0.00000000000E+00 0.  1.
          1    1    1    2  502    0 -0.28752863491E+02  0.56298025653E+01 -0.35323383628E+02  0.45892954436E+02  0.00000000000E+00 0.  1.
</event>
<event>
 4    1  0.4244194E+003  0.2204320E+02  0.7546771E-02  0.1504875E+00
          2   -1    0    0  502    0  0.00000000000E+00  0.00000000000E+00  0.13877153328E+04  0.13877153328E+04  0.00000000000E+00 0. -1.
          1   -1    0    0  501    0 -0.00000000000E+00 -0.00000000000E+00 -0.45564961424E+03  0.45564961424E+03  0.00000000000E+00 0. -1.
          2    1    1    2  501    0  0.15256789527E+02 -0.15910154417E+02  0.13873611294E+04  0.13875362360E+04  0.00000000000E+00 0. -1.
          1    1    1    2  502    0 -0.15256789527E+02  0.15910154417E+02 -0.45529541090E+03  0.45582871106E+03  0.00000000000E+00 0. -1.
</event>
<event>
 4    1  0.3767413E+003  0.3022252E+02  0.7546771E-02  0.1417672E+00
          2   -1    0    0  502    0  0.00000000000E+00  0.00000000000E+00  0.81836570238E+01  0.81836570238E+01  0.00000000000E+00 0.  1.
          1   -1    0    0  501    0 -0.00000000000E+00 -0.00000000000E+00 -0.12766324703E+03  0.12766324703E+03  0.00000000000E+00 0.  1.
          2    1    1    2  501    0  0.22210106135E+02  0.20496634583E+02 -0.35655694883E+02  0.46741089219E+02  0.00000000000E+00 0.  1.
          1    1    1    2  502    0 -0.22210106135E+02 -0.20496634583E+02 -0.83823895119E+02  0.89105814831E+02  0.00000000000E+00 0.  1.
</event>
<event>
 4    1  0.3767413E+003  0.2920569E+02  0.7546771E-02  0.1426627E+00
          2   -1    0    0  502    0  0.00000000000E+00  0.00000000000E+00  0.27964418752E+03  0.27964418752E+03  0.00000000000E+00 0. -1.
          1   -1    0    0  501    0 -0.00000000000E+00 -0.00000000000E+00 -0.49750418205E+03  0.49750418205E+03  0.00000000000E+00 0.  1.
          2    1    1    2  501    0 -0.27243739088E+02  0.10523816912E+02  0.27845117936E+03  0.27997862656E+03  0.00000000000E+00 0. -1.
          1    1    1    2  502    0  0.27243739088E+02 -0.10523816912E+02 -0.49631117389E+03  0.49716974301E+03  0.00000000000E+00 0.  1.
</event>
<event>
 4    1  0.3767413E+003  0.3097021E+02  0.7546771E-02  0.1411348E+00
          2   -1    0    0  502    0  0.00000000000E+00  0.00000000000E+00  0.63330772296E+03  0.63330772296E+03  0.00000000000E+00 0. -1.
          1   -1    0    0  501    0 -0.00000000000E+00 -0.00000000000E+00 -0.10488692700E+03  0.10488692700E+03  0.00000000000E+00 0. -1.
          2    1    1    2  501    0 -0.14566169090E+02  0.27330946617E+02  0.63063324286E+03  0.63139325378E+03  0.00000000000E+00 0. -1.
          1    1    1    2  502    0  0.14566169090E+02 -0.27330946617E+02 -0.10221244689E+03  0.10680139618E+03  0.00000000000E+00 0. -1.
</event>
<event>
 4    1  0.3767413E+003  0.2649947E+02  0.7546771E-02  0.1452702E+00
          2   -1    0    0  502    0  0.00000000000E+00  0.00000000000E+00  0.10083682319E+04  0.10083682319E+04  0.00000000000E+00 0. -1.
          1   -1    0    0  501    0 -0.00000000000E+00 -0.00000000000E+00 -0.18042580416E+01  0.18042580416E+01  0.00000000000E+00 0.  1.
          2    1    1    2  501    0 -0.90005472682E+01  0.24924124329E+02  0.89906705342E+03  0.89945749670E+03  0.00000000000E+00 0. -1.
          1    1    1    2  502    0  0.90005472682E+01 -0.24924124329E+02  0.10749692043E+03  0.11071499323E+03  0.00000000000E+00 0.  1.
</event>
<event>
 4    1  0.3767413E+003  0.2224596E+02  0.7546771E-02  0.1502190E+00
          2   -1    0    0  502    0  0.00000000000E+00  0.00000000000E+00  0.15587088258E+01  0.15587088258E+01  0.00000000000E+00 0.  1.
          1   -1    0    0  501    0 -0.00000000000E+00 -0.00000000000E+00 -0.51099370837E+03  0.51099370837E+03  0.00000000000E+00 0. -1.
          2    1    1    2  501    0 -0.19765283022E+02  0.10208641758E+02 -0.97014783356E+02  0.99532662825E+02  0.00000000000E+00 0.  1.
          1    1    1    2  502    0  0.19765283022E+02 -0.10208641758E+02 -0.41242021619E+03  0.41301975437E+03  0.00000000000E+00 0. -1.
</event>
<event>
 4    1  0.3767413E+003  0.3538812E+02  0.7546771E-02  0.1377855E+00
          2   -1    0    0  502    0  0.00000000000E+00  0.00000000000E+00  0.15529174732E+04  0.15529174732E+04  0.00000000000E+00 0. -1.
          1   -1    0    0  501    0 -0.00000000000E+00 -0.00000000000E+00 -0.23392459915E+01  0.23392459915E+01  0.00000000000E+00 0. -1.
          2    1    1    2  501    0  0.54531156007E+01  0.34965446267E+02  0.14047651269E+04  0.14052107958E+04  0.00000000000E+00 0. -1.
          1    1    1    2  502    0 -0.54531156007E+01 -0.34965446267E+02  0.14581310032E+03  0.15004592340E+03  0.00000000000E+00 0. -1.
</event>
<event>
 4    1  0.3767413E+003  0.2099032E+02  0.7546771E-02  0.1519403E+00
          2   -1    0    0  502    0  0.00000000000E+00  0.00000000000E+00  0.21766945003E+04  0.21766945003E+04  0.00000000000E+00 0.  1.
          1   -1    0    0  501    0 -0.00000000000E+00 -0.00000000000E+00 -0.22599440234E+00  0.22599440234E+00  0.00000000000E+00 0. -1.
          2    1    1    2  501    0  0.14024333855E+02 -0.15617674509E+02  0.14398256592E+04  0.14399786535E+04  0.00000000000E+00 0.  1.
          1    1    1    2  502    0 -0.14024333855E+02  0.15617674509E+02  0.73664284669E+03  0.73694184118E+03  0.00000000000E+00 0. -1.
</event>
<event>
 4    1  0.3767413E+003  0.3673854E+02  0.7546771E-02  0.1368736E+00
          2   -1    0    0  502    0  0.00000000000E+00  0.00000000000E+00  0.21641392743E+03  0.21641392743E+03  0.00000000000E+00 0. -1.
          1   -1    0    0  501    0 -0.00000000000E+00 -0.00000000000E+00 -0.64618404587E+01  0.64618404587E+01  0.00000000000E+00 0.  1.
          2    1    1    2  501    0  0.29613199899E+02 -0.21743473110E+02  0.12577446143E+03  0.13103028421E+03  0.00000000000E+00 0. -1.
          1    1    1    2  502    0 -0.29613199899E+02  0.21743473110E+02  0.84177625543E+02  0.91845483684E+02  0.00000000000E+00 0.  1.
</event>
<event>
 4    1  0.3767413E+003  0.2262421E+02  0.7546771E-02  0.1497272E+00
          2   -1    0    0  502    0  0.00000000000E+00  0.00000000000E+00  0.28254933040E+02  0.28254933040E+02  0.00000000000E+00 0.  1.
          1   -1    0    0  501    0 -0.00000000000E+00 -0.00000000000E+00 -0.19469090030E+03  0.19469090030E+03  0.00000000000E+00 0. -1.
          2    1    1    2  501    0 -0.14224786429E+02 -0.17592900545E+02  0.22942168088E+02  0.32221076567E+02  0.00000000000E+00 0.  1.
          1    1    1    2  502    0  0.14224786429E+02  0.17592900545E+02 -0.18937813534E+03  0.19072475677E+03  0.00000000000E+00 0. -1.
</event>
<event>
 4    1  0.3767413E+003  0.2144368E+02  0.7546771E-02  0.1513024E+00
          2   -1    0    0  502    0  0.00000000000E+00  0.00000000000E+00  0.43021421379E+03  0.43021421379E+03  0.00000000000E+00 0. -1.
          1   -1    0    0  501    0 -0.00000000000E+00 -0.00000000000E+00 -0.42186530950E+02  0.42186530950E+02  0.00000000000E+00 0.  1.
          2    1    1    2  501    0 -0.11480505854E+02 -0.18111587543E+02  0.42720281557E+03  0.42774066589E+03  0.00000000000E+00 0. -1.
          1    1    1    2  502    0  0.11480505854E+02  0.18111587543E+02 -0.39175132737E+02  0.44660078851E+02  0.00000000000E+00 0.  1.
</event>
<event>
 4    1  0.3767413E+003  0.4513268E+02  0.7546771E-02  0.1320777E+00
          2   -1    0    0  502    0  0.00000000000E+00  0.00000000000E+00  0.14723306231E+03  0.14723306231E+03  0.00000000000E+00 0. -1.
          1   -1    0    0  501    0 -0.00000000000E+00 -0.00000000000E+00 -0.14460998185E+02  0.14460998185E+02  0.00000000000E+00 0. -1.
          2    1    1    2  501    0 -0.32379155758E+02  0.31441198742E+02  0.83207996355E+02  0.94660072698E+02  0.00000000000E+00 0. -1.
          1    1    1    2  502    0  0.32379155758E+02 -0.31441198742E+02  0.49564067769E+02  0.67033987795E+02  0.00000000000E+00 0. -1.
</event>
<event>
 4    1  0.3767413E+003  0.2084218E+02  0.7546771E-02  0.1521530E+00
          2   -1    0    0  502    0  0.00000000000E+00  0.00000000000E+00  0.59472873353E+01  0.59472873353E+01  0.00000000000E+00 0.  1.
          1   -1    0    0  501    0 -0.00000000000E+00 -0.00000000000E+00 -0.10780208264E+04  0.10780208264E+04  0.00000000000E+00 0.  1.
          2    1    1    2  501    0  0.44240420760E+01 -0.20367235083E+02 -0.12735743708E+02  0.24425306160E+02  0.00000000000E+00 0.  1.
          1    1    1    2  502    0 -0.44240420760E+01  0.20367235083E+02 -0.10593377954E+04  0.10595428076E+04  0.00000000000E+00 0.  1.
</event>
<event>
 4    1  0.3767413E+003  0.3389037E+02  0.7546771E-02  0.1388537E+00
          2   -1    0    0  502    0  0.00000000000E+00  0.00000000000E+00  0.69127720012E+02  0.69127720012E+02  0.00000000000E+00 0.  1.
          1   -1    0    0  501    0 -0.00000000000E+00 -0.00000000000E+00 -0.34716562743E+03  0.34716562743E+03  0.00000000000E+00 0.  1.
          2    1    1    2  501    0 -0.21991540940E+02 -0.25786219578E+02  0.64085809661E+02  0.72495158411E+02  0.00000000000E+00 0.  1.
          1    1    1    2  502    0  0.21991540940E+02  0.25786219578E+02 -0.34212371708E+03  0.34379818903E+03  0.00000000000E+00 0.  1.
</event>
<event>
 4    1  0.3767413E+003  0.4554604E+02  0.7546771E-02  0.1318731E+00
          2   -1    0    0  502    0  0.00000000000E+00  0.00000000000E+00  0.25271075741E+04  0.25271075741E+04  0.00000000000E+00 0.  1.
          1   -1    0    0  501    0 -0.00000000000E+00 -0.00000000000E+00 -0.12544759337E+01  0.12544759337E+01  0.00000000000E+00 0. -1.
          2    1    1    2  501    0  0.42659061897E+02  0.15957624781E+02  0.20061558522E+04  0.20066728046E+04  0.00000000000E+00 0.  1.
          1    1    1    2  502    0 -0.42659061897E+02 -0.15957624781E+02  0.51969724601E+03  0.52168924549E+03  0.00000000000E+00 0. -1.
</event>
<event>
 4    1  0.3767413E+003  0.2518924E+02  0.7546771E-02  0.1466697E+00
          2   -1    0    0  502    0  0.00000000000E+00  0.00000000000E+00  0.30526711687E+02  0.30526711687E+02  0.00000000000E+00 0. -1.
          1   -1    0    0  501    0 -0.00000000000E+00 -0.00000000000E+00 -0.62716696309E+02  0.62716696309E+02  0.00000000000E+00 0. -1.
          2    1    1    2  501    0 -0.23535454583E+02 -0.89766332896E+01  0.22026315805E+02  0.33461263508E+02  0.00000000000E+00 0. -1.
          1    1    1    2  502    0  0.23535454583E+02  0.89766332896E+01 -0.54216300427E+02  0.59782144488E+02  0.00000000000E+00 0. -1.
</event>
<event>
 4    1  0.3767413E+003  0.2717880E+02  0.7546771E-02  0.1445820E+00
          2   -1    0    0  502    0  0.00000000000E+00  0.00000000000E+00  0.41342894740E+01  0.41342894740E+01  0.00000000000E+00 0. -1.
          1   -1    0    0  501    0 -0.00000000000E+00 -0.00000000000E+00 -0.18029582674E+03  0.18029582674E+03  0.00000000000E+00 0. -1.
          2    1    1    2  501    0  0.24939724260E+02 -0.10802620690E+02 -0.96829137067E+02  0.10057120982E+03  0.00000000000E+00 0. -1.
          1    1    1    2  502    0 -0.24939724260E+02  0.10802620690E+02 -0.79332400199E+02  0.83858906392E+02  0.00000000000E+00 0. -1.
</event>
<event>
 4    1  0.3767413E+003  0.2207282E+02  0.7546771E-02  0.1504481E+00
          2   -1    0    0  502    0  0.00000000000E+00  0.00000000000E+00  0.15427255547E+04  0.15427255547E+04  0.00000000000E+00 0. -1.
          1   -1    0    0  501    0 -0.00000000000E+00 -0.00000000000E+00 -0.22691999769E+01  0.22691999769E+01  0.00000000000E+00 0. -1.
          2    1    1    2  501    0  0.14193865142E+02 -0.16903946107E+02  0.14869572658E+04  0.14871210843E+04  0.00000000000E+00 0. -1.
          1    1    1    2  502    0 -0.14193865142E+02  0.16903946107E+02  0.53499088934E+02  0.57873670338E+02  0.00000000000E+00 0. -1.
</event>
<event>
 4    1  0.3767413E+003  0.2181170E+02  0.7546771E-02  0.1507984E+00
          2   -1    0    0  502    0  0.00000000000E+00  0.00000000000E+00  0.82107609116E+03  0.82107609116E+03  0.00000000000E+00 0.  1.
          1   -1    0    0  501    0 -0.00000000000E+00 -0.00000000000E+00 -0.74206905629E+01  0.74206905629E+01  0.00000000000E+00 0. -1.
          2    1    1    2  501    0  0.12384934275E+02  0.17954484121E+02  0.80457475065E+03  0.80487034948E+03  0.00000000000E+00 0.  1.
          1    1    1    2  502    0 -0.12384934275E+02 -0.17954484121E+02  0.90806499544E+01  0.23626432245E+02  0.00000000000E+00 0. -1.
</event>
<event>
 4    1  0.3767413E+003  0.2196653E+02  0.7546771E-02  0.1505900E+00
          2   -1    0    0  502    0  0.00000000000E+00  0.00000000000E+00  0.57443547362E+03  0.57443547362E+03  0.00000000000E+00 0.  1.
          1   -1    0    0  501    0 -0.00000000000E+00 -0.00000000000E+00 -0.84871139470E+01  0.84871139470E+01  0.00000000000E+00 0. -1.
          2    1    1    2  501    0  0.21748272494E+02 -0.30888660769E+01  0.55963618582E+03  0.56006712894E+03  0.00000000000E+00 0.  1.
          1    1    1    2  502    0 -0.21748272494E+02  0.30888660769E+01  0.63121738597E+01  0.22855458625E+02  0.00000000000E+00 0. -1.
</event>
<event>
 4    1  0.3767413E+003  0.2230172E+02  0.7546771E-02  0.1501458E+00
          2   -1    0    0  502    0  0.00000000000E+00  0.00000000000E+00  0.77415483665E+03  0.77415483665E+03  0.00000000000E+00 0. -1.
          1   -1    0    0  501    0 -0.00000000000E+00 -0.00000000000E+00 -0.80791820254E+01  0.80791820254E+01  0.00000000000E+00 0. -1.
          2    1    1    2  501    0  0.46419441316E+01  0.21813275446E+02  0.75828174690E+03  0.75860963236E+03  0.00000000000E+00 0. -1.
          1    1    1    2  502    0 -0.46419441316E+01 -0.21813275446E+02  0.77939077223E+01  0.23624386311E+02  0.00000000000E+00 0. -1.
</event>
<event>
 4    1  0.3767413E+003  0.2110545E+02  0.7546771E-02  0.1517764E+00
          2   -1    0    0  502    0  0.00000000000E+00  0.00000000000E+00  0.15111684851E+03  0.15111684851E+03  0.00000000000E+00 0.  1.
          1   -1    0    0  501    0 -0.00000000000E+00 -0.00000000000E+00 -0.37125692380E+01  0.37125692380E+01  0.00000000000E+00 0.  1.
          2    1    1    2  501    0  0.21061691844E+02  0.13584275258E+01  0.10884141892E+03  0.11086881735E+03  0.00000000000E+00 0.  1.
          1    1    1    2  502    0 -0.21061691844E+02 -0.13584275258E+01  0.38562860358E+02  0.43960600402E+02  0.00000000000E+00 0.  1.
</event>
<event>
 4    1  0.3767413E+003  0.4105670E+02  0.7546771E-02  0.1342402E+00
          2   -1    0    0  502    0  0.00000000000E+00  0.00000000000E+00  0.63598303101E+01  0.63598303101E+01  0.00000000000E+00 0.  1.
          1   -1    0    0  501    0 -0.00000000000E+00 -0.00000000000E+00 -0.21379395157E+04  0.21379395157E+04  0.00000000000E+00 0.  1.
          2    1    1    2  501    0 -0.16988966782E+02 -0.37376831903E+02 -0.62297269501E+02  0.74609666550E+02  0.00000000000E+00 0.  1.
          1    1    1    2  502    0  0.16988966782E+02  0.37376831903E+02 -0.20692824159E+04  0.20696896794E+04  0.00000000000E+00 0.  1.
</event>
<event>
 4    1  0.3767413E+003  0.2512712E+02  0.7546771E-02  0.1467386E+00
          2   -1    0    0  502    0  0.00000000000E+00  0.00000000000E+00  0.55081170342E+03  0.55081170342E+03  0.00000000000E+00 0.  1.
          1   -1    0    0  501    0 -0.00000000000E+00 -0.00000000000E+00 -0.18957536665E+02  0.18957536665E+02  0.00000000000E+00 0. -1.
          2    1    1    2  501    0 -0.14393977764E+02 -0.20595769410E+02  0.54206471830E+03  0.54264678304E+03  0.00000000000E+00 0.  1.
          1    1    1    2  502    0  0.14393977764E+02  0.20595769410E+02 -0.10210551546E+02  0.27122457048E+02  0.00000000000E+00 0. -1.
</event>
<event>
 4    1  0.3767413E+003  0.2065314E+02  0.7546771E-02  0.1524275E+00
          2   -1    0    0  502    0  0.00000000000E+00  0.00000000000E+00  0.37148326388E+03  0.37148326388E+03  0.00000000000E+00 0.  1.
          1   -1    0    0  501    0 -0.00000000000E+00 -0.00000000000E+00 -0.16112376748E+02  0.16112376748E+02  0.00000000000E+00 0.  1.
          2    1    1    2  501    0  0.20533921834E+02 -0.22159251138E+01  0.36445019122E+03  0.36503492183E+03  0.00000000000E+00 0.  1.
          1    1    1    2  502    0 -0.20533921834E+02  0.22159251138E+01 -0.90793040921E+01  0.22560718800E+02  0.00000000000E+00 0.  1.
</event>
<event>
 4    1  0.3767413E+003  0.2150037E+02  0.7546771E-02  0.1512239E+00
          2   -1    0    0  502    0  0.00000000000E+00  0.00000000000E+00  0.49167496500E+02  0.49167496500E+02  0.00000000000E+00 0. -1.
          1   -1    0    0  501    0 -0.00000000000E+00 -0.00000000000E+00 -0.14619191399E+02  0.14619191399E+02  0.00000000000E+00 0. -1.
          2    1    1    2  501    0  0.97231671628E+01 -0.19176178637E+02  0.36327122693E+02  0.42212861191E+02  0.00000000000E+00 0. -1.
          1    1    1    2  502    0 -0.97231671628E+01  0.19176178637E+02 -0.17788175929E+01  0.21573826708E+02  0.00000000000E+00 0. -1.
</event>
<event>
 4    1  0.3767413E+003  0.2228940E+02  0.7546771E-02  0.1501619E+00
          2   -1    0    0  502    0  0.00000000000E+00  0.00000000000E+00  0.50265774653E+01  0.50265774653E+01  0.00000000000E+00 0.  1.
          1   -1    0    0  501    0 -0.00000000000E+00 -0.00000000000E+00 -0.77224729094E+03  0.77224729094E+03  0.00000000000E+00 0.  1.
          2    1    1    2  501    0  0.21657567393E+02 -0.52694448215E+01 -0.20694954288E+02  0.30415430411E+02  0.00000000000E+00 0.  1.
          1    1    1    2  502    0 -0.21657567393E+02  0.52694448215E+01 -0.74652575919E+03  0.74685843800E+03  0.00000000000E+00 0.  1.
</event>
<event>
 4    1  0.3767413E+003  0.2282621E+02  0.7546771E-02  0.1494692E+00
          2   -1    0    0  502    0  0.00000000000E+00  0.00000000000E+00  0.40301204668E+02  0.40301204668E+02  0.00000000000E+00 0.  1.
          1   -1    0    0  501    0 -0.00000000000E+00 -0.00000000000E+00 -0.36336347492E+03  0.36336347492E+03  0.00000000000E+00 0. -1.
          2    1    1    2  501    0 -0.20348324885E+02 -0.10343197013E+02  0.36678066531E+02  0.43200886733E+02  0.00000000000E+00 0.  1.
          1    1    1    2  502    0  0.20348324885E+02  0.10343197013E+02 -0.35974033679E+03  0.36046379286E+03  0.00000000000E+00 0. -1.
</event>
<event>
 4    1  0.3767413E+003  0.2742775E+02  0.7546771E-02  0.1443358E+00
          2   -1    0    0  502    0  0.00000000000E+00  0.00000000000E+00  0.77368245080E+03  0.77368245080E+03  0.00000000000E+00 0.  1.
          1   -1    0    0  501    0 -0.00000000000E+00 -0.00000000000E+00 -0.30091657064E+02  0.30091657064E+02  0.00000000000E+00 0. -1.
          2    1    1    2  501    0 -0.23797503391E+02 -0.13636723905E+02  0.76713613305E+03  0.76762629452E+03  0.00000000000E+00 0.  1.
          1    1    1    2  502    0  0.23797503391E+02  0.13636723905E+02 -0.23545339311E+02  0.36147813347E+02  0.00000000000E+00 0. -1.
</event>
<event>
 4    1  0.3767413E+003  0.3367536E+02  0.7546771E-02  0.1390123E+00
          2   -1    0    0  502    0  0.00000000000E+00  0.00000000000E+00  0.55126840235E+01  0.55126840235E+01  0.00000000000E+00 0.  1.
          1   -1    0    0  501    0 -0.00000000000E+00 -0.00000000000E+00 -0.17926346837E+04  0.17926346837E+04  0.00000000000E+00 0.  1.
          2    1    1    2  501    0 -0.24191331174E+02  0.23426687384E+02 -0.47645173776E+02  0.58344603606E+02  0.00000000000E+00 0.  1.
          1    1    1    2  502    0  0.24191331174E+02 -0.23426687384E+02 -0.17394768259E+04  0.17398027641E+04  0.00000000000E+00 0.  1.
</event>
<event>
 4    1  0.3767413E+003  0.3571457E+02  0.7546771E-02  0.1375608E+00
          2   -1    0    0  502    0  0.00000000000E+00  0.00000000000E+00  0.68033511841E+02  0.68033511841E+02  0.00000000000E+00 0.  1.
          1   -1    0    0  501    0 -0.00000000000E+00 -0.00000000000E+00 -0.10975559317E+03  0.10975559317E+03  0.00000000000E+00 0. -1.
          2    1    1    2  501    0  0.11132076611E+02 -0.33935337732E+02  0.60085687478E+02  0.69898641735E+02  0.00000000000E+00 0.  1.
          1    1    1    2  502    0 -0.11132076611E+02  0.33935337732E+02 -0.10180776881E+03  0.10789046328E+03  0.00000000000E+00 0. -1.
</event>
<event>
 4    1  0.3767413E+003  0.2686298E+02  0.7546771E-02  0.1448989E+00
          2   -1    0    0  502    0  0.00000000000E+00  0.00000000000E+00  0.71901457206E+01  0.71901457206E+01  0.00000000000E+00 0. -1.
          1   -1    0    0  501    0 -0.00000000000E+00 -0.00000000000E+00 -0.63213591069E+03  0.63213591069E+03  0.00000000000E+00 0. -1.
          2    1    1    2  501    0  0.21286676920E+02  0.16385873732E+02 -0.19281923610E+02  0.33066781676E+02  0.00000000000E+00 0. -1.
          1    1    1    2  502    0 -0.21286676920E+02 -0.16385873732E+02 -0.60566384136E+03  0.60625927473E+03  0.00000000000E+00 0. -1.
</event>
<event>
 4    1  0.3767413E+003  0.3171401E+02  0.7546771E-02  0.1405264E+00
          2   -1    0    0  502    0  0.00000000000E+00  0.00000000000E+00  0.13464676526E+04  0.13464676526E+04  0.00000000000E+00 0. -1.
          1   -1    0    0  501    0 -0.00000000000E+00 -0.00000000000E+00 -0.10239101743E+02  0.10239101743E+02  0.00000000000E+00 0. -1.
          2    1    1    2  501    0 -0.31107183270E+02  0.61742759356E+01  0.13212550724E+04  0.13216356324E+04  0.00000000000E+00 0. -1.
          1    1    1    2  502    0  0.31107183270E+02 -0.61742759356E+01  0.14973478414E+02  0.35071121883E+02  0.00000000000E+00 0. -1.
</event>
<event>
 4    1  0.3767413E+003  0.2212318E+02  0.7546771E-02  0.1503812E+00
          2   -1    0    0  502    0  0.00000000000E+00  0.00000000000E+00  0.13542747685E+03  0.13542747685E+03  0.00000000000E+00 0. -1.
          1   -1    0    0  501    0 -0.00000000000E+00 -0.00000000000E+00 -0.65956164622E+01  0.65956164622E+01  0.00000000000E+00 0.  1.
          2    1    1    2  501    0 -0.14703253781E+01  0.22074263947E+02  0.11216084456E+03  0.11432187034E+03  0.00000000000E+00 0. -1.
          1    1    1    2  502    0  0.14703253781E+01 -0.22074263947E+02  0.16671015831E+02  0.27701222976E+02  0.00000000000E+00 0.  1.
</event>
<event>
 4    1  0.3767413E+003  0.2158121E+02  0.7546771E-02  0.1511126E+00
          2   -1    0    0  502    0  0.00000000000E+00  0.00000000000E+00  0.66928707808E+03  0.66928707808E+03  0.00000000000E+00 0.  1.
          1   -1    0    0  501    0 -0.00000000000E+00 -0.00000000000E+00 -0.38274597664E+01  0.38274597664E+01  0.00000000000E+00 0.  1.
          2    1    1    2  501    0 -0.24465555854E+01 -0.21442084558E+02  0.63715799889E+03  0.63752338324E+03  0.00000000000E+00 0.  1.
          1    1    1    2  502    0  0.24465555854E+01  0.21442084558E+02  0.28301619423E+02  0.35591154609E+02  0.00000000000E+00 0.  1.
</event>
<event>
 4    1  0.3767413E+003  0.2438333E+02  0.7546771E-02  0.1475822E+00
          2   -1    0    0  502    0  0.00000000000E+00  0.00000000000E+00  0.40751663836E+02  0.40751663836E+02  0.00000000000E+00 0. -1.
          1   -1    0    0  501    0 -0.00000000000E+00 -0.00000000000E+00 -0.18872676646E+02  0.18872676646E+02  0.00000000000E+00 0.  1.
          2    1    1    2  501    0 -0.12353323485E+02  0.21022420230E+02  0.25141816930E+02  0.35023673593E+02  0.00000000000E+00 0. -1.
          1    1    1    2  502    0  0.12353323485E+02 -0.21022420230E+02 -0.32628297397E+01  0.24600666888E+02  0.00000000000E+00 0.  1.
</event>
<event>
 4    1  0.3767413E+003  0.2668544E+02  0.7546771E-02  0.1450794E+00
          2   -1    0    0  502    0  0.00000000000E+00  0.00000000000E+00  0.97283417121E+02  0.97283417121E+02  0.00000000000E+00 0. -1.
          1   -1    0    0  501    0 -0.00000000000E+00 -0.00000000000E+00 -0.44504312426E+02  0.44504312426E+02  0.00000000000E+00 0. -1.
          2    1    1    2  501    0  0.23567429626E+02  0.12517551125E+02  0.91191429972E+02  0.95015734095E+02  0.00000000000E+00 0. -1.
          1    1    1    2  502    0 -0.23567429626E+02 -0.12517551125E+02 -0.38412325276E+02  0.46771995451E+02  0.00000000000E+00 0. -1.
</event>
<event>
 4    1  0.3767413E+003  0.3220202E+02  0.7546771E-02  0.1401379E+00
          2   -1    0    0  502    0  0.00000000000E+00  0.00000000000E+00  0.13553069700E+04  0.13553069700E+04  0.00000000000E+00 0.  1.
          1   -1    0    0  501    0 -0.00000000000E+00 -0.00000000000E+00 -0.13981297037E+03  0.13981297037E+03  0.00000000000E+00 0. -1.
          2    1    1    2  501    0 -0.29257369364E+02  0.13452741969E+02  0.13532586753E+04  0.13536417591E+04  0.00000000000E+00 0.  1.
          1    1    1    2  502    0  0.29257369364E+02 -0.13452741969E+02 -0.13776467560E+03  0.14147818126E+03  0.00000000000E+00 0. -1.
</event>
<event>
 4    1  0.3767413E+003  0.2070489E+02  0.7546771E-02  0.1523520E+00
          2   -1    0    0  502    0  0.00000000000E+00  0.00000000000E+00  0.41386371860E+00  0.41386371860E+00  0.00000000000E+00 0. -1.
          1   -1    0    0  501    0 -0.00000000000E+00 -0.00000000000E+00 -0.11812252895E+04  0.11812252895E+04  0.00000000000E+00 0. -1.
          2    1    1    2  501    0  0.17231300104E+02  0.11479318845E+02 -0.38312273199E+03  0.38368179554E+03  0.00000000000E+00 0. -1.
          1    1    1    2  502    0 -0.17231300104E+02 -0.11479318845E+02 -0.79768869384E+03  0.79795735772E+03  0.00000000000E+00 0. -1.
</event>
<event>
 4    1  0.3767413E+003  0.2244245E+02  0.7546771E-02  0.1499621E+00
          2   -1    0    0  502    0  0.00000000000E+00  0.00000000000E+00  0.71298584192E+02  0.71298584192E+02  0.00000000000E+00 0.  1.
          1   -1    0    0  501    0 -0.00000000000E+00 -0.00000000000E+00 -0.10522311884E+02  0.10522311884E+02  0.00000000000E+00 0.  1.
          2    1    1    2  501    0  0.77322672386E+00 -0.22429125037E+02  0.53841310450E+02  0.58331382981E+02  0.00000000000E+00 0.  1.
          1    1    1    2  502    0 -0.77322672386E+00  0.22429125037E+02  0.69349618576E+01  0.23489513095E+02  0.00000000000E+00 0.  1.
</event>
<event>
 4    1  0.3767413E+003  0.2259375E+02  0.7546771E-02  0.1497663E+00
          2   -1    0    0  502    0  0.00000000000E+00  0.00000000000E+00  0.77189329480E+00  0.77189329480E+00  0.00000000000E+00 0.  1.
          1   -1    0    0  501    0 -0.00000000000E+00 -0.00000000000E+00 -0.84389228678E+03  0.84389228678E+03  0.00000000000E+00 0.  1.
          2    1    1    2  501    0  0.12914580811E+02  0.18538911008E+02 -0.22512744128E+03  0.22625835330E+03  0.00000000000E+00 0.  1.
          1    1    1    2  502    0 -0.12914580811E+02 -0.18538911008E+02 -0.61799295221E+03  0.61840582678E+03  0.00000000000E+00 0.  1.
</event>
<event>
 4    1  0.3767413E+003  0.3489460E+02  0.7546771E-02  0.1381306E+00
          2   -1    0    0  502    0  0.00000000000E+00  0.00000000000E+00  0.71619709572E+03  0.71619709572E+03  0.00000000000E+00 0. -1.
          1   -1    0    0  501    0 -0.00000000000E+00 -0.00000000000E+00 -0.72144646552E+01  0.72144646552E+01  0.00000000000E+00 0.  1.
          2    1    1    2  501    0 -0.30644264615E+01 -0.34759776836E+02  0.67071886247E+03  0.67162595637E+03  0.00000000000E+00 0. -1.
          1    1    1    2  502    0  0.30644264615E+01  0.34759776836E+02  0.38263768594E+02  0.51785604006E+02  0.00000000000E+00 0.  1.
</event>
<event>
 4    1  0.3767413E+003  0.2449380E+02  0.7546771E-02  0.1474547E+00
          2   -1    0    0  502    0  0.00000000000E+00  0.00000000000E+00  0.18451440532E+04  0.18451440532E+04  0.00000000000E+00 0. -1.
          1   -1    0    0  501    0 -0.00000000000E+00 -0.00000000000E+00 -0.41806041103E+00  0.41806041103E+00  0.00000000000E+00 0.  1.
          2    1    1    2  501    0 -0.14651307014E+01  0.24449942143E+02  0.13573880466E+04  0.13576090215E+04  0.00000000000E+00 0. -1.
          1    1    1    2  502    0  0.14651307014E+01 -0.24449942143E+02  0.48733794619E+03  0.48795309208E+03  0.00000000000E+00 0.  1.
</event>
<event>
 4    1  0.3767413E+003  0.2058108E+02  0.7546771E-02  0.1525331E+00
          2   -1    0    0  502    0  0.00000000000E+00  0.00000000000E+00  0.94504766214E+02  0.94504766214E+02  0.00000000000E+00 0.  1.
          1   -1    0    0  501    0 -0.00000000000E+00 -0.00000000000E+00 -0.10648997063E+03  0.10648997063E+03  0.00000000000E+00 0.  1.
          2    1    1    2  501    0  0.19336765021E+02  0.70477139084E+01  0.92367088819E+02  0.94632234729E+02  0.00000000000E+00 0.  1.
          1    1    1    2  502    0 -0.19336765021E+02 -0.70477139084E+01 -0.10435229324E+03  0.10636250212E+03  0.00000000000E+00 0.  1.
</event>
<event>
 4    1  0.3767413E+003  0.4438334E+02  0.7546771E-02  0.1324552E+00
          2   -1    0    0  502    0  0.00000000000E+00  0.00000000000E+00  0.18296994068E+04  0.18296994068E+04  0.00000000000E+00 0.  1.
          1   -1    0    0  501    0 -0.00000000000E+00 -0.00000000000E+00 -0.11995411492E+03  0.11995411492E+03  0.00000000000E+00 0. -1.
          2    1    1    2  501    0  0.22546908542E+02  0.38229807896E+02  0.18253149038E+04  0.18258544245E+04  0.00000000000E+00 0.  1.
          1    1    1    2  502    0 -0.22546908542E+02 -0.38229807896E+02 -0.11556961189E+03  0.12379909729E+03  0.00000000000E+00 0. -1.
</event>
<event>
 4    1  0.3767413E+003  0.2591236E+02  0.7546771E-02  0.1458850E+00
          2   -1    0    0  502    0  0.00000000000E+00  0.00000000000E+00  0.18014211203E+03  0.18014211203E+03  0.00000000000E+00 0.  1.
          1   -1    0    0  501    0 -0.00000000000E+00 -0.00000000000E+00 -0.81156522621E+01  0.81156522621E+01  0.00000000000E+00 0. -1.
          2    1    1    2  501    0 -0.25529375474E+02  0.44386401946E+01  0.15522979553E+03  0.15737769842E+03  0.00000000000E+00 0.  1.
          1    1    1    2  502    0  0.25529375474E+02 -0.44386401946E+01  0.16796664237E+02  0.30880065874E+02  0.00000000000E+00 0. -1.
</event>
<event>
 4    1  0.3767413E+003  0.3973865E+02  0.7546771E-02  0.1350024E+00
          2   -1    0    0  502    0  0.00000000000E+00  0.00000000000E+00  0.21266834340E+04  0.21266834340E+04  0.00000000000E+00 0.  1.
          1   -1    0    0  501    0 -0.00000000000E+00 -0.00000000000E+00 -0.44481562429E+01  0.44481562429E+01  0.00000000000E+00 0. -1.
          2    1    1    2  501    0 -0.12336961044E+02  0.37775121694E+02  0.20336859596E+04  0.20340741734E+04  0.00000000000E+00 0.  1.
          1    1    1    2  502    0  0.12336961044E+02 -0.37775121694E+02  0.88549318130E+02  0.97057416863E+02  0.00000000000E+00 0. -1.
</event>
<event>
 4    1  0.3767413E+003  0.2480732E+02  0.7546771E-02  0.1470971E+00
          2   -1    0    0  502    0  0.00000000000E+00  0.00000000000E+00  0.92364294272E+03  0.92364294272E+03  0.00000000000E+00 0. -1.
          1   -1    0    0  501    0 -0.00000000000E+00 -0.00000000000E+00 -0.75589759470E+01  0.75589759470E+01  0.00000000000E+00 0.  1.
          2    1    1    2  501    0 -0.16569996582E+02 -0.18461803581E+02  0.90264971242E+03  0.90299053500E+03  0.00000000000E+00 0. -1.
          1    1    1    2  502    0  0.16569996582E+02  0.18461803581E+02  0.13434254357E+02  0.28211383665E+02  0.00000000000E+00 0.  1.
</event>
<event>
 4    1  0.3767413E+003  0.3272279E+02  0.7546771E-02  0.1397321E+00
          2   -1    0    0  502    0  0.00000000000E+00  0.00000000000E+00  0.13024326026E+04  0.13024326026E+04  0.00000000000E+00 0. -1.
          1   -1    0    0  501    0 -0.00000000000E+00 -0.00000000000E+00 -0.19727601765E+03  0.19727601765E+03  0.00000000000E+00 0.  1.
          2    1    1    2  501    0 -0.14189368749E+02  0.29486312332E+02  0.13008684788E+04  0.13012799776E+04  0.00000000000E+00 0. -1.
          1    1    1    2  502    0  0.14189368749E+02 -0.29486312332E+02 -0.19571189392E+03  0.19842864265E+03  0.00000000000E+00 0.  1.
</event>
<event>
 4    1  0.3767413E+003  0.3057101E+02  0.7546771E-02  0.1414698E+00
          2   -1    0    0  502    0  0.00000000000E+00  0.00000000000E+00  0.12305136411E+03  0.12305136411E+03  0.00000000000E+00 0.  1.
          1   -1    0    0  501    0 -0.00000000000E+00 -0.00000000000E+00 -0.32778034176E+02  0.32778034176E+02  0.00000000000E+00 0. -1.
          2    1    1    2  501    0 -0.30562763073E+02 -0.71009959305E+00  0.11343044628E+03  0.11747788247E+03  0.00000000000E+00 0.  1.
          1    1    1    2  502    0  0.30562763073E+02  0.71009959305E+00 -0.23157116340E+02  0.38351515815E+02  0.00000000000E+00 0. -1.
</event>
<event>
 4    1  0.3767413E+003  0.3972225E+02  0.7546771E-02  0.1350121E+00
          2   -1    0    0  502    0  0.00000000000E+00  0.00000000000E+00  0.52766339493E+02  0.52766339493E+02  0.00000000000E+00 0.  1.
          1   -1    0    0  501    0 -0.00000000000E+00 -0.00000000000E+00 -0.67465133883E+02  0.67465133883E+02  0.00000000000E+00 0.  1.
          2    1    1    2  501    0 -0.11651637974E+02  0.37974949351E+02  0.37507082403E+02  0.54631846720E+02  0.00000000000E+00 0.  1.
          1    1    1    2  502    0  0.11651637974E+02 -0.37974949351E+02 -0.52205876792E+02  0.65599626656E+02  0.00000000000E+00 0.  1.
</event>
<event>
 4    1  0.3767413E+003  0.2864310E+02  0.7546771E-02  0.1431766E+00
          2   -1    0    0  502    0  0.00000000000E+00  0.00000000000E+00  0.41515257329E+03  0.41515257329E+03  0.00000000000E+00 0.  1.
          1   -1    0    0  501    0 -0.00000000000E+00 -0.00000000000E+00 -0.74463707012E+02  0.74463707012E+02  0.00000000000E+00 0.  1.
          2    1    1    2  501    0  0.17967355162E+02 -0.22306984283E+02  0.41188222361E+03  0.41287697142E+03  0.00000000000E+00 0.  1.
          1    1    1    2  502    0 -0.17967355162E+02  0.22306984283E+02 -0.71193357334E+02  0.76739308883E+02  0.00000000000E+00 0.  1.
</event>
<event>
 4    1  0.3767413E+003  0.6353173E+02  0.7546771E-02  0.1248283E+00
          2   -1    0    0  502    0  0.00000000000E+00  0.00000000000E+00  0.41642313998E+03  0.41642313998E+03  0.00000000000E+00 0. -1.
          1   -1    0    0  501    0 -0.00000000000E+00 -0.00000000000E+00 -0.39461873547E+03  0.39461873547E+03  0.00000000000E+00 0. -1.
          2    1    1    2  501    0  0.60749138686E+02  0.18596328355E+02  0.41141191528E+03  0.41628841602E+03  0.00000000000E+00 0. -1.
          1    1    1    2  502    0 -0.60749138686E+02 -0.18596328355E+02 -0.38960751077E+03  0.39475345942E+03  0.00000000000E+00 0. -1.
</event>
<event>
 4    1  0.3767413E+003  0.2920092E+02  0.7546771E-02  0.1426670E+00
          2   -1    0    0  502    0  0.00000000000E+00  0.00000000000E+00  0.29589630705E+01  0.29589630705E+01  0.00000000000E+00 0. -1.
          1   -1    0    0  501    0 -0.00000000000E+00 -0.00000000000E+00 -0.21816311839E+04  0.21816311839E+04  0.00000000000E+00 0.  1.
          2    1    1    2  501    0  0.19360767977E+02  0.21859885908E+02 -0.71736009857E+02  0.77451591712E+02  0.00000000000E+00 0. -1.
          1    1    1    2  502    0 -0.19360767977E+02 -0.21859885908E+02 -0.21069362109E+04  0.21071385552E+04  0.00000000000E+00 0.  1.
</event>
<event>
 4    1  0.3767413E+003  0.2023981E+02  0.7546771E-02  0.1530401E+00
          2   -1    0    0  502    0  0.00000000000E+00  0.00000000000E+00  0.23828461691E+03  0.23828461691E+03  0.00000000000E+00 0. -1.
          1   -1    0    0  501    0 -0.00000000000E+00 -0.00000000000E+00 -0.61252353073E+01  0.61252353073E+01  0.00000000000E+00 0. -1.
          2    1    1    2  501    0  0.20070116495E+02 -0.26154218195E+01  0.21972583557E+03  0.22065605096E+03  0.00000000000E+00 0. -1.
          1    1    1    2  502    0 -0.20070116495E+02  0.26154218195E+01  0.12433546036E+02  0.23753801263E+02  0.00000000000E+00 0. -1.
</event>
<event>
 4    1  0.3767413E+003  0.2033282E+02  0.7546771E-02  0.1529007E+00
          2   -1    0    0  502    0  0.00000000000E+00  0.00000000000E+00  0.35548822069E+03  0.35548822069E+03  0.00000000000E+00 0.  1.
          1   -1    0    0  501    0 -0.00000000000E+00 -0.00000000000E+00 -0.44137059042E+02  0.44137059042E+02  0.00000000000E+00 0. -1.
          2    1    1    2  501    0 -0.11165452240E+02  0.16992827636E+02  0.35283820136E+03  0.35342357004E+03  0.00000000000E+00 0.  1.
          1    1    1    2  502    0  0.11165452240E+02 -0.16992827636E+02 -0.41487039714E+02  0.46201709698E+02  0.00000000000E+00 0. -1.
</event>
<event>
 4    1  0.3767413E+003  0.2744476E+02  0.7546771E-02  0.1443191E+00
          2   -1    0    0  502    0  0.00000000000E+00  0.00000000000E+00  0.46914438091E+03  0.46914438091E+03  0.00000000000E+00 0. -1.
          1   -1    0    0  501    0 -0.00000000000E+00 -0.00000000000E+00 -0.13962932522E+02  0.13962932522E+02  0.00000000000E+00 0. -1.
          2    1    1    2  501    0  0.26599262992E+02  0.67597561448E+01  0.45483307771E+03  0.45566033806E+03  0.00000000000E+00 0. -1.
          1    1    1    2  502    0 -0.26599262992E+02 -0.67597561448E+01  0.34837066897E+00  0.27446975370E+02  0.00000000000E+00 0. -1.
</event>
<event>
 4    1  0.3767413E+003  0.3152298E+02  0.7546771E-02  0.1406808E+00
          2   -1    0    0  502    0  0.00000000000E+00  0.00000000000E+00  0.42261071394E+03  0.42261071394E+03  0.00000000000E+00 0.  1.
          1   -1    0    0  501    0 -0.00000000000E+00 -0.00000000000E+00 -0.26939277164E+01  0.26939277164E+01  0.00000000000E+00 0.  1.
          2    1    1    2  501    0  0.25168809731E+01 -0.31422344629E+02  0.28579303096E+03  0.28752626832E+03  0.00000000000E+00 0.  1.
          1    1    1    2  502    0 -0.25168809731E+01  0.31422344629E+02  0.13412375527E+03  0.13777837334E+03  0.00000000000E+00 0.  1.
</event>
<event>
 4    1  0.3767413E+003  0.2028835E+02  0.7546771E-02  0.1529673E+00
          2   -1    0    0  502    0  0.00000000000E+00  0.00000000000E+00  0.14646133528E+03  0.14646133528E+03  0.00000000000E+00 0.  1.
          1   -1    0    0  501    0 -0.00000000000E+00 -0.00000000000E+00 -0.75176385382E+03  0.75176385382E+03  0.00000000000E+00 0. -1.
          2    1    1    2  501    0  0.51140546609E+01 -0.19633222635E+02  0.14562106198E+03  0.14702758476E+03  0.00000000000E+00 0.  1.
          1    1    1    2  502    0 -0.51140546609E+01  0.19633222635E+02 -0.75092358052E+03  0.75119760434E+03  0.00000000000E+00 0. -1.
</event>
<event>
 4    1  0.3767413E+003  0.2302136E+02  0.7546771E-02  0.1492230E+00
          2   -1    0    0  502    0  0.00000000000E+00  0.00000000000E+00  0.82331283564E+03  0.82331283564E+03  0.00000000000E+00 0.  1.
          1   -1    0    0  501    0 -0.00000000000E+00 -0.00000000000E+00 -0.71028537269E+01  0.71028537269E+01  0.00000000000E+00 0. -1.
          2    1    1    2  501    0  0.22828751879E+02  0.29717059524E+01  0.80405125752E+03  0.80438076038E+03  0.00000000000E+00 0.  1.
          1    1    1    2  502    0 -0.22828751879E+02 -0.29717059524E+01  0.12158724396E+02  0.26034928990E+02  0.00000000000E+00 0. -1.
</event>
<event>
 4    1  0.3767413E+003  0.2540103E+02  0.7546771E-02  0.1464367E+00
          2   -1    0    0  502    0  0.00000000000E+00  0.00000000000E+00  0.23897262849E+03  0.23897262849E+03  0.00000000000E+00 0.  1.
          1   -1    0    0  501    0 -0.00000000000E+00 -0.00000000000E+00 -0.53042886355E+01  0.53042886355E+01  0.00000000000E+00 0.  1.
          2    1    1    2  501    0  0.20094894223E+02  0.15537299630E+02  0.20241730248E+03  0.20400484503E+03  0.00000000000E+00 0.  1.
          1    1    1    2  502    0 -0.20094894223E+02 -0.15537299630E+02  0.31251037373E+02  0.40272072092E+02  0.00000000000E+00 0.  1.
</event>
<event>
 4    1  0.3767413E+003  0.2031542E+02  0.7546771E-02  0.1529267E+00
          2   -1    0    0  502    0  0.00000000000E+00  0.00000000000E+00  0.18474802806E+04  0.18474802806E+04  0.00000000000E+00 0.  1.
          1   -1    0    0  501    0 -0.00000000000E+00 -0.00000000000E+00 -0.24538309703E+00  0.24538309703E+00  0.00000000000E+00 0.  1.
          2    1    1    2  501    0  0.19585743484E+02  0.53957996527E+01  0.64705773659E+03  0.64737657548E+03  0.00000000000E+00 0.  1.
          1    1    1    2  502    0 -0.19585743484E+02 -0.53957996527E+01  0.12001771609E+04  0.12003490882E+04  0.00000000000E+00 0.  1.
</event>
<event>
 4    1  0.3767413E+003  0.2178655E+02  0.7546771E-02  0.1508325E+00
          2   -1    0    0  502    0  0.00000000000E+00  0.00000000000E+00  0.76882845074E+01  0.76882845074E+01  0.00000000000E+00 0.  1.
          1   -1    0    0  501    0 -0.00000000000E+00 -0.00000000000E+00 -0.73657563893E+02  0.73657563893E+02  0.00000000000E+00 0.  1.
          2    1    1    2  501    0 -0.18991397786E+02 -0.10676174813E+02 -0.16622514002E+02  0.27403683516E+02  0.00000000000E+00 0.  1.
          1    1    1    2  502    0  0.18991397786E+02  0.10676174813E+02 -0.49346765384E+02  0.53942164884E+02  0.00000000000E+00 0.  1.
</event>
<event>
 4    1  0.3767413E+003  0.2321506E+02  0.7546771E-02  0.1489815E+00
          2   -1    0    0  502    0  0.00000000000E+00  0.00000000000E+00  0.62573902144E+02  0.62573902144E+02  0.00000000000E+00 0. -1.
          1   -1    0    0  501    0 -0.00000000000E+00 -0.00000000000E+00 -0.32817693898E+03  0.32817693898E+03  0.00000000000E+00 0. -1.
          2    1    1    2  501    0  0.21600407420E+02 -0.85065470739E+01  0.59993091636E+02  0.64328143047E+02  0.00000000000E+00 0. -1.
          1    1    1    2  502    0 -0.21600407420E+02  0.85065470739E+01 -0.32559612847E+03  0.32642269807E+03  0.00000000000E+00 0. -1.
</event>
<event>
 4    1  0.3767413E+003  0.2355153E+02  0.7546771E-02  0.1485686E+00
          2   -1    0    0  502    0  0.00000000000E+00  0.00000000000E+00  0.30788014011E+03  0.30788014011E+03  0.00000000000E+00 0. -1.
          1   -1    0    0  501    0 -0.00000000000E+00 -0.00000000000E+00 -0.19650999819E+01  0.19650999819E+01  0.00000000000E+00 0. -1.
          2    1    1    2  501    0 -0.62759595270E+01 -0.22699932003E+02  0.19764554850E+03  0.19904380779E+03  0.00000000000E+00 0. -1.
          1    1    1    2  502    0  0.62759595270E+01  0.22699932003E+02  0.10826949163E+03  0.11080143230E+03  0.00000000000E+00 0. -1.
</event>
<event>
 4    1  0.3767413E+003  0.2038630E+02  0.7546771E-02  0.1528210E+00
          2   -1    0    0  502    0  0.00000000000E+00  0.00000000000E+00  0.32312329666E+01  0.32312329666E+01  0.00000000000E+00 0.  1.
          1   -1    0    0  501    0 -0.00000000000E+00 -0.00000000000E+00 -0.16343706108E+03  0.16343706108E+03  0.00000000000E+00 0.  1.
          2    1    1    2  501    0  0.49325249658E+01 -0.19780582760E+02 -0.41639871384E+02  0.46362486406E+02  0.00000000000E+00 0.  1.
          1    1    1    2  502    0 -0.49325249658E+01  0.19780582760E+02 -0.11856595673E+03  0.12030580764E+03  0.00000000000E+00 0.  1.
</event>
<event>
 4    1  0.3767413E+003  0.3625364E+02  0.7546771E-02  0.1371958E+00
          2   -1    0    0  502    0  0.00000000000E+00  0.00000000000E+00  0.13064025652E+03  0.13064025652E+03  0.00000000000E+00 0.  1.
          1   -1    0    0  501    0 -0.00000000000E+00 -0.00000000000E+00 -0.25472875945E+03  0.25472875945E+03  0.00000000000E+00 0. -1.
          2    1    1    2  501    0 -0.14392235047E+02  0.33274463842E+02  0.12679683393E+03  0.13187783540E+03  0.00000000000E+00 0.  1.
          1    1    1    2  502    0  0.14392235047E+02 -0.33274463842E+02 -0.25088533687E+03  0.25349118057E+03  0.00000000000E+00 0. -1.
</event>
<event>
 4    1  0.3767413E+003  0.2457458E+02  0.7546771E-02  0.1473619E+00
          2   -1    0    0  502    0  0.00000000000E+00  0.00000000000E+00  0.15469370715E+04  0.15469370715E+04  0.00000000000E+00 0.  1.
          1   -1    0    0  501    0 -0.00000000000E+00 -0.00000000000E+00 -0.50539722343E+01  0.50539722343E+01  0.00000000000E+00 0. -1.
          2    1    1    2  501    0  0.76197935316E+01 -0.23363407194E+02  0.15163641743E+04  0.15165632922E+04  0.00000000000E+00 0.  1.
          1    1    1    2  502    0 -0.76197935316E+01  0.23363407194E+02  0.25518924940E+02  0.35427751542E+02  0.00000000000E+00 0. -1.
</event>
<event>
 4    1  0.3767413E+003  0.3734280E+02  0.7546771E-02  0.1364802E+00
          2   -1    0    0  502    0  0.00000000000E+00  0.00000000000E+00  0.14715067652E+02  0.14715067652E+02  0.00000000000E+00 0.  1.
          1   -1    0    0  501    0 -0.00000000000E+00 -0.00000000000E+00 -0.75009426695E+03  0.75009426695E+03  0.00000000000E+00 0.  1.
          2    1    1    2  501    0  0.36824804012E+02 -0.61982430671E+01 -0.10256477240E+02  0.38725698612E+02  0.00000000000E+00 0.  1.
          1    1    1    2  502    0 -0.36824804012E+02  0.61982430671E+01 -0.72512272206E+03  0.72608363599E+03  0.00000000000E+00 0.  1.
</event>
<event>
 4    1  0.3767413E+003  0.2461173E+02  0.7546771E-02  0.1473194E+00
          2   -1    0    0  502    0  0.00000000000E+00  0.00000000000E+00  0.82895246902E+00  0.82895246902E+00  0.00000000000E+00 0.  1.
          1   -1    0    0  501    0 -0.00000000000E+00 -0.00000000000E+00 -0.73079903561E+03  0.73079903561E+03  0.00000000000E+00 0.  1.
          2    1    1    2  501    0  0.11258415909E+02 -0.21885723400E+02 -0.36865125389E+03  0.36947189854E+03  0.00000000000E+00 0.  1.
          1    1    1    2  502    0 -0.11258415909E+02  0.21885723400E+02 -0.36131882926E+03  0.36215608954E+03  0.00000000000E+00 0.  1.
</event>
<event>
 4    1  0.3767413E+003  0.2399341E+02  0.7546771E-02  0.1480387E+00
          2   -1    0    0  502    0  0.00000000000E+00  0.00000000000E+00  0.18363935161E+03  0.18363935161E+03  0.00000000000E+00 0.  1.
          1   -1    0    0  501    0 -0.00000000000E+00 -0.00000000000E+00 -0.18611519420E+03  0.18611519420E+03  0.00000000000E+00 0. -1.
          2    1    1    2  501    0 -0.18355704948E+02 -0.15451588510E+02  0.18207573541E+03  0.18364982144E+03  0.00000000000E+00 0.  1.
          1    1    1    2  502    0  0.18355704948E+02  0.15451588510E+02 -0.18455157800E+03  0.18610472437E+03  0.00000000000E+00 0. -1.
</event>
<event>
 4    1  0.3767413E+003  0.4399216E+02  0.7546771E-02  0.1326556E+00
          2   -1    0    0  502    0  0.00000000000E+00  0.00000000000E+00  0.12056330341E+04  0.12056330341E+04  0.00000000000E+00 0.  1.
          1   -1    0    0  501    0 -0.00000000000E+00 -0.00000000000E+00 -0.16791717362E+02  0.16791717362E+02  0.00000000000E+00 0. -1.
          2    1    1    2  501    0 -0.33331666207E+02 -0.28710804829E+02  0.11756845472E+04  0.11765073161E+04  0.00000000000E+00 0.  1.
          1    1    1    2  502    0  0.33331666207E+02  0.28710804829E+02  0.13156769530E+02  0.45917435365E+02  0.00000000000E+00 0. -1.
</event>
<event>
 4    1  0.3767413E+003  0.2219818E+02  0.7546771E-02  0.1502820E+00
          2   -1    0    0  502    0  0.00000000000E+00  0.00000000000E+00  0.29007753183E+01  0.29007753183E+01  0.00000000000E+00 0. -1.
          1   -1    0    0  501    0 -0.00000000000E+00 -0.00000000000E+00 -0.80194820571E+03  0.80194820571E+03  0.00000000000E+00 0. -1.
          2    1    1    2  501    0 -0.39062327211E+00  0.22194741077E+02 -0.42254062327E+02  0.47730125719E+02  0.00000000000E+00 0. -1.
          1    1    1    2  502    0  0.39062327211E+00 -0.22194741077E+02 -0.75679336807E+03  0.75711885531E+03  0.00000000000E+00 0. -1.
</event>
<event>
 4    1  0.3767413E+003  0.3289870E+02  0.7546771E-02  0.1395970E+00
          2   -1    0    0  502    0  0.00000000000E+00  0.00000000000E+00  0.20869874987E+03  0.20869874987E+03  0.00000000000E+00 0. -1.
          1   -1    0    0  501    0 -0.00000000000E+00 -0.00000000000E+00 -0.13619832302E+02  0.13619832302E+02  0.00000000000E+00 0.  1.
          2    1    1    2  501    0  0.23856950125E+02  0.22653257768E+02  0.18501181682E+03  0.18791406685E+03  0.00000000000E+00 0. -1.
          1    1    1    2  502    0 -0.23856950125E+02 -0.22653257768E+02  0.10067100740E+02  0.34404515315E+02  0.00000000000E+00 0.  1.
</event>
<event>
 4    1  0.3767413E+003  0.2155123E+02  0.7546771E-02  0.1511538E+00
          2   -1    0    0  502    0  0.00000000000E+00  0.00000000000E+00  0.45201693929E+03  0.45201693929E+03  0.00000000000E+00 0.  1.
          1   -1    0    0  501    0 -0.00000000000E+00 -0.00000000000E+00 -0.31034058508E+02  0.31034058508E+02  0.00000000000E+00 0.  1.
          2    1    1    2  501    0 -0.81771834328E+01  0.19939637300E+02  0.44798490646E+03  0.44850298982E+03  0.00000000000E+00 0.  1.
          1    1    1    2  502    0  0.81771834328E+01 -0.19939637300E+02 -0.27002025676E+02  0.34548007976E+02  0.00000000000E+00 0.  1.
</event>
<event>
 4    1  0.3767413E+003  0.2030074E+02  0.7546771E-02  0.1529487E+00
          2   -1    0    0  502    0  0.00000000000E+00  0.00000000000E+00  0.52453216750E+03  0.52453216750E+03  0.00000000000E+00 0.  1.
          1   -1    0    0  501    0 -0.00000000000E+00 -0.00000000000E+00 -0.86368203734E+02  0.86368203734E+02  0.00000000000E+00 0.  1.
          2    1    1    2  501    0 -0.16783050882E+02  0.11421434720E+02  0.52313965494E+03  0.52353339773E+03  0.00000000000E+00 0.  1.
          1    1    1    2  502    0  0.16783050882E+02 -0.11421434720E+02 -0.84975691176E+02  0.87366973502E+02  0.00000000000E+00 0.  1.
</event>
<event>
 4    1  0.4783831E+003  0.2066375E+02  0.7546771E-02  0.1524120E+00
          2   -1    0    0  502    0  0.00000000000E+00  0.00000000000E+00  0.13616742771E+04  0.13616742771E+04  0.00000000000E+00 0.  1.
          1   -1    0    0  501    0 -0.00000000000E+00 -0.00000000000E+00 -0.10651666803E+04  0.10651666803E+04  0.00000000000E+00 0.  1.
          2    1    1    2  501    0  0.91434281379E+01 -0.18530743732E+02  0.13614956526E+04  0.13616524530E+04  0.00000000000E+00 0.  1.
          1    1    1    2  502    0 -0.91434281379E+01  0.18530743732E+02 -0.10649880559E+04  0.10651885044E+04  0.00000000000E+00 0.  1.
</event>
<event>
 4    1  0.3767413E+003  0.2408898E+02  0.7546771E-02  0.1479258E+00
          2   -1    0    0  502    0  0.00000000000E+00  0.00000000000E+00  0.86544341024E+02  0.86544341024E+02  0.00000000000E+00 0. -1.
          1   -1    0    0  501    0 -0.00000000000E+00 -0.00000000000E+00 -0.26056954497E+02  0.26056954497E+02  0.00000000000E+00 0. -1.
          2    1    1    2  501    0 -0.15199035670E+02  0.18688721834E+02  0.78762943911E+02  0.82364314740E+02  0.00000000000E+00 0. -1.
          1    1    1    2  502    0  0.15199035670E+02 -0.18688721834E+02 -0.18275557384E+02  0.30236980782E+02  0.00000000000E+00 0. -1.
</event>
<event>
 4    1  0.3767413E+003  0.2052327E+02  0.7546771E-02  0.1526181E+00
          2   -1    0    0  502    0  0.00000000000E+00  0.00000000000E+00  0.40955131121E+01  0.40955131121E+01  0.00000000000E+00 0. -1.
          1   -1    0    0  501    0 -0.00000000000E+00 -0.00000000000E+00 -0.23415802120E+03  0.23415802120E+03  0.00000000000E+00 0.  1.
          2    1    1    2  501    0  0.14432954055E+02  0.14590904703E+02 -0.25822375386E+02  0.32984840963E+02  0.00000000000E+00 0. -1.
          1    1    1    2  502    0 -0.14432954055E+02 -0.14590904703E+02 -0.20424013271E+03  0.20526869335E+03  0.00000000000E+00 0.  1.
</event>
<event>
 4    1  0.3767413E+003  0.2074043E+02  0.7546771E-02  0.1523003E+00
          2   -1    0    0  502    0  0.00000000000E+00  0.00000000000E+00  0.86511113215E+03  0.86511113215E+03  0.00000000000E+00 0. -1.
          1   -1    0    0  501    0 -0.00000000000E+00 -0.00000000000E+00 -0.15785279945E+02  0.15785279945E+02  0.00000000000E+00 0. -1.
          2    1    1    2  501    0  0.14683311092E+02  0.14648062614E+02  0.85811855454E+03  0.85836916243E+03  0.00000000000E+00 0. -1.
          1    1    1    2  502    0 -0.14683311092E+02 -0.14648062614E+02 -0.87927023389E+01  0.22527249663E+02  0.00000000000E+00 0. -1.
</event>
<event>
 4    1  0.3767413E+003  0.2314604E+02  0.7546771E-02  0.1490672E+00
          2   -1    0    0  502    0  0.00000000000E+00  0.00000000000E+00  0.38069814677E+03  0.38069814677E+03  0.00000000000E+00 0. -1.
          1   -1    0    0  501    0 -0.00000000000E+00 -0.00000000000E+00 -0.16472146550E+01  0.16472146550E+01  0.00000000000E+00 0. -1.
          2    1    1    2  501    0  0.63785447611E+01  0.22249783530E+02  0.11655931487E+03  0.11883523293E+03  0.00000000000E+00 0. -1.
          1    1    1    2  502    0 -0.63785447611E+01 -0.22249783530E+02  0.26249161724E+03  0.26351012850E+03  0.00000000000E+00 0. -1.
</event>
<event>
 4    1  0.3767413E+003  0.5021567E+02  0.7546771E-02  0.1297240E+00
          2   -1    0    0  502    0  0.00000000000E+00  0.00000000000E+00  0.88114291500E+03  0.88114291500E+03  0.00000000000E+00 0.  1.
          1   -1    0    0  501    0 -0.00000000000E+00 -0.00000000000E+00 -0.11159370343E+04  0.11159370343E+04  0.00000000000E+00 0.  1.
          2    1    1    2  501    0 -0.24871152612E+00  0.50215058788E+02  0.87986174513E+03  0.88129354050E+03  0.00000000000E+00 0.  1.
          1    1    1    2  502    0  0.24871152612E+00 -0.50215058788E+02 -0.11146558644E+04  0.11157864088E+04  0.00000000000E+00 0.  1.
</event>
<event>
 4    1  0.3767413E+003  0.2058961E+02  0.7546771E-02  0.1525206E+00
          2   -1    0    0  502    0  0.00000000000E+00  0.00000000000E+00  0.63414615580E+02  0.63414615580E+02  0.00000000000E+00 0. -1.
          1   -1    0    0  501    0 -0.00000000000E+00 -0.00000000000E+00 -0.13304357325E+04  0.13304357325E+04  0.00000000000E+00 0.  1.
          2    1    1    2  501    0 -0.19852744007E+02 -0.54590058457E+01  0.61661478520E+02  0.65008231192E+02  0.00000000000E+00 0. -1.
          1    1    1    2  502    0  0.19852744007E+02  0.54590058457E+01 -0.13286825954E+04  0.13288421168E+04  0.00000000000E+00 0.  1.
</event>
<event>
 4    1  0.3767413E+003  0.2623956E+02  0.7546771E-02  0.1455400E+00
          2   -1    0    0  502    0  0.00000000000E+00  0.00000000000E+00  0.48432983362E+01  0.48432983362E+01  0.00000000000E+00 0. -1.
          1   -1    0    0  501    0 -0.00000000000E+00 -0.00000000000E+00 -0.14322926634E+03  0.14322926634E+03  0.00000000000E+00 0. -1.
          2    1    1    2  501    0  0.26224928635E+02  0.87560408746E+00 -0.75595919716E+02  0.80020351425E+02  0.00000000000E+00 0. -1.
          1    1    1    2  502    0 -0.26224928635E+02 -0.87560408746E+00 -0.62790048291E+02  0.68052213254E+02  0.00000000000E+00 0. -1.
</event>
<event>
 4    1  0.3767413E+003  0.2706486E+02  0.7546771E-02  0.1446958E+00
          2   -1    0    0  502    0  0.00000000000E+00  0.00000000000E+00  0.45378528694E+01  0.45378528694E+01  0.00000000000E+00 0.  1.
          1   -1    0    0  501    0 -0.00000000000E+00 -0.00000000000E+00 -0.16556396941E+03  0.16556396941E+03  0.00000000000E+00 0.  1.
          2    1    1    2  501    0 -0.15417186746E+02 -0.22244486433E+02 -0.67059785688E+02  0.72315431827E+02  0.00000000000E+00 0.  1.
          1    1    1    2  502    0  0.15417186746E+02  0.22244486433E+02 -0.93966330852E+02  0.97786390451E+02  0.00000000000E+00 0.  1.
</event>
<event>
 4    1  0.3767413E+003  0.2126717E+02  0.7546771E-02  0.1515484E+00
          2   -1    0    0  502    0  0.00000000000E+00  0.00000000000E+00  0.22787541845E+03  0.22787541845E+03  0.00000000000E+00 0.  1.
          1   -1    0    0  501    0 -0.00000000000E+00 -0.00000000000E+00 -0.60308558500E+02  0.60308558500E+02  0.00000000000E+00 0. -1.
          2    1    1    2  501    0 -0.20005652907E+02  0.72157073444E+01  0.22548446521E+03  0.22648517972E+03  0.00000000000E+00 0.  1.
          1    1    1    2  502    0  0.20005652907E+02 -0.72157073444E+01 -0.57917605260E+02  0.61698797232E+02  0.00000000000E+00 0. -1.
</event>
<event>
 4    1  0.3767413E+003  0.3555357E+02  0.7546771E-02  0.1376713E+00
          2   -1    0    0  502    0  0.00000000000E+00  0.00000000000E+00  0.68631284527E+03  0.68631284527E+03  0.00000000000E+00 0.  1.
          1   -1    0    0  501    0 -0.00000000000E+00 -0.00000000000E+00 -0.10192348858E+03  0.10192348858E+03  0.00000000000E+00 0.  1.
          2    1    1    2  501    0  0.16991976362E+02 -0.31230254551E+02  0.68273565702E+03  0.68366075902E+03  0.00000000000E+00 0.  1.
          1    1    1    2  502    0 -0.16991976362E+02  0.31230254551E+02 -0.98346300338E+02  0.10457557483E+03  0.00000000000E+00 0.  1.
</event>
<event>
 4    1  0.3767413E+003  0.3542454E+02  0.7546771E-02  0.1377603E+00
          2   -1    0    0  502    0  0.00000000000E+00  0.00000000000E+00  0.15523233805E+04  0.15523233805E+04  0.00000000000E+00 0.  1.
          1   -1    0    0  501    0 -0.00000000000E+00 -0.00000000000E+00 -0.18200996227E+03  0.18200996227E+03  0.00000000000E+00 0.  1.
          2    1    1    2  501    0 -0.35204147859E+02 -0.39453577859E+01  0.15503954710E+04  0.15508001207E+04  0.00000000000E+00 0.  1.
          1    1    1    2  502    0  0.35204147859E+02  0.39453577859E+01 -0.18008205277E+03  0.18353322207E+03  0.00000000000E+00 0.  1.
</event>
<event>
 4    1  0.3767413E+003  0.4927122E+02  0.7546771E-02  0.1301363E+00
          2   -1    0    0  502    0  0.00000000000E+00  0.00000000000E+00  0.13586834010E+04  0.13586834010E+04  0.00000000000E+00 0.  1.
          1   -1    0    0  501    0 -0.00000000000E+00 -0.00000000000E+00 -0.27289937636E+01  0.27289937636E+01  0.00000000000E+00 0.  1.
          2    1    1    2  501    0 -0.43237399222E+02  0.23625842545E+02  0.10779548617E+04  0.10790803200E+04  0.00000000000E+00 0.  1.
          1    1    1    2  502    0  0.43237399222E+02 -0.23625842545E+02  0.27799954554E+03  0.28233207477E+03  0.00000000000E+00 0.  1.
</event>
<event>
 4    1  0.3767413E+003  0.2029393E+02  0.7546771E-02  0.1529589E+00
          2   -1    0    0  502    0  0.00000000000E+00  0.00000000000E+00  0.30502616542E+03  0.30502616542E+03  0.00000000000E+00 0.  1.
          1   -1    0    0  501    0 -0.00000000000E+00 -0.00000000000E+00 -0.46596093553E+01  0.46596093553E+01  0.00000000000E+00 0. -1.
          2    1    1    2  501    0  0.53196234420E+01  0.19584308207E+02  0.28067782254E+03  0.28141052501E+03  0.00000000000E+00 0.  1.
          1    1    1    2  502    0 -0.53196234420E+01 -0.19584308207E+02  0.19688733531E+02  0.28275249770E+02  0.00000000000E+00 0. -1.
</event>
<event>
 4    1  0.3767413E+003  0.3340986E+02  0.7546771E-02  0.1392101E+00
          2   -1    0    0  502    0  0.00000000000E+00  0.00000000000E+00  0.45920401323E+02  0.45920401323E+02  0.00000000000E+00 0.  1.
          1   -1    0    0  501    0 -0.00000000000E+00 -0.00000000000E+00 -0.95369221401E+02  0.95369221401E+02  0.00000000000E+00 0. -1.
          2    1    1    2  501    0  0.25308650174E+02  0.21810341793E+02  0.36256435097E+02  0.49302615232E+02  0.00000000000E+00 0.  1.
          1    1    1    2  502    0 -0.25308650174E+02 -0.21810341793E+02 -0.85705255175E+02  0.91987007492E+02  0.00000000000E+00 0. -1.
</event>
<event>
 4    1  0.3767413E+003  0.2609923E+02  0.7546771E-02  0.1456873E+00
          2   -1    0    0  502    0  0.00000000000E+00  0.00000000000E+00  0.27171645281E+03  0.27171645281E+03  0.00000000000E+00 0. -1.
          1   -1    0    0  501    0 -0.00000000000E+00 -0.00000000000E+00 -0.88204782882E+01  0.88204782882E+01  0.00000000000E+00 0. -1.
          2    1    1    2  501    0 -0.14370094204E+02 -0.21786924986E+02  0.25012081506E+03  0.25147880991E+03  0.00000000000E+00 0. -1.
          1    1    1    2  502    0  0.14370094204E+02  0.21786924986E+02  0.12775159465E+02  0.29058121191E+02  0.00000000000E+00 0. -1.
</event>
<event>
 4    1  0.3767413E+003  0.2279279E+02  0.7546771E-02  0.1495117E+00
          2   -1    0    0  502    0  0.00000000000E+00  0.00000000000E+00  0.63616458410E+01  0.63616458410E+01  0.00000000000E+00 0. -1.
          1   -1    0    0  501    0 -0.00000000000E+00 -0.00000000000E+00 -0.70655551491E+03  0.70655551491E+03  0.00000000000E+00 0. -1.
          2    1    1    2  501    0  0.20551485142E+02 -0.98563549075E+01 -0.14870252287E+02  0.27214622479E+02  0.00000000000E+00 0. -1.
          1    1    1    2  502    0 -0.20551485142E+02  0.98563549075E+01 -0.68532361679E+03  0.68570253828E+03  0.00000000000E+00 0. -1.
</event>
<event>
 4    1  0.3767413E+003  0.3932272E+02  0.7546771E-02  0.1352501E+00
          2   -1    0    0  502    0  0.00000000000E+00  0.00000000000E+00  0.75316324937E+03  0.75316324937E+03  0.00000000000E+00 0.  1.
          1   -1    0    0  501    0 -0.00000000000E+00 -0.00000000000E+00 -0.10159686848E+02  0.10159686848E+02  0.00000000000E+00 0.  1.
          2    1    1    2  501    0  0.39186896536E+02 -0.32654373705E+01  0.71242668260E+03  0.71351107491E+03  0.00000000000E+00 0.  1.
          1    1    1    2  502    0 -0.39186896536E+02  0.32654373705E+01  0.30576879929E+02  0.49811861313E+02  0.00000000000E+00 0.  1.
</event>
<event>
 4    1  0.3767413E+003  0.2145369E+02  0.7546771E-02  0.1512885E+00
          2   -1    0    0  502    0  0.00000000000E+00  0.00000000000E+00  0.54717173237E+03  0.54717173237E+03  0.00000000000E+00 0. -1.
          1   -1    0    0  501    0 -0.00000000000E+00 -0.00000000000E+00 -0.34459063522E+01  0.34459063522E+01  0.00000000000E+00 0.  1.
          2    1    1    2  501    0 -0.19094995306E+02  0.97796630006E+01  0.51122251387E+03  0.51167247273E+03  0.00000000000E+00 0. -1.
          1    1    1    2  502    0  0.19094995306E+02 -0.97796630006E+01  0.32503312145E+02  0.38945165997E+02  0.00000000000E+00 0.  1.
</event>
<event>
 4    1  0.3767413E+003  0.3840087E+02  0.7546771E-02  0.1358120E+00
          2   -1    0    0  502    0  0.00000000000E+00  0.00000000000E+00  0.28741831134E+03  0.28741831134E+03  0.00000000000E+00 0. -1.
          1   -1    0    0  501    0 -0.00000000000E+00 -0.00000000000E+00 -0.33792658244E+03  0.33792658244E+03  0.00000000000E+00 0.  1.
          2    1    1    2  501    0  0.15235009176E+02 -0.35249416804E+02  0.28503564698E+03  0.28761075595E+03  0.00000000000E+00 0. -1.
          1    1    1    2  502    0 -0.15235009176E+02  0.35249416804E+02 -0.33554391808E+03  0.33773413782E+03  0.00000000000E+00 0.  1.
</event>
<event>
 4    1  0.3767413E+003  0.4741013E+02  0.7546771E-02  0.1309809E+00
          2   -1    0    0  502    0  0.00000000000E+00  0.00000000000E+00  0.14479614731E+03  0.14479614731E+03  0.00000000000E+00 0.  1.
          1   -1    0    0  501    0 -0.00000000000E+00 -0.00000000000E+00 -0.58932698669E+02  0.58932698669E+02  0.00000000000E+00 0.  1.
          2    1    1    2  501    0 -0.32900695443E+02 -0.34135973924E+02  0.13035680209E+03  0.13871054872E+03  0.00000000000E+00 0.  1.
          1    1    1    2  502    0  0.32900695443E+02  0.34135973924E+02 -0.44493353451E+02  0.65018297253E+02  0.00000000000E+00 0.  1.
</event>
<event>
 4    1  0.3767413E+003  0.2626431E+02  0.7546771E-02  0.1455141E+00
          2   -1    0    0  502    0  0.00000000000E+00  0.00000000000E+00  0.22525075401E+01  0.22525075401E+01  0.00000000000E+00 0. -1.
          1   -1    0    0  501    0 -0.00000000000E+00 -0.00000000000E+00 -0.57537843079E+03  0.57537843079E+03  0.00000000000E+00 0.  1.
          2    1    1    2  501    0 -0.19914168486E+02 -0.17124254465E+02 -0.89034688287E+02  0.92827743244E+02  0.00000000000E+00 0. -1.
          1    1    1    2  502    0  0.19914168486E+02  0.17124254465E+02 -0.48409123497E+03  0.48480319509E+03  0.00000000000E+00 0.  1.
</event>
<event>
 4    1  0.3767413E+003  0.2128062E+02  0.7546771E-02  0.1515296E+00
          2   -1    0    0  502    0  0.00000000000E+00  0.00000000000E+00  0.91624200925E+00  0.91624200925E+00  0.00000000000E+00 0. -1.
          1   -1    0    0  501    0 -0.00000000000E+00 -0.00000000000E+00 -0.10338163703E+04  0.10338163703E+04  0.00000000000E+00 0. -1.
          2    1    1    2  501    0 -0.33011355308E+01 -0.21023020529E+02 -0.14268949346E+03  0.14426765553E+03  0.00000000000E+00 0. -1.
          1    1    1    2  502    0  0.33011355308E+01  0.21023020529E+02 -0.89021063480E+03  0.89046495675E+03  0.00000000000E+00 0. -1.
</event>
<event>
 4    1  0.3767413E+003  0.2106400E+02  0.7546771E-02  0.1518353E+00
          2   -1    0    0  502    0  0.00000000000E+00  0.00000000000E+00  0.60245601709E+01  0.60245601709E+01  0.00000000000E+00 0. -1.
          1   -1    0    0  501    0 -0.00000000000E+00 -0.00000000000E+00 -0.26154652182E+03  0.26154652182E+03  0.00000000000E+00 0.  1.
          2    1    1    2  501    0 -0.15478156753E+02  0.14287011127E+02 -0.14365093382E+02  0.25496037561E+02  0.00000000000E+00 0. -1.
          1    1    1    2  502    0  0.15478156753E+02 -0.14287011127E+02 -0.24115686826E+03  0.24207504443E+03  0.00000000000E+00 0.  1.
</event>
<event>
 4    1  0.3767413E+003  0.2206136E+02  0.7546771E-02  0.1504633E+00
          2   -1    0    0  502    0  0.00000000000E+00  0.00000000000E+00  0.15594253554E+02  0.15594253554E+02  0.00000000000E+00 0.  1.
          1   -1    0    0  501    0 -0.00000000000E+00 -0.00000000000E+00 -0.11150972090E+04  0.11150972090E+04  0.00000000000E+00 0.  1.
          2    1    1    2  501    0 -0.21449721880E+02 -0.51587798450E+01  0.76263768085E+01  0.23342347814E+02  0.00000000000E+00 0.  1.
          1    1    1    2  502    0  0.21449721880E+02  0.51587798450E+01 -0.11071293322E+04  0.11073491147E+04  0.00000000000E+00 0.  1.
</event>
<event>
 4    1  0.3767413E+003  0.2629951E+02  0.7546771E-02  0.1454774E+00
          2   -1    0    0  502    0  0.00000000000E+00  0.00000000000E+00  0.51882724388E+03  0.51882724388E+03  0.00000000000E+00 0. -1.
          1   -1    0    0  501    0 -0.00000000000E+00 -0.00000000000E+00 -0.13898514082E+02  0.13898514082E+02  0.00000000000E+00 0.  1.
          2    1    1    2  501    0 -0.26287964424E+02 -0.77931951116E+00  0.50573065591E+03  0.50641402107E+03  0.00000000000E+00 0. -1.
          1    1    1    2  502    0  0.26287964424E+02  0.77931951116E+00 -0.80192611391E+00  0.26311736886E+02  0.00000000000E+00 0.  1.
</event>
<event>
 4    1  0.3767413E+003  0.2779620E+02  0.7546771E-02  0.1439770E+00
          2   -1    0    0  502    0  0.00000000000E+00  0.00000000000E+00  0.63691734138E+02  0.63691734138E+02  0.00000000000E+00 0.  1.
          1   -1    0    0  501    0 -0.00000000000E+00 -0.00000000000E+00 -0.47398916007E+02  0.47398916007E+02  0.00000000000E+00 0.  1.
          2    1    1    2  501    0 -0.23183612578E+02 -0.15334566171E+02  0.56059558217E+02  0.62572381123E+02  0.00000000000E+00 0.  1.
          1    1    1    2  502    0  0.23183612578E+02  0.15334566171E+02 -0.39766740086E+02  0.48518269022E+02  0.00000000000E+00 0.  1.
</event>
<event>
 4    1  0.3767413E+003  0.2131318E+02  0.7546771E-02  0.1514840E+00
          2   -1    0    0  502    0  0.00000000000E+00  0.00000000000E+00  0.10332276613E+04  0.10332276613E+04  0.00000000000E+00 0. -1.
          1   -1    0    0  501    0 -0.00000000000E+00 -0.00000000000E+00 -0.24781705879E+02  0.24781705879E+02  0.00000000000E+00 0.  1.
          2    1    1    2  501    0 -0.73117073871E+00 -0.21300638653E+02  0.10285142202E+04  0.10287350257E+04  0.00000000000E+00 0. -1.
          1    1    1    2  502    0  0.73117073871E+00  0.21300638653E+02 -0.20068264817E+02  0.29274341503E+02  0.00000000000E+00 0.  1.
</event>
<event>
 4    1  0.3767413E+003  0.2473833E+02  0.7546771E-02  0.1471752E+00
          2   -1    0    0  502    0  0.00000000000E+00  0.00000000000E+00  0.16989849453E+01  0.16989849453E+01  0.00000000000E+00 0. -1.
          1   -1    0    0  501    0 -0.00000000000E+00 -0.00000000000E+00 -0.52805454488E+03  0.52805454488E+03  0.00000000000E+00 0.  1.
          2    1    1    2  501    0 -0.18550730757E+02 -0.16366282208E+02 -0.11384227205E+03  0.11649913180E+03  0.00000000000E+00 0. -1.
          1    1    1    2  502    0  0.18550730757E+02  0.16366282208E+02 -0.41251328788E+03  0.41325439802E+03  0.00000000000E+00 0.  1.
</event>
<event>
 4    1  0.3767413E+003  0.3503401E+02  0.7546771E-02  0.1380324E+00
          2   -1    0    0  502    0  0.00000000000E+00  0.00000000000E+00  0.20088972733E+04  0.20088972733E+04  0.00000000000E+00 0. -1.
          1   -1    0    0  501    0 -0.00000000000E+00 -0.00000000000E+00 -0.50149614166E+02  0.50149614166E+02  0.00000000000E+00 0. -1.
          2    1    1    2  501    0  0.38843131170E+01  0.34818008002E+02  0.20026067127E+04  0.20029131352E+04  0.00000000000E+00 0. -1.
          1    1    1    2  502    0 -0.38843131170E+01 -0.34818008002E+02 -0.43859053513E+02  0.56133752277E+02  0.00000000000E+00 0. -1.
</event>
<event>
 4    1  0.3767413E+003  0.2102652E+02  0.7546771E-02  0.1518886E+00
          2   -1    0    0  502    0  0.00000000000E+00  0.00000000000E+00  0.50960774114E+01  0.50960774114E+01  0.00000000000E+00 0. -1.
          1   -1    0    0  501    0 -0.00000000000E+00 -0.00000000000E+00 -0.40161728233E+03  0.40161728233E+03  0.00000000000E+00 0. -1.
          2    1    1    2  501    0 -0.15912282372E+02 -0.13744595731E+02 -0.18202792279E+02  0.27811082123E+02  0.00000000000E+00 0. -1.
          1    1    1    2  502    0  0.15912282372E+02  0.13744595731E+02 -0.37831841264E+03  0.37890227762E+03  0.00000000000E+00 0. -1.
</event>
<event>
 4    1  0.3767413E+003  0.6787907E+02  0.7546771E-02  0.1235182E+00
          2   -1    0    0  502    0  0.00000000000E+00  0.00000000000E+00  0.28870859517E+02  0.28870859517E+02  0.00000000000E+00 0.  1.
          1   -1    0    0  501    0 -0.00000000000E+00 -0.00000000000E+00 -0.15968789969E+03  0.15968789969E+03  0.00000000000E+00 0.  1.
          2    1    1    2  501    0 -0.21336788267E+01  0.67845493772E+02 -0.67716677892E+02  0.95880717953E+02  0.00000000000E+00 0.  1.
          1    1    1    2  502    0  0.21336788267E+01 -0.67845493772E+02 -0.63100362279E+02  0.92678041251E+02  0.00000000000E+00 0.  1.
</event>
<event>
 4    1  0.3767413E+003  0.2734903E+02  0.7546771E-02  0.1444133E+00
          2   -1    0    0  502    0  0.00000000000E+00  0.00000000000E+00  0.77913576500E+00  0.77913576500E+00  0.00000000000E+00 0. -1.
          1   -1    0    0  501    0 -0.00000000000E+00 -0.00000000000E+00 -0.96000687250E+03  0.96000687250E+03  0.00000000000E+00 0.  1.
          2    1    1    2  501    0  0.88858694525E+01 -0.25865241342E+02 -0.47821929632E+03  0.47900069390E+03  0.00000000000E+00 0. -1.
          1    1    1    2  502    0 -0.88858694525E+01  0.25865241342E+02 -0.48100844041E+03  0.48178531436E+03  0.00000000000E+00 0.  1.
</event>
<event>
 4    1  0.3767413E+003  0.2491274E+02  0.7546771E-02  0.1469782E+00
          2   -1    0    0  502    0  0.00000000000E+00  0.00000000000E+00  0.87066276474E+02  0.87066276474E+02  0.00000000000E+00 0. -1.
          1   -1    0    0  501    0 -0.00000000000E+00 -0.00000000000E+00 -0.13152545572E+02  0.13152545572E+02  0.00000000000E+00 0. -1.
          2    1    1    2  501    0  0.24355310483E+02 -0.52405768346E+01  0.70869495963E+02  0.75120771111E+02  0.00000000000E+00 0. -1.
          1    1    1    2  502    0 -0.24355310483E+02  0.52405768346E+01  0.30442349389E+01  0.25098050934E+02  0.00000000000E+00 0. -1.
</event>
<event>
 4    1  0.3767413E+003  0.3613035E+02  0.7546771E-02  0.1372786E+00
          2   -1    0    0  502    0  0.00000000000E+00  0.00000000000E+00  0.99803983639E+02  0.99803983639E+02  0.00000000000E+00 0.  1.
          1   -1    0    0  501    0 -0.00000000000E+00 -0.00000000000E+00 -0.58086838073E+03  0.58086838073E+03  0.00000000000E+00 0. -1.
          2    1    1    2  501    0 -0.36121240272E+02 -0.81113178097E+00  0.95950420583E+02  0.10252748482E+03  0.00000000000E+00 0.  1.
          1    1    1    2  502    0  0.36121240272E+02  0.81113178097E+00 -0.57701481768E+03  0.57814487955E+03  0.00000000000E+00 0. -1.
</event>
<event>
 4    1  0.3767413E+003  0.2088725E+02  0.7546771E-02  0.1520881E+00
          2   -1    0    0  502    0  0.00000000000E+00  0.00000000000E+00  0.18280094719E+03  0.18280094719E+03  0.00000000000E+00 0.  1.
          1   -1    0    0  501    0 -0.00000000000E+00 -0.00000000000E+00 -0.26160447935E+01  0.26160447935E+01  0.00000000000E+00 0.  1.
          2    1    1    2  501    0  0.79308617492E+01  0.19323005674E+02  0.11754694215E+03  0.11938827717E+03  0.00000000000E+00 0.  1.
          1    1    1    2  502    0 -0.79308617492E+01 -0.19323005674E+02  0.62637960247E+02  0.66028714816E+02  0.00000000000E+00 0.  1.
</event>
<event>
 4    1  0.3767413E+003  0.2445070E+02  0.7546771E-02  0.1475043E+00
          2   -1    0    0  502    0  0.00000000000E+00  0.00000000000E+00  0.18353121128E+03  0.18353121128E+03  0.00000000000E+00 0.  1.
          1   -1    0    0  501    0 -0.00000000000E+00 -0.00000000000E+00 -0.59545833740E+02  0.59545833740E+02  0.00000000000E+00 0.  1.
          2    1    1    2  501    0 -0.24400101965E+02  0.15722485281E+01  0.18016011994E+03  0.18181173163E+03  0.00000000000E+00 0.  1.
          1    1    1    2  502    0  0.24400101965E+02 -0.15722485281E+01 -0.56174742399E+02  0.61265313392E+02  0.00000000000E+00 0.  1.
</event>
<event>
 4    1  0.3767413E+003  0.2293180E+02  0.7546771E-02  0.1493356E+00
          2   -1    0    0  502    0  0.00000000000E+00  0.00000000000E+00  0.56149894980E+02  0.56149894980E+02  0.00000000000E+00 0.  1.
          1   -1    0    0  501    0 -0.00000000000E+00 -0.00000000000E+00 -0.27555553733E+03  0.27555553733E+03  0.00000000000E+00 0. -1.
          2    1    1    2  501    0 -0.18909536136E+02 -0.12972928525E+02  0.53307078310E+02  0.58030268217E+02  0.00000000000E+00 0.  1.
          1    1    1    2  502    0  0.18909536136E+02  0.12972928525E+02 -0.27271272066E+03  0.27367516409E+03  0.00000000000E+00 0. -1.
</event>
<event>
 4    1  0.3767413E+003  0.2871270E+02  0.7546771E-02  0.1431123E+00
          2   -1    0    0  502    0  0.00000000000E+00  0.00000000000E+00  0.11800196567E+02  0.11800196567E+02  0.00000000000E+00 0.  1.
          1   -1    0    0  501    0 -0.00000000000E+00 -0.00000000000E+00 -0.10975062092E+03  0.10975062092E+03  0.00000000000E+00 0.  1.
          2    1    1    2  501    0  0.26305284672E+02  0.11508744307E+02 -0.12337083577E+02  0.31250965239E+02  0.00000000000E+00 0.  1.
          1    1    1    2  502    0 -0.26305284672E+02 -0.11508744307E+02 -0.85613340778E+02  0.90299852250E+02  0.00000000000E+00 0.  1.
</event>
<event>
 4    1  0.3767413E+003  0.2243409E+02  0.7546771E-02  0.1499729E+00
          2   -1    0    0  502    0  0.00000000000E+00  0.00000000000E+00  0.33293126218E+02  0.33293126218E+02  0.00000000000E+00 0. -1.
          1   -1    0    0  501    0 -0.00000000000E+00 -0.00000000000E+00 -0.41315297403E+02  0.41315297403E+02  0.00000000000E+00 0.  1.
          2    1    1    2  501    0 -0.22166226292E+02 -0.34564341509E+01  0.25694620021E+02  0.34110145457E+02  0.00000000000E+00 0. -1.
          1    1    1    2  502    0  0.22166226292E+02  0.34564341509E+01 -0.33716791205E+02  0.40498278164E+02  0.00000000000E+00 0.  1.
</event>
<event>
 4    1  0.3767413E+003  0.2025312E+02  0.7546771E-02  0.1530201E+00
          2   -1    0    0  502    0  0.00000000000E+00  0.00000000000E+00  0.78407836396E+02  0.78407836396E+02  0.00000000000E+00 0. -1.
          1   -1    0    0  501    0 -0.00000000000E+00 -0.00000000000E+00 -0.61703065867E+03  0.61703065867E+03  0.00000000000E+00 0.  1.
          2    1    1    2  501    0 -0.19647014201E+02  0.49176833921E+01  0.76930634778E+02  0.79551941173E+02  0.00000000000E+00 0. -1.
          1    1    1    2  502    0  0.19647014201E+02 -0.49176833921E+01 -0.61555345706E+03  0.61588655390E+03  0.00000000000E+00 0.  1.
</event>
<event>
 4    1  0.3767413E+003  0.2167369E+02  0.7546771E-02  0.1509860E+00
          2   -1    0    0  502    0  0.00000000000E+00  0.00000000000E+00  0.37460373248E+02  0.37460373248E+02  0.00000000000E+00 0. -1.
          1   -1    0    0  501    0 -0.00000000000E+00 -0.00000000000E+00 -0.12059732716E+03  0.12059732716E+03  0.00000000000E+00 0. -1.
          2    1    1    2  501    0  0.20580655048E+02 -0.67959988888E+01  0.33238852901E+02  0.39680855651E+02  0.00000000000E+00 0. -1.
          1    1    1    2  502    0 -0.20580655048E+02  0.67959988888E+01 -0.11637580681E+03  0.11837684476E+03  0.00000000000E+00 0. -1.
</event>
<event>
 4    1  0.3767413E+003  0.3018714E+02  0.7546771E-02  0.1417977E+00
          2   -1    0    0  502    0  0.00000000000E+00  0.00000000000E+00  0.14577614948E+04  0.14577614948E+04  0.00000000000E+00 0.  1.
          1   -1    0    0  501    0 -0.00000000000E+00 -0.00000000000E+00 -0.12539489501E+02  0.12539489501E+02  0.00000000000E+00 0. -1.
          2    1    1    2  501    0  0.26219868591E+02  0.14959332237E+02  0.14392031024E+04  0.14395196536E+04  0.00000000000E+00 0.  1.
          1    1    1    2  502    0 -0.26219868591E+02 -0.14959332237E+02  0.60189029407E+01  0.30781330746E+02  0.00000000000E+00 0. -1.
</event>
<event>
 4    1  0.3767413E+003  0.4021667E+02  0.7546771E-02  0.1347221E+00
          2   -1    0    0  502    0  0.00000000000E+00  0.00000000000E+00  0.15919814227E+03  0.15919814227E+03  0.00000000000E+00 0. -1.
          1   -1    0    0  501    0 -0.00000000000E+00 -0.00000000000E+00 -0.10263699546E+02  0.10263699546E+02  0.00000000000E+00 0. -1.
          2    1    1    2  501    0  0.12054361374E+02 -0.38367602392E+02  0.83002761834E+02  0.92232526874E+02  0.00000000000E+00 0. -1.
          1    1    1    2  502    0 -0.12054361374E+02  0.38367602392E+02  0.65931680888E+02  0.77229314941E+02  0.00000000000E+00 0. -1.
</event>
<event>
 4    1  0.3767413E+003  0.2271692E+02  0.7546771E-02  0.1496084E+00
          2   -1    0    0  502    0  0.00000000000E+00  0.00000000000E+00  0.37157408428E+02  0.37157408428E+02  0.00000000000E+00 0. -1.
          1   -1    0    0  501    0 -0.00000000000E+00 -0.00000000000E+00 -0.29048947380E+02  0.29048947380E+02  0.00000000000E+00 0.  1.
          2    1    1    2  501    0  0.19656505914E+02  0.11387713328E+02  0.27968737536E+02  0.36032048497E+02  0.00000000000E+00 0. -1.
          1    1    1    2  502    0 -0.19656505914E+02 -0.11387713328E+02 -0.19860276488E+02  0.30174307312E+02  0.00000000000E+00 0.  1.
</event>
<event>
 4    1  0.3767413E+003  0.4955571E+02  0.7546771E-02  0.1300110E+00
          2   -1    0    0  502    0  0.00000000000E+00  0.00000000000E+00  0.58861950322E+03  0.58861950322E+03  0.00000000000E+00 0.  1.
          1   -1    0    0  501    0 -0.00000000000E+00 -0.00000000000E+00 -0.42602730570E+01  0.42602730570E+01  0.00000000000E+00 0. -1.
          2    1    1    2  501    0  0.55626816612E+01 -0.49242482571E+02  0.24952715622E+03  0.25440040725E+03  0.00000000000E+00 0.  1.
          1    1    1    2  502    0 -0.55626816612E+01  0.49242482571E+02  0.33483207394E+03  0.33847936903E+03  0.00000000000E+00 0. -1.
</event>
<event>
 4    1  0.3767413E+003  0.2211689E+02  0.7546771E-02  0.1503895E+00
          2   -1    0    0  502    0  0.00000000000E+00  0.00000000000E+00  0.78763939966E+02  0.78763939966E+02  0.00000000000E+00 0. -1.
          1   -1    0    0  501    0 -0.00000000000E+00 -0.00000000000E+00 -0.75460684308E+01  0.75460684308E+01  0.00000000000E+00 0. -1.
          2    1    1    2  501    0 -0.13894352170E+02 -0.17207651451E+02  0.17452999798E+02  0.28173808628E+02  0.00000000000E+00 0. -1.
          1    1    1    2  502    0  0.13894352170E+02  0.17207651451E+02  0.53764871737E+02  0.58136199769E+02  0.00000000000E+00 0. -1.
</event>
<event>
 4    1  0.3767413E+003  0.2157586E+02  0.7546771E-02  0.1511200E+00
          2   -1    0    0  502    0  0.00000000000E+00  0.00000000000E+00  0.43988985730E+02  0.43988985730E+02  0.00000000000E+00 0.  1.
          1   -1    0    0  501    0 -0.00000000000E+00 -0.00000000000E+00 -0.10585432383E+02  0.10585432383E+02  0.00000000000E+00 0.  1.
          2    1    1    2  501    0  0.11845522215E+02  0.18033329079E+02  0.16254551264E+02  0.27013474249E+02  0.00000000000E+00 0.  1.
          1    1    1    2  502    0 -0.11845522215E+02 -0.18033329079E+02  0.17149002083E+02  0.27560943863E+02  0.00000000000E+00 0.  1.
</event>
<event>
 4    1  0.3767413E+003  0.2196546E+02  0.7546771E-02  0.1505914E+00
          2   -1    0    0  502    0  0.00000000000E+00  0.00000000000E+00  0.19428637209E+02  0.19428637209E+02  0.00000000000E+00 0. -1.
          1   -1    0    0  501    0 -0.00000000000E+00 -0.00000000000E+00 -0.30684762654E+03  0.30684762654E+03  0.00000000000E+00 0. -1.
          2    1    1    2  501    0 -0.98102879810E+01  0.19652981747E+02  0.12687901131E+02  0.25366597662E+02  0.00000000000E+00 0. -1.
          1    1    1    2  502    0  0.98102879810E+01 -0.19652981747E+02 -0.30010689047E+03  0.30090966609E+03  0.00000000000E+00 0. -1.
</event>
<event>
 4    1  0.3767413E+003  0.2433461E+02  0.7546771E-02  0.1476387E+00
          2   -1    0    0  502    0  0.00000000000E+00  0.00000000000E+00  0.53157632162E+01  0.53157632162E+01  0.00000000000E+00 0.  1.
          1   -1    0    0  501    0 -0.00000000000E+00 -0.00000000000E+00 -0.10527495532E+04  0.10527495532E+04  0.00000000000E+00 0.  1.
          2    1    1    2  501    0 -0.24277201164E+02 -0.16705718654E+01 -0.23457183782E+02  0.33799597301E+02  0.00000000000E+00 0.  1.
          1    1    1    2  502    0  0.24277201164E+02  0.16705718654E+01 -0.10239766062E+04  0.10242657191E+04  0.00000000000E+00 0.  1.
</event>
<event>
 4    1  0.3767413E+003  0.2412231E+02  0.7546771E-02  0.1478866E+00
          2   -1    0    0  502    0  0.00000000000E+00  0.00000000000E+00  0.85255587851E+02  0.85255587851E+02  0.00000000000E+00 0.  1.
          1   -1    0    0  501    0 -0.00000000000E+00 -0.00000000000E+00 -0.11108807464E+02  0.11108807464E+02  0.00000000000E+00 0. -1.
          2    1    1    2  501    0 -0.87261460812E+00  0.24106523697E+02  0.66993143888E+02  0.71203702635E+02  0.00000000000E+00 0.  1.
          1    1    1    2  502    0  0.87261460812E+00 -0.24106523697E+02  0.71536364986E+01  0.25160692680E+02  0.00000000000E+00 0. -1.
</event>
<event>
 4    1  0.4507902E+003  0.2210250E+02  0.7546771E-02  0.1504086E+00
          2   -1    0    0  502    0  0.00000000000E+00  0.00000000000E+00  0.71242651012E+03  0.71242651012E+03  0.00000000000E+00 0. -1.
          1   -1    0    0  501    0 -0.00000000000E+00 -0.00000000000E+00 -0.16385772724E+04  0.16385772724E+04  0.00000000000E+00 0.  1.
          2    1    1    2  501    0  0.14584595792E+02  0.16607528402E+02  0.71218052178E+03  0.71252341438E+03  0.00000000000E+00 0. -1.
          1    1    1    2  502    0 -0.14584595792E+02 -0.16607528402E+02 -0.16383312840E+04  0.16384803681E+04  0.00000000000E+00 0.  1.
</event>
<event>
 4    1  0.3767413E+003  0.3172454E+02  0.7546771E-02  0.1405179E+00
          2   -1    0    0  502    0  0.00000000000E+00  0.00000000000E+00  0.58120222546E+03  0.58120222546E+03  0.00000000000E+00 0.  1.
          1   -1    0    0  501    0 -0.00000000000E+00 -0.00000000000E+00 -0.10178693222E+03  0.10178693222E+03  0.00000000000E+00 0.  1.
          2    1    1    2  501    0  0.28199368018E+02 -0.14534179761E+02  0.57828490364E+03  0.57915444962E+03  0.00000000000E+00 0.  1.
          1    1    1    2  502    0 -0.28199368018E+02  0.14534179761E+02 -0.98869610394E+02  0.10383470806E+03  0.00000000000E+00 0.  1.
</event>
<event>
 4    1  0.3767413E+003  0.2043259E+02  0.7546771E-02  0.1527522E+00
          2   -1    0    0  502    0  0.00000000000E+00  0.00000000000E+00  0.99815315466E+01  0.99815315466E+01  0.00000000000E+00 0.  1.
          1   -1    0    0  501    0 -0.00000000000E+00 -0.00000000000E+00 -0.45870666681E+02  0.45870666681E+02  0.00000000000E+00 0.  1.
          2    1    1    2  501    0  0.14615587653E+02 -0.14278478410E+02 -0.26236752990E+02  0.33254436631E+02  0.00000000000E+00 0.  1.
          1    1    1    2  502    0 -0.14615587653E+02  0.14278478410E+02 -0.96523821439E+01  0.22597761597E+02  0.00000000000E+00 0.  1.
</event>
<event>
 4    1  0.3767413E+003  0.2564082E+02  0.7546771E-02  0.1461761E+00
          2   -1    0    0  502    0  0.00000000000E+00  0.00000000000E+00  0.84011789006E+03  0.84011789006E+03  0.00000000000E+00 0. -1.
          1   -1    0    0  501    0 -0.00000000000E+00 -0.00000000000E+00 -0.10879035082E+01  0.10879035082E+01  0.00000000000E+00 0.  1.
          2    1    1    2  501    0 -0.13551455398E+02  0.21767170627E+02  0.64233993106E+03  0.64285149039E+03  0.00000000000E+00 0. -1.
          1    1    1    2  502    0  0.13551455398E+02 -0.21767170627E+02  0.19669005549E+03  0.19835430317E+03  0.00000000000E+00 0.  1.
</event>
<event>
 4    1  0.5272378E+003  0.2094627E+02  0.7546771E-02  0.1520033E+00
          2   -1    0    0  502    0  0.00000000000E+00  0.00000000000E+00  0.97486423792E+03  0.97486423792E+03  0.00000000000E+00 0. -1.
          1   -1    0    0  501    0 -0.00000000000E+00 -0.00000000000E+00 -0.12008714506E+04  0.12008714506E+04  0.00000000000E+00 0. -1.
          2    1    1    2  501    0  0.17881948066E+02  0.10907890323E+02  0.97466036503E+03  0.97488541547E+03  0.00000000000E+00 0. -1.
          1    1    1    2  502    0 -0.17881948066E+02 -0.10907890323E+02 -0.12006675777E+04  0.12008502731E+04  0.00000000000E+00 0. -1.
</event>
<event>
 4    1  0.3767413E+003  0.3201544E+02  0.7546771E-02  0.1402855E+00
          2   -1    0    0  502    0  0.00000000000E+00  0.00000000000E+00  0.48537027472E+02  0.48537027472E+02  0.00000000000E+00 0.  1.
          1   -1    0    0  501    0 -0.00000000000E+00 -0.00000000000E+00 -0.17309431699E+03  0.17309431699E+03  0.00000000000E+00 0. -1.
          2    1    1    2  501    0  0.96566191600E+01  0.30524381888E+02  0.41557422689E+02  0.52459580286E+02  0.00000000000E+00 0.  1.
          1    1    1    2  502    0 -0.96566191600E+01 -0.30524381888E+02 -0.16611471221E+03  0.16917176418E+03  0.00000000000E+00 0. -1.
</event>
<event>
 4    1  0.3767413E+003  0.2025747E+02  0.7546771E-02  0.1530136E+00
          2   -1    0    0  502    0  0.00000000000E+00  0.00000000000E+00  0.10613051024E+01  0.10613051024E+01  0.00000000000E+00 0. -1.
          1   -1    0    0  501    0 -0.00000000000E+00 -0.00000000000E+00 -0.83012734456E+03  0.83012734456E+03  0.00000000000E+00 0.  1.
          2    1    1    2  501    0  0.20253707249E+02 -0.39035248725E+00 -0.11077503603E+03  0.11261204927E+03  0.00000000000E+00 0. -1.
          1    1    1    2  502    0 -0.20253707249E+02  0.39035248725E+00 -0.71829100342E+03  0.71857660039E+03  0.00000000000E+00 0.  1.
</event>
<event>
 4    1  0.3767413E+003  0.2485076E+02  0.7546771E-02  0.1470480E+00
          2   -1    0    0  502    0  0.00000000000E+00  0.00000000000E+00  0.47787107386E+02  0.47787107386E+02  0.00000000000E+00 0. -1.
          1   -1    0    0  501    0 -0.00000000000E+00 -0.00000000000E+00 -0.33198100958E+03  0.33198100958E+03  0.00000000000E+00 0. -1.
          2    1    1    2  501    0 -0.21774424835E+02  0.11976427414E+02  0.44054575601E+02  0.50580292821E+02  0.00000000000E+00 0. -1.
          1    1    1    2  502    0  0.21774424835E+02 -0.11976427414E+02 -0.32824847779E+03  0.32918782414E+03  0.00000000000E+00 0. -1.
</event>
<event>
 4    1  0.3767413E+003  0.2469890E+02  0.7546771E-02  0.1472200E+00
          2   -1    0    0  502    0  0.00000000000E+00  0.00000000000E+00  0.13675050322E+04  0.13675050322E+04  0.00000000000E+00 0. -1.
          1   -1    0    0  501    0 -0.00000000000E+00 -0.00000000000E+00 -0.23540894897E+03  0.23540894897E+03  0.00000000000E+00 0. -1.
          2    1    1    2  501    0  0.11233794714E+02 -0.21996308911E+02  0.13667453018E+04  0.13669684546E+04  0.00000000000E+00 0. -1.
          1    1    1    2  502    0 -0.11233794714E+02  0.21996308911E+02 -0.23464921858E+03  0.23594552662E+03  0.00000000000E+00 0. -1.
</event>
<event>
 4    1  0.3767413E+003  0.2853244E+02  0.7546771E-02  0.1432793E+00
          2   -1    0    0  502    0  0.00000000000E+00  0.00000000000E+00  0.19126516170E+04  0.19126516170E+04  0.00000000000E+00 0. -1.
          1   -1    0    0  501    0 -0.00000000000E+00 -0.00000000000E+00 -0.82821212921E+00  0.82821212921E+00  0.00000000000E+00 0. -1.
          2    1    1    2  501    0  0.17466205448E+02 -0.22561732121E+02  0.16229414743E+04  0.16231922650E+04  0.00000000000E+00 0. -1.
          1    1    1    2  502    0 -0.17466205448E+02  0.22561732121E+02  0.28888193055E+03  0.29028756412E+03  0.00000000000E+00 0. -1.
</event>
<event>
 4    1  0.3767413E+003  0.3678196E+02  0.7546771E-02  0.1368450E+00
          2   -1    0    0  502    0  0.00000000000E+00  0.00000000000E+00  0.11628755206E+04  0.11628755206E+04  0.00000000000E+00 0. -1.
          1   -1    0    0  501    0 -0.00000000000E+00 -0.00000000000E+00 -0.22435620690E+02  0.22435620690E+02  0.00000000000E+00 0.  1.
          2    1    1    2  501    0  0.13867553171E+02  0.34067626851E+02  0.11473046242E+04  0.11478940774E+04  0.00000000000E+00 0. -1.
          1    1    1    2  502    0 -0.13867553171E+02 -0.34067626851E+02 -0.68647242905E+01  0.37417063885E+02  0.00000000000E+00 0.  1.
</event>
<event>
 4    1  0.3767413E+003  0.2122025E+02  0.7546771E-02  0.1516143E+00
          2   -1    0    0  502    0  0.00000000000E+00  0.00000000000E+00  0.43731473586E+02  0.43731473586E+02  0.00000000000E+00 0.  1.
          1   -1    0    0  501    0 -0.00000000000E+00 -0.00000000000E+00 -0.93136903979E+02  0.93136903979E+02  0.00000000000E+00 0.  1.
          2    1    1    2  501    0  0.19627561959E+02 -0.80658469320E+01  0.39837773955E+02  0.45136983826E+02  0.00000000000E+00 0.  1.
          1    1    1    2  502    0 -0.19627561959E+02  0.80658469320E+01 -0.89243204347E+02  0.91731393739E+02  0.00000000000E+00 0.  1.
</event>
<event>
 4    1  0.3767413E+003  0.2170702E+02  0.7546771E-02  0.1509405E+00
          2   -1    0    0  502    0  0.00000000000E+00  0.00000000000E+00  0.24140234863E+01  0.24140234863E+01  0.00000000000E+00 0.  1.
          1   -1    0    0  501    0 -0.00000000000E+00 -0.00000000000E+00 -0.46019226614E+03  0.46019226614E+03  0.00000000000E+00 0.  1.
          2    1    1    2  501    0 -0.20295217720E+02 -0.77005670741E+01 -0.53365239586E+02  0.57611139475E+02  0.00000000000E+00 0.  1.
          1    1    1    2  502    0  0.20295217720E+02  0.77005670741E+01 -0.40441300307E+03  0.40499515016E+03  0.00000000000E+00 0.  1.
</event>
<event>
 4    1  0.3767413E+003  0.2391570E+02  0.7546771E-02  0.1481309E+00
          2   -1    0    0  502    0  0.00000000000E+00  0.00000000000E+00  0.17234255978E+03  0.17234255978E+03  0.00000000000E+00 0.  1.
          1   -1    0    0  501    0 -0.00000000000E+00 -0.00000000000E+00 -0.62443001865E+01  0.62443001865E+01  0.00000000000E+00 0. -1.
          2    1    1    2  501    0  0.23897283901E+02 -0.93838307168E+00  0.14416892382E+03  0.14613910953E+03  0.00000000000E+00 0.  1.
          1    1    1    2  502    0 -0.23897283901E+02  0.93838307168E+00  0.21929335779E+02  0.32447750436E+02  0.00000000000E+00 0. -1.
</event>
<event>
 4    1  0.3767413E+003  0.7091416E+02  0.7546771E-02  0.1226673E+00
          2   -1    0    0  502    0  0.00000000000E+00  0.00000000000E+00  0.37698117346E+03  0.37698117346E+03  0.00000000000E+00 0.  1.
          1   -1    0    0  501    0 -0.00000000000E+00 -0.00000000000E+00 -0.17007757117E+02  0.17007757117E+02  0.00000000000E+00 0.  1.
          2    1    1    2  501    0 -0.68502989568E+02 -0.18334626405E+02  0.27147134711E+03  0.28058066649E+03  0.00000000000E+00 0.  1.
          1    1    1    2  502    0  0.68502989568E+02  0.18334626405E+02  0.88502069231E+02  0.11340826409E+03  0.00000000000E+00 0.  1.
</event>
<event>
 4    1  0.3767413E+003  0.8389326E+02  0.7546771E-02  0.1195087E+00
          2   -1    0    0  502    0  0.00000000000E+00  0.00000000000E+00  0.26621184593E+03  0.26621184593E+03  0.00000000000E+00 0.  1.
          1   -1    0    0  501    0 -0.00000000000E+00 -0.00000000000E+00 -0.30533862030E+02  0.30533862030E+02  0.00000000000E+00 0. -1.
          2    1    1    2  501    0 -0.35222511251E+02  0.76141016639E+02  0.17218179419E+03  0.19153237315E+03  0.00000000000E+00 0.  1.
          1    1    1    2  502    0  0.35222511251E+02 -0.76141016639E+02  0.63496189702E+02  0.10521333480E+03  0.00000000000E+00 0. -1.
</event>
<event>
 4    1  0.3767413E+003  0.2303653E+02  0.7546771E-02  0.1492040E+00
          2   -1    0    0  502    0  0.00000000000E+00  0.00000000000E+00  0.30126719011E+01  0.30126719011E+01  0.00000000000E+00 0. -1.
          1   -1    0    0  501    0 -0.00000000000E+00 -0.00000000000E+00 -0.18290045993E+03  0.18290045993E+03  0.00000000000E+00 0.  1.
          2    1    1    2  501    0 -0.20916137260E+02  0.96538443436E+01 -0.72085341251E+02  0.75676799164E+02  0.00000000000E+00 0. -1.
          1    1    1    2  502    0  0.20916137260E+02 -0.96538443436E+01 -0.10780244677E+03  0.11023633266E+03  0.00000000000E+00 0.  1.
</event>
<event>
 4    1  0.3767413E+003  0.2642580E+02  0.7546771E-02  0.1453463E+00
          2   -1    0    0  502    0  0.00000000000E+00  0.00000000000E+00  0.10743792267E+02  0.10743792267E+02  0.00000000000E+00 0. -1.
          1   -1    0    0  501    0 -0.00000000000E+00 -0.00000000000E+00 -0.24746624307E+03  0.24746624307E+03  0.00000000000E+00 0.  1.
          2    1    1    2  501    0  0.26243352334E+02 -0.30998969062E+01 -0.75001677710E+01  0.27469536202E+02  0.00000000000E+00 0. -1.
          1    1    1    2  502    0 -0.26243352334E+02  0.30998969062E+01 -0.22922228303E+03  0.23074049913E+03  0.00000000000E+00 0.  1.
</event>
<event>
 4    1  0.3767413E+003  0.2065267E+02  0.7546771E-02  0.1524282E+00
          2   -1    0    0  502    0  0.00000000000E+00  0.00000000000E+00  0.71487253869E+01  0.71487253869E+01  0.00000000000E+00 0.  1.
          1   -1    0    0  501    0 -0.00000000000E+00 -0.00000000000E+00 -0.10005144302E+04  0.10005144302E+04  0.00000000000E+00 0.  1.
          2    1    1    2  501    0 -0.13171254109E+02  0.15907576581E+02 -0.81051624333E+01  0.22186180058E+02  0.00000000000E+00 0.  1.
          1    1    1    2  502    0  0.13171254109E+02 -0.15907576581E+02 -0.98526054236E+03  0.98547697551E+03  0.00000000000E+00 0.  1.
</event>
<event>
 4    1  0.3767413E+003  0.2517139E+02  0.7546771E-02  0.1466895E+00
          2   -1    0    0  502    0  0.00000000000E+00  0.00000000000E+00  0.65545539163E+01  0.65545539163E+01  0.00000000000E+00 0. -1.
          1   -1    0    0  501    0 -0.00000000000E+00 -0.00000000000E+00 -0.15817410177E+04  0.15817410177E+04  0.00000000000E+00 0. -1.
          2    1    1    2  501    0 -0.24932241234E+02  0.34615251879E+01 -0.18094480247E+02  0.31000145564E+02  0.00000000000E+00 0. -1.
          1    1    1    2  502    0  0.24932241234E+02 -0.34615251879E+01 -0.15570919835E+04  0.15572954260E+04  0.00000000000E+00 0. -1.
</event>
<event>
 4    1  0.3767413E+003  0.2353871E+02  0.7546771E-02  0.1485842E+00
          2   -1    0    0  502    0  0.00000000000E+00  0.00000000000E+00  0.30792152463E+03  0.30792152463E+03  0.00000000000E+00 0. -1.
          1   -1    0    0  501    0 -0.00000000000E+00 -0.00000000000E+00 -0.69836516026E+01  0.69836516026E+01  0.00000000000E+00 0. -1.
          2    1    1    2  501    0 -0.12308133594E+02 -0.20064414560E+02  0.28612898846E+03  0.28709557454E+03  0.00000000000E+00 0. -1.
          1    1    1    2  502    0  0.12308133594E+02  0.20064414560E+02  0.14808884572E+02  0.27809601695E+02  0.00000000000E+00 0. -1.
</event>
<event>
 4    1  0.3767413E+003  0.2073070E+02  0.7546771E-02  0.1523145E+00
          2   -1    0    0  502    0  0.00000000000E+00  0.00000000000E+00  0.50155823247E+03  0.50155823247E+03  0.00000000000E+00 0.  1.
          1   -1    0    0  501    0 -0.00000000000E+00 -0.00000000000E+00 -0.22270661268E+01  0.22270661268E+01  0.00000000000E+00 0.  1.
          2    1    1    2  501    0  0.20644264150E+02  0.18911119799E+01  0.44724555278E+03  0.44772574913E+03  0.00000000000E+00 0.  1.
          1    1    1    2  502    0 -0.20644264150E+02 -0.18911119799E+01  0.52085613556E+02  0.56059549466E+02  0.00000000000E+00 0.  1.
</event>
<event>
 4    1  0.3767413E+003  0.2116216E+02  0.7546771E-02  0.1516962E+00
          2   -1    0    0  502    0  0.00000000000E+00  0.00000000000E+00  0.60240300994E+03  0.60240300994E+03  0.00000000000E+00 0. -1.
          1   -1    0    0  501    0 -0.00000000000E+00 -0.00000000000E+00 -0.22309762477E+02  0.22309762477E+02  0.00000000000E+00 0.  1.
          2    1    1    2  501    0 -0.16933828845E+02 -0.12691823358E+02  0.59715466658E+03  0.59752952459E+03  0.00000000000E+00 0. -1.
          1    1    1    2  502    0  0.16933828845E+02  0.12691823358E+02 -0.17061419124E+02  0.27183247820E+02  0.00000000000E+00 0.  1.
</event>
<event>
 4    1  0.3767413E+003  0.5355410E+02  0.7546771E-02  0.1283457E+00
          2   -1    0    0  502    0  0.00000000000E+00  0.00000000000E+00  0.94086049934E+03  0.94086049934E+03  0.00000000000E+00 0. -1.
          1   -1    0    0  501    0 -0.00000000000E+00 -0.00000000000E+00 -0.12669709347E+02  0.12669709347E+02  0.00000000000E+00 0.  1.
          2    1    1    2  501    0 -0.38398760970E+02  0.37330642356E+02  0.87956578889E+03  0.88119465425E+03  0.00000000000E+00 0. -1.
          1    1    1    2  502    0  0.38398760970E+02 -0.37330642356E+02  0.48625001103E+02  0.72335554432E+02  0.00000000000E+00 0.  1.
</event>
<event>
 4    1  0.3767413E+003  0.3594586E+02  0.7546771E-02  0.1374033E+00
          2   -1    0    0  502    0  0.00000000000E+00  0.00000000000E+00  0.13303079972E+03  0.13303079972E+03  0.00000000000E+00 0. -1.
          1   -1    0    0  501    0 -0.00000000000E+00 -0.00000000000E+00 -0.22422277519E+02  0.22422277519E+02  0.00000000000E+00 0. -1.
          2    1    1    2  501    0  0.29443664266E+02  0.20619791407E+02  0.11382271603E+03  0.11936379621E+03  0.00000000000E+00 0. -1.
          1    1    1    2  502    0 -0.29443664266E+02 -0.20619791407E+02 -0.32141938233E+01  0.36089281026E+02  0.00000000000E+00 0. -1.
</event>
<event>
 4    1  0.3767413E+003  0.3341081E+02  0.7546771E-02  0.1392093E+00
          2   -1    0    0  502    0  0.00000000000E+00  0.00000000000E+00  0.69518498499E+03  0.69518498499E+03  0.00000000000E+00 0.  1.
          1   -1    0    0  501    0 -0.00000000000E+00 -0.00000000000E+00 -0.13671419055E+02  0.13671419055E+02  0.00000000000E+00 0.  1.
          2    1    1    2  501    0 -0.32876213548E+02  0.59529055165E+01  0.67372091904E+03  0.67454885609E+03  0.00000000000E+00 0.  1.
          1    1    1    2  502    0  0.32876213548E+02 -0.59529055165E+01  0.77926469010E+01  0.34307547961E+02  0.00000000000E+00 0.  1.
</event>
<event>
 4    1  0.3767413E+003  0.2303348E+02  0.7546771E-02  0.1492078E+00
          2   -1    0    0  502    0  0.00000000000E+00  0.00000000000E+00  0.59009221995E+01  0.59009221995E+01  0.00000000000E+00 0.  1.
          1   -1    0    0  501    0 -0.00000000000E+00 -0.00000000000E+00 -0.20813406036E+03  0.20813406036E+03  0.00000000000E+00 0.  1.
          2    1    1    2  501    0  0.21910218590E+02 -0.71051834467E+01 -0.20460059515E+02  0.30808364868E+02  0.00000000000E+00 0.  1.
          1    1    1    2  502    0 -0.21910218590E+02  0.71051834467E+01 -0.18177307865E+03  0.18322661769E+03  0.00000000000E+00 0.  1.
</event>
<event>
 4    1  0.3767413E+003  0.2218099E+02  0.7546771E-02  0.1503047E+00
          2   -1    0    0  502    0  0.00000000000E+00  0.00000000000E+00  0.32272480362E+02  0.32272480362E+02  0.00000000000E+00 0. -1.
          1   -1    0    0  501    0 -0.00000000000E+00 -0.00000000000E+00 -0.38942009370E+02  0.38942009370E+02  0.00000000000E+00 0. -1.
          2    1    1    2  501    0  0.59072896538E+01 -0.21379901145E+02  0.24441594402E+02  0.33005874946E+02  0.00000000000E+00 0. -1.
          1    1    1    2  502    0 -0.59072896538E+01  0.21379901145E+02 -0.31111123410E+02  0.38208614786E+02  0.00000000000E+00 0. -1.
</event>
<event>
 4    1  0.3767413E+003  0.2630615E+02  0.7546771E-02  0.1454705E+00
          2   -1    0    0  502    0  0.00000000000E+00  0.00000000000E+00  0.56490440387E+03  0.56490440387E+03  0.00000000000E+00 0. -1.
          1   -1    0    0  501    0 -0.00000000000E+00 -0.00000000000E+00 -0.95884439584E+01  0.95884439584E+01  0.00000000000E+00 0.  1.
          2    1    1    2  501    0 -0.20430892777E+02 -0.16570829776E+02  0.54592844901E+03  0.54656187685E+03  0.00000000000E+00 0. -1.
          1    1    1    2  502    0  0.20430892777E+02  0.16570829776E+02  0.93875108980E+01  0.27930970982E+02  0.00000000000E+00 0.  1.
</event>
<event>
 4    1  0.3767413E+003  0.3374143E+02  0.7546771E-02  0.1389634E+00
          2   -1    0    0  502    0  0.00000000000E+00  0.00000000000E+00  0.16871525902E+03  0.16871525902E+03  0.00000000000E+00 0. -1.
          1   -1    0    0  501    0 -0.00000000000E+00 -0.00000000000E+00 -0.67971256966E+01  0.67971256966E+01  0.00000000000E+00 0.  1.
          2    1    1    2  501    0 -0.31575524205E+02 -0.11894133361E+02  0.88422486891E+02  0.94641535941E+02  0.00000000000E+00 0. -1.
          1    1    1    2  502    0  0.31575524205E+02  0.11894133361E+02  0.73495646434E+02  0.80870848778E+02  0.00000000000E+00 0.  1.
</event>
<event>
 4    1  0.3767413E+003  0.2023393E+02  0.7546771E-02  0.1530489E+00
          2   -1    0    0  502    0  0.00000000000E+00  0.00000000000E+00  0.27610236168E+02  0.27610236168E+02  0.00000000000E+00 0. -1.
          1   -1    0    0  501    0 -0.00000000000E+00 -0.00000000000E+00 -0.30349659855E+03  0.30349659855E+03  0.00000000000E+00 0. -1.
          2    1    1    2  501    0  0.19057108952E+02 -0.67998803078E+01  0.23515281029E+02  0.31022253556E+02  0.00000000000E+00 0. -1.
          1    1    1    2  502    0 -0.19057108952E+02  0.67998803078E+01 -0.29940164341E+03  0.30008458116E+03  0.00000000000E+00 0. -1.
</event>
<event>
 4    1  0.3767413E+003  0.2201820E+02  0.7546771E-02  0.1505209E+00
          2   -1    0    0  502    0  0.00000000000E+00  0.00000000000E+00  0.45115967509E+02  0.45115967509E+02  0.00000000000E+00 0. -1.
          1   -1    0    0  501    0 -0.00000000000E+00 -0.00000000000E+00 -0.12521547598E+02  0.12521547598E+02  0.00000000000E+00 0. -1.
          2    1    1    2  501    0 -0.17376011556E+02  0.13523140375E+02  0.27150297170E+02  0.34956254657E+02  0.00000000000E+00 0. -1.
          1    1    1    2  502    0  0.17376011556E+02 -0.13523140375E+02  0.54441227408E+01  0.22681260450E+02  0.00000000000E+00 0. -1.
</event>
<event>
 4    1  0.3767413E+003  0.3399223E+02  0.7546771E-02  0.1387790E+00
          2   -1    0    0  502    0  0.00000000000E+00  0.00000000000E+00  0.54555114801E+01  0.54555114801E+01  0.00000000000E+00 0. -1.
          1   -1    0    0  501    0 -0.00000000000E+00 -0.00000000000E+00 -0.25655866356E+04  0.25655866356E+04  0.00000000000E+00 0. -1.
          2    1    1    2  501    0 -0.30549727043E+02 -0.14905905009E+02 -0.48749633793E+02  0.59430620235E+02  0.00000000000E+00 0. -1.
          1    1    1    2  502    0  0.30549727043E+02  0.14905905009E+02 -0.25113814903E+04  0.25116115268E+04  0.00000000000E+00 0. -1.
</event>
<event>
 4    1  0.3767413E+003  0.2275291E+02  0.7546771E-02  0.1495624E+00
          2   -1    0    0  502    0  0.00000000000E+00  0.00000000000E+00  0.51904777507E+01  0.51904777507E+01  0.00000000000E+00 0.  1.
          1   -1    0    0  501    0 -0.00000000000E+00 -0.00000000000E+00 -0.13484056734E+04  0.13484056734E+04  0.00000000000E+00 0.  1.
          2    1    1    2  501    0 -0.25651732252E+01 -0.22607843384E+02 -0.20321159340E+02  0.30506461825E+02  0.00000000000E+00 0.  1.
          1    1    1    2  502    0  0.25651732252E+01  0.22607843384E+02 -0.13228940363E+04  0.13230896893E+04  0.00000000000E+00 0.  1.
</event>
<event>
 4    1  0.3767413E+003  0.2914740E+02  0.7546771E-02  0.1427153E+00
          2   -1    0    0  502    0  0.00000000000E+00  0.00000000000E+00  0.21067995403E+04  0.21067995403E+04  0.00000000000E+00 0.  1.
          1   -1    0    0  501    0 -0.00000000000E+00 -0.00000000000E+00 -0.10274594841E+01  0.10274594841E+01  0.00000000000E+00 0. -1.
          2    1    1    2  501    0  0.14195703601E+01 -0.29112810484E+02  0.18743473931E+04  0.18745740105E+04  0.00000000000E+00 0.  1.
          1    1    1    2  502    0 -0.14195703601E+01  0.29112810484E+02  0.23142468779E+03  0.23325298933E+03  0.00000000000E+00 0. -1.
</event>
<event>
 4    1  0.3767413E+003  0.2232439E+02  0.7546771E-02  0.1501161E+00
          2   -1    0    0  502    0  0.00000000000E+00  0.00000000000E+00  0.29233951165E+04  0.29233951165E+04  0.00000000000E+00 0. -1.
          1   -1    0    0  501    0 -0.00000000000E+00 -0.00000000000E+00 -0.17048132478E+00  0.17048132478E+00  0.00000000000E+00 0.  1.
          2    1    1    2  501    0 -0.18909301948E+02 -0.11866593753E+02  0.14563231647E+04  0.14564942628E+04  0.00000000000E+00 0. -1.
          1    1    1    2  502    0  0.18909301948E+02  0.11866593753E+02  0.14669014705E+04  0.14670713350E+04  0.00000000000E+00 0.  1.
</event>
<event>
 4    1  0.3767413E+003  0.2591034E+02  0.7546771E-02  0.1458872E+00
          2   -1    0    0  502    0  0.00000000000E+00  0.00000000000E+00  0.11507067047E+04  0.11507067047E+04  0.00000000000E+00 0. -1.
          1   -1    0    0  501    0 -0.00000000000E+00 -0.00000000000E+00 -0.11598978113E+03  0.11598978113E+03  0.00000000000E+00 0. -1.
          2    1    1    2  501    0 -0.18085055513E+02 -0.18554683033E+02  0.11491118488E+04  0.11494039267E+04  0.00000000000E+00 0. -1.
          1    1    1    2  502    0  0.18085055513E+02  0.18554683033E+02 -0.11439492529E+03  0.11729255913E+03  0.00000000000E+00 0. -1.
</event>
<event>
 4    1  0.3767413E+003  0.2570686E+02  0.7546771E-02  0.1461049E+00
          2   -1    0    0  502    0  0.00000000000E+00  0.00000000000E+00  0.34278808547E+01  0.34278808547E+01  0.00000000000E+00 0. -1.
          1   -1    0    0  501    0 -0.00000000000E+00 -0.00000000000E+00 -0.81258524442E+03  0.81258524442E+03  0.00000000000E+00 0. -1.
          2    1    1    2  501    0 -0.22975126495E+02  0.11531953800E+02 -0.48243486886E+02  0.54665129862E+02  0.00000000000E+00 0. -1.
          1    1    1    2  502    0  0.22975126495E+02 -0.11531953800E+02 -0.76091387668E+03  0.76134799541E+03  0.00000000000E+00 0. -1.
</event>
<event>
 4    1  0.3767413E+003  0.5802648E+02  0.7546771E-02  0.1266689E+00
          2   -1    0    0  502    0  0.00000000000E+00  0.00000000000E+00  0.38403530764E+01  0.38403530764E+01  0.00000000000E+00 0. -1.
          1   -1    0    0  501    0 -0.00000000000E+00 -0.00000000000E+00 -0.98913417822E+03  0.98913417822E+03  0.00000000000E+00 0. -1.
          2    1    1    2  501    0  0.17453699061E+02 -0.55339320979E+02 -0.32530230830E+03  0.33043708000E+03  0.00000000000E+00 0. -1.
          1    1    1    2  502    0 -0.17453699061E+02  0.55339320979E+02 -0.65999151685E+03  0.66253745130E+03  0.00000000000E+00 0. -1.
</event>
<event>
 4    1  0.3767413E+003  0.2092665E+02  0.7546771E-02  0.1520315E+00
          2   -1    0    0  502    0  0.00000000000E+00  0.00000000000E+00  0.60952319018E+01  0.60952319018E+01  0.00000000000E+00 0. -1.
          1   -1    0    0  501    0 -0.00000000000E+00 -0.00000000000E+00 -0.37592496625E+03  0.37592496625E+03  0.00000000000E+00 0. -1.
          2    1    1    2  501    0  0.15511158376E+02 -0.14047370254E+02 -0.13124756162E+02  0.24701900120E+02  0.00000000000E+00 0. -1.
          1    1    1    2  502    0 -0.15511158376E+02  0.14047370254E+02 -0.35670497819E+03  0.35731829803E+03  0.00000000000E+00 0. -1.
</event>
<event>
 4    1  0.3767413E+003  0.2923979E+02  0.7546771E-02  0.1426320E+00
          2   -1    0    0  502    0  0.00000000000E+00  0.00000000000E+00  0.48554374311E+02  0.48554374311E+02  0.00000000000E+00 0.  1.
          1   -1    0    0  501    0 -0.00000000000E+00 -0.00000000000E+00 -0.59492061971E+03  0.59492061971E+03  0.00000000000E+00 0.  1.
          2    1    1    2  501    0 -0.28263240862E+02 -0.74936154232E+01  0.43757233328E+02  0.52627564305E+02  0.00000000000E+00 0.  1.
          1    1    1    2  502    0  0.28263240862E+02  0.74936154232E+01 -0.59012347872E+03  0.59084742971E+03  0.00000000000E+00 0.  1.
</event>
<event>
 4    1  0.3767413E+003  0.2483739E+02  0.7546771E-02  0.1470631E+00
          2   -1    0    0  502    0  0.00000000000E+00  0.00000000000E+00  0.69391146240E+03  0.69391146240E+03  0.00000000000E+00 0. -1.
          1   -1    0    0  501    0 -0.00000000000E+00 -0.00000000000E+00 -0.60192440935E+02  0.60192440935E+02  0.00000000000E+00 0. -1.
          2    1    1    2  501    0  0.14663234250E+02  0.20047082349E+02  0.69111666949E+03  0.69156282925E+03  0.00000000000E+00 0. -1.
          1    1    1    2  502    0 -0.14663234250E+02 -0.20047082349E+02 -0.57397648024E+02  0.62541074088E+02  0.00000000000E+00 0. -1.
</event>
<event>
 4    1  0.3767413E+003  0.3790501E+02  0.7546771E-02  0.1361220E+00
          2   -1    0    0  502    0  0.00000000000E+00  0.00000000000E+00  0.12147595582E+03  0.12147595582E+03  0.00000000000E+00 0. -1.
          1   -1    0    0  501    0 -0.00000000000E+00 -0.00000000000E+00 -0.14346147463E+02  0.14346147463E+02  0.00000000000E+00 0.  1.
          2    1    1    2  501    0 -0.37767567117E+02  0.32249906431E+01  0.82018241013E+02  0.90353647128E+02  0.00000000000E+00 0. -1.
          1    1    1    2  502    0  0.37767567117E+02 -0.32249906431E+01  0.25111567342E+02  0.45468456153E+02  0.00000000000E+00 0.  1.
</event>
<event>
 4    1  0.3767413E+003  0.3359503E+02  0.7546771E-02  0.1390719E+00
          2   -1    0    0  502    0  0.00000000000E+00  0.00000000000E+00  0.71865768883E+01  0.71865768883E+01  0.00000000000E+00 0. -1.
          1   -1    0    0  501    0 -0.00000000000E+00 -0.00000000000E+00 -0.25527156532E+03  0.25527156532E+03  0.00000000000E+00 0. -1.
          2    1    1    2  501    0 -0.26214197078E+02  0.21010517690E+02 -0.42639527582E+02  0.54284024303E+02  0.00000000000E+00 0. -1.
          1    1    1    2  502    0  0.26214197078E+02 -0.21010517690E+02 -0.20544546085E+03  0.20817411791E+03  0.00000000000E+00 0. -1.
</event>
<event>
 4    1  0.3767413E+003  0.2322841E+02  0.7546771E-02  0.1489650E+00
          2   -1    0    0  502    0  0.00000000000E+00  0.00000000000E+00  0.10847290907E+01  0.10847290907E+01  0.00000000000E+00 0.  1.
          1   -1    0    0  501    0 -0.00000000000E+00 -0.00000000000E+00 -0.50717574957E+03  0.50717574957E+03  0.00000000000E+00 0.  1.
          2    1    1    2  501    0 -0.22791383561E+02  0.44845563288E+01 -0.28830385923E+03  0.28923809164E+03  0.00000000000E+00 0.  1.
          1    1    1    2  502    0  0.22791383561E+02 -0.44845563288E+01 -0.21778716125E+03  0.21902238702E+03  0.00000000000E+00 0.  1.
</event>
<event>
 4    1  0.3767413E+003  0.3559628E+02  0.7546771E-02  0.1376419E+00
          2   -1    0    0  502    0  0.00000000000E+00  0.00000000000E+00  0.19819409349E+03  0.19819409349E+03  0.00000000000E+00 0.  1.
          1   -1    0    0  501    0 -0.00000000000E+00 -0.00000000000E+00 -0.14736932197E+04  0.14736932197E+04  0.00000000000E+00 0. -1.
          2    1    1    2  501    0 -0.31855937383E+02 -0.15883777233E+02  0.19637886951E+03  0.19957894557E+03  0.00000000000E+00 0.  1.
          1    1    1    2  502    0  0.31855937383E+02  0.15883777233E+02 -0.14718779957E+04  0.14723083676E+04  0.00000000000E+00 0. -1.
</event>
<event>
 4    1  0.3767413E+003  0.6889666E+02  0.7546771E-02  0.1232273E+00
          2   -1    0    0  502    0  0.00000000000E+00  0.00000000000E+00  0.95437736944E+03  0.95437736944E+03  0.00000000000E+00 0.  1.
          1   -1    0    0  501    0 -0.00000000000E+00 -0.00000000000E+00 -0.12092691300E+02  0.12092691300E+02  0.00000000000E+00 0. -1.
          2    1    1    2  501    0 -0.68600238272E+02 -0.63841077886E+01  0.84191469468E+03  0.84472901137E+03  0.00000000000E+00 0.  1.
          1    1    1    2  502    0  0.68600238272E+02  0.63841077886E+01  0.10036998346E+03  0.12174104938E+03  0.00000000000E+00 0. -1.
</event>
<event>
 4    1  0.3767413E+003  0.2691491E+02  0.7546771E-02  0.1448465E+00
          2   -1    0    0  502    0  0.00000000000E+00  0.00000000000E+00  0.33289390159E+02  0.33289390159E+02  0.00000000000E+00 0.  1.
          1   -1    0    0  501    0 -0.00000000000E+00 -0.00000000000E+00 -0.15897840548E+03  0.15897840548E+03  0.00000000000E+00 0.  1.
          2    1    1    2  501    0  0.26285318803E+02  0.57874291466E+01  0.26467940564E+02  0.37748697969E+02  0.00000000000E+00 0.  1.
          1    1    1    2  502    0 -0.26285318803E+02 -0.57874291466E+01 -0.15215695588E+03  0.15451909767E+03  0.00000000000E+00 0.  1.
</event>
<event>
 4    1  0.3767413E+003  0.2519445E+02  0.7546771E-02  0.1466640E+00
          2   -1    0    0  502    0  0.00000000000E+00  0.00000000000E+00  0.69581578030E+01  0.69581578030E+01  0.00000000000E+00 0.  1.
          1   -1    0    0  501    0 -0.00000000000E+00 -0.00000000000E+00 -0.11140199162E+03  0.11140199162E+03  0.00000000000E+00 0.  1.
          2    1    1    2  501    0  0.35785006277E+01 -0.24939021317E+02 -0.27036255341E+02  0.36955643058E+02  0.00000000000E+00 0.  1.
          1    1    1    2  502    0 -0.35785006277E+01  0.24939021317E+02 -0.77407578473E+02  0.81404506362E+02  0.00000000000E+00 0.  1.
</event>
<event>
 4    1  0.3767413E+003  0.3272163E+02  0.7546771E-02  0.1397330E+00
          2   -1    0    0  502    0  0.00000000000E+00  0.00000000000E+00  0.79982142719E+02  0.79982142719E+02  0.00000000000E+00 0. -1.
          1   -1    0    0  501    0 -0.00000000000E+00 -0.00000000000E+00 -0.16427766122E+03  0.16427766122E+03  0.00000000000E+00 0. -1.
          2    1    1    2  501    0  0.29835790844E+02  0.13436181622E+02  0.74900299026E+02  0.81735917356E+02  0.00000000000E+00 0. -1.
          1    1    1    2  502    0 -0.29835790844E+02 -0.13436181622E+02 -0.15919581753E+03  0.16252388658E+03  0.00000000000E+00 0. -1.
</event>
<event>
 4    1  0.3767413E+003  0.2042797E+02  0.7546771E-02  0.1527591E+00
          2   -1    0    0  502    0  0.00000000000E+00  0.00000000000E+00  0.93235906431E+02  0.93235906431E+02  0.00000000000E+00 0.  1.
          1   -1    0    0  501    0 -0.00000000000E+00 -0.00000000000E+00 -0.15797714762E+02  0.15797714762E+02  0.00000000000E+00 0.  1.
          2    1    1    2  501    0  0.20212766541E+02  0.29573608622E+01  0.84871458324E+02  0.87295282533E+02  0.00000000000E+00 0.  1.
          1    1    1    2  502    0 -0.20212766541E+02 -0.29573608622E+01 -0.74332666546E+01  0.21738338660E+02  0.00000000000E+00 0.  1.
</event>
<event>
 4    1  0.3767413E+003  0.2002951E+02  0.7546771E-02  0.1533585E+00
          2   -1    0    0  502    0  0.00000000000E+00  0.00000000000E+00  0.10885761843E+04  0.10885761843E+04  0.00000000000E+00 0. -1.
          1   -1    0    0  501    0 -0.00000000000E+00 -0.00000000000E+00 -0.24371503587E+02  0.24371503587E+02  0.00000000000E+00 0. -1.
          2    1    1    2  501    0 -0.54306127763E+01 -0.19279261047E+02  0.10843527507E+04  0.10845377215E+04  0.00000000000E+00 0. -1.
          1    1    1    2  502    0  0.54306127763E+01  0.19279261047E+02 -0.20148070015E+02  0.28409966332E+02  0.00000000000E+00 0. -1.
</event>
<event>
 4    1  0.3767413E+003  0.1041173E+03  0.7546771E-02  0.1156859E+00
          2   -1    0    0  502    0  0.00000000000E+00  0.00000000000E+00  0.93687011137E+02  0.93687011137E+02  0.00000000000E+00 0. -1.
          1   -1    0    0  501    0 -0.00000000000E+00 -0.00000000000E+00 -0.12422941239E+04  0.12422941239E+04  0.00000000000E+00 0.  1.
          2    1    1    2  501    0  0.62456825392E+02  0.83303952274E+02  0.61818092338E+02  0.12108625043E+03  0.00000000000E+00 0. -1.
          1    1    1    2  502    0 -0.62456825392E+02 -0.83303952274E+02 -0.12104252051E+04  0.12148948847E+04  0.00000000000E+00 0.  1.
</event>
<event>
 4    1  0.3767413E+003  0.3155977E+02  0.7546771E-02  0.1406510E+00
          2   -1    0    0  502    0  0.00000000000E+00  0.00000000000E+00  0.21594545135E+02  0.21594545135E+02  0.00000000000E+00 0. -1.
          1   -1    0    0  501    0 -0.00000000000E+00 -0.00000000000E+00 -0.75251333141E+03  0.75251333141E+03  0.00000000000E+00 0.  1.
          2    1    1    2  501    0  0.29939287883E+02  0.99828795495E+01  0.95451858021E+01  0.32971645623E+02  0.00000000000E+00 0. -1.
          1    1    1    2  502    0 -0.29939287883E+02 -0.99828795495E+01 -0.74046397207E+03  0.74113623092E+03  0.00000000000E+00 0.  1.
</event>
<event>
 4    1  0.3767413E+003  0.4341062E+02  0.7546771E-02  0.1329581E+00
          2   -1    0    0  502    0  0.00000000000E+00  0.00000000000E+00  0.56299699406E+03  0.56299699406E+03  0.00000000000E+00 0. -1.
          1   -1    0    0  501    0 -0.00000000000E+00 -0.00000000000E+00 -0.39139965618E+02  0.39139965618E+02  0.00000000000E+00 0.  1.
          2    1    1    2  501    0 -0.37535309901E+02 -0.21807860047E+02  0.54983569473E+03  0.55154671012E+03  0.00000000000E+00 0. -1.
          1    1    1    2  502    0  0.37535309901E+02  0.21807860047E+02 -0.25978666280E+02  0.50590249563E+02  0.00000000000E+00 0.  1.
</event>
<event>
 4    1  0.3767413E+003  0.2501735E+02  0.7546771E-02  0.1468609E+00
          2   -1    0    0  502    0  0.00000000000E+00  0.00000000000E+00  0.25409063929E+01  0.25409063929E+01  0.00000000000E+00 0. -1.
          1   -1    0    0  501    0 -0.00000000000E+00 -0.00000000000E+00 -0.55998539870E+03  0.55998539870E+03  0.00000000000E+00 0.  1.
          2    1    1    2  501    0  0.48125961751E+01  0.24550089044E+02 -0.68218414939E+02  0.72660994287E+02  0.00000000000E+00 0. -1.
          1    1    1    2  502    0 -0.48125961751E+01 -0.24550089044E+02 -0.48922607737E+03  0.48986531080E+03  0.00000000000E+00 0.  1.
</event>
<event>
 4    1  0.3767413E+003  0.2579898E+02  0.7546771E-02  0.1460060E+00
          2   -1    0    0  502    0  0.00000000000E+00  0.00000000000E+00  0.15704931551E+04  0.15704931551E+04  0.00000000000E+00 0. -1.
          1   -1    0    0  501    0 -0.00000000000E+00 -0.00000000000E+00 -0.14821930038E+03  0.14821930038E+03  0.00000000000E+00 0. -1.
          2    1    1    2  501    0 -0.17308012763E+02  0.19131651268E+02  0.15692636841E+04  0.15694757398E+04  0.00000000000E+00 0. -1.
          1    1    1    2  502    0  0.17308012763E+02 -0.19131651268E+02 -0.14698982937E+03  0.14923671574E+03  0.00000000000E+00 0. -1.
</event>
<event>
 4    1  0.3767413E+003  0.2059662E+02  0.7546771E-02  0.1525103E+00
          2   -1    0    0  502    0  0.00000000000E+00  0.00000000000E+00  0.24783051907E+03  0.24783051907E+03  0.00000000000E+00 0.  1.
          1   -1    0    0  501    0 -0.00000000000E+00 -0.00000000000E+00 -0.15409100066E+02  0.15409100066E+02  0.00000000000E+00 0.  1.
          2    1    1    2  501    0 -0.20394287509E+02 -0.28798980530E+01  0.24030479911E+03  0.24118585624E+03  0.00000000000E+00 0.  1.
          1    1    1    2  502    0  0.20394287509E+02  0.28798980530E+01 -0.78833801068E+01  0.22053762892E+02  0.00000000000E+00 0.  1.
</event>
<event>
 4    1  0.3767413E+003  0.3040400E+02  0.7546771E-02  0.1416118E+00
          2   -1    0    0  502    0  0.00000000000E+00  0.00000000000E+00  0.73267089219E+03  0.73267089219E+03  0.00000000000E+00 0.  1.
          1   -1    0    0  501    0 -0.00000000000E+00 -0.00000000000E+00 -0.11076919037E+03  0.11076919037E+03  0.00000000000E+00 0.  1.
          2    1    1    2  501    0  0.30190680137E+02 -0.35952969170E+01  0.73026226368E+03  0.73089491521E+03  0.00000000000E+00 0.  1.
          1    1    1    2  502    0 -0.30190680137E+02  0.35952969170E+01 -0.10836056186E+03  0.11254516735E+03  0.00000000000E+00 0.  1.
</event>
<event>
 4    1  0.3767413E+003  0.2097165E+02  0.7546771E-02  0.1519670E+00
          2   -1    0    0  502    0  0.00000000000E+00  0.00000000000E+00  0.42409365124E+03  0.42409365124E+03  0.00000000000E+00 0. -1.
          1   -1    0    0  501    0 -0.00000000000E+00 -0.00000000000E+00 -0.96240109226E+02  0.96240109226E+02  0.00000000000E+00 0.  1.
          2    1    1    2  501    0 -0.17697846857E+02 -0.11251502387E+02  0.42268810855E+03  0.42320804246E+03  0.00000000000E+00 0. -1.
          1    1    1    2  502    0  0.17697846857E+02  0.11251502387E+02 -0.94834566535E+02  0.97125718011E+02  0.00000000000E+00 0.  1.
</event>
<event>
 4    1  0.3767413E+003  0.2488865E+02  0.7546771E-02  0.1470053E+00
          2   -1    0    0  502    0  0.00000000000E+00  0.00000000000E+00  0.78091800146E+01  0.78091800146E+01  0.00000000000E+00 0. -1.
          1   -1    0    0  501    0 -0.00000000000E+00 -0.00000000000E+00 -0.19421901811E+03  0.19421901811E+03  0.00000000000E+00 0. -1.
          2    1    1    2  501    0 -0.70103906862E+01 -0.23880944612E+02 -0.15510609786E+02  0.29326167650E+02  0.00000000000E+00 0. -1.
          1    1    1    2  502    0  0.70103906862E+01  0.23880944612E+02 -0.17089922831E+03  0.17270203048E+03  0.00000000000E+00 0. -1.
</event>
<event>
 4    1  0.3767413E+003  0.4691516E+02  0.7546771E-02  0.1312131E+00
          2   -1    0    0  502    0  0.00000000000E+00  0.00000000000E+00  0.84129646576E+01  0.84129646576E+01  0.00000000000E+00 0. -1.
          1   -1    0    0  501    0 -0.00000000000E+00 -0.00000000000E+00 -0.26214475520E+03  0.26214475520E+03  0.00000000000E+00 0. -1.
          2    1    1    2  501    0 -0.36085968946E+02 -0.29980579523E+02 -0.12083566696E+03  0.12962365028E+03  0.00000000000E+00 0. -1.
          1    1    1    2  502    0  0.36085968946E+02  0.29980579523E+02 -0.13289612358E+03  0.14093406957E+03  0.00000000000E+00 0. -1.
</event>
<event>
 4    1  0.3767413E+003  0.3150316E+02  0.7546771E-02  0.1406969E+00
          2   -1    0    0  502    0  0.00000000000E+00  0.00000000000E+00  0.22276593811E+04  0.22276593811E+04  0.00000000000E+00 0.  1.
          1   -1    0    0  501    0 -0.00000000000E+00 -0.00000000000E+00 -0.23990373843E+01  0.23990373843E+01  0.00000000000E+00 0. -1.
          2    1    1    2  501    0  0.29290458790E+02  0.11598206362E+02  0.21188138008E+04  0.21190479872E+04  0.00000000000E+00 0.  1.
          1    1    1    2  502    0 -0.29290458790E+02 -0.11598206362E+02  0.10644654288E+03  0.11101043131E+03  0.00000000000E+00 0. -1.
</event>
<event>
 4    1  0.3767413E+003  0.2529836E+02  0.7546771E-02  0.1465493E+00
          2   -1    0    0  502    0  0.00000000000E+00  0.00000000000E+00  0.71986173895E+01  0.71986173895E+01  0.00000000000E+00 0. -1.
          1   -1    0    0  501    0 -0.00000000000E+00 -0.00000000000E+00 -0.72861780309E+03  0.72861780309E+03  0.00000000000E+00 0. -1.
          2    1    1    2  501    0  0.23024447043E+02  0.10482453851E+02 -0.15977706946E+02  0.29921465867E+02  0.00000000000E+00 0. -1.
          1    1    1    2  502    0 -0.23024447043E+02 -0.10482453851E+02 -0.70544147876E+03  0.70589495462E+03  0.00000000000E+00 0. -1.
</event>
<event>
 4    1  0.3767413E+003  0.2029106E+02  0.7546771E-02  0.1529632E+00
          2   -1    0    0  502    0  0.00000000000E+00  0.00000000000E+00  0.15861637544E+03  0.15861637544E+03  0.00000000000E+00 0.  1.
          1   -1    0    0  501    0 -0.00000000000E+00 -0.00000000000E+00 -0.26279106140E+03  0.26279106140E+03  0.00000000000E+00 0.  1.
          2    1    1    2  501    0  0.20290374802E+02 -0.16725710870E+00  0.15757317038E+03  0.15887426258E+03  0.00000000000E+00 0.  1.
          1    1    1    2  502    0 -0.20290374802E+02  0.16725710870E+00 -0.26174785634E+03  0.26253317426E+03  0.00000000000E+00 0.  1.
</event>
<event>
 4    1  0.3767413E+003  0.2617839E+02  0.7546771E-02  0.1456041E+00
          2   -1    0    0  502    0  0.00000000000E+00  0.00000000000E+00  0.10754735840E+03  0.10754735840E+03  0.00000000000E+00 0.  1.
          1   -1    0    0  501    0 -0.00000000000E+00 -0.00000000000E+00 -0.15061578572E+02  0.15061578572E+02  0.00000000000E+00 0.  1.
          2    1    1    2  501    0 -0.20827817452E+02 -0.15859072776E+02  0.92807120562E+02  0.96428573546E+02  0.00000000000E+00 0.  1.
          1    1    1    2  502    0  0.20827817452E+02  0.15859072776E+02 -0.32134073638E+00  0.26180363424E+02  0.00000000000E+00 0.  1.
</event>
<event>
 4    1  0.3767413E+003  0.2317720E+02  0.7546771E-02  0.1490285E+00
          2   -1    0    0  502    0  0.00000000000E+00  0.00000000000E+00  0.31209893545E+03  0.31209893545E+03  0.00000000000E+00 0.  1.
          1   -1    0    0  501    0 -0.00000000000E+00 -0.00000000000E+00 -0.13604778049E+03  0.13604778049E+03  0.00000000000E+00 0. -1.
          2    1    1    2  501    0 -0.17928657941E+02 -0.14688286674E+02  0.31067700440E+03  0.31154034025E+03  0.00000000000E+00 0.  1.
          1    1    1    2  502    0  0.17928657941E+02  0.14688286674E+02 -0.13462584944E+03  0.13660637569E+03  0.00000000000E+00 0. -1.
</event>
<event>
 4    1  0.3767413E+003  0.2000266E+02  0.7546771E-02  0.1533995E+00
          2   -1    0    0  502    0  0.00000000000E+00  0.00000000000E+00  0.17493750186E+03  0.17493750186E+03  0.00000000000E+00 0. -1.
          1   -1    0    0  501    0 -0.00000000000E+00 -0.00000000000E+00 -0.36068322419E+01  0.36068322419E+01  0.00000000000E+00 0.  1.
          2    1    1    2  501    0 -0.16314868611E+02  0.11572875114E+02  0.13966481864E+03  0.14108992856E+03  0.00000000000E+00 0. -1.
          1    1    1    2  502    0  0.16314868611E+02 -0.11572875114E+02  0.31665850986E+02  0.37454405547E+02  0.00000000000E+00 0.  1.
</event>
<event>
 4    1  0.3767413E+003  0.2018938E+02  0.7546771E-02  0.1531160E+00
          2   -1    0    0  502    0  0.00000000000E+00  0.00000000000E+00  0.73836911838E+01  0.73836911838E+01  0.00000000000E+00 0.  1.
          1   -1    0    0  501    0 -0.00000000000E+00 -0.00000000000E+00 -0.23076925175E+03  0.23076925175E+03  0.00000000000E+00 0. -1.
          2    1    1    2  501    0 -0.19887246097E+02 -0.34797002917E+01 -0.78309425941E+01  0.21654896290E+02  0.00000000000E+00 0.  1.
          1    1    1    2  502    0  0.19887246097E+02  0.34797002917E+01 -0.21555461797E+03  0.21649804664E+03  0.00000000000E+00 0. -1.
</event>
<event>
 4    1  0.3767413E+003  0.3453338E+02  0.7546771E-02  0.1383874E+00
          2   -1    0    0  502    0  0.00000000000E+00  0.00000000000E+00  0.15849861750E+02  0.15849861750E+02  0.00000000000E+00 0.  1.
          1   -1    0    0  501    0 -0.00000000000E+00 -0.00000000000E+00 -0.19937498443E+04  0.19937498443E+04  0.00000000000E+00 0.  1.
          2    1    1    2  501    0  0.28857949957E+01  0.34412594273E+02 -0.32921798574E+01  0.34689953958E+02  0.00000000000E+00 0.  1.
          1    1    1    2  502    0 -0.28857949957E+01 -0.34412594273E+02 -0.19746078027E+04  0.19749097521E+04  0.00000000000E+00 0.  1.
</event>
<event>
 4    1  0.3767413E+003  0.2070185E+02  0.7546771E-02  0.1523565E+00
          2   -1    0    0  502    0  0.00000000000E+00  0.00000000000E+00  0.30122620683E+02  0.30122620683E+02  0.00000000000E+00 0.  1.
          1   -1    0    0  501    0 -0.00000000000E+00 -0.00000000000E+00 -0.18631005517E+03  0.18631005517E+03  0.00000000000E+00 0. -1.
          2    1    1    2  501    0  0.20535494278E+02  0.26191866842E+01  0.25908651631E+02  0.33163607968E+02  0.00000000000E+00 0.  1.
          1    1    1    2  502    0 -0.20535494278E+02 -0.26191866842E+01 -0.18209608611E+03  0.18326906788E+03  0.00000000000E+00 0. -1.
</event>
<event>
 4    1  0.3767413E+003  0.2085251E+02  0.7546771E-02  0.1521381E+00
          2   -1    0    0  502    0  0.00000000000E+00  0.00000000000E+00  0.17464507999E+02  0.17464507999E+02  0.00000000000E+00 0. -1.
          1   -1    0    0  501    0 -0.00000000000E+00 -0.00000000000E+00 -0.26919816829E+02  0.26919816829E+02  0.00000000000E+00 0. -1.
          2    1    1    2  501    0 -0.17716857100E+02 -0.10997286623E+02  0.13545212568E+01  0.20896460619E+02  0.00000000000E+00 0. -1.
          1    1    1    2  502    0  0.17716857100E+02  0.10997286623E+02 -0.10809830087E+02  0.23487864209E+02  0.00000000000E+00 0. -1.
</event>
<event>
 4    1  0.3767413E+003  0.4671270E+02  0.7546771E-02  0.1313091E+00
          2   -1    0    0  502    0  0.00000000000E+00  0.00000000000E+00  0.47436577204E+01  0.47436577204E+01  0.00000000000E+00 0. -1.
          1   -1    0    0  501    0 -0.00000000000E+00 -0.00000000000E+00 -0.14953993717E+04  0.14953993717E+04  0.00000000000E+00 0.  1.
          2    1    1    2  501    0  0.45497571238E+02  0.10585243688E+02 -0.12119320186E+03  0.12988405810E+03  0.00000000000E+00 0. -1.
          1    1    1    2  502    0 -0.45497571238E+02 -0.10585243688E+02 -0.13694625121E+04  0.13702589713E+04  0.00000000000E+00 0.  1.
</event>
<event>
 4    1  0.3767413E+003  0.2367733E+02  0.7546771E-02  0.1484164E+00
          2   -1    0    0  502    0  0.00000000000E+00  0.00000000000E+00  0.44550513773E+03  0.44550513773E+03  0.00000000000E+00 0. -1.
          1   -1    0    0  501    0 -0.00000000000E+00 -0.00000000000E+00 -0.78195765004E+01  0.78195765004E+01  0.00000000000E+00 0.  1.
          2    1    1    2  501    0  0.75012232102E+01  0.22457689545E+02  0.42646756843E+03  0.42712434149E+03  0.00000000000E+00 0. -1.
          1    1    1    2  502    0 -0.75012232102E+01 -0.22457689545E+02  0.11217992799E+02  0.26200372741E+02  0.00000000000E+00 0.  1.
</event>
<event>
 4    1  0.3767413E+003  0.3310618E+02  0.7546771E-02  0.1394389E+00
          2   -1    0    0  502    0  0.00000000000E+00  0.00000000000E+00  0.17268776171E+03  0.17268776171E+03  0.00000000000E+00 0.  1.
          1   -1    0    0  501    0 -0.00000000000E+00 -0.00000000000E+00 -0.68360121182E+03  0.68360121182E+03  0.00000000000E+00 0.  1.
          2    1    1    2  501    0  0.24156295124E+02  0.22638295081E+02  0.17069559524E+03  0.17387640792E+03  0.00000000000E+00 0.  1.
          1    1    1    2  502    0 -0.24156295124E+02 -0.22638295081E+02 -0.68160904535E+03  0.68241256561E+03  0.00000000000E+00 0.  1.
</event>
<event>
 4    1  0.3767413E+003  0.2048084E+02  0.7546771E-02  0.1526808E+00
          2   -1    0    0  502    0  0.00000000000E+00  0.00000000000E+00  0.75659648799E+03  0.75659648799E+03  0.00000000000E+00 0. -1.
          1   -1    0    0  501    0 -0.00000000000E+00 -0.00000000000E+00 -0.13183627636E+02  0.13183627636E+02  0.00000000000E+00 0.  1.
          2    1    1    2  501    0  0.20016282918E+02  0.43374344043E+01  0.74841668834E+03  0.74869687077E+03  0.00000000000E+00 0. -1.
          1    1    1    2  502    0 -0.20016282918E+02 -0.43374344043E+01 -0.50038279845E+01  0.21083244854E+02  0.00000000000E+00 0.  1.
</event>
<event>
 4    1  0.3767413E+003  0.2224136E+02  0.7546771E-02  0.1502251E+00
          2   -1    0    0  502    0  0.00000000000E+00  0.00000000000E+00  0.43492595220E+03  0.43492595220E+03  0.00000000000E+00 0. -1.
          1   -1    0    0  501    0 -0.00000000000E+00 -0.00000000000E+00 -0.12056925438E+01  0.12056925438E+01  0.00000000000E+00 0. -1.
          2    1    1    2  501    0  0.87612258919E+01 -0.20443072619E+02  0.26876442953E+03  0.26968314163E+03  0.00000000000E+00 0. -1.
          1    1    1    2  502    0 -0.87612258919E+01  0.20443072619E+02  0.16495583013E+03  0.16644850312E+03  0.00000000000E+00 0. -1.
</event>
<event>
 4    1  0.3767413E+003  0.2918744E+02  0.7546771E-02  0.1426791E+00
          2   -1    0    0  502    0  0.00000000000E+00  0.00000000000E+00  0.19178590348E+03  0.19178590348E+03  0.00000000000E+00 0. -1.
          1   -1    0    0  501    0 -0.00000000000E+00 -0.00000000000E+00 -0.76248073814E+01  0.76248073814E+01  0.00000000000E+00 0. -1.
          2    1    1    2  501    0  0.28853630234E+02 -0.44016831945E+01  0.15649916969E+03  0.15919766615E+03  0.00000000000E+00 0. -1.
          1    1    1    2  502    0 -0.28853630234E+02  0.44016831945E+01  0.27661926406E+02  0.40213044713E+02  0.00000000000E+00 0. -1.
</event>
<event>
 4    1  0.3767413E+003  0.2135554E+02  0.7546771E-02  0.1514249E+00
          2   -1    0    0  502    0  0.00000000000E+00  0.00000000000E+00  0.14110251359E+03  0.14110251359E+03  0.00000000000E+00 0. -1.
          1   -1    0    0  501    0 -0.00000000000E+00 -0.00000000000E+00 -0.49408976603E+02  0.49408976603E+02  0.00000000000E+00 0. -1.
          2    1    1    2  501    0  0.10590494422E+02  0.18544555825E+02  0.13793422333E+03  0.13957760955E+03  0.00000000000E+00 0. -1.
          1    1    1    2  502    0 -0.10590494422E+02 -0.18544555825E+02 -0.46240686347E+02  0.50933880636E+02  0.00000000000E+00 0. -1.
</event>
<event>
 4    1  0.3840904E+003  0.2298141E+02  0.7546771E-02  0.1492732E+00
          2   -1    0    0  502    0  0.00000000000E+00  0.00000000000E+00  0.11654126847E+04  0.11654126847E+04  0.00000000000E+00 0.  1.
          1   -1    0    0  501    0 -0.00000000000E+00 -0.00000000000E+00 -0.47457106487E+03  0.47457106487E+03  0.00000000000E+00 0. -1.
          2    1    1    2  501    0 -0.12672007180E+02  0.19171997686E+02  0.11650210730E+04  0.11652477186E+04  0.00000000000E+00 0.  1.
          1    1    1    2  502    0  0.12672007180E+02 -0.19171997686E+02 -0.47417945317E+03  0.47473603093E+03  0.00000000000E+00 0. -1.
</event>
<event>
 4    1  0.3767413E+003  0.2979250E+02  0.7546771E-02  0.1421408E+00
          2   -1    0    0  502    0  0.00000000000E+00  0.00000000000E+00  0.45087989542E+03  0.45087989542E+03  0.00000000000E+00 0.  1.
          1   -1    0    0  501    0 -0.00000000000E+00 -0.00000000000E+00 -0.80770134935E+01  0.80770134935E+01  0.00000000000E+00 0.  1.
          2    1    1    2  501    0  0.29006238574E+02  0.67993673807E+01  0.42096508556E+03  0.42201800499E+03  0.00000000000E+00 0.  1.
          1    1    1    2  502    0 -0.29006238574E+02 -0.67993673807E+01  0.21837796362E+02  0.36938903921E+02  0.00000000000E+00 0.  1.
</event>
<event>
 4    1  0.3767413E+003  0.6259838E+02  0.7546771E-02  0.1251251E+00
          2   -1    0    0  502    0  0.00000000000E+00  0.00000000000E+00  0.29594107609E+03  0.29594107609E+03  0.00000000000E+00 0.  1.
          1   -1    0    0  501    0 -0.00000000000E+00 -0.00000000000E+00 -0.66365607929E+02  0.66365607929E+02  0.00000000000E+00 0.  1.
          2    1    1    2  501    0 -0.94361506833E+01 -0.61883084839E+02  0.27686520917E+03  0.28385366155E+03  0.00000000000E+00 0.  1.
          1    1    1    2  502    0  0.94361506833E+01  0.61883084839E+02 -0.47289741011E+02  0.78453022464E+02  0.00000000000E+00 0.  1.
</event>
<event>
 4    1  0.3767413E+003  0.5155750E+02  0.7546771E-02  0.1291557E+00
          2   -1    0    0  502    0  0.00000000000E+00  0.00000000000E+00  0.89602640458E+03  0.89602640458E+03  0.00000000000E+00 0.  1.
          1   -1    0    0  501    0 -0.00000000000E+00 -0.00000000000E+00 -0.16406677405E+02  0.16406677405E+02  0.00000000000E+00 0. -1.
          2    1    1    2  501    0  0.28744948390E+02  0.42800741469E+02  0.85272534622E+03  0.85428255958E+03  0.00000000000E+00 0.  1.
          1    1    1    2  502    0 -0.28744948390E+02 -0.42800741469E+02  0.26894380954E+02  0.58150522398E+02  0.00000000000E+00 0. -1.
</event>
<event>
 4    1  0.3767413E+003  0.3771473E+02  0.7546771E-02  0.1362424E+00
          2   -1    0    0  502    0  0.00000000000E+00  0.00000000000E+00  0.22013793486E+04  0.22013793486E+04  0.00000000000E+00 0.  1.
          1   -1    0    0  501    0 -0.00000000000E+00 -0.00000000000E+00 -0.10468248085E+04  0.10468248085E+04  0.00000000000E+00 0.  1.
          2    1    1    2  501    0 -0.37422114539E+02 -0.46889340035E+01  0.22008780420E+04  0.22012011622E+04  0.00000000000E+00 0.  1.
          1    1    1    2  502    0  0.37422114539E+02  0.46889340035E+01 -0.10463235018E+04  0.10470029949E+04  0.00000000000E+00 0.  1.
</event>
<event>
 4    1  0.3767413E+003  0.2166954E+02  0.7546771E-02  0.1509916E+00
          2   -1    0    0  502    0  0.00000000000E+00  0.00000000000E+00  0.62971826090E+02  0.62971826090E+02  0.00000000000E+00 0. -1.
          1   -1    0    0  501    0 -0.00000000000E+00 -0.00000000000E+00 -0.15946592553E+02  0.15946592553E+02  0.00000000000E+00 0.  1.
          2    1    1    2  501    0 -0.30100441427E+01  0.21459466960E+02  0.52304008210E+02  0.56615177848E+02  0.00000000000E+00 0. -1.
          1    1    1    2  502    0  0.30100441427E+01 -0.21459466960E+02 -0.52787746728E+01  0.22303240796E+02  0.00000000000E+00 0.  1.
</event>
<event>
 4    1  0.3767413E+003  0.2204833E+02  0.7546771E-02  0.1504807E+00
          2   -1    0    0  502    0  0.00000000000E+00  0.00000000000E+00  0.89378746780E+02  0.89378746780E+02  0.00000000000E+00 0.  1.
          1   -1    0    0  501    0 -0.00000000000E+00 -0.00000000000E+00 -0.11373321972E+02  0.11373321972E+02  0.00000000000E+00 0.  1.
          2    1    1    2  501    0  0.51655157084E+01  0.21434699715E+02  0.75391427607E+02  0.78549323746E+02  0.00000000000E+00 0.  1.
          1    1    1    2  502    0 -0.51655157084E+01 -0.21434699715E+02  0.26139972014E+01  0.22202745006E+02  0.00000000000E+00 0.  1.
</event>
<event>
 4    1  0.3767413E+003  0.2663596E+02  0.7546771E-02  0.1451300E+00
          2   -1    0    0  502    0  0.00000000000E+00  0.00000000000E+00  0.39079864014E+01  0.39079864014E+01  0.00000000000E+00 0.  1.
          1   -1    0    0  501    0 -0.00000000000E+00 -0.00000000000E+00 -0.19992973480E+03  0.19992973480E+03  0.00000000000E+00 0. -1.
          2    1    1    2  501    0 -0.15280997054E+01 -0.26592091713E+02 -0.67104543042E+02  0.72197604719E+02  0.00000000000E+00 0.  1.
          1    1    1    2  502    0  0.15280997054E+01  0.26592091713E+02 -0.12891720536E+03  0.13164011648E+03  0.00000000000E+00 0. -1.
</event>
<event>
 4    1  0.3767413E+003  0.3169327E+02  0.7546771E-02  0.1405431E+00
          2   -1    0    0  502    0  0.00000000000E+00  0.00000000000E+00  0.13452089805E+03  0.13452089805E+03  0.00000000000E+00 0. -1.
          1   -1    0    0  501    0 -0.00000000000E+00 -0.00000000000E+00 -0.80084774494E+02  0.80084774494E+02  0.00000000000E+00 0.  1.
          2    1    1    2  501    0  0.30933799239E+02  0.68966285705E+01  0.12939615226E+03  0.13322097298E+03  0.00000000000E+00 0. -1.
          1    1    1    2  502    0 -0.30933799239E+02 -0.68966285705E+01 -0.74960028702E+02  0.81384699569E+02  0.00000000000E+00 0.  1.
</event>
<event>
 4    1  0.3767413E+003  0.4166227E+02  0.7546771E-02  0.1339011E+00
          2   -1    0    0  502    0  0.00000000000E+00  0.00000000000E+00  0.37198324999E+02  0.37198324999E+02  0.00000000000E+00 0. -1.
          1   -1    0    0  501    0 -0.00000000000E+00 -0.00000000000E+00 -0.51128816286E+02  0.51128816286E+02  0.00000000000E+00 0. -1.
          2    1    1    2  501    0 -0.37690374917E+02  0.17753316376E+02  0.60884988808E+01  0.42104802842E+02  0.00000000000E+00 0. -1.
          1    1    1    2  502    0  0.37690374917E+02 -0.17753316376E+02 -0.20018990168E+02  0.46222338443E+02  0.00000000000E+00 0. -1.
</event>
<event>
 4    1  0.3767413E+003  0.2203588E+02  0.7546771E-02  0.1504973E+00
          2   -1    0    0  502    0  0.00000000000E+00  0.00000000000E+00  0.79843998242E+01  0.79843998242E+01  0.00000000000E+00 0.  1.
          1   -1    0    0  501    0 -0.00000000000E+00 -0.00000000000E+00 -0.25160268518E+03  0.25160268518E+03  0.00000000000E+00 0. -1.
          2    1    1    2  501    0 -0.15942840139E+02  0.15212023431E+02 -0.87854732337E+01  0.23722654753E+02  0.00000000000E+00 0.  1.
          1    1    1    2  502    0  0.15942840139E+02 -0.15212023431E+02 -0.23483281212E+03  0.23586443025E+03  0.00000000000E+00 0. -1.
</event>
<event>
 4    1  0.3767413E+003  0.4982973E+02  0.7546771E-02  0.1298912E+00
          2   -1    0    0  502    0  0.00000000000E+00  0.00000000000E+00  0.15250991707E+02  0.15250991707E+02  0.00000000000E+00 0.  1.
          1   -1    0    0  501    0 -0.00000000000E+00 -0.00000000000E+00 -0.17659544554E+03  0.17659544554E+03  0.00000000000E+00 0.  1.
          2    1    1    2  501    0  0.47583224096E+02  0.14793193717E+02 -0.53870859034E+02  0.73383044695E+02  0.00000000000E+00 0.  1.
          1    1    1    2  502    0 -0.47583224096E+02 -0.14793193717E+02 -0.10747359480E+03  0.11846339255E+03  0.00000000000E+00 0.  1.
</event>
<event>
 4    1  0.3767413E+003  0.4529540E+02  0.7546771E-02  0.1319969E+00
          2   -1    0    0  502    0  0.00000000000E+00  0.00000000000E+00  0.35019629931E+03  0.35019629931E+03  0.00000000000E+00 0.  1.
          1   -1    0    0  501    0 -0.00000000000E+00 -0.00000000000E+00 -0.51695332025E+02  0.51695332025E+02  0.00000000000E+00 0.  1.
          2    1    1    2  501    0 -0.37226091823E+02  0.25804871969E+02  0.33846739375E+03  0.34148477266E+03  0.00000000000E+00 0.  1.
          1    1    1    2  502    0  0.37226091823E+02 -0.25804871969E+02 -0.39966426467E+02  0.60406858669E+02  0.00000000000E+00 0.  1.
</event>
<event>
 4    1  0.3767413E+003  0.2085291E+02  0.7546771E-02  0.1521375E+00
          2   -1    0    0  502    0  0.00000000000E+00  0.00000000000E+00  0.66088549512E+02  0.66088549512E+02  0.00000000000E+00 0. -1.
          1   -1    0    0  501    0 -0.00000000000E+00 -0.00000000000E+00 -0.57364674829E+02  0.57364674829E+02  0.00000000000E+00 0.  1.
          2    1    1    2  501    0 -0.10309808022E+02 -0.18125991517E+02  0.62440751085E+02  0.65830776282E+02  0.00000000000E+00 0. -1.
          1    1    1    2  502    0  0.10309808022E+02  0.18125991517E+02 -0.53716876401E+02  0.57622448058E+02  0.00000000000E+00 0.  1.
</event>
<event>
 4    1  0.3767413E+003  0.2046476E+02  0.7546771E-02  0.1527046E+00
          2   -1    0    0  502    0  0.00000000000E+00  0.00000000000E+00  0.90511136683E+03  0.90511136683E+03  0.00000000000E+00 0. -1.
          1   -1    0    0  501    0 -0.00000000000E+00 -0.00000000000E+00 -0.11839726062E+02  0.11839726062E+02  0.00000000000E+00 0.  1.
          2    1    1    2  501    0 -0.20430317775E+02  0.11867396287E+01  0.89606316203E+03  0.89629682393E+03  0.00000000000E+00 0. -1.
          1    1    1    2  502    0  0.20430317775E+02 -0.11867396287E+01 -0.27915212650E+01  0.20654268961E+02  0.00000000000E+00 0.  1.
</event>
<event>
 4    1  0.3767413E+003  0.2155279E+02  0.7546771E-02  0.1511517E+00
          2   -1    0    0  502    0  0.00000000000E+00  0.00000000000E+00  0.11204243980E+04  0.11204243980E+04  0.00000000000E+00 0.  1.
          1   -1    0    0  501    0 -0.00000000000E+00 -0.00000000000E+00 -0.91926737682E+02  0.91926737682E+02  0.00000000000E+00 0.  1.
          2    1    1    2  501    0 -0.11765407403E+02  0.18058181130E+02  0.11190559084E+04  0.11192634403E+04  0.00000000000E+00 0.  1.
          1    1    1    2  502    0  0.11765407403E+02 -0.18058181130E+02 -0.90558248122E+02  0.93087695320E+02  0.00000000000E+00 0.  1.
</event>
<event>
 4    1  0.3767413E+003  0.2191744E+02  0.7546771E-02  0.1506558E+00
          2   -1    0    0  502    0  0.00000000000E+00  0.00000000000E+00  0.67039067310E+02  0.67039067310E+02  0.00000000000E+00 0.  1.
          1   -1    0    0  501    0 -0.00000000000E+00 -0.00000000000E+00 -0.34426817448E+03  0.34426817448E+03  0.00000000000E+00 0.  1.
          2    1    1    2  501    0  0.11589710642E+02  0.18602494258E+02  0.64887579555E+02  0.68489212040E+02  0.00000000000E+00 0.  1.
          1    1    1    2  502    0 -0.11589710642E+02 -0.18602494258E+02 -0.34211668672E+03  0.34281802975E+03  0.00000000000E+00 0.  1.
</event>
<event>
 4    1  0.3767413E+003  0.2297344E+02  0.7546771E-02  0.1492832E+00
          2   -1    0    0  502    0  0.00000000000E+00  0.00000000000E+00  0.14385063718E+01  0.14385063718E+01  0.00000000000E+00 0. -1.
          1   -1    0    0  501    0 -0.00000000000E+00 -0.00000000000E+00 -0.45643508086E+03  0.45643508086E+03  0.00000000000E+00 0.  1.
          2    1    1    2  501    0 -0.85958482936E+01  0.21304704940E+02 -0.12609833424E+03  0.12817397926E+03  0.00000000000E+00 0. -1.
          1    1    1    2  502    0  0.85958482936E+01 -0.21304704940E+02 -0.32889824024E+03  0.32969960797E+03  0.00000000000E+00 0.  1.
</event>
<event>
 4    1  0.3767413E+003  0.2306369E+02  0.7546771E-02  0.1491700E+00
          2   -1    0    0  502    0  0.00000000000E+00  0.00000000000E+00  0.16260483211E+03  0.16260483211E+03  0.00000000000E+00 0.  1.
          1   -1    0    0  501    0 -0.00000000000E+00 -0.00000000000E+00 -0.12599398503E+02  0.12599398503E+02  0.00000000000E+00 0.  1.
          2    1    1    2  501    0  0.21776019478E+02  0.75985978022E+01  0.15037915312E+03  0.15213751479E+03  0.00000000000E+00 0.  1.
          1    1    1    2  502    0 -0.21776019478E+02 -0.75985978022E+01 -0.37371950993E+00  0.23066715829E+02  0.00000000000E+00 0.  1.
</event>
<event>
 4    1  0.3767413E+003  0.4213104E+02  0.7546771E-02  0.1336431E+00
          2   -1    0    0  502    0  0.00000000000E+00  0.00000000000E+00  0.87674043623E+03  0.87674043623E+03  0.00000000000E+00 0. -1.
          1   -1    0    0  501    0 -0.00000000000E+00 -0.00000000000E+00 -0.64128090129E+01  0.64128090129E+01  0.00000000000E+00 0. -1.
          2    1    1    2  501    0 -0.31292526501E+02  0.28209973043E+02  0.80044467781E+03  0.80155268512E+03  0.00000000000E+00 0. -1.
          1    1    1    2  502    0  0.31292526501E+02 -0.28209973043E+02  0.69882949402E+02  0.81600560114E+02  0.00000000000E+00 0. -1.
</event>
<event>
 4    1  0.3767413E+003  0.2048507E+02  0.7546771E-02  0.1526745E+00
          2   -1    0    0  502    0  0.00000000000E+00  0.00000000000E+00  0.62255476886E+01  0.62255476886E+01  0.00000000000E+00 0. -1.
          1   -1    0    0  501    0 -0.00000000000E+00 -0.00000000000E+00 -0.67442192308E+02  0.67442192308E+02  0.00000000000E+00 0. -1.
          2    1    1    2  501    0 -0.19846155589E+02 -0.50761846063E+01 -0.31464859924E+02  0.37545638253E+02  0.00000000000E+00 0. -1.
          1    1    1    2  502    0  0.19846155589E+02  0.50761846063E+01 -0.29751784696E+02  0.36122101744E+02  0.00000000000E+00 0. -1.
</event>
<event>
 4    1  0.3767413E+003  0.2087276E+02  0.7546771E-02  0.1521089E+00
          2   -1    0    0  502    0  0.00000000000E+00  0.00000000000E+00  0.24304144799E+03  0.24304144799E+03  0.00000000000E+00 0. -1.
          1   -1    0    0  501    0 -0.00000000000E+00 -0.00000000000E+00 -0.19211170728E+01  0.19211170728E+01  0.00000000000E+00 0. -1.
          2    1    1    2  501    0 -0.15177483119E+01  0.20817502052E+02  0.15224139714E+03  0.15366559457E+03  0.00000000000E+00 0. -1.
          1    1    1    2  502    0  0.15177483119E+01 -0.20817502052E+02  0.88878933772E+02  0.91296970487E+02  0.00000000000E+00 0. -1.
</event>
<event>
 4    1  0.3767413E+003  0.2727252E+02  0.7546771E-02  0.1444890E+00
          2   -1    0    0  502    0  0.00000000000E+00  0.00000000000E+00  0.13324038771E+01  0.13324038771E+01  0.00000000000E+00 0.  1.
          1   -1    0    0  501    0 -0.00000000000E+00 -0.00000000000E+00 -0.56365401771E+03  0.56365401771E+03  0.00000000000E+00 0.  1.
          2    1    1    2  501    0 -0.51498693568E+01 -0.26781879611E+02 -0.25345379263E+03  0.25491687906E+03  0.00000000000E+00 0.  1.
          1    1    1    2  502    0  0.51498693568E+01  0.26781879611E+02 -0.30886782120E+03  0.31006954252E+03  0.00000000000E+00 0.  1.
</event>
<event>
 4    1  0.3767413E+003  0.2661250E+02  0.7546771E-02  0.1451540E+00
          2   -1    0    0  502    0  0.00000000000E+00  0.00000000000E+00  0.16613053487E+01  0.16613053487E+01  0.00000000000E+00 0. -1.
          1   -1    0    0  501    0 -0.00000000000E+00 -0.00000000000E+00 -0.13874526849E+04  0.13874526849E+04  0.00000000000E+00 0.  1.
          2    1    1    2  501    0  0.17176977188E+02  0.20326749257E+02 -0.11480826749E+03  0.11785229554E+03  0.00000000000E+00 0. -1.
          1    1    1    2  502    0 -0.17176977188E+02 -0.20326749257E+02 -0.12709831121E+04  0.12712616947E+04  0.00000000000E+00 0.  1.
</event>
<event>
 4    1  0.3767413E+003  0.2047109E+02  0.7546771E-02  0.1526952E+00
          2   -1    0    0  502    0  0.00000000000E+00  0.00000000000E+00  0.14367677961E+04  0.14367677961E+04  0.00000000000E+00 0.  1.
          1   -1    0    0  501    0 -0.00000000000E+00 -0.00000000000E+00 -0.14504843598E+01  0.14504843598E+01  0.00000000000E+00 0.  1.
          2    1    1    2  501    0  0.20289682321E+02  0.27192814941E+01  0.13604125899E+04  0.13605666028E+04  0.00000000000E+00 0.  1.
          1    1    1    2  502    0 -0.20289682321E+02 -0.27192814941E+01  0.74904721829E+02  0.77651677721E+02  0.00000000000E+00 0.  1.
</event>
<event>
 4    1  0.3767413E+003  0.1984270E+03  0.7546771E-02  0.1056257E+00
          2   -1    0    0  502    0  0.00000000000E+00  0.00000000000E+00  0.86978347656E+03  0.86978347656E+03  0.00000000000E+00 0. -1.
          1   -1    0    0  501    0 -0.00000000000E+00 -0.00000000000E+00 -0.12274034571E+04  0.12274034571E+04  0.00000000000E+00 0. -1.
          2    1    1    2  501    0 -0.11200673019E+03  0.16379188061E+03  0.85026521247E+03  0.87311180229E+03  0.00000000000E+00 0. -1.
          1    1    1    2  502    0  0.11200673019E+03 -0.16379188061E+03 -0.12078851930E+04  0.12240751314E+04  0.00000000000E+00 0. -1.
</event>
<event>
 4    1  0.3767413E+003  0.2119511E+02  0.7546771E-02  0.1516497E+00
          2   -1    0    0  502    0  0.00000000000E+00  0.00000000000E+00  0.10621420591E+04  0.10621420591E+04  0.00000000000E+00 0. -1.
          1   -1    0    0  501    0 -0.00000000000E+00 -0.00000000000E+00 -0.12784975785E+02  0.12784975785E+02  0.00000000000E+00 0.  1.
          2    1    1    2  501    0  0.62333949482E+01 -0.20257776647E+02  0.10531771669E+04  0.10533904203E+04  0.00000000000E+00 0. -1.
          1    1    1    2  502    0 -0.62333949482E+01  0.20257776647E+02 -0.38200836119E+01  0.21536614545E+02  0.00000000000E+00 0.  1.
</event>
<event>
 4    1  0.3767413E+003  0.2950098E+02  0.7546771E-02  0.1423983E+00
          2   -1    0    0  502    0  0.00000000000E+00  0.00000000000E+00  0.26201125287E+03  0.26201125287E+03  0.00000000000E+00 0. -1.
          1   -1    0    0  501    0 -0.00000000000E+00 -0.00000000000E+00 -0.33360351205E+01  0.33360351205E+01  0.00000000000E+00 0. -1.
          2    1    1    2  501    0 -0.22911836427E+02 -0.18583739386E+02  0.13805215472E+03  0.14116906545E+03  0.00000000000E+00 0. -1.
          1    1    1    2  502    0  0.22911836427E+02  0.18583739386E+02  0.12062306303E+03  0.12417822254E+03  0.00000000000E+00 0. -1.
</event>
<event>
 4    1  0.5762251E+003  0.2881781E+02  0.7546771E-02  0.1430155E+00
          2   -1    0    0  502    0  0.00000000000E+00  0.00000000000E+00  0.75770541870E+03  0.75770541870E+03  0.00000000000E+00 0. -1.
          1   -1    0    0  501    0 -0.00000000000E+00 -0.00000000000E+00 -0.74380630745E+03  0.74380630745E+03  0.00000000000E+00 0. -1.
          2    1    1    2  501    0  0.24368401843E+02 -0.15383349207E+02  0.75715208050E+03  0.75770029659E+03  0.00000000000E+00 0. -1.
          1    1    1    2  502    0 -0.24368401843E+02  0.15383349207E+02 -0.74325296926E+03  0.74381142956E+03  0.00000000000E+00 0. -1.
</event>
<event>
 4    1  0.3767413E+003  0.4238625E+02  0.7546771E-02  0.1335043E+00
          2   -1    0    0  502    0  0.00000000000E+00  0.00000000000E+00  0.56795462533E+03  0.56795462533E+03  0.00000000000E+00 0.  1.
          1   -1    0    0  501    0 -0.00000000000E+00 -0.00000000000E+00 -0.36498496200E+01  0.36498496200E+01  0.00000000000E+00 0.  1.
          2    1    1    2  501    0  0.27111761461E+02  0.32581378934E+02  0.38650541906E+03  0.38882262386E+03  0.00000000000E+00 0.  1.
          1    1    1    2  502    0 -0.27111761461E+02 -0.32581378934E+02  0.17779935665E+03  0.18278185109E+03  0.00000000000E+00 0.  1.
</event>
<event>
 4    1  0.3767413E+003  0.2224930E+02  0.7546771E-02  0.1502146E+00
          2   -1    0    0  502    0  0.00000000000E+00  0.00000000000E+00  0.27505765112E+03  0.27505765112E+03  0.00000000000E+00 0.  1.
          1   -1    0    0  501    0 -0.00000000000E+00 -0.00000000000E+00 -0.68589953705E+02  0.68589953705E+02  0.00000000000E+00 0. -1.
          2    1    1    2  501    0 -0.21777622447E+02 -0.45570481712E+01  0.27278841719E+03  0.27369426753E+03  0.00000000000E+00 0.  1.
          1    1    1    2  502    0  0.21777622447E+02  0.45570481712E+01 -0.66320719772E+02  0.69953337294E+02  0.00000000000E+00 0. -1.
</event>
<event>
 4    1  0.3767413E+003  0.2021484E+02  0.7546771E-02  0.1530777E+00
          2   -1    0    0  502    0  0.00000000000E+00  0.00000000000E+00  0.11074276749E+04  0.11074276749E+04  0.00000000000E+00 0. -1.
          1   -1    0    0  501    0 -0.00000000000E+00 -0.00000000000E+00 -0.58972851608E+02  0.58972851608E+02  0.00000000000E+00 0. -1.
          2    1    1    2  501    0  0.19898322396E+02  0.35632132838E+01  0.11056002406E+04  0.11057850297E+04  0.00000000000E+00 0. -1.
          1    1    1    2  502    0 -0.19898322396E+02 -0.35632132838E+01 -0.57145417394E+02  0.60615496799E+02  0.00000000000E+00 0. -1.
</event>
<event>
 4    1  0.3767413E+003  0.8369720E+02  0.7546771E-02  0.1195515E+00
          2   -1    0    0  502    0  0.00000000000E+00  0.00000000000E+00  0.94231786447E+03  0.94231786447E+03  0.00000000000E+00 0. -1.
          1   -1    0    0  501    0 -0.00000000000E+00 -0.00000000000E+00 -0.28035537047E+02  0.28035537047E+02  0.00000000000E+00 0. -1.
          2    1    1    2  501    0 -0.71392870659E+02 -0.43683848825E+02  0.87304696427E+03  0.87704972633E+03  0.00000000000E+00 0. -1.
          1    1    1    2  502    0  0.71392870659E+02  0.43683848825E+02  0.41235363150E+02  0.93303675186E+02  0.00000000000E+00 0. -1.
</event>
<event>
 4    1  0.3767413E+003  0.2490942E+02  0.7546771E-02  0.1469819E+00
          2   -1    0    0  502    0  0.00000000000E+00  0.00000000000E+00  0.35310789065E+03  0.35310789065E+03  0.00000000000E+00 0.  1.
          1   -1    0    0  501    0 -0.00000000000E+00 -0.00000000000E+00 -0.21817781599E+02  0.21817781599E+02  0.00000000000E+00 0.  1.
          2    1    1    2  501    0  0.33877700051E+01  0.24677969524E+02  0.34540035695E+03  0.34629739495E+03  0.00000000000E+00 0.  1.
          1    1    1    2  502    0 -0.33877700051E+01 -0.24677969524E+02 -0.14110247900E+02  0.28628277301E+02  0.00000000000E+00 0.  1.
</event>
<event>
 4    1  0.3767413E+003  0.2031689E+02  0.7546771E-02  0.1529245E+00
          2   -1    0    0  502    0  0.00000000000E+00  0.00000000000E+00  0.52724605384E+03  0.52724605384E+03  0.00000000000E+00 0.  1.
          1   -1    0    0  501    0 -0.00000000000E+00 -0.00000000000E+00 -0.46158029483E+01  0.46158029483E+01  0.00000000000E+00 0. -1.
          2    1    1    2  501    0 -0.20230100459E+02  0.18759481370E+01  0.50364649996E+03  0.50405612095E+03  0.00000000000E+00 0.  1.
          1    1    1    2  502    0  0.20230100459E+02 -0.18759481370E+01  0.18983750930E+02  0.27805735836E+02  0.00000000000E+00 0. -1.
</event>
<event>
 4    1  0.3767413E+003  0.4670928E+02  0.7546771E-02  0.1313107E+00
          2   -1    0    0  502    0  0.00000000000E+00  0.00000000000E+00  0.22782478239E+04  0.22782478239E+04  0.00000000000E+00 0.  1.
          1   -1    0    0  501    0 -0.00000000000E+00 -0.00000000000E+00 -0.58172724390E+02  0.58172724390E+02  0.00000000000E+00 0.  1.
          2    1    1    2  501    0 -0.36864801110E+02  0.28683493872E+02  0.22685923099E+04  0.22690731202E+04  0.00000000000E+00 0.  1.
          1    1    1    2  502    0  0.36864801110E+02 -0.28683493872E+02 -0.48517210310E+02  0.67347428146E+02  0.00000000000E+00 0.  1.
</event>
<event>
 4    1  0.3767413E+003  0.2488427E+02  0.7546771E-02  0.1470102E+00
          2   -1    0    0  502    0  0.00000000000E+00  0.00000000000E+00  0.12464989160E+04  0.12464989160E+04  0.00000000000E+00 0.  1.
          1   -1    0    0  501    0 -0.00000000000E+00 -0.00000000000E+00 -0.28269921899E+03  0.28269921899E+03  0.00000000000E+00 0. -1.
          2    1    1    2  501    0 -0.15623603513E+02 -0.19368270592E+02  0.12458268251E+04  0.12460753208E+04  0.00000000000E+00 0.  1.
          1    1    1    2  502    0  0.15623603513E+02  0.19368270592E+02 -0.28202712814E+03  0.28312281416E+03  0.00000000000E+00 0. -1.
</event>
<event>
 4    1  0.3767413E+003  0.2821637E+02  0.7546771E-02  0.1435758E+00
          2   -1    0    0  502    0  0.00000000000E+00  0.00000000000E+00  0.25070333151E+04  0.25070333151E+04  0.00000000000E+00 0.  1.
          1   -1    0    0  501    0 -0.00000000000E+00 -0.00000000000E+00 -0.48336584131E+00  0.48336584131E+00  0.00000000000E+00 0.  1.
          2    1    1    2  501    0  0.27295237676E+02 -0.71507541107E+01  0.19875524577E+04  0.19877527350E+04  0.00000000000E+00 0.  1.
          1    1    1    2  502    0 -0.27295237676E+02  0.71507541107E+01  0.51899749156E+03  0.51976394597E+03  0.00000000000E+00 0.  1.
</event>
<event>
 4    1  0.3767413E+003  0.2168920E+02  0.7546771E-02  0.1509648E+00
          2   -1    0    0  502    0  0.00000000000E+00  0.00000000000E+00  0.13318736206E+03  0.13318736206E+03  0.00000000000E+00 0. -1.
          1   -1    0    0  501    0 -0.00000000000E+00 -0.00000000000E+00 -0.80561263675E+01  0.80561263675E+01  0.00000000000E+00 0.  1.
          2    1    1    2  501    0  0.21532697349E+02 -0.26008709341E+01  0.11548823230E+03  0.11750724822E+03  0.00000000000E+00 0. -1.
          1    1    1    2  502    0 -0.21532697349E+02  0.26008709341E+01  0.96430033945E+01  0.23736240208E+02  0.00000000000E+00 0.  1.
</event>
<event>
 4    1  0.3767413E+003  0.2708839E+02  0.7546771E-02  0.1446722E+00
          2   -1    0    0  502    0  0.00000000000E+00  0.00000000000E+00  0.15322993080E+03  0.15322993080E+03  0.00000000000E+00 0. -1.
          1   -1    0    0  501    0 -0.00000000000E+00 -0.00000000000E+00 -0.83423545734E+03  0.83423545734E+03  0.00000000000E+00 0. -1.
          2    1    1    2  501    0 -0.25183457957E+02  0.99786929146E+01  0.15181080592E+03  0.15420863031E+03  0.00000000000E+00 0. -1.
          1    1    1    2  502    0  0.25183457957E+02 -0.99786929146E+01 -0.83281633246E+03  0.83325675783E+03  0.00000000000E+00 0. -1.
</event>
<event>
 4    1  0.3767413E+003  0.2509324E+02  0.7546771E-02  0.1467763E+00
          2   -1    0    0  502    0  0.00000000000E+00  0.00000000000E+00  0.54037635894E+00  0.54037635894E+00  0.00000000000E+00 0.  1.
          1   -1    0    0  501    0 -0.00000000000E+00 -0.00000000000E+00 -0.19206898803E+04  0.19206898803E+04  0.00000000000E+00 0.  1.
          2    1    1    2  501    0  0.41401104174E+01 -0.24749342826E+02 -0.35762284486E+03  0.35850211945E+03  0.00000000000E+00 0.  1.
          1    1    1    2  502    0 -0.41401104174E+01  0.24749342826E+02 -0.15625266591E+04  0.15627281372E+04  0.00000000000E+00 0.  1.
</event>
<event>
 4    1  0.3767413E+003  0.5975010E+02  0.7546771E-02  0.1260684E+00
          2   -1    0    0  502    0  0.00000000000E+00  0.00000000000E+00  0.32505067515E+03  0.32505067515E+03  0.00000000000E+00 0.  1.
          1   -1    0    0  501    0 -0.00000000000E+00 -0.00000000000E+00 -0.32305366567E+02  0.32305366567E+02  0.00000000000E+00 0.  1.
          2    1    1    2  501    0 -0.59493296120E+02  0.55337286428E+01  0.29153372275E+03  0.29759365910E+03  0.00000000000E+00 0.  1.
          1    1    1    2  502    0  0.59493296120E+02 -0.55337286428E+01  0.12115858332E+01  0.59762382618E+02  0.00000000000E+00 0.  1.
</event>
<event>
 4    1  0.3767413E+003  0.3739771E+02  0.7546771E-02  0.1364449E+00
          2   -1    0    0  502    0  0.00000000000E+00  0.00000000000E+00  0.16846166077E+02  0.16846166077E+02  0.00000000000E+00 0. -1.
          1   -1    0    0  501    0 -0.00000000000E+00 -0.00000000000E+00 -0.12614434510E+04  0.12614434510E+04  0.00000000000E+00 0.  1.
          2    1    1    2  501    0  0.29020462436E+02  0.23588167876E+02 -0.45442531554E+01  0.37672790453E+02  0.00000000000E+00 0. -1.
          1    1    1    2  502    0 -0.29020462436E+02 -0.23588167876E+02 -0.12400530318E+04  0.12406168267E+04  0.00000000000E+00 0.  1.
</event>
<event>
 4    1  0.3767413E+003  0.4501541E+02  0.7546771E-02  0.1321362E+00
          2   -1    0    0  502    0  0.00000000000E+00  0.00000000000E+00  0.48919615097E+03  0.48919615097E+03  0.00000000000E+00 0. -1.
          1   -1    0    0  501    0 -0.00000000000E+00 -0.00000000000E+00 -0.55248053970E+02  0.55248053970E+02  0.00000000000E+00 0.  1.
          2    1    1    2  501    0  0.38790847540E+02 -0.22839815258E+02  0.47879227686E+03  0.48090376521E+03  0.00000000000E+00 0. -1.
          1    1    1    2  502    0 -0.38790847540E+02  0.22839815258E+02 -0.44844179858E+02  0.63540439730E+02  0.00000000000E+00 0.  1.
</event>
<event>
 4    1  0.3767413E+003  0.2134056E+02  0.7546771E-02  0.1514458E+00
          2   -1    0    0  502    0  0.00000000000E+00  0.00000000000E+00  0.12883481508E+04  0.12883481508E+04  0.00000000000E+00 0.  1.
          1   -1    0    0  501    0 -0.00000000000E+00 -0.00000000000E+00 -0.88636571785E+00  0.88636571785E+00  0.00000000000E+00 0. -1.
          2    1    1    2  501    0  0.19899133929E+02 -0.77099990623E+01  0.11435443748E+04  0.11437434838E+04  0.00000000000E+00 0.  1.
          1    1    1    2  502    0 -0.19899133929E+02  0.77099990623E+01  0.14391741028E+03  0.14549103271E+03  0.00000000000E+00 0. -1.
</event>
<event>
 4    1  0.3767413E+003  0.2428345E+02  0.7546771E-02  0.1476981E+00
          2   -1    0    0  502    0  0.00000000000E+00  0.00000000000E+00  0.26786421548E+02  0.26786421548E+02  0.00000000000E+00 0. -1.
          1   -1    0    0  501    0 -0.00000000000E+00 -0.00000000000E+00 -0.22364179414E+03  0.22364179414E+03  0.00000000000E+00 0.  1.
          2    1    1    2  501    0  0.21068518976E+02 -0.12074918676E+02  0.20464026113E+02  0.31756298866E+02  0.00000000000E+00 0. -1.
          1    1    1    2  502    0 -0.21068518976E+02  0.12074918676E+02 -0.21731939870E+03  0.21867191682E+03  0.00000000000E+00 0.  1.
</event>
<event>
 4    1  0.3767413E+003  0.2469130E+02  0.7546771E-02  0.1472287E+00
          2   -1    0    0  502    0  0.00000000000E+00  0.00000000000E+00  0.96315039162E+03  0.96315039162E+03  0.00000000000E+00 0.  1.
          1   -1    0    0  501    0 -0.00000000000E+00 -0.00000000000E+00 -0.87730392823E+02  0.87730392823E+02  0.00000000000E+00 0. -1.
          2    1    1    2  501    0  0.55811293203E+01 -0.24052258626E+02  0.96125140201E+03  0.96156846767E+03  0.00000000000E+00 0.  1.
          1    1    1    2  502    0 -0.55811293203E+01  0.24052258626E+02 -0.85831403214E+02  0.89312316772E+02  0.00000000000E+00 0. -1.
</event>
<event>
 4    1  0.3767413E+003  0.2007956E+02  0.7546771E-02  0.1532823E+00
          2   -1    0    0  502    0  0.00000000000E+00  0.00000000000E+00  0.28807838127E+01  0.28807838127E+01  0.00000000000E+00 0. -1.
          1   -1    0    0  501    0 -0.00000000000E+00 -0.00000000000E+00 -0.14129090981E+03  0.14129090981E+03  0.00000000000E+00 0. -1.
          2    1    1    2  501    0 -0.19512021143E+02  0.47401998164E+01 -0.76206851157E+02  0.78807820847E+02  0.00000000000E+00 0. -1.
          1    1    1    2  502    0  0.19512021143E+02 -0.47401998164E+01 -0.62203274844E+02  0.65363872779E+02  0.00000000000E+00 0. -1.
</event>
<event>
 4    1  0.3767413E+003  0.2864580E+02  0.7546771E-02  0.1431741E+00
          2   -1    0    0  502    0  0.00000000000E+00  0.00000000000E+00  0.35766695813E+03  0.35766695813E+03  0.00000000000E+00 0. -1.
          1   -1    0    0  501    0 -0.00000000000E+00 -0.00000000000E+00 -0.37889260751E+01  0.37889260751E+01  0.00000000000E+00 0. -1.
          2    1    1    2  501    0  0.10572470754E+02  0.26623387637E+02  0.29045027898E+03  0.29185946356E+03  0.00000000000E+00 0. -1.
          1    1    1    2  502    0 -0.10572470754E+02 -0.26623387637E+02  0.63427753073E+02  0.69596420648E+02  0.00000000000E+00 0. -1.
</event>
<event>
 4    1  0.3767413E+003  0.2286517E+02  0.7546771E-02  0.1494198E+00
          2   -1    0    0  502    0  0.00000000000E+00  0.00000000000E+00  0.25832974972E+01  0.25832974972E+01  0.00000000000E+00 0.  1.
          1   -1    0    0  501    0 -0.00000000000E+00 -0.00000000000E+00 -0.21014068568E+03  0.21014068568E+03  0.00000000000E+00 0.  1.
          2    1    1    2  501    0  0.28847351986E+01  0.22682460294E+02 -0.12421466421E+03  0.12630161720E+03  0.00000000000E+00 0.  1.
          1    1    1    2  502    0 -0.28847351986E+01 -0.22682460294E+02 -0.83342723968E+02  0.86422365974E+02  0.00000000000E+00 0.  1.
</event>
<event>
 4    1  0.3767413E+003  0.2255798E+02  0.7546771E-02  0.1498124E+00
          2   -1    0    0  502    0  0.00000000000E+00  0.00000000000E+00  0.36219479458E+03  0.36219479458E+03  0.00000000000E+00 0.  1.
          1   -1    0    0  501    0 -0.00000000000E+00 -0.00000000000E+00 -0.39303708569E+02  0.39303708569E+02  0.00000000000E+00 0.  1.
          2    1    1    2  501    0  0.31110929994E+01  0.22342418092E+02  0.35857417562E+03  0.35928303880E+03  0.00000000000E+00 0.  1.
          1    1    1    2  502    0 -0.31110929994E+01 -0.22342418092E+02 -0.35683089613E+02  0.42215464349E+02  0.00000000000E+00 0.  1.
</event>
<event>
 4    1  0.3767413E+003  0.2501719E+02  0.7546771E-02  0.1468611E+00
          2   -1    0    0  502    0  0.00000000000E+00  0.00000000000E+00  0.28893133502E+03  0.28893133502E+03  0.00000000000E+00 0. -1.
          1   -1    0    0  501    0 -0.00000000000E+00 -0.00000000000E+00 -0.71429520338E+03  0.71429520338E+03  0.00000000000E+00 0. -1.
          2    1    1    2  501    0  0.13808235197E+01 -0.24979050741E+02  0.28817017981E+03  0.28925406165E+03  0.00000000000E+00 0. -1.
          1    1    1    2  502    0 -0.13808235197E+01  0.24979050741E+02 -0.71353404817E+03  0.71397247675E+03  0.00000000000E+00 0. -1.
</event>
<event>
 4    1  0.3767413E+003  0.3358007E+02  0.7546771E-02  0.1390830E+00
          2   -1    0    0  502    0  0.00000000000E+00  0.00000000000E+00  0.25829069400E+02  0.25829069400E+02  0.00000000000E+00 0.  1.
          1   -1    0    0  501    0 -0.00000000000E+00 -0.00000000000E+00 -0.70063234139E+02  0.70063234139E+02  0.00000000000E+00 0.  1.
          2    1    1    2  501    0  0.13421138490E+02 -0.30781390461E+02  0.73177451064E+01  0.34368158964E+02  0.00000000000E+00 0.  1.
          1    1    1    2  502    0 -0.13421138490E+02  0.30781390461E+02 -0.51551909845E+02  0.61524144575E+02  0.00000000000E+00 0.  1.
</event>
<event>
 4    1  0.3767413E+003  0.2052573E+02  0.7546771E-02  0.1526145E+00
          2   -1    0    0  502    0  0.00000000000E+00  0.00000000000E+00  0.23121315637E+03  0.23121315637E+03  0.00000000000E+00 0. -1.
          1   -1    0    0  501    0 -0.00000000000E+00 -0.00000000000E+00 -0.29974620103E+01  0.29974620103E+01  0.00000000000E+00 0. -1.
          2    1    1    2  501    0 -0.13205739299E+02 -0.15713500902E+02  0.18743686067E+03  0.18855737164E+03  0.00000000000E+00 0. -1.
          1    1    1    2  502    0  0.13205739299E+02  0.15713500902E+02  0.40778833685E+02  0.45653246739E+02  0.00000000000E+00 0. -1.
</event>
<event>
 4    1  0.3767413E+003  0.2225018E+02  0.7546771E-02  0.1502135E+00
          2   -1    0    0  502    0  0.00000000000E+00  0.00000000000E+00  0.10839672702E+04  0.10839672702E+04  0.00000000000E+00 0. -1.
          1   -1    0    0  501    0 -0.00000000000E+00 -0.00000000000E+00 -0.13011656115E+02  0.13011656115E+02  0.00000000000E+00 0. -1.
          2    1    1    2  501    0  0.10927847635E+02 -0.19381758207E+02  0.10742550458E+04  0.10744854461E+04  0.00000000000E+00 0. -1.
          1    1    1    2  502    0 -0.10927847635E+02  0.19381758207E+02 -0.32994316840E+01  0.22493480268E+02  0.00000000000E+00 0. -1.
</event>
<event>
 4    1  0.3767413E+003  0.5290691E+02  0.7546771E-02  0.1286038E+00
          2   -1    0    0  502    0  0.00000000000E+00  0.00000000000E+00  0.75312219423E+02  0.75312219423E+02  0.00000000000E+00 0.  1.
          1   -1    0    0  501    0 -0.00000000000E+00 -0.00000000000E+00 -0.18777514402E+03  0.18777514402E+03  0.00000000000E+00 0. -1.
          2    1    1    2  501    0  0.24748800549E+02 -0.46761501644E+02  0.61576580663E+02  0.81183843533E+02  0.00000000000E+00 0.  1.
          1    1    1    2  502    0 -0.24748800549E+02  0.46761501644E+02 -0.17403950526E+03  0.18190351991E+03  0.00000000000E+00 0. -1.
</event>
<event>
 4    1  0.3767413E+003  0.2170284E+02  0.7546771E-02  0.1509462E+00
          2   -1    0    0  502    0  0.00000000000E+00  0.00000000000E+00  0.10804045713E+04  0.10804045713E+04  0.00000000000E+00 0.  1.
          1   -1    0    0  501    0 -0.00000000000E+00 -0.00000000000E+00 -0.95935770037E+01  0.95935770037E+01  0.00000000000E+00 0.  1.
          2    1    1    2  501    0  0.12197153847E+01  0.21668536762E+02  0.10678774285E+04  0.10680979429E+04  0.00000000000E+00 0.  1.
          1    1    1    2  502    0 -0.12197153847E+01 -0.21668536762E+02  0.29335657910E+01  0.21900205462E+02  0.00000000000E+00 0.  1.
</event>
<event>
 4    1  0.3767413E+003  0.3438860E+02  0.7546771E-02  0.1384913E+00
          2   -1    0    0  502    0  0.00000000000E+00  0.00000000000E+00  0.71826777955E+03  0.71826777955E+03  0.00000000000E+00 0.  1.
          1   -1    0    0  501    0 -0.00000000000E+00 -0.00000000000E+00 -0.79487191024E+01  0.79487191024E+01  0.00000000000E+00 0.  1.
          2    1    1    2  501    0 -0.19080552603E+02 -0.28609583475E+02  0.67848267252E+03  0.67935359914E+03  0.00000000000E+00 0.  1.
          1    1    1    2  502    0  0.19080552603E+02  0.28609583475E+02  0.31836387922E+02  0.46862899507E+02  0.00000000000E+00 0.  1.
</event>
<event>
 4    1  0.3767413E+003  0.2383071E+02  0.7546771E-02  0.1482322E+00
          2   -1    0    0  502    0  0.00000000000E+00  0.00000000000E+00  0.25630329706E+02  0.25630329706E+02  0.00000000000E+00 0. -1.
          1   -1    0    0  501    0 -0.00000000000E+00 -0.00000000000E+00 -0.52775024997E+02  0.52775024997E+02  0.00000000000E+00 0. -1.
          2    1    1    2  501    0 -0.23829654533E+02 -0.22384200952E+00  0.16287456668E+02  0.28864923092E+02  0.00000000000E+00 0. -1.
          1    1    1    2  502    0  0.23829654533E+02  0.22384200952E+00 -0.43432151959E+02  0.49540431610E+02  0.00000000000E+00 0. -1.
</event>
<event>
 4    1  0.3767413E+003  0.3191680E+02  0.7546771E-02  0.1403640E+00
          2   -1    0    0  502    0  0.00000000000E+00  0.00000000000E+00  0.93204863537E+00  0.93204863537E+00  0.00000000000E+00 0.  1.
          1   -1    0    0  501    0 -0.00000000000E+00 -0.00000000000E+00 -0.11387658145E+04  0.11387658145E+04  0.00000000000E+00 0. -1.
          2    1    1    2  501    0 -0.13905969602E+02  0.28728145906E+02 -0.45461556400E+03  0.45573456462E+03  0.00000000000E+00 0.  1.
          1    1    1    2  502    0  0.13905969602E+02 -0.28728145906E+02 -0.68321820185E+03  0.68396329850E+03  0.00000000000E+00 0. -1.
</event>
<event>
 4    1  0.3767413E+003  0.2278130E+02  0.7546771E-02  0.1495263E+00
          2   -1    0    0  502    0  0.00000000000E+00  0.00000000000E+00  0.13977391920E+04  0.13977391920E+04  0.00000000000E+00 0.  1.
          1   -1    0    0  501    0 -0.00000000000E+00 -0.00000000000E+00 -0.15844826689E+01  0.15844826689E+01  0.00000000000E+00 0. -1.
          2    1    1    2  501    0  0.77127980772E+01 -0.21435955264E+02  0.13102961501E+04  0.13104941772E+04  0.00000000000E+00 0.  1.
          1    1    1    2  502    0 -0.77127980772E+01  0.21435955264E+02  0.85858559193E+02  0.88829497460E+02  0.00000000000E+00 0. -1.
</event>
<event>
 4    1  0.3767413E+003  0.4051509E+02  0.7546771E-02  0.1345494E+00
          2   -1    0    0  502    0  0.00000000000E+00  0.00000000000E+00  0.60102855844E+01  0.60102855844E+01  0.00000000000E+00 0. -1.
          1   -1    0    0  501    0 -0.00000000000E+00 -0.00000000000E+00 -0.16393050132E+04  0.16393050132E+04  0.00000000000E+00 0. -1.
          2    1    1    2  501    0 -0.15494600206E+02 -0.37435142144E+02 -0.65637718768E+02  0.77134834076E+02  0.00000000000E+00 0. -1.
          1    1    1    2  502    0  0.15494600206E+02  0.37435142144E+02 -0.15676570089E+04  0.15681804647E+04  0.00000000000E+00 0. -1.
</event>
<event>
 4    1  0.3767413E+003  0.2053539E+02  0.7546771E-02  0.1526003E+00
          2   -1    0    0  502    0  0.00000000000E+00  0.00000000000E+00  0.15054068423E+03  0.15054068423E+03  0.00000000000E+00 0.  1.
          1   -1    0    0  501    0 -0.00000000000E+00 -0.00000000000E+00 -0.19823716883E+03  0.19823716883E+03  0.00000000000E+00 0.  1.
          2    1    1    2  501    0  0.11642244649E+02 -0.16916280414E+02  0.14930417193E+03  0.15070978123E+03  0.00000000000E+00 0.  1.
          1    1    1    2  502    0 -0.11642244649E+02  0.16916280414E+02 -0.19700065653E+03  0.19806807182E+03  0.00000000000E+00 0.  1.
</event>
<event>
 4    1  0.3767413E+003  0.3592778E+02  0.7546771E-02  0.1374155E+00
          2   -1    0    0  502    0  0.00000000000E+00  0.00000000000E+00  0.11556934546E+03  0.11556934546E+03  0.00000000000E+00 0. -1.
          1   -1    0    0  501    0 -0.00000000000E+00 -0.00000000000E+00 -0.11598504171E+02  0.11598504171E+02  0.00000000000E+00 0. -1.
          2    1    1    2  501    0  0.12027570229E+02 -0.33854730379E+02  0.64219774933E+02  0.73586579667E+02  0.00000000000E+00 0. -1.
          1    1    1    2  502    0 -0.12027570229E+02  0.33854730379E+02  0.39751066361E+02  0.53581269969E+02  0.00000000000E+00 0. -1.
</event>
<event>
 4    1  0.3767413E+003  0.2256150E+02  0.7546771E-02  0.1498079E+00
          2   -1    0    0  502    0  0.00000000000E+00  0.00000000000E+00  0.23131639801E+03  0.23131639801E+03  0.00000000000E+00 0.  1.
          1   -1    0    0  501    0 -0.00000000000E+00 -0.00000000000E+00 -0.22994497106E+02  0.22994497106E+02  0.00000000000E+00 0.  1.
          2    1    1    2  501    0 -0.21180995141E+02 -0.77708965173E+01  0.22507912067E+03  0.22620705548E+03  0.00000000000E+00 0.  1.
          1    1    1    2  502    0  0.21180995141E+02  0.77708965173E+01 -0.16757219767E+02  0.28103839634E+02  0.00000000000E+00 0.  1.
</event>
<event>
 4    1  0.3767413E+003  0.2212360E+02  0.7546771E-02  0.1503806E+00
          2   -1    0    0  502    0  0.00000000000E+00  0.00000000000E+00  0.10426687352E+03  0.10426687352E+03  0.00000000000E+00 0.  1.
          1   -1    0    0  501    0 -0.00000000000E+00 -0.00000000000E+00 -0.17792698961E+02  0.17792698961E+02  0.00000000000E+00 0.  1.
          2    1    1    2  501    0  0.18994815783E+02  0.11342418929E+02  0.95600877282E+02  0.98127372485E+02  0.00000000000E+00 0.  1.
          1    1    1    2  502    0 -0.18994815783E+02 -0.11342418929E+02 -0.91267027266E+01  0.23932199992E+02  0.00000000000E+00 0.  1.
</event>
<event>
 4    1  0.3767413E+003  0.2909265E+02  0.7546771E-02  0.1427648E+00
          2   -1    0    0  502    0  0.00000000000E+00  0.00000000000E+00  0.94660094950E+03  0.94660094950E+03  0.00000000000E+00 0.  1.
          1   -1    0    0  501    0 -0.00000000000E+00 -0.00000000000E+00 -0.69157362595E+01  0.69157362595E+01  0.00000000000E+00 0. -1.
          2    1    1    2  501    0 -0.16379817610E+02 -0.24043377187E+02  0.91471488054E+03  0.91517741182E+03  0.00000000000E+00 0.  1.
          1    1    1    2  502    0  0.16379817610E+02  0.24043377187E+02  0.24970332697E+02  0.38339273943E+02  0.00000000000E+00 0. -1.
</event>
<event>
 4    1  0.3767413E+003  0.3413521E+02  0.7546771E-02  0.1386747E+00
          2   -1    0    0  502    0  0.00000000000E+00  0.00000000000E+00  0.22123345735E+02  0.22123345735E+02  0.00000000000E+00 0. -1.
          1   -1    0    0  501    0 -0.00000000000E+00 -0.00000000000E+00 -0.23552661539E+03  0.23552661539E+03  0.00000000000E+00 0. -1.
          2    1    1    2  501    0 -0.73595013020E+01  0.33332418061E+02  0.68090466530E+01  0.34807692678E+02  0.00000000000E+00 0. -1.
          1    1    1    2  502    0  0.73595013020E+01 -0.33332418061E+02 -0.22021231631E+03  0.22284226845E+03  0.00000000000E+00 0. -1.
</event>
<event>
 4    1  0.3767413E+003  0.2923986E+02  0.7546771E-02  0.1426319E+00
          2   -1    0    0  502    0  0.00000000000E+00  0.00000000000E+00  0.17118471875E+03  0.17118471875E+03  0.00000000000E+00 0. -1.
          1   -1    0    0  501    0 -0.00000000000E+00 -0.00000000000E+00 -0.98788666914E+01  0.98788666914E+01  0.00000000000E+00 0. -1.
          2    1    1    2  501    0 -0.14099117628E+01 -0.29205846948E+02  0.14431121988E+03  0.14724366720E+03  0.00000000000E+00 0. -1.
          1    1    1    2  502    0  0.14099117628E+01  0.29205846948E+02  0.16994632183E+02  0.33819918247E+02  0.00000000000E+00 0. -1.
</event>
<event>
 4    1  0.3767413E+003  0.2001790E+02  0.7546771E-02  0.1533762E+00
          2   -1    0    0  502    0  0.00000000000E+00  0.00000000000E+00  0.65384838330E+03  0.65384838330E+03  0.00000000000E+00 0.  1.
          1   -1    0    0  501    0 -0.00000000000E+00 -0.00000000000E+00 -0.10201332284E+03  0.10201332284E+03  0.00000000000E+00 0.  1.
          2    1    1    2  501    0 -0.15237946083E+02 -0.12981574415E+02  0.65271143915E+03  0.65301832982E+03  0.00000000000E+00 0.  1.
          1    1    1    2  502    0  0.15237946083E+02  0.12981574415E+02 -0.10087637870E+03  0.10284337632E+03  0.00000000000E+00 0.  1.
</event>
<event>
 4    1  0.3767413E+003  0.2046155E+02  0.7546771E-02  0.1527093E+00
          2   -1    0    0  502    0  0.00000000000E+00  0.00000000000E+00  0.19342638710E+03  0.19342638710E+03  0.00000000000E+00 0.  1.
          1   -1    0    0  501    0 -0.00000000000E+00 -0.00000000000E+00 -0.22451065117E+02  0.22451065117E+02  0.00000000000E+00 0.  1.
          2    1    1    2  501    0 -0.71126149939E+01  0.19185561143E+02  0.18809132552E+03  0.18920100894E+03  0.00000000000E+00 0.  1.
          1    1    1    2  502    0  0.71126149939E+01 -0.19185561143E+02 -0.17116003541E+02  0.26676443272E+02  0.00000000000E+00 0.  1.
</event>
<event>
 4    1  0.3767413E+003  0.2069770E+02  0.7546771E-02  0.1523625E+00
          2   -1    0    0  502    0  0.00000000000E+00  0.00000000000E+00  0.80092730893E+03  0.80092730893E+03  0.00000000000E+00 0.  1.
          1   -1    0    0  501    0 -0.00000000000E+00 -0.00000000000E+00 -0.13343267610E+02  0.13343267610E+02  0.00000000000E+00 0. -1.
          2    1    1    2  501    0 -0.15794881072E+02 -0.13375967763E+02  0.79268371126E+03  0.79295388319E+03  0.00000000000E+00 0.  1.
          1    1    1    2  502    0  0.15794881072E+02  0.13375967763E+02 -0.50996699380E+01  0.21316693345E+02  0.00000000000E+00 0. -1.
</event>
<event>
 4    1  0.3767413E+003  0.2136887E+02  0.7546771E-02  0.1514063E+00
          2   -1    0    0  502    0  0.00000000000E+00  0.00000000000E+00  0.16085594785E+04  0.16085594785E+04  0.00000000000E+00 0.  1.
          1   -1    0    0  501    0 -0.00000000000E+00 -0.00000000000E+00 -0.89066656976E+00  0.89066656976E+00  0.00000000000E+00 0.  1.
          2    1    1    2  501    0  0.19247006201E+02 -0.92833859108E+01  0.14680514564E+04  0.14682069701E+04  0.00000000000E+00 0.  1.
          1    1    1    2  502    0 -0.19247006201E+02  0.92833859108E+01  0.13961735553E+03  0.14124317494E+03  0.00000000000E+00 0.  1.
</event>
<event>
 4    1  0.3767413E+003  0.2248600E+02  0.7546771E-02  0.1499055E+00
          2   -1    0    0  502    0  0.00000000000E+00  0.00000000000E+00  0.75075901086E+00  0.75075901086E+00  0.00000000000E+00 0.  1.
          1   -1    0    0  501    0 -0.00000000000E+00 -0.00000000000E+00 -0.75115500811E+03  0.75115500811E+03  0.00000000000E+00 0.  1.
          2    1    1    2  501    0  0.42783320633E+01 -0.22075241514E+02 -0.25430606642E+03  0.25529824879E+03  0.00000000000E+00 0.  1.
          1    1    1    2  502    0 -0.42783320633E+01  0.22075241514E+02 -0.49609818268E+03  0.49660751834E+03  0.00000000000E+00 0.  1.
</event>
<event>
 4    1  0.3767413E+003  0.2609190E+02  0.7546771E-02  0.1456950E+00
          2   -1    0    0  502    0  0.00000000000E+00  0.00000000000E+00  0.82336277203E+03  0.82336277203E+03  0.00000000000E+00 0. -1.
          1   -1    0    0  501    0 -0.00000000000E+00 -0.00000000000E+00 -0.73720071342E+01  0.73720071342E+01  0.00000000000E+00 0.  1.
          2    1    1    2  501    0  0.52319468203E+01  0.25561963997E+02  0.79937659549E+03  0.79980230600E+03  0.00000000000E+00 0. -1.
          1    1    1    2  502    0 -0.52319468203E+01 -0.25561963997E+02  0.16614169410E+02  0.30932473165E+02  0.00000000000E+00 0.  1.
</event>
<event>
 4    1  0.3767413E+003  0.2598843E+02  0.7546771E-02  0.1458043E+00
          2   -1    0    0  502    0  0.00000000000E+00  0.00000000000E+00  0.12723404693E+01  0.12723404693E+01  0.00000000000E+00 0. -1.
          1   -1    0    0  501    0 -0.00000000000E+00 -0.00000000000E+00 -0.12337195020E+04  0.12337195020E+04  0.00000000000E+00 0. -1.
          2    1    1    2  501    0  0.11985128165E+02 -0.23059818743E+02 -0.15013452010E+03  0.15236722962E+03  0.00000000000E+00 0. -1.
          1    1    1    2  502    0 -0.11985128165E+02  0.23059818743E+02 -0.10823126414E+04  0.10826246128E+04  0.00000000000E+00 0. -1.
</event>
<event>
 4    1  0.3767413E+003  0.2865458E+02  0.7546771E-02  0.1431660E+00
          2   -1    0    0  502    0  0.00000000000E+00  0.00000000000E+00  0.98408551456E+03  0.98408551456E+03  0.00000000000E+00 0.  1.
          1   -1    0    0  501    0 -0.00000000000E+00 -0.00000000000E+00 -0.10768433386E+01  0.10768433386E+01  0.00000000000E+00 0.  1.
          2    1    1    2  501    0  0.24511557281E+02  0.14841449636E+02  0.72524772524E+03  0.72581357664E+03  0.00000000000E+00 0.  1.
          1    1    1    2  502    0 -0.24511557281E+02 -0.14841449636E+02  0.25776094598E+03  0.25934878126E+03  0.00000000000E+00 0.  1.
</event>
<event>
 4    1  0.3767413E+003  0.2289923E+02  0.7546771E-02  0.1493767E+00
          2   -1    0    0  502    0  0.00000000000E+00  0.00000000000E+00  0.98259041723E+03  0.98259041723E+03  0.00000000000E+00 0. -1.
          1   -1    0    0  501    0 -0.00000000000E+00 -0.00000000000E+00 -0.19561892998E+01  0.19561892998E+01  0.00000000000E+00 0.  1.
          2    1    1    2  501    0 -0.17706555221E+02  0.14520767688E+02  0.91010566148E+03  0.91039370047E+03  0.00000000000E+00 0. -1.
          1    1    1    2  502    0  0.17706555221E+02 -0.14520767688E+02  0.70528566447E+02  0.74152906060E+02  0.00000000000E+00 0.  1.
</event>
<event>
 4    1  0.3767413E+003  0.3188277E+02  0.7546771E-02  0.1403911E+00
          2   -1    0    0  502    0  0.00000000000E+00  0.00000000000E+00  0.46973755465E+03  0.46973755465E+03  0.00000000000E+00 0.  1.
          1   -1    0    0  501    0 -0.00000000000E+00 -0.00000000000E+00 -0.21745850785E+02  0.21745850785E+02  0.00000000000E+00 0.  1.
          2    1    1    2  501    0  0.10324351292E+02 -0.30164859658E+02  0.45718995033E+03  0.45830029639E+03  0.00000000000E+00 0.  1.
          1    1    1    2  502    0 -0.10324351292E+02  0.30164859658E+02 -0.91982464666E+01  0.33183109045E+02  0.00000000000E+00 0.  1.
</event>
<event>
 4    1  0.3767413E+003  0.2398440E+02  0.7546771E-02  0.1480494E+00
          2   -1    0    0  502    0  0.00000000000E+00  0.00000000000E+00  0.97109501961E+01  0.97109501961E+01  0.00000000000E+00 0.  1.
          1   -1    0    0  501    0 -0.00000000000E+00 -0.00000000000E+00 -0.77205826674E+03  0.77205826674E+03  0.00000000000E+00 0. -1.
          2    1    1    2  501    0  0.23895255246E+02 -0.20659669670E+01 -0.55839067974E+01  0.24625829080E+02  0.00000000000E+00 0.  1.
          1    1    1    2  502    0 -0.23895255246E+02  0.20659669670E+01 -0.75676340974E+03  0.75714338785E+03  0.00000000000E+00 0. -1.
</event>
<event>
 4    1  0.3767413E+003  0.2082274E+02  0.7546771E-02  0.1521811E+00
          2   -1    0    0  502    0  0.00000000000E+00  0.00000000000E+00  0.61358817087E+00  0.61358817087E+00  0.00000000000E+00 0. -1.
          1   -1    0    0  501    0 -0.00000000000E+00 -0.00000000000E+00 -0.71811191921E+03  0.71811191921E+03  0.00000000000E+00 0. -1.
          2    1    1    2  501    0 -0.65389767726E+00  0.20812455295E+02 -0.40417020997E+03  0.40470624470E+03  0.00000000000E+00 0. -1.
          1    1    1    2  502    0  0.65389767726E+00 -0.20812455295E+02 -0.31332812108E+03  0.31401926268E+03  0.00000000000E+00 0. -1.
</event>
<event>
 4    1  0.3767413E+003  0.2065511E+02  0.7546771E-02  0.1524246E+00
          2   -1    0    0  502    0  0.00000000000E+00  0.00000000000E+00  0.63869006390E+03  0.63869006390E+03  0.00000000000E+00 0. -1.
          1   -1    0    0  501    0 -0.00000000000E+00 -0.00000000000E+00 -0.69358482344E+02  0.69358482344E+02  0.00000000000E+00 0. -1.
          2    1    1    2  501    0 -0.18782050296E+02  0.85946563340E+01  0.63698115960E+03  0.63731595870E+03  0.00000000000E+00 0. -1.
          1    1    1    2  502    0  0.18782050296E+02 -0.85946563340E+01 -0.67649578044E+02  0.70732587542E+02  0.00000000000E+00 0. -1.
</event>
<event>
 4    1  0.3767413E+003  0.2285569E+02  0.7546771E-02  0.1494318E+00
          2   -1    0    0  502    0  0.00000000000E+00  0.00000000000E+00  0.32149730770E+02  0.32149730770E+02  0.00000000000E+00 0. -1.
          1   -1    0    0  501    0 -0.00000000000E+00 -0.00000000000E+00 -0.51563921632E+02  0.51563921632E+02  0.00000000000E+00 0.  1.
          2    1    1    2  501    0  0.31854542484E+01  0.22632618327E+02  0.24932752434E+02  0.33823433815E+02  0.00000000000E+00 0. -1.
          1    1    1    2  502    0 -0.31854542484E+01 -0.22632618327E+02 -0.44346943295E+02  0.49890218588E+02  0.00000000000E+00 0.  1.
</event>
<event>
 4    1  0.3767413E+003  0.3679246E+02  0.7546771E-02  0.1368381E+00
          2   -1    0    0  502    0  0.00000000000E+00  0.00000000000E+00  0.81331430102E+03  0.81331430102E+03  0.00000000000E+00 0.  1.
          1   -1    0    0  501    0 -0.00000000000E+00 -0.00000000000E+00 -0.31242216751E+02  0.31242216751E+02  0.00000000000E+00 0.  1.
          2    1    1    2  501    0  0.32540524545E+02  0.17169727333E+02  0.80191207985E+03  0.80275567209E+03  0.00000000000E+00 0.  1.
          1    1    1    2  502    0 -0.32540524545E+02 -0.17169727333E+02 -0.19839995582E+02  0.41800845673E+02  0.00000000000E+00 0.  1.
</event>
<event>
 4    1  0.3767413E+003  0.2351236E+02  0.7546771E-02  0.1486163E+00
          2   -1    0    0  502    0  0.00000000000E+00  0.00000000000E+00  0.19643922991E+02  0.19643922991E+02  0.00000000000E+00 0.  1.
          1   -1    0    0  501    0 -0.00000000000E+00 -0.00000000000E+00 -0.11436952176E+04  0.11436952176E+04  0.00000000000E+00 0.  1.
          2    1    1    2  501    0 -0.15443255915E+02 -0.17729544088E+02  0.12442857575E+02  0.26601796771E+02  0.00000000000E+00 0.  1.
          1    1    1    2  502    0  0.15443255915E+02  0.17729544088E+02 -0.11364941522E+04  0.11367373438E+04  0.00000000000E+00 0.  1.
</event>
<event>
 4    1  0.3767413E+003  0.2059351E+02  0.7546771E-02  0.1525148E+00
          2   -1    0    0  502    0  0.00000000000E+00  0.00000000000E+00  0.19272081099E+01  0.19272081099E+01  0.00000000000E+00 0.  1.
          1   -1    0    0  501    0 -0.00000000000E+00 -0.00000000000E+00 -0.54047251880E+03  0.54047251880E+03  0.00000000000E+00 0.  1.
          2    1    1    2  501    0  0.13214845541E+02 -0.15794324005E+02 -0.60458266399E+02  0.63869357202E+02  0.00000000000E+00 0.  1.
          1    1    1    2  502    0 -0.13214845541E+02  0.15794324005E+02 -0.47808704429E+03  0.47853036971E+03  0.00000000000E+00 0.  1.
</event>
<event>
 4    1  0.3767413E+003  0.2063326E+02  0.7546771E-02  0.1524566E+00
          2   -1    0    0  502    0  0.00000000000E+00  0.00000000000E+00  0.16770301190E+03  0.16770301190E+03  0.00000000000E+00 0. -1.
          1   -1    0    0  501    0 -0.00000000000E+00 -0.00000000000E+00 -0.25089328170E+03  0.25089328170E+03  0.00000000000E+00 0.  1.
          2    1    1    2  501    0  0.99276678084E+01  0.18087917029E+02  0.16664145355E+03  0.16791398206E+03  0.00000000000E+00 0. -1.
          1    1    1    2  502    0 -0.99276678084E+01 -0.18087917029E+02 -0.24983172335E+03  0.25068231154E+03  0.00000000000E+00 0.  1.
</event>
<event>
 4    1  0.3767413E+003  0.2859177E+02  0.7546771E-02  0.1432242E+00
          2   -1    0    0  502    0  0.00000000000E+00  0.00000000000E+00  0.24051675826E+03  0.24051675826E+03  0.00000000000E+00 0.  1.
          1   -1    0    0  501    0 -0.00000000000E+00 -0.00000000000E+00 -0.41355847980E+03  0.41355847980E+03  0.00000000000E+00 0. -1.
          2    1    1    2  501    0  0.20369232477E+02 -0.20064482474E+02  0.23917008418E+03  0.24087303348E+03  0.00000000000E+00 0.  1.
          1    1    1    2  502    0 -0.20369232477E+02  0.20064482474E+02 -0.41221180572E+03  0.41320220458E+03  0.00000000000E+00 0. -1.
</event>
<event>
 4    1  0.3767413E+003  0.2171618E+02  0.7546771E-02  0.1509280E+00
          2   -1    0    0  502    0  0.00000000000E+00  0.00000000000E+00  0.78861706429E+02  0.78861706429E+02  0.00000000000E+00 0.  1.
          1   -1    0    0  501    0 -0.00000000000E+00 -0.00000000000E+00 -0.76629173034E+02  0.76629173034E+02  0.00000000000E+00 0.  1.
          2    1    1    2  501    0  0.75618351748E+01  0.20357095338E+02  0.75766541163E+02  0.78817266139E+02  0.00000000000E+00 0.  1.
          1    1    1    2  502    0 -0.75618351748E+01 -0.20357095338E+02 -0.73534007768E+02  0.76673613324E+02  0.00000000000E+00 0.  1.
</event>
<event>
 4    1  0.3767413E+003  0.2045771E+02  0.7546771E-02  0.1527150E+00
          2   -1    0    0  502    0  0.00000000000E+00  0.00000000000E+00  0.20523233150E+04  0.20523233150E+04  0.00000000000E+00 0.  1.
          1   -1    0    0  501    0 -0.00000000000E+00 -0.00000000000E+00 -0.21302798890E+00  0.21302798890E+00  0.00000000000E+00 0.  1.
          2    1    1    2  501    0  0.81595906203E+00  0.20441416774E+02  0.81389383674E+03  0.81415090419E+03  0.00000000000E+00 0.  1.
          1    1    1    2  502    0 -0.81595906203E+00 -0.20441416774E+02  0.12382164502E+04  0.12383854388E+04  0.00000000000E+00 0.  1.
</event>
<event>
 4    1  0.3767413E+003  0.6321437E+02  0.7546771E-02  0.1249286E+00
          2   -1    0    0  502    0  0.00000000000E+00  0.00000000000E+00  0.32038313478E+02  0.32038313478E+02  0.00000000000E+00 0. -1.
          1   -1    0    0  501    0 -0.00000000000E+00 -0.00000000000E+00 -0.81615759832E+03  0.81615759832E+03  0.00000000000E+00 0.  1.
          2    1    1    2  501    0  0.56416101129E+02 -0.28518060742E+02 -0.17104098642E+01  0.63237502773E+02  0.00000000000E+00 0. -1.
          1    1    1    2  502    0 -0.56416101129E+02  0.28518060742E+02 -0.78240887498E+03  0.78495840902E+03  0.00000000000E+00 0.  1.
</event>
<event>
 4    1  0.3767413E+003  0.2273844E+02  0.7546771E-02  0.1495809E+00
          2   -1    0    0  502    0  0.00000000000E+00  0.00000000000E+00  0.20396474099E+02  0.20396474099E+02  0.00000000000E+00 0. -1.
          1   -1    0    0  501    0 -0.00000000000E+00 -0.00000000000E+00 -0.38859831983E+03  0.38859831983E+03  0.00000000000E+00 0. -1.
          2    1    1    2  501    0  0.16191338821E+02 -0.15964876228E+02  0.13614040800E+02  0.26502430694E+02  0.00000000000E+00 0. -1.
          1    1    1    2  502    0 -0.16191338821E+02  0.15964876228E+02 -0.38181588653E+03  0.38249236323E+03  0.00000000000E+00 0. -1.
</event>
<event>
 4    1  0.3767413E+003  0.3196584E+02  0.7546771E-02  0.1403249E+00
          2   -1    0    0  502    0  0.00000000000E+00  0.00000000000E+00  0.45210158963E+02  0.45210158963E+02  0.00000000000E+00 0.  1.
          1   -1    0    0  501    0 -0.00000000000E+00 -0.00000000000E+00 -0.65950499108E+03  0.65950499108E+03  0.00000000000E+00 0. -1.
          2    1    1    2  501    0 -0.16755051904E+02 -0.27222838904E+02  0.39119822964E+02  0.50519058494E+02  0.00000000000E+00 0.  1.
          1    1    1    2  502    0  0.16755051904E+02  0.27222838904E+02 -0.65341465508E+03  0.65419609154E+03  0.00000000000E+00 0. -1.
</event>
<event>
 4    1  0.3767413E+003  0.3644547E+02  0.7546771E-02  0.1370676E+00
          2   -1    0    0  502    0  0.00000000000E+00  0.00000000000E+00  0.51060972921E+02  0.51060972921E+02  0.00000000000E+00 0. -1.
          1   -1    0    0  501    0 -0.00000000000E+00 -0.00000000000E+00 -0.81285727632E+03  0.81285727632E+03  0.00000000000E+00 0. -1.
          2    1    1    2  501    0  0.23003457299E+02  0.28268589146E+02  0.44092888051E+02  0.57205375243E+02  0.00000000000E+00 0. -1.
          1    1    1    2  502    0 -0.23003457299E+02 -0.28268589146E+02 -0.80588919145E+03  0.80671287399E+03  0.00000000000E+00 0. -1.
</event>
<event>
 4    1  0.3767413E+003  0.2420123E+02  0.7546771E-02  0.1477941E+00
          2   -1    0    0  502    0  0.00000000000E+00  0.00000000000E+00  0.10463058742E+04  0.10463058742E+04  0.00000000000E+00 0. -1.
          1   -1    0    0  501    0 -0.00000000000E+00 -0.00000000000E+00 -0.39280949326E+01  0.39280949326E+01  0.00000000000E+00 0.  1.
          2    1    1    2  501    0 -0.23853836730E+02 -0.40858293751E+01  0.10074522200E+04  0.10077428616E+04  0.00000000000E+00 0. -1.
          1    1    1    2  502    0  0.23853836730E+02  0.40858293751E+01  0.34925559230E+02  0.42491107492E+02  0.00000000000E+00 0.  1.
</event>
<event>
 4    1  0.3767413E+003  0.2073101E+02  0.7546771E-02  0.1523140E+00
          2   -1    0    0  502    0  0.00000000000E+00  0.00000000000E+00  0.16676581971E+04  0.16676581971E+04  0.00000000000E+00 0.  1.
          1   -1    0    0  501    0 -0.00000000000E+00 -0.00000000000E+00 -0.35892382541E+00  0.35892382541E+00  0.00000000000E+00 0.  1.
          2    1    1    2  501    0  0.20723153914E+02 -0.57064200291E+00  0.12765295752E+04  0.12766979013E+04  0.00000000000E+00 0.  1.
          1    1    1    2  502    0 -0.20723153914E+02  0.57064200291E+00  0.39076969809E+03  0.39131921968E+03  0.00000000000E+00 0.  1.
</event>
<event>
 4    1  0.3767413E+003  0.2386145E+02  0.7546771E-02  0.1481955E+00
          2   -1    0    0  502    0  0.00000000000E+00  0.00000000000E+00  0.95711701846E+02  0.95711701846E+02  0.00000000000E+00 0.  1.
          1   -1    0    0  501    0 -0.00000000000E+00 -0.00000000000E+00 -0.26851273434E+02  0.26851273434E+02  0.00000000000E+00 0. -1.
          2    1    1    2  501    0  0.17260803816E+02  0.16475237532E+02  0.88498898483E+02  0.91659281215E+02  0.00000000000E+00 0.  1.
          1    1    1    2  502    0 -0.17260803816E+02 -0.16475237532E+02 -0.19638470072E+02  0.30903694065E+02  0.00000000000E+00 0. -1.
</event>
<event>
 4    1  0.3767413E+003  0.2060901E+02  0.7546771E-02  0.1524921E+00
          2   -1    0    0  502    0  0.00000000000E+00  0.00000000000E+00  0.14068851333E+04  0.14068851333E+04  0.00000000000E+00 0.  1.
          1   -1    0    0  501    0 -0.00000000000E+00 -0.00000000000E+00 -0.34857846964E+00  0.34857846964E+00  0.00000000000E+00 0. -1.
          2    1    1    2  501    0  0.20081544791E+02 -0.46328038254E+01  0.96076305624E+03  0.96098406935E+03  0.00000000000E+00 0.  1.
          1    1    1    2  502    0 -0.20081544791E+02  0.46328038254E+01  0.44577349861E+03  0.44624964243E+03  0.00000000000E+00 0. -1.
</event>
<event>
 4    1  0.3767413E+003  0.2220970E+02  0.7546771E-02  0.1502668E+00
          2   -1    0    0  502    0  0.00000000000E+00  0.00000000000E+00  0.19048537425E+01  0.19048537425E+01  0.00000000000E+00 0. -1.
          1   -1    0    0  501    0 -0.00000000000E+00 -0.00000000000E+00 -0.12091777870E+04  0.12091777870E+04  0.00000000000E+00 0.  1.
          2    1    1    2  501    0 -0.12282318436E+02  0.18504468339E+02 -0.66837701095E+02  0.70431164852E+02  0.00000000000E+00 0. -1.
          1    1    1    2  502    0  0.12282318436E+02 -0.18504468339E+02 -0.11404352322E+04  0.11406514759E+04  0.00000000000E+00 0.  1.
</event>
<event>
 4    1  0.3767413E+003  0.2546503E+02  0.7546771E-02  0.1463668E+00
          2   -1    0    0  502    0  0.00000000000E+00  0.00000000000E+00  0.14579574884E+03  0.14579574884E+03  0.00000000000E+00 0. -1.
          1   -1    0    0  501    0 -0.00000000000E+00 -0.00000000000E+00 -0.49913103474E+02  0.49913103474E+02  0.00000000000E+00 0. -1.
          2    1    1    2  501    0  0.12109735401E+02  0.22401389657E+02  0.14133410472E+03  0.14360987817E+03  0.00000000000E+00 0. -1.
          1    1    1    2  502    0 -0.12109735401E+02 -0.22401389657E+02 -0.45451459353E+02  0.52098974149E+02  0.00000000000E+00 0. -1.
</event>
<event>
 4    1  0.3767413E+003  0.2133519E+02  0.7546771E-02  0.1514533E+00
          2   -1    0    0  502    0  0.00000000000E+00  0.00000000000E+00  0.33147692413E+03  0.33147692413E+03  0.00000000000E+00 0.  1.
          1   -1    0    0  501    0 -0.00000000000E+00 -0.00000000000E+00 -0.32376293615E+01  0.32376293615E+01  0.00000000000E+00 0.  1.
          2    1    1    2  501    0 -0.10076052301E+02 -0.18805943427E+02  0.29111908993E+03  0.29189983703E+03  0.00000000000E+00 0.  1.
          1    1    1    2  502    0  0.10076052301E+02  0.18805943427E+02  0.37120204838E+02  0.42814716458E+02  0.00000000000E+00 0.  1.
</event>
<event>
 4    1  0.3767413E+003  0.2054016E+02  0.7546771E-02  0.1525933E+00
          2   -1    0    0  502    0  0.00000000000E+00  0.00000000000E+00  0.56073616511E+03  0.56073616511E+03  0.00000000000E+00 0. -1.
          1   -1    0    0  501    0 -0.00000000000E+00 -0.00000000000E+00 -0.26687813907E+01  0.26687813907E+01  0.00000000000E+00 0.  1.
          2    1    1    2  501    0  0.19647948795E+02 -0.59880106846E+01  0.51774614557E+03  0.51815342266E+03  0.00000000000E+00 0. -1.
          1    1    1    2  502    0 -0.19647948795E+02  0.59880106846E+01  0.40321238148E+02  0.45251523837E+02  0.00000000000E+00 0.  1.
</event>
<event>
 4    1  0.3767413E+003  0.3876718E+02  0.7546771E-02  0.1355866E+00
          2   -1    0    0  502    0  0.00000000000E+00  0.00000000000E+00  0.21793705681E+03  0.21793705681E+03  0.00000000000E+00 0. -1.
          1   -1    0    0  501    0 -0.00000000000E+00 -0.00000000000E+00 -0.11996346597E+02  0.11996346597E+02  0.00000000000E+00 0. -1.
          2    1    1    2  501    0 -0.24905615946E+02  0.29708655594E+02  0.17793343450E+03  0.18210766331E+03  0.00000000000E+00 0. -1.
          1    1    1    2  502    0  0.24905615946E+02 -0.29708655594E+02  0.28007275708E+02  0.47825740093E+02  0.00000000000E+00 0. -1.
</event>
<event>
 4    1  0.3767413E+003  0.2643852E+02  0.7546771E-02  0.1453331E+00
          2   -1    0    0  502    0  0.00000000000E+00  0.00000000000E+00  0.26632332603E+03  0.26632332603E+03  0.00000000000E+00 0. -1.
          1   -1    0    0  501    0 -0.00000000000E+00 -0.00000000000E+00 -0.19195793646E+02  0.19195793646E+02  0.00000000000E+00 0. -1.
          2    1    1    2  501    0 -0.21054553960E+02 -0.15990654034E+02  0.25620510895E+03  0.25756562874E+03  0.00000000000E+00 0. -1.
          1    1    1    2  502    0  0.21054553960E+02  0.15990654034E+02 -0.90775765659E+01  0.27953490930E+02  0.00000000000E+00 0. -1.
</event>
<event>
 4    1  0.3767413E+003  0.2953045E+02  0.7546771E-02  0.1423721E+00
          2   -1    0    0  502    0  0.00000000000E+00  0.00000000000E+00  0.19076384117E+04  0.19076384117E+04  0.00000000000E+00 0.  1.
          1   -1    0    0  501    0 -0.00000000000E+00 -0.00000000000E+00 -0.11695235065E+03  0.11695235065E+03  0.00000000000E+00 0. -1.
          2    1    1    2  501    0 -0.29112462166E+02 -0.49509903975E+01  0.19056580818E+04  0.19058868730E+04  0.00000000000E+00 0.  1.
          1    1    1    2  502    0  0.29112462166E+02  0.49509903975E+01 -0.11497202084E+03  0.11870388930E+03  0.00000000000E+00 0. -1.
</event>
<event>
 4    1  0.3767413E+003  0.2238281E+02  0.7546771E-02  0.1500397E+00
          2   -1    0    0  502    0  0.00000000000E+00  0.00000000000E+00  0.84245972042E+02  0.84245972042E+02  0.00000000000E+00 0. -1.
          1   -1    0    0  501    0 -0.00000000000E+00 -0.00000000000E+00 -0.33023312514E+03  0.33023312514E+03  0.00000000000E+00 0. -1.
          2    1    1    2  501    0 -0.22259984926E+02  0.23416179386E+01  0.82371536494E+02  0.85358421541E+02  0.00000000000E+00 0. -1.
          1    1    1    2  502    0  0.22259984926E+02 -0.23416179386E+01 -0.32835868959E+03  0.32912067564E+03  0.00000000000E+00 0. -1.
</event>
<event>
 4    1  0.3767413E+003  0.2214645E+02  0.7546771E-02  0.1503504E+00
          2   -1    0    0  502    0  0.00000000000E+00  0.00000000000E+00  0.56307501069E+02  0.56307501069E+02  0.00000000000E+00 0. -1.
          1   -1    0    0  501    0 -0.00000000000E+00 -0.00000000000E+00 -0.14510853178E+02  0.14510853178E+02  0.00000000000E+00 0.  1.
          2    1    1    2  501    0  0.22038378912E+02 -0.21852034833E+01  0.43285401116E+02  0.48621921076E+02  0.00000000000E+00 0. -1.
          1    1    1    2  502    0 -0.22038378912E+02  0.21852034833E+01 -0.14887532252E+01  0.22196433171E+02  0.00000000000E+00 0.  1.
</event>
<event>
 4    1  0.3767413E+003  0.3007358E+02  0.7546771E-02  0.1418958E+00
          2   -1    0    0  502    0  0.00000000000E+00  0.00000000000E+00  0.42310434465E+03  0.42310434465E+03  0.00000000000E+00 0.  1.
          1   -1    0    0  501    0 -0.00000000000E+00 -0.00000000000E+00 -0.53866166826E+01  0.53866166826E+01  0.00000000000E+00 0. -1.
          2    1    1    2  501    0 -0.11849929686E+02 -0.27640536597E+02  0.37525024587E+03  0.37645340631E+03  0.00000000000E+00 0.  1.
          1    1    1    2  502    0  0.11849929686E+02  0.27640536597E+02  0.42467482092E+02  0.52037555017E+02  0.00000000000E+00 0. -1.
</event>
<event>
 4    1  0.3767413E+003  0.2101525E+02  0.7546771E-02  0.1519047E+00
          2   -1    0    0  502    0  0.00000000000E+00  0.00000000000E+00  0.24218604518E+02  0.24218604518E+02  0.00000000000E+00 0.  1.
          1   -1    0    0  501    0 -0.00000000000E+00 -0.00000000000E+00 -0.27365363902E+03  0.27365363902E+03  0.00000000000E+00 0.  1.
          2    1    1    2  501    0 -0.18860875221E+02 -0.92686614684E+01  0.19170693797E+02  0.28445671027E+02  0.00000000000E+00 0.  1.
          1    1    1    2  502    0  0.18860875221E+02  0.92686614684E+01 -0.26860572830E+03  0.26942657251E+03  0.00000000000E+00 0.  1.
</event>
<event>
 4    1  0.3767413E+003  0.2629662E+02  0.7546771E-02  0.1454805E+00
          2   -1    0    0  502    0  0.00000000000E+00  0.00000000000E+00  0.45735871132E+02  0.45735871132E+02  0.00000000000E+00 0. -1.
          1   -1    0    0  501    0 -0.00000000000E+00 -0.00000000000E+00 -0.21177656249E+02  0.21177656249E+02  0.00000000000E+00 0. -1.
          2    1    1    2  501    0 -0.26190989499E+02  0.23546204508E+01  0.30173148349E+02  0.40024130842E+02  0.00000000000E+00 0. -1.
          1    1    1    2  502    0  0.26190989499E+02 -0.23546204508E+01 -0.56149334657E+01  0.26889396538E+02  0.00000000000E+00 0. -1.
</event>
<event>
 4    1  0.3767413E+003  0.3244739E+02  0.7546771E-02  0.1399455E+00
          2   -1    0    0  502    0  0.00000000000E+00  0.00000000000E+00  0.47243764416E+03  0.47243764416E+03  0.00000000000E+00 0.  1.
          1   -1    0    0  501    0 -0.00000000000E+00 -0.00000000000E+00 -0.30038193753E+01  0.30038193753E+01  0.00000000000E+00 0.  1.
          2    1    1    2  501    0 -0.95366439726E+01  0.31014283836E+02  0.35548907957E+03  0.35696683190E+03  0.00000000000E+00 0.  1.
          1    1    1    2  502    0  0.95366439726E+01 -0.31014283836E+02  0.11394474521E+03  0.11847463164E+03  0.00000000000E+00 0.  1.
</event>
<event>
 4    1  0.3767413E+003  0.2507380E+02  0.7546771E-02  0.1467979E+00
          2   -1    0    0  502    0  0.00000000000E+00  0.00000000000E+00  0.13794192445E+04  0.13794192445E+04  0.00000000000E+00 0. -1.
          1   -1    0    0  501    0 -0.00000000000E+00 -0.00000000000E+00 -0.45843129695E+00  0.45843129695E+00  0.00000000000E+00 0.  1.
          2    1    1    2  501    0 -0.16396809221E+02  0.18969455585E+02  0.74206479207E+03  0.74248828357E+03  0.00000000000E+00 0. -1.
          1    1    1    2  502    0  0.16396809221E+02 -0.18969455585E+02  0.63689602114E+03  0.63738939224E+03  0.00000000000E+00 0.  1.
</event>
<event>
 4    1  0.3767413E+003  0.2086005E+02  0.7546771E-02  0.1521272E+00
          2   -1    0    0  502    0  0.00000000000E+00  0.00000000000E+00  0.10870610169E+02  0.10870610169E+02  0.00000000000E+00 0.  1.
          1   -1    0    0  501    0 -0.00000000000E+00 -0.00000000000E+00 -0.59711263120E+02  0.59711263120E+02  0.00000000000E+00 0.  1.
          2    1    1    2  501    0 -0.40967130348E+01 -0.20453813373E+02 -0.41588700614E+01  0.21270583898E+02  0.00000000000E+00 0.  1.
          1    1    1    2  502    0  0.40967130348E+01  0.20453813373E+02 -0.44681782890E+02  0.49311289391E+02  0.00000000000E+00 0.  1.
</event>
<event>
 4    1  0.3767413E+003  0.2401504E+02  0.7546771E-02  0.1480131E+00
          2   -1    0    0  502    0  0.00000000000E+00  0.00000000000E+00  0.10600240659E+04  0.10600240659E+04  0.00000000000E+00 0. -1.
          1   -1    0    0  501    0 -0.00000000000E+00 -0.00000000000E+00 -0.18952333947E+02  0.18952333947E+02  0.00000000000E+00 0. -1.
          2    1    1    2  501    0  0.23471388475E+02  0.50809652025E+01  0.10522241272E+04  0.10524981407E+04  0.00000000000E+00 0. -1.
          1    1    1    2  502    0 -0.23471388475E+02 -0.50809652025E+01 -0.11152395302E+02  0.26478259107E+02  0.00000000000E+00 0. -1.
</event>
<event>
 4    1  0.3767413E+003  0.2031966E+02  0.7546771E-02  0.1529204E+00
          2   -1    0    0  502    0  0.00000000000E+00  0.00000000000E+00  0.24180280272E+02  0.24180280272E+02  0.00000000000E+00 0. -1.
          1   -1    0    0  501    0 -0.00000000000E+00 -0.00000000000E+00 -0.48224047392E+02  0.48224047392E+02  0.00000000000E+00 0. -1.
          2    1    1    2  501    0 -0.18210679217E+02 -0.90144131173E+01  0.17073369976E+02  0.26540317325E+02  0.00000000000E+00 0. -1.
          1    1    1    2  502    0  0.18210679217E+02  0.90144131173E+01 -0.41117137096E+02  0.45864010339E+02  0.00000000000E+00 0. -1.
</event>
<event>
 4    1  0.3767413E+003  0.2171590E+02  0.7546771E-02  0.1509284E+00
          2   -1    0    0  502    0  0.00000000000E+00  0.00000000000E+00  0.67679061717E+03  0.67679061717E+03  0.00000000000E+00 0. -1.
          1   -1    0    0  501    0 -0.00000000000E+00 -0.00000000000E+00 -0.33226161977E+02  0.33226161977E+02  0.00000000000E+00 0.  1.
          2    1    1    2  501    0 -0.50614835001E+01  0.21117804296E+02  0.67304843635E+03  0.67339867682E+03  0.00000000000E+00 0. -1.
          1    1    1    2  502    0  0.50614835001E+01 -0.21117804296E+02 -0.29483981153E+02  0.36618102328E+02  0.00000000000E+00 0.  1.
</event>
<event>
 4    1  0.3767413E+003  0.2252469E+02  0.7546771E-02  0.1498554E+00
          2   -1    0    0  502    0  0.00000000000E+00  0.00000000000E+00  0.47495249852E+03  0.47495249852E+03  0.00000000000E+00 0.  1.
          1   -1    0    0  501    0 -0.00000000000E+00 -0.00000000000E+00 -0.10817464432E+01  0.10817464432E+01  0.00000000000E+00 0. -1.
          2    1    1    2  501    0  0.20776327256E+02 -0.87009247573E+01  0.26353423735E+03  0.26449509659E+03  0.00000000000E+00 0.  1.
          1    1    1    2  502    0 -0.20776327256E+02  0.87009247573E+01  0.21033651472E+03  0.21153914837E+03  0.00000000000E+00 0. -1.
</event>
<event>
 4    1  0.3767413E+003  0.2398416E+02  0.7546771E-02  0.1480496E+00
          2   -1    0    0  502    0  0.00000000000E+00  0.00000000000E+00  0.13863285659E+04  0.13863285659E+04  0.00000000000E+00 0.  1.
          1   -1    0    0  501    0 -0.00000000000E+00 -0.00000000000E+00 -0.97327953375E+00  0.97327953375E+00  0.00000000000E+00 0. -1.
          2    1    1    2  501    0  0.23979645062E+02 -0.46512244148E+00  0.12180561876E+04  0.12182922949E+04  0.00000000000E+00 0.  1.
          1    1    1    2  502    0 -0.23979645062E+02  0.46512244148E+00  0.16729909878E+03  0.16900955053E+03  0.00000000000E+00 0. -1.
</event>
<event>
 4    1  0.3767413E+003  0.2242049E+02  0.7546771E-02  0.1499906E+00
          2   -1    0    0  502    0  0.00000000000E+00  0.00000000000E+00  0.48740786269E+03  0.48740786269E+03  0.00000000000E+00 0. -1.
          1   -1    0    0  501    0 -0.00000000000E+00 -0.00000000000E+00 -0.42002480559E+02  0.42002480559E+02  0.00000000000E+00 0.  1.
          2    1    1    2  501    0 -0.14932760518E+02 -0.16723959810E+02  0.48413787747E+03  0.48465674716E+03  0.00000000000E+00 0. -1.
          1    1    1    2  502    0  0.14932760518E+02  0.16723959810E+02 -0.38732495334E+02  0.44753596092E+02  0.00000000000E+00 0.  1.
</event>
<event>
 4    1  0.3767413E+003  0.3093265E+02  0.7546771E-02  0.1411661E+00
          2   -1    0    0  502    0  0.00000000000E+00  0.00000000000E+00  0.16618013600E+02  0.16618013600E+02  0.00000000000E+00 0. -1.
          1   -1    0    0  501    0 -0.00000000000E+00 -0.00000000000E+00 -0.15560535916E+03  0.15560535916E+03  0.00000000000E+00 0.  1.
          2    1    1    2  501    0  0.30662854108E+02  0.40765784689E+01 -0.11459807798E+01  0.30953875138E+02  0.00000000000E+00 0. -1.
          1    1    1    2  502    0 -0.30662854108E+02 -0.40765784689E+01 -0.13784136478E+03  0.14126949762E+03  0.00000000000E+00 0.  1.
</event>
<event>
 4    1  0.3767413E+003  0.2200881E+02  0.7546771E-02  0.1505334E+00
          2   -1    0    0  502    0  0.00000000000E+00  0.00000000000E+00  0.44221130152E+00  0.44221130152E+00  0.00000000000E+00 0.  1.
          1   -1    0    0  501    0 -0.00000000000E+00 -0.00000000000E+00 -0.14852497843E+04  0.14852497843E+04  0.00000000000E+00 0.  1.
          2    1    1    2  501    0  0.87748640353E+01  0.20183888795E+02 -0.36181051410E+03  0.36247929006E+03  0.00000000000E+00 0.  1.
          1    1    1    2  502    0 -0.87748640353E+01 -0.20183888795E+02 -0.11229970589E+04  0.11232127056E+04  0.00000000000E+00 0.  1.
</event>
<event>
 4    1  0.3767413E+003  0.2277005E+02  0.7546771E-02  0.1495406E+00
          2   -1    0    0  502    0  0.00000000000E+00  0.00000000000E+00  0.15352370606E+01  0.15352370606E+01  0.00000000000E+00 0.  1.
          1   -1    0    0  501    0 -0.00000000000E+00 -0.00000000000E+00 -0.43452660959E+03  0.43452660959E+03  0.00000000000E+00 0.  1.
          2    1    1    2  501    0  0.66703599286E+01  0.21771112924E+02 -0.11358274065E+03  0.11584262615E+03  0.00000000000E+00 0.  1.
          1    1    1    2  502    0 -0.66703599286E+01 -0.21771112924E+02 -0.31940863188E+03  0.32021922050E+03  0.00000000000E+00 0.  1.
</event>
<event>
 4    1  0.3767413E+003  0.2197246E+02  0.7546771E-02  0.1505820E+00
          2   -1    0    0  502    0  0.00000000000E+00  0.00000000000E+00  0.86010380351E+03  0.86010380351E+03  0.00000000000E+00 0. -1.
          1   -1    0    0  501    0 -0.00000000000E+00 -0.00000000000E+00 -0.10693774000E+01  0.10693774000E+01  0.00000000000E+00 0.  1.
          2    1    1    2  501    0 -0.56072261610E+01 -0.21244956809E+02  0.72631012397E+03  0.72664240542E+03  0.00000000000E+00 0. -1.
          1    1    1    2  502    0  0.56072261610E+01  0.21244956809E+02  0.13272430214E+03  0.13453077548E+03  0.00000000000E+00 0.  1.
</event>
<event>
 4    1  0.3767413E+003  0.2470778E+02  0.7546771E-02  0.1472099E+00
          2   -1    0    0  502    0  0.00000000000E+00  0.00000000000E+00  0.18434888685E+02  0.18434888685E+02  0.00000000000E+00 0.  1.
          1   -1    0    0  501    0 -0.00000000000E+00 -0.00000000000E+00 -0.36664091224E+03  0.36664091224E+03  0.00000000000E+00 0. -1.
          2    1    1    2  501    0 -0.65365778898E+01  0.23827453946E+02  0.95340989486E+01  0.26483456248E+02  0.00000000000E+00 0.  1.
          1    1    1    2  502    0  0.65365778898E+01 -0.23827453946E+02 -0.35774012250E+03  0.35859234467E+03  0.00000000000E+00 0. -1.
</event>
<event>
 4    1  0.3767413E+003  0.2851240E+02  0.7546771E-02  0.1432980E+00
          2   -1    0    0  502    0  0.00000000000E+00  0.00000000000E+00  0.32639418521E+02  0.32639418521E+02  0.00000000000E+00 0. -1.
          1   -1    0    0  501    0 -0.00000000000E+00 -0.00000000000E+00 -0.10608060390E+04  0.10608060390E+04  0.00000000000E+00 0. -1.
          2    1    1    2  501    0  0.27373071407E+02 -0.79794689764E+01  0.26182901630E+02  0.38710480509E+02  0.00000000000E+00 0. -1.
          1    1    1    2  502    0 -0.27373071407E+02  0.79794689764E+01 -0.10543495221E+04  0.10547349770E+04  0.00000000000E+00 0. -1.
</event>
<event>
 4    1  0.3767413E+003  0.3538621E+02  0.7546771E-02  0.1377868E+00
          2   -1    0    0  502    0  0.00000000000E+00  0.00000000000E+00  0.36833792713E+03  0.36833792713E+03  0.00000000000E+00 0.  1.
          1   -1    0    0  501    0 -0.00000000000E+00 -0.00000000000E+00 -0.34009437935E+01  0.34009437935E+01  0.00000000000E+00 0.  1.
          2    1    1    2  501    0  0.26909276033E+02  0.22979851786E+02  0.17870398153E+03  0.18217380641E+03  0.00000000000E+00 0.  1.
          1    1    1    2  502    0 -0.26909276033E+02 -0.22979851786E+02  0.18623300180E+03  0.18956506451E+03  0.00000000000E+00 0.  1.
</event>
<event>
 4    1  0.4839592E+003  0.2459640E+02  0.7546771E-02  0.1473369E+00
          2   -1    0    0  502    0  0.00000000000E+00  0.00000000000E+00  0.65352957020E+03  0.65352957020E+03  0.00000000000E+00 0. -1.
          1   -1    0    0  501    0 -0.00000000000E+00 -0.00000000000E+00 -0.10995293991E+04  0.10995293991E+04  0.00000000000E+00 0.  1.
          2    1    1    2  501    0 -0.24586877661E+02  0.68420137203E+00  0.65316050863E+03  0.65362346402E+03  0.00000000000E+00 0. -1.
          1    1    1    2  502    0  0.24586877661E+02 -0.68420137203E+00 -0.10991603375E+04  0.10994355052E+04  0.00000000000E+00 0.  1.
</event>
<event>
 4    1  0.3767413E+003  0.2909498E+02  0.7546771E-02  0.1427627E+00
          2   -1    0    0  502    0  0.00000000000E+00  0.00000000000E+00  0.20012333205E+03  0.20012333205E+03  0.00000000000E+00 0.  1.
          1   -1    0    0  501    0 -0.00000000000E+00 -0.00000000000E+00 -0.51413252446E+02  0.51413252446E+02  0.00000000000E+00 0.  1.
          2    1    1    2  501    0 -0.24549755538E+02 -0.15614970783E+02  0.19483856089E+03  0.19699894065E+03  0.00000000000E+00 0.  1.
          1    1    1    2  502    0  0.24549755538E+02  0.15614970783E+02 -0.46128481288E+02  0.54537643839E+02  0.00000000000E+00 0.  1.
</event>
<event>
 4    1  0.3767413E+003  0.3923266E+02  0.7546771E-02  0.1353042E+00
          2   -1    0    0  502    0  0.00000000000E+00  0.00000000000E+00  0.14214376841E+03  0.14214376841E+03  0.00000000000E+00 0. -1.
          1   -1    0    0  501    0 -0.00000000000E+00 -0.00000000000E+00 -0.26380742980E+02  0.26380742980E+02  0.00000000000E+00 0. -1.
          2    1    1    2  501    0 -0.19154006352E+02  0.34239238931E+02  0.12257883663E+03  0.12870420596E+03  0.00000000000E+00 0. -1.
          1    1    1    2  502    0  0.19154006352E+02 -0.34239238931E+02 -0.68158112052E+01  0.39820305427E+02  0.00000000000E+00 0. -1.
</event>
<event>
 4    1  0.3767413E+003  0.3910166E+02  0.7546771E-02  0.1353832E+00
          2   -1    0    0  502    0  0.00000000000E+00  0.00000000000E+00  0.14042687114E+02  0.14042687114E+02  0.00000000000E+00 0. -1.
          1   -1    0    0  501    0 -0.00000000000E+00 -0.00000000000E+00 -0.13073398190E+03  0.13073398190E+03  0.00000000000E+00 0. -1.
          2    1    1    2  501    0  0.34402814894E+02  0.18584536322E+02 -0.87943501574E+02  0.96244470657E+02  0.00000000000E+00 0. -1.
          1    1    1    2  502    0 -0.34402814894E+02 -0.18584536322E+02 -0.28747793213E+02  0.48532198359E+02  0.00000000000E+00 0. -1.
</event>
<event>
 4    1  0.3767413E+003  0.2041822E+02  0.7546771E-02  0.1527736E+00
          2   -1    0    0  502    0  0.00000000000E+00  0.00000000000E+00  0.36422355239E+02  0.36422355239E+02  0.00000000000E+00 0. -1.
          1   -1    0    0  501    0 -0.00000000000E+00 -0.00000000000E+00 -0.52695661421E+02  0.52695661421E+02  0.00000000000E+00 0. -1.
          2    1    1    2  501    0  0.11198279231E+02  0.17073441336E+02  0.31286950426E+02  0.37360100692E+02  0.00000000000E+00 0. -1.
          1    1    1    2  502    0 -0.11198279231E+02 -0.17073441336E+02 -0.47560256607E+02  0.51757915968E+02  0.00000000000E+00 0. -1.
</event>
<event>
 4    1  0.3767413E+003  0.4317991E+02  0.7546771E-02  0.1330796E+00
          2   -1    0    0  502    0  0.00000000000E+00  0.00000000000E+00  0.12724499428E+04  0.12724499428E+04  0.00000000000E+00 0. -1.
          1   -1    0    0  501    0 -0.00000000000E+00 -0.00000000000E+00 -0.26278969213E+02  0.26278969213E+02  0.00000000000E+00 0.  1.
          2    1    1    2  501    0 -0.43002489879E+02 -0.39103542763E+01  0.12540863503E+04  0.12548295020E+04  0.00000000000E+00 0. -1.
          1    1    1    2  502    0  0.43002489879E+02  0.39103542763E+01 -0.79153767832E+01  0.43899409973E+02  0.00000000000E+00 0.  1.
</event>
<event>
 4    1  0.3767413E+003  0.2738894E+02  0.7546771E-02  0.1443740E+00
          2   -1    0    0  502    0  0.00000000000E+00  0.00000000000E+00  0.26418618041E+03  0.26418618041E+03  0.00000000000E+00 0.  1.
          1   -1    0    0  501    0 -0.00000000000E+00 -0.00000000000E+00 -0.46693499672E+01  0.46693499672E+01  0.00000000000E+00 0.  1.
          2    1    1    2  501    0 -0.23032977931E+02 -0.14820095623E+02  0.45605335717E+02  0.53197743867E+02  0.00000000000E+00 0.  1.
          1    1    1    2  502    0  0.23032977931E+02  0.14820095623E+02  0.21391149473E+03  0.21565778651E+03  0.00000000000E+00 0.  1.
</event>
<event>
 4    1  0.3767413E+003  0.2089131E+02  0.7546771E-02  0.1520822E+00
          2   -1    0    0  502    0  0.00000000000E+00  0.00000000000E+00  0.34361616125E+01  0.34361616125E+01  0.00000000000E+00 0. -1.
          1   -1    0    0  501    0 -0.00000000000E+00 -0.00000000000E+00 -0.19543185080E+03  0.19543185080E+03  0.00000000000E+00 0.  1.
          2    1    1    2  501    0 -0.18203737172E+02 -0.10250407827E+02 -0.37165496605E+02  0.42634739891E+02  0.00000000000E+00 0. -1.
          1    1    1    2  502    0  0.18203737172E+02  0.10250407827E+02 -0.15483019259E+03  0.15623327253E+03  0.00000000000E+00 0.  1.
</event>
<event>
 4    1  0.3767413E+003  0.3287728E+02  0.7546771E-02  0.1396134E+00
          2   -1    0    0  502    0  0.00000000000E+00  0.00000000000E+00  0.37070894666E+01  0.37070894666E+01  0.00000000000E+00 0. -1.
          1   -1    0    0  501    0 -0.00000000000E+00 -0.00000000000E+00 -0.63538051827E+03  0.63538051827E+03  0.00000000000E+00 0.  1.
          2    1    1    2  501    0 -0.88525981392E+01 -0.31663018358E+02 -0.80783408969E+02  0.87217397290E+02  0.00000000000E+00 0. -1.
          1    1    1    2  502    0  0.88525981392E+01  0.31663018358E+02 -0.55089001983E+03  0.55187021045E+03  0.00000000000E+00 0.  1.
</event>
<event>
 4    1  0.3767413E+003  0.5604345E+02  0.7546771E-02  0.1273902E+00
          2   -1    0    0  502    0  0.00000000000E+00  0.00000000000E+00  0.49241980364E+02  0.49241980364E+02  0.00000000000E+00 0. -1.
          1   -1    0    0  501    0 -0.00000000000E+00 -0.00000000000E+00 -0.53603778193E+03  0.53603778193E+03  0.00000000000E+00 0.  1.
          2    1    1    2  501    0 -0.55662449234E+02  0.65238390057E+01  0.31279774326E+02  0.64181718674E+02  0.00000000000E+00 0. -1.
          1    1    1    2  502    0  0.55662449234E+02 -0.65238390057E+01 -0.51807557589E+03  0.52109804362E+03  0.00000000000E+00 0.  1.
</event>
<event>
 4    1  0.3767413E+003  0.2464829E+02  0.7546771E-02  0.1472777E+00
          2   -1    0    0  502    0  0.00000000000E+00  0.00000000000E+00  0.48731638106E+02  0.48731638106E+02  0.00000000000E+00 0.  1.
          1   -1    0    0  501    0 -0.00000000000E+00 -0.00000000000E+00 -0.21051966947E+03  0.21051966947E+03  0.00000000000E+00 0. -1.
          2    1    1    2  501    0 -0.23587672502E+02 -0.71526121361E+01  0.44834836809E+02  0.51163470818E+02  0.00000000000E+00 0.  1.
          1    1    1    2  502    0  0.23587672502E+02  0.71526121361E+01 -0.20662286817E+03  0.20808783676E+03  0.00000000000E+00 0. -1.
</event>
<event>
 4    1  0.3767413E+003  0.2520440E+02  0.7546771E-02  0.1466530E+00
          2   -1    0    0  502    0  0.00000000000E+00  0.00000000000E+00  0.15650645285E+01  0.15650645285E+01  0.00000000000E+00 0.  1.
          1   -1    0    0  501    0 -0.00000000000E+00 -0.00000000000E+00 -0.10826441794E+04  0.10826441794E+04  0.00000000000E+00 0. -1.
          2    1    1    2  501    0  0.22826867377E+02 -0.10686249038E+02 -0.11193965159E+03  0.11474209076E+03  0.00000000000E+00 0.  1.
          1    1    1    2  502    0 -0.22826867377E+02  0.10686249038E+02 -0.96913946330E+03  0.96946715319E+03  0.00000000000E+00 0. -1.
</event>
<event>
 4    1  0.3767413E+003  0.4421250E+02  0.7546771E-02  0.1325424E+00
          2   -1    0    0  502    0  0.00000000000E+00  0.00000000000E+00  0.37785435948E+03  0.37785435948E+03  0.00000000000E+00 0. -1.
          1   -1    0    0  501    0 -0.00000000000E+00 -0.00000000000E+00 -0.94658836674E+02  0.94658836674E+02  0.00000000000E+00 0. -1.
          2    1    1    2  501    0  0.25998406686E+02 -0.35760708290E+02  0.37130773038E+03  0.37393071022E+03  0.00000000000E+00 0. -1.
          1    1    1    2  502    0 -0.25998406686E+02  0.35760708290E+02 -0.88112207577E+02  0.98582485928E+02  0.00000000000E+00 0. -1.
</event>
<event>
 4    1  0.3767413E+003  0.2107214E+02  0.7546771E-02  0.1518237E+00
          2   -1    0    0  502    0  0.00000000000E+00  0.00000000000E+00  0.37988000412E+01  0.37988000412E+01  0.00000000000E+00 0.  1.
          1   -1    0    0  501    0 -0.00000000000E+00 -0.00000000000E+00 -0.15120584133E+03  0.15120584133E+03  0.00000000000E+00 0.  1.
          2    1    1    2  501    0  0.12514767858E+02 -0.16953341571E+02 -0.36781230716E+02  0.42389788133E+02  0.00000000000E+00 0.  1.
          1    1    1    2  502    0 -0.12514767858E+02  0.16953341571E+02 -0.11062581057E+03  0.11261485324E+03  0.00000000000E+00 0.  1.
</event>
<event>
 4    1  0.3767413E+003  0.2904717E+02  0.7546771E-02  0.1428061E+00
          2   -1    0    0  502    0  0.00000000000E+00  0.00000000000E+00  0.12813868028E+01  0.12813868028E+01  0.00000000000E+00 0. -1.
          1   -1    0    0  501    0 -0.00000000000E+00 -0.00000000000E+00 -0.66731769945E+03  0.66731769945E+03  0.00000000000E+00 0. -1.
          2    1    1    2  501    0  0.27779855985E+02 -0.84863296214E+01 -0.29449676600E+03  0.29592580721E+03  0.00000000000E+00 0. -1.
          1    1    1    2  502    0 -0.27779855985E+02  0.84863296214E+01 -0.37153954665E+03  0.37267327905E+03  0.00000000000E+00 0. -1.
</event>
<event>
 4    1  0.3767413E+003  0.2467460E+02  0.7546771E-02  0.1472477E+00
          2   -1    0    0  502    0  0.00000000000E+00  0.00000000000E+00  0.53244214803E+01  0.53244214803E+01  0.00000000000E+00 0. -1.
          1   -1    0    0  501    0 -0.00000000000E+00 -0.00000000000E+00 -0.26428426257E+03  0.26428426257E+03  0.00000000000E+00 0. -1.
          2    1    1    2  501    0 -0.17643976677E+01 -0.24611437906E+02 -0.27943503405E+02  0.37278349715E+02  0.00000000000E+00 0. -1.
          1    1    1    2  502    0  0.17643976677E+01  0.24611437906E+02 -0.23101633768E+03  0.23233033433E+03  0.00000000000E+00 0. -1.
</event>
<event>
 4    1  0.3767413E+003  0.3018699E+02  0.7546771E-02  0.1417978E+00
          2   -1    0    0  502    0  0.00000000000E+00  0.00000000000E+00  0.40197146734E+03  0.40197146734E+03  0.00000000000E+00 0. -1.
          1   -1    0    0  501    0 -0.00000000000E+00 -0.00000000000E+00 -0.19524057180E+03  0.19524057180E+03  0.00000000000E+00 0.  1.
          2    1    1    2  501    0  0.28345662226E+02 -0.10381609666E+02  0.40023282967E+03  0.40136962059E+03  0.00000000000E+00 0. -1.
          1    1    1    2  502    0 -0.28345662226E+02  0.10381609666E+02 -0.19350193414E+03  0.19584241854E+03  0.00000000000E+00 0.  1.
</event>
<event>
 4    1  0.3767413E+003  0.2171824E+02  0.7546771E-02  0.1509253E+00
          2   -1    0    0  502    0  0.00000000000E+00  0.00000000000E+00  0.12980873415E+02  0.12980873415E+02  0.00000000000E+00 0. -1.
          1   -1    0    0  501    0 -0.00000000000E+00 -0.00000000000E+00 -0.18136488143E+03  0.18136488143E+03  0.00000000000E+00 0. -1.
          2    1    1    2  501    0 -0.21362398370E+02  0.39153236658E+01  0.27029780086E+01  0.21885792506E+02  0.00000000000E+00 0. -1.
          1    1    1    2  502    0  0.21362398370E+02 -0.39153236658E+01 -0.17108698602E+03  0.17245996234E+03  0.00000000000E+00 0. -1.
</event>
<event>
 4    1  0.3767413E+003  0.4661559E+02  0.7546771E-02  0.1313553E+00
          2   -1    0    0  502    0  0.00000000000E+00  0.00000000000E+00  0.58711172249E+02  0.58711172249E+02  0.00000000000E+00 0.  1.
          1   -1    0    0  501    0 -0.00000000000E+00 -0.00000000000E+00 -0.29030775191E+03  0.29030775191E+03  0.00000000000E+00 0.  1.
          2    1    1    2  501    0 -0.11616573443E+02 -0.45144968587E+02  0.47207747062E+02  0.66344437219E+02  0.00000000000E+00 0.  1.
          1    1    1    2  502    0  0.11616573443E+02  0.45144968587E+02 -0.27880432672E+03  0.28267448694E+03  0.00000000000E+00 0.  1.
</event>
<event>
 4    1  0.3767413E+003  0.2097921E+02  0.7546771E-02  0.1519562E+00
          2   -1    0    0  502    0  0.00000000000E+00  0.00000000000E+00  0.20285744953E+02  0.20285744953E+02  0.00000000000E+00 0. -1.
          1   -1    0    0  501    0 -0.00000000000E+00 -0.00000000000E+00 -0.25199513862E+02  0.25199513862E+02  0.00000000000E+00 0. -1.
          2    1    1    2  501    0  0.20467630196E+02  0.46046638690E+01 -0.10936462280E+02  0.23658677529E+02  0.00000000000E+00 0. -1.
          1    1    1    2  502    0 -0.20467630196E+02 -0.46046638690E+01  0.60226933705E+01  0.21826581286E+02  0.00000000000E+00 0. -1.
</event>
<event>
 4    1  0.3767413E+003  0.1256313E+03  0.7546771E-02  0.1125588E+00
          2   -1    0    0  502    0  0.00000000000E+00  0.00000000000E+00  0.87620193627E+02  0.87620193627E+02  0.00000000000E+00 0.  1.
          1   -1    0    0  501    0 -0.00000000000E+00 -0.00000000000E+00 -0.73739076464E+03  0.73739076464E+03  0.00000000000E+00 0. -1.
          2    1    1    2  501    0 -0.12382865401E+03 -0.21205737857E+02  0.33713857757E+02  0.13007629713E+03  0.00000000000E+00 0.  1.
          1    1    1    2  502    0  0.12382865401E+03  0.21205737857E+02 -0.68348442877E+03  0.69493466113E+03  0.00000000000E+00 0. -1.
</event>
<event>
 4    1  0.3767413E+003  0.2109445E+02  0.7546771E-02  0.1517921E+00
          2   -1    0    0  502    0  0.00000000000E+00  0.00000000000E+00  0.65974504491E+01  0.65974504491E+01  0.00000000000E+00 0.  1.
          1   -1    0    0  501    0 -0.00000000000E+00 -0.00000000000E+00 -0.73862969308E+02  0.73862969308E+02  0.00000000000E+00 0. -1.
          2    1    1    2  501    0 -0.10035201451E+02 -0.18554528323E+02 -0.21775546220E+02  0.30317490045E+02  0.00000000000E+00 0.  1.
          1    1    1    2  502    0  0.10035201451E+02  0.18554528323E+02 -0.45489972639E+02  0.50142929712E+02  0.00000000000E+00 0. -1.
</event>
<event>
 4    1  0.3767413E+003  0.3136600E+02  0.7546771E-02  0.1408086E+00
          2   -1    0    0  502    0  0.00000000000E+00  0.00000000000E+00  0.77390431525E+02  0.77390431525E+02  0.00000000000E+00 0. -1.
          1   -1    0    0  501    0 -0.00000000000E+00 -0.00000000000E+00 -0.76684227215E+03  0.76684227215E+03  0.00000000000E+00 0.  1.
          2    1    1    2  501    0 -0.94969379785E+01 -0.29893709854E+02  0.73876945458E+02  0.80259758223E+02  0.00000000000E+00 0. -1.
          1    1    1    2  502    0  0.94969379785E+01  0.29893709854E+02 -0.76332878609E+03  0.76397294545E+03  0.00000000000E+00 0.  1.
</event>
<event>
 4    1  0.3767413E+003  0.3030593E+02  0.7546771E-02  0.1416956E+00
          2   -1    0    0  502    0  0.00000000000E+00  0.00000000000E+00  0.68227523282E+03  0.68227523282E+03  0.00000000000E+00 0. -1.
          1   -1    0    0  501    0 -0.00000000000E+00 -0.00000000000E+00 -0.15490860314E+01  0.15490860314E+01  0.00000000000E+00 0.  1.
          2    1    1    2  501    0 -0.27598750216E+02  0.12520316652E+02  0.46411422285E+03  0.46510263511E+03  0.00000000000E+00 0. -1.
          1    1    1    2  502    0  0.27598750216E+02 -0.12520316652E+02  0.21661192395E+03  0.21872168374E+03  0.00000000000E+00 0.  1.
</event>
<event>
 4    1  0.3767413E+003  0.2895224E+02  0.7546771E-02  0.1428925E+00
          2   -1    0    0  502    0  0.00000000000E+00  0.00000000000E+00  0.11915817651E+03  0.11915817651E+03  0.00000000000E+00 0. -1.
          1   -1    0    0  501    0 -0.00000000000E+00 -0.00000000000E+00 -0.93971876067E+02  0.93971876067E+02  0.00000000000E+00 0. -1.
          2    1    1    2  501    0 -0.28922180710E+02  0.13189267617E+01  0.11509193590E+03  0.11867765508E+03  0.00000000000E+00 0. -1.
          1    1    1    2  502    0  0.28922180710E+02 -0.13189267617E+01 -0.89905635463E+02  0.94452397497E+02  0.00000000000E+00 0. -1.
</event>
<event>
 4    1  0.3824237E+003  0.2534395E+02  0.7546771E-02  0.1464992E+00
          2   -1    0    0  502    0  0.00000000000E+00  0.00000000000E+00  0.59008089740E+03  0.59008089740E+03  0.00000000000E+00 0. -1.
          1   -1    0    0  501    0 -0.00000000000E+00 -0.00000000000E+00 -0.51551768420E+03  0.51551768420E+03  0.00000000000E+00 0. -1.
          2    1    1    2  501    0  0.25085068944E+02  0.36131752666E+01  0.58949696800E+03  0.59004151633E+03  0.00000000000E+00 0. -1.
          1    1    1    2  502    0 -0.25085068944E+02 -0.36131752666E+01 -0.51493375479E+03  0.51555706527E+03  0.00000000000E+00 0. -1.
</event>
<event>
 4    1  0.3767413E+003  0.2597547E+02  0.7546771E-02  0.1458180E+00
          2   -1    0    0  502    0  0.00000000000E+00  0.00000000000E+00  0.10803833773E+04  0.10803833773E+04  0.00000000000E+00 0. -1.
          1   -1    0    0  501    0 -0.00000000000E+00 -0.00000000000E+00 -0.70636792749E+01  0.70636792749E+01  0.00000000000E+00 0.  1.
          2    1    1    2  501    0 -0.58153599330E+01  0.25316137947E+02  0.10557910029E+04  0.10561104900E+04  0.00000000000E+00 0. -1.
          1    1    1    2  502    0  0.58153599330E+01 -0.25316137947E+02  0.17528695083E+02  0.31336566548E+02  0.00000000000E+00 0.  1.
</event>
<event>
 4    1  0.3767413E+003  0.2700776E+02  0.7546771E-02  0.1447530E+00
          2   -1    0    0  502    0  0.00000000000E+00  0.00000000000E+00  0.52728274816E+02  0.52728274816E+02  0.00000000000E+00 0.  1.
          1   -1    0    0  501    0 -0.00000000000E+00 -0.00000000000E+00 -0.21878141471E+03  0.21878141471E+03  0.00000000000E+00 0.  1.
          2    1    1    2  501    0  0.26349866523E+02  0.59248266870E+01  0.48366308547E+02  0.55396018264E+02  0.00000000000E+00 0.  1.
          1    1    1    2  502    0 -0.26349866523E+02 -0.59248266870E+01 -0.21441944844E+03  0.21611367126E+03  0.00000000000E+00 0.  1.
</event>
<event>
 4    1  0.4080707E+003  0.2466317E+02  0.7546771E-02  0.1472607E+00
          2   -1    0    0  502    0  0.00000000000E+00  0.00000000000E+00  0.66812571968E+03  0.66812571968E+03  0.00000000000E+00 0.  1.
          1   -1    0    0  501    0 -0.00000000000E+00 -0.00000000000E+00 -0.17725214891E+04  0.17725214891E+04  0.00000000000E+00 0. -1.
          2    1    1    2  501    0 -0.24629848684E+02  0.12816019787E+01  0.66781228368E+03  0.66826754985E+03  0.00000000000E+00 0.  1.
          1    1    1    2  502    0  0.24629848684E+02 -0.12816019787E+01 -0.17722080531E+04  0.17723796589E+04  0.00000000000E+00 0. -1.
</event>
<event>
 4    1  0.3767413E+003  0.2650698E+02  0.7546771E-02  0.1452624E+00
          2   -1    0    0  502    0  0.00000000000E+00  0.00000000000E+00  0.16189556223E+03  0.16189556223E+03  0.00000000000E+00 0.  1.
          1   -1    0    0  501    0 -0.00000000000E+00 -0.00000000000E+00 -0.27635786079E+02  0.27635786079E+02  0.00000000000E+00 0. -1.
          2    1    1    2  501    0  0.16848090689E+02  0.20463670218E+02  0.15413689331E+03  0.15639949437E+03  0.00000000000E+00 0.  1.
          1    1    1    2  502    0 -0.16848090689E+02 -0.20463670218E+02 -0.19877117163E+02  0.33131853938E+02  0.00000000000E+00 0. -1.
</event>
<event>
 4    1  0.3767413E+003  0.3155025E+02  0.7546771E-02  0.1406587E+00
          2   -1    0    0  502    0  0.00000000000E+00  0.00000000000E+00  0.51132468895E+02  0.51132468895E+02  0.00000000000E+00 0. -1.
          1   -1    0    0  501    0 -0.00000000000E+00 -0.00000000000E+00 -0.18612325262E+04  0.18612325262E+04  0.00000000000E+00 0. -1.
          2    1    1    2  501    0 -0.31182267700E+02 -0.48046181740E+01  0.46118760596E+02  0.55878065944E+02  0.00000000000E+00 0. -1.
          1    1    1    2  502    0  0.31182267700E+02  0.48046181740E+01 -0.18562188179E+04  0.18564869291E+04  0.00000000000E+00 0. -1.
</event>
<event>
 4    1  0.3767413E+003  0.3433353E+02  0.7546771E-02  0.1385310E+00
          2   -1    0    0  502    0  0.00000000000E+00  0.00000000000E+00  0.38873098914E+03  0.38873098914E+03  0.00000000000E+00 0. -1.
          1   -1    0    0  501    0 -0.00000000000E+00 -0.00000000000E+00 -0.96400131212E+01  0.96400131212E+01  0.00000000000E+00 0. -1.
          2    1    1    2  501    0  0.32601881839E+02 -0.10766095229E+02  0.35445317664E+03  0.35611212551E+03  0.00000000000E+00 0. -1.
          1    1    1    2  502    0 -0.32601881839E+02  0.10766095229E+02  0.24637799379E+02  0.42258876750E+02  0.00000000000E+00 0. -1.
</event>
<event>
 4    1  0.3767413E+003  0.2183932E+02  0.7546771E-02  0.1507611E+00
          2   -1    0    0  502    0  0.00000000000E+00  0.00000000000E+00  0.12259482158E+04  0.12259482158E+04  0.00000000000E+00 0. -1.
          1   -1    0    0  501    0 -0.00000000000E+00 -0.00000000000E+00 -0.62056480001E+00  0.62056480001E+00  0.00000000000E+00 0. -1.
          2    1    1    2  501    0 -0.21498380443E+02 -0.38438872342E+01  0.98725470882E+03  0.98749623590E+03  0.00000000000E+00 0. -1.
          1    1    1    2  502    0  0.21498380443E+02  0.38438872342E+01  0.23807294217E+03  0.23907254469E+03  0.00000000000E+00 0. -1.
</event>
<event>
 4    1  0.3767413E+003  0.3683595E+02  0.7546771E-02  0.1368096E+00
          2   -1    0    0  502    0  0.00000000000E+00  0.00000000000E+00  0.21021177229E+02  0.21021177229E+02  0.00000000000E+00 0. -1.
          1   -1    0    0  501    0 -0.00000000000E+00 -0.00000000000E+00 -0.64584356790E+02  0.64584356790E+02  0.00000000000E+00 0. -1.
          2    1    1    2  501    0 -0.36765062817E+02  0.22839274473E+01 -0.22789656353E+02  0.43315754700E+02  0.00000000000E+00 0. -1.
          1    1    1    2  502    0  0.36765062817E+02 -0.22839274473E+01 -0.20773523208E+02  0.42289779320E+02  0.00000000000E+00 0. -1.
</event>
<event>
 4    1  0.3767413E+003  0.2921902E+02  0.7546771E-02  0.1426507E+00
          2   -1    0    0  502    0  0.00000000000E+00  0.00000000000E+00  0.91215270070E+02  0.91215270070E+02  0.00000000000E+00 0. -1.
          1   -1    0    0  501    0 -0.00000000000E+00 -0.00000000000E+00 -0.24723499371E+03  0.24723499371E+03  0.00000000000E+00 0.  1.
          2    1    1    2  501    0  0.28844592693E+02 -0.46626895142E+01  0.87981131234E+02  0.92706152192E+02  0.00000000000E+00 0. -1.
          1    1    1    2  502    0 -0.28844592693E+02  0.46626895142E+01 -0.24400085488E+03  0.24574411159E+03  0.00000000000E+00 0.  1.
</event>
<event>
 4    1  0.3767413E+003  0.2324802E+02  0.7546771E-02  0.1489407E+00
          2   -1    0    0  502    0  0.00000000000E+00  0.00000000000E+00  0.44679688228E+03  0.44679688228E+03  0.00000000000E+00 0.  1.
          1   -1    0    0  501    0 -0.00000000000E+00 -0.00000000000E+00 -0.24424679096E+02  0.24424679096E+02  0.00000000000E+00 0. -1.
          2    1    1    2  501    0  0.20652562365E+02 -0.10674366212E+02  0.44088837169E+03  0.44150087964E+03  0.00000000000E+00 0.  1.
          1    1    1    2  502    0 -0.20652562365E+02  0.10674366212E+02 -0.18516168514E+02  0.29720681733E+02  0.00000000000E+00 0. -1.
</event>
<event>
 4    1  0.3767413E+003  0.2478860E+02  0.7546771E-02  0.1471182E+00
          2   -1    0    0  502    0  0.00000000000E+00  0.00000000000E+00  0.33449518925E+03  0.33449518925E+03  0.00000000000E+00 0.  1.
          1   -1    0    0  501    0 -0.00000000000E+00 -0.00000000000E+00 -0.42711666664E+01  0.42711666664E+01  0.00000000000E+00 0. -1.
          2    1    1    2  501    0  0.21236140222E+02  0.12786747825E+02  0.29298250160E+03  0.29402928564E+03  0.00000000000E+00 0.  1.
          1    1    1    2  502    0 -0.21236140222E+02 -0.12786747825E+02  0.37241520979E+02  0.44737070270E+02  0.00000000000E+00 0. -1.
</event>
<event>
 4    1  0.3767413E+003  0.2140585E+02  0.7546771E-02  0.1513549E+00
          2   -1    0    0  502    0  0.00000000000E+00  0.00000000000E+00  0.12572280540E+03  0.12572280540E+03  0.00000000000E+00 0. -1.
          1   -1    0    0  501    0 -0.00000000000E+00 -0.00000000000E+00 -0.44516513194E+01  0.44516513194E+01  0.00000000000E+00 0. -1.
          2    1    1    2  501    0 -0.71850291760E+01  0.20163976841E+02  0.88348546714E+02  0.90904765072E+02  0.00000000000E+00 0. -1.
          1    1    1    2  502    0  0.71850291760E+01 -0.20163976841E+02  0.32922607371E+02  0.39269691651E+02  0.00000000000E+00 0. -1.
</event>
<event>
 4    1  0.3767413E+003  0.2861325E+02  0.7546771E-02  0.1432043E+00
          2   -1    0    0  502    0  0.00000000000E+00  0.00000000000E+00  0.35234265400E+01  0.35234265400E+01  0.00000000000E+00 0.  1.
          1   -1    0    0  501    0 -0.00000000000E+00 -0.00000000000E+00 -0.48556957872E+03  0.48556957872E+03  0.00000000000E+00 0.  1.
          2    1    1    2  501    0  0.24876450808E+02 -0.14137896388E+02 -0.64430577921E+02  0.70498349557E+02  0.00000000000E+00 0.  1.
          1    1    1    2  502    0 -0.24876450808E+02  0.14137896388E+02 -0.41761557426E+03  0.41859465571E+03  0.00000000000E+00 0.  1.
</event>
<event>
 4    1  0.3767413E+003  0.2591401E+02  0.7546771E-02  0.1458833E+00
          2   -1    0    0  502    0  0.00000000000E+00  0.00000000000E+00  0.18436736428E+03  0.18436736428E+03  0.00000000000E+00 0.  1.
          1   -1    0    0  501    0 -0.00000000000E+00 -0.00000000000E+00 -0.18966741308E+04  0.18966741308E+04  0.00000000000E+00 0.  1.
          2    1    1    2  501    0  0.12433049759E+01 -0.25884167999E+02  0.18336777426E+03  0.18518983935E+03  0.00000000000E+00 0.  1.
          1    1    1    2  502    0 -0.12433049759E+01  0.25884167999E+02 -0.18956745408E+04  0.18958516557E+04  0.00000000000E+00 0.  1.
</event>
<event>
 4    1  0.3767413E+003  0.2271204E+02  0.7546771E-02  0.1496146E+00
          2   -1    0    0  502    0  0.00000000000E+00  0.00000000000E+00  0.48107604060E+02  0.48107604060E+02  0.00000000000E+00 0. -1.
          1   -1    0    0  501    0 -0.00000000000E+00 -0.00000000000E+00 -0.31308964689E+02  0.31308964689E+02  0.00000000000E+00 0. -1.
          2    1    1    2  501    0  0.92187356340E+01  0.20756970887E+02  0.40597918051E+02  0.46519113031E+02  0.00000000000E+00 0. -1.
          1    1    1    2  502    0 -0.92187356340E+01 -0.20756970887E+02 -0.23799278680E+02  0.32897455719E+02  0.00000000000E+00 0. -1.
</event>
<event>
 4    1  0.3767413E+003  0.4809666E+02  0.7546771E-02  0.1306642E+00
          2   -1    0    0  502    0  0.00000000000E+00  0.00000000000E+00  0.13364858086E+04  0.13364858086E+04  0.00000000000E+00 0.  1.
          1   -1    0    0  501    0 -0.00000000000E+00 -0.00000000000E+00 -0.10483888368E+02  0.10483888368E+02  0.00000000000E+00 0.  1.
          2    1    1    2  501    0  0.46130826413E+02  0.13610123724E+02  0.12783839041E+04  0.12792883548E+04  0.00000000000E+00 0.  1.
          1    1    1    2  502    0 -0.46130826413E+02 -0.13610123724E+02  0.47618016225E+02  0.67681342204E+02  0.00000000000E+00 0.  1.
</event>
<event>
 4    1  0.3767413E+003  0.5299834E+02  0.7546771E-02  0.1285671E+00
          2   -1    0    0  502    0  0.00000000000E+00  0.00000000000E+00  0.79624985809E+01  0.79624985809E+01  0.00000000000E+00 0.  1.
          1   -1    0    0  501    0 -0.00000000000E+00 -0.00000000000E+00 -0.10140448261E+04  0.10140448261E+04  0.00000000000E+00 0.  1.
          2    1    1    2  501    0  0.11332202653E+02 -0.51772627123E+02 -0.90382622127E+02  0.10477519801E+03  0.00000000000E+00 0.  1.
          1    1    1    2  502    0 -0.11332202653E+02  0.51772627123E+02 -0.91569970540E+03  0.91723212668E+03  0.00000000000E+00 0.  1.
</event>
<event>
 4    1  0.3767413E+003  0.2285288E+02  0.7546771E-02  0.1494354E+00
          2   -1    0    0  502    0  0.00000000000E+00  0.00000000000E+00  0.16859887850E+02  0.16859887850E+02  0.00000000000E+00 0.  1.
          1   -1    0    0  501    0 -0.00000000000E+00 -0.00000000000E+00 -0.13525830804E+03  0.13525830804E+03  0.00000000000E+00 0. -1.
          2    1    1    2  501    0  0.13914127167E+02 -0.18128738469E+02  0.75850686251E+01  0.24078774041E+02  0.00000000000E+00 0.  1.
          1    1    1    2  502    0 -0.13914127167E+02  0.18128738469E+02 -0.12598348882E+03  0.12803942185E+03  0.00000000000E+00 0. -1.
</event>
<event>
 4    1  0.3767413E+003  0.2857166E+02  0.7546771E-02  0.1432429E+00
          2   -1    0    0  502    0  0.00000000000E+00  0.00000000000E+00  0.33024386468E+01  0.33024386468E+01  0.00000000000E+00 0. -1.
          1   -1    0    0  501    0 -0.00000000000E+00 -0.00000000000E+00 -0.84644087432E+03  0.84644087432E+03  0.00000000000E+00 0. -1.
          2    1    1    2  501    0  0.28396591028E+02 -0.31580437641E+01 -0.64080197470E+02  0.70161323607E+02  0.00000000000E+00 0. -1.
          1    1    1    2  502    0 -0.28396591028E+02  0.31580437641E+01 -0.77905823821E+03  0.77958198936E+03  0.00000000000E+00 0. -1.
</event>
<event>
 4    1  0.3767413E+003  0.2770779E+02  0.7546771E-02  0.1440625E+00
          2   -1    0    0  502    0  0.00000000000E+00  0.00000000000E+00  0.68022266468E+03  0.68022266468E+03  0.00000000000E+00 0. -1.
          1   -1    0    0  501    0 -0.00000000000E+00 -0.00000000000E+00 -0.28707032303E+02  0.28707032303E+02  0.00000000000E+00 0.  1.
          2    1    1    2  501    0 -0.13949109474E+02 -0.23940431124E+02  0.67318480363E+03  0.67375477864E+03  0.00000000000E+00 0. -1.
          1    1    1    2  502    0  0.13949109474E+02  0.23940431124E+02 -0.21669171256E+02  0.35174918343E+02  0.00000000000E+00 0.  1.
</event>
<event>
 4    1  0.3767413E+003  0.2341634E+02  0.7546771E-02  0.1487335E+00
          2   -1    0    0  502    0  0.00000000000E+00  0.00000000000E+00  0.16393438100E+01  0.16393438100E+01  0.00000000000E+00 0.  1.
          1   -1    0    0  501    0 -0.00000000000E+00 -0.00000000000E+00 -0.42058361022E+03  0.42058361022E+03  0.00000000000E+00 0. -1.
          2    1    1    2  501    0 -0.19095414646E+02  0.13553229885E+02 -0.11395073173E+03  0.11633182781E+03  0.00000000000E+00 0.  1.
          1    1    1    2  502    0  0.19095414646E+02 -0.13553229885E+02 -0.30499353468E+03  0.30589112622E+03  0.00000000000E+00 0. -1.
</event>
<event>
 4    1  0.3767413E+003  0.5115253E+02  0.7546771E-02  0.1293251E+00
          2   -1    0    0  502    0  0.00000000000E+00  0.00000000000E+00  0.33704053242E+03  0.33704053242E+03  0.00000000000E+00 0. -1.
          1   -1    0    0  501    0 -0.00000000000E+00 -0.00000000000E+00 -0.84022507227E+01  0.84022507227E+01  0.00000000000E+00 0. -1.
          2    1    1    2  501    0 -0.24912976943E+02  0.44675746404E+02  0.11669252183E+03  0.12741162972E+03  0.00000000000E+00 0. -1.
          1    1    1    2  502    0  0.24912976943E+02 -0.44675746404E+02  0.21194575987E+03  0.21803115342E+03  0.00000000000E+00 0. -1.
</event>
<event>
 4    1  0.3767413E+003  0.2107264E+02  0.7546771E-02  0.1518230E+00
          2   -1    0    0  502    0  0.00000000000E+00  0.00000000000E+00  0.18000816013E+03  0.18000816013E+03  0.00000000000E+00 0. -1.
          1   -1    0    0  501    0 -0.00000000000E+00 -0.00000000000E+00 -0.61706864620E+01  0.61706864620E+01  0.00000000000E+00 0. -1.
          2    1    1    2  501    0 -0.82613966404E+01 -0.19385705337E+02  0.15903919653E+03  0.16042918150E+03  0.00000000000E+00 0. -1.
          1    1    1    2  502    0  0.82613966404E+01  0.19385705337E+02  0.14798277142E+02  0.25749665090E+02  0.00000000000E+00 0. -1.
</event>
<event>
 4    1  0.3767413E+003  0.4609872E+02  0.7546771E-02  0.1316035E+00
          2   -1    0    0  502    0  0.00000000000E+00  0.00000000000E+00  0.35138349676E+01  0.35138349676E+01  0.00000000000E+00 0.  1.
          1   -1    0    0  501    0 -0.00000000000E+00 -0.00000000000E+00 -0.81387211893E+03  0.81387211893E+03  0.00000000000E+00 0. -1.
          2    1    1    2  501    0  0.34034370018E+02 -0.31092661832E+02 -0.19802699295E+03  0.20332186774E+03  0.00000000000E+00 0.  1.
          1    1    1    2  502    0 -0.34034370018E+02  0.31092661832E+02 -0.61233129101E+03  0.61406408616E+03  0.00000000000E+00 0. -1.
</event>
<event>
 4    1  0.3767413E+003  0.3058760E+02  0.7546771E-02  0.1414558E+00
          2   -1    0    0  502    0  0.00000000000E+00  0.00000000000E+00  0.10733884607E+03  0.10733884607E+03  0.00000000000E+00 0. -1.
          1   -1    0    0  501    0 -0.00000000000E+00 -0.00000000000E+00 -0.12748131401E+02  0.12748131401E+02  0.00000000000E+00 0. -1.
          2    1    1    2  501    0 -0.91019752103E+01  0.29201975365E+02  0.81062317119E+02  0.86641217527E+02  0.00000000000E+00 0. -1.
          1    1    1    2  502    0  0.91019752103E+01 -0.29201975365E+02  0.13528397549E+02  0.33445759943E+02  0.00000000000E+00 0. -1.
</event>
<event>
 4    1  0.3767413E+003  0.2126580E+02  0.7546771E-02  0.1515504E+00
          2   -1    0    0  502    0  0.00000000000E+00  0.00000000000E+00  0.41856280026E+02  0.41856280026E+02  0.00000000000E+00 0.  1.
          1   -1    0    0  501    0 -0.00000000000E+00 -0.00000000000E+00 -0.34525252122E+02  0.34525252122E+02  0.00000000000E+00 0.  1.
          2    1    1    2  501    0 -0.16405554987E+02  0.13531153390E+02  0.35321406912E+02  0.41229069026E+02  0.00000000000E+00 0.  1.
          1    1    1    2  502    0  0.16405554987E+02 -0.13531153390E+02 -0.27990379008E+02  0.35152463122E+02  0.00000000000E+00 0.  1.
</event>
<event>
 4    1  0.3767413E+003  0.2277905E+02  0.7546771E-02  0.1495291E+00
          2   -1    0    0  502    0  0.00000000000E+00  0.00000000000E+00  0.14016345108E+03  0.14016345108E+03  0.00000000000E+00 0.  1.
          1   -1    0    0  501    0 -0.00000000000E+00 -0.00000000000E+00 -0.18754253238E+03  0.18754253238E+03  0.00000000000E+00 0.  1.
          2    1    1    2  501    0  0.15844500266E+02 -0.16365719781E+02  0.13853820118E+03  0.14039842648E+03  0.00000000000E+00 0.  1.
          1    1    1    2  502    0 -0.15844500266E+02  0.16365719781E+02 -0.18591728248E+03  0.18730755697E+03  0.00000000000E+00 0.  1.
</event>
<event>
 4    1  0.3767413E+003  0.2895594E+02  0.7546771E-02  0.1428891E+00
          2   -1    0    0  502    0  0.00000000000E+00  0.00000000000E+00  0.90475709020E+03  0.90475709020E+03  0.00000000000E+00 0. -1.
          1   -1    0    0  501    0 -0.00000000000E+00 -0.00000000000E+00 -0.10727840975E+01  0.10727840975E+01  0.00000000000E+00 0. -1.
          2    1    1    2  501    0 -0.48389642997E+01 -0.28548744996E+02  0.61896998261E+03  0.61964690412E+03  0.00000000000E+00 0. -1.
          1    1    1    2  502    0  0.48389642997E+01  0.28548744996E+02  0.28471432350E+03  0.28618297018E+03  0.00000000000E+00 0. -1.
</event>
<event>
 4    1  0.3767413E+003  0.5617977E+02  0.7546771E-02  0.1273396E+00
          2   -1    0    0  502    0  0.00000000000E+00  0.00000000000E+00  0.24592387546E+03  0.24592387546E+03  0.00000000000E+00 0.  1.
          1   -1    0    0  501    0 -0.00000000000E+00 -0.00000000000E+00 -0.14845607656E+04  0.14845607656E+04  0.00000000000E+00 0. -1.
          2    1    1    2  501    0  0.48711701281E+02 -0.27988159806E+02  0.24217577935E+03  0.24860666732E+03  0.00000000000E+00 0.  1.
          1    1    1    2  502    0 -0.48711701281E+02  0.27988159806E+02 -0.14808126695E+04  0.14818779738E+04  0.00000000000E+00 0. -1.
</event>
<event>
 4    1  0.3767413E+003  0.4068744E+02  0.7546771E-02  0.1344504E+00
          2   -1    0    0  502    0  0.00000000000E+00  0.00000000000E+00  0.89332153846E+02  0.89332153846E+02  0.00000000000E+00 0. -1.
          1   -1    0    0  501    0 -0.00000000000E+00 -0.00000000000E+00 -0.39077311387E+03  0.39077311387E+03  0.00000000000E+00 0.  1.
          2    1    1    2  501    0  0.40612344711E+02 -0.24708414801E+01  0.83571024615E+02  0.92949361244E+02  0.00000000000E+00 0. -1.
          1    1    1    2  502    0 -0.40612344711E+02  0.24708414801E+01 -0.38501198464E+03  0.38715590647E+03  0.00000000000E+00 0.  1.
</event>
<event>
 4    1  0.3767413E+003  0.2183980E+02  0.7546771E-02  0.1507604E+00
          2   -1    0    0  502    0  0.00000000000E+00  0.00000000000E+00  0.14532683573E+03  0.14532683573E+03  0.00000000000E+00 0.  1.
          1   -1    0    0  501    0 -0.00000000000E+00 -0.00000000000E+00 -0.37266045793E+01  0.37266045793E+01  0.00000000000E+00 0. -1.
          2    1    1    2  501    0  0.10323497430E+02 -0.19245840206E+02  0.96539270809E+02  0.98978824870E+02  0.00000000000E+00 0.  1.
          1    1    1    2  502    0 -0.10323497430E+02  0.19245840206E+02  0.45060960340E+02  0.50074615437E+02  0.00000000000E+00 0. -1.
</event>
<event>
 4    1  0.3767413E+003  0.2168725E+02  0.7546771E-02  0.1509675E+00
          2   -1    0    0  502    0  0.00000000000E+00  0.00000000000E+00  0.20168977843E+03  0.20168977843E+03  0.00000000000E+00 0.  1.
          1   -1    0    0  501    0 -0.00000000000E+00 -0.00000000000E+00 -0.54922265287E+01  0.54922265287E+01  0.00000000000E+00 0.  1.
          2    1    1    2  501    0  0.12738782486E+02 -0.17551645503E+02  0.17667808236E+03  0.17800416182E+03  0.00000000000E+00 0.  1.
          1    1    1    2  502    0 -0.12738782486E+02  0.17551645503E+02  0.19519469547E+02  0.29177843143E+02  0.00000000000E+00 0.  1.
</event>
<event>
 4    1  0.3767413E+003  0.2657774E+02  0.7546771E-02  0.1451897E+00
          2   -1    0    0  502    0  0.00000000000E+00  0.00000000000E+00  0.11063823368E+02  0.11063823368E+02  0.00000000000E+00 0.  1.
          1   -1    0    0  501    0 -0.00000000000E+00 -0.00000000000E+00 -0.78856675531E+02  0.78856675531E+02  0.00000000000E+00 0.  1.
          2    1    1    2  501    0 -0.17219918926E+02  0.20244764175E+02 -0.14280182219E+02  0.30171173138E+02  0.00000000000E+00 0.  1.
          1    1    1    2  502    0  0.17219918926E+02 -0.20244764175E+02 -0.53512669944E+02  0.59749325761E+02  0.00000000000E+00 0.  1.
</event>
<event>
 4    1  0.3767413E+003  0.2359752E+02  0.7546771E-02  0.1485128E+00
          2   -1    0    0  502    0  0.00000000000E+00  0.00000000000E+00  0.81581812257E+02  0.81581812257E+02  0.00000000000E+00 0. -1.
          1   -1    0    0  501    0 -0.00000000000E+00 -0.00000000000E+00 -0.56575816005E+02  0.56575816005E+02  0.00000000000E+00 0. -1.
          2    1    1    2  501    0  0.20078227011E+02 -0.12397890498E+02  0.77280925569E+02  0.80803368405E+02  0.00000000000E+00 0. -1.
          1    1    1    2  502    0 -0.20078227011E+02  0.12397890498E+02 -0.52274929317E+02  0.57354259858E+02  0.00000000000E+00 0. -1.
</event>
<event>
 4    1  0.3767413E+003  0.2277643E+02  0.7546771E-02  0.1495325E+00
          2   -1    0    0  502    0  0.00000000000E+00  0.00000000000E+00  0.79307350507E+02  0.79307350507E+02  0.00000000000E+00 0. -1.
          1   -1    0    0  501    0 -0.00000000000E+00 -0.00000000000E+00 -0.82616738938E+03  0.82616738938E+03  0.00000000000E+00 0. -1.
          2    1    1    2  501    0  0.17775813981E+02 -0.14240306506E+02  0.77511507072E+02  0.80788610711E+02  0.00000000000E+00 0. -1.
          1    1    1    2  502    0 -0.17775813981E+02  0.14240306506E+02 -0.82437154595E+03  0.82468612918E+03  0.00000000000E+00 0. -1.
</event>
<event>
 4    1  0.3767413E+003  0.2518997E+02  0.7546771E-02  0.1466689E+00
          2   -1    0    0  502    0  0.00000000000E+00  0.00000000000E+00  0.30028493407E+03  0.30028493407E+03  0.00000000000E+00 0.  1.
          1   -1    0    0  501    0 -0.00000000000E+00 -0.00000000000E+00 -0.11432824250E+04  0.11432824250E+04  0.00000000000E+00 0. -1.
          2    1    1    2  501    0  0.48077880743E+01 -0.24726900917E+02  0.29961759583E+03  0.30067463842E+03  0.00000000000E+00 0.  1.
          1    1    1    2  502    0 -0.48077880743E+01  0.24726900917E+02 -0.11426150867E+04  0.11428927206E+04  0.00000000000E+00 0. -1.
</event>
<event>
 4    1  0.3767413E+003  0.2123569E+02  0.7546771E-02  0.1515926E+00
          2   -1    0    0  502    0  0.00000000000E+00  0.00000000000E+00  0.13875203176E+04  0.13875203176E+04  0.00000000000E+00 0. -1.
          1   -1    0    0  501    0 -0.00000000000E+00 -0.00000000000E+00 -0.13718799351E+03  0.13718799351E+03  0.00000000000E+00 0.  1.
          2    1    1    2  501    0  0.20995100180E+02  0.31875236114E+01  0.13866167481E+04  0.13867793483E+04  0.00000000000E+00 0. -1.
          1    1    1    2  502    0 -0.20995100180E+02 -0.31875236114E+01 -0.13628442408E+03  0.13792896283E+03  0.00000000000E+00 0.  1.
</event>
<event>
 4    1  0.3767413E+003  0.2588674E+02  0.7546771E-02  0.1459123E+00
          2   -1    0    0  502    0  0.00000000000E+00  0.00000000000E+00  0.89340283493E+02  0.89340283493E+02  0.00000000000E+00 0. -1.
          1   -1    0    0  501    0 -0.00000000000E+00 -0.00000000000E+00 -0.15910190525E+03  0.15910190525E+03  0.00000000000E+00 0. -1.
          2    1    1    2  501    0 -0.25849961066E+02  0.13794920127E+01  0.86376755121E+02  0.90172430989E+02  0.00000000000E+00 0. -1.
          1    1    1    2  502    0  0.25849961066E+02 -0.13794920127E+01 -0.15613837688E+03  0.15826975776E+03  0.00000000000E+00 0. -1.
</event>
<event>
 4    1  0.3767413E+003  0.2282315E+02  0.7546771E-02  0.1494731E+00
          2   -1    0    0  502    0  0.00000000000E+00  0.00000000000E+00  0.12345568047E+04  0.12345568047E+04  0.00000000000E+00 0. -1.
          1   -1    0    0  501    0 -0.00000000000E+00 -0.00000000000E+00 -0.35028333807E+02  0.35028333807E+02  0.00000000000E+00 0. -1.
          2    1    1    2  501    0 -0.16331200944E+02 -0.15943271086E+02  0.12307220634E+04  0.12309336673E+04  0.00000000000E+00 0. -1.
          1    1    1    2  502    0  0.16331200944E+02  0.15943271086E+02 -0.31193592463E+02  0.38651471226E+02  0.00000000000E+00 0. -1.
</event>
<event>
 4    1  0.3767413E+003  0.2034872E+02  0.7546771E-02  0.1528770E+00
          2   -1    0    0  502    0  0.00000000000E+00  0.00000000000E+00  0.48136930340E+03  0.48136930340E+03  0.00000000000E+00 0.  1.
          1   -1    0    0  501    0 -0.00000000000E+00 -0.00000000000E+00 -0.17584681976E+01  0.17584681976E+01  0.00000000000E+00 0.  1.
          2    1    1    2  501    0 -0.20348508228E+02 -0.91796374077E-01  0.41245661652E+03  0.41295826753E+03  0.00000000000E+00 0.  1.
          1    1    1    2  502    0  0.20348508228E+02  0.91796374077E-01  0.67154218682E+02  0.70169504063E+02  0.00000000000E+00 0.  1.
</event>
<event>
 4    1  0.3767413E+003  0.2365282E+02  0.7546771E-02  0.1484459E+00
          2   -1    0    0  502    0  0.00000000000E+00  0.00000000000E+00  0.92674025200E+03  0.92674025200E+03  0.00000000000E+00 0.  1.
          1   -1    0    0  501    0 -0.00000000000E+00 -0.00000000000E+00 -0.74405869427E+01  0.74405869427E+01  0.00000000000E+00 0.  1.
          2    1    1    2  501    0  0.14784126236E+02 -0.18463081695E+02  0.90739113085E+03  0.90769935557E+03  0.00000000000E+00 0.  1.
          1    1    1    2  502    0 -0.14784126236E+02  0.18463081695E+02  0.11908534211E+02  0.26481483367E+02  0.00000000000E+00 0.  1.
</event>
<event>
 4    1  0.3767413E+003  0.3973149E+02  0.7546771E-02  0.1350066E+00
          2   -1    0    0  502    0  0.00000000000E+00  0.00000000000E+00  0.33561376897E+02  0.33561376897E+02  0.00000000000E+00 0. -1.
          1   -1    0    0  501    0 -0.00000000000E+00 -0.00000000000E+00 -0.10848806339E+03  0.10848806339E+03  0.00000000000E+00 0. -1.
          2    1    1    2  501    0 -0.37309776767E+02 -0.13659125571E+02  0.15991489385E+02  0.42828949164E+02  0.00000000000E+00 0. -1.
          1    1    1    2  502    0  0.37309776767E+02  0.13659125571E+02 -0.90918175880E+02  0.99220491126E+02  0.00000000000E+00 0. -1.
</event>
<event>
 4    1  0.3767413E+003  0.2725949E+02  0.7546771E-02  0.1445019E+00
          2   -1    0    0  502    0  0.00000000000E+00  0.00000000000E+00  0.16566041683E+04  0.16566041683E+04  0.00000000000E+00 0. -1.
          1   -1    0    0  501    0 -0.00000000000E+00 -0.00000000000E+00 -0.19675754548E+01  0.19675754548E+01  0.00000000000E+00 0. -1.
          2    1    1    2  501    0 -0.27202057266E+02  0.17685810977E+01  0.15559704141E+04  0.15562091792E+04  0.00000000000E+00 0. -1.
          1    1    1    2  502    0  0.27202057266E+02 -0.17685810977E+01  0.98666178706E+02  0.10236256454E+03  0.00000000000E+00 0. -1.
</event>
<event>
 4    1  0.3767413E+003  0.2146944E+02  0.7546771E-02  0.1512667E+00
          2   -1    0    0  502    0  0.00000000000E+00  0.00000000000E+00  0.86858013451E+02  0.86858013451E+02  0.00000000000E+00 0. -1.
          1   -1    0    0  501    0 -0.00000000000E+00 -0.00000000000E+00 -0.12741648019E+02  0.12741648019E+02  0.00000000000E+00 0. -1.
          2    1    1    2  501    0  0.92796600060E+01 -0.19360393935E+02  0.75099145788E+02  0.78107737397E+02  0.00000000000E+00 0. -1.
          1    1    1    2  502    0 -0.92796600060E+01  0.19360393935E+02 -0.98278035581E+00  0.21491924073E+02  0.00000000000E+00 0. -1.
</event>
<event>
 4    1  0.3767413E+003  0.2051693E+02  0.7546771E-02  0.1526275E+00
          2   -1    0    0  502    0  0.00000000000E+00  0.00000000000E+00  0.28660434704E+03  0.28660434704E+03  0.00000000000E+00 0. -1.
          1   -1    0    0  501    0 -0.00000000000E+00 -0.00000000000E+00 -0.17105587061E+01  0.17105587061E+01  0.00000000000E+00 0. -1.
          2    1    1    2  501    0  0.12997084602E+02 -0.15875146540E+02  0.19664970064E+03  0.19771709397E+03  0.00000000000E+00 0. -1.
          1    1    1    2  502    0 -0.12997084602E+02  0.15875146540E+02  0.88244087692E+02  0.90597811775E+02  0.00000000000E+00 0. -1.
</event>
<event>
 4    1  0.3767413E+003  0.2097791E+02  0.7546771E-02  0.1519580E+00
          2   -1    0    0  502    0  0.00000000000E+00  0.00000000000E+00  0.49968068513E+03  0.49968068513E+03  0.00000000000E+00 0. -1.
          1   -1    0    0  501    0 -0.00000000000E+00 -0.00000000000E+00 -0.14729143720E+03  0.14729143720E+03  0.00000000000E+00 0.  1.
          2    1    1    2  501    0 -0.16937388043E+02  0.12377304767E+02  0.49871211585E+03  0.49915313009E+03  0.00000000000E+00 0. -1.
          1    1    1    2  502    0  0.16937388043E+02 -0.12377304767E+02 -0.14632286793E+03  0.14781899223E+03  0.00000000000E+00 0.  1.
</event>
<event>
 4    1  0.3767413E+003  0.3324045E+02  0.7546771E-02  0.1393374E+00
          2   -1    0    0  502    0  0.00000000000E+00  0.00000000000E+00  0.28960222273E+02  0.28960222273E+02  0.00000000000E+00 0.  1.
          1   -1    0    0  501    0 -0.00000000000E+00 -0.00000000000E+00 -0.27198958662E+03  0.27198958662E+03  0.00000000000E+00 0. -1.
          2    1    1    2  501    0  0.70775927906E+01  0.32478221850E+02  0.18007711124E+02  0.37804826070E+02  0.00000000000E+00 0.  1.
          1    1    1    2  502    0 -0.70775927906E+01 -0.32478221850E+02 -0.26103707547E+03  0.26314498282E+03  0.00000000000E+00 0. -1.
</event>
<event>
 4    1  0.3767413E+003  0.2147546E+02  0.7546771E-02  0.1512584E+00
          2   -1    0    0  502    0  0.00000000000E+00  0.00000000000E+00  0.78905070811E+03  0.78905070811E+03  0.00000000000E+00 0.  1.
          1   -1    0    0  501    0 -0.00000000000E+00 -0.00000000000E+00 -0.58506841277E+00  0.58506841277E+00  0.00000000000E+00 0. -1.
          2    1    1    2  501    0  0.21356319084E+02 -0.22590043192E+01  0.40660301180E+03  0.40716974920E+03  0.00000000000E+00 0.  1.
          1    1    1    2  502    0 -0.21356319084E+02  0.22590043192E+01  0.38186262791E+03  0.38246602732E+03  0.00000000000E+00 0. -1.
</event>
<event>
 4    1  0.3767413E+003  0.2917091E+02  0.7546771E-02  0.1426941E+00
          2   -1    0    0  502    0  0.00000000000E+00  0.00000000000E+00  0.14368966735E+01  0.14368966735E+01  0.00000000000E+00 0.  1.
          1   -1    0    0  501    0 -0.00000000000E+00 -0.00000000000E+00 -0.84638327447E+03  0.84638327447E+03  0.00000000000E+00 0.  1.
          2    1    1    2  501    0 -0.45183220435E+01  0.28818862686E+02 -0.19016921430E+03  0.19239353458E+03  0.00000000000E+00 0.  1.
          1    1    1    2  502    0  0.45183220435E+01 -0.28818862686E+02 -0.65477716349E+03  0.65542663656E+03  0.00000000000E+00 0.  1.
</event>
<event>
 4    1  0.3767413E+003  0.2136625E+02  0.7546771E-02  0.1514100E+00
          2   -1    0    0  502    0  0.00000000000E+00  0.00000000000E+00  0.72964452311E+03  0.72964452311E+03  0.00000000000E+00 0. -1.
          1   -1    0    0  501    0 -0.00000000000E+00 -0.00000000000E+00 -0.64698339458E+00  0.64698339458E+00  0.00000000000E+00 0. -1.
          2    1    1    2  501    0 -0.15895574988E+02 -0.14277506306E+02  0.43077362207E+03  0.43130317639E+03  0.00000000000E+00 0. -1.
          1    1    1    2  502    0  0.15895574988E+02  0.14277506306E+02  0.29822391764E+03  0.29898833012E+03  0.00000000000E+00 0. -1.
</event>
<event>
 4    1  0.3767413E+003  0.2039581E+02  0.7546771E-02  0.1528069E+00
          2   -1    0    0  502    0  0.00000000000E+00  0.00000000000E+00  0.71909161368E+03  0.71909161368E+03  0.00000000000E+00 0. -1.
          1   -1    0    0  501    0 -0.00000000000E+00 -0.00000000000E+00 -0.79192338589E+03  0.79192338589E+03  0.00000000000E+00 0. -1.
          2    1    1    2  501    0  0.92181378113E+01 -0.18193813213E+02  0.71881561788E+03  0.71910491683E+03  0.00000000000E+00 0. -1.
          1    1    1    2  502    0 -0.92181378113E+01  0.18193813213E+02 -0.79164739009E+03  0.79191008274E+03  0.00000000000E+00 0. -1.
</event>
<event>
 4    1  0.3767413E+003  0.2976796E+02  0.7546771E-02  0.1421624E+00
          2   -1    0    0  502    0  0.00000000000E+00  0.00000000000E+00  0.83708366696E+01  0.83708366696E+01  0.00000000000E+00 0. -1.
          1   -1    0    0  501    0 -0.00000000000E+00 -0.00000000000E+00 -0.13510385607E+04  0.13510385607E+04  0.00000000000E+00 0. -1.
          2    1    1    2  501    0  0.80332166284E+01 -0.28663546708E+02 -0.18801091149E+02  0.35208131272E+02  0.00000000000E+00 0. -1.
          1    1    1    2  502    0 -0.80332166284E+01  0.28663546708E+02 -0.13238666329E+04  0.13242012661E+04  0.00000000000E+00 0. -1.
</event>
<event>
 4    1  0.3767413E+003  0.2575627E+02  0.7546771E-02  0.1460518E+00
          2   -1    0    0  502    0  0.00000000000E+00  0.00000000000E+00  0.57925629539E+02  0.57925629539E+02  0.00000000000E+00 0. -1.
          1   -1    0    0  501    0 -0.00000000000E+00 -0.00000000000E+00 -0.21418632088E+02  0.21418632088E+02  0.00000000000E+00 0. -1.
          2    1    1    2  501    0 -0.24204034306E+02 -0.88062458291E+01  0.45315256456E+02  0.52123485206E+02  0.00000000000E+00 0. -1.
          1    1    1    2  502    0  0.24204034306E+02  0.88062458291E+01 -0.88082590054E+01  0.27220776422E+02  0.00000000000E+00 0. -1.
</event>
<event>
 4    1  0.3767413E+003  0.2738658E+02  0.7546771E-02  0.1443763E+00
          2   -1    0    0  502    0  0.00000000000E+00  0.00000000000E+00  0.69534446317E+02  0.69534446317E+02  0.00000000000E+00 0. -1.
          1   -1    0    0  501    0 -0.00000000000E+00 -0.00000000000E+00 -0.25965147932E+03  0.25965147932E+03  0.00000000000E+00 0.  1.
          2    1    1    2  501    0  0.26362451560E+02 -0.74192839095E+01  0.66079444694E+02  0.71529837390E+02  0.00000000000E+00 0. -1.
          1    1    1    2  502    0 -0.26362451560E+02  0.74192839095E+01 -0.25619647769E+03  0.25765608824E+03  0.00000000000E+00 0.  1.
</event>
<event>
 4    1  0.3767413E+003  0.2022265E+02  0.7546771E-02  0.1530659E+00
          2   -1    0    0  502    0  0.00000000000E+00  0.00000000000E+00  0.17765354652E+01  0.17765354652E+01  0.00000000000E+00 0. -1.
          1   -1    0    0  501    0 -0.00000000000E+00 -0.00000000000E+00 -0.47527303177E+03  0.47527303177E+03  0.00000000000E+00 0.  1.
          2    1    1    2  501    0  0.20205427508E+02  0.83441961935E+00 -0.65466480525E+02  0.68518724661E+02  0.00000000000E+00 0. -1.
          1    1    1    2  502    0 -0.20205427508E+02 -0.83441961935E+00 -0.40803001578E+03  0.40853084258E+03  0.00000000000E+00 0.  1.
</event>
<event>
 4    1  0.3767413E+003  0.3339381E+02  0.7546771E-02  0.1392221E+00
          2   -1    0    0  502    0  0.00000000000E+00  0.00000000000E+00  0.11110580397E+02  0.11110580397E+02  0.00000000000E+00 0. -1.
          1   -1    0    0  501    0 -0.00000000000E+00 -0.00000000000E+00 -0.14005968157E+04  0.14005968157E+04  0.00000000000E+00 0.  1.
          2    1    1    2  501    0 -0.23177927765E+02 -0.24040173459E+02 -0.14650552263E+02  0.36466216654E+02  0.00000000000E+00 0. -1.
          1    1    1    2  502    0  0.23177927765E+02  0.24040173459E+02 -0.13748356830E+04  0.13752411794E+04  0.00000000000E+00 0.  1.
</event>
<event>
 4    1  0.3767413E+003  0.2293498E+02  0.7546771E-02  0.1493316E+00
          2   -1    0    0  502    0  0.00000000000E+00  0.00000000000E+00  0.12661272898E+01  0.12661272898E+01  0.00000000000E+00 0.  1.
          1   -1    0    0  501    0 -0.00000000000E+00 -0.00000000000E+00 -0.81367115544E+03  0.81367115544E+03  0.00000000000E+00 0.  1.
          2    1    1    2  501    0  0.12333048109E+02  0.19336735944E+02 -0.12114563310E+03  0.12329751762E+03  0.00000000000E+00 0.  1.
          1    1    1    2  502    0 -0.12333048109E+02 -0.19336735944E+02 -0.69125939506E+03  0.69163976511E+03  0.00000000000E+00 0.  1.
</event>
<event>
 4    1  0.3767413E+003  0.3525933E+02  0.7546771E-02  0.1378749E+00
          2   -1    0    0  502    0  0.00000000000E+00  0.00000000000E+00  0.68833587500E+01  0.68833587500E+01  0.00000000000E+00 0.  1.
          1   -1    0    0  501    0 -0.00000000000E+00 -0.00000000000E+00 -0.19260304780E+03  0.19260304780E+03  0.00000000000E+00 0.  1.
          2    1    1    2  501    0  0.33519100202E+02 -0.10940315963E+02 -0.67972912997E+02  0.76573738925E+02  0.00000000000E+00 0.  1.
          1    1    1    2  502    0 -0.33519100202E+02  0.10940315963E+02 -0.11774677605E+03  0.12291266762E+03  0.00000000000E+00 0.  1.
</event>
<event>
 4    1  0.3767413E+003  0.2338440E+02  0.7546771E-02  0.1487727E+00
          2   -1    0    0  502    0  0.00000000000E+00  0.00000000000E+00  0.14053959234E+03  0.14053959234E+03  0.00000000000E+00 0. -1.
          1   -1    0    0  501    0 -0.00000000000E+00 -0.00000000000E+00 -0.17993543879E+03  0.17993543879E+03  0.00000000000E+00 0. -1.
          2    1    1    2  501    0  0.15923553270E+02 -0.17125150959E+02  0.13879763109E+03  0.14075373082E+03  0.00000000000E+00 0. -1.
          1    1    1    2  502    0 -0.15923553270E+02  0.17125150959E+02 -0.17819347754E+03  0.17972130030E+03  0.00000000000E+00 0. -1.
</event>
<event>
 4    1  0.3767413E+003  0.3026132E+02  0.7546771E-02  0.1417339E+00
          2   -1    0    0  502    0  0.00000000000E+00  0.00000000000E+00  0.15865393532E+04  0.15865393532E+04  0.00000000000E+00 0.  1.
          1   -1    0    0  501    0 -0.00000000000E+00 -0.00000000000E+00 -0.82472722975E+01  0.82472722975E+01  0.00000000000E+00 0.  1.
          2    1    1    2  501    0 -0.26530952798E+02  0.14555281975E+02  0.15581298596E+04  0.15584236930E+04  0.00000000000E+00 0.  1.
          1    1    1    2  502    0  0.26530952798E+02 -0.14555281975E+02  0.20162221351E+02  0.36362932494E+02  0.00000000000E+00 0.  1.
</event>
<event>
 4    1  0.3767413E+003  0.2437224E+02  0.7546771E-02  0.1475950E+00
          2   -1    0    0  502    0  0.00000000000E+00  0.00000000000E+00  0.65988898012E+03  0.65988898012E+03  0.00000000000E+00 0. -1.
          1   -1    0    0  501    0 -0.00000000000E+00 -0.00000000000E+00 -0.31794672881E+03  0.31794672881E+03  0.00000000000E+00 0. -1.
          2    1    1    2  501    0 -0.99625256713E+01  0.22243075183E+02  0.65919638498E+03  0.65964678448E+03  0.00000000000E+00 0. -1.
          1    1    1    2  502    0  0.99625256713E+01 -0.22243075183E+02 -0.31725413367E+03  0.31818892445E+03  0.00000000000E+00 0. -1.
</event>
<event>
 4    1  0.3767413E+003  0.3271532E+02  0.7546771E-02  0.1397378E+00
          2   -1    0    0  502    0  0.00000000000E+00  0.00000000000E+00  0.84009320394E+03  0.84009320394E+03  0.00000000000E+00 0. -1.
          1   -1    0    0  501    0 -0.00000000000E+00 -0.00000000000E+00 -0.13077559839E+02  0.13077559839E+02  0.00000000000E+00 0. -1.
          2    1    1    2  501    0  0.14032805149E+02  0.29552880934E+02  0.81878188961E+03  0.81943521717E+03  0.00000000000E+00 0. -1.
          1    1    1    2  502    0 -0.14032805149E+02 -0.29552880934E+02  0.82337544942E+01  0.33735546608E+02  0.00000000000E+00 0. -1.
</event>
<event>
 4    1  0.3767413E+003  0.5101864E+02  0.7546771E-02  0.1293815E+00
          2   -1    0    0  502    0  0.00000000000E+00  0.00000000000E+00  0.40919717246E+03  0.40919717246E+03  0.00000000000E+00 0. -1.
          1   -1    0    0  501    0 -0.00000000000E+00 -0.00000000000E+00 -0.71235370488E+02  0.71235370488E+02  0.00000000000E+00 0.  1.
          2    1    1    2  501    0  0.49657609195E+02  0.11705691206E+02  0.39822130839E+03  0.40147616593E+03  0.00000000000E+00 0. -1.
          1    1    1    2  502    0 -0.49657609195E+02 -0.11705691206E+02 -0.60259506417E+02  0.78956377014E+02  0.00000000000E+00 0.  1.
</event>
<event>
 4    1  0.3767413E+003  0.2009466E+02  0.7546771E-02  0.1532594E+00
          2   -1    0    0  502    0  0.00000000000E+00  0.00000000000E+00  0.78753613933E+03  0.78753613933E+03  0.00000000000E+00 0.  1.
          1   -1    0    0  501    0 -0.00000000000E+00 -0.00000000000E+00 -0.41768970817E+01  0.41768970817E+01  0.00000000000E+00 0. -1.
          2    1    1    2  501    0  0.16870684226E+02 -0.10916744101E+02  0.76244434422E+03  0.76270910138E+03  0.00000000000E+00 0.  1.
          1    1    1    2  502    0 -0.16870684226E+02  0.10916744101E+02  0.20914898028E+02  0.29003935036E+02  0.00000000000E+00 0. -1.
</event>
<event>
 4    1  0.3767413E+003  0.2378293E+02  0.7546771E-02  0.1482894E+00
          2   -1    0    0  502    0  0.00000000000E+00  0.00000000000E+00  0.46018978782E+02  0.46018978782E+02  0.00000000000E+00 0.  1.
          1   -1    0    0  501    0 -0.00000000000E+00 -0.00000000000E+00 -0.83567062319E+02  0.83567062319E+02  0.00000000000E+00 0. -1.
          2    1    1    2  501    0 -0.23113407928E+02 -0.56034054341E+01  0.41064629985E+02  0.47454521537E+02  0.00000000000E+00 0.  1.
          1    1    1    2  502    0  0.23113407928E+02  0.56034054341E+01 -0.78612713523E+02  0.82131519564E+02  0.00000000000E+00 0. -1.
</event>
<event>
 4    1  0.3767413E+003  0.2375495E+02  0.7546771E-02  0.1483230E+00
          2   -1    0    0  502    0  0.00000000000E+00  0.00000000000E+00  0.18808017618E+01  0.18808017618E+01  0.00000000000E+00 0.  1.
          1   -1    0    0  501    0 -0.00000000000E+00 -0.00000000000E+00 -0.39983075646E+03  0.39983075646E+03  0.00000000000E+00 0. -1.
          2    1    1    2  501    0  0.50209781071E+01  0.23218260940E+02 -0.98626197336E+02  0.10144665920E+03  0.00000000000E+00 0.  1.
          1    1    1    2  502    0 -0.50209781071E+01 -0.23218260940E+02 -0.29932375737E+03  0.30026489902E+03  0.00000000000E+00 0. -1.
</event>
<event>
 4    1  0.3767413E+003  0.3035213E+02  0.7546771E-02  0.1416561E+00
          2   -1    0    0  502    0  0.00000000000E+00  0.00000000000E+00  0.17700820237E+04  0.17700820237E+04  0.00000000000E+00 0. -1.
          1   -1    0    0  501    0 -0.00000000000E+00 -0.00000000000E+00 -0.86844855893E+02  0.86844855893E+02  0.00000000000E+00 0. -1.
          2    1    1    2  501    0  0.30351980310E+02  0.96431379504E-01  0.17672957235E+04  0.17675563432E+04  0.00000000000E+00 0. -1.
          1    1    1    2  502    0 -0.30351980310E+02 -0.96431379504E-01 -0.84058555653E+02  0.89370536454E+02  0.00000000000E+00 0. -1.
</event>
<event>
 4    1  0.3767413E+003  0.2466941E+02  0.7546771E-02  0.1472536E+00
          2   -1    0    0  502    0  0.00000000000E+00  0.00000000000E+00  0.10221676102E+04  0.10221676102E+04  0.00000000000E+00 0.  1.
          1   -1    0    0  501    0 -0.00000000000E+00 -0.00000000000E+00 -0.14244112678E+01  0.14244112678E+01  0.00000000000E+00 0.  1.
          2    1    1    2  501    0  0.20689827182E+02 -0.13435432768E+02  0.90082052181E+03  0.90115825043E+03  0.00000000000E+00 0.  1.
          1    1    1    2  502    0 -0.20689827182E+02  0.13435432768E+02  0.11992267709E+03  0.12243377101E+03  0.00000000000E+00 0.  1.
</event>
<event>
 4    1  0.3767413E+003  0.2467025E+02  0.7546771E-02  0.1472526E+00
          2   -1    0    0  502    0  0.00000000000E+00  0.00000000000E+00  0.18211538638E+04  0.18211538638E+04  0.00000000000E+00 0.  1.
          1   -1    0    0  501    0 -0.00000000000E+00 -0.00000000000E+00 -0.10011784113E+01  0.10011784113E+01  0.00000000000E+00 0.  1.
          2    1    1    2  501    0 -0.11357716926E+02  0.21900310741E+02  0.16537064446E+04  0.16538904517E+04  0.00000000000E+00 0.  1.
          1    1    1    2  502    0  0.11357716926E+02 -0.21900310741E+02  0.16644624086E+03  0.16826459057E+03  0.00000000000E+00 0.  1.
</event>
<event>
 4    1  0.3767413E+003  0.4610436E+02  0.7546771E-02  0.1316008E+00
          2   -1    0    0  502    0  0.00000000000E+00  0.00000000000E+00  0.87084064143E+02  0.87084064143E+02  0.00000000000E+00 0. -1.
          1   -1    0    0  501    0 -0.00000000000E+00 -0.00000000000E+00 -0.30957917505E+03  0.30957917505E+03  0.00000000000E+00 0. -1.
          2    1    1    2  501    0 -0.70251517115E+01 -0.45565983234E+02  0.79104839019E+02  0.91559746291E+02  0.00000000000E+00 0. -1.
          1    1    1    2  502    0  0.70251517115E+01  0.45565983234E+02 -0.30159994992E+03  0.30510349290E+03  0.00000000000E+00 0. -1.
</event>
<event>
 4    1  0.3767413E+003  0.6055339E+02  0.7546771E-02  0.1257964E+00
          2   -1    0    0  502    0  0.00000000000E+00  0.00000000000E+00  0.22180217878E+04  0.22180217878E+04  0.00000000000E+00 0.  1.
          1   -1    0    0  501    0 -0.00000000000E+00 -0.00000000000E+00 -0.71661282610E+02  0.71661282610E+02  0.00000000000E+00 0.  1.
          2    1    1    2  501    0 -0.46702429437E+02  0.38543432100E+02  0.22047396327E+04  0.22055710284E+04  0.00000000000E+00 0.  1.
          1    1    1    2  502    0  0.46702429437E+02 -0.38543432100E+02 -0.58379127574E+02  0.84112042001E+02  0.00000000000E+00 0.  1.
</event>
<event>
 4    1  0.3767413E+003  0.2110764E+02  0.7546771E-02  0.1517733E+00
          2   -1    0    0  502    0  0.00000000000E+00  0.00000000000E+00  0.28633354397E+01  0.28633354397E+01  0.00000000000E+00 0. -1.
          1   -1    0    0  501    0 -0.00000000000E+00 -0.00000000000E+00 -0.21341191472E+03  0.21341191472E+03  0.00000000000E+00 0. -1.
          2    1    1    2  501    0 -0.19911786989E+02  0.70037984375E+01 -0.48990995755E+02  0.53344635332E+02  0.00000000000E+00 0. -1.
          1    1    1    2  502    0  0.19911786989E+02 -0.70037984375E+01 -0.16155758352E+03  0.16293061483E+03  0.00000000000E+00 0. -1.
</event>
<event>
 4    1  0.3767413E+003  0.2394510E+02  0.7546771E-02  0.1480960E+00
          2   -1    0    0  502    0  0.00000000000E+00  0.00000000000E+00  0.38818057031E+03  0.38818057031E+03  0.00000000000E+00 0. -1.
          1   -1    0    0  501    0 -0.00000000000E+00 -0.00000000000E+00 -0.22049588613E+01  0.22049588613E+01  0.00000000000E+00 0.  1.
          2    1    1    2  501    0 -0.18739124241E+02  0.14906813229E+02  0.30513736121E+03  0.30607544342E+03  0.00000000000E+00 0. -1.
          1    1    1    2  502    0  0.18739124241E+02 -0.14906813229E+02  0.80838250246E+02  0.84310085759E+02  0.00000000000E+00 0.  1.
</event>
<event>
 4    1  0.3767413E+003  0.2371714E+02  0.7546771E-02  0.1483684E+00
          2   -1    0    0  502    0  0.00000000000E+00  0.00000000000E+00  0.29090506221E+01  0.29090506221E+01  0.00000000000E+00 0.  1.
          1   -1    0    0  501    0 -0.00000000000E+00 -0.00000000000E+00 -0.38558274387E+03  0.38558274387E+03  0.00000000000E+00 0.  1.
          2    1    1    2  501    0 -0.18719357262E+02 -0.14563256851E+02 -0.54188036229E+02  0.59151044427E+02  0.00000000000E+00 0.  1.
          1    1    1    2  502    0  0.18719357262E+02  0.14563256851E+02 -0.32848565702E+03  0.32934075007E+03  0.00000000000E+00 0.  1.
</event>
<event>
 4    1  0.3767413E+003  0.5754848E+02  0.7546771E-02  0.1268397E+00
          2   -1    0    0  502    0  0.00000000000E+00  0.00000000000E+00  0.72421686204E+03  0.72421686204E+03  0.00000000000E+00 0.  1.
          1   -1    0    0  501    0 -0.00000000000E+00 -0.00000000000E+00 -0.40506985216E+03  0.40506985216E+03  0.00000000000E+00 0.  1.
          2    1    1    2  501    0 -0.33304982685E+02 -0.46931925539E+02  0.72102058562E+03  0.72331356436E+03  0.00000000000E+00 0.  1.
          1    1    1    2  502    0  0.33304982685E+02  0.46931925539E+02 -0.40187357575E+03  0.40597314984E+03  0.00000000000E+00 0.  1.
</event>
<event>
 4    1  0.3767413E+003  0.2156421E+02  0.7546771E-02  0.1511360E+00
          2   -1    0    0  502    0  0.00000000000E+00  0.00000000000E+00  0.67242950590E+03  0.67242950590E+03  0.00000000000E+00 0. -1.
          1   -1    0    0  501    0 -0.00000000000E+00 -0.00000000000E+00 -0.31361059834E+03  0.31361059834E+03  0.00000000000E+00 0. -1.
          2    1    1    2  501    0 -0.61257715416E+01  0.20675830579E+02  0.67188562512E+03  0.67223158829E+03  0.00000000000E+00 0. -1.
          1    1    1    2  502    0  0.61257715416E+01 -0.20675830579E+02 -0.31306671755E+03  0.31380851596E+03  0.00000000000E+00 0. -1.
</event>
<event>
 4    1  0.3767413E+003  0.2271275E+02  0.7546771E-02  0.1496137E+00
          2   -1    0    0  502    0  0.00000000000E+00  0.00000000000E+00  0.13464735044E+04  0.13464735044E+04  0.00000000000E+00 0. -1.
          1   -1    0    0  501    0 -0.00000000000E+00 -0.00000000000E+00 -0.39506388192E+03  0.39506388192E+03  0.00000000000E+00 0. -1.
          2    1    1    2  501    0  0.14273722800E+02 -0.17667195141E+02  0.13460511740E+04  0.13462427834E+04  0.00000000000E+00 0. -1.
          1    1    1    2  502    0 -0.14273722800E+02  0.17667195141E+02 -0.39464155148E+03  0.39529460292E+03  0.00000000000E+00 0. -1.
</event>
<event>
 4    1  0.3767413E+003  0.2082881E+02  0.7546771E-02  0.1521723E+00
          2   -1    0    0  502    0  0.00000000000E+00  0.00000000000E+00  0.18172870023E+01  0.18172870023E+01  0.00000000000E+00 0. -1.
          1   -1    0    0  501    0 -0.00000000000E+00 -0.00000000000E+00 -0.88568044576E+03  0.88568044576E+03  0.00000000000E+00 0.  1.
          2    1    1    2  501    0 -0.51189684523E+01  0.20189989261E+02 -0.62673798797E+02  0.66044262128E+02  0.00000000000E+00 0. -1.
          1    1    1    2  502    0  0.51189684523E+01 -0.20189989261E+02 -0.82118935997E+03  0.82145347064E+03  0.00000000000E+00 0.  1.
</event>
<event>
 4    1  0.3767413E+003  0.3583511E+02  0.7546771E-02  0.1374785E+00
          2   -1    0    0  502    0  0.00000000000E+00  0.00000000000E+00  0.82155661571E+02  0.82155661571E+02  0.00000000000E+00 0.  1.
          1   -1    0    0  501    0 -0.00000000000E+00 -0.00000000000E+00 -0.79001653421E+03  0.79001653421E+03  0.00000000000E+00 0.  1.
          2    1    1    2  501    0  0.17190756895E+01  0.35793856982E+02  0.77820049260E+02  0.85674473945E+02  0.00000000000E+00 0.  1.
          1    1    1    2  502    0 -0.17190756895E+01 -0.35793856982E+02 -0.78568092189E+03  0.78649772183E+03  0.00000000000E+00 0.  1.
</event>
<event>
 4    1  0.3767413E+003  0.2374371E+02  0.7546771E-02  0.1483365E+00
          2   -1    0    0  502    0  0.00000000000E+00  0.00000000000E+00  0.27290084111E+02  0.27290084111E+02  0.00000000000E+00 0.  1.
          1   -1    0    0  501    0 -0.00000000000E+00 -0.00000000000E+00 -0.47786954115E+03  0.47786954115E+03  0.00000000000E+00 0.  1.
          2    1    1    2  501    0  0.23716886690E+02 -0.11281937032E+01  0.21770288721E+02  0.32213491060E+02  0.00000000000E+00 0.  1.
          1    1    1    2  502    0 -0.23716886690E+02  0.11281937032E+01 -0.47234974576E+03  0.47294613420E+03  0.00000000000E+00 0.  1.
</event>
<event>
 4    1  0.3767413E+003  0.2506312E+02  0.7546771E-02  0.1468099E+00
          2   -1    0    0  502    0  0.00000000000E+00  0.00000000000E+00  0.84083936118E+01  0.84083936118E+01  0.00000000000E+00 0.  1.
          1   -1    0    0  501    0 -0.00000000000E+00 -0.00000000000E+00 -0.11767141884E+03  0.11767141884E+03  0.00000000000E+00 0.  1.
          2    1    1    2  501    0 -0.14833163585E+02  0.20202403845E+02 -0.16539129831E+02  0.30028364568E+02  0.00000000000E+00 0.  1.
          1    1    1    2  502    0  0.14833163585E+02 -0.20202403845E+02 -0.92723895401E+02  0.96051447888E+02  0.00000000000E+00 0.  1.
</event>
<event>
 4    1  0.3767413E+003  0.3263364E+02  0.7546771E-02  0.1398009E+00
          2   -1    0    0  502    0  0.00000000000E+00  0.00000000000E+00  0.66858612318E+02  0.66858612318E+02  0.00000000000E+00 0.  1.
          1   -1    0    0  501    0 -0.00000000000E+00 -0.00000000000E+00 -0.18865684147E+02  0.18865684147E+02  0.00000000000E+00 0. -1.
          2    1    1    2  501    0 -0.31555479620E+02  0.83189429207E+01  0.70839567499E+01  0.33393645332E+02  0.00000000000E+00 0.  1.
          1    1    1    2  502    0  0.31555479620E+02 -0.83189429207E+01  0.40908971421E+02  0.52330651133E+02  0.00000000000E+00 0. -1.
</event>
<event>
 4    1  0.3767413E+003  0.3007191E+02  0.7546771E-02  0.1418973E+00
          2   -1    0    0  502    0  0.00000000000E+00  0.00000000000E+00  0.13125822305E+03  0.13125822305E+03  0.00000000000E+00 0. -1.
          1   -1    0    0  501    0 -0.00000000000E+00 -0.00000000000E+00 -0.30687179729E+02  0.30687179729E+02  0.00000000000E+00 0. -1.
          2    1    1    2  501    0  0.28929660971E+02 -0.82094115136E+01  0.12159156222E+03  0.12525505070E+03  0.00000000000E+00 0. -1.
          1    1    1    2  502    0 -0.28929660971E+02  0.82094115136E+01 -0.21020518900E+02  0.36690352085E+02  0.00000000000E+00 0. -1.
</event>
<event>
 4    1  0.3767413E+003  0.2406760E+02  0.7546771E-02  0.1479510E+00
          2   -1    0    0  502    0  0.00000000000E+00  0.00000000000E+00  0.93776826953E+03  0.93776826953E+03  0.00000000000E+00 0. -1.
          1   -1    0    0  501    0 -0.00000000000E+00 -0.00000000000E+00 -0.13495185691E+01  0.13495185691E+01  0.00000000000E+00 0. -1.
          2    1    1    2  501    0  0.53403396546E+01 -0.23467645345E+02  0.81399383360E+03  0.81434956299E+03  0.00000000000E+00 0. -1.
          1    1    1    2  502    0 -0.53403396546E+01  0.23467645345E+02  0.12242491737E+03  0.12476822511E+03  0.00000000000E+00 0. -1.
</event>
<event>
 4    1  0.3767413E+003  0.3402313E+02  0.7546771E-02  0.1387564E+00
          2   -1    0    0  502    0  0.00000000000E+00  0.00000000000E+00  0.44849039902E+02  0.44849039902E+02  0.00000000000E+00 0.  1.
          1   -1    0    0  501    0 -0.00000000000E+00 -0.00000000000E+00 -0.21159124166E+03  0.21159124166E+03  0.00000000000E+00 0. -1.
          2    1    1    2  501    0  0.76660433224E+01  0.33148227954E+02  0.36774487272E+02  0.50099262978E+02  0.00000000000E+00 0.  1.
          1    1    1    2  502    0 -0.76660433224E+01 -0.33148227954E+02 -0.20351668903E+03  0.20634101859E+03  0.00000000000E+00 0. -1.
</event>
<event>
 4    1  0.3767413E+003  0.2019638E+02  0.7546771E-02  0.1531055E+00
          2   -1    0    0  502    0  0.00000000000E+00  0.00000000000E+00  0.50236686077E+00  0.50236686077E+00  0.00000000000E+00 0. -1.
          1   -1    0    0  501    0 -0.00000000000E+00 -0.00000000000E+00 -0.11641460745E+04  0.11641460745E+04  0.00000000000E+00 0.  1.
          2    1    1    2  501    0 -0.17574190885E+01  0.20119776149E+02 -0.26152189795E+03  0.26230058525E+03  0.00000000000E+00 0. -1.
          1    1    1    2  502    0  0.17574190885E+01 -0.20119776149E+02 -0.90212180965E+03  0.90234785607E+03  0.00000000000E+00 0.  1.
</event>
<event>
 4    1  0.3767413E+003  0.6067604E+02  0.7546771E-02  0.1257553E+00
          2   -1    0    0  502    0  0.00000000000E+00  0.00000000000E+00  0.71406476715E+02  0.71406476715E+02  0.00000000000E+00 0. -1.
          1   -1    0    0  501    0 -0.00000000000E+00 -0.00000000000E+00 -0.25232384207E+03  0.25232384207E+03  0.00000000000E+00 0.  1.
          2    1    1    2  501    0 -0.19489252159E+02  0.57460867133E+02  0.53925307575E+02  0.81175864630E+02  0.00000000000E+00 0. -1.
          1    1    1    2  502    0  0.19489252159E+02 -0.57460867133E+02 -0.23484267293E+03  0.24255445415E+03  0.00000000000E+00 0.  1.
</event>
<event>
 4    1  0.3767413E+003  0.3068687E+02  0.7546771E-02  0.1413720E+00
          2   -1    0    0  502    0  0.00000000000E+00  0.00000000000E+00  0.53940031713E+03  0.53940031713E+03  0.00000000000E+00 0. -1.
          1   -1    0    0  501    0 -0.00000000000E+00 -0.00000000000E+00 -0.10312101879E+03  0.10312101879E+03  0.00000000000E+00 0. -1.
          2    1    1    2  501    0 -0.18355583826E+02  0.24591801197E+02  0.53666930068E+03  0.53754592588E+03  0.00000000000E+00 0. -1.
          1    1    1    2  502    0  0.18355583826E+02 -0.24591801197E+02 -0.10039000234E+03  0.10497541004E+03  0.00000000000E+00 0. -1.
</event>
<event>
 4    1  0.3767413E+003  0.3039943E+02  0.7546771E-02  0.1416157E+00
          2   -1    0    0  502    0  0.00000000000E+00  0.00000000000E+00  0.71244579330E+03  0.71244579330E+03  0.00000000000E+00 0.  1.
          1   -1    0    0  501    0 -0.00000000000E+00 -0.00000000000E+00 -0.19657272488E+04  0.19657272488E+04  0.00000000000E+00 0. -1.
          2    1    1    2  501    0  0.24514795505E+02  0.17976378775E+02  0.71200391149E+03  0.71265257691E+03  0.00000000000E+00 0.  1.
          1    1    1    2  502    0 -0.24514795505E+02 -0.17976378775E+02 -0.19652853670E+04  0.19655204652E+04  0.00000000000E+00 0. -1.
</event>
<event>
 4    1  0.3767413E+003  0.2312044E+02  0.7546771E-02  0.1490991E+00
          2   -1    0    0  502    0  0.00000000000E+00  0.00000000000E+00  0.86945170576E+03  0.86945170576E+03  0.00000000000E+00 0. -1.
          1   -1    0    0  501    0 -0.00000000000E+00 -0.00000000000E+00 -0.33540226818E+01  0.33540226818E+01  0.00000000000E+00 0. -1.
          2    1    1    2  501    0 -0.22797799177E+02  0.38490327936E+01  0.82743060482E+03  0.82775356266E+03  0.00000000000E+00 0. -1.
          1    1    1    2  502    0  0.22797799177E+02 -0.38490327936E+01  0.38667078258E+02  0.45052165783E+02  0.00000000000E+00 0. -1.
</event>
<event>
 4    1  0.3767413E+003  0.3145796E+02  0.7546771E-02  0.1407336E+00
          2   -1    0    0  502    0  0.00000000000E+00  0.00000000000E+00  0.14841557403E+03  0.14841557403E+03  0.00000000000E+00 0. -1.
          1   -1    0    0  501    0 -0.00000000000E+00 -0.00000000000E+00 -0.45155067153E+02  0.45155067153E+02  0.00000000000E+00 0.  1.
          2    1    1    2  501    0  0.26995155044E+02 -0.16151315527E+02  0.14098443043E+03  0.14445142094E+03  0.00000000000E+00 0. -1.
          1    1    1    2  502    0 -0.26995155044E+02  0.16151315527E+02 -0.37723923551E+02  0.49119220242E+02  0.00000000000E+00 0.  1.
</event>
<event>
 4    1  0.3767413E+003  0.2470880E+02  0.7546771E-02  0.1472087E+00
          2   -1    0    0  502    0  0.00000000000E+00  0.00000000000E+00  0.92470252711E+02  0.92470252711E+02  0.00000000000E+00 0.  1.
          1   -1    0    0  501    0 -0.00000000000E+00 -0.00000000000E+00 -0.11170792430E+02  0.11170792430E+02  0.00000000000E+00 0. -1.
          2    1    1    2  501    0 -0.17524258127E+02  0.17419110284E+02  0.73788912740E+02  0.77815992375E+02  0.00000000000E+00 0.  1.
          1    1    1    2  502    0  0.17524258127E+02 -0.17419110284E+02  0.75105475411E+01  0.25825052766E+02  0.00000000000E+00 0. -1.
</event>
<event>
 4    1  0.3767413E+003  0.2056580E+02  0.7546771E-02  0.1525555E+00
          2   -1    0    0  502    0  0.00000000000E+00  0.00000000000E+00  0.20454061931E+03  0.20454061931E+03  0.00000000000E+00 0.  1.
          1   -1    0    0  501    0 -0.00000000000E+00 -0.00000000000E+00 -0.59042629261E+03  0.59042629261E+03  0.00000000000E+00 0.  1.
          2    1    1    2  501    0 -0.52277533075E+01 -0.19890269342E+02  0.20384396735E+03  0.20487878183E+03  0.00000000000E+00 0.  1.
          1    1    1    2  502    0  0.52277533075E+01  0.19890269342E+02 -0.58972964065E+03  0.59008813010E+03  0.00000000000E+00 0.  1.
</event>
<event>
 4    1  0.3767413E+003  0.4993849E+02  0.7546771E-02  0.1298439E+00
          2   -1    0    0  502    0  0.00000000000E+00  0.00000000000E+00  0.48691970086E+03  0.48691970086E+03  0.00000000000E+00 0. -1.
          1   -1    0    0  501    0 -0.00000000000E+00 -0.00000000000E+00 -0.17203232121E+03  0.17203232121E+03  0.00000000000E+00 0.  1.
          2    1    1    2  501    0 -0.27460827091E+02  0.41710378800E+02  0.48197811522E+03  0.48455831050E+03  0.00000000000E+00 0. -1.
          1    1    1    2  502    0  0.27460827091E+02 -0.41710378800E+02 -0.16709073557E+03  0.17439371157E+03  0.00000000000E+00 0.  1.
</event>
<event>
 4    1  0.3767413E+003  0.6047589E+02  0.7546771E-02  0.1258224E+00
          2   -1    0    0  502    0  0.00000000000E+00  0.00000000000E+00  0.13453385544E+03  0.13453385544E+03  0.00000000000E+00 0.  1.
          1   -1    0    0  501    0 -0.00000000000E+00 -0.00000000000E+00 -0.43510507258E+02  0.43510507258E+02  0.00000000000E+00 0.  1.
          2    1    1    2  501    0 -0.34734890315E+02 -0.49505766730E+02  0.10004116800E+03  0.11689982395E+03  0.00000000000E+00 0.  1.
          1    1    1    2  502    0  0.34734890315E+02  0.49505766730E+02 -0.90178198152E+01  0.61144538750E+02  0.00000000000E+00 0.  1.
</event>
<event>
 4    1  0.3767413E+003  0.2186931E+02  0.7546771E-02  0.1507206E+00
          2   -1    0    0  502    0  0.00000000000E+00  0.00000000000E+00  0.14784027067E+02  0.14784027067E+02  0.00000000000E+00 0. -1.
          1   -1    0    0  501    0 -0.00000000000E+00 -0.00000000000E+00 -0.94339631024E+02  0.94339631024E+02  0.00000000000E+00 0. -1.
          2    1    1    2  501    0 -0.13072018138E+02  0.17532515804E+02  0.44505270592E+01  0.22317570650E+02  0.00000000000E+00 0. -1.
          1    1    1    2  502    0  0.13072018138E+02 -0.17532515804E+02 -0.84006131016E+02  0.86806087441E+02  0.00000000000E+00 0. -1.
</event>
<event>
 4    1  0.3767413E+003  0.2058748E+02  0.7546771E-02  0.1525237E+00
          2   -1    0    0  502    0  0.00000000000E+00  0.00000000000E+00  0.86567402251E+01  0.86567402251E+01  0.00000000000E+00 0.  1.
          1   -1    0    0  501    0 -0.00000000000E+00 -0.00000000000E+00 -0.10690215141E+03  0.10690215141E+03  0.00000000000E+00 0. -1.
          2    1    1    2  501    0 -0.17853526726E+02 -0.10251629291E+02 -0.65851048517E+01  0.21614993074E+02  0.00000000000E+00 0.  1.
          1    1    1    2  502    0  0.17853526726E+02  0.10251629291E+02 -0.91660306337E+02  0.93943898564E+02  0.00000000000E+00 0. -1.
</event>
<event>
 4    1  0.3767413E+003  0.2060015E+02  0.7546771E-02  0.1525051E+00
          2   -1    0    0  502    0  0.00000000000E+00  0.00000000000E+00  0.10826260196E+04  0.10826260196E+04  0.00000000000E+00 0.  1.
          1   -1    0    0  501    0 -0.00000000000E+00 -0.00000000000E+00 -0.14326428580E+01  0.14326428580E+01  0.00000000000E+00 0. -1.
          2    1    1    2  501    0 -0.20425281441E+02  0.26784133182E+01  0.10025618010E+04  0.10027734195E+04  0.00000000000E+00 0.  1.
          1    1    1    2  502    0  0.20425281441E+02 -0.26784133182E+01  0.78631575719E+02  0.81285242940E+02  0.00000000000E+00 0. -1.
</event>
<event>
 4    1  0.3767413E+003  0.2222220E+02  0.7546771E-02  0.1502503E+00
          2   -1    0    0  502    0  0.00000000000E+00  0.00000000000E+00  0.95891398612E+01  0.95891398612E+01  0.00000000000E+00 0. -1.
          1   -1    0    0  501    0 -0.00000000000E+00 -0.00000000000E+00 -0.41274903889E+03  0.41274903889E+03  0.00000000000E+00 0. -1.
          2    1    1    2  501    0 -0.17973736914E+02 -0.13067932193E+02 -0.40233331590E+01  0.22583473607E+02  0.00000000000E+00 0. -1.
          1    1    1    2  502    0  0.17973736914E+02  0.13067932193E+02 -0.39913656587E+03  0.39975470514E+03  0.00000000000E+00 0. -1.
</event>
<event>
 4    1  0.3767413E+003  0.2351362E+02  0.7546771E-02  0.1486147E+00
          2   -1    0    0  502    0  0.00000000000E+00  0.00000000000E+00  0.16080538117E+03  0.16080538117E+03  0.00000000000E+00 0.  1.
          1   -1    0    0  501    0 -0.00000000000E+00 -0.00000000000E+00 -0.63149903570E+02  0.63149903570E+02  0.00000000000E+00 0.  1.
          2    1    1    2  501    0 -0.13084677451E+02  0.19536677484E+02  0.15771435201E+03  0.15945754100E+03  0.00000000000E+00 0.  1.
          1    1    1    2  502    0  0.13084677451E+02 -0.19536677484E+02 -0.60058874415E+02  0.64497743737E+02  0.00000000000E+00 0.  1.
</event>
<event>
 4    1  0.3767413E+003  0.2253699E+02  0.7546771E-02  0.1498396E+00
          2   -1    0    0  502    0  0.00000000000E+00  0.00000000000E+00  0.62491626509E+02  0.62491626509E+02  0.00000000000E+00 0. -1.
          1   -1    0    0  501    0 -0.00000000000E+00 -0.00000000000E+00 -0.78198487395E+02  0.78198487395E+02  0.00000000000E+00 0. -1.
          2    1    1    2  501    0 -0.32545960064E+01 -0.22300748960E+02  0.58735613410E+02  0.62910953593E+02  0.00000000000E+00 0. -1.
          1    1    1    2  502    0  0.32545960064E+01  0.22300748960E+02 -0.74442474296E+02  0.77779160310E+02  0.00000000000E+00 0. -1.
</event>
<event>
 4    1  0.3767413E+003  0.2066361E+03  0.7546771E-02  0.1050529E+00
          2   -1    0    0  502    0  0.00000000000E+00  0.00000000000E+00  0.59055470095E+02  0.59055470095E+02  0.00000000000E+00 0. -1.
          1   -1    0    0  501    0 -0.00000000000E+00 -0.00000000000E+00 -0.10602385658E+04  0.10602385658E+04  0.00000000000E+00 0. -1.
          2    1    1    2  501    0 -0.14791705560E+03  0.14428779629E+03 -0.81621308772E+03  0.84196331753E+03  0.00000000000E+00 0. -1.
          1    1    1    2  502    0  0.14791705560E+03 -0.14428779629E+03 -0.18497000797E+03  0.27733071835E+03  0.00000000000E+00 0. -1.
</event>
<event>
 4    1  0.3823713E+003  0.2457758E+02  0.7546771E-02  0.1473585E+00
          2   -1    0    0  502    0  0.00000000000E+00  0.00000000000E+00  0.16430711162E+04  0.16430711162E+04  0.00000000000E+00 0. -1.
          1   -1    0    0  501    0 -0.00000000000E+00 -0.00000000000E+00 -0.40744034277E+03  0.40744034277E+03  0.00000000000E+00 0. -1.
          2    1    1    2  501    0 -0.22917479225E+02  0.88795696498E+01  0.16426084602E+04  0.16427923214E+04  0.00000000000E+00 0. -1.
          1    1    1    2  502    0  0.22917479225E+02 -0.88795696498E+01 -0.40697768679E+03  0.40771913759E+03  0.00000000000E+00 0. -1.
</event>
<event>
 4    1  0.3767413E+003  0.2105157E+02  0.7546771E-02  0.1518530E+00
          2   -1    0    0  502    0  0.00000000000E+00  0.00000000000E+00  0.15358429601E+01  0.15358429601E+01  0.00000000000E+00 0.  1.
          1   -1    0    0  501    0 -0.00000000000E+00 -0.00000000000E+00 -0.14845806430E+04  0.14845806430E+04  0.00000000000E+00 0.  1.
          2    1    1    2  501    0  0.45445355268E+01  0.20555191498E+02 -0.74574408152E+02  0.77488780168E+02  0.00000000000E+00 0.  1.
          1    1    1    2  502    0 -0.45445355268E+01 -0.20555191498E+02 -0.14084703918E+04  0.14086277058E+04  0.00000000000E+00 0.  1.
</event>
<event>
 4    1  0.3767413E+003  0.2848735E+02  0.7546771E-02  0.1433214E+00
          2   -1    0    0  502    0  0.00000000000E+00  0.00000000000E+00  0.11248963724E+01  0.11248963724E+01  0.00000000000E+00 0. -1.
          1   -1    0    0  501    0 -0.00000000000E+00 -0.00000000000E+00 -0.96146581169E+03  0.96146581169E+03  0.00000000000E+00 0. -1.
          2    1    1    2  501    0 -0.26319267416E+02  0.10900693809E+02 -0.23968611301E+03  0.24137307582E+03  0.00000000000E+00 0. -1.
          1    1    1    2  502    0  0.26319267416E+02 -0.10900693809E+02 -0.72065480231E+03  0.72121763224E+03  0.00000000000E+00 0. -1.
</event>
<event>
 4    1  0.3767413E+003  0.2250865E+02  0.7546771E-02  0.1498762E+00
          2   -1    0    0  502    0  0.00000000000E+00  0.00000000000E+00  0.63935866495E+03  0.63935866495E+03  0.00000000000E+00 0. -1.
          1   -1    0    0  501    0 -0.00000000000E+00 -0.00000000000E+00 -0.80930234368E+01  0.80930234368E+01  0.00000000000E+00 0. -1.
          2    1    1    2  501    0  0.14278132518E+02 -0.17400407774E+02  0.62310187669E+03  0.62350829023E+03  0.00000000000E+00 0. -1.
          1    1    1    2  502    0 -0.14278132518E+02  0.17400407774E+02  0.81637648226E+01  0.23943398150E+02  0.00000000000E+00 0. -1.
</event>
<event>
 4    1  0.3767413E+003  0.2063755E+02  0.7546771E-02  0.1524503E+00
          2   -1    0    0  502    0  0.00000000000E+00  0.00000000000E+00  0.13022709687E+02  0.13022709687E+02  0.00000000000E+00 0. -1.
          1   -1    0    0  501    0 -0.00000000000E+00 -0.00000000000E+00 -0.83863471385E+02  0.83863471385E+02  0.00000000000E+00 0.  1.
          2    1    1    2  501    0 -0.12758880585E+02  0.16220961074E+02  0.24155056082E+01  0.20778433033E+02  0.00000000000E+00 0. -1.
          1    1    1    2  502    0  0.12758880585E+02 -0.16220961074E+02 -0.73256267307E+02  0.76107748040E+02  0.00000000000E+00 0.  1.
</event>
<event>
 4    1  0.3767413E+003  0.2080024E+02  0.7546771E-02  0.1522136E+00
          2   -1    0    0  502    0  0.00000000000E+00  0.00000000000E+00  0.26678863648E+02  0.26678863648E+02  0.00000000000E+00 0. -1.
          1   -1    0    0  501    0 -0.00000000000E+00 -0.00000000000E+00 -0.57965739268E+02  0.57965739268E+02  0.00000000000E+00 0.  1.
          2    1    1    2  501    0  0.20769575155E+02  0.11289504545E+01  0.20274015234E+02  0.29046264389E+02  0.00000000000E+00 0. -1.
          1    1    1    2  502    0 -0.20769575155E+02 -0.11289504545E+01 -0.51560890855E+02  0.55598338527E+02  0.00000000000E+00 0.  1.
</event>
<event>
 4    1  0.3767413E+003  0.2558363E+02  0.7546771E-02  0.1462379E+00
          2   -1    0    0  502    0  0.00000000000E+00  0.00000000000E+00  0.14934123473E+04  0.14934123473E+04  0.00000000000E+00 0. -1.
          1   -1    0    0  501    0 -0.00000000000E+00 -0.00000000000E+00 -0.73346891023E+00  0.73346891023E+00  0.00000000000E+00 0.  1.
          2    1    1    2  501    0 -0.23469891748E+02 -0.10182639869E+02  0.12202839157E+04  0.12205520705E+04  0.00000000000E+00 0. -1.
          1    1    1    2  502    0  0.23469891748E+02  0.10182639869E+02  0.27239496270E+03  0.27359374569E+03  0.00000000000E+00 0.  1.
</event>
<event>
 4    1  0.3767413E+003  0.2598063E+02  0.7546771E-02  0.1458126E+00
          2   -1    0    0  502    0  0.00000000000E+00  0.00000000000E+00  0.14855509455E+04  0.14855509455E+04  0.00000000000E+00 0.  1.
          1   -1    0    0  501    0 -0.00000000000E+00 -0.00000000000E+00 -0.17480786909E+01  0.17480786909E+01  0.00000000000E+00 0.  1.
          2    1    1    2  501    0 -0.25754434791E+02  0.34208272366E+01  0.13816446589E+04  0.13818889089E+04  0.00000000000E+00 0.  1.
          1    1    1    2  502    0  0.25754434791E+02 -0.34208272366E+01  0.10215820792E+03  0.10541011534E+03  0.00000000000E+00 0.  1.
</event>
<event>
 4    1  0.3767413E+003  0.4853257E+02  0.7546771E-02  0.1304663E+00
          2   -1    0    0  502    0  0.00000000000E+00  0.00000000000E+00  0.22226493264E+03  0.22226493264E+03  0.00000000000E+00 0.  1.
          1   -1    0    0  501    0 -0.00000000000E+00 -0.00000000000E+00 -0.14575856839E+02  0.14575856839E+02  0.00000000000E+00 0.  1.
          2    1    1    2  501    0 -0.46735732776E+02 -0.13083658083E+02  0.16571332308E+03  0.17267401737E+03  0.00000000000E+00 0.  1.
          1    1    1    2  502    0  0.46735732776E+02  0.13083658083E+02  0.41975752719E+02  0.64166772112E+02  0.00000000000E+00 0.  1.
</event>
<event>
 4    1  0.3767413E+003  0.2481952E+02  0.7546771E-02  0.1470833E+00
          2   -1    0    0  502    0  0.00000000000E+00  0.00000000000E+00  0.58557269120E+03  0.58557269120E+03  0.00000000000E+00 0.  1.
          1   -1    0    0  501    0 -0.00000000000E+00 -0.00000000000E+00 -0.12736065896E+01  0.12736065896E+01  0.00000000000E+00 0.  1.
          2    1    1    2  501    0  0.13143038034E+01 -0.24784697038E+02  0.41455231823E+03  0.41529463415E+03  0.00000000000E+00 0.  1.
          1    1    1    2  502    0 -0.13143038034E+01  0.24784697038E+02  0.16974676638E+03  0.17155166364E+03  0.00000000000E+00 0.  1.
</event>
<event>
 4    1  0.3767413E+003  0.2436999E+02  0.7546771E-02  0.1475976E+00
          2   -1    0    0  502    0  0.00000000000E+00  0.00000000000E+00  0.11331306807E+04  0.11331306807E+04  0.00000000000E+00 0.  1.
          1   -1    0    0  501    0 -0.00000000000E+00 -0.00000000000E+00 -0.86933349767E+00  0.86933349767E+00  0.00000000000E+00 0. -1.
          2    1    1    2  501    0  0.22722873301E+02 -0.88072312410E+01  0.92343134276E+03  0.92375285715E+03  0.00000000000E+00 0.  1.
          1    1    1    2  502    0 -0.22722873301E+02  0.88072312410E+01  0.20883000447E+03  0.21024715708E+03  0.00000000000E+00 0. -1.
</event>
<event>
 4    1  0.3767413E+003  0.2027631E+02  0.7546771E-02  0.1529853E+00
          2   -1    0    0  502    0  0.00000000000E+00  0.00000000000E+00  0.57489895954E+03  0.57489895954E+03  0.00000000000E+00 0. -1.
          1   -1    0    0  501    0 -0.00000000000E+00 -0.00000000000E+00 -0.23621418628E+01  0.23621418628E+01  0.00000000000E+00 0. -1.
          2    1    1    2  501    0 -0.19830672633E+02  0.42276776748E+01  0.52727968676E+03  0.52766940114E+03  0.00000000000E+00 0. -1.
          1    1    1    2  502    0  0.19830672633E+02 -0.42276776748E+01  0.45257130922E+02  0.49591700262E+02  0.00000000000E+00 0. -1.
</event>
<event>
 4    1  0.3767413E+003  0.2082097E+02  0.7546771E-02  0.1521836E+00
          2   -1    0    0  502    0  0.00000000000E+00  0.00000000000E+00  0.13545918388E+03  0.13545918388E+03  0.00000000000E+00 0. -1.
          1   -1    0    0  501    0 -0.00000000000E+00 -0.00000000000E+00 -0.28847321083E+02  0.28847321083E+02  0.00000000000E+00 0. -1.
          2    1    1    2  501    0  0.18803267669E+02  0.89414772567E+01  0.13076821629E+03  0.13241540425E+03  0.00000000000E+00 0. -1.
          1    1    1    2  502    0 -0.18803267669E+02 -0.89414772567E+01 -0.24156353495E+02  0.31891100714E+02  0.00000000000E+00 0. -1.
</event>
<event>
 4    1  0.3767413E+003  0.2259173E+02  0.7546771E-02  0.1497689E+00
          2   -1    0    0  502    0  0.00000000000E+00  0.00000000000E+00  0.15759800537E+04  0.15759800537E+04  0.00000000000E+00 0.  1.
          1   -1    0    0  501    0 -0.00000000000E+00 -0.00000000000E+00 -0.18107730039E+01  0.18107730039E+01  0.00000000000E+00 0. -1.
          2    1    1    2  501    0  0.86087535402E+01  0.20887210093E+02  0.15019614327E+04  0.15021313296E+04  0.00000000000E+00 0.  1.
          1    1    1    2  502    0 -0.86087535402E+01 -0.20887210093E+02  0.72207847995E+02  0.75659497058E+02  0.00000000000E+00 0. -1.
</event>
<event>
 4    1  0.3767413E+003  0.2011529E+02  0.7546771E-02  0.1532281E+00
          2   -1    0    0  502    0  0.00000000000E+00  0.00000000000E+00  0.23309981819E+02  0.23309981819E+02  0.00000000000E+00 0.  1.
          1   -1    0    0  501    0 -0.00000000000E+00 -0.00000000000E+00 -0.66397350957E+03  0.66397350957E+03  0.00000000000E+00 0.  1.
          2    1    1    2  501    0 -0.60760804469E+01 -0.19175664612E+02  0.18788273842E+02  0.27524972314E+02  0.00000000000E+00 0.  1.
          1    1    1    2  502    0  0.60760804469E+01  0.19175664612E+02 -0.65945180160E+03  0.65975851908E+03  0.00000000000E+00 0.  1.
</event>
<event>
 4    1  0.3767413E+003  0.4024039E+02  0.7546771E-02  0.1347083E+00
          2   -1    0    0  502    0  0.00000000000E+00  0.00000000000E+00  0.66705243810E+03  0.66705243810E+03  0.00000000000E+00 0. -1.
          1   -1    0    0  501    0 -0.00000000000E+00 -0.00000000000E+00 -0.54502181100E+01  0.54502181100E+01  0.00000000000E+00 0.  1.
          2    1    1    2  501    0  0.40218132601E+02  0.13381312534E+01  0.58121236557E+03  0.58260372697E+03  0.00000000000E+00 0. -1.
          1    1    1    2  502    0 -0.40218132601E+02 -0.13381312534E+01  0.80389854415E+02  0.89898929237E+02  0.00000000000E+00 0.  1.
</event>
<event>
 4    1  0.3767413E+003  0.2982405E+02  0.7546771E-02  0.1421132E+00
          2   -1    0    0  502    0  0.00000000000E+00  0.00000000000E+00  0.19701671136E+02  0.19701671136E+02  0.00000000000E+00 0.  1.
          1   -1    0    0  501    0 -0.00000000000E+00 -0.00000000000E+00 -0.19431807939E+03  0.19431807939E+03  0.00000000000E+00 0.  1.
          2    1    1    2  501    0  0.25015288381E+02 -0.16239132533E+02  0.64500188527E+01  0.30513551439E+02  0.00000000000E+00 0.  1.
          1    1    1    2  502    0 -0.25015288381E+02  0.16239132533E+02 -0.18106642711E+03  0.18350619909E+03  0.00000000000E+00 0.  1.
</event>
<event>
 4    1  0.3767413E+003  0.9108053E+02  0.7546771E-02  0.1180231E+00
          2   -1    0    0  502    0  0.00000000000E+00  0.00000000000E+00  0.15203919754E+03  0.15203919754E+03  0.00000000000E+00 0.  1.
          1   -1    0    0  501    0 -0.00000000000E+00 -0.00000000000E+00 -0.10716220380E+04  0.10716220380E+04  0.00000000000E+00 0. -1.
          2    1    1    2  501    0 -0.86759715851E+02  0.27720299055E+02  0.13625974645E+03  0.16389747337E+03  0.00000000000E+00 0.  1.
          1    1    1    2  502    0  0.86759715851E+02 -0.27720299055E+02 -0.10558425870E+04  0.10597637622E+04  0.00000000000E+00 0. -1.
</event>
<event>
 4    1  0.3767413E+003  0.2516100E+02  0.7546771E-02  0.1467010E+00
          2   -1    0    0  502    0  0.00000000000E+00  0.00000000000E+00  0.67098236670E+01  0.67098236670E+01  0.00000000000E+00 0.  1.
          1   -1    0    0  501    0 -0.00000000000E+00 -0.00000000000E+00 -0.65206639714E+03  0.65206639714E+03  0.00000000000E+00 0.  1.
          2    1    1    2  501    0 -0.24427252497E+02 -0.60320120562E+01 -0.18051222711E+02  0.30966473408E+02  0.00000000000E+00 0.  1.
          1    1    1    2  502    0  0.24427252497E+02  0.60320120562E+01 -0.62730535076E+03  0.62780974740E+03  0.00000000000E+00 0.  1.
</event>
<event>
 4    1  0.3767413E+003  0.2868916E+02  0.7546771E-02  0.1431340E+00
          2   -1    0    0  502    0  0.00000000000E+00  0.00000000000E+00  0.11124875704E+04  0.11124875704E+04  0.00000000000E+00 0. -1.
          1   -1    0    0  501    0 -0.00000000000E+00 -0.00000000000E+00 -0.56036980634E+01  0.56036980634E+01  0.00000000000E+00 0.  1.
          2    1    1    2  501    0  0.17104434592E+02 -0.23032724106E+02  0.10742769017E+04  0.10746599135E+04  0.00000000000E+00 0. -1.
          1    1    1    2  502    0 -0.17104434592E+02  0.23032724106E+02  0.32606970578E+02  0.43431354949E+02  0.00000000000E+00 0.  1.
</event>
<event>
 4    1  0.3767413E+003  0.2400836E+02  0.7546771E-02  0.1480210E+00
          2   -1    0    0  502    0  0.00000000000E+00  0.00000000000E+00  0.12203706952E+04  0.12203706952E+04  0.00000000000E+00 0.  1.
          1   -1    0    0  501    0 -0.00000000000E+00 -0.00000000000E+00 -0.57801815132E+00  0.57801815132E+00  0.00000000000E+00 0. -1.
          2    1    1    2  501    0  0.13459631376E+02  0.19880636848E+02  0.87095449441E+03  0.87128533371E+03  0.00000000000E+00 0.  1.
          1    1    1    2  502    0 -0.13459631376E+02 -0.19880636848E+02  0.34883818260E+03  0.34966337961E+03  0.00000000000E+00 0. -1.
</event>
<event>
 4    1  0.3767413E+003  0.2131610E+02  0.7546771E-02  0.1514799E+00
          2   -1    0    0  502    0  0.00000000000E+00  0.00000000000E+00  0.26731710108E+02  0.26731710108E+02  0.00000000000E+00 0.  1.
          1   -1    0    0  501    0 -0.00000000000E+00 -0.00000000000E+00 -0.55446877767E+03  0.55446877767E+03  0.00000000000E+00 0. -1.
          2    1    1    2  501    0 -0.48780492492E+01  0.20750438502E+02  0.22242758589E+02  0.30807732344E+02  0.00000000000E+00 0.  1.
          1    1    1    2  502    0  0.48780492492E+01 -0.20750438502E+02 -0.54997982615E+03  0.55039275543E+03  0.00000000000E+00 0. -1.
</event>
<event>
 4    1  0.3767413E+003  0.2009679E+02  0.7546771E-02  0.1532561E+00
          2   -1    0    0  502    0  0.00000000000E+00  0.00000000000E+00  0.81501876881E+03  0.81501876881E+03  0.00000000000E+00 0. -1.
          1   -1    0    0  501    0 -0.00000000000E+00 -0.00000000000E+00 -0.67772235884E+01  0.67772235884E+01  0.00000000000E+00 0. -1.
          2    1    1    2  501    0 -0.51721614061E+01  0.19419832440E+02  0.79971127746E+03  0.79996375445E+03  0.00000000000E+00 0. -1.
          1    1    1    2  502    0  0.51721614061E+01 -0.19419832440E+02  0.85302677650E+01  0.21832237946E+02  0.00000000000E+00 0. -1.
</event>
<event>
 4    1  0.3767413E+003  0.2547709E+02  0.7546771E-02  0.1463536E+00
          2   -1    0    0  502    0  0.00000000000E+00  0.00000000000E+00  0.10172307245E+02  0.10172307245E+02  0.00000000000E+00 0. -1.
          1   -1    0    0  501    0 -0.00000000000E+00 -0.00000000000E+00 -0.67857668224E+02  0.67857668224E+02  0.00000000000E+00 0.  1.
          2    1    1    2  501    0  0.18981609260E+02  0.16993551585E+02 -0.19312500283E+02  0.31969594191E+02  0.00000000000E+00 0. -1.
          1    1    1    2  502    0 -0.18981609260E+02 -0.16993551585E+02 -0.38372860696E+02  0.46060381279E+02  0.00000000000E+00 0.  1.
</event>
<event>
 4    1  0.3767413E+003  0.2155696E+02  0.7546771E-02  0.1511459E+00
          2   -1    0    0  502    0  0.00000000000E+00  0.00000000000E+00  0.79343931140E+03  0.79343931140E+03  0.00000000000E+00 0. -1.
          1   -1    0    0  501    0 -0.00000000000E+00 -0.00000000000E+00 -0.12679816202E+03  0.12679816202E+03  0.00000000000E+00 0. -1.
          2    1    1    2  501    0  0.20967832967E+02  0.50052522916E+01  0.79237543617E+03  0.79266861576E+03  0.00000000000E+00 0. -1.
          1    1    1    2  502    0 -0.20967832967E+02 -0.50052522916E+01 -0.12573428679E+03  0.12756885766E+03  0.00000000000E+00 0. -1.
</event>
<event>
 4    1  0.3767413E+003  0.4708911E+02  0.7546771E-02  0.1311312E+00
          2   -1    0    0  502    0  0.00000000000E+00  0.00000000000E+00  0.16747692763E+03  0.16747692763E+03  0.00000000000E+00 0. -1.
          1   -1    0    0  501    0 -0.00000000000E+00 -0.00000000000E+00 -0.52159918209E+02  0.52159918209E+02  0.00000000000E+00 0.  1.
          2    1    1    2  501    0 -0.31771363391E+02 -0.34755791732E+02  0.15252067187E+03  0.15962437138E+03  0.00000000000E+00 0. -1.
          1    1    1    2  502    0  0.31771363391E+02  0.34755791732E+02 -0.37203662451E+02  0.60012474457E+02  0.00000000000E+00 0.  1.
</event>
<event>
 4    1  0.3767413E+003  0.2635044E+02  0.7546771E-02  0.1454244E+00
          2   -1    0    0  502    0  0.00000000000E+00  0.00000000000E+00  0.36303231855E+03  0.36303231855E+03  0.00000000000E+00 0.  1.
          1   -1    0    0  501    0 -0.00000000000E+00 -0.00000000000E+00 -0.61092118374E+01  0.61092118374E+01  0.00000000000E+00 0.  1.
          2    1    1    2  501    0  0.48582698535E+01 -0.25898702814E+02  0.33143579133E+03  0.33248162260E+03  0.00000000000E+00 0.  1.
          1    1    1    2  502    0 -0.48582698535E+01  0.25898702814E+02  0.25487315383E+02  0.36659907786E+02  0.00000000000E+00 0.  1.
</event>
<event>
 4    1  0.3767413E+003  0.3993431E+02  0.7546771E-02  0.1348871E+00
          2   -1    0    0  502    0  0.00000000000E+00  0.00000000000E+00  0.27381119716E+03  0.27381119716E+03  0.00000000000E+00 0.  1.
          1   -1    0    0  501    0 -0.00000000000E+00 -0.00000000000E+00 -0.58454509950E+01  0.58454509950E+01  0.00000000000E+00 0. -1.
          2    1    1    2  501    0 -0.31383671808E+02  0.24694386513E+02  0.12556383202E+03  0.13176123669E+03  0.00000000000E+00 0.  1.
          1    1    1    2  502    0  0.31383671808E+02 -0.24694386513E+02  0.14240191414E+03  0.14789541146E+03  0.00000000000E+00 0. -1.
</event>
<event>
 4    1  0.3767413E+003  0.2278817E+02  0.7546771E-02  0.1495175E+00
          2   -1    0    0  502    0  0.00000000000E+00  0.00000000000E+00  0.71561939726E+03  0.71561939726E+03  0.00000000000E+00 0. -1.
          1   -1    0    0  501    0 -0.00000000000E+00 -0.00000000000E+00 -0.55719293507E+02  0.55719293507E+02  0.00000000000E+00 0.  1.
          2    1    1    2  501    0 -0.11813012287E+02 -0.19487266804E+02  0.71309976355E+03  0.71346378577E+03  0.00000000000E+00 0. -1.
          1    1    1    2  502    0  0.11813012287E+02  0.19487266804E+02 -0.53199659795E+02  0.57874905003E+02  0.00000000000E+00 0.  1.
</event>
<event>
 4    1  0.4756464E+003  0.2422407E+02  0.7546771E-02  0.1477674E+00
          2   -1    0    0  502    0  0.00000000000E+00  0.00000000000E+00  0.59995564002E+03  0.59995564002E+03  0.00000000000E+00 0.  1.
          1   -1    0    0  501    0 -0.00000000000E+00 -0.00000000000E+00 -0.86823415040E+03  0.86823415040E+03  0.00000000000E+00 0. -1.
          2    1    1    2  501    0  0.22646680700E+02 -0.85984679875E+01  0.59954203770E+03  0.60003121650E+03  0.00000000000E+00 0.  1.
          1    1    1    2  502    0 -0.22646680700E+02  0.85984679875E+01 -0.86782054808E+03  0.86815857392E+03  0.00000000000E+00 0. -1.
</event>
<event>
 4    1  0.3767413E+003  0.2180942E+02  0.7546771E-02  0.1508015E+00
          2   -1    0    0  502    0  0.00000000000E+00  0.00000000000E+00  0.14533604684E+04  0.14533604684E+04  0.00000000000E+00 0. -1.
          1   -1    0    0  501    0 -0.00000000000E+00 -0.00000000000E+00 -0.32213887074E+03  0.32213887074E+03  0.00000000000E+00 0.  1.
          2    1    1    2  501    0  0.96368862769E+01 -0.19564797888E+02  0.14529093996E+04  0.14530730795E+04  0.00000000000E+00 0. -1.
          1    1    1    2  502    0 -0.96368862769E+01  0.19564797888E+02 -0.32168780202E+03  0.32242625957E+03  0.00000000000E+00 0.  1.
</event>
<event>
 4    1  0.3767413E+003  0.3148011E+02  0.7546771E-02  0.1407156E+00
          2   -1    0    0  502    0  0.00000000000E+00  0.00000000000E+00  0.12827699933E+03  0.12827699933E+03  0.00000000000E+00 0.  1.
          1   -1    0    0  501    0 -0.00000000000E+00 -0.00000000000E+00 -0.18169797490E+02  0.18169797490E+02  0.00000000000E+00 0. -1.
          2    1    1    2  501    0 -0.31010222260E+02  0.54187941289E+01  0.11056926608E+03  0.11496329769E+03  0.00000000000E+00 0.  1.
          1    1    1    2  502    0  0.31010222260E+02 -0.54187941289E+01 -0.46206423440E+00  0.31483499135E+02  0.00000000000E+00 0. -1.
</event>
<event>
 4    1  0.3767413E+003  0.2169622E+02  0.7546771E-02  0.1509552E+00
          2   -1    0    0  502    0  0.00000000000E+00  0.00000000000E+00  0.36429120307E+03  0.36429120307E+03  0.00000000000E+00 0. -1.
          1   -1    0    0  501    0 -0.00000000000E+00 -0.00000000000E+00 -0.55614320333E+01  0.55614320333E+01  0.00000000000E+00 0. -1.
          2    1    1    2  501    0 -0.17045573808E+02 -0.13422900807E+02  0.34138981969E+03  0.34207855068E+03  0.00000000000E+00 0. -1.
          1    1    1    2  502    0  0.17045573808E+02  0.13422900807E+02  0.17339951351E+02  0.27774084420E+02  0.00000000000E+00 0. -1.
</event>
<event>
 4    1  0.3767413E+003  0.3349068E+02  0.7546771E-02  0.1391496E+00
          2   -1    0    0  502    0  0.00000000000E+00  0.00000000000E+00  0.37347387854E+03  0.37347387854E+03  0.00000000000E+00 0. -1.
          1   -1    0    0  501    0 -0.00000000000E+00 -0.00000000000E+00 -0.39710852980E+01  0.39710852980E+01  0.00000000000E+00 0.  1.
          2    1    1    2  501    0 -0.33345290257E+02 -0.31172864548E+01  0.27792127067E+03  0.27993188198E+03  0.00000000000E+00 0. -1.
          1    1    1    2  502    0  0.33345290257E+02  0.31172864548E+01  0.91581522576E+02  0.97513081863E+02  0.00000000000E+00 0.  1.
</event>
<event>
 4    1  0.3767413E+003  0.3348137E+02  0.7546771E-02  0.1391566E+00
          2   -1    0    0  502    0  0.00000000000E+00  0.00000000000E+00  0.20275854694E+03  0.20275854694E+03  0.00000000000E+00 0.  1.
          1   -1    0    0  501    0 -0.00000000000E+00 -0.00000000000E+00 -0.19400339263E+02  0.19400339263E+02  0.00000000000E+00 0.  1.
          2    1    1    2  501    0 -0.31096726841E+02 -0.12409508643E+02  0.18560645261E+03  0.18860211445E+03  0.00000000000E+00 0.  1.
          1    1    1    2  502    0  0.31096726841E+02  0.12409508643E+02 -0.22482449348E+01  0.33556771750E+02  0.00000000000E+00 0.  1.
</event>
<event>
 4    1  0.3767413E+003  0.2392194E+02  0.7546771E-02  0.1481235E+00
          2   -1    0    0  502    0  0.00000000000E+00  0.00000000000E+00  0.18955137531E+02  0.18955137531E+02  0.00000000000E+00 0.  1.
          1   -1    0    0  501    0 -0.00000000000E+00 -0.00000000000E+00 -0.80339217090E+02  0.80339217090E+02  0.00000000000E+00 0. -1.
          2    1    1    2  501    0  0.21799146814E+02  0.98517226559E+01  0.85328752539E+01  0.25398212560E+02  0.00000000000E+00 0.  1.
          1    1    1    2  502    0 -0.21799146814E+02 -0.98517226559E+01 -0.69916954814E+02  0.73896142061E+02  0.00000000000E+00 0. -1.
</event>
<event>
 4    1  0.3767413E+003  0.2654473E+02  0.7546771E-02  0.1452236E+00
          2   -1    0    0  502    0  0.00000000000E+00  0.00000000000E+00  0.54641264963E+03  0.54641264963E+03  0.00000000000E+00 0.  1.
          1   -1    0    0  501    0 -0.00000000000E+00 -0.00000000000E+00 -0.15323469044E+01  0.15323469044E+01  0.00000000000E+00 0.  1.
          2    1    1    2  501    0 -0.14419896712E+02 -0.22286525433E+02  0.38149781936E+03  0.38242019928E+03  0.00000000000E+00 0.  1.
          1    1    1    2  502    0  0.14419896712E+02  0.22286525433E+02  0.16338248336E+03  0.16552479725E+03  0.00000000000E+00 0.  1.
</event>
<event>
 4    1  0.3767413E+003  0.2667732E+02  0.7546771E-02  0.1450877E+00
          2   -1    0    0  502    0  0.00000000000E+00  0.00000000000E+00  0.26579455531E+02  0.26579455531E+02  0.00000000000E+00 0. -1.
          1   -1    0    0  501    0 -0.00000000000E+00 -0.00000000000E+00 -0.93283081922E+02  0.93283081922E+02  0.00000000000E+00 0.  1.
          2    1    1    2  501    0 -0.16349421373E+02 -0.21080221856E+02  0.17252492426E+02  0.31769920171E+02  0.00000000000E+00 0. -1.
          1    1    1    2  502    0  0.16349421373E+02  0.21080221856E+02 -0.83956118818E+02  0.88092617282E+02  0.00000000000E+00 0.  1.
</event>
<event>
 4    1  0.3767413E+003  0.3298603E+02  0.7546771E-02  0.1395303E+00
          2   -1    0    0  502    0  0.00000000000E+00  0.00000000000E+00  0.34420559069E+02  0.34420559069E+02  0.00000000000E+00 0. -1.
          1   -1    0    0  501    0 -0.00000000000E+00 -0.00000000000E+00 -0.90312286504E+03  0.90312286504E+03  0.00000000000E+00 0.  1.
          2    1    1    2  501    0 -0.25768356679E+02 -0.20592953227E+02  0.26143466094E+02  0.42089888904E+02  0.00000000000E+00 0. -1.
          1    1    1    2  502    0  0.25768356679E+02  0.20592953227E+02 -0.89484577207E+03  0.89545353521E+03  0.00000000000E+00 0.  1.
</event>
<event>
 4    1  0.3767413E+003  0.2931163E+02  0.7546771E-02  0.1425674E+00
          2   -1    0    0  502    0  0.00000000000E+00  0.00000000000E+00  0.74373787987E+03  0.74373787987E+03  0.00000000000E+00 0.  1.
          1   -1    0    0  501    0 -0.00000000000E+00 -0.00000000000E+00 -0.38772201519E+01  0.38772201519E+01  0.00000000000E+00 0.  1.
          2    1    1    2  501    0 -0.20277479690E+02  0.21165898559E+02  0.68313838451E+03  0.68376693678E+03  0.00000000000E+00 0.  1.
          1    1    1    2  502    0  0.20277479690E+02 -0.21165898559E+02  0.56722275206E+02  0.63848163239E+02  0.00000000000E+00 0.  1.
</event>
<event>
 4    1  0.3767413E+003  0.3193249E+02  0.7546771E-02  0.1403515E+00
          2   -1    0    0  502    0  0.00000000000E+00  0.00000000000E+00  0.44607140493E+03  0.44607140493E+03  0.00000000000E+00 0. -1.
          1   -1    0    0  501    0 -0.00000000000E+00 -0.00000000000E+00 -0.36764371474E+02  0.36764371474E+02  0.00000000000E+00 0. -1.
          2    1    1    2  501    0 -0.94461722310E+01  0.30503334844E+02  0.43844557209E+03  0.43960687357E+03  0.00000000000E+00 0. -1.
          1    1    1    2  502    0  0.94461722310E+01 -0.30503334844E+02 -0.29138538634E+02  0.43228902833E+02  0.00000000000E+00 0. -1.
</event>
<event>
 4    1  0.3767413E+003  0.2370723E+02  0.7546771E-02  0.1483803E+00
          2   -1    0    0  502    0  0.00000000000E+00  0.00000000000E+00  0.32281010323E+03  0.32281010323E+03  0.00000000000E+00 0. -1.
          1   -1    0    0  501    0 -0.00000000000E+00 -0.00000000000E+00 -0.33671185356E+01  0.33671185356E+01  0.00000000000E+00 0. -1.
          2    1    1    2  501    0  0.23242881656E+02  0.46691517032E+01  0.27305601018E+03  0.27408323046E+03  0.00000000000E+00 0. -1.
          1    1    1    2  502    0 -0.23242881656E+02 -0.46691517032E+01  0.46386974513E+02  0.52093991302E+02  0.00000000000E+00 0. -1.
</event>
<event>
 4    1  0.3767413E+003  0.7175608E+02  0.7546771E-02  0.1224399E+00
          2   -1    0    0  502    0  0.00000000000E+00  0.00000000000E+00  0.17204966876E+03  0.17204966876E+03  0.00000000000E+00 0. -1.
          1   -1    0    0  501    0 -0.00000000000E+00 -0.00000000000E+00 -0.11774904998E+03  0.11774904998E+03  0.00000000000E+00 0. -1.
          2    1    1    2  501    0 -0.59983705976E+02 -0.39381350035E+02  0.15228838406E+03  0.16834692641E+03  0.00000000000E+00 0. -1.
          1    1    1    2  502    0  0.59983705976E+02  0.39381350035E+02 -0.97987765289E+02  0.12145179233E+03  0.00000000000E+00 0. -1.
</event>
<event>
 4    1  0.3767413E+003  0.2269176E+02  0.7546771E-02  0.1496405E+00
          2   -1    0    0  502    0  0.00000000000E+00  0.00000000000E+00  0.21508667420E+03  0.21508667420E+03  0.00000000000E+00 0.  1.
          1   -1    0    0  501    0 -0.00000000000E+00 -0.00000000000E+00 -0.35886130792E+02  0.35886130792E+02  0.00000000000E+00 0.  1.
          2    1    1    2  501    0  0.65731434938E+01 -0.21718884768E+02  0.21082878533E+03  0.21204644042E+03  0.00000000000E+00 0.  1.
          1    1    1    2  502    0 -0.65731434938E+01  0.21718884768E+02 -0.31628241927E+02  0.38926364566E+02  0.00000000000E+00 0.  1.
</event>
<event>
 4    1  0.3767413E+003  0.6133382E+02  0.7546771E-02  0.1255367E+00
          2   -1    0    0  502    0  0.00000000000E+00  0.00000000000E+00  0.28948958312E+03  0.28948958312E+03  0.00000000000E+00 0. -1.
          1   -1    0    0  501    0 -0.00000000000E+00 -0.00000000000E+00 -0.20383875206E+02  0.20383875206E+02  0.00000000000E+00 0.  1.
          2    1    1    2  501    0  0.25577042914E+00 -0.61333288572E+02  0.22783708512E+03  0.23594824657E+03  0.00000000000E+00 0. -1.
          1    1    1    2  502    0 -0.25577042914E+00  0.61333288572E+02  0.41268622799E+02  0.73925211757E+02  0.00000000000E+00 0.  1.
</event>
<event>
 4    1  0.3767413E+003  0.4994626E+02  0.7546771E-02  0.1298406E+00
          2   -1    0    0  502    0  0.00000000000E+00  0.00000000000E+00  0.21953902904E+02  0.21953902904E+02  0.00000000000E+00 0.  1.
          1   -1    0    0  501    0 -0.00000000000E+00 -0.00000000000E+00 -0.38123686514E+03  0.38123686514E+03  0.00000000000E+00 0.  1.
          2    1    1    2  501    0 -0.66546458813E+01  0.49500960334E+02 -0.10740765099E+02  0.51088094706E+02  0.00000000000E+00 0.  1.
          1    1    1    2  502    0  0.66546458813E+01 -0.49500960334E+02 -0.34854219714E+03  0.35210267334E+03  0.00000000000E+00 0.  1.
</event>
<event>
 4    1  0.3767413E+003  0.2099642E+02  0.7546771E-02  0.1519316E+00
          2   -1    0    0  502    0  0.00000000000E+00  0.00000000000E+00  0.14649051315E+03  0.14649051315E+03  0.00000000000E+00 0. -1.
          1   -1    0    0  501    0 -0.00000000000E+00 -0.00000000000E+00 -0.13345165576E+04  0.13345165576E+04  0.00000000000E+00 0. -1.
          2    1    1    2  501    0 -0.13546213500E+02  0.16042130095E+02  0.14565510365E+03  0.14716065731E+03  0.00000000000E+00 0. -1.
          1    1    1    2  502    0  0.13546213500E+02 -0.16042130095E+02 -0.13336811481E+04  0.13338464135E+04  0.00000000000E+00 0. -1.
</event>
<event>
 4    1  0.3767413E+003  0.3628956E+02  0.7546771E-02  0.1371717E+00
          2   -1    0    0  502    0  0.00000000000E+00  0.00000000000E+00  0.43402634519E+01  0.43402634519E+01  0.00000000000E+00 0. -1.
          1   -1    0    0  501    0 -0.00000000000E+00 -0.00000000000E+00 -0.35762500513E+03  0.35762500513E+03  0.00000000000E+00 0. -1.
          2    1    1    2  501    0 -0.55178222983E+01 -0.35867614117E+02 -0.10618377009E+03  0.11221374754E+03  0.00000000000E+00 0. -1.
          1    1    1    2  502    0  0.55178222983E+01  0.35867614117E+02 -0.24710097158E+03  0.24975152104E+03  0.00000000000E+00 0. -1.
</event>
<event>
 4    1  0.3767413E+003  0.3693246E+02  0.7546771E-02  0.1367464E+00
          2   -1    0    0  502    0  0.00000000000E+00  0.00000000000E+00  0.37090908507E+03  0.37090908507E+03  0.00000000000E+00 0.  1.
          1   -1    0    0  501    0 -0.00000000000E+00 -0.00000000000E+00 -0.10923196536E+02  0.10923196536E+02  0.00000000000E+00 0.  1.
          2    1    1    2  501    0 -0.36706014440E+02  0.40834894577E+01  0.33548521118E+03  0.33751197506E+03  0.00000000000E+00 0.  1.
          1    1    1    2  502    0  0.36706014440E+02 -0.40834894577E+01  0.24500677350E+02  0.44320306552E+02  0.00000000000E+00 0.  1.
</event>
<event>
 4    1  0.3767413E+003  0.2629842E+02  0.7546771E-02  0.1454786E+00
          2   -1    0    0  502    0  0.00000000000E+00  0.00000000000E+00  0.10604447676E+04  0.10604447676E+04  0.00000000000E+00 0. -1.
          1   -1    0    0  501    0 -0.00000000000E+00 -0.00000000000E+00 -0.70670584139E+00  0.70670584139E+00  0.00000000000E+00 0. -1.
          2    1    1    2  501    0  0.13213491929E+02  0.22737871045E+02  0.67723786478E+03  0.67774828118E+03  0.00000000000E+00 0. -1.
          1    1    1    2  502    0 -0.13213491929E+02 -0.22737871045E+02  0.38250019694E+03  0.38340319222E+03  0.00000000000E+00 0. -1.
</event>
<event>
 4    1  0.3767413E+003  0.2088598E+02  0.7546771E-02  0.1520899E+00
          2   -1    0    0  502    0  0.00000000000E+00  0.00000000000E+00  0.79248720348E+03  0.79248720348E+03  0.00000000000E+00 0. -1.
          1   -1    0    0  501    0 -0.00000000000E+00 -0.00000000000E+00 -0.32407782427E+01  0.32407782427E+01  0.00000000000E+00 0.  1.
          2    1    1    2  501    0 -0.19294843251E+02 -0.79958151994E+01  0.75712710003E+03  0.75741512371E+03  0.00000000000E+00 0. -1.
          1    1    1    2  502    0  0.19294843251E+02  0.79958151994E+01  0.32119325212E+02  0.38312858009E+02  0.00000000000E+00 0.  1.
</event>
<event>
 4    1  0.3767413E+003  0.2246688E+02  0.7546771E-02  0.1499303E+00
          2   -1    0    0  502    0  0.00000000000E+00  0.00000000000E+00  0.87395156224E+03  0.87395156224E+03  0.00000000000E+00 0.  1.
          1   -1    0    0  501    0 -0.00000000000E+00 -0.00000000000E+00 -0.12273434161E+01  0.12273434161E+01  0.00000000000E+00 0. -1.
          2    1    1    2  501    0 -0.22139586889E+02  0.38209027077E+01  0.75475816020E+03  0.75509247182E+03  0.00000000000E+00 0.  1.
          1    1    1    2  502    0  0.22139586889E+02 -0.38209027077E+01  0.11796605862E+03  0.12008643384E+03  0.00000000000E+00 0. -1.
</event>
<event>
 4    1  0.3767413E+003  0.2625834E+02  0.7546771E-02  0.1455204E+00
          2   -1    0    0  502    0  0.00000000000E+00  0.00000000000E+00  0.38019680482E+02  0.38019680482E+02  0.00000000000E+00 0.  1.
          1   -1    0    0  501    0 -0.00000000000E+00 -0.00000000000E+00 -0.24660722439E+02  0.24660722439E+02  0.00000000000E+00 0. -1.
          2    1    1    2  501    0 -0.24880988433E+02 -0.83926808780E+01  0.22800818792E+02  0.34776112711E+02  0.00000000000E+00 0.  1.
          1    1    1    2  502    0  0.24880988433E+02  0.83926808780E+01 -0.94418607481E+01  0.27904290210E+02  0.00000000000E+00 0. -1.
</event>
<event>
 4    1  0.3767413E+003  0.2078956E+02  0.7546771E-02  0.1522291E+00
          2   -1    0    0  502    0  0.00000000000E+00  0.00000000000E+00  0.48362715863E+00  0.48362715863E+00  0.00000000000E+00 0.  1.
          1   -1    0    0  501    0 -0.00000000000E+00 -0.00000000000E+00 -0.10320552107E+04  0.10320552107E+04  0.00000000000E+00 0.  1.
          2    1    1    2  501    0  0.20421618343E+02 -0.38940099353E+01 -0.32674264883E+03  0.32740336647E+03  0.00000000000E+00 0.  1.
          1    1    1    2  502    0 -0.20421618343E+02  0.38940099353E+01 -0.70482893466E+03  0.70513547134E+03  0.00000000000E+00 0.  1.
</event>
<event>
 4    1  0.3767413E+003  0.3385671E+02  0.7546771E-02  0.1388784E+00
          2   -1    0    0  502    0  0.00000000000E+00  0.00000000000E+00  0.12262756572E+04  0.12262756572E+04  0.00000000000E+00 0.  1.
          1   -1    0    0  501    0 -0.00000000000E+00 -0.00000000000E+00 -0.30096484229E+01  0.30096484229E+01  0.00000000000E+00 0.  1.
          2    1    1    2  501    0 -0.67339616729E+01 -0.33180276613E+02  0.11219756745E+04  0.11224863879E+04  0.00000000000E+00 0.  1.
          1    1    1    2  502    0  0.67339616729E+01  0.33180276613E+02  0.10129033436E+03  0.10679891774E+03  0.00000000000E+00 0.  1.
</event>
<event>
 4    1  0.3767413E+003  0.2067089E+02  0.7546771E-02  0.1524016E+00
          2   -1    0    0  502    0  0.00000000000E+00  0.00000000000E+00  0.60085710179E+02  0.60085710179E+02  0.00000000000E+00 0. -1.
          1   -1    0    0  501    0 -0.00000000000E+00 -0.00000000000E+00 -0.55212133429E+02  0.55212133429E+02  0.00000000000E+00 0.  1.
          2    1    1    2  501    0 -0.86091969165E+01  0.18792753537E+02  0.56245221982E+02  0.59923374845E+02  0.00000000000E+00 0. -1.
          1    1    1    2  502    0  0.86091969165E+01 -0.18792753537E+02 -0.51371645232E+02  0.55374468764E+02  0.00000000000E+00 0.  1.
</event>
<event>
 4    1  0.3767413E+003  0.2537194E+02  0.7546771E-02  0.1464685E+00
          2   -1    0    0  502    0  0.00000000000E+00  0.00000000000E+00  0.27424061146E+02  0.27424061146E+02  0.00000000000E+00 0.  1.
          1   -1    0    0  501    0 -0.00000000000E+00 -0.00000000000E+00 -0.12704124714E+03  0.12704124714E+03  0.00000000000E+00 0.  1.
          2    1    1    2  501    0 -0.18801377140E+02 -0.17036539087E+02  0.19924848481E+02  0.32260425189E+02  0.00000000000E+00 0.  1.
          1    1    1    2  502    0  0.18801377140E+02  0.17036539087E+02 -0.11954203448E+03  0.12220488310E+03  0.00000000000E+00 0.  1.
</event>
<event>
 4    1  0.3767413E+003  0.2164001E+02  0.7546771E-02  0.1510320E+00
          2   -1    0    0  502    0  0.00000000000E+00  0.00000000000E+00  0.10563321976E+02  0.10563321976E+02  0.00000000000E+00 0. -1.
          1   -1    0    0  501    0 -0.00000000000E+00 -0.00000000000E+00 -0.81624207369E+02  0.81624207369E+02  0.00000000000E+00 0.  1.
          2    1    1    2  501    0  0.34072593666E+01  0.21370091968E+02 -0.43743233251E+01  0.22077702590E+02  0.00000000000E+00 0. -1.
          1    1    1    2  502    0 -0.34072593666E+01 -0.21370091968E+02 -0.66686562068E+02  0.70109826754E+02  0.00000000000E+00 0.  1.
</event>
<event>
 4    1  0.3767413E+003  0.2878752E+02  0.7546771E-02  0.1430434E+00
          2   -1    0    0  502    0  0.00000000000E+00  0.00000000000E+00  0.41172178022E+02  0.41172178022E+02  0.00000000000E+00 0. -1.
          1   -1    0    0  501    0 -0.00000000000E+00 -0.00000000000E+00 -0.24423549928E+03  0.24423549928E+03  0.00000000000E+00 0.  1.
          2    1    1    2  501    0 -0.21252195516E+00  0.28786736678E+02  0.35165430554E+02  0.45445889585E+02  0.00000000000E+00 0. -1.
          1    1    1    2  502    0  0.21252195516E+00 -0.28786736678E+02 -0.23822875181E+03  0.23996178771E+03  0.00000000000E+00 0.  1.
</event>
<event>
 4    1  0.3767413E+003  0.2483488E+02  0.7546771E-02  0.1470659E+00
          2   -1    0    0  502    0  0.00000000000E+00  0.00000000000E+00  0.62741571900E+01  0.62741571900E+01  0.00000000000E+00 0.  1.
          1   -1    0    0  501    0 -0.00000000000E+00 -0.00000000000E+00 -0.42693351468E+03  0.42693351468E+03  0.00000000000E+00 0.  1.
          2    1    1    2  501    0 -0.18537360323E+02 -0.16526874699E+02 -0.20292023432E+02  0.32070820539E+02  0.00000000000E+00 0.  1.
          1    1    1    2  502    0  0.18537360323E+02  0.16526874699E+02 -0.40036733406E+03  0.40113685133E+03  0.00000000000E+00 0.  1.
</event>
<event>
 4    1  0.3767413E+003  0.5473796E+02  0.7546771E-02  0.1278841E+00
          2   -1    0    0  502    0  0.00000000000E+00  0.00000000000E+00  0.32052864844E+03  0.32052864844E+03  0.00000000000E+00 0. -1.
          1   -1    0    0  501    0 -0.00000000000E+00 -0.00000000000E+00 -0.36204646699E+02  0.36204646699E+02  0.00000000000E+00 0. -1.
          2    1    1    2  501    0 -0.29929793196E+02  0.45830689699E+02  0.29578591562E+03  0.30080816565E+03  0.00000000000E+00 0. -1.
          1    1    1    2  502    0  0.29929793196E+02 -0.45830689699E+02 -0.11461913880E+02  0.55925129494E+02  0.00000000000E+00 0. -1.
</event>
<event>
 4    1  0.3767413E+003  0.2437908E+02  0.7546771E-02  0.1475871E+00
          2   -1    0    0  502    0  0.00000000000E+00  0.00000000000E+00  0.36369059024E+03  0.36369059024E+03  0.00000000000E+00 0. -1.
          1   -1    0    0  501    0 -0.00000000000E+00 -0.00000000000E+00 -0.18527100758E+03  0.18527100758E+03  0.00000000000E+00 0.  1.
          2    1    1    2  501    0 -0.24297987832E+02  0.19867702360E+01  0.36247737494E+03  0.36329627966E+03  0.00000000000E+00 0. -1.
          1    1    1    2  502    0  0.24297987832E+02 -0.19867702360E+01 -0.18405779228E+03  0.18566531816E+03  0.00000000000E+00 0.  1.
</event>
<event>
 4    1  0.3767413E+003  0.3421852E+02  0.7546771E-02  0.1386142E+00
          2   -1    0    0  502    0  0.00000000000E+00  0.00000000000E+00  0.43045614701E+03  0.43045614701E+03  0.00000000000E+00 0.  1.
          1   -1    0    0  501    0 -0.00000000000E+00 -0.00000000000E+00 -0.57085829358E+02  0.57085829358E+02  0.00000000000E+00 0. -1.
          2    1    1    2  501    0  0.84011205159E+01  0.33171199330E+02  0.42457738557E+03  0.42595406281E+03  0.00000000000E+00 0.  1.
          1    1    1    2  502    0 -0.84011205159E+01 -0.33171199330E+02 -0.51207067918E+02  0.61587913552E+02  0.00000000000E+00 0. -1.
</event>
<event>
 4    1  0.3767413E+003  0.2865130E+02  0.7546771E-02  0.1431690E+00
          2   -1    0    0  502    0  0.00000000000E+00  0.00000000000E+00  0.95783377604E+03  0.95783377604E+03  0.00000000000E+00 0. -1.
          1   -1    0    0  501    0 -0.00000000000E+00 -0.00000000000E+00 -0.86868212076E+01  0.86868212076E+01  0.00000000000E+00 0.  1.
          2    1    1    2  501    0  0.23225928876E+02  0.16776574168E+02  0.93337581740E+03  0.93381546020E+03  0.00000000000E+00 0. -1.
          1    1    1    2  502    0 -0.23225928876E+02 -0.16776574168E+02  0.15771137432E+02  0.32705137041E+02  0.00000000000E+00 0.  1.
</event>
<event>
 4    1  0.3767413E+003  0.3601480E+02  0.7546771E-02  0.1373566E+00
          2   -1    0    0  502    0  0.00000000000E+00  0.00000000000E+00  0.46857839542E+01  0.46857839542E+01  0.00000000000E+00 0. -1.
          1   -1    0    0  501    0 -0.00000000000E+00 -0.00000000000E+00 -0.54800978120E+03  0.54800978120E+03  0.00000000000E+00 0. -1.
          2    1    1    2  501    0 -0.14048439998E+02 -0.33161828870E+02 -0.77256935170E+02  0.85239073154E+02  0.00000000000E+00 0. -1.
          1    1    1    2  502    0  0.14048439998E+02  0.33161828870E+02 -0.46606706207E+03  0.46745649200E+03  0.00000000000E+00 0. -1.
</event>
<event>
 4    1  0.3767413E+003  0.2244090E+02  0.7546771E-02  0.1499641E+00
          2   -1    0    0  502    0  0.00000000000E+00  0.00000000000E+00  0.22365504060E+02  0.22365504060E+02  0.00000000000E+00 0. -1.
          1   -1    0    0  501    0 -0.00000000000E+00 -0.00000000000E+00 -0.31822212918E+02  0.31822212918E+02  0.00000000000E+00 0. -1.
          2    1    1    2  501    0 -0.21882107858E+02  0.49766599222E+01  0.99230595266E+01  0.24536929283E+02  0.00000000000E+00 0. -1.
          1    1    1    2  502    0  0.21882107858E+02 -0.49766599222E+01 -0.19379768385E+02  0.29650787695E+02  0.00000000000E+00 0. -1.
</event>
<event>
 4    1  0.3767413E+003  0.2091048E+02  0.7546771E-02  0.1520547E+00
          2   -1    0    0  502    0  0.00000000000E+00  0.00000000000E+00  0.38314279907E+02  0.38314279907E+02  0.00000000000E+00 0.  1.
          1   -1    0    0  501    0 -0.00000000000E+00 -0.00000000000E+00 -0.86571149494E+02  0.86571149494E+02  0.00000000000E+00 0. -1.
          2    1    1    2  501    0 -0.13267232554E+02 -0.16162572900E+02  0.34053168577E+02  0.39960812210E+02  0.00000000000E+00 0.  1.
          1    1    1    2  502    0  0.13267232554E+02  0.16162572900E+02 -0.82310038165E+02  0.84924617191E+02  0.00000000000E+00 0. -1.
</event>
<event>
 4    1  0.3767413E+003  0.3054686E+02  0.7546771E-02  0.1414903E+00
          2   -1    0    0  502    0  0.00000000000E+00  0.00000000000E+00  0.10934432881E+04  0.10934432881E+04  0.00000000000E+00 0.  1.
          1   -1    0    0  501    0 -0.00000000000E+00 -0.00000000000E+00 -0.13572457766E+02  0.13572457766E+02  0.00000000000E+00 0. -1.
          2    1    1    2  501    0  0.23007716204E+01 -0.30460093661E+02  0.10757598917E+04  0.10761935028E+04  0.00000000000E+00 0.  1.
          1    1    1    2  502    0 -0.23007716204E+01  0.30460093661E+02  0.41109387090E+01  0.30822243152E+02  0.00000000000E+00 0. -1.
</event>
<event>
 4    1  0.3767413E+003  0.2142599E+02  0.7546771E-02  0.1513269E+00
          2   -1    0    0  502    0  0.00000000000E+00  0.00000000000E+00  0.16239838689E+03  0.16239838689E+03  0.00000000000E+00 0.  1.
          1   -1    0    0  501    0 -0.00000000000E+00 -0.00000000000E+00 -0.12330381867E+03  0.12330381867E+03  0.00000000000E+00 0.  1.
          2    1    1    2  501    0  0.16966918401E+02  0.13084221008E+02  0.16075140784E+03  0.16217301959E+03  0.00000000000E+00 0.  1.
          1    1    1    2  502    0 -0.16966918401E+02 -0.13084221008E+02 -0.12165683962E+03  0.12352918597E+03  0.00000000000E+00 0.  1.
</event>
<event>
 4    1  0.3767413E+003  0.2213709E+02  0.7546771E-02  0.1503628E+00
          2   -1    0    0  502    0  0.00000000000E+00  0.00000000000E+00  0.48169347468E+02  0.48169347468E+02  0.00000000000E+00 0. -1.
          1   -1    0    0  501    0 -0.00000000000E+00 -0.00000000000E+00 -0.47702070703E+03  0.47702070703E+03  0.00000000000E+00 0. -1.
          2    1    1    2  501    0  0.21698034611E+02 -0.43870080955E+01  0.45354053872E+02  0.50468215231E+02  0.00000000000E+00 0. -1.
          1    1    1    2  502    0 -0.21698034611E+02  0.43870080955E+01 -0.47420541343E+03  0.47472183926E+03  0.00000000000E+00 0. -1.
</event>
<event>
 4    1  0.3767413E+003  0.2322406E+02  0.7546771E-02  0.1489704E+00
          2   -1    0    0  502    0  0.00000000000E+00  0.00000000000E+00  0.15605509310E+03  0.15605509310E+03  0.00000000000E+00 0. -1.
          1   -1    0    0  501    0 -0.00000000000E+00 -0.00000000000E+00 -0.68602621850E+01  0.68602621850E+01  0.00000000000E+00 0.  1.
          2    1    1    2  501    0  0.23126360594E+02 -0.21280236569E+01  0.13197742873E+03  0.13400521905E+03  0.00000000000E+00 0. -1.
          1    1    1    2  502    0 -0.23126360594E+02  0.21280236569E+01  0.17217402184E+02  0.28910136232E+02  0.00000000000E+00 0.  1.
</event>
<event>
 4    1  0.3767413E+003  0.3263654E+02  0.7546771E-02  0.1397987E+00
          2   -1    0    0  502    0  0.00000000000E+00  0.00000000000E+00  0.14545655400E+03  0.14545655400E+03  0.00000000000E+00 0.  1.
          1   -1    0    0  501    0 -0.00000000000E+00 -0.00000000000E+00 -0.36892522679E+02  0.36892522679E+02  0.00000000000E+00 0.  1.
          2    1    1    2  501    0 -0.30047574618E+02  0.12739191471E+02  0.13590797540E+03  0.13977167637E+03  0.00000000000E+00 0.  1.
          1    1    1    2  502    0  0.30047574618E+02 -0.12739191471E+02 -0.27343944072E+02  0.42577400310E+02  0.00000000000E+00 0.  1.
</event>
<event>
 4    1  0.3767413E+003  0.2569941E+02  0.7546771E-02  0.1461129E+00
          2   -1    0    0  502    0  0.00000000000E+00  0.00000000000E+00  0.68757625662E+02  0.68757625662E+02  0.00000000000E+00 0.  1.
          1   -1    0    0  501    0 -0.00000000000E+00 -0.00000000000E+00 -0.20636444809E+02  0.20636444809E+02  0.00000000000E+00 0.  1.
          2    1    1    2  501    0 -0.25254661628E+02  0.47604159467E+01  0.56739330800E+02  0.62288130118E+02  0.00000000000E+00 0.  1.
          1    1    1    2  502    0  0.25254661628E+02 -0.47604159467E+01 -0.86181499471E+01  0.27105940353E+02  0.00000000000E+00 0.  1.
</event>
<event>
 4    1  0.3767413E+003  0.2218046E+02  0.7546771E-02  0.1503054E+00
          2   -1    0    0  502    0  0.00000000000E+00  0.00000000000E+00  0.61195790085E+02  0.61195790085E+02  0.00000000000E+00 0.  1.
          1   -1    0    0  501    0 -0.00000000000E+00 -0.00000000000E+00 -0.14514284401E+03  0.14514284401E+03  0.00000000000E+00 0. -1.
          2    1    1    2  501    0  0.17641882255E+02 -0.13443842899E+02  0.58297864181E+02  0.62374785687E+02  0.00000000000E+00 0.  1.
          1    1    1    2  502    0 -0.17641882255E+02  0.13443842899E+02 -0.14224491811E+03  0.14396384841E+03  0.00000000000E+00 0. -1.
</event>
<event>
 4    1  0.3767413E+003  0.2158284E+02  0.7546771E-02  0.1511104E+00
          2   -1    0    0  502    0  0.00000000000E+00  0.00000000000E+00  0.21275765031E+02  0.21275765031E+02  0.00000000000E+00 0. -1.
          1   -1    0    0  501    0 -0.00000000000E+00 -0.00000000000E+00 -0.26048944169E+02  0.26048944169E+02  0.00000000000E+00 0. -1.
          2    1    1    2  501    0 -0.12727677746E+02 -0.17430587690E+02  0.70633036249E+01  0.22709236582E+02  0.00000000000E+00 0. -1.
          1    1    1    2  502    0  0.12727677746E+02  0.17430587690E+02 -0.11836482762E+02  0.24615472618E+02  0.00000000000E+00 0. -1.
</event>
<event>
 4    1  0.3767413E+003  0.3019723E+02  0.7546771E-02  0.1417890E+00
          2   -1    0    0  502    0  0.00000000000E+00  0.00000000000E+00  0.36662473695E+03  0.36662473695E+03  0.00000000000E+00 0.  1.
          1   -1    0    0  501    0 -0.00000000000E+00 -0.00000000000E+00 -0.91328446755E+03  0.91328446755E+03  0.00000000000E+00 0. -1.
          2    1    1    2  501    0  0.11974728803E+02  0.27721444075E+02  0.36575272690E+03  0.36699717959E+03  0.00000000000E+00 0.  1.
          1    1    1    2  502    0 -0.11974728803E+02 -0.27721444075E+02 -0.91241245751E+03  0.91291202490E+03  0.00000000000E+00 0. -1.
</event>
<event>
 4    1  0.3767413E+003  0.4441731E+02  0.7546771E-02  0.1324379E+00
          2   -1    0    0  502    0  0.00000000000E+00  0.00000000000E+00  0.13111137862E+04  0.13111137862E+04  0.00000000000E+00 0.  1.
          1   -1    0    0  501    0 -0.00000000000E+00 -0.00000000000E+00 -0.76980186692E+01  0.76980186692E+01  0.00000000000E+00 0. -1.
          2    1    1    2  501    0 -0.41033685082E+02 -0.17003955583E+02  0.12431650905E+04  0.12439583354E+04  0.00000000000E+00 0.  1.
          1    1    1    2  502    0  0.41033685082E+02  0.17003955583E+02  0.60250676980E+02  0.74853469481E+02  0.00000000000E+00 0. -1.
</event>
<event>
 4    1  0.3767413E+003  0.3205086E+02  0.7546771E-02  0.1402573E+00
          2   -1    0    0  502    0  0.00000000000E+00  0.00000000000E+00  0.87284977191E+03  0.87284977191E+03  0.00000000000E+00 0.  1.
          1   -1    0    0  501    0 -0.00000000000E+00 -0.00000000000E+00 -0.34382720067E+01  0.34382720067E+01  0.00000000000E+00 0.  1.
          2    1    1    2  501    0 -0.18400124483E+02  0.26242964823E+02  0.79003641044E+03  0.79068627635E+03  0.00000000000E+00 0.  1.
          1    1    1    2  502    0  0.18400124483E+02 -0.26242964823E+02  0.79375089470E+02  0.85601767575E+02  0.00000000000E+00 0.  1.
</event>
<event>
 4    1  0.3767413E+003  0.2466468E+02  0.7546771E-02  0.1472590E+00
          2   -1    0    0  502    0  0.00000000000E+00  0.00000000000E+00  0.29933087191E+03  0.29933087191E+03  0.00000000000E+00 0. -1.
          1   -1    0    0  501    0 -0.00000000000E+00 -0.00000000000E+00 -0.16820090282E+02  0.16820090282E+02  0.00000000000E+00 0.  1.
          2    1    1    2  501    0  0.49746858655E+01  0.24157788032E+02  0.28947347759E+03  0.29052235792E+03  0.00000000000E+00 0. -1.
          1    1    1    2  502    0 -0.49746858655E+01 -0.24157788032E+02 -0.69626959600E+01  0.25628604275E+02  0.00000000000E+00 0.  1.
</event>
<event>
 4    1  0.3767413E+003  0.2197866E+02  0.7546771E-02  0.1505737E+00
          2   -1    0    0  502    0  0.00000000000E+00  0.00000000000E+00  0.19030696668E+03  0.19030696668E+03  0.00000000000E+00 0. -1.
          1   -1    0    0  501    0 -0.00000000000E+00 -0.00000000000E+00 -0.13954000989E+02  0.13954000989E+02  0.00000000000E+00 0. -1.
          2    1    1    2  501    0  0.21744422259E+02  0.32002702815E+01  0.18055197425E+03  0.18188479055E+03  0.00000000000E+00 0. -1.
          1    1    1    2  502    0 -0.21744422259E+02 -0.32002702815E+01 -0.41990085621E+01  0.22376177112E+02  0.00000000000E+00 0. -1.
</event>
<event>
 4    1  0.3767413E+003  0.2200289E+02  0.7546771E-02  0.1505413E+00
          2   -1    0    0  502    0  0.00000000000E+00  0.00000000000E+00  0.16545839574E+03  0.16545839574E+03  0.00000000000E+00 0. -1.
          1   -1    0    0  501    0 -0.00000000000E+00 -0.00000000000E+00 -0.46949649157E+03  0.46949649157E+03  0.00000000000E+00 0. -1.
          2    1    1    2  501    0  0.92033396209E+00  0.21983633704E+02  0.16446756515E+03  0.16593283928E+03  0.00000000000E+00 0. -1.
          1    1    1    2  502    0 -0.92033396209E+00 -0.21983633704E+02 -0.46850566098E+03  0.46902204803E+03  0.00000000000E+00 0. -1.
</event>
<event>
 4    1  0.3767413E+003  0.2448277E+02  0.7546771E-02  0.1474674E+00
          2   -1    0    0  502    0  0.00000000000E+00  0.00000000000E+00  0.11829161465E+01  0.11829161465E+01  0.00000000000E+00 0. -1.
          1   -1    0    0  501    0 -0.00000000000E+00 -0.00000000000E+00 -0.77169392160E+03  0.77169392160E+03  0.00000000000E+00 0. -1.
          2    1    1    2  501    0 -0.24456912002E+02 -0.11249397657E+01 -0.15881183560E+03  0.16068791230E+03  0.00000000000E+00 0. -1.
          1    1    1    2  502    0  0.24456912002E+02  0.11249397657E+01 -0.61169916985E+03  0.61218892544E+03  0.00000000000E+00 0. -1.
</event>
<event>
 4    1  0.3767413E+003  0.3868021E+02  0.7546771E-02  0.1356398E+00
          2   -1    0    0  502    0  0.00000000000E+00  0.00000000000E+00  0.24140827653E+04  0.24140827653E+04  0.00000000000E+00 0. -1.
          1   -1    0    0  501    0 -0.00000000000E+00 -0.00000000000E+00 -0.23571202660E+01  0.23571202660E+01  0.00000000000E+00 0. -1.
          2    1    1    2  501    0  0.38499110081E+02 -0.37385890872E+01  0.22431517216E+04  0.22434851915E+04  0.00000000000E+00 0. -1.
          1    1    1    2  502    0 -0.38499110081E+02  0.37385890872E+01  0.16857392348E+03  0.17295469408E+03  0.00000000000E+00 0. -1.
</event>
<event>
 4    1  0.3767413E+003  0.2013438E+02  0.7546771E-02  0.1531991E+00
          2   -1    0    0  502    0  0.00000000000E+00  0.00000000000E+00  0.83241310452E+02  0.83241310452E+02  0.00000000000E+00 0. -1.
          1   -1    0    0  501    0 -0.00000000000E+00 -0.00000000000E+00 -0.20303737509E+02  0.20303737509E+02  0.00000000000E+00 0.  1.
          2    1    1    2  501    0 -0.15860060030E+02 -0.12403696353E+02  0.76607122429E+02  0.79208865629E+02  0.00000000000E+00 0. -1.
          1    1    1    2  502    0  0.15860060030E+02  0.12403696353E+02 -0.13669549485E+02  0.24336182332E+02  0.00000000000E+00 0.  1.
</event>
<event>
 4    1  0.3767413E+003  0.2520358E+02  0.7546771E-02  0.1466539E+00
          2   -1    0    0  502    0  0.00000000000E+00  0.00000000000E+00  0.54469931327E+02  0.54469931327E+02  0.00000000000E+00 0.  1.
          1   -1    0    0  501    0 -0.00000000000E+00 -0.00000000000E+00 -0.41581885540E+02  0.41581885540E+02  0.00000000000E+00 0. -1.
          2    1    1    2  501    0 -0.18808925259E+02 -0.16776323184E+02  0.47182471136E+02  0.53492114106E+02  0.00000000000E+00 0.  1.
          1    1    1    2  502    0  0.18808925259E+02  0.16776323184E+02 -0.34294425350E+02  0.42559702760E+02  0.00000000000E+00 0. -1.
</event>
<event>
 4    1  0.3767413E+003  0.2166989E+02  0.7546771E-02  0.1509912E+00
          2   -1    0    0  502    0  0.00000000000E+00  0.00000000000E+00  0.39513708231E+03  0.39513708231E+03  0.00000000000E+00 0.  1.
          1   -1    0    0  501    0 -0.00000000000E+00 -0.00000000000E+00 -0.15013829963E+01  0.15013829963E+01  0.00000000000E+00 0. -1.
          2    1    1    2  501    0  0.21085150512E+02 -0.50000629210E+01  0.28736476863E+03  0.28818066286E+03  0.00000000000E+00 0.  1.
          1    1    1    2  502    0 -0.21085150512E+02  0.50000629210E+01  0.10627093069E+03  0.10845780244E+03  0.00000000000E+00 0. -1.
</event>
<event>
 4    1  0.3767413E+003  0.2043729E+02  0.7546771E-02  0.1527453E+00
          2   -1    0    0  502    0  0.00000000000E+00  0.00000000000E+00  0.50010460757E+03  0.50010460757E+03  0.00000000000E+00 0.  1.
          1   -1    0    0  501    0 -0.00000000000E+00 -0.00000000000E+00 -0.15157569296E+01  0.15157569296E+01  0.00000000000E+00 0. -1.
          2    1    1    2  501    0 -0.18910865667E+02 -0.77499673704E+01  0.41735486884E+03  0.41785496213E+03  0.00000000000E+00 0.  1.
          1    1    1    2  502    0  0.18910865667E+02  0.77499673704E+01  0.81233981798E+02  0.83765402365E+02  0.00000000000E+00 0. -1.
</event>
<event>
 4    1  0.3767413E+003  0.2942659E+02  0.7546771E-02  0.1424646E+00
          2   -1    0    0  502    0  0.00000000000E+00  0.00000000000E+00  0.17443896338E+04  0.17443896338E+04  0.00000000000E+00 0.  1.
          1   -1    0    0  501    0 -0.00000000000E+00 -0.00000000000E+00 -0.29440019480E+03  0.29440019480E+03  0.00000000000E+00 0. -1.
          2    1    1    2  501    0 -0.29426051187E+02 -0.17764660549E+00  0.17435298409E+04  0.17437781482E+04  0.00000000000E+00 0.  1.
          1    1    1    2  502    0  0.29426051187E+02  0.17764660549E+00 -0.29354040188E+03  0.29501168041E+03  0.00000000000E+00 0. -1.
</event>
<event>
 4    1  0.3767413E+003  0.3363578E+02  0.7546771E-02  0.1390416E+00
          2   -1    0    0  502    0  0.00000000000E+00  0.00000000000E+00  0.17842538406E+03  0.17842538406E+03  0.00000000000E+00 0.  1.
          1   -1    0    0  501    0 -0.00000000000E+00 -0.00000000000E+00 -0.10476258824E+04  0.10476258824E+04  0.00000000000E+00 0. -1.
          2    1    1    2  501    0 -0.33534816159E+02 -0.26041364133E+01  0.17656737714E+03  0.17974260511E+03  0.00000000000E+00 0.  1.
          1    1    1    2  502    0  0.33534816159E+02  0.26041364133E+01 -0.10457678755E+04  0.10463086614E+04  0.00000000000E+00 0. -1.
</event>
<event>
 4    1  0.3767413E+003  0.2129794E+02  0.7546771E-02  0.1515053E+00
          2   -1    0    0  502    0  0.00000000000E+00  0.00000000000E+00  0.20784769455E+02  0.20784769455E+02  0.00000000000E+00 0. -1.
          1   -1    0    0  501    0 -0.00000000000E+00 -0.00000000000E+00 -0.45099141267E+02  0.45099141267E+02  0.00000000000E+00 0. -1.
          2    1    1    2  501    0 -0.20701318317E+02 -0.50057491379E+01  0.11508195726E+02  0.24208276959E+02  0.00000000000E+00 0. -1.
          1    1    1    2  502    0  0.20701318317E+02  0.50057491379E+01 -0.35822567538E+02  0.41675633763E+02  0.00000000000E+00 0. -1.
</event>
<event>
 4    1  0.3767413E+003  0.2671121E+02  0.7546771E-02  0.1450531E+00
          2   -1    0    0  502    0  0.00000000000E+00  0.00000000000E+00  0.51027196264E+03  0.51027196264E+03  0.00000000000E+00 0. -1.
          1   -1    0    0  501    0 -0.00000000000E+00 -0.00000000000E+00 -0.22966667658E+01  0.22966667658E+01  0.00000000000E+00 0. -1.
          2    1    1    2  501    0  0.21811433226E+02  0.15419139991E+02  0.41427956176E+03  0.41513978825E+03  0.00000000000E+00 0. -1.
          1    1    1    2  502    0 -0.21811433226E+02 -0.15419139991E+02  0.93695734110E+02  0.97428841150E+02  0.00000000000E+00 0. -1.
</event>
<event>
 4    1  0.3767413E+003  0.2418688E+02  0.7546771E-02  0.1478109E+00
          2   -1    0    0  502    0  0.00000000000E+00  0.00000000000E+00  0.36402243713E+03  0.36402243713E+03  0.00000000000E+00 0.  1.
          1   -1    0    0  501    0 -0.00000000000E+00 -0.00000000000E+00 -0.15460150565E+03  0.15460150565E+03  0.00000000000E+00 0.  1.
          2    1    1    2  501    0  0.23225167312E+02  0.67525475104E+01  0.36267116280E+03  0.36347679104E+03  0.00000000000E+00 0.  1.
          1    1    1    2  502    0 -0.23225167312E+02 -0.67525475104E+01 -0.15325023133E+03  0.15514715175E+03  0.00000000000E+00 0.  1.
</event>
<event>
 4    1  0.3767413E+003  0.2886072E+02  0.7546771E-02  0.1429762E+00
          2   -1    0    0  502    0  0.00000000000E+00  0.00000000000E+00  0.20026753870E+04  0.20026753870E+04  0.00000000000E+00 0.  1.
          1   -1    0    0  501    0 -0.00000000000E+00 -0.00000000000E+00 -0.25603517849E+01  0.25603517849E+01  0.00000000000E+00 0. -1.
          2    1    1    2  501    0  0.71619360817E+01  0.27957963478E+02  0.19176341180E+04  0.19178512850E+04  0.00000000000E+00 0.  1.
          1    1    1    2  502    0 -0.71619360817E+01 -0.27957963478E+02  0.82480917252E+02  0.87384453772E+02  0.00000000000E+00 0. -1.
</event>
<event>
 4    1  0.3767413E+003  0.3298738E+02  0.7546771E-02  0.1395293E+00
          2   -1    0    0  502    0  0.00000000000E+00  0.00000000000E+00  0.13320049716E+02  0.13320049716E+02  0.00000000000E+00 0. -1.
          1   -1    0    0  501    0 -0.00000000000E+00 -0.00000000000E+00 -0.89587717248E+02  0.89587717248E+02  0.00000000000E+00 0. -1.
          2    1    1    2  501    0  0.29244330366E+02  0.15262210689E+02 -0.53407358270E+02  0.62773496406E+02  0.00000000000E+00 0. -1.
          1    1    1    2  502    0 -0.29244330366E+02 -0.15262210689E+02 -0.22860309262E+02  0.40134270558E+02  0.00000000000E+00 0. -1.
</event>
<event>
 4    1  0.3767413E+003  0.2480031E+02  0.7546771E-02  0.1471050E+00
          2   -1    0    0  502    0  0.00000000000E+00  0.00000000000E+00  0.28174701309E+03  0.28174701309E+03  0.00000000000E+00 0. -1.
          1   -1    0    0  501    0 -0.00000000000E+00 -0.00000000000E+00 -0.25771225622E+01  0.25771225622E+01  0.00000000000E+00 0.  1.
          2    1    1    2  501    0 -0.12382054119E+02  0.21488142173E+02  0.19517899947E+03  0.19674830966E+03  0.00000000000E+00 0. -1.
          1    1    1    2  502    0  0.12382054119E+02 -0.21488142173E+02  0.83990891054E+02  0.87575825992E+02  0.00000000000E+00 0.  1.
</event>
<event>
 4    1  0.3767413E+003  0.3797402E+02  0.7546771E-02  0.1360785E+00
          2   -1    0    0  502    0  0.00000000000E+00  0.00000000000E+00  0.85702205457E+02  0.85702205457E+02  0.00000000000E+00 0.  1.
          1   -1    0    0  501    0 -0.00000000000E+00 -0.00000000000E+00 -0.34586181504E+03  0.34586181504E+03  0.00000000000E+00 0. -1.
          2    1    1    2  501    0  0.32506897206E+01 -0.37834628720E+02  0.80387920257E+02  0.88905814418E+02  0.00000000000E+00 0.  1.
          1    1    1    2  502    0 -0.32506897206E+01  0.37834628720E+02 -0.34054752984E+03  0.34265820608E+03  0.00000000000E+00 0. -1.
</event>
<event>
 4    1  0.3767413E+003  0.3696458E+02  0.7546771E-02  0.1367254E+00
          2   -1    0    0  502    0  0.00000000000E+00  0.00000000000E+00  0.54556896069E+03  0.54556896069E+03  0.00000000000E+00 0. -1.
          1   -1    0    0  501    0 -0.00000000000E+00 -0.00000000000E+00 -0.19503888744E+02  0.19503888744E+02  0.00000000000E+00 0.  1.
          2    1    1    2  501    0  0.14223391430E+02 -0.34118549661E+02  0.52680558904E+03  0.52810085111E+03  0.00000000000E+00 0. -1.
          1    1    1    2  502    0 -0.14223391430E+02  0.34118549661E+02 -0.74051709516E+00  0.36971998327E+02  0.00000000000E+00 0.  1.
</event>
<event>
 4    1  0.3767413E+003  0.4158691E+02  0.7546771E-02  0.1339429E+00
          2   -1    0    0  502    0  0.00000000000E+00  0.00000000000E+00  0.87199111780E+03  0.87199111780E+03  0.00000000000E+00 0.  1.
          1   -1    0    0  501    0 -0.00000000000E+00 -0.00000000000E+00 -0.43254210907E+02  0.43254210907E+02  0.00000000000E+00 0.  1.
          2    1    1    2  501    0  0.38279787114E+02 -0.16252048648E+02  0.86137619732E+03  0.86237951303E+03  0.00000000000E+00 0.  1.
          1    1    1    2  502    0 -0.38279787114E+02  0.16252048648E+02 -0.32639290431E+02  0.52865815671E+02  0.00000000000E+00 0.  1.
</event>
<event>
 4    1  0.3767413E+003  0.2117533E+02  0.7546771E-02  0.1516776E+00
          2   -1    0    0  502    0  0.00000000000E+00  0.00000000000E+00  0.23819077750E+01  0.23819077750E+01  0.00000000000E+00 0. -1.
          1   -1    0    0  501    0 -0.00000000000E+00 -0.00000000000E+00 -0.52531749775E+03  0.52531749775E+03  0.00000000000E+00 0.  1.
          2    1    1    2  501    0  0.72473908489E+00  0.21162928059E+02 -0.50116971967E+02  0.54406852969E+02  0.00000000000E+00 0. -1.
          1    1    1    2  502    0 -0.72473908489E+00 -0.21162928059E+02 -0.47281861800E+03  0.47329255255E+03  0.00000000000E+00 0.  1.
</event>
<event>
 4    1  0.3767413E+003  0.3872153E+02  0.7546771E-02  0.1356145E+00
          2   -1    0    0  502    0  0.00000000000E+00  0.00000000000E+00  0.11946596111E+04  0.11946596111E+04  0.00000000000E+00 0. -1.
          1   -1    0    0  501    0 -0.00000000000E+00 -0.00000000000E+00 -0.58582770677E+02  0.58582770677E+02  0.00000000000E+00 0. -1.
          2    1    1    2  501    0 -0.13490603675E+02  0.36295456702E+02  0.11879110550E+04  0.11885419770E+04  0.00000000000E+00 0. -1.
          1    1    1    2  502    0  0.13490603675E+02 -0.36295456702E+02 -0.51834214617E+02  0.64700404710E+02  0.00000000000E+00 0. -1.
</event>
<event>
 4    1  0.3767413E+003  0.2004254E+02  0.7546771E-02  0.1533386E+00
          2   -1    0    0  502    0  0.00000000000E+00  0.00000000000E+00  0.22937401077E+03  0.22937401077E+03  0.00000000000E+00 0.  1.
          1   -1    0    0  501    0 -0.00000000000E+00 -0.00000000000E+00 -0.23264147009E+03  0.23264147009E+03  0.00000000000E+00 0. -1.
          2    1    1    2  501    0 -0.52947424518E+01  0.19330527143E+02  0.22850286558E+03  0.22938017167E+03  0.00000000000E+00 0.  1.
          1    1    1    2  502    0  0.52947424518E+01 -0.19330527143E+02 -0.23177032490E+03  0.23263530919E+03  0.00000000000E+00 0. -1.
</event>
<event>
 4    1  0.3767413E+003  0.2798455E+02  0.7546771E-02  0.1437961E+00
          2   -1    0    0  502    0  0.00000000000E+00  0.00000000000E+00  0.39375882817E+01  0.39375882817E+01  0.00000000000E+00 0.  1.
          1   -1    0    0  501    0 -0.00000000000E+00 -0.00000000000E+00 -0.16190409643E+04  0.16190409643E+04  0.00000000000E+00 0.  1.
          2    1    1    2  501    0  0.10525704536E+02 -0.25929611741E+02 -0.47537713546E+02  0.55163116574E+02  0.00000000000E+00 0.  1.
          1    1    1    2  502    0 -0.10525704536E+02  0.25929611741E+02 -0.15675656625E+04  0.15678154360E+04  0.00000000000E+00 0.  1.
</event>
<event>
 4    1  0.3767413E+003  0.2000007E+02  0.7546771E-02  0.1534035E+00
          2   -1    0    0  502    0  0.00000000000E+00  0.00000000000E+00  0.57760315037E+02  0.57760315037E+02  0.00000000000E+00 0. -1.
          1   -1    0    0  501    0 -0.00000000000E+00 -0.00000000000E+00 -0.71112756764E+01  0.71112756764E+01  0.00000000000E+00 0. -1.
          2    1    1    2  501    0  0.18230170563E+02  0.82257608680E+01  0.20077835159E+02  0.28339402346E+02  0.00000000000E+00 0. -1.
          1    1    1    2  502    0 -0.18230170563E+02 -0.82257608680E+01  0.30571204202E+02  0.36532188368E+02  0.00000000000E+00 0. -1.
</event>
<event>
 4    1  0.3767413E+003  0.2054151E+02  0.7546771E-02  0.1525913E+00
          2   -1    0    0  502    0  0.00000000000E+00  0.00000000000E+00  0.70663357662E+03  0.70663357662E+03  0.00000000000E+00 0.  1.
          1   -1    0    0  501    0 -0.00000000000E+00 -0.00000000000E+00 -0.13842130819E+01  0.13842130819E+01  0.00000000000E+00 0. -1.
          2    1    1    2  501    0 -0.19532253231E+02 -0.63596179196E+01  0.61957004622E+03  0.61991047404E+03  0.00000000000E+00 0.  1.
          1    1    1    2  502    0  0.19532253231E+02  0.63596179196E+01  0.85679317327E+02  0.88107315667E+02  0.00000000000E+00 0. -1.
</event>
<event>
 4    1  0.3767413E+003  0.5001159E+02  0.7546771E-02  0.1298122E+00
          2   -1    0    0  502    0  0.00000000000E+00  0.00000000000E+00  0.20060949734E+04  0.20060949734E+04  0.00000000000E+00 0.  1.
          1   -1    0    0  501    0 -0.00000000000E+00 -0.00000000000E+00 -0.53115758431E+01  0.53115758431E+01  0.00000000000E+00 0.  1.
          2    1    1    2  501    0 -0.17895520366E+02 -0.46700213358E+02  0.18801786708E+04  0.18808436920E+04  0.00000000000E+00 0.  1.
          1    1    1    2  502    0  0.17895520366E+02  0.46700213358E+02  0.12060472674E+03  0.13056285723E+03  0.00000000000E+00 0.  1.
</event>
<event>
 4    1  0.3767413E+003  0.3344986E+02  0.7546771E-02  0.1391801E+00
          2   -1    0    0  502    0  0.00000000000E+00  0.00000000000E+00  0.86727389274E+03  0.86727389274E+03  0.00000000000E+00 0.  1.
          1   -1    0    0  501    0 -0.00000000000E+00 -0.00000000000E+00 -0.16560490228E+02  0.16560490228E+02  0.00000000000E+00 0.  1.
          2    1    1    2  501    0  0.71853604102E+01  0.32669005448E+02  0.84971137386E+03  0.85036951509E+03  0.00000000000E+00 0.  1.
          1    1    1    2  502    0 -0.71853604102E+01 -0.32669005448E+02  0.10020286549E+01  0.33464867885E+02  0.00000000000E+00 0.  1.
</event>
<event>
 4    1  0.3767413E+003  0.2209705E+02  0.7546771E-02  0.1504159E+00
          2   -1    0    0  502    0  0.00000000000E+00  0.00000000000E+00  0.90210461081E+02  0.90210461081E+02  0.00000000000E+00 0.  1.
          1   -1    0    0  501    0 -0.00000000000E+00 -0.00000000000E+00 -0.25056443474E+02  0.25056443474E+02  0.00000000000E+00 0.  1.
          2    1    1    2  501    0  0.18330737854E+02 -0.12339513755E+02  0.83607220330E+02  0.86478013630E+02  0.00000000000E+00 0.  1.
          1    1    1    2  502    0 -0.18330737854E+02  0.12339513755E+02 -0.18453202723E+02  0.28788890925E+02  0.00000000000E+00 0.  1.
</event>
<event>
 4    1  0.3767413E+003  0.6425988E+02  0.7546771E-02  0.1246008E+00
          2   -1    0    0  502    0  0.00000000000E+00  0.00000000000E+00  0.10720010862E+02  0.10720010862E+02  0.00000000000E+00 0. -1.
          1   -1    0    0  501    0 -0.00000000000E+00 -0.00000000000E+00 -0.28876219835E+04  0.28876219835E+04  0.00000000000E+00 0.  1.
          2    1    1    2  501    0 -0.37580923783E+02  0.52124905676E+02 -0.89395316977E+02  0.11009475156E+03  0.00000000000E+00 0. -1.
          1    1    1    2  502    0  0.37580923783E+02 -0.52124905676E+02 -0.27875066557E+04  0.27882472428E+04  0.00000000000E+00 0.  1.
</event>
<event>
 4    1  0.3767413E+003  0.3193032E+02  0.7546771E-02  0.1403532E+00
          2   -1    0    0  502    0  0.00000000000E+00  0.00000000000E+00  0.63507293876E+02  0.63507293876E+02  0.00000000000E+00 0. -1.
          1   -1    0    0  501    0 -0.00000000000E+00 -0.00000000000E+00 -0.23595662540E+03  0.23595662540E+03  0.00000000000E+00 0. -1.
          2    1    1    2  501    0  0.17382045044E+00 -0.31929847838E+02  0.58323850585E+02  0.66492232205E+02  0.00000000000E+00 0. -1.
          1    1    1    2  502    0 -0.17382045044E+00  0.31929847838E+02 -0.23077318211E+03  0.23297168707E+03  0.00000000000E+00 0. -1.
</event>
<event>
 4    1  0.3767413E+003  0.2122102E+02  0.7546771E-02  0.1516133E+00
          2   -1    0    0  502    0  0.00000000000E+00  0.00000000000E+00  0.40031406827E+03  0.40031406827E+03  0.00000000000E+00 0. -1.
          1   -1    0    0  501    0 -0.00000000000E+00 -0.00000000000E+00 -0.20462776544E+01  0.20462776544E+01  0.00000000000E+00 0.  1.
          2    1    1    2  501    0  0.15749462249E+02  0.14222734311E+02  0.33412678042E+03  0.33479999571E+03  0.00000000000E+00 0. -1.
          1    1    1    2  502    0 -0.15749462249E+02 -0.14222734311E+02  0.64141010194E+02  0.67560350214E+02  0.00000000000E+00 0.  1.
</event>
<event>
 4    1  0.3767413E+003  0.5623339E+02  0.7546771E-02  0.1273197E+00
          2   -1    0    0  502    0  0.00000000000E+00  0.00000000000E+00  0.48838028803E+03  0.48838028803E+03  0.00000000000E+00 0. -1.
          1   -1    0    0  501    0 -0.00000000000E+00 -0.00000000000E+00 -0.73326352701E+01  0.73326352701E+01  0.00000000000E+00 0.  1.
          2    1    1    2  501    0 -0.33419120252E+02  0.45225615788E+02  0.32529671866E+03  0.33012141569E+03  0.00000000000E+00 0. -1.
          1    1    1    2  502    0  0.33419120252E+02 -0.45225615788E+02  0.15575093410E+03  0.16559150761E+03  0.00000000000E+00 0.  1.
</event>
<event>
 4    1  0.3767413E+003  0.4032173E+02  0.7546771E-02  0.1346611E+00
          2   -1    0    0  502    0  0.00000000000E+00  0.00000000000E+00  0.26873285703E+04  0.26873285703E+04  0.00000000000E+00 0. -1.
          1   -1    0    0  501    0 -0.00000000000E+00 -0.00000000000E+00 -0.34096422113E+01  0.34096422113E+01  0.00000000000E+00 0.  1.
          2    1    1    2  501    0 -0.40120198981E+02 -0.40263443513E+01  0.25621440880E+04  0.25624613498E+04  0.00000000000E+00 0. -1.
          1    1    1    2  502    0  0.40120198981E+02  0.40263443513E+01  0.12177484010E+03  0.12827686267E+03  0.00000000000E+00 0.  1.
</event>
<event>
 4    1  0.3767413E+003  0.4001509E+02  0.7546771E-02  0.1348397E+00
          2   -1    0    0  502    0  0.00000000000E+00  0.00000000000E+00  0.40090054103E+02  0.40090054103E+02  0.00000000000E+00 0.  1.
          1   -1    0    0  501    0 -0.00000000000E+00 -0.00000000000E+00 -0.61024178277E+03  0.61024178277E+03  0.00000000000E+00 0. -1.
          2    1    1    2  501    0 -0.10989437105E+02 -0.38476483281E+02  0.29268958665E+02  0.49577005102E+02  0.00000000000E+00 0.  1.
          1    1    1    2  502    0  0.10989437105E+02  0.38476483281E+02 -0.59942068733E+03  0.60075483177E+03  0.00000000000E+00 0. -1.
</event>
<event>
 4    1  0.3767413E+003  0.2454594E+02  0.7546771E-02  0.1473948E+00
          2   -1    0    0  502    0  0.00000000000E+00  0.00000000000E+00  0.19005815075E+01  0.19005815075E+01  0.00000000000E+00 0.  1.
          1   -1    0    0  501    0 -0.00000000000E+00 -0.00000000000E+00 -0.40972358973E+03  0.40972358973E+03  0.00000000000E+00 0.  1.
          2    1    1    2  501    0 -0.12759114926E+02 -0.20969214365E+02 -0.10600815368E+03  0.10881282834E+03  0.00000000000E+00 0.  1.
          1    1    1    2  502    0  0.12759114926E+02  0.20969214365E+02 -0.30181485454E+03  0.30281134290E+03  0.00000000000E+00 0.  1.
</event>
<event>
 4    1  0.3767413E+003  0.4426652E+02  0.7546771E-02  0.1325148E+00
          2   -1    0    0  502    0  0.00000000000E+00  0.00000000000E+00  0.10990389832E+04  0.10990389832E+04  0.00000000000E+00 0. -1.
          1   -1    0    0  501    0 -0.00000000000E+00 -0.00000000000E+00 -0.38009353382E+01  0.38009353382E+01  0.00000000000E+00 0. -1.
          2    1    1    2  501    0  0.27427885706E+02 -0.34745295109E+02  0.94940700421E+03  0.95043841678E+03  0.00000000000E+00 0. -1.
          1    1    1    2  502    0 -0.27427885706E+02  0.34745295109E+02  0.14583104370E+03  0.15240150181E+03  0.00000000000E+00 0. -1.
</event>
<event>
 4    1  0.3767413E+003  0.2770426E+02  0.7546771E-02  0.1440659E+00
          2   -1    0    0  502    0  0.00000000000E+00  0.00000000000E+00  0.94857468853E+03  0.94857468853E+03  0.00000000000E+00 0. -1.
          1   -1    0    0  501    0 -0.00000000000E+00 -0.00000000000E+00 -0.33236325066E+02  0.33236325066E+02  0.00000000000E+00 0. -1.
          2    1    1    2  501    0  0.24049976440E+02 -0.13752262961E+02  0.94256233910E+03  0.94296939993E+03  0.00000000000E+00 0. -1.
          1    1    1    2  502    0 -0.24049976440E+02  0.13752262961E+02 -0.27223975635E+02  0.38841613673E+02  0.00000000000E+00 0. -1.
</event>
<event>
 4    1  0.3767413E+003  0.2776833E+02  0.7546771E-02  0.1440039E+00
          2   -1    0    0  502    0  0.00000000000E+00  0.00000000000E+00  0.19313354772E+01  0.19313354772E+01  0.00000000000E+00 0. -1.
          1   -1    0    0  501    0 -0.00000000000E+00 -0.00000000000E+00 -0.59528621385E+03  0.59528621385E+03  0.00000000000E+00 0. -1.
          2    1    1    2  501    0  0.25087006728E+02  0.11904711730E+02 -0.12531681714E+03  0.12835647520E+03  0.00000000000E+00 0. -1.
          1    1    1    2  502    0 -0.25087006728E+02 -0.11904711730E+02 -0.46803806124E+03  0.46886107413E+03  0.00000000000E+00 0. -1.
</event>
<event>
 4    1  0.3767413E+003  0.2081239E+02  0.7546771E-02  0.1521960E+00
          2   -1    0    0  502    0  0.00000000000E+00  0.00000000000E+00  0.23527207196E+01  0.23527207196E+01  0.00000000000E+00 0. -1.
          1   -1    0    0  501    0 -0.00000000000E+00 -0.00000000000E+00 -0.19427802995E+03  0.19427802995E+03  0.00000000000E+00 0. -1.
          2    1    1    2  501    0  0.12850863646E+01 -0.20772677950E+02 -0.73468864651E+02  0.76359869495E+02  0.00000000000E+00 0. -1.
          1    1    1    2  502    0 -0.12850863646E+01  0.20772677950E+02 -0.11845644458E+03  0.12027088118E+03  0.00000000000E+00 0. -1.
</event>
<event>
 4    1  0.3767413E+003  0.2030521E+02  0.7546771E-02  0.1529420E+00
          2   -1    0    0  502    0  0.00000000000E+00  0.00000000000E+00  0.68080750647E+03  0.68080750647E+03  0.00000000000E+00 0. -1.
          1   -1    0    0  501    0 -0.00000000000E+00 -0.00000000000E+00 -0.84614320348E+00  0.84614320348E+00  0.00000000000E+00 0.  1.
          2    1    1    2  501    0 -0.47611422275E+01  0.19739125122E+02  0.52170054369E+03  0.52209554569E+03  0.00000000000E+00 0. -1.
          1    1    1    2  502    0  0.47611422275E+01 -0.19739125122E+02  0.15826081958E+03  0.15955810399E+03  0.00000000000E+00 0.  1.
</event>
<event>
 4    1  0.3767413E+003  0.2153588E+02  0.7546771E-02  0.1511750E+00
          2   -1    0    0  502    0  0.00000000000E+00  0.00000000000E+00  0.73341484596E+01  0.73341484596E+01  0.00000000000E+00 0.  1.
          1   -1    0    0  501    0 -0.00000000000E+00 -0.00000000000E+00 -0.96816603084E+02  0.96816603084E+02  0.00000000000E+00 0.  1.
          2    1    1    2  501    0 -0.76698056212E+01 -0.20123818586E+02 -0.14072810963E+02  0.25726212336E+02  0.00000000000E+00 0.  1.
          1    1    1    2  502    0  0.76698056212E+01  0.20123818586E+02 -0.75409643662E+02  0.78424539208E+02  0.00000000000E+00 0.  1.
</event>
<event>
 4    1  0.3767413E+003  0.2334283E+02  0.7546771E-02  0.1488238E+00
          2   -1    0    0  502    0  0.00000000000E+00  0.00000000000E+00  0.46759458223E+03  0.46759458223E+03  0.00000000000E+00 0.  1.
          1   -1    0    0  501    0 -0.00000000000E+00 -0.00000000000E+00 -0.45896356616E+01  0.45896356616E+01  0.00000000000E+00 0.  1.
          2    1    1    2  501    0  0.12921765172E+02 -0.19440048630E+02  0.43543222608E+03  0.43605746297E+03  0.00000000000E+00 0.  1.
          1    1    1    2  502    0 -0.12921765172E+02  0.19440048630E+02  0.27572720494E+02  0.36126754924E+02  0.00000000000E+00 0.  1.
</event>
<event>
 4    1  0.3767413E+003  0.2694405E+02  0.7546771E-02  0.1448171E+00
          2   -1    0    0  502    0  0.00000000000E+00  0.00000000000E+00  0.77281988285E+03  0.77281988285E+03  0.00000000000E+00 0.  1.
          1   -1    0    0  501    0 -0.00000000000E+00 -0.00000000000E+00 -0.11991762395E+01  0.11991762395E+01  0.00000000000E+00 0.  1.
          2    1    1    2  501    0  0.49729478671E+00  0.26939462039E+02  0.56594006752E+03  0.56658109918E+03  0.00000000000E+00 0.  1.
          1    1    1    2  502    0 -0.49729478671E+00 -0.26939462039E+02  0.20568063909E+03  0.20743795991E+03  0.00000000000E+00 0.  1.
</event>
<event>
 4    1  0.3767413E+003  0.2492295E+02  0.7546771E-02  0.1469667E+00
          2   -1    0    0  502    0  0.00000000000E+00  0.00000000000E+00  0.48928744889E+00  0.48928744889E+00  0.00000000000E+00 0.  1.
          1   -1    0    0  501    0 -0.00000000000E+00 -0.00000000000E+00 -0.13866575703E+04  0.13866575703E+04  0.00000000000E+00 0.  1.
          2    1    1    2  501    0 -0.14821568600E+02  0.20036829384E+02 -0.49148828352E+03  0.49211978853E+03  0.00000000000E+00 0.  1.
          1    1    1    2  502    0  0.14821568600E+02 -0.20036829384E+02 -0.89467999932E+03  0.89502706921E+03  0.00000000000E+00 0.  1.
</event>
<event>
 4    1  0.3767413E+003  0.2953843E+02  0.7546771E-02  0.1423650E+00
          2   -1    0    0  502    0  0.00000000000E+00  0.00000000000E+00  0.18661818473E+04  0.18661818473E+04  0.00000000000E+00 0.  1.
          1   -1    0    0  501    0 -0.00000000000E+00 -0.00000000000E+00 -0.71863758980E+02  0.71863758980E+02  0.00000000000E+00 0.  1.
          2    1    1    2  501    0 -0.60862918554E+00 -0.29532155153E+02  0.18630244959E+04  0.18632586485E+04  0.00000000000E+00 0.  1.
          1    1    1    2  502    0  0.60862918554E+00  0.29532155153E+02 -0.68706407596E+02  0.74786957835E+02  0.00000000000E+00 0.  1.
</event>
<event>
 4    1  0.3767413E+003  0.2273186E+02  0.7546771E-02  0.1495893E+00
          2   -1    0    0  502    0  0.00000000000E+00  0.00000000000E+00  0.24823799447E+03  0.24823799447E+03  0.00000000000E+00 0. -1.
          1   -1    0    0  501    0 -0.00000000000E+00 -0.00000000000E+00 -0.78049398170E+02  0.78049398170E+02  0.00000000000E+00 0. -1.
          2    1    1    2  501    0  0.21499453815E+02  0.73831417554E+01  0.24604772568E+03  0.24709556978E+03  0.00000000000E+00 0. -1.
          1    1    1    2  502    0 -0.21499453815E+02 -0.73831417554E+01 -0.75859129379E+02  0.79191822852E+02  0.00000000000E+00 0. -1.
</event>
<event>
 4    1  0.3767413E+003  0.2234932E+02  0.7546771E-02  0.1500834E+00
          2   -1    0    0  502    0  0.00000000000E+00  0.00000000000E+00  0.18356234759E+04  0.18356234759E+04  0.00000000000E+00 0. -1.
          1   -1    0    0  501    0 -0.00000000000E+00 -0.00000000000E+00 -0.27430414543E+00  0.27430414543E+00  0.00000000000E+00 0.  1.
          2    1    1    2  501    0 -0.21574008453E+02  0.58356134424E+01  0.99976569967E+03  0.10000154731E+04  0.00000000000E+00 0. -1.
          1    1    1    2  502    0  0.21574008453E+02 -0.58356134424E+01  0.83558347210E+03  0.83588230695E+03  0.00000000000E+00 0.  1.
</event>
<event>
 4    1  0.3767413E+003  0.3249732E+02  0.7546771E-02  0.1399067E+00
          2   -1    0    0  502    0  0.00000000000E+00  0.00000000000E+00  0.12918864275E+03  0.12918864275E+03  0.00000000000E+00 0.  1.
          1   -1    0    0  501    0 -0.00000000000E+00 -0.00000000000E+00 -0.59856616892E+03  0.59856616892E+03  0.00000000000E+00 0.  1.
          2    1    1    2  501    0  0.54714639052E+01 -0.32033405447E+02  0.12669534463E+03  0.13079673670E+03  0.00000000000E+00 0.  1.
          1    1    1    2  502    0 -0.54714639052E+01  0.32033405447E+02 -0.59607287079E+03  0.59695807498E+03  0.00000000000E+00 0.  1.
</event>
<event>
 4    1  0.3767413E+003  0.3320720E+02  0.7546771E-02  0.1393625E+00
          2   -1    0    0  502    0  0.00000000000E+00  0.00000000000E+00  0.60886021569E+03  0.60886021569E+03  0.00000000000E+00 0.  1.
          1   -1    0    0  501    0 -0.00000000000E+00 -0.00000000000E+00 -0.14346963809E+04  0.14346963809E+04  0.00000000000E+00 0. -1.
          2    1    1    2  501    0  0.30888140805E+02 -0.12191829667E+02  0.60821508062E+03  0.60912092580E+03  0.00000000000E+00 0.  1.
          1    1    1    2  502    0 -0.30888140805E+02  0.12191829667E+02 -0.14340512459E+04  0.14344356708E+04  0.00000000000E+00 0. -1.
</event>
<event>
 4    1  0.3767413E+003  0.2046480E+02  0.7546771E-02  0.1527045E+00
          2   -1    0    0  502    0  0.00000000000E+00  0.00000000000E+00  0.81786019134E+03  0.81786019134E+03  0.00000000000E+00 0. -1.
          1   -1    0    0  501    0 -0.00000000000E+00 -0.00000000000E+00 -0.32346875531E+01  0.32346875531E+01  0.00000000000E+00 0. -1.
          2    1    1    2  501    0  0.20436532604E+02 -0.10752409416E+01  0.78396440766E+03  0.78423147124E+03  0.00000000000E+00 0. -1.
          1    1    1    2  502    0 -0.20436532604E+02  0.10752409416E+01  0.30661096126E+02  0.36863407651E+02  0.00000000000E+00 0. -1.
</event>
<event>
 4    1  0.3767413E+003  0.2191388E+02  0.7546771E-02  0.1506606E+00
          2   -1    0    0  502    0  0.00000000000E+00  0.00000000000E+00  0.76157315725E+02  0.76157315725E+02  0.00000000000E+00 0.  1.
          1   -1    0    0  501    0 -0.00000000000E+00 -0.00000000000E+00 -0.19108198435E+03  0.19108198435E+03  0.00000000000E+00 0.  1.
          2    1    1    2  501    0  0.15048064948E+02 -0.15930276553E+02  0.73934131709E+02  0.77113382764E+02  0.00000000000E+00 0.  1.
          1    1    1    2  502    0 -0.15048064948E+02  0.15930276553E+02 -0.18885880033E+03  0.19012591731E+03  0.00000000000E+00 0.  1.
</event>
<event>
 4    1  0.3767413E+003  0.2125944E+02  0.7546771E-02  0.1515593E+00
          2   -1    0    0  502    0  0.00000000000E+00  0.00000000000E+00  0.14527810247E+03  0.14527810247E+03  0.00000000000E+00 0.  1.
          1   -1    0    0  501    0 -0.00000000000E+00 -0.00000000000E+00 -0.73743828273E+03  0.73743828273E+03  0.00000000000E+00 0. -1.
          2    1    1    2  501    0 -0.11901934098E+02 -0.17615551991E+02  0.14434614158E+03  0.14590329776E+03  0.00000000000E+00 0.  1.
          1    1    1    2  502    0  0.11901934098E+02  0.17615551991E+02 -0.73650632184E+03  0.73681308744E+03  0.00000000000E+00 0. -1.
</event>
<event>
 4    1  0.3767413E+003  0.2479097E+02  0.7546771E-02  0.1471155E+00
          2   -1    0    0  502    0  0.00000000000E+00  0.00000000000E+00  0.18108730671E+02  0.18108730671E+02  0.00000000000E+00 0.  1.
          1   -1    0    0  501    0 -0.00000000000E+00 -0.00000000000E+00 -0.44605926091E+02  0.44605926091E+02  0.00000000000E+00 0.  1.
          2    1    1    2  501    0  0.25143902970E+01  0.24663134832E+02  0.20856412879E+01  0.24878550559E+02  0.00000000000E+00 0.  1.
          1    1    1    2  502    0 -0.25143902970E+01 -0.24663134832E+02 -0.28582836708E+02  0.37836106203E+02  0.00000000000E+00 0.  1.
</event>
<event>
 4    1  0.3767413E+003  0.6059654E+02  0.7546771E-02  0.1257819E+00
          2   -1    0    0  502    0  0.00000000000E+00  0.00000000000E+00  0.18023146780E+04  0.18023146780E+04  0.00000000000E+00 0. -1.
          1   -1    0    0  501    0 -0.00000000000E+00 -0.00000000000E+00 -0.11342288713E+03  0.11342288713E+03  0.00000000000E+00 0. -1.
          2    1    1    2  501    0 -0.60528283156E+02 -0.28753495252E+01  0.17936728846E+04  0.17946961742E+04  0.00000000000E+00 0. -1.
          1    1    1    2  502    0  0.60528283156E+02  0.28753495252E+01 -0.10478109378E+03  0.12104139090E+03  0.00000000000E+00 0. -1.
</event>
<event>
 4    1  0.3767413E+003  0.3060247E+02  0.7546771E-02  0.1414432E+00
          2   -1    0    0  502    0  0.00000000000E+00  0.00000000000E+00  0.89962179238E+03  0.89962179238E+03  0.00000000000E+00 0. -1.
          1   -1    0    0  501    0 -0.00000000000E+00 -0.00000000000E+00 -0.10451058920E+01  0.10451058920E+01  0.00000000000E+00 0. -1.
          2    1    1    2  501    0 -0.29293346555E+02 -0.88549521863E+01  0.42107725040E+03  0.42218782684E+03  0.00000000000E+00 0. -1.
          1    1    1    2  502    0  0.29293346555E+02  0.88549521863E+01  0.47749943609E+03  0.47847907143E+03  0.00000000000E+00 0. -1.
</event>
<event>
 4    1  0.3767413E+003  0.2623387E+02  0.7546771E-02  0.1455460E+00
          2   -1    0    0  502    0  0.00000000000E+00  0.00000000000E+00  0.18925252837E+03  0.18925252837E+03  0.00000000000E+00 0. -1.
          1   -1    0    0  501    0 -0.00000000000E+00 -0.00000000000E+00 -0.18576689163E+02  0.18576689163E+02  0.00000000000E+00 0. -1.
          2    1    1    2  501    0  0.21306369641E+02  0.15305374920E+02  0.17852818945E+03  0.18044536657E+03  0.00000000000E+00 0. -1.
          1    1    1    2  502    0 -0.21306369641E+02 -0.15305374920E+02 -0.78523502495E+01  0.27383850956E+02  0.00000000000E+00 0. -1.
</event>
<event>
 4    1  0.3767413E+003  0.2066605E+02  0.7546771E-02  0.1524087E+00
          2   -1    0    0  502    0  0.00000000000E+00  0.00000000000E+00  0.54641253120E+03  0.54641253120E+03  0.00000000000E+00 0. -1.
          1   -1    0    0  501    0 -0.00000000000E+00 -0.00000000000E+00 -0.12607959619E+01  0.12607959619E+01  0.00000000000E+00 0. -1.
          2    1    1    2  501    0  0.20332703528E+02  0.36968724166E+01  0.44139347868E+03  0.44187700633E+03  0.00000000000E+00 0. -1.
          1    1    1    2  502    0 -0.20332703528E+02 -0.36968724166E+01  0.10375825656E+03  0.10579632083E+03  0.00000000000E+00 0. -1.
</event>
<event>
 4    1  0.3767413E+003  0.2116751E+02  0.7546771E-02  0.1516887E+00
          2   -1    0    0  502    0  0.00000000000E+00  0.00000000000E+00  0.87125461960E+01  0.87125461960E+01  0.00000000000E+00 0.  1.
          1   -1    0    0  501    0 -0.00000000000E+00 -0.00000000000E+00 -0.79800721309E+03  0.79800721309E+03  0.00000000000E+00 0.  1.
          2    1    1    2  501    0  0.14551063829E+02  0.15373025030E+02 -0.45010988958E+01  0.21640777445E+02  0.00000000000E+00 0.  1.
          1    1    1    2  502    0 -0.14551063829E+02 -0.15373025030E+02 -0.78479356800E+03  0.78507898184E+03  0.00000000000E+00 0.  1.
</event>
<event>
 4    1  0.3767413E+003  0.2114420E+02  0.7546771E-02  0.1517216E+00
          2   -1    0    0  502    0  0.00000000000E+00  0.00000000000E+00  0.30960769368E+02  0.30960769368E+02  0.00000000000E+00 0. -1.
          1   -1    0    0  501    0 -0.00000000000E+00 -0.00000000000E+00 -0.20277672246E+02  0.20277672246E+02  0.00000000000E+00 0. -1.
          2    1    1    2  501    0 -0.72320636893E+01  0.19868929507E+02  0.19087423921E+02  0.28485204175E+02  0.00000000000E+00 0. -1.
          1    1    1    2  502    0  0.72320636893E+01 -0.19868929507E+02 -0.84043267994E+01  0.22753237438E+02  0.00000000000E+00 0. -1.
</event>
<event>
 4    1  0.3767413E+003  0.2498446E+02  0.7546771E-02  0.1468977E+00
          2   -1    0    0  502    0  0.00000000000E+00  0.00000000000E+00  0.29832201505E+02  0.29832201505E+02  0.00000000000E+00 0. -1.
          1   -1    0    0  501    0 -0.00000000000E+00 -0.00000000000E+00 -0.77973237967E+02  0.77973237967E+02  0.00000000000E+00 0. -1.
          2    1    1    2  501    0 -0.24191479263E+02 -0.62446113126E+01 -0.70176900855E+02  0.74491746207E+02  0.00000000000E+00 0. -1.
          1    1    1    2  502    0  0.24191479263E+02  0.62446113126E+01  0.22035864393E+02  0.33313693264E+02  0.00000000000E+00 0. -1.
</event>
<event>
 4    1  0.3767413E+003  0.2535526E+02  0.7546771E-02  0.1464868E+00
          2   -1    0    0  502    0  0.00000000000E+00  0.00000000000E+00  0.13742467568E+02  0.13742467568E+02  0.00000000000E+00 0.  1.
          1   -1    0    0  501    0 -0.00000000000E+00 -0.00000000000E+00 -0.56819524319E+03  0.56819524319E+03  0.00000000000E+00 0.  1.
          2    1    1    2  501    0 -0.10569420339E+02 -0.23047269603E+02  0.15070465560E+01  0.25400009287E+02  0.00000000000E+00 0.  1.
          1    1    1    2  502    0  0.10569420339E+02  0.23047269603E+02 -0.55595982218E+03  0.55653770147E+03  0.00000000000E+00 0.  1.
</event>
<event>
 4    1  0.3767413E+003  0.2403533E+02  0.7546771E-02  0.1479891E+00
          2   -1    0    0  502    0  0.00000000000E+00  0.00000000000E+00  0.12145694697E+03  0.12145694697E+03  0.00000000000E+00 0. -1.
          1   -1    0    0  501    0 -0.00000000000E+00 -0.00000000000E+00 -0.45852556812E+02  0.45852556812E+02  0.00000000000E+00 0. -1.
          2    1    1    2  501    0 -0.24034438003E+02 -0.20763780284E+00  0.11699932868E+03  0.11944262319E+03  0.00000000000E+00 0. -1.
          1    1    1    2  502    0  0.24034438003E+02  0.20763780284E+00 -0.41394938514E+02  0.47866880598E+02  0.00000000000E+00 0. -1.
</event>
<event>
 4    1  0.3767413E+003  0.2559580E+02  0.7546771E-02  0.1462247E+00
          2   -1    0    0  502    0  0.00000000000E+00  0.00000000000E+00  0.17144478478E+01  0.17144478478E+01  0.00000000000E+00 0. -1.
          1   -1    0    0  501    0 -0.00000000000E+00 -0.00000000000E+00 -0.52711293458E+03  0.52711293458E+03  0.00000000000E+00 0. -1.
          2    1    1    2  501    0 -0.12824014141E+02 -0.22151513701E+02 -0.12402750006E+03  0.12664108997E+03  0.00000000000E+00 0. -1.
          1    1    1    2  502    0  0.12824014141E+02  0.22151513701E+02 -0.40137098667E+03  0.40218629246E+03  0.00000000000E+00 0. -1.
</event>
<event>
 4    1  0.3767413E+003  0.2851892E+02  0.7546771E-02  0.1432919E+00
          2   -1    0    0  502    0  0.00000000000E+00  0.00000000000E+00  0.30672639762E+03  0.30672639762E+03  0.00000000000E+00 0.  1.
          1   -1    0    0  501    0 -0.00000000000E+00 -0.00000000000E+00 -0.21283189529E+02  0.21283189529E+02  0.00000000000E+00 0. -1.
          2    1    1    2  501    0 -0.66359313567E+01 -0.27736134613E+02  0.29617010295E+03  0.29754001181E+03  0.00000000000E+00 0.  1.
          1    1    1    2  502    0  0.66359313567E+01  0.27736134613E+02 -0.10726894854E+02  0.30469575341E+02  0.00000000000E+00 0. -1.
</event>
<event>
 4    1  0.3767413E+003  0.2384309E+02  0.7546771E-02  0.1482174E+00
          2   -1    0    0  502    0  0.00000000000E+00  0.00000000000E+00  0.68798407899E+01  0.68798407899E+01  0.00000000000E+00 0.  1.
          1   -1    0    0  501    0 -0.00000000000E+00 -0.00000000000E+00 -0.16300444645E+03  0.16300444645E+03  0.00000000000E+00 0. -1.
          2    1    1    2  501    0 -0.16347365687E+02 -0.17356750442E+02 -0.18416785065E+02  0.30127580768E+02  0.00000000000E+00 0.  1.
          1    1    1    2  502    0  0.16347365687E+02  0.17356750442E+02 -0.13770782060E+03  0.13975670648E+03  0.00000000000E+00 0. -1.
</event>
<event>
 4    1  0.3767413E+003  0.2029228E+02  0.7546771E-02  0.1529614E+00
          2   -1    0    0  502    0  0.00000000000E+00  0.00000000000E+00  0.13400221340E+04  0.13400221340E+04  0.00000000000E+00 0. -1.
          1   -1    0    0  501    0 -0.00000000000E+00 -0.00000000000E+00 -0.52614800191E+00  0.52614800191E+00  0.00000000000E+00 0. -1.
          2    1    1    2  501    0 -0.15012135738E+02  0.13653291921E+02  0.11020416168E+04  0.11022284254E+04  0.00000000000E+00 0. -1.
          1    1    1    2  502    0  0.15012135738E+02 -0.13653291921E+02  0.23745436919E+03  0.23831985659E+03  0.00000000000E+00 0. -1.
</event>
<event>
 4    1  0.3767413E+003  0.2421603E+02  0.7546771E-02  0.1477768E+00
          2   -1    0    0  502    0  0.00000000000E+00  0.00000000000E+00  0.39966871940E+02  0.39966871940E+02  0.00000000000E+00 0. -1.
          1   -1    0    0  501    0 -0.00000000000E+00 -0.00000000000E+00 -0.14122214218E+04  0.14122214218E+04  0.00000000000E+00 0. -1.
          2    1    1    2  501    0 -0.23546869269E+02  0.56534322722E+01  0.36185072231E+02  0.43540507590E+02  0.00000000000E+00 0. -1.
          1    1    1    2  502    0  0.23546869269E+02 -0.56534322722E+01 -0.14084396221E+04  0.14086477862E+04  0.00000000000E+00 0. -1.
</event>
<event>
 4    1  0.3767413E+003  0.2468778E+02  0.7546771E-02  0.1472327E+00
          2   -1    0    0  502    0  0.00000000000E+00  0.00000000000E+00  0.12883879579E+03  0.12883879579E+03  0.00000000000E+00 0. -1.
          1   -1    0    0  501    0 -0.00000000000E+00 -0.00000000000E+00 -0.55976758993E+01  0.55976758993E+01  0.00000000000E+00 0. -1.
          2    1    1    2  501    0  0.41879002692E+01  0.24329982536E+02  0.88075597857E+02  0.91470200048E+02  0.00000000000E+00 0. -1.
          1    1    1    2  502    0 -0.41879002692E+01 -0.24329982536E+02  0.35165522033E+02  0.42966271641E+02  0.00000000000E+00 0. -1.
</event>
<event>
 4    1  0.3948516E+003  0.2760670E+02  0.7546771E-02  0.1441607E+00
          2   -1    0    0  502    0  0.00000000000E+00  0.00000000000E+00  0.57754816237E+03  0.57754816237E+03  0.00000000000E+00 0. -1.
          1   -1    0    0  501    0 -0.00000000000E+00 -0.00000000000E+00 -0.60903016907E+03  0.60903016907E+03  0.00000000000E+00 0. -1.
          2    1    1    2  501    0 -0.22164686751E+02 -0.16457727579E+02  0.57690506907E+03  0.57756522476E+03  0.00000000000E+00 0. -1.
          1    1    1    2  502    0  0.22164686751E+02  0.16457727579E+02 -0.60838707577E+03  0.60901310668E+03  0.00000000000E+00 0. -1.
</event>
<event>
 4    1  0.3767413E+003  0.4992482E+02  0.7546771E-02  0.1298499E+00
          2   -1    0    0  502    0  0.00000000000E+00  0.00000000000E+00  0.21815151261E+04  0.21815151261E+04  0.00000000000E+00 0. -1.
          1   -1    0    0  501    0 -0.00000000000E+00 -0.00000000000E+00 -0.29687521967E+01  0.29687521967E+01  0.00000000000E+00 0. -1.
          2    1    1    2  501    0 -0.45117702773E+01  0.49720507922E+02  0.23261694428E+03  0.23791411842E+03  0.00000000000E+00 0. -1.
          1    1    1    2  502    0  0.45117702773E+01 -0.49720507922E+02  0.19459294296E+04  0.19465697599E+04  0.00000000000E+00 0. -1.
</event>
<event>
 4    1  0.3767413E+003  0.2273794E+02  0.7546771E-02  0.1495815E+00
          2   -1    0    0  502    0  0.00000000000E+00  0.00000000000E+00  0.24905136852E+02  0.24905136852E+02  0.00000000000E+00 0. -1.
          1   -1    0    0  501    0 -0.00000000000E+00 -0.00000000000E+00 -0.14868851433E+04  0.14868851433E+04  0.00000000000E+00 0.  1.
          2    1    1    2  501    0 -0.19626505362E+02 -0.11481030559E+02  0.19609829416E+02  0.30025975173E+02  0.00000000000E+00 0. -1.
          1    1    1    2  502    0  0.19626505362E+02  0.11481030559E+02 -0.14815898359E+04  0.14817643050E+04  0.00000000000E+00 0.  1.
</event>
<event>
 4    1  0.3767413E+003  0.3813506E+02  0.7546771E-02  0.1359775E+00
          2   -1    0    0  502    0  0.00000000000E+00  0.00000000000E+00  0.46842769016E+01  0.46842769016E+01  0.00000000000E+00 0.  1.
          1   -1    0    0  501    0 -0.00000000000E+00 -0.00000000000E+00 -0.11077822576E+04  0.11077822576E+04  0.00000000000E+00 0.  1.
          2    1    1    2  501    0 -0.22656575909E+02 -0.30675113571E+02 -0.79652703165E+02  0.88311019392E+02  0.00000000000E+00 0.  1.
          1    1    1    2  502    0  0.22656575909E+02  0.30675113571E+02 -0.10234452775E+04  0.10241555151E+04  0.00000000000E+00 0.  1.
</event>
<event>
 4    1  0.3767413E+003  0.2303641E+02  0.7546771E-02  0.1492042E+00
          2   -1    0    0  502    0  0.00000000000E+00  0.00000000000E+00  0.53198473899E+03  0.53198473899E+03  0.00000000000E+00 0. -1.
          1   -1    0    0  501    0 -0.00000000000E+00 -0.00000000000E+00 -0.10749815410E+01  0.10749815410E+01  0.00000000000E+00 0.  1.
          2    1    1    2  501    0  0.23028399100E+02  0.60728354599E+00  0.33699223371E+03  0.33777868721E+03  0.00000000000E+00 0. -1.
          1    1    1    2  502    0 -0.23028399100E+02 -0.60728354599E+00  0.19391752374E+03  0.19528103331E+03  0.00000000000E+00 0.  1.
</event>
<event>
 4    1  0.3767413E+003  0.2178586E+02  0.7546771E-02  0.1508334E+00
          2   -1    0    0  502    0  0.00000000000E+00  0.00000000000E+00  0.93137657424E+01  0.93137657424E+01  0.00000000000E+00 0.  1.
          1   -1    0    0  501    0 -0.00000000000E+00 -0.00000000000E+00 -0.13669580026E+04  0.13669580026E+04  0.00000000000E+00 0.  1.
          2    1    1    2  501    0 -0.13886074023E+02 -0.16786920185E+02 -0.36347065297E+01  0.22086983330E+02  0.00000000000E+00 0.  1.
          1    1    1    2  502    0  0.13886074023E+02  0.16786920185E+02 -0.13540095304E+04  0.13541847851E+04  0.00000000000E+00 0.  1.
</event>
<event>
 4    1  0.3767413E+003  0.2238466E+02  0.7546771E-02  0.1500373E+00
          2   -1    0    0  502    0  0.00000000000E+00  0.00000000000E+00  0.13237654827E+04  0.13237654827E+04  0.00000000000E+00 0. -1.
          1   -1    0    0  501    0 -0.00000000000E+00 -0.00000000000E+00 -0.43936271381E+01  0.43936271381E+01  0.00000000000E+00 0. -1.
          2    1    1    2  501    0 -0.22308369937E+02  0.18464917438E+01  0.12945153276E+04  0.12947088500E+04  0.00000000000E+00 0. -1.
          1    1    1    2  502    0  0.22308369937E+02 -0.18464917438E+01  0.24856528004E+02  0.33450259871E+02  0.00000000000E+00 0. -1.
</event>
<event>
 4    1  0.3767413E+003  0.2754352E+02  0.7546771E-02  0.1442223E+00
          2   -1    0    0  502    0  0.00000000000E+00  0.00000000000E+00  0.25619070280E+01  0.25619070280E+01  0.00000000000E+00 0. -1.
          1   -1    0    0  501    0 -0.00000000000E+00 -0.00000000000E+00 -0.31691702379E+03  0.31691702379E+03  0.00000000000E+00 0. -1.
          2    1    1    2  501    0  0.20221478401E+01 -0.27469190541E+02 -0.11626236630E+03  0.11948047258E+03  0.00000000000E+00 0. -1.
          1    1    1    2  502    0 -0.20221478401E+01  0.27469190541E+02 -0.19809275046E+03  0.19999845823E+03  0.00000000000E+00 0. -1.
</event>
<event>
 4    1  0.3767413E+003  0.2739668E+02  0.7546771E-02  0.1443664E+00
          2   -1    0    0  502    0  0.00000000000E+00  0.00000000000E+00  0.66812883047E+02  0.66812883047E+02  0.00000000000E+00 0.  1.
          1   -1    0    0  501    0 -0.00000000000E+00 -0.00000000000E+00 -0.14504445938E+04  0.14504445938E+04  0.00000000000E+00 0. -1.
          2    1    1    2  501    0  0.19574077563E+02  0.19168550903E+02  0.63869294753E+02  0.69497227775E+02  0.00000000000E+00 0.  1.
          1    1    1    2  502    0 -0.19574077563E+02 -0.19168550903E+02 -0.14475010055E+04  0.14477602491E+04  0.00000000000E+00 0. -1.
</event>
<event>
 4    1  0.3767413E+003  0.2879969E+02  0.7546771E-02  0.1430322E+00
          2   -1    0    0  502    0  0.00000000000E+00  0.00000000000E+00  0.20793581222E+04  0.20793581222E+04  0.00000000000E+00 0. -1.
          1   -1    0    0  501    0 -0.00000000000E+00 -0.00000000000E+00 -0.56198219316E+02  0.56198219316E+02  0.00000000000E+00 0. -1.
          2    1    1    2  501    0  0.10630007533E+02 -0.26766118720E+02  0.20755619359E+04  0.20757617329E+04  0.00000000000E+00 0. -1.
          1    1    1    2  502    0 -0.10630007533E+02  0.26766118720E+02 -0.52402032924E+02  0.59794608670E+02  0.00000000000E+00 0. -1.
</event>
<event>
 4    1  0.3767413E+003  0.3160331E+02  0.7546771E-02  0.1406157E+00
          2   -1    0    0  502    0  0.00000000000E+00  0.00000000000E+00  0.22055880934E+03  0.22055880934E+03  0.00000000000E+00 0. -1.
          1   -1    0    0  501    0 -0.00000000000E+00 -0.00000000000E+00 -0.43957334262E+03  0.43957334262E+03  0.00000000000E+00 0. -1.
          2    1    1    2  501    0  0.21457979224E+02 -0.23201823071E+02  0.21885428489E+03  0.22112432584E+03  0.00000000000E+00 0. -1.
          1    1    1    2  502    0 -0.21457979224E+02  0.23201823071E+02 -0.43786881817E+03  0.43900782611E+03  0.00000000000E+00 0. -1.
</event>
<event>
 4    1  0.3767413E+003  0.2222439E+02  0.7546771E-02  0.1502474E+00
          2   -1    0    0  502    0  0.00000000000E+00  0.00000000000E+00  0.55595710757E+03  0.55595710757E+03  0.00000000000E+00 0. -1.
          1   -1    0    0  501    0 -0.00000000000E+00 -0.00000000000E+00 -0.19718120507E+01  0.19718120507E+01  0.00000000000E+00 0. -1.
          2    1    1    2  501    0 -0.15118806529E+02 -0.16289415534E+02  0.48377285085E+03  0.48428307279E+03  0.00000000000E+00 0. -1.
          1    1    1    2  502    0  0.15118806529E+02  0.16289415534E+02  0.70212444668E+02  0.73645846832E+02  0.00000000000E+00 0. -1.
</event>
<event>
 4    1  0.3767413E+003  0.3888354E+02  0.7546771E-02  0.1355155E+00
          2   -1    0    0  502    0  0.00000000000E+00  0.00000000000E+00  0.31276958520E+02  0.31276958520E+02  0.00000000000E+00 0.  1.
          1   -1    0    0  501    0 -0.00000000000E+00 -0.00000000000E+00 -0.85950773535E+02  0.85950773535E+02  0.00000000000E+00 0.  1.
          2    1    1    2  501    0  0.24606676944E+02  0.30107166483E+02  0.11436258448E+02  0.40530458068E+02  0.00000000000E+00 0.  1.
          1    1    1    2  502    0 -0.24606676944E+02 -0.30107166483E+02 -0.66110073463E+02  0.76697273987E+02  0.00000000000E+00 0.  1.
</event>
<event>
 4    1  0.3767413E+003  0.2306899E+02  0.7546771E-02  0.1491634E+00
          2   -1    0    0  502    0  0.00000000000E+00  0.00000000000E+00  0.53208581439E+03  0.53208581439E+03  0.00000000000E+00 0. -1.
          1   -1    0    0  501    0 -0.00000000000E+00 -0.00000000000E+00 -0.15932212968E+03  0.15932212968E+03  0.00000000000E+00 0.  1.
          2    1    1    2  501    0 -0.15490651414E+02 -0.17094388882E+02  0.53099899583E+03  0.53149987017E+03  0.00000000000E+00 0. -1.
          1    1    1    2  502    0  0.15490651414E+02  0.17094388882E+02 -0.15823531112E+03  0.15990807390E+03  0.00000000000E+00 0.  1.
</event>
<event>
 4    1  0.3767413E+003  0.2133093E+02  0.7546771E-02  0.1514592E+00
          2   -1    0    0  502    0  0.00000000000E+00  0.00000000000E+00  0.14172227685E+02  0.14172227685E+02  0.00000000000E+00 0. -1.
          1   -1    0    0  501    0 -0.00000000000E+00 -0.00000000000E+00 -0.10195143909E+04  0.10195143909E+04  0.00000000000E+00 0.  1.
          2    1    1    2  501    0 -0.44499519251E+01 -0.20861600924E+02  0.59691447899E+01  0.22150375951E+02  0.00000000000E+00 0. -1.
          1    1    1    2  502    0  0.44499519251E+01  0.20861600924E+02 -0.10113113080E+04  0.10115362427E+04  0.00000000000E+00 0.  1.
</event>
<event>
 4    1  0.3767413E+003  0.2285480E+02  0.7546771E-02  0.1494330E+00
          2   -1    0    0  502    0  0.00000000000E+00  0.00000000000E+00  0.89131961507E+03  0.89131961507E+03  0.00000000000E+00 0. -1.
          1   -1    0    0  501    0 -0.00000000000E+00 -0.00000000000E+00 -0.11635388146E+01  0.11635388146E+01  0.00000000000E+00 0. -1.
          2    1    1    2  501    0  0.20453532353E+02 -0.10197787302E+02  0.75946037353E+03  0.75980418583E+03  0.00000000000E+00 0. -1.
          1    1    1    2  502    0 -0.20453532353E+02  0.10197787302E+02  0.13069570273E+03  0.13267896805E+03  0.00000000000E+00 0. -1.
</event>
<event>
 4    1  0.3767413E+003  0.2302099E+02  0.7546771E-02  0.1492235E+00
          2   -1    0    0  502    0  0.00000000000E+00  0.00000000000E+00  0.21342452078E+03  0.21342452078E+03  0.00000000000E+00 0.  1.
          1   -1    0    0  501    0 -0.00000000000E+00 -0.00000000000E+00 -0.80248187737E+03  0.80248187737E+03  0.00000000000E+00 0. -1.
          2    1    1    2  501    0  0.20503814652E+02  0.10467081002E+02  0.21263802086E+03  0.21388056040E+03  0.00000000000E+00 0.  1.
          1    1    1    2  502    0 -0.20503814652E+02 -0.10467081002E+02 -0.80169537745E+03  0.80202583776E+03  0.00000000000E+00 0. -1.
</event>
<event>
 4    1  0.3767413E+003  0.5435792E+02  0.7546771E-02  0.1280309E+00
          2   -1    0    0  502    0  0.00000000000E+00  0.00000000000E+00  0.46116654473E+03  0.46116654473E+03  0.00000000000E+00 0. -1.
          1   -1    0    0  501    0 -0.00000000000E+00 -0.00000000000E+00 -0.83790050622E+02  0.83790050622E+02  0.00000000000E+00 0.  1.
          2    1    1    2  501    0 -0.48041378922E+02 -0.25432444652E+02  0.45054155885E+03  0.45380885798E+03  0.00000000000E+00 0. -1.
          1    1    1    2  502    0  0.48041378922E+02  0.25432444652E+02 -0.73165064741E+02  0.91147737374E+02  0.00000000000E+00 0.  1.
</event>
<event>
 4    1  0.3767413E+003  0.2527045E+02  0.7546771E-02  0.1465801E+00
          2   -1    0    0  502    0  0.00000000000E+00  0.00000000000E+00  0.11815489593E+04  0.11815489593E+04  0.00000000000E+00 0. -1.
          1   -1    0    0  501    0 -0.00000000000E+00 -0.00000000000E+00 -0.54170824000E+00  0.54170824000E+00  0.00000000000E+00 0.  1.
          2    1    1    2  501    0  0.51162035834E+01  0.24747118698E+02  0.61872622664E+03  0.61924206814E+03  0.00000000000E+00 0. -1.
          1    1    1    2  502    0 -0.51162035834E+01 -0.24747118698E+02  0.56228102438E+03  0.56284859936E+03  0.00000000000E+00 0.  1.
</event>
<event>
 4    1  0.3767413E+003  0.2187600E+02  0.7546771E-02  0.1507116E+00
          2   -1    0    0  502    0  0.00000000000E+00  0.00000000000E+00  0.28534804052E+03  0.28534804052E+03  0.00000000000E+00 0. -1.
          1   -1    0    0  501    0 -0.00000000000E+00 -0.00000000000E+00 -0.47586396546E+01  0.47586396546E+01  0.00000000000E+00 0.  1.
          2    1    1    2  501    0 -0.71228321829E+01  0.20683919840E+02  0.25702126150E+03  0.25795055368E+03  0.00000000000E+00 0. -1.
          1    1    1    2  502    0  0.71228321829E+01 -0.20683919840E+02  0.23568139362E+02  0.32156126496E+02  0.00000000000E+00 0.  1.
</event>
<event>
 4    1  0.3767413E+003  0.2215744E+02  0.7546771E-02  0.1503358E+00
          2   -1    0    0  502    0  0.00000000000E+00  0.00000000000E+00  0.99000774801E+02  0.99000774801E+02  0.00000000000E+00 0. -1.
          1   -1    0    0  501    0 -0.00000000000E+00 -0.00000000000E+00 -0.62675185652E+02  0.62675185652E+02  0.00000000000E+00 0.  1.
          2    1    1    2  501    0 -0.18733720419E+02 -0.11832161568E+02  0.95736790990E+02  0.98267418187E+02  0.00000000000E+00 0. -1.
          1    1    1    2  502    0  0.18733720419E+02  0.11832161568E+02 -0.59411201841E+02  0.63408542266E+02  0.00000000000E+00 0.  1.
</event>
<event>
 4    1  0.3767413E+003  0.2327526E+02  0.7546771E-02  0.1489070E+00
          2   -1    0    0  502    0  0.00000000000E+00  0.00000000000E+00  0.12495073420E+04  0.12495073420E+04  0.00000000000E+00 0. -1.
          1   -1    0    0  501    0 -0.00000000000E+00 -0.00000000000E+00 -0.10762686024E+01  0.10762686024E+01  0.00000000000E+00 0.  1.
          2    1    1    2  501    0 -0.13828082185E+02  0.18722224097E+02  0.11074180147E+04  0.11076625825E+04  0.00000000000E+00 0. -1.
          1    1    1    2  502    0  0.13828082185E+02 -0.18722224097E+02  0.14101305869E+03  0.14292102803E+03  0.00000000000E+00 0.  1.
</event>
<event>
 4    1  0.3767413E+003  0.2455902E+02  0.7546771E-02  0.1473798E+00
          2   -1    0    0  502    0  0.00000000000E+00  0.00000000000E+00  0.13559254780E+04  0.13559254780E+04  0.00000000000E+00 0.  1.
          1   -1    0    0  501    0 -0.00000000000E+00 -0.00000000000E+00 -0.17394039711E+01  0.17394039711E+01  0.00000000000E+00 0.  1.
          2    1    1    2  501    0  0.23603456775E+02  0.67839660444E+01  0.12627282093E+04  0.12629670130E+04  0.00000000000E+00 0.  1.
          1    1    1    2  502    0 -0.23603456775E+02 -0.67839660444E+01  0.91457864784E+02  0.94697869025E+02  0.00000000000E+00 0.  1.
</event>
<event>
 4    1  0.3767413E+003  0.3575558E+02  0.7546771E-02  0.1375328E+00
          2   -1    0    0  502    0  0.00000000000E+00  0.00000000000E+00  0.52786779333E+03  0.52786779333E+03  0.00000000000E+00 0. -1.
          1   -1    0    0  501    0 -0.00000000000E+00 -0.00000000000E+00 -0.24924450140E+02  0.24924450140E+02  0.00000000000E+00 0.  1.
          2    1    1    2  501    0 -0.33412081988E+02  0.12731626141E+02  0.51409583525E+03  0.51533774299E+03  0.00000000000E+00 0. -1.
          1    1    1    2  502    0  0.33412081988E+02 -0.12731626141E+02 -0.11152492062E+02  0.37454500479E+02  0.00000000000E+00 0.  1.
</event>
<event>
 4    1  0.3767413E+003  0.2235779E+02  0.7546771E-02  0.1500724E+00
          2   -1    0    0  502    0  0.00000000000E+00  0.00000000000E+00  0.24385165002E+03  0.24385165002E+03  0.00000000000E+00 0.  1.
          1   -1    0    0  501    0 -0.00000000000E+00 -0.00000000000E+00 -0.60638659833E+01  0.60638659833E+01  0.00000000000E+00 0.  1.
          2    1    1    2  501    0  0.15896908163E+02  0.15721294065E+02  0.22055982046E+03  0.22169011069E+03  0.00000000000E+00 0.  1.
          1    1    1    2  502    0 -0.15896908163E+02 -0.15721294065E+02  0.17227963581E+02  0.28225405318E+02  0.00000000000E+00 0.  1.
</event>
<event>
 4    1  0.3767413E+003  0.3521046E+02  0.7546771E-02  0.1379090E+00
          2   -1    0    0  502    0  0.00000000000E+00  0.00000000000E+00  0.65244766313E+03  0.65244766313E+03  0.00000000000E+00 0.  1.
          1   -1    0    0  501    0 -0.00000000000E+00 -0.00000000000E+00 -0.24651347269E+02  0.24651347269E+02  0.00000000000E+00 0.  1.
          2    1    1    2  501    0  0.27832284152E+02 -0.21567110311E+02  0.63913787456E+03  0.64010702151E+03  0.00000000000E+00 0.  1.
          1    1    1    2  502    0 -0.27832284152E+02  0.21567110311E+02 -0.11341558699E+02  0.36991988889E+02  0.00000000000E+00 0.  1.
</event>
<event>
 4    1  0.3767413E+003  0.2386651E+02  0.7546771E-02  0.1481895E+00
          2   -1    0    0  502    0  0.00000000000E+00  0.00000000000E+00  0.94330384227E+03  0.94330384227E+03  0.00000000000E+00 0.  1.
          1   -1    0    0  501    0 -0.00000000000E+00 -0.00000000000E+00 -0.42252292354E+01  0.42252292354E+01  0.00000000000E+00 0.  1.
          2    1    1    2  501    0  0.13755193380E+02 -0.19503978564E+02  0.90814537470E+03  0.90845893254E+03  0.00000000000E+00 0.  1.
          1    1    1    2  502    0 -0.13755193380E+02  0.19503978564E+02  0.30933238330E+02  0.39070138960E+02  0.00000000000E+00 0.  1.
</event>
<event>
 4    1  0.3767413E+003  0.2248019E+02  0.7546771E-02  0.1499131E+00
          2   -1    0    0  502    0  0.00000000000E+00  0.00000000000E+00  0.14549998875E+04  0.14549998875E+04  0.00000000000E+00 0.  1.
          1   -1    0    0  501    0 -0.00000000000E+00 -0.00000000000E+00 -0.20440911818E+01  0.20440911818E+01  0.00000000000E+00 0. -1.
          2    1    1    2  501    0 -0.87124983182E+00 -0.22463300466E+02  0.13902262182E+04  0.13904079605E+04  0.00000000000E+00 0.  1.
          1    1    1    2  502    0  0.87124983182E+00  0.22463300466E+02  0.62729578161E+02  0.66636018191E+02  0.00000000000E+00 0. -1.
</event>
<event>
 4    1  0.3767413E+003  0.2795359E+02  0.7546771E-02  0.1438257E+00
          2   -1    0    0  502    0  0.00000000000E+00  0.00000000000E+00  0.22515304150E+01  0.22515304150E+01  0.00000000000E+00 0.  1.
          1   -1    0    0  501    0 -0.00000000000E+00 -0.00000000000E+00 -0.98855029447E+03  0.98855029447E+03  0.00000000000E+00 0. -1.
          2    1    1    2  501    0  0.25427779022E+02 -0.11611690605E+02 -0.94074501007E+02  0.98139772999E+02  0.00000000000E+00 0.  1.
          1    1    1    2  502    0 -0.25427779022E+02  0.11611690605E+02 -0.89222426304E+03  0.89266205188E+03  0.00000000000E+00 0. -1.
</event>
<event>
 4    1  0.4221198E+003  0.2459312E+02  0.7546771E-02  0.1473407E+00
          2   -1    0    0  502    0  0.00000000000E+00  0.00000000000E+00  0.14350868106E+04  0.14350868106E+04  0.00000000000E+00 0.  1.
          1   -1    0    0  501    0 -0.00000000000E+00 -0.00000000000E+00 -0.42635584566E+03  0.42635584566E+03  0.00000000000E+00 0.  1.
          2    1    1    2  501    0 -0.23645293421E+02  0.67617949294E+01  0.14346266875E+04  0.14348374662E+04  0.00000000000E+00 0.  1.
          1    1    1    2  502    0  0.23645293421E+02 -0.67617949294E+01 -0.42589572254E+03  0.42660519014E+03  0.00000000000E+00 0.  1.
</event>
<event>
 4    1  0.3767413E+003  0.2305075E+02  0.7546771E-02  0.1491862E+00
          2   -1    0    0  502    0  0.00000000000E+00  0.00000000000E+00  0.23182602815E+01  0.23182602815E+01  0.00000000000E+00 0. -1.
          1   -1    0    0  501    0 -0.00000000000E+00 -0.00000000000E+00 -0.28592225166E+03  0.28592225166E+03  0.00000000000E+00 0. -1.
          2    1    1    2  501    0  0.56276210225E+01 -0.22353235487E+02 -0.77608505173E+02  0.80959356039E+02  0.00000000000E+00 0. -1.
          1    1    1    2  502    0 -0.56276210225E+01  0.22353235487E+02 -0.20599548621E+03  0.20728115591E+03  0.00000000000E+00 0. -1.
</event>
<event>
 4    1  0.3767413E+003  0.6523609E+02  0.7546771E-02  0.1243010E+00
          2   -1    0    0  502    0  0.00000000000E+00  0.00000000000E+00  0.14369102118E+03  0.14369102118E+03  0.00000000000E+00 0. -1.
          1   -1    0    0  501    0 -0.00000000000E+00 -0.00000000000E+00 -0.26010298479E+03  0.26010298479E+03  0.00000000000E+00 0.  1.
          2    1    1    2  501    0  0.38351483108E+02  0.52772260596E+02  0.13184894508E+03  0.14710503752E+03  0.00000000000E+00 0. -1.
          1    1    1    2  502    0 -0.38351483108E+02 -0.52772260596E+02 -0.24826090869E+03  0.25668896846E+03  0.00000000000E+00 0.  1.
</event>
<event>
 4    1  0.3767413E+003  0.2079362E+02  0.7546771E-02  0.1522232E+00
          2   -1    0    0  502    0  0.00000000000E+00  0.00000000000E+00  0.23191676939E+03  0.23191676939E+03  0.00000000000E+00 0.  1.
          1   -1    0    0  501    0 -0.00000000000E+00 -0.00000000000E+00 -0.40553638078E+01  0.40553638078E+01  0.00000000000E+00 0. -1.
          2    1    1    2  501    0 -0.14927462978E+02 -0.14475689921E+02  0.20065445537E+03  0.20172898951E+03  0.00000000000E+00 0.  1.
          1    1    1    2  502    0  0.14927462978E+02  0.14475689921E+02  0.27206950211E+02  0.34243143685E+02  0.00000000000E+00 0. -1.
</event>
<event>
 4    1  0.3767413E+003  0.2316097E+02  0.7546771E-02  0.1490487E+00
          2   -1    0    0  502    0  0.00000000000E+00  0.00000000000E+00  0.17250538924E+04  0.17250538924E+04  0.00000000000E+00 0. -1.
          1   -1    0    0  501    0 -0.00000000000E+00 -0.00000000000E+00 -0.38886671278E+00  0.38886671278E+00  0.00000000000E+00 0. -1.
          2    1    1    2  501    0 -0.20252052465E+02 -0.11237661825E+02  0.12484725453E+04  0.12486873616E+04  0.00000000000E+00 0. -1.
          1    1    1    2  502    0  0.20252052465E+02  0.11237661825E+02  0.47619248035E+03  0.47675539747E+03  0.00000000000E+00 0. -1.
</event>
<event>
 4    1  0.3767413E+003  0.2741788E+02  0.7546771E-02  0.1443455E+00
          2   -1    0    0  502    0  0.00000000000E+00  0.00000000000E+00  0.37789280166E+03  0.37789280166E+03  0.00000000000E+00 0. -1.
          1   -1    0    0  501    0 -0.00000000000E+00 -0.00000000000E+00 -0.25016146152E+02  0.25016146152E+02  0.00000000000E+00 0.  1.
          2    1    1    2  501    0 -0.27417225325E+02  0.18994100173E+00  0.36971702478E+03  0.37073227366E+03  0.00000000000E+00 0. -1.
          1    1    1    2  502    0  0.27417225325E+02 -0.18994100173E+00 -0.16840369272E+02  0.32176674150E+02  0.00000000000E+00 0.  1.
</event>
<event>
 4    1  0.3767413E+003  0.2643360E+02  0.7546771E-02  0.1453382E+00
          2   -1    0    0  502    0  0.00000000000E+00  0.00000000000E+00  0.13710955137E+04  0.13710955137E+04  0.00000000000E+00 0.  1.
          1   -1    0    0  501    0 -0.00000000000E+00 -0.00000000000E+00 -0.59747599206E+01  0.59747599206E+01  0.00000000000E+00 0.  1.
          2    1    1    2  501    0 -0.26140899627E+02  0.39227958593E+01  0.13410767843E+04  0.13413372716E+04  0.00000000000E+00 0.  1.
          1    1    1    2  502    0  0.26140899627E+02 -0.39227958593E+01  0.24043969479E+02  0.35733001958E+02  0.00000000000E+00 0.  1.
</event>
<event>
 4    1  0.3767413E+003  0.2225719E+02  0.7546771E-02  0.1502042E+00
          2   -1    0    0  502    0  0.00000000000E+00  0.00000000000E+00  0.69410854826E+02  0.69410854826E+02  0.00000000000E+00 0.  1.
          1   -1    0    0  501    0 -0.00000000000E+00 -0.00000000000E+00 -0.76609801835E+02  0.76609801835E+02  0.00000000000E+00 0.  1.
          2    1    1    2  501    0  0.18038973243E+02  0.13037557866E+02  0.65926914100E+02  0.69582616173E+02  0.00000000000E+00 0.  1.
          1    1    1    2  502    0 -0.18038973243E+02 -0.13037557866E+02 -0.73125861108E+02  0.76438040488E+02  0.00000000000E+00 0.  1.
</event>
<event>
 4    1  0.3767413E+003  0.2409936E+02  0.7546771E-02  0.1479136E+00
          2   -1    0    0  502    0  0.00000000000E+00  0.00000000000E+00  0.51054572806E+01  0.51054572806E+01  0.00000000000E+00 0.  1.
          1   -1    0    0  501    0 -0.00000000000E+00 -0.00000000000E+00 -0.19055604627E+03  0.19055604627E+03  0.00000000000E+00 0.  1.
          2    1    1    2  501    0  0.16910231959E+02 -0.17170410959E+02 -0.30617894629E+02  0.38964527829E+02  0.00000000000E+00 0.  1.
          1    1    1    2  502    0 -0.16910231959E+02  0.17170410959E+02 -0.15483269436E+03  0.15669697572E+03  0.00000000000E+00 0.  1.
</event>
<event>
 4    1  0.3767413E+003  0.2689150E+02  0.7546771E-02  0.1448701E+00
          2   -1    0    0  502    0  0.00000000000E+00  0.00000000000E+00  0.87757294860E+03  0.87757294860E+03  0.00000000000E+00 0.  1.
          1   -1    0    0  501    0 -0.00000000000E+00 -0.00000000000E+00 -0.83479945919E+00  0.83479945919E+00  0.00000000000E+00 0. -1.
          2    1    1    2  501    0  0.80070180458E+01 -0.25671770717E+02  0.38849891814E+03  0.38942850633E+03  0.00000000000E+00 0.  1.
          1    1    1    2  502    0 -0.80070180458E+01  0.25671770717E+02  0.48823923101E+03  0.48897924173E+03  0.00000000000E+00 0. -1.
</event>
<event>
 4    1  0.3767413E+003  0.2492464E+02  0.7546771E-02  0.1469648E+00
          2   -1    0    0  502    0  0.00000000000E+00  0.00000000000E+00  0.12563226133E+01  0.12563226133E+01  0.00000000000E+00 0. -1.
          1   -1    0    0  501    0 -0.00000000000E+00 -0.00000000000E+00 -0.66151322800E+03  0.66151322800E+03  0.00000000000E+00 0.  1.
          2    1    1    2  501    0  0.50168939193E+01  0.24414516247E+02 -0.16361362877E+03  0.16550123065E+03  0.00000000000E+00 0. -1.
          1    1    1    2  502    0 -0.50168939193E+01 -0.24414516247E+02 -0.49664327662E+03  0.49726831996E+03  0.00000000000E+00 0.  1.
</event>
<event>
 4    1  0.3767413E+003  0.2366391E+02  0.7546771E-02  0.1484326E+00
          2   -1    0    0  502    0  0.00000000000E+00  0.00000000000E+00  0.45017504498E+02  0.45017504498E+02  0.00000000000E+00 0. -1.
          1   -1    0    0  501    0 -0.00000000000E+00 -0.00000000000E+00 -0.41160583058E+03  0.41160583058E+03  0.00000000000E+00 0. -1.
          2    1    1    2  501    0  0.23121082778E+02  0.50394482487E+01  0.41541125479E+02  0.47808426177E+02  0.00000000000E+00 0. -1.
          1    1    1    2  502    0 -0.23121082778E+02 -0.50394482487E+01 -0.40812945156E+03  0.40881490890E+03  0.00000000000E+00 0. -1.
</event>
<event>
 4    1  0.3767413E+003  0.2299273E+02  0.7546771E-02  0.1492590E+00
          2   -1    0    0  502    0  0.00000000000E+00  0.00000000000E+00  0.15734093411E+03  0.15734093411E+03  0.00000000000E+00 0. -1.
          1   -1    0    0  501    0 -0.00000000000E+00 -0.00000000000E+00 -0.67082008185E+01  0.67082008185E+01  0.00000000000E+00 0. -1.
          2    1    1    2  501    0  0.22965730928E+02 -0.11138447954E+01  0.13326546833E+03  0.13523442793E+03  0.00000000000E+00 0. -1.
          1    1    1    2  502    0 -0.22965730928E+02  0.11138447954E+01  0.17367264956E+02  0.28814706997E+02  0.00000000000E+00 0. -1.
</event>
<event>
 4    1  0.3767413E+003  0.4074072E+02  0.7546771E-02  0.1344199E+00
          2   -1    0    0  502    0  0.00000000000E+00  0.00000000000E+00  0.77499447584E+01  0.77499447584E+01  0.00000000000E+00 0. -1.
          1   -1    0    0  501    0 -0.00000000000E+00 -0.00000000000E+00 -0.90966899528E+03  0.90966899528E+03  0.00000000000E+00 0. -1.
          2    1    1    2  501    0  0.65014268481E+00 -0.40735531432E+02 -0.49867301905E+02  0.64393741977E+02  0.00000000000E+00 0. -1.
          1    1    1    2  502    0 -0.65014268481E+00  0.40735531432E+02 -0.85205174861E+03  0.85302519806E+03  0.00000000000E+00 0. -1.
</event>
<event>
 4    1  0.3767413E+003  0.3065965E+02  0.7546771E-02  0.1413949E+00
          2   -1    0    0  502    0  0.00000000000E+00  0.00000000000E+00  0.40874380225E+03  0.40874380225E+03  0.00000000000E+00 0. -1.
          1   -1    0    0  501    0 -0.00000000000E+00 -0.00000000000E+00 -0.55285783236E+01  0.55285783236E+01  0.00000000000E+00 0. -1.
          2    1    1    2  501    0 -0.23771871711E+02  0.19362656321E+02  0.35990391648E+03  0.36120747977E+03  0.00000000000E+00 0. -1.
          1    1    1    2  502    0  0.23771871711E+02 -0.19362656321E+02  0.43311307444E+02  0.53064900800E+02  0.00000000000E+00 0. -1.
</event>
<event>
 4    1  0.3767413E+003  0.2181927E+02  0.7546771E-02  0.1507882E+00
          2   -1    0    0  502    0  0.00000000000E+00  0.00000000000E+00  0.67439020172E+00  0.67439020172E+00  0.00000000000E+00 0. -1.
          1   -1    0    0  501    0 -0.00000000000E+00 -0.00000000000E+00 -0.83715198670E+03  0.83715198670E+03  0.00000000000E+00 0.  1.
          2    1    1    2  501    0 -0.20101569100E+02 -0.84857139754E+01 -0.25239272621E+03  0.25333410482E+03  0.00000000000E+00 0. -1.
          1    1    1    2  502    0  0.20101569100E+02  0.84857139754E+01 -0.58408487028E+03  0.58449227207E+03  0.00000000000E+00 0.  1.
</event>
<event>
 4    1  0.3767413E+003  0.2483111E+02  0.7546771E-02  0.1470702E+00
          2   -1    0    0  502    0  0.00000000000E+00  0.00000000000E+00  0.74517737598E+01  0.74517737598E+01  0.00000000000E+00 0. -1.
          1   -1    0    0  501    0 -0.00000000000E+00 -0.00000000000E+00 -0.62743129982E+03  0.62743129982E+03  0.00000000000E+00 0. -1.
          2    1    1    2  501    0  0.21196757557E+02 -0.12933739146E+02 -0.14219452013E+02  0.28614278861E+02  0.00000000000E+00 0. -1.
          1    1    1    2  502    0 -0.21196757557E+02  0.12933739146E+02 -0.60576007404E+03  0.60626879471E+03  0.00000000000E+00 0. -1.
</event>
<event>
 4    1  0.3767413E+003  0.2278845E+02  0.7546771E-02  0.1495172E+00
          2   -1    0    0  502    0  0.00000000000E+00  0.00000000000E+00  0.71654205904E+03  0.71654205904E+03  0.00000000000E+00 0.  1.
          1   -1    0    0  501    0 -0.00000000000E+00 -0.00000000000E+00 -0.81230056340E+00  0.81230056340E+00  0.00000000000E+00 0.  1.
          2    1    1    2  501    0  0.21607180092E+02  0.72417450526E+01  0.24011039548E+03  0.24118937605E+03  0.00000000000E+00 0.  1.
          1    1    1    2  502    0 -0.21607180092E+02 -0.72417450526E+01  0.47561936300E+03  0.47616498356E+03  0.00000000000E+00 0.  1.
</event>
<event>
 4    1  0.3767413E+003  0.2204360E+02  0.7546771E-02  0.1504870E+00
          2   -1    0    0  502    0  0.00000000000E+00  0.00000000000E+00  0.58106123287E+03  0.58106123287E+03  0.00000000000E+00 0. -1.
          1   -1    0    0  501    0 -0.00000000000E+00 -0.00000000000E+00 -0.10277116318E+01  0.10277116318E+01  0.00000000000E+00 0. -1.
          2    1    1    2  501    0 -0.20378727338E+02  0.84040277586E+01  0.41563406250E+03  0.41621820494E+03  0.00000000000E+00 0. -1.
          1    1    1    2  502    0  0.20378727338E+02 -0.84040277586E+01  0.16439945874E+03  0.16587073957E+03  0.00000000000E+00 0. -1.
</event>
<event>
 4    1  0.3767413E+003  0.2595787E+02  0.7546771E-02  0.1458367E+00
          2   -1    0    0  502    0  0.00000000000E+00  0.00000000000E+00  0.27679712557E+01  0.27679712557E+01  0.00000000000E+00 0. -1.
          1   -1    0    0  501    0 -0.00000000000E+00 -0.00000000000E+00 -0.73518156584E+03  0.73518156584E+03  0.00000000000E+00 0. -1.
          2    1    1    2  501    0 -0.11338469880E+02 -0.23350590369E+02 -0.64439866546E+02  0.69471629967E+02  0.00000000000E+00 0. -1.
          1    1    1    2  502    0  0.11338469880E+02  0.23350590369E+02 -0.66797372804E+03  0.66847790713E+03  0.00000000000E+00 0. -1.
</event>
<event>
 4    1  0.3767413E+003  0.4635647E+02  0.7546771E-02  0.1314793E+00
          2   -1    0    0  502    0  0.00000000000E+00  0.00000000000E+00  0.64554407237E+02  0.64554407237E+02  0.00000000000E+00 0. -1.
          1   -1    0    0  501    0 -0.00000000000E+00 -0.00000000000E+00 -0.82604370927E+02  0.82604370927E+02  0.00000000000E+00 0.  1.
          2    1    1    2  501    0 -0.45799357226E+02  0.71652814611E+01  0.47827288541E+02  0.66606095141E+02  0.00000000000E+00 0. -1.
          1    1    1    2  502    0  0.45799357226E+02 -0.71652814611E+01 -0.65877252231E+02  0.80552683023E+02  0.00000000000E+00 0.  1.
</event>
<event>
 4    1  0.3767413E+003  0.2775883E+02  0.7546771E-02  0.1440131E+00
          2   -1    0    0  502    0  0.00000000000E+00  0.00000000000E+00  0.40794401307E+03  0.40794401307E+03  0.00000000000E+00 0.  1.
          1   -1    0    0  501    0 -0.00000000000E+00 -0.00000000000E+00 -0.76645589487E+01  0.76645589487E+01  0.00000000000E+00 0.  1.
          2    1    1    2  501    0  0.18738171578E+02 -0.20480074509E+02  0.38052990098E+03  0.38154103064E+03  0.00000000000E+00 0.  1.
          1    1    1    2  502    0 -0.18738171578E+02  0.20480074509E+02  0.19749553144E+02  0.34067541376E+02  0.00000000000E+00 0.  1.
</event>
<event>
 4    1  0.3767413E+003  0.2772600E+02  0.7546771E-02  0.1440449E+00
          2   -1    0    0  502    0  0.00000000000E+00  0.00000000000E+00  0.20384559684E+03  0.20384559684E+03  0.00000000000E+00 0. -1.
          1   -1    0    0  501    0 -0.00000000000E+00 -0.00000000000E+00 -0.80364826477E+03  0.80364826477E+03  0.00000000000E+00 0.  1.
          2    1    1    2  501    0 -0.22602498067E+02  0.16057953869E+02  0.20266228356E+03  0.20455007206E+03  0.00000000000E+00 0. -1.
          1    1    1    2  502    0  0.22602498067E+02 -0.16057953869E+02 -0.80246495149E+03  0.80294378954E+03  0.00000000000E+00 0.  1.
</event>
<event>
 4    1  0.3767413E+003  0.2208047E+02  0.7546771E-02  0.1504379E+00
          2   -1    0    0  502    0  0.00000000000E+00  0.00000000000E+00  0.14642201299E+03  0.14642201299E+03  0.00000000000E+00 0. -1.
          1   -1    0    0  501    0 -0.00000000000E+00 -0.00000000000E+00 -0.27591073214E+03  0.27591073214E+03  0.00000000000E+00 0.  1.
          2    1    1    2  501    0  0.91546578808E+01  0.20093265588E+02  0.14514394896E+03  0.14681387197E+03  0.00000000000E+00 0. -1.
          1    1    1    2  502    0 -0.91546578808E+01 -0.20093265588E+02 -0.27463266810E+03  0.27551887317E+03  0.00000000000E+00 0.  1.
</event>
<event>
 4    1  0.3767413E+003  0.2586611E+02  0.7546771E-02  0.1459343E+00
          2   -1    0    0  502    0  0.00000000000E+00  0.00000000000E+00  0.14621083195E+02  0.14621083195E+02  0.00000000000E+00 0.  1.
          1   -1    0    0  501    0 -0.00000000000E+00 -0.00000000000E+00 -0.70011052096E+02  0.70011052096E+02  0.00000000000E+00 0. -1.
          2    1    1    2  501    0 -0.13246697196E+01  0.25832170999E+02 -0.27897674767E+01  0.26016122135E+02  0.00000000000E+00 0.  1.
          1    1    1    2  502    0  0.13246697196E+01 -0.25832170999E+02 -0.52600201425E+02  0.58616013156E+02  0.00000000000E+00 0. -1.
</event>
<event>
 4    1  0.3767413E+003  0.2918358E+02  0.7546771E-02  0.1426826E+00
          2   -1    0    0  502    0  0.00000000000E+00  0.00000000000E+00  0.97009101712E+02  0.97009101712E+02  0.00000000000E+00 0. -1.
          1   -1    0    0  501    0 -0.00000000000E+00 -0.00000000000E+00 -0.87514943034E+02  0.87514943034E+02  0.00000000000E+00 0.  1.
          2    1    1    2  501    0 -0.22323778895E+01  0.29098074057E+02  0.92259013876E+02  0.96764699484E+02  0.00000000000E+00 0. -1.
          1    1    1    2  502    0  0.22323778895E+01 -0.29098074057E+02 -0.82764855197E+02  0.87759345261E+02  0.00000000000E+00 0.  1.
</event>
<event>
 4    1  0.3767413E+003  0.2671209E+02  0.7546771E-02  0.1450522E+00
          2   -1    0    0  502    0  0.00000000000E+00  0.00000000000E+00  0.45283313721E+02  0.45283313721E+02  0.00000000000E+00 0. -1.
          1   -1    0    0  501    0 -0.00000000000E+00 -0.00000000000E+00 -0.74071314120E+02  0.74071314120E+02  0.00000000000E+00 0.  1.
          2    1    1    2  501    0 -0.10957009035E+02  0.24361436817E+02  0.38556649818E+02  0.46905766127E+02  0.00000000000E+00 0. -1.
          1    1    1    2  502    0  0.10957009035E+02 -0.24361436817E+02 -0.67344650217E+02  0.72448861714E+02  0.00000000000E+00 0.  1.
</event>
<event>
 4    1  0.3767413E+003  0.2201649E+02  0.7546771E-02  0.1505232E+00
          2   -1    0    0  502    0  0.00000000000E+00  0.00000000000E+00  0.39345514524E+03  0.39345514524E+03  0.00000000000E+00 0. -1.
          1   -1    0    0  501    0 -0.00000000000E+00 -0.00000000000E+00 -0.56067206804E+01  0.56067206804E+01  0.00000000000E+00 0.  1.
          2    1    1    2  501    0  0.17667211102E+02 -0.13137554727E+02  0.37017551314E+03  0.37082965930E+03  0.00000000000E+00 0. -1.
          1    1    1    2  502    0 -0.17667211102E+02  0.13137554727E+02  0.17672911422E+02  0.28232206617E+02  0.00000000000E+00 0.  1.
</event>
<event>
 4    1  0.3767413E+003  0.4102056E+02  0.7546771E-02  0.1342607E+00
          2   -1    0    0  502    0  0.00000000000E+00  0.00000000000E+00  0.22162509797E+04  0.22162509797E+04  0.00000000000E+00 0.  1.
          1   -1    0    0  501    0 -0.00000000000E+00 -0.00000000000E+00 -0.64671742062E+01  0.64671742062E+01  0.00000000000E+00 0.  1.
          2    1    1    2  501    0 -0.24421461980E+02  0.32958734132E+02  0.21489778836E+04  0.21493693564E+04  0.00000000000E+00 0.  1.
          1    1    1    2  502    0  0.24421461980E+02 -0.32958734132E+02  0.60805921903E+02  0.73348797531E+02  0.00000000000E+00 0.  1.
</event>
<event>
 4    1  0.3767413E+003  0.2408595E+02  0.7546771E-02  0.1479294E+00
          2   -1    0    0  502    0  0.00000000000E+00  0.00000000000E+00  0.12960293734E+04  0.12960293734E+04  0.00000000000E+00 0.  1.
          1   -1    0    0  501    0 -0.00000000000E+00 -0.00000000000E+00 -0.30125689856E+01  0.30125689856E+01  0.00000000000E+00 0.  1.
          2    1    1    2  501    0 -0.82243027894E+01 -0.22638328707E+02  0.12458352802E+04  0.12460680874E+04  0.00000000000E+00 0.  1.
          1    1    1    2  502    0  0.82243027894E+01  0.22638328707E+02  0.47181524196E+02  0.52973854952E+02  0.00000000000E+00 0.  1.
</event>
<event>
 4    1  0.3767413E+003  0.3248882E+02  0.7546771E-02  0.1399133E+00
          2   -1    0    0  502    0  0.00000000000E+00  0.00000000000E+00  0.49178407524E+02  0.49178407524E+02  0.00000000000E+00 0. -1.
          1   -1    0    0  501    0 -0.00000000000E+00 -0.00000000000E+00 -0.45235258805E+02  0.45235258805E+02  0.00000000000E+00 0.  1.
          2    1    1    2  501    0  0.31022595626E+02  0.96499825167E+01  0.36193163277E+02  0.48636084032E+02  0.00000000000E+00 0. -1.
          1    1    1    2  502    0 -0.31022595626E+02 -0.96499825167E+01 -0.32250014558E+02  0.45777582297E+02  0.00000000000E+00 0.  1.
</event>
<event>
 4    1  0.3767413E+003  0.3288095E+02  0.7546771E-02  0.1396106E+00
          2   -1    0    0  502    0  0.00000000000E+00  0.00000000000E+00  0.33867856911E+02  0.33867856911E+02  0.00000000000E+00 0.  1.
          1   -1    0    0  501    0 -0.00000000000E+00 -0.00000000000E+00 -0.55252954095E+02  0.55252954095E+02  0.00000000000E+00 0.  1.
          2    1    1    2  501    0  0.61613825468E+01 -0.32298514895E+02  0.18262894863E+02  0.37612365361E+02  0.00000000000E+00 0.  1.
          1    1    1    2  502    0 -0.61613825468E+01  0.32298514895E+02 -0.39647992047E+02  0.51508445644E+02  0.00000000000E+00 0.  1.
</event>
<event>
 4    1  0.3767413E+003  0.2289341E+02  0.7546771E-02  0.1493841E+00
          2   -1    0    0  502    0  0.00000000000E+00  0.00000000000E+00  0.16442206545E+03  0.16442206545E+03  0.00000000000E+00 0. -1.
          1   -1    0    0  501    0 -0.00000000000E+00 -0.00000000000E+00 -0.32490265434E+01  0.32490265434E+01  0.00000000000E+00 0. -1.
          2    1    1    2  501    0 -0.21936748580E+02  0.65488272336E+01  0.92115983762E+02  0.94918188672E+02  0.00000000000E+00 0. -1.
          1    1    1    2  502    0  0.21936748580E+02 -0.65488272336E+01  0.69057055149E+02  0.72752903325E+02  0.00000000000E+00 0. -1.
</event>
<event>
 4    1  0.3767413E+003  0.2064017E+02  0.7546771E-02  0.1524465E+00
          2   -1    0    0  502    0  0.00000000000E+00  0.00000000000E+00  0.84051499024E+00  0.84051499024E+00  0.00000000000E+00 0.  1.
          1   -1    0    0  501    0 -0.00000000000E+00 -0.00000000000E+00 -0.11642630307E+04  0.11642630307E+04  0.00000000000E+00 0. -1.
          2    1    1    2  501    0 -0.12770759308E+02  0.16214947643E+02 -0.14395998032E+03  0.14543208984E+03  0.00000000000E+00 0.  1.
          1    1    1    2  502    0  0.12770759308E+02 -0.16214947643E+02 -0.10194625354E+04  0.10196714559E+04  0.00000000000E+00 0. -1.
</event>
<event>
 4    1  0.3767413E+003  0.3319279E+02  0.7546771E-02  0.1393734E+00
          2   -1    0    0  502    0  0.00000000000E+00  0.00000000000E+00  0.29564178868E+03  0.29564178868E+03  0.00000000000E+00 0.  1.
          1   -1    0    0  501    0 -0.00000000000E+00 -0.00000000000E+00 -0.96056727568E+02  0.96056727568E+02  0.00000000000E+00 0. -1.
          2    1    1    2  501    0  0.18686679314E+02 -0.27432993119E+02  0.29180506354E+03  0.29368683356E+03  0.00000000000E+00 0.  1.
          1    1    1    2  502    0 -0.18686679314E+02  0.27432993119E+02 -0.92220002432E+02  0.98011682690E+02  0.00000000000E+00 0. -1.
</event>
<event>
 4    1  0.3767413E+003  0.3808943E+02  0.7546771E-02  0.1360061E+00
          2   -1    0    0  502    0  0.00000000000E+00  0.00000000000E+00  0.15077470376E+04  0.15077470376E+04  0.00000000000E+00 0. -1.
          1   -1    0    0  501    0 -0.00000000000E+00 -0.00000000000E+00 -0.97148386022E+02  0.97148386022E+02  0.00000000000E+00 0.  1.
          2    1    1    2  501    0  0.63891412101E+01 -0.37549749826E+02  0.15037631133E+04  0.15042454273E+04  0.00000000000E+00 0. -1.
          1    1    1    2  502    0 -0.63891412101E+01  0.37549749826E+02 -0.93164461671E+02  0.10064999630E+03  0.00000000000E+00 0.  1.
</event>
<event>
 4    1  0.3767413E+003  0.3253863E+02  0.7546771E-02  0.1398745E+00
          2   -1    0    0  502    0  0.00000000000E+00  0.00000000000E+00  0.72532017134E+03  0.72532017134E+03  0.00000000000E+00 0.  1.
          1   -1    0    0  501    0 -0.00000000000E+00 -0.00000000000E+00 -0.61239417060E+01  0.61239417060E+01  0.00000000000E+00 0.  1.
          2    1    1    2  501    0  0.26091604591E+02 -0.19441985948E+02  0.67877051684E+03  0.67954998137E+03  0.00000000000E+00 0.  1.
          1    1    1    2  502    0 -0.26091604591E+02  0.19441985948E+02  0.40425712800E+02  0.51894131683E+02  0.00000000000E+00 0.  1.
</event>
<event>
 4    1  0.3767413E+003  0.4302757E+02  0.7546771E-02  0.1331603E+00
          2   -1    0    0  502    0  0.00000000000E+00  0.00000000000E+00  0.18005397837E+03  0.18005397837E+03  0.00000000000E+00 0.  1.
          1   -1    0    0  501    0 -0.00000000000E+00 -0.00000000000E+00 -0.10794157111E+02  0.10794157111E+02  0.00000000000E+00 0.  1.
          2    1    1    2  501    0 -0.42972420468E+02 -0.21778050859E+01  0.10540923808E+03  0.11385288415E+03  0.00000000000E+00 0.  1.
          1    1    1    2  502    0  0.42972420468E+02  0.21778050859E+01  0.63850583178E+02  0.76995251334E+02  0.00000000000E+00 0.  1.
</event>
<event>
 4    1  0.3767413E+003  0.3117903E+02  0.7546771E-02  0.1409620E+00
          2   -1    0    0  502    0  0.00000000000E+00  0.00000000000E+00  0.28892391432E+02  0.28892391432E+02  0.00000000000E+00 0. -1.
          1   -1    0    0  501    0 -0.00000000000E+00 -0.00000000000E+00 -0.19401317464E+03  0.19401317464E+03  0.00000000000E+00 0.  1.
          2    1    1    2  501    0 -0.21953173614E+02  0.22140238963E+02  0.18768238934E+02  0.36392015686E+02  0.00000000000E+00 0. -1.
          1    1    1    2  502    0  0.21953173614E+02 -0.22140238963E+02 -0.18388902215E+03  0.18651355039E+03  0.00000000000E+00 0.  1.
</event>
<event>
 4    1  0.3767413E+003  0.2284427E+02  0.7546771E-02  0.1494463E+00
          2   -1    0    0  502    0  0.00000000000E+00  0.00000000000E+00  0.12952609506E+02  0.12952609506E+02  0.00000000000E+00 0.  1.
          1   -1    0    0  501    0 -0.00000000000E+00 -0.00000000000E+00 -0.60460731047E+02  0.60460731047E+02  0.00000000000E+00 0.  1.
          2    1    1    2  501    0  0.12128003908E+02  0.19359029169E+02 -0.25524315161E+01  0.22986417637E+02  0.00000000000E+00 0.  1.
          1    1    1    2  502    0 -0.12128003908E+02 -0.19359029169E+02 -0.44955690024E+02  0.50426922915E+02  0.00000000000E+00 0.  1.
</event>
<event>
 4    1  0.3767413E+003  0.2864327E+02  0.7546771E-02  0.1431765E+00
          2   -1    0    0  502    0  0.00000000000E+00  0.00000000000E+00  0.64209056115E+02  0.64209056115E+02  0.00000000000E+00 0. -1.
          1   -1    0    0  501    0 -0.00000000000E+00 -0.00000000000E+00 -0.38700450807E+02  0.38700450807E+02  0.00000000000E+00 0.  1.
          2    1    1    2  501    0 -0.21907759695E+02  0.18452293882E+02  0.54866600746E+02  0.61893303045E+02  0.00000000000E+00 0. -1.
          1    1    1    2  502    0  0.21907759695E+02 -0.18452293882E+02 -0.29357995438E+02  0.41016203877E+02  0.00000000000E+00 0.  1.
</event>
<event>
 4    1  0.3767413E+003  0.3389831E+02  0.7546771E-02  0.1388478E+00
          2   -1    0    0  502    0  0.00000000000E+00  0.00000000000E+00  0.44440190075E+02  0.44440190075E+02  0.00000000000E+00 0. -1.
          1   -1    0    0  501    0 -0.00000000000E+00 -0.00000000000E+00 -0.66487308686E+03  0.66487308686E+03  0.00000000000E+00 0. -1.
          2    1    1    2  501    0 -0.20192572897E+02  0.27227845187E+02  0.37475448796E+02  0.50532215627E+02  0.00000000000E+00 0. -1.
          1    1    1    2  502    0  0.20192572897E+02 -0.27227845187E+02 -0.65790834558E+03  0.65878106131E+03  0.00000000000E+00 0. -1.
</event>
<event>
 4    1  0.3767413E+003  0.2205285E+02  0.7546771E-02  0.1504747E+00
          2   -1    0    0  502    0  0.00000000000E+00  0.00000000000E+00  0.15427445110E+02  0.15427445110E+02  0.00000000000E+00 0. -1.
          1   -1    0    0  501    0 -0.00000000000E+00 -0.00000000000E+00 -0.18442364738E+03  0.18442364738E+03  0.00000000000E+00 0. -1.
          2    1    1    2  501    0  0.16386332476E+02 -0.14758607735E+02  0.64873718939E+01  0.22987265787E+02  0.00000000000E+00 0. -1.
          1    1    1    2  502    0 -0.16386332476E+02  0.14758607735E+02 -0.17548357417E+03  0.17686382670E+03  0.00000000000E+00 0. -1.
</event>
<event>
 4    1  0.3767413E+003  0.4013428E+02  0.7546771E-02  0.1347701E+00
          2   -1    0    0  502    0  0.00000000000E+00  0.00000000000E+00  0.27772651881E+04  0.27772651881E+04  0.00000000000E+00 0. -1.
          1   -1    0    0  501    0 -0.00000000000E+00 -0.00000000000E+00 -0.60982850530E+00  0.60982850530E+00  0.00000000000E+00 0.  1.
          2    1    1    2  501    0 -0.40054780081E+02  0.25245357465E+01  0.10810443301E+04  0.10817890748E+04  0.00000000000E+00 0. -1.
          1    1    1    2  502    0  0.40054780081E+02 -0.25245357465E+01  0.16956110295E+04  0.16960859419E+04  0.00000000000E+00 0.  1.
</event>
<event>
 4    1  0.3767413E+003  0.6596833E+02  0.7546771E-02  0.1240800E+00
          2   -1    0    0  502    0  0.00000000000E+00  0.00000000000E+00  0.25766023605E+03  0.25766023605E+03  0.00000000000E+00 0. -1.
          1   -1    0    0  501    0 -0.00000000000E+00 -0.00000000000E+00 -0.23862823212E+02  0.23862823212E+02  0.00000000000E+00 0.  1.
          2    1    1    2  501    0 -0.51400369250E+02 -0.41349951347E+02  0.40807364533E+02  0.77569694054E+02  0.00000000000E+00 0. -1.
          1    1    1    2  502    0  0.51400369250E+02  0.41349951347E+02  0.19299004830E+03  0.20395336521E+03  0.00000000000E+00 0.  1.
</event>
<event>
 4    1  0.3767413E+003  0.3345733E+02  0.7546771E-02  0.1391745E+00
          2   -1    0    0  502    0  0.00000000000E+00  0.00000000000E+00  0.25484961291E+03  0.25484961291E+03  0.00000000000E+00 0. -1.
          1   -1    0    0  501    0 -0.00000000000E+00 -0.00000000000E+00 -0.10292674421E+04  0.10292674421E+04  0.00000000000E+00 0. -1.
          2    1    1    2  501    0  0.92475523088E+01 -0.32153937212E+02  0.25347816589E+03  0.25567669719E+03  0.00000000000E+00 0. -1.
          1    1    1    2  502    0 -0.92475523088E+01  0.32153937212E+02 -0.10278959950E+04  0.10284403578E+04  0.00000000000E+00 0. -1.
</event>
<event>
 4    1  0.3767413E+003  0.2386774E+02  0.7546771E-02  0.1481880E+00
          2   -1    0    0  502    0  0.00000000000E+00  0.00000000000E+00  0.61588316925E+02  0.61588316925E+02  0.00000000000E+00 0. -1.
          1   -1    0    0  501    0 -0.00000000000E+00 -0.00000000000E+00 -0.60996585791E+03  0.60996585791E+03  0.00000000000E+00 0.  1.
          2    1    1    2  501    0  0.14995682116E+02  0.18568748014E+02  0.59032701095E+02  0.63675181064E+02  0.00000000000E+00 0. -1.
          1    1    1    2  502    0 -0.14995682116E+02 -0.18568748014E+02 -0.60741024208E+03  0.60787899377E+03  0.00000000000E+00 0.  1.
</event>
<event>
 4    1  0.3767413E+003  0.2888562E+02  0.7546771E-02  0.1429534E+00
          2   -1    0    0  502    0  0.00000000000E+00  0.00000000000E+00  0.17169455425E+04  0.17169455425E+04  0.00000000000E+00 0.  1.
          1   -1    0    0  501    0 -0.00000000000E+00 -0.00000000000E+00 -0.18963315208E+01  0.18963315208E+01  0.00000000000E+00 0.  1.
          2    1    1    2  501    0  0.84820003173E+01 -0.27612219586E+02  0.15986888736E+04  0.15989498096E+04  0.00000000000E+00 0.  1.
          1    1    1    2  502    0 -0.84820003173E+01  0.27612219586E+02  0.11636033741E+03  0.11989206447E+03  0.00000000000E+00 0.  1.
</event>
<event>
 4    1  0.3767413E+003  0.2031584E+02  0.7546771E-02  0.1529261E+00
          2   -1    0    0  502    0  0.00000000000E+00  0.00000000000E+00  0.14124130345E+03  0.14124130345E+03  0.00000000000E+00 0.  1.
          1   -1    0    0  501    0 -0.00000000000E+00 -0.00000000000E+00 -0.16891301550E+02  0.16891301550E+02  0.00000000000E+00 0.  1.
          2    1    1    2  501    0 -0.20168135237E+02  0.24453329227E+01  0.13407755711E+03  0.13560798153E+03  0.00000000000E+00 0.  1.
          1    1    1    2  502    0  0.20168135237E+02 -0.24453329227E+01 -0.97275552159E+01  0.22524623471E+02  0.00000000000E+00 0.  1.
</event>
<event>
 4    1  0.3767413E+003  0.3500412E+02  0.7546771E-02  0.1380534E+00
          2   -1    0    0  502    0  0.00000000000E+00  0.00000000000E+00  0.33626545848E+03  0.33626545848E+03  0.00000000000E+00 0. -1.
          1   -1    0    0  501    0 -0.00000000000E+00 -0.00000000000E+00 -0.12027040625E+03  0.12027040625E+03  0.00000000000E+00 0.  1.
          2    1    1    2  501    0  0.45691669274E+01  0.34704628304E+02  0.33278096476E+03  0.33461688394E+03  0.00000000000E+00 0. -1.
          1    1    1    2  502    0 -0.45691669274E+01 -0.34704628304E+02 -0.11678591253E+03  0.12191898079E+03  0.00000000000E+00 0.  1.
</event>
<event>
 4    1  0.3767413E+003  0.3618532E+02  0.7546771E-02  0.1372416E+00
          2   -1    0    0  502    0  0.00000000000E+00  0.00000000000E+00  0.37053222110E+03  0.37053222110E+03  0.00000000000E+00 0. -1.
          1   -1    0    0  501    0 -0.00000000000E+00 -0.00000000000E+00 -0.70817331966E+01  0.70817331966E+01  0.00000000000E+00 0. -1.
          2    1    1    2  501    0  0.44726675662E+01  0.35907817310E+02  0.48084853088E+02  0.60179142530E+02  0.00000000000E+00 0. -1.
          1    1    1    2  502    0 -0.44726675662E+01 -0.35907817310E+02  0.31536563482E+03  0.31743481177E+03  0.00000000000E+00 0. -1.
</event>
<event>
 4    1  0.3767413E+003  0.2553473E+02  0.7546771E-02  0.1462909E+00
          2   -1    0    0  502    0  0.00000000000E+00  0.00000000000E+00  0.18245728436E+04  0.18245728436E+04  0.00000000000E+00 0. -1.
          1   -1    0    0  501    0 -0.00000000000E+00 -0.00000000000E+00 -0.54042305365E+01  0.54042305365E+01  0.00000000000E+00 0.  1.
          2    1    1    2  501    0 -0.14190290914E+01 -0.25495268597E+02  0.17938035587E+04  0.17939852925E+04  0.00000000000E+00 0. -1.
          1    1    1    2  502    0  0.14190290914E+01  0.25495268597E+02  0.25365054323E+02  0.35991781634E+02  0.00000000000E+00 0.  1.
</event>
<event>
 4    1  0.3767413E+003  0.2938996E+02  0.7546771E-02  0.1424973E+00
          2   -1    0    0  502    0  0.00000000000E+00  0.00000000000E+00  0.19427768689E+04  0.19427768689E+04  0.00000000000E+00 0.  1.
          1   -1    0    0  501    0 -0.00000000000E+00 -0.00000000000E+00 -0.29713129002E+03  0.29713129002E+03  0.00000000000E+00 0. -1.
          2    1    1    2  501    0  0.24851769633E+02  0.15689463961E+02  0.19419386461E+04  0.19421610322E+04  0.00000000000E+00 0.  1.
          1    1    1    2  502    0 -0.24851769633E+02 -0.15689463961E+02 -0.29629306727E+03  0.29774712668E+03  0.00000000000E+00 0. -1.
</event>
<event>
 4    1  0.3767413E+003  0.5297359E+02  0.7546771E-02  0.1285770E+00
          2   -1    0    0  502    0  0.00000000000E+00  0.00000000000E+00  0.18801631567E+04  0.18801631567E+04  0.00000000000E+00 0. -1.
          1   -1    0    0  501    0 -0.00000000000E+00 -0.00000000000E+00 -0.14479658131E+03  0.14479658131E+03  0.00000000000E+00 0.  1.
          2    1    1    2  501    0  0.36126154537E+02  0.38744054485E+02  0.18749314329E+04  0.18756796312E+04  0.00000000000E+00 0. -1.
          1    1    1    2  502    0 -0.36126154537E+02 -0.38744054485E+02 -0.13956485758E+03  0.14928010675E+03  0.00000000000E+00 0.  1.
</event>
<event>
 4    1  0.3767413E+003  0.4868001E+02  0.7546771E-02  0.1303999E+00
          2   -1    0    0  502    0  0.00000000000E+00  0.00000000000E+00  0.39569184382E+01  0.39569184382E+01  0.00000000000E+00 0. -1.
          1   -1    0    0  501    0 -0.00000000000E+00 -0.00000000000E+00 -0.34524217732E+04  0.34524217732E+04  0.00000000000E+00 0. -1.
          2    1    1    2  501    0  0.43510654926E+02 -0.21830403798E+02 -0.15307012700E+03  0.16062442965E+03  0.00000000000E+00 0. -1.
          1    1    1    2  502    0 -0.43510654926E+02  0.21830403798E+02 -0.32953947278E+04  0.32957542620E+04  0.00000000000E+00 0. -1.
</event>
<event>
 4    1  0.3767413E+003  0.3455397E+02  0.7546771E-02  0.1383726E+00
          2   -1    0    0  502    0  0.00000000000E+00  0.00000000000E+00  0.19317968975E+02  0.19317968975E+02  0.00000000000E+00 0. -1.
          1   -1    0    0  501    0 -0.00000000000E+00 -0.00000000000E+00 -0.29113397911E+03  0.29113397911E+03  0.00000000000E+00 0.  1.
          2    1    1    2  501    0  0.34257022650E+02 -0.45202948171E+01  0.18592368386E+01  0.34603951042E+02  0.00000000000E+00 0. -1.
          1    1    1    2  502    0 -0.34257022650E+02  0.45202948171E+01 -0.27367524697E+03  0.27584799704E+03  0.00000000000E+00 0.  1.
</event>
<event>
 4    1  0.3767413E+003  0.2776783E+02  0.7546771E-02  0.1440044E+00
          2   -1    0    0  502    0  0.00000000000E+00  0.00000000000E+00  0.32375096433E+02  0.32375096433E+02  0.00000000000E+00 0.  1.
          1   -1    0    0  501    0 -0.00000000000E+00 -0.00000000000E+00 -0.30900397107E+02  0.30900397107E+02  0.00000000000E+00 0.  1.
          2    1    1    2  501    0  0.16799399213E+02 -0.22109536992E+02 -0.14411133463E+02  0.31284696061E+02  0.00000000000E+00 0.  1.
          1    1    1    2  502    0 -0.16799399213E+02  0.22109536992E+02  0.15885832790E+02  0.31990797479E+02  0.00000000000E+00 0.  1.
</event>
<event>
 4    1  0.3767413E+003  0.2355181E+02  0.7546771E-02  0.1485683E+00
          2   -1    0    0  502    0  0.00000000000E+00  0.00000000000E+00  0.84433252483E+02  0.84433252483E+02  0.00000000000E+00 0.  1.
          1   -1    0    0  501    0 -0.00000000000E+00 -0.00000000000E+00 -0.33566445969E+03  0.33566445969E+03  0.00000000000E+00 0. -1.
          2    1    1    2  501    0 -0.16624679946E+02  0.16682558814E+02  0.82367583323E+02  0.85668585458E+02  0.00000000000E+00 0.  1.
          1    1    1    2  502    0  0.16624679946E+02 -0.16682558814E+02 -0.33359879053E+03  0.33442912672E+03  0.00000000000E+00 0. -1.
</event>
<event>
 4    1  0.3767413E+003  0.2413554E+02  0.7546771E-02  0.1478711E+00
          2   -1    0    0  502    0  0.00000000000E+00  0.00000000000E+00  0.11844685773E+04  0.11844685773E+04  0.00000000000E+00 0. -1.
          1   -1    0    0  501    0 -0.00000000000E+00 -0.00000000000E+00 -0.65091701592E+02  0.65091701592E+02  0.00000000000E+00 0.  1.
          2    1    1    2  501    0 -0.17205110611E+02 -0.16926565106E+02  0.11821038293E+04  0.11823501968E+04  0.00000000000E+00 0. -1.
          1    1    1    2  502    0  0.17205110611E+02  0.16926565106E+02 -0.62726953597E+02  0.67210082167E+02  0.00000000000E+00 0.  1.
</event>
<event>
 4    1  0.3767413E+003  0.4611949E+02  0.7546771E-02  0.1315935E+00
          2   -1    0    0  502    0  0.00000000000E+00  0.00000000000E+00  0.60609715838E+03  0.60609715838E+03  0.00000000000E+00 0.  1.
          1   -1    0    0  501    0 -0.00000000000E+00 -0.00000000000E+00 -0.10763516372E+02  0.10763516372E+02  0.00000000000E+00 0.  1.
          2    1    1    2  501    0 -0.33997294711E+02 -0.31163942568E+02  0.55087267495E+03  0.55279988365E+03  0.00000000000E+00 0.  1.
          1    1    1    2  502    0  0.33997294711E+02  0.31163942568E+02  0.44460967057E+02  0.64060791095E+02  0.00000000000E+00 0.  1.
</event>
<event>
 4    1  0.3767413E+003  0.2190830E+02  0.7546771E-02  0.1506681E+00
          2   -1    0    0  502    0  0.00000000000E+00  0.00000000000E+00  0.29494768877E+02  0.29494768877E+02  0.00000000000E+00 0.  1.
          1   -1    0    0  501    0 -0.00000000000E+00 -0.00000000000E+00 -0.14188778440E+03  0.14188778440E+03  0.00000000000E+00 0. -1.
          2    1    1    2  501    0  0.13174025351E+02  0.17504824418E+02  0.24431173224E+02  0.32815484865E+02  0.00000000000E+00 0.  1.
          1    1    1    2  502    0 -0.13174025351E+02 -0.17504824418E+02 -0.13682418875E+03  0.13856706841E+03  0.00000000000E+00 0. -1.
</event>
<event>
 4    1  0.3767413E+003  0.2216337E+02  0.7546771E-02  0.1503280E+00
          2   -1    0    0  502    0  0.00000000000E+00  0.00000000000E+00  0.34247172035E+01  0.34247172035E+01  0.00000000000E+00 0. -1.
          1   -1    0    0  501    0 -0.00000000000E+00 -0.00000000000E+00 -0.42433770533E+03  0.42433770533E+03  0.00000000000E+00 0.  1.
          2    1    1    2  501    0 -0.99433009464E+01 -0.19807720262E+02 -0.36437408376E+02  0.42648560877E+02  0.00000000000E+00 0. -1.
          1    1    1    2  502    0  0.99433009464E+01  0.19807720262E+02 -0.38447557975E+03  0.38511386165E+03  0.00000000000E+00 0.  1.
</event>
<event>
 4    1  0.3767413E+003  0.2111380E+02  0.7546771E-02  0.1517646E+00
          2   -1    0    0  502    0  0.00000000000E+00  0.00000000000E+00  0.15080548554E+04  0.15080548554E+04  0.00000000000E+00 0. -1.
          1   -1    0    0  501    0 -0.00000000000E+00 -0.00000000000E+00 -0.59104212316E+01  0.59104212316E+01  0.00000000000E+00 0.  1.
          2    1    1    2  501    0  0.20252984667E+02  0.59673394007E+01  0.14888819390E+04  0.14890316386E+04  0.00000000000E+00 0. -1.
          1    1    1    2  502    0 -0.20252984667E+02 -0.59673394007E+01  0.13262495211E+02  0.24933638055E+02  0.00000000000E+00 0.  1.
</event>
<event>
 4    1  0.3767413E+003  0.3134511E+02  0.7546771E-02  0.1408257E+00
          2   -1    0    0  502    0  0.00000000000E+00  0.00000000000E+00  0.10395148043E+03  0.10395148043E+03  0.00000000000E+00 0.  1.
          1   -1    0    0  501    0 -0.00000000000E+00 -0.00000000000E+00 -0.13506076086E+04  0.13506076086E+04  0.00000000000E+00 0.  1.
          2    1    1    2  501    0 -0.24378864168E+02  0.19702463184E+02  0.10140222719E+03  0.10613636395E+03  0.00000000000E+00 0.  1.
          1    1    1    2  502    0  0.24378864168E+02 -0.19702463184E+02 -0.13480583554E+04  0.13484227251E+04  0.00000000000E+00 0.  1.
</event>
<event>
 4    1  0.3767413E+003  0.5222918E+02  0.7546771E-02  0.1288786E+00
          2   -1    0    0  502    0  0.00000000000E+00  0.00000000000E+00  0.41955686554E+02  0.41955686554E+02  0.00000000000E+00 0.  1.
          1   -1    0    0  501    0 -0.00000000000E+00 -0.00000000000E+00 -0.10940935936E+03  0.10940935936E+03  0.00000000000E+00 0. -1.
          2    1    1    2  501    0  0.59423231613E+01 -0.51890033355E+02  0.14480839439E+02  0.54199460118E+02  0.00000000000E+00 0.  1.
          1    1    1    2  502    0 -0.59423231613E+01  0.51890033355E+02 -0.81934512240E+02  0.97165585792E+02  0.00000000000E+00 0. -1.
</event>
<event>
 4    1  0.5717667E+003  0.2624689E+02  0.7546771E-02  0.1455323E+00
          2   -1    0    0  502    0  0.00000000000E+00  0.00000000000E+00  0.83867921823E+03  0.83867921823E+03  0.00000000000E+00 0. -1.
          1   -1    0    0  501    0 -0.00000000000E+00 -0.00000000000E+00 -0.85639639201E+03  0.85639639201E+03  0.00000000000E+00 0. -1.
          2    1    1    2  501    0  0.25729275294E+02 -0.51868808487E+01  0.83827266416E+03  0.83868346760E+03  0.00000000000E+00 0. -1.
          1    1    1    2  502    0 -0.25729275294E+02  0.51868808487E+01 -0.85598983793E+03  0.85639214265E+03  0.00000000000E+00 0. -1.
</event>
<event>
 4    1  0.3767413E+003  0.2160861E+02  0.7546771E-02  0.1510750E+00
          2   -1    0    0  502    0  0.00000000000E+00  0.00000000000E+00  0.18738355856E+03  0.18738355856E+03  0.00000000000E+00 0.  1.
          1   -1    0    0  501    0 -0.00000000000E+00 -0.00000000000E+00 -0.12530953836E+02  0.12530953836E+02  0.00000000000E+00 0.  1.
          2    1    1    2  501    0  0.17429881771E+02  0.12772277208E+02  0.17689471256E+03  0.17820962705E+03  0.00000000000E+00 0.  1.
          1    1    1    2  502    0 -0.17429881771E+02 -0.12772277208E+02 -0.20421078272E+01  0.21704885349E+02  0.00000000000E+00 0.  1.
</event>
<event>
 4    1  0.3767413E+003  0.2065627E+02  0.7546771E-02  0.1524229E+00
          2   -1    0    0  502    0  0.00000000000E+00  0.00000000000E+00  0.18195601563E+02  0.18195601563E+02  0.00000000000E+00 0.  1.
          1   -1    0    0  501    0 -0.00000000000E+00 -0.00000000000E+00 -0.29982184026E+02  0.29982184026E+02  0.00000000000E+00 0.  1.
          2    1    1    2  501    0 -0.14228674801E+02 -0.14974193369E+02  0.53507885200E+01  0.21338055005E+02  0.00000000000E+00 0.  1.
          1    1    1    2  502    0  0.14228674801E+02  0.14974193369E+02 -0.17137370983E+02  0.26839730584E+02  0.00000000000E+00 0.  1.
</event>
<event>
 4    1  0.3767413E+003  0.2042946E+02  0.7546771E-02  0.1527569E+00
          2   -1    0    0  502    0  0.00000000000E+00  0.00000000000E+00  0.15435525042E+03  0.15435525042E+03  0.00000000000E+00 0. -1.
          1   -1    0    0  501    0 -0.00000000000E+00 -0.00000000000E+00 -0.16082449181E+03  0.16082449181E+03  0.00000000000E+00 0. -1.
          2    1    1    2  501    0 -0.18515024823E+02 -0.86346305161E+01  0.15302487048E+03  0.15438255722E+03  0.00000000000E+00 0. -1.
          1    1    1    2  502    0  0.18515024823E+02  0.86346305161E+01 -0.15949411187E+03  0.16079718501E+03  0.00000000000E+00 0. -1.
</event>
<event>
 4    1  0.3767413E+003  0.3979425E+02  0.7546771E-02  0.1349696E+00
          2   -1    0    0  502    0  0.00000000000E+00  0.00000000000E+00  0.75182134395E+03  0.75182134395E+03  0.00000000000E+00 0.  1.
          1   -1    0    0  501    0 -0.00000000000E+00 -0.00000000000E+00 -0.21074632034E+01  0.21074632034E+01  0.00000000000E+00 0. -1.
          2    1    1    2  501    0  0.30246540262E+02  0.25859796056E+02  0.38360641714E+03  0.38566496538E+03  0.00000000000E+00 0.  1.
          1    1    1    2  502    0 -0.30246540262E+02 -0.25859796056E+02  0.36610746360E+03  0.36826384177E+03  0.00000000000E+00 0. -1.
</event>
<event>
 4    1  0.3767413E+003  0.2035546E+02  0.7546771E-02  0.1528669E+00
          2   -1    0    0  502    0  0.00000000000E+00  0.00000000000E+00  0.86624278723E+02  0.86624278723E+02  0.00000000000E+00 0.  1.
          1   -1    0    0  501    0 -0.00000000000E+00 -0.00000000000E+00 -0.92640880552E+01  0.92640880552E+01  0.00000000000E+00 0.  1.
          2    1    1    2  501    0  0.13911414953E+02  0.14859920929E+02  0.72023864964E+02  0.74845052210E+02  0.00000000000E+00 0.  1.
          1    1    1    2  502    0 -0.13911414953E+02 -0.14859920929E+02  0.53363257045E+01  0.21043314569E+02  0.00000000000E+00 0.  1.
</event>
<event>
 4    1  0.3767413E+003  0.4885654E+02  0.7546771E-02  0.1303208E+00
          2   -1    0    0  502    0  0.00000000000E+00  0.00000000000E+00  0.28820731463E+02  0.28820731463E+02  0.00000000000E+00 0. -1.
          1   -1    0    0  501    0 -0.00000000000E+00 -0.00000000000E+00 -0.30042221986E+04  0.30042221986E+04  0.00000000000E+00 0.  1.
          2    1    1    2  501    0  0.36893478519E+02  0.32028624890E+02  0.77707581956E+01  0.49470660522E+02  0.00000000000E+00 0. -1.
          1    1    1    2  502    0 -0.36893478519E+02 -0.32028624890E+02 -0.29831722253E+04  0.29835722695E+04  0.00000000000E+00 0.  1.
</event>
<event>
 4    1  0.3767413E+003  0.3784499E+02  0.7546771E-02  0.1361599E+00
          2   -1    0    0  502    0  0.00000000000E+00  0.00000000000E+00  0.67187447738E+03  0.67187447738E+03  0.00000000000E+00 0.  1.
          1   -1    0    0  501    0 -0.00000000000E+00 -0.00000000000E+00 -0.21350963615E+01  0.21350963615E+01  0.00000000000E+00 0.  1.
          2    1    1    2  501    0  0.22560166693E+02  0.30385536765E+02  0.32144965809E+03  0.32366977717E+03  0.00000000000E+00 0.  1.
          1    1    1    2  502    0 -0.22560166693E+02 -0.30385536765E+02  0.34828972293E+03  0.35033979657E+03  0.00000000000E+00 0.  1.
</event>
<event>
 4    1  0.3767413E+003  0.3816698E+02  0.7546771E-02  0.1359575E+00
          2   -1    0    0  502    0  0.00000000000E+00  0.00000000000E+00  0.98001549815E+02  0.98001549815E+02  0.00000000000E+00 0.  1.
          1   -1    0    0  501    0 -0.00000000000E+00 -0.00000000000E+00 -0.18883459656E+02  0.18883459656E+02  0.00000000000E+00 0. -1.
          2    1    1    2  501    0 -0.26438795080E+02  0.27526502413E+02  0.66521479056E+02  0.76693059635E+02  0.00000000000E+00 0.  1.
          1    1    1    2  502    0  0.26438795080E+02 -0.27526502413E+02  0.12596611103E+02  0.40191949837E+02  0.00000000000E+00 0. -1.
</event>
<event>
 4    1  0.3767413E+003  0.2435494E+02  0.7546771E-02  0.1476151E+00
          2   -1    0    0  502    0  0.00000000000E+00  0.00000000000E+00  0.61425412436E+01  0.61425412436E+01  0.00000000000E+00 0.  1.
          1   -1    0    0  501    0 -0.00000000000E+00 -0.00000000000E+00 -0.11917833242E+04  0.11917833242E+04  0.00000000000E+00 0. -1.
          2    1    1    2  501    0 -0.32436699526E+01 -0.24137971180E+02 -0.18636017828E+02  0.30666988896E+02  0.00000000000E+00 0.  1.
          1    1    1    2  502    0  0.32436699526E+01  0.24137971180E+02 -0.11670047651E+04  0.11672588765E+04  0.00000000000E+00 0. -1.
</event>
<event>
 4    1  0.3767413E+003  0.3182233E+02  0.7546771E-02  0.1404395E+00
          2   -1    0    0  502    0  0.00000000000E+00  0.00000000000E+00  0.68311322102E+01  0.68311322102E+01  0.00000000000E+00 0. -1.
          1   -1    0    0  501    0 -0.00000000000E+00 -0.00000000000E+00 -0.76773967728E+03  0.76773967728E+03  0.00000000000E+00 0. -1.
          2    1    1    2  501    0  0.10701433570E+02  0.29968985501E+02 -0.32562646542E+02  0.45530063938E+02  0.00000000000E+00 0. -1.
          1    1    1    2  502    0 -0.10701433570E+02 -0.29968985501E+02 -0.72834589853E+03  0.72904074556E+03  0.00000000000E+00 0. -1.
</event>
<event>
 4    1  0.3767413E+003  0.1027963E+03  0.7546771E-02  0.1159049E+00
          2   -1    0    0  502    0  0.00000000000E+00  0.00000000000E+00  0.52143206114E+02  0.52143206114E+02  0.00000000000E+00 0.  1.
          1   -1    0    0  501    0 -0.00000000000E+00 -0.00000000000E+00 -0.12375993142E+04  0.12375993142E+04  0.00000000000E+00 0. -1.
          2    1    1    2  501    0  0.22692694786E+02 -0.10026028423E+03 -0.30140007294E+01  0.10284049393E+03  0.00000000000E+00 0.  1.
          1    1    1    2  502    0 -0.22692694786E+02  0.10026028423E+03 -0.11824421073E+04  0.11869020264E+04  0.00000000000E+00 0. -1.
</event>
<event>
 4    1  0.3767413E+003  0.2410247E+02  0.7546771E-02  0.1479100E+00
          2   -1    0    0  502    0  0.00000000000E+00  0.00000000000E+00  0.15866133860E+04  0.15866133860E+04  0.00000000000E+00 0.  1.
          1   -1    0    0  501    0 -0.00000000000E+00 -0.00000000000E+00 -0.47889723297E+00  0.47889723297E+00  0.00000000000E+00 0.  1.
          2    1    1    2  501    0 -0.15882586839E+02 -0.18129325676E+02  0.11781157750E+04  0.11783622993E+04  0.00000000000E+00 0.  1.
          1    1    1    2  502    0  0.15882586839E+02  0.18129325676E+02  0.40801871375E+03  0.40872998395E+03  0.00000000000E+00 0.  1.
</event>
<event>
 4    1  0.3767413E+003  0.4500647E+02  0.7546771E-02  0.1321407E+00
          2   -1    0    0  502    0  0.00000000000E+00  0.00000000000E+00  0.20769349231E+04  0.20769349231E+04  0.00000000000E+00 0.  1.
          1   -1    0    0  501    0 -0.00000000000E+00 -0.00000000000E+00 -0.35159173951E+01  0.35159173951E+01  0.00000000000E+00 0.  1.
          2    1    1    2  501    0  0.43239046387E+02 -0.12488676344E+02  0.19209693881E+04  0.19214965450E+04  0.00000000000E+00 0.  1.
          1    1    1    2  502    0 -0.43239046387E+02  0.12488676344E+02  0.15244961755E+03  0.15895429551E+03  0.00000000000E+00 0.  1.
</event>
<event>
 4    1  0.3767413E+003  0.2486710E+02  0.7546771E-02  0.1470296E+00
          2   -1    0    0  502    0  0.00000000000E+00  0.00000000000E+00  0.10179649523E+04  0.10179649523E+04  0.00000000000E+00 0.  1.
          1   -1    0    0  501    0 -0.00000000000E+00 -0.00000000000E+00 -0.73730938821E+01  0.73730938821E+01  0.00000000000E+00 0.  1.
          2    1    1    2  501    0 -0.60395281170E+01 -0.24122535797E+02  0.99639199227E+03  0.99670224986E+03  0.00000000000E+00 0.  1.
          1    1    1    2  502    0  0.60395281170E+01  0.24122535797E+02  0.14199866191E+02  0.28635796357E+02  0.00000000000E+00 0.  1.
</event>
<event>
 4    1  0.3767413E+003  0.2211425E+02  0.7546771E-02  0.1503930E+00
          2   -1    0    0  502    0  0.00000000000E+00  0.00000000000E+00  0.34425825946E+01  0.34425825946E+01  0.00000000000E+00 0. -1.
          1   -1    0    0  501    0 -0.00000000000E+00 -0.00000000000E+00 -0.78182965606E+03  0.78182965606E+03  0.00000000000E+00 0.  1.
          2    1    1    2  501    0  0.22094703861E+02 -0.92965289278E+00 -0.34014530114E+02  0.40571276195E+02  0.00000000000E+00 0. -1.
          1    1    1    2  502    0 -0.22094703861E+02  0.92965289278E+00 -0.74437254335E+03  0.74470096245E+03  0.00000000000E+00 0.  1.
</event>
<event>
 4    1  0.3767413E+003  0.2172052E+02  0.7546771E-02  0.1509221E+00
          2   -1    0    0  502    0  0.00000000000E+00  0.00000000000E+00  0.70101977107E+03  0.70101977107E+03  0.00000000000E+00 0. -1.
          1   -1    0    0  501    0 -0.00000000000E+00 -0.00000000000E+00 -0.41542690392E+02  0.41542690392E+02  0.00000000000E+00 0.  1.
          2    1    1    2  501    0 -0.62168792852E+01  0.20811813493E+02  0.69800010865E+03  0.69833797895E+03  0.00000000000E+00 0. -1.
          1    1    1    2  502    0  0.62168792852E+01 -0.20811813493E+02 -0.38523027974E+02  0.44224482509E+02  0.00000000000E+00 0.  1.
</event>
<event>
 4    1  0.3767413E+003  0.2244737E+02  0.7546771E-02  0.1499557E+00
          2   -1    0    0  502    0  0.00000000000E+00  0.00000000000E+00  0.57465490942E+01  0.57465490942E+01  0.00000000000E+00 0.  1.
          1   -1    0    0  501    0 -0.00000000000E+00 -0.00000000000E+00 -0.24140987895E+03  0.24140987895E+03  0.00000000000E+00 0.  1.
          2    1    1    2  501    0  0.21537003369E+02 -0.63278553477E+01 -0.19218036271E+02  0.29550248485E+02  0.00000000000E+00 0.  1.
          1    1    1    2  502    0 -0.21537003369E+02  0.63278553477E+01 -0.21644529358E+03  0.21760617956E+03  0.00000000000E+00 0.  1.
</event>
<event>
 4    1  0.3767413E+003  0.2783900E+02  0.7546771E-02  0.1439357E+00
          2   -1    0    0  502    0  0.00000000000E+00  0.00000000000E+00  0.28600780858E+02  0.28600780858E+02  0.00000000000E+00 0. -1.
          1   -1    0    0  501    0 -0.00000000000E+00 -0.00000000000E+00 -0.55122173742E+02  0.55122173742E+02  0.00000000000E+00 0. -1.
          2    1    1    2  501    0 -0.18917192462E+02  0.20424245893E+02  0.16587739264E+02  0.32406219848E+02  0.00000000000E+00 0. -1.
          1    1    1    2  502    0  0.18917192462E+02 -0.20424245893E+02 -0.43109132149E+02  0.51316734752E+02  0.00000000000E+00 0. -1.
</event>
<event>
 4    1  0.3767413E+003  0.4341536E+02  0.7546771E-02  0.1329556E+00
          2   -1    0    0  502    0  0.00000000000E+00  0.00000000000E+00  0.68039323240E+03  0.68039323240E+03  0.00000000000E+00 0. -1.
          1   -1    0    0  501    0 -0.00000000000E+00 -0.00000000000E+00 -0.42243020426E+03  0.42243020426E+03  0.00000000000E+00 0. -1.
          2    1    1    2  501    0 -0.14771530607E+02  0.40825177662E+02  0.67858217761E+03  0.67996960595E+03  0.00000000000E+00 0. -1.
          1    1    1    2  502    0  0.14771530607E+02 -0.40825177662E+02 -0.42061914947E+03  0.42285383071E+03  0.00000000000E+00 0. -1.
</event>
<event>
 4    1  0.3767413E+003  0.2421816E+02  0.7546771E-02  0.1477743E+00
          2   -1    0    0  502    0  0.00000000000E+00  0.00000000000E+00  0.82167621916E+02  0.82167621916E+02  0.00000000000E+00 0. -1.
          1   -1    0    0  501    0 -0.00000000000E+00 -0.00000000000E+00 -0.47181079368E+02  0.47181079368E+02  0.00000000000E+00 0. -1.
          2    1    1    2  501    0 -0.23944583800E+02  0.36299339950E+01  0.77074768298E+02  0.80790094828E+02  0.00000000000E+00 0. -1.
          1    1    1    2  502    0  0.23944583800E+02 -0.36299339950E+01 -0.42088225750E+02  0.48558606456E+02  0.00000000000E+00 0. -1.
</event>
<event>
 4    1  0.3767413E+003  0.2194479E+02  0.7546771E-02  0.1506191E+00
          2   -1    0    0  502    0  0.00000000000E+00  0.00000000000E+00  0.41943063582E+00  0.41943063582E+00  0.00000000000E+00 0. -1.
          1   -1    0    0  501    0 -0.00000000000E+00 -0.00000000000E+00 -0.11485989960E+04  0.11485989960E+04  0.00000000000E+00 0. -1.
          2    1    1    2  501    0  0.21252181916E+02 -0.54697274208E+01 -0.58533131486E+03  0.58574253841E+03  0.00000000000E+00 0. -1.
          1    1    1    2  502    0 -0.21252181916E+02  0.54697274208E+01 -0.56284825050E+03  0.56327588821E+03  0.00000000000E+00 0. -1.
</event>
<event>
 4    1  0.3767413E+003  0.4606646E+02  0.7546771E-02  0.1316191E+00
          2   -1    0    0  502    0  0.00000000000E+00  0.00000000000E+00  0.10597546853E+03  0.10597546853E+03  0.00000000000E+00 0.  1.
          1   -1    0    0  501    0 -0.00000000000E+00 -0.00000000000E+00 -0.11065354194E+04  0.11065354194E+04  0.00000000000E+00 0.  1.
          2    1    1    2  501    0 -0.65609823156E+01 -0.45596848455E+02  0.10046481594E+03  0.11052284072E+03  0.00000000000E+00 0.  1.
          1    1    1    2  502    0  0.65609823156E+01  0.45596848455E+02 -0.11010247668E+04  0.11019880472E+04  0.00000000000E+00 0.  1.
</event>
<event>
 4    1  0.3767413E+003  0.4310445E+02  0.7546771E-02  0.1331195E+00
          2   -1    0    0  502    0  0.00000000000E+00  0.00000000000E+00  0.13231470568E+04  0.13231470568E+04  0.00000000000E+00 0.  1.
          1   -1    0    0  501    0 -0.00000000000E+00 -0.00000000000E+00 -0.33948339319E+02  0.33948339319E+02  0.00000000000E+00 0. -1.
          2    1    1    2  501    0 -0.19008926436E+02  0.38686612442E+02  0.13089652957E+04  0.13096748217E+04  0.00000000000E+00 0.  1.
          1    1    1    2  502    0  0.19008926436E+02 -0.38686612442E+02 -0.19766578194E+02  0.47420574438E+02  0.00000000000E+00 0. -1.
</event>
<event>
 4    1  0.3767413E+003  0.2296400E+02  0.7546771E-02  0.1492951E+00
          2   -1    0    0  502    0  0.00000000000E+00  0.00000000000E+00  0.19273230757E+04  0.19273230757E+04  0.00000000000E+00 0.  1.
          1   -1    0    0  501    0 -0.00000000000E+00 -0.00000000000E+00 -0.66296615013E+00  0.66296615013E+00  0.00000000000E+00 0. -1.
          2    1    1    2  501    0  0.27957755544E+01 -0.22793178575E+02  0.17020821034E+04  0.17022370082E+04  0.00000000000E+00 0.  1.
          1    1    1    2  502    0 -0.27957755544E+01  0.22793178575E+02  0.22457800616E+03  0.22574903367E+03  0.00000000000E+00 0. -1.
</event>
<event>
 4    1  0.3767413E+003  0.2491413E+02  0.7546771E-02  0.1469766E+00
          2   -1    0    0  502    0  0.00000000000E+00  0.00000000000E+00  0.16104683960E+03  0.16104683960E+03  0.00000000000E+00 0. -1.
          1   -1    0    0  501    0 -0.00000000000E+00 -0.00000000000E+00 -0.12164354563E+02  0.12164354563E+02  0.00000000000E+00 0. -1.
          2    1    1    2  501    0  0.20857752512E+02 -0.13625998772E+02  0.14602341050E+03  0.14813355493E+03  0.00000000000E+00 0. -1.
          1    1    1    2  502    0 -0.20857752512E+02  0.13625998772E+02  0.28590745389E+01  0.25077639235E+02  0.00000000000E+00 0. -1.
</event>
<event>
 4    1  0.3767413E+003  0.2153880E+02  0.7546771E-02  0.1511709E+00
          2   -1    0    0  502    0  0.00000000000E+00  0.00000000000E+00  0.21711838234E+03  0.21711838234E+03  0.00000000000E+00 0. -1.
          1   -1    0    0  501    0 -0.00000000000E+00 -0.00000000000E+00 -0.48113831627E+01  0.48113831627E+01  0.00000000000E+00 0.  1.
          2    1    1    2  501    0  0.10821738024E+02  0.18622833912E+02  0.18888779941E+03  0.19011186371E+03  0.00000000000E+00 0. -1.
          1    1    1    2  502    0 -0.10821738024E+02 -0.18622833912E+02  0.23419199762E+02  0.31817901789E+02  0.00000000000E+00 0.  1.
</event>
<event>
 4    1  0.3767413E+003  0.4934358E+02  0.7546771E-02  0.1301044E+00
          2   -1    0    0  502    0  0.00000000000E+00  0.00000000000E+00  0.15730890926E+02  0.15730890926E+02  0.00000000000E+00 0. -1.
          1   -1    0    0  501    0 -0.00000000000E+00 -0.00000000000E+00 -0.89148036672E+03  0.89148036672E+03  0.00000000000E+00 0.  1.
          2    1    1    2  501    0  0.47661553092E+02  0.12773603321E+02 -0.25522161898E+02  0.55553301728E+02  0.00000000000E+00 0. -1.
          1    1    1    2  502    0 -0.47661553092E+02 -0.12773603321E+02 -0.85022731389E+03  0.85165795591E+03  0.00000000000E+00 0.  1.
</event>
<event>
 4    1  0.3767413E+003  0.2347337E+02  0.7546771E-02  0.1486638E+00
          2   -1    0    0  502    0  0.00000000000E+00  0.00000000000E+00  0.78193042851E+03  0.78193042851E+03  0.00000000000E+00 0.  1.
          1   -1    0    0  501    0 -0.00000000000E+00 -0.00000000000E+00 -0.71676988311E+00  0.71676988311E+00  0.00000000000E+00 0.  1.
          2    1    1    2  501    0  0.99953037195E+01 -0.21238953907E+02  0.44146030435E+03  0.44208392820E+03  0.00000000000E+00 0.  1.
          1    1    1    2  502    0 -0.99953037195E+01  0.21238953907E+02  0.33975335428E+03  0.34056327019E+03  0.00000000000E+00 0.  1.
</event>
<event>
 4    1  0.3767413E+003  0.3341184E+02  0.7546771E-02  0.1392086E+00
          2   -1    0    0  502    0  0.00000000000E+00  0.00000000000E+00  0.46541482631E+02  0.46541482631E+02  0.00000000000E+00 0.  1.
          1   -1    0    0  501    0 -0.00000000000E+00 -0.00000000000E+00 -0.49356067842E+02  0.49356067842E+02  0.00000000000E+00 0.  1.
          2    1    1    2  501    0  0.22096277978E+02  0.25062029177E+02  0.32969614852E+02  0.46939815833E+02  0.00000000000E+00 0.  1.
          1    1    1    2  502    0 -0.22096277978E+02 -0.25062029177E+02 -0.35784200063E+02  0.48957734640E+02  0.00000000000E+00 0.  1.
</event>
<event>
 4    1  0.3767413E+003  0.3262834E+02  0.7546771E-02  0.1398050E+00
          2   -1    0    0  502    0  0.00000000000E+00  0.00000000000E+00  0.79227293264E+02  0.79227293264E+02  0.00000000000E+00 0. -1.
          1   -1    0    0  501    0 -0.00000000000E+00 -0.00000000000E+00 -0.34714731153E+03  0.34714731153E+03  0.00000000000E+00 0. -1.
          2    1    1    2  501    0 -0.26546140926E+02 -0.18971319290E+02  0.75060540922E+02  0.81845545738E+02  0.00000000000E+00 0. -1.
          1    1    1    2  502    0  0.26546140926E+02  0.18971319290E+02 -0.34298055919E+03  0.34452905905E+03  0.00000000000E+00 0. -1.
</event>
<event>
 4    1  0.3767413E+003  0.2413990E+02  0.7546771E-02  0.1478660E+00
          2   -1    0    0  502    0  0.00000000000E+00  0.00000000000E+00  0.15753011074E+03  0.15753011074E+03  0.00000000000E+00 0.  1.
          1   -1    0    0  501    0 -0.00000000000E+00 -0.00000000000E+00 -0.38943644751E+01  0.38943644751E+01  0.00000000000E+00 0.  1.
          2    1    1    2  501    0  0.21671718751E+02 -0.10633493610E+02  0.94886583841E+02  0.97909133246E+02  0.00000000000E+00 0.  1.
          1    1    1    2  502    0 -0.21671718751E+02  0.10633493610E+02  0.58749162428E+02  0.63515341973E+02  0.00000000000E+00 0.  1.
</event>
<event>
 4    1  0.3767413E+003  0.2453912E+02  0.7546771E-02  0.1474026E+00
          2   -1    0    0  502    0  0.00000000000E+00  0.00000000000E+00  0.11979553935E+03  0.11979553935E+03  0.00000000000E+00 0. -1.
          1   -1    0    0  501    0 -0.00000000000E+00 -0.00000000000E+00 -0.69464074411E+02  0.69464074411E+02  0.00000000000E+00 0.  1.
          2    1    1    2  501    0 -0.23197838501E+02 -0.80017970127E+01  0.11630739867E+03  0.11886790758E+03  0.00000000000E+00 0. -1.
          1    1    1    2  502    0  0.23197838501E+02  0.80017970127E+01 -0.65975933735E+02  0.70391706179E+02  0.00000000000E+00 0.  1.
</event>
<event>
 4    1  0.3767413E+003  0.2187803E+02  0.7546771E-02  0.1507089E+00
          2   -1    0    0  502    0  0.00000000000E+00  0.00000000000E+00  0.91628269862E+02  0.91628269862E+02  0.00000000000E+00 0.  1.
          1   -1    0    0  501    0 -0.00000000000E+00 -0.00000000000E+00 -0.81039438669E+01  0.81039438669E+01  0.00000000000E+00 0.  1.
          2    1    1    2  501    0  0.15930417038E+02 -0.14995663605E+02  0.71490050429E+02  0.74762794385E+02  0.00000000000E+00 0.  1.
          1    1    1    2  502    0 -0.15930417038E+02  0.14995663605E+02  0.12034275566E+02  0.24969419344E+02  0.00000000000E+00 0.  1.
</event>
<event>
 4    1  0.3767413E+003  0.2175360E+02  0.7546771E-02  0.1508772E+00
          2   -1    0    0  502    0  0.00000000000E+00  0.00000000000E+00  0.12507501789E+04  0.12507501789E+04  0.00000000000E+00 0. -1.
          1   -1    0    0  501    0 -0.00000000000E+00 -0.00000000000E+00 -0.40439855783E+00  0.40439855783E+00  0.00000000000E+00 0. -1.
          2    1    1    2  501    0  0.18064928732E+02 -0.12119309508E+02  0.78394764844E+03  0.78424940855E+03  0.00000000000E+00 0. -1.
          1    1    1    2  502    0 -0.18064928732E+02  0.12119309508E+02  0.46639813191E+03  0.46690516892E+03  0.00000000000E+00 0. -1.
</event>
<event>
 4    1  0.3767413E+003  0.2950894E+02  0.7546771E-02  0.1423912E+00
          2   -1    0    0  502    0  0.00000000000E+00  0.00000000000E+00  0.14999004834E+04  0.14999004834E+04  0.00000000000E+00 0.  1.
          1   -1    0    0  501    0 -0.00000000000E+00 -0.00000000000E+00 -0.90993598253E+00  0.90993598253E+00  0.00000000000E+00 0. -1.
          2    1    1    2  501    0 -0.20733417837E+02  0.20997685004E+02  0.12009752667E+04  0.12013377413E+04  0.00000000000E+00 0.  1.
          1    1    1    2  502    0  0.20733417837E+02 -0.20997685004E+02  0.29801528071E+03  0.29947267810E+03  0.00000000000E+00 0. -1.
</event>
<event>
 4    1  0.3767413E+003  0.3027805E+02  0.7546771E-02  0.1417195E+00
          2   -1    0    0  502    0  0.00000000000E+00  0.00000000000E+00  0.18273470381E+04  0.18273470381E+04  0.00000000000E+00 0. -1.
          1   -1    0    0  501    0 -0.00000000000E+00 -0.00000000000E+00 -0.30535996180E+01  0.30535996180E+01  0.00000000000E+00 0.  1.
          2    1    1    2  501    0  0.15643226133E+01 -0.30237615490E+02  0.17487947989E+04  0.17490568914E+04  0.00000000000E+00 0. -1.
          1    1    1    2  502    0 -0.15643226133E+01  0.30237615490E+02  0.75498639599E+02  0.81343746392E+02  0.00000000000E+00 0.  1.
</event>
<event>
 4    1  0.3767413E+003  0.3085247E+02  0.7546771E-02  0.1412330E+00
          2   -1    0    0  502    0  0.00000000000E+00  0.00000000000E+00  0.22409823375E+04  0.22409823375E+04  0.00000000000E+00 0.  1.
          1   -1    0    0  501    0 -0.00000000000E+00 -0.00000000000E+00 -0.42546670443E+00  0.42546670443E+00  0.00000000000E+00 0.  1.
          2    1    1    2  501    0  0.18792352263E+02  0.24468780662E+02  0.10745182096E+04  0.10749610489E+04  0.00000000000E+00 0.  1.
          1    1    1    2  502    0 -0.18792352263E+02 -0.24468780662E+02  0.11660386612E+04  0.11664467554E+04  0.00000000000E+00 0.  1.
</event>
<event>
 4    1  0.3767413E+003  0.2128364E+02  0.7546771E-02  0.1515254E+00
          2   -1    0    0  502    0  0.00000000000E+00  0.00000000000E+00  0.51517247874E+01  0.51517247874E+01  0.00000000000E+00 0. -1.
          1   -1    0    0  501    0 -0.00000000000E+00 -0.00000000000E+00 -0.11585548485E+03  0.11585548485E+03  0.00000000000E+00 0. -1.
          2    1    1    2  501    0  0.19928847156E+02 -0.74722370185E+01 -0.25647525426E+02  0.33328498849E+02  0.00000000000E+00 0. -1.
          1    1    1    2  502    0 -0.19928847156E+02  0.74722370185E+01 -0.85056234638E+02  0.87678710790E+02  0.00000000000E+00 0. -1.
</event>
<event>
 4    1  0.3825107E+003  0.2670930E+02  0.7546771E-02  0.1450550E+00
          2   -1    0    0  502    0  0.00000000000E+00  0.00000000000E+00  0.51569255355E+03  0.51569255355E+03  0.00000000000E+00 0. -1.
          1   -1    0    0  501    0 -0.00000000000E+00 -0.00000000000E+00 -0.73914607540E+03  0.73914607540E+03  0.00000000000E+00 0. -1.
          2    1    1    2  501    0  0.20930407146E+02  0.16592311803E+02  0.51510515193E+03  0.51579715422E+03  0.00000000000E+00 0. -1.
          1    1    1    2  502    0 -0.20930407146E+02 -0.16592311803E+02 -0.73855867378E+03  0.73904147473E+03  0.00000000000E+00 0. -1.
</event>
<event>
 4    1  0.3767413E+003  0.2838245E+02  0.7546771E-02  0.1434194E+00
          2   -1    0    0  502    0  0.00000000000E+00  0.00000000000E+00  0.15391826343E+02  0.15391826343E+02  0.00000000000E+00 0. -1.
          1   -1    0    0  501    0 -0.00000000000E+00 -0.00000000000E+00 -0.20127869787E+03  0.20127869787E+03  0.00000000000E+00 0. -1.
          2    1    1    2  501    0  0.23725588671E+02  0.15577545619E+02  0.24863074542E+00  0.28383539289E+02  0.00000000000E+00 0. -1.
          1    1    1    2  502    0 -0.23725588671E+02 -0.15577545619E+02 -0.18613550227E+03  0.18828698492E+03  0.00000000000E+00 0. -1.
</event>
<event>
 4    1  0.3767413E+003  0.2186302E+02  0.7546771E-02  0.1507291E+00
          2   -1    0    0  502    0  0.00000000000E+00  0.00000000000E+00  0.24986418471E+03  0.24986418471E+03  0.00000000000E+00 0. -1.
          1   -1    0    0  501    0 -0.00000000000E+00 -0.00000000000E+00 -0.23766549045E+02  0.23766549045E+02  0.00000000000E+00 0.  1.
          2    1    1    2  501    0  0.21763701683E+02  0.20815287909E+01  0.24424244935E+03  0.24521901545E+03  0.00000000000E+00 0. -1.
          1    1    1    2  502    0 -0.21763701683E+02 -0.20815287909E+01 -0.18144813689E+02  0.28411718302E+02  0.00000000000E+00 0.  1.
</event>
<event>
 4    1  0.3767413E+003  0.3194365E+02  0.7546771E-02  0.1403426E+00
          2   -1    0    0  502    0  0.00000000000E+00  0.00000000000E+00  0.68627655899E+03  0.68627655899E+03  0.00000000000E+00 0.  1.
          1   -1    0    0  501    0 -0.00000000000E+00 -0.00000000000E+00 -0.48231733676E+01  0.48231733676E+01  0.00000000000E+00 0.  1.
          2    1    1    2  501    0 -0.27394267748E+02 -0.16430182740E+02  0.62812072396E+03  0.62893246114E+03  0.00000000000E+00 0.  1.
          1    1    1    2  502    0  0.27394267748E+02  0.16430182740E+02  0.53332661662E+02  0.62167271215E+02  0.00000000000E+00 0.  1.
</event>
<event>
 4    1  0.3767413E+003  0.2743687E+02  0.7546771E-02  0.1443268E+00
          2   -1    0    0  502    0  0.00000000000E+00  0.00000000000E+00  0.64317171666E+03  0.64317171666E+03  0.00000000000E+00 0. -1.
          1   -1    0    0  501    0 -0.00000000000E+00 -0.00000000000E+00 -0.10502457910E+03  0.10502457910E+03  0.00000000000E+00 0. -1.
          2    1    1    2  501    0 -0.12428055026E+02  0.24460688849E+02  0.64108135287E+03  0.64166820308E+03  0.00000000000E+00 0. -1.
          1    1    1    2  502    0  0.12428055026E+02 -0.24460688849E+02 -0.10293421531E+03  0.10652809269E+03  0.00000000000E+00 0. -1.
</event>
<event>
 4    1  0.3767413E+003  0.2160154E+02  0.7546771E-02  0.1510847E+00
          2   -1    0    0  502    0  0.00000000000E+00  0.00000000000E+00  0.16396919652E+01  0.16396919652E+01  0.00000000000E+00 0. -1.
          1   -1    0    0  501    0 -0.00000000000E+00 -0.00000000000E+00 -0.53305992272E+03  0.53305992272E+03  0.00000000000E+00 0. -1.
          2    1    1    2  501    0 -0.14499871229E+02 -0.16011877364E+02 -0.83179405564E+02  0.85938582676E+02  0.00000000000E+00 0. -1.
          1    1    1    2  502    0  0.14499871229E+02  0.16011877364E+02 -0.44824082520E+03  0.44876103201E+03  0.00000000000E+00 0. -1.
</event>
<event>
 4    1  0.3767413E+003  0.2781169E+02  0.7546771E-02  0.1439621E+00
          2   -1    0    0  502    0  0.00000000000E+00  0.00000000000E+00  0.17144638745E+03  0.17144638745E+03  0.00000000000E+00 0. -1.
          1   -1    0    0  501    0 -0.00000000000E+00 -0.00000000000E+00 -0.14430438936E+02  0.14430438936E+02  0.00000000000E+00 0. -1.
          2    1    1    2  501    0 -0.11625867886E+02 -0.25265174894E+02  0.15556049997E+03  0.15802708318E+03  0.00000000000E+00 0. -1.
          1    1    1    2  502    0  0.11625867886E+02  0.25265174894E+02  0.14554485471E+01  0.27849743213E+02  0.00000000000E+00 0. -1.
</event>
<event>
 4    1  0.3767413E+003  0.1553205E+03  0.7546771E-02  0.1092286E+00
          2   -1    0    0  502    0  0.00000000000E+00  0.00000000000E+00  0.11962888484E+04  0.11962888484E+04  0.00000000000E+00 0.  1.
          1   -1    0    0  501    0 -0.00000000000E+00 -0.00000000000E+00 -0.36909589605E+03  0.36909589605E+03  0.00000000000E+00 0. -1.
          2    1    1    2  501    0 -0.14132875410E+03 -0.64425472156E+02  0.11746067732E+04  0.11848314352E+04  0.00000000000E+00 0.  1.
          1    1    1    2  502    0  0.14132875410E+03  0.64425472156E+02 -0.34741382090E+03  0.38055330921E+03  0.00000000000E+00 0. -1.
</event>
<event>
 4    1  0.3767413E+003  0.2127171E+02  0.7546771E-02  0.1515421E+00
          2   -1    0    0  502    0  0.00000000000E+00  0.00000000000E+00  0.83390541754E+03  0.83390541754E+03  0.00000000000E+00 0. -1.
          1   -1    0    0  501    0 -0.00000000000E+00 -0.00000000000E+00 -0.28012614722E+02  0.28012614722E+02  0.00000000000E+00 0. -1.
          2    1    1    2  501    0  0.31697908935E+01  0.21034212843E+02  0.82971112312E+03  0.82998375497E+03  0.00000000000E+00 0. -1.
          1    1    1    2  502    0 -0.31697908935E+01 -0.21034212843E+02 -0.23818320301E+02  0.31934277293E+02  0.00000000000E+00 0. -1.
</event>
<event>
 4    1  0.3767413E+003  0.2851006E+02  0.7546771E-02  0.1433002E+00
          2   -1    0    0  502    0  0.00000000000E+00  0.00000000000E+00  0.12849617656E+04  0.12849617656E+04  0.00000000000E+00 0.  1.
          1   -1    0    0  501    0 -0.00000000000E+00 -0.00000000000E+00 -0.39908181950E+01  0.39908181950E+01  0.00000000000E+00 0. -1.
          2    1    1    2  501    0 -0.26136393633E+02  0.11389137967E+02  0.12316829982E+04  0.12320129186E+04  0.00000000000E+00 0.  1.
          1    1    1    2  502    0  0.26136393633E+02 -0.11389137967E+02  0.49287949192E+02  0.56939665184E+02  0.00000000000E+00 0. -1.
</event>
<event>
 4    1  0.3767413E+003  0.2845350E+02  0.7546771E-02  0.1433529E+00
          2   -1    0    0  502    0  0.00000000000E+00  0.00000000000E+00  0.86073020053E+01  0.86073020053E+01  0.00000000000E+00 0.  1.
          1   -1    0    0  501    0 -0.00000000000E+00 -0.00000000000E+00 -0.12825488701E+04  0.12825488701E+04  0.00000000000E+00 0. -1.
          2    1    1    2  501    0  0.38096767054E+01 -0.28197305300E+02 -0.15516189804E+02  0.32409162421E+02  0.00000000000E+00 0.  1.
          1    1    1    2  502    0 -0.38096767054E+01  0.28197305300E+02 -0.12584253783E+04  0.12587470097E+04  0.00000000000E+00 0. -1.
</event>
<event>
 4    1  0.3767413E+003  0.6347028E+02  0.7546771E-02  0.1248477E+00
          2   -1    0    0  502    0  0.00000000000E+00  0.00000000000E+00  0.15499626344E+04  0.15499626344E+04  0.00000000000E+00 0.  1.
          1   -1    0    0  501    0 -0.00000000000E+00 -0.00000000000E+00 -0.31815079807E+03  0.31815079807E+03  0.00000000000E+00 0.  1.
          2    1    1    2  501    0  0.59812722512E+02 -0.21234738220E+02  0.15461395008E+04  0.15474417054E+04  0.00000000000E+00 0.  1.
          1    1    1    2  502    0 -0.59812722512E+02  0.21234738220E+02 -0.31432766444E+03  0.32067172703E+03  0.00000000000E+00 0.  1.
</event>
<event>
 4    1  0.3767413E+003  0.2802357E+02  0.7546771E-02  0.1437588E+00
          2   -1    0    0  502    0  0.00000000000E+00  0.00000000000E+00  0.10442025053E+03  0.10442025053E+03  0.00000000000E+00 0.  1.
          1   -1    0    0  501    0 -0.00000000000E+00 -0.00000000000E+00 -0.91231306982E+01  0.91231306982E+01  0.00000000000E+00 0.  1.
          2    1    1    2  501    0  0.23500446497E+02 -0.15265960864E+02  0.71441066823E+02  0.76740775182E+02  0.00000000000E+00 0.  1.
          1    1    1    2  502    0 -0.23500446497E+02  0.15265960864E+02  0.23856053009E+02  0.36802606047E+02  0.00000000000E+00 0.  1.
</event>
<event>
 4    1  0.3767413E+003  0.2984600E+02  0.7546771E-02  0.1420940E+00
          2   -1    0    0  502    0  0.00000000000E+00  0.00000000000E+00  0.10594839652E+02  0.10594839652E+02  0.00000000000E+00 0.  1.
          1   -1    0    0  501    0 -0.00000000000E+00 -0.00000000000E+00 -0.52217424863E+03  0.52217424863E+03  0.00000000000E+00 0.  1.
          2    1    1    2  501    0 -0.20268841390E+02  0.21907941999E+02 -0.11791579186E+02  0.32090889573E+02  0.00000000000E+00 0.  1.
          1    1    1    2  502    0  0.20268841390E+02 -0.21907941999E+02 -0.49978782979E+03  0.50067819870E+03  0.00000000000E+00 0.  1.
</event>
<event>
 4    1  0.3767413E+003  0.4019443E+02  0.7546771E-02  0.1347350E+00
          2   -1    0    0  502    0  0.00000000000E+00  0.00000000000E+00  0.17604546681E+04  0.17604546681E+04  0.00000000000E+00 0.  1.
          1   -1    0    0  501    0 -0.00000000000E+00 -0.00000000000E+00 -0.12855780201E+01  0.12855780201E+01  0.00000000000E+00 0.  1.
          2    1    1    2  501    0 -0.30454346272E+02 -0.26232138494E+02  0.13507862498E+04  0.13513841367E+04  0.00000000000E+00 0.  1.
          1    1    1    2  502    0  0.30454346272E+02  0.26232138494E+02  0.40838284027E+03  0.41035610940E+03  0.00000000000E+00 0.  1.
</event>
<event>
 4    1  0.3767413E+003  0.3849022E+02  0.7546771E-02  0.1357568E+00
          2   -1    0    0  502    0  0.00000000000E+00  0.00000000000E+00  0.96375294398E+02  0.96375294398E+02  0.00000000000E+00 0.  1.
          1   -1    0    0  501    0 -0.00000000000E+00 -0.00000000000E+00 -0.61160024047E+03  0.61160024047E+03  0.00000000000E+00 0. -1.
          2    1    1    2  501    0 -0.28335737576E+02 -0.26049627128E+02  0.91898360201E+02  0.99633356388E+02  0.00000000000E+00 0.  1.
          1    1    1    2  502    0  0.28335737576E+02  0.26049627128E+02 -0.60712330627E+03  0.60834217848E+03  0.00000000000E+00 0. -1.
</event>
<event>
 4    1  0.3767413E+003  0.2099242E+02  0.7546771E-02  0.1519373E+00
          2   -1    0    0  502    0  0.00000000000E+00  0.00000000000E+00  0.14732947049E+04  0.14732947049E+04  0.00000000000E+00 0. -1.
          1   -1    0    0  501    0 -0.00000000000E+00 -0.00000000000E+00 -0.94770857809E+02  0.94770857809E+02  0.00000000000E+00 0.  1.
          2    1    1    2  501    0 -0.20676115732E+02 -0.36304108692E+01  0.14720564563E+04  0.14722061311E+04  0.00000000000E+00 0. -1.
          1    1    1    2  502    0  0.20676115732E+02  0.36304108692E+01 -0.93532609250E+02  0.95859431659E+02  0.00000000000E+00 0.  1.
</event>
<event>
 4    1  0.3767413E+003  0.3872037E+02  0.7546771E-02  0.1356152E+00
          2   -1    0    0  502    0  0.00000000000E+00  0.00000000000E+00  0.26382355902E+02  0.26382355902E+02  0.00000000000E+00 0. -1.
          1   -1    0    0  501    0 -0.00000000000E+00 -0.00000000000E+00 -0.24684597566E+03  0.24684597566E+03  0.00000000000E+00 0. -1.
          2    1    1    2  501    0  0.10132966708E+02  0.37370983224E+02  0.96296549995E+01  0.39899845324E+02  0.00000000000E+00 0. -1.
          1    1    1    2  502    0 -0.10132966708E+02 -0.37370983224E+02 -0.23009327475E+03  0.23332848623E+03  0.00000000000E+00 0. -1.
</event>
<event>
 4    1  0.3767413E+003  0.2451577E+02  0.7546771E-02  0.1474294E+00
          2   -1    0    0  502    0  0.00000000000E+00  0.00000000000E+00  0.89182869299E+02  0.89182869299E+02  0.00000000000E+00 0. -1.
          1   -1    0    0  501    0 -0.00000000000E+00 -0.00000000000E+00 -0.93376589083E+01  0.93376589083E+01  0.00000000000E+00 0. -1.
          2    1    1    2  501    0 -0.82059824347E+00  0.24502024903E+02  0.13936910259E+02  0.28200355909E+02  0.00000000000E+00 0. -1.
          1    1    1    2  502    0  0.82059824347E+00 -0.24502024903E+02  0.65908300132E+02  0.70320172299E+02  0.00000000000E+00 0. -1.
</event>
<event>
 4    1  0.3767413E+003  0.2183034E+02  0.7546771E-02  0.1507732E+00
          2   -1    0    0  502    0  0.00000000000E+00  0.00000000000E+00  0.35349063554E+01  0.35349063554E+01  0.00000000000E+00 0.  1.
          1   -1    0    0  501    0 -0.00000000000E+00 -0.00000000000E+00 -0.26769951815E+03  0.26769951815E+03  0.00000000000E+00 0.  1.
          2    1    1    2  501    0 -0.62464412128E+01  0.20917597761E+02 -0.36533413395E+02  0.42558832435E+02  0.00000000000E+00 0.  1.
          1    1    1    2  502    0  0.62464412128E+01 -0.20917597761E+02 -0.22763119840E+03  0.22867559207E+03  0.00000000000E+00 0.  1.
</event>
<event>
 4    1  0.3767413E+003  0.3494333E+02  0.7546771E-02  0.1380962E+00
          2   -1    0    0  502    0  0.00000000000E+00  0.00000000000E+00  0.14415287822E+03  0.14415287822E+03  0.00000000000E+00 0. -1.
          1   -1    0    0  501    0 -0.00000000000E+00 -0.00000000000E+00 -0.95409654447E+02  0.95409654447E+02  0.00000000000E+00 0.  1.
          2    1    1    2  501    0 -0.17012762280E+02  0.30522155114E+02  0.13871225588E+03  0.14304588762E+03  0.00000000000E+00 0. -1.
          1    1    1    2  502    0  0.17012762280E+02 -0.30522155114E+02 -0.89969032107E+02  0.96516645049E+02  0.00000000000E+00 0.  1.
</event>
<event>
 4    1  0.3767413E+003  0.2198116E+02  0.7546771E-02  0.1505704E+00
          2   -1    0    0  502    0  0.00000000000E+00  0.00000000000E+00  0.50756985814E+02  0.50756985814E+02  0.00000000000E+00 0.  1.
          1   -1    0    0  501    0 -0.00000000000E+00 -0.00000000000E+00 -0.24210070376E+02  0.24210070376E+02  0.00000000000E+00 0.  1.
          2    1    1    2  501    0 -0.11708899251E+02  0.18603041566E+02  0.42472228901E+02  0.47823233945E+02  0.00000000000E+00 0.  1.
          1    1    1    2  502    0  0.11708899251E+02 -0.18603041566E+02 -0.15925313462E+02  0.27143822245E+02  0.00000000000E+00 0.  1.
</event>
<event>
 4    1  0.3767413E+003  0.2081193E+02  0.7546771E-02  0.1521967E+00
          2   -1    0    0  502    0  0.00000000000E+00  0.00000000000E+00  0.68568532502E+03  0.68568532502E+03  0.00000000000E+00 0.  1.
          1   -1    0    0  501    0 -0.00000000000E+00 -0.00000000000E+00 -0.10428470380E+01  0.10428470380E+01  0.00000000000E+00 0.  1.
          2    1    1    2  501    0  0.15357077352E+02 -0.14046234407E+02  0.55792261900E+03  0.55831065305E+03  0.00000000000E+00 0.  1.
          1    1    1    2  502    0 -0.15357077352E+02  0.14046234407E+02  0.12671985899E+03  0.12841751901E+03  0.00000000000E+00 0.  1.
</event>
<event>
 4    1  0.3767413E+003  0.2740536E+02  0.7546771E-02  0.1443578E+00
          2   -1    0    0  502    0  0.00000000000E+00  0.00000000000E+00  0.21565215870E+03  0.21565215870E+03  0.00000000000E+00 0.  1.
          1   -1    0    0  501    0 -0.00000000000E+00 -0.00000000000E+00 -0.48750850238E+03  0.48750850238E+03  0.00000000000E+00 0. -1.
          2    1    1    2  501    0  0.27399626574E+02  0.56063667954E+00  0.21439408127E+03  0.21613855725E+03  0.00000000000E+00 0.  1.
          1    1    1    2  502    0 -0.27399626574E+02 -0.56063667954E+00 -0.48625042495E+03  0.48702210382E+03  0.00000000000E+00 0. -1.
</event>
<event>
 4    1  0.3767413E+003  0.4375472E+02  0.7546771E-02  0.1327785E+00
          2   -1    0    0  502    0  0.00000000000E+00  0.00000000000E+00  0.35699004033E+03  0.35699004033E+03  0.00000000000E+00 0.  1.
          1   -1    0    0  501    0 -0.00000000000E+00 -0.00000000000E+00 -0.14889874827E+02  0.14889874827E+02  0.00000000000E+00 0. -1.
          2    1    1    2  501    0  0.35080952158E+02  0.26149619278E+02  0.31978275437E+03  0.32276227441E+03  0.00000000000E+00 0.  1.
          1    1    1    2  502    0 -0.35080952158E+02 -0.26149619278E+02  0.22317411136E+02  0.49117640747E+02  0.00000000000E+00 0. -1.
</event>
<event>
 4    1  0.3767413E+003  0.2755630E+02  0.7546771E-02  0.1442099E+00
          2   -1    0    0  502    0  0.00000000000E+00  0.00000000000E+00  0.17456505289E+04  0.17456505289E+04  0.00000000000E+00 0.  1.
          1   -1    0    0  501    0 -0.00000000000E+00 -0.00000000000E+00 -0.55808418283E+00  0.55808418283E+00  0.00000000000E+00 0. -1.
          2    1    1    2  501    0  0.27550269127E+02  0.57656097798E+00  0.12825857387E+04  0.12828817275E+04  0.00000000000E+00 0.  1.
          1    1    1    2  502    0 -0.27550269127E+02 -0.57656097798E+00  0.46250670597E+03  0.46332688550E+03  0.00000000000E+00 0. -1.
</event>
<event>
 4    1  0.3767413E+003  0.2475761E+02  0.7546771E-02  0.1471533E+00
          2   -1    0    0  502    0  0.00000000000E+00  0.00000000000E+00  0.26546588666E+03  0.26546588666E+03  0.00000000000E+00 0.  1.
          1   -1    0    0  501    0 -0.00000000000E+00 -0.00000000000E+00 -0.24862447927E+01  0.24862447927E+01  0.00000000000E+00 0.  1.
          2    1    1    2  501    0  0.21082334861E+02  0.12979744453E+02  0.95709511376E+02  0.98859744978E+02  0.00000000000E+00 0.  1.
          1    1    1    2  502    0 -0.21082334861E+02 -0.12979744453E+02  0.16727013049E+03  0.16909238648E+03  0.00000000000E+00 0.  1.
</event>
<event>
 4    1  0.3767413E+003  0.5656266E+02  0.7546771E-02  0.1271981E+00
          2   -1    0    0  502    0  0.00000000000E+00  0.00000000000E+00  0.91467088016E+03  0.91467088016E+03  0.00000000000E+00 0.  1.
          1   -1    0    0  501    0 -0.00000000000E+00 -0.00000000000E+00 -0.24680406752E+02  0.24680406752E+02  0.00000000000E+00 0.  1.
          2    1    1    2  501    0  0.55954313588E+02  0.82733765904E+01  0.88011780078E+03  0.88193348798E+03  0.00000000000E+00 0.  1.
          1    1    1    2  502    0 -0.55954313588E+02 -0.82733765904E+01  0.98726726276E+01  0.57417798932E+02  0.00000000000E+00 0.  1.
</event>
<event>
 4    1  0.3767413E+003  0.3872483E+02  0.7546771E-02  0.1356125E+00
          2   -1    0    0  502    0  0.00000000000E+00  0.00000000000E+00  0.86405681235E+03  0.86405681235E+03  0.00000000000E+00 0. -1.
          1   -1    0    0  501    0 -0.00000000000E+00 -0.00000000000E+00 -0.38463523389E+02  0.38463523389E+02  0.00000000000E+00 0. -1.
          2    1    1    2  501    0 -0.73302773151E+01  0.38024725891E+02  0.85375843374E+03  0.85463622433E+03  0.00000000000E+00 0. -1.
          1    1    1    2  502    0  0.73302773151E+01 -0.38024725891E+02 -0.28165144786E+02  0.47884111409E+02  0.00000000000E+00 0. -1.
</event>
<event>
 4    1  0.3767413E+003  0.2197895E+02  0.7546771E-02  0.1505734E+00
          2   -1    0    0  502    0  0.00000000000E+00  0.00000000000E+00  0.83456614066E+03  0.83456614066E+03  0.00000000000E+00 0. -1.
          1   -1    0    0  501    0 -0.00000000000E+00 -0.00000000000E+00 -0.20468555735E+02  0.20468555735E+02  0.00000000000E+00 0.  1.
          2    1    1    2  501    0  0.21975398482E+02  0.39493273117E+00  0.82847788339E+03  0.82876937527E+03  0.00000000000E+00 0. -1.
          1    1    1    2  502    0 -0.21975398482E+02 -0.39493273117E+00 -0.14380298463E+02  0.26265321133E+02  0.00000000000E+00 0.  1.
</event>
<event>
 4    1  0.3767413E+003  0.3019638E+02  0.7546771E-02  0.1417897E+00
          2   -1    0    0  502    0  0.00000000000E+00  0.00000000000E+00  0.40246612354E+01  0.40246612354E+01  0.00000000000E+00 0.  1.
          1   -1    0    0  501    0 -0.00000000000E+00 -0.00000000000E+00 -0.14502407631E+04  0.14502407631E+04  0.00000000000E+00 0. -1.
          2    1    1    2  501    0  0.29788794318E+02 -0.49446245563E+01 -0.55182672083E+02  0.62904283456E+02  0.00000000000E+00 0.  1.
          1    1    1    2  502    0 -0.29788794318E+02  0.49446245563E+01 -0.13910334298E+04  0.13913611409E+04  0.00000000000E+00 0. -1.
</event>
<event>
 4    1  0.3767413E+003  0.2799934E+02  0.7546771E-02  0.1437820E+00
          2   -1    0    0  502    0  0.00000000000E+00  0.00000000000E+00  0.10863426151E+02  0.10863426151E+02  0.00000000000E+00 0. -1.
          1   -1    0    0  501    0 -0.00000000000E+00 -0.00000000000E+00 -0.17398912290E+03  0.17398912290E+03  0.00000000000E+00 0. -1.
          2    1    1    2  501    0 -0.18641412260E+02  0.20891649597E+02 -0.10856415510E+02  0.30030401790E+02  0.00000000000E+00 0. -1.
          1    1    1    2  502    0  0.18641412260E+02 -0.20891649597E+02 -0.15226928124E+03  0.15482214726E+03  0.00000000000E+00 0. -1.
</event>
<event>
 4    1  0.3767413E+003  0.2032398E+02  0.7546771E-02  0.1529139E+00
          2   -1    0    0  502    0  0.00000000000E+00  0.00000000000E+00  0.68442849604E+03  0.68442849604E+03  0.00000000000E+00 0. -1.
          1   -1    0    0  501    0 -0.00000000000E+00 -0.00000000000E+00 -0.33615563561E+01  0.33615563561E+01  0.00000000000E+00 0. -1.
          2    1    1    2  501    0  0.41024427006E+01  0.19905626296E+02  0.65203196526E+03  0.65234863969E+03  0.00000000000E+00 0. -1.
          1    1    1    2  502    0 -0.41024427006E+01 -0.19905626296E+02  0.29034974430E+02  0.35441412704E+02  0.00000000000E+00 0. -1.
</event>
<event>
 4    1  0.3767413E+003  0.3315380E+02  0.7546771E-02  0.1394029E+00
          2   -1    0    0  502    0  0.00000000000E+00  0.00000000000E+00  0.47199791551E+03  0.47199791551E+03  0.00000000000E+00 0. -1.
          1   -1    0    0  501    0 -0.00000000000E+00 -0.00000000000E+00 -0.17708134419E+03  0.17708134419E+03  0.00000000000E+00 0.  1.
          2    1    1    2  501    0 -0.22598185744E+02 -0.24258941063E+02  0.46985686796E+03  0.47102510611E+03  0.00000000000E+00 0. -1.
          1    1    1    2  502    0  0.22598185744E+02  0.24258941063E+02 -0.17494029664E+03  0.17805415359E+03  0.00000000000E+00 0.  1.
</event>
<event>
 4    1  0.3767413E+003  0.2055334E+02  0.7546771E-02  0.1525739E+00
          2   -1    0    0  502    0  0.00000000000E+00  0.00000000000E+00  0.17261641689E+03  0.17261641689E+03  0.00000000000E+00 0. -1.
          1   -1    0    0  501    0 -0.00000000000E+00 -0.00000000000E+00 -0.27865984356E+01  0.27865984356E+01  0.00000000000E+00 0. -1.
          2    1    1    2  501    0 -0.34844439376E+01 -0.20255820022E+02  0.11551887514E+03  0.11733307338E+03  0.00000000000E+00 0. -1.
          1    1    1    2  502    0  0.34844439376E+01  0.20255820022E+02  0.54310943315E+02  0.58069941950E+02  0.00000000000E+00 0. -1.
</event>
<event>
 4    1  0.3767413E+003  0.2519133E+02  0.7546771E-02  0.1466674E+00
          2   -1    0    0  502    0  0.00000000000E+00  0.00000000000E+00  0.13126435902E+03  0.13126435902E+03  0.00000000000E+00 0.  1.
          1   -1    0    0  501    0 -0.00000000000E+00 -0.00000000000E+00 -0.81270069044E+01  0.81270069044E+01  0.00000000000E+00 0. -1.
          2    1    1    2  501    0 -0.24783435298E+02 -0.45149276746E+01  0.10592964774E+03  0.10888385329E+03  0.00000000000E+00 0.  1.
          1    1    1    2  502    0  0.24783435298E+02  0.45149276746E+01  0.17207704370E+02  0.30507512628E+02  0.00000000000E+00 0. -1.
</event>
<event>
 4    1  0.3767413E+003  0.6339805E+02  0.7546771E-02  0.1248705E+00
          2   -1    0    0  502    0  0.00000000000E+00  0.00000000000E+00  0.10701011302E+04  0.10701011302E+04  0.00000000000E+00 0.  1.
          1   -1    0    0  501    0 -0.00000000000E+00 -0.00000000000E+00 -0.10689323848E+03  0.10689323848E+03  0.00000000000E+00 0.  1.
          2    1    1    2  501    0 -0.46557611590E+02  0.43031398235E+02  0.10596693739E+04  0.10615641735E+04  0.00000000000E+00 0.  1.
          1    1    1    2  502    0  0.46557611590E+02 -0.43031398235E+02 -0.96461482150E+02  0.11543019522E+03  0.00000000000E+00 0.  1.
</event>
<event>
 4    1  0.3767413E+003  0.2718260E+02  0.7546771E-02  0.1445782E+00
          2   -1    0    0  502    0  0.00000000000E+00  0.00000000000E+00  0.15239214853E+04  0.15239214853E+04  0.00000000000E+00 0.  1.
          1   -1    0    0  501    0 -0.00000000000E+00 -0.00000000000E+00 -0.55817873730E+01  0.55817873730E+01  0.00000000000E+00 0.  1.
          2    1    1    2  501    0  0.13331491998E+02  0.23688919218E+02  0.14899518686E+04  0.14901998068E+04  0.00000000000E+00 0.  1.
          1    1    1    2  502    0 -0.13331491998E+02 -0.23688919218E+02  0.28387829341E+02  0.39303465843E+02  0.00000000000E+00 0.  1.
</event>
<event>
 4    1  0.3767413E+003  0.3626724E+02  0.7546771E-02  0.1371866E+00
          2   -1    0    0  502    0  0.00000000000E+00  0.00000000000E+00  0.22133921836E+02  0.22133921836E+02  0.00000000000E+00 0. -1.
          1   -1    0    0  501    0 -0.00000000000E+00 -0.00000000000E+00 -0.67998163959E+02  0.67998163959E+02  0.00000000000E+00 0. -1.
          2    1    1    2  501    0  0.60757482730E+01 -0.35754676580E+02 -0.38933875826E+02  0.53208629951E+02  0.00000000000E+00 0. -1.
          1    1    1    2  502    0 -0.60757482730E+01  0.35754676580E+02 -0.69303662978E+01  0.36923455844E+02  0.00000000000E+00 0. -1.
</event>
<event>
 4    1  0.3767413E+003  0.2318421E+02  0.7546771E-02  0.1490198E+00
          2   -1    0    0  502    0  0.00000000000E+00  0.00000000000E+00  0.18945234280E+01  0.18945234280E+01  0.00000000000E+00 0.  1.
          1   -1    0    0  501    0 -0.00000000000E+00 -0.00000000000E+00 -0.76522506068E+03  0.76522506068E+03  0.00000000000E+00 0. -1.
          2    1    1    2  501    0 -0.66166739414E+01 -0.22219976804E+02 -0.77408362954E+02  0.80805707709E+02  0.00000000000E+00 0.  1.
          1    1    1    2  502    0  0.66166739414E+01  0.22219976804E+02 -0.68592217430E+03  0.68631387640E+03  0.00000000000E+00 0. -1.
</event>
<event>
 4    1  0.3767413E+003  0.2564731E+02  0.7546771E-02  0.1461691E+00
          2   -1    0    0  502    0  0.00000000000E+00  0.00000000000E+00  0.65989993252E+03  0.65989993252E+03  0.00000000000E+00 0.  1.
          1   -1    0    0  501    0 -0.00000000000E+00 -0.00000000000E+00 -0.50673636497E+01  0.50673636497E+01  0.00000000000E+00 0. -1.
          2    1    1    2  501    0 -0.22680351534E+02 -0.11974395622E+02  0.62540981380E+03  0.62593547566E+03  0.00000000000E+00 0.  1.
          1    1    1    2  502    0  0.22680351534E+02  0.11974395622E+02  0.29422755075E+02  0.39031820511E+02  0.00000000000E+00 0. -1.
</event>
<event>
 4    1  0.3767413E+003  0.2180237E+02  0.7546771E-02  0.1508110E+00
          2   -1    0    0  502    0  0.00000000000E+00  0.00000000000E+00  0.13288170915E+04  0.13288170915E+04  0.00000000000E+00 0.  1.
          1   -1    0    0  501    0 -0.00000000000E+00 -0.00000000000E+00 -0.46996143135E+00  0.46996143135E+00  0.00000000000E+00 0.  1.
          2    1    1    2  501    0  0.10402912968E+02 -0.19160448035E+02  0.98898839166E+03  0.98922868044E+03  0.00000000000E+00 0.  1.
          1    1    1    2  502    0 -0.10402912968E+02  0.19160448035E+02  0.33935873844E+03  0.34005837252E+03  0.00000000000E+00 0.  1.
</event>
<event>
 4    1  0.3767413E+003  0.4904751E+02  0.7546771E-02  0.1302356E+00
          2   -1    0    0  502    0  0.00000000000E+00  0.00000000000E+00  0.74740727250E+02  0.74740727250E+02  0.00000000000E+00 0.  1.
          1   -1    0    0  501    0 -0.00000000000E+00 -0.00000000000E+00 -0.66930627506E+03  0.66930627506E+03  0.00000000000E+00 0.  1.
          2    1    1    2  501    0 -0.21259066291E+02 -0.44200790811E+02  0.65685277208E+02  0.81976908027E+02  0.00000000000E+00 0.  1.
          1    1    1    2  502    0  0.21259066291E+02  0.44200790811E+02 -0.66025082501E+03  0.66207009428E+03  0.00000000000E+00 0.  1.
</event>
<event>
 4    1  0.3767413E+003  0.3597486E+02  0.7546771E-02  0.1373836E+00
          2   -1    0    0  502    0  0.00000000000E+00  0.00000000000E+00  0.22841101320E+03  0.22841101320E+03  0.00000000000E+00 0.  1.
          1   -1    0    0  501    0 -0.00000000000E+00 -0.00000000000E+00 -0.17873547918E+02  0.17873547918E+02  0.00000000000E+00 0.  1.
          2    1    1    2  501    0  0.32561080250E+02  0.15295961088E+02  0.20703760673E+03  0.21013986050E+03  0.00000000000E+00 0.  1.
          1    1    1    2  502    0 -0.32561080250E+02 -0.15295961088E+02  0.34998585540E+01  0.36144700615E+02  0.00000000000E+00 0.  1.
</event>
<event>
 4    1  0.3767413E+003  0.3954988E+02  0.7546771E-02  0.1351144E+00
          2   -1    0    0  502    0  0.00000000000E+00  0.00000000000E+00  0.90226556230E+03  0.90226556230E+03  0.00000000000E+00 0. -1.
          1   -1    0    0  501    0 -0.00000000000E+00 -0.00000000000E+00 -0.75569334460E+01  0.75569334460E+01  0.00000000000E+00 0.  1.
          2    1    1    2  501    0 -0.33729448902E+02  0.20652303756E+02  0.84669047644E+03  0.84761368339E+03  0.00000000000E+00 0. -1.
          1    1    1    2  502    0  0.33729448902E+02 -0.20652303756E+02  0.48018152414E+02  0.62208812358E+02  0.00000000000E+00 0.  1.
</event>
<event>
 4    1  0.3767413E+003  0.2209155E+02  0.7546771E-02  0.1504232E+00
          2   -1    0    0  502    0  0.00000000000E+00  0.00000000000E+00  0.68481263950E+01  0.68481263950E+01  0.00000000000E+00 0. -1.
          1   -1    0    0  501    0 -0.00000000000E+00 -0.00000000000E+00 -0.11988254700E+04  0.11988254700E+04  0.00000000000E+00 0.  1.
          2    1    1    2  501    0  0.13885669263E+02  0.17182102653E+02 -0.11344584715E+02  0.24834171313E+02  0.00000000000E+00 0. -1.
          1    1    1    2  502    0 -0.13885669263E+02 -0.17182102653E+02 -0.11806327589E+04  0.11808394251E+04  0.00000000000E+00 0.  1.
</event>
<event>
 4    1  0.3767413E+003  0.2036786E+02  0.7546771E-02  0.1528485E+00
          2   -1    0    0  502    0  0.00000000000E+00  0.00000000000E+00  0.66045968319E+02  0.66045968319E+02  0.00000000000E+00 0.  1.
          1   -1    0    0  501    0 -0.00000000000E+00 -0.00000000000E+00 -0.10241647820E+02  0.10241647820E+02  0.00000000000E+00 0.  1.
          2    1    1    2  501    0  0.19178719725E+02 -0.68575722151E+01  0.51621899310E+02  0.55494775208E+02  0.00000000000E+00 0.  1.
          1    1    1    2  502    0 -0.19178719725E+02  0.68575722151E+01  0.41824211892E+01  0.20792840931E+02  0.00000000000E+00 0.  1.
</event>
<event>
 4    1  0.3767413E+003  0.2149898E+02  0.7546771E-02  0.1512259E+00
          2   -1    0    0  502    0  0.00000000000E+00  0.00000000000E+00  0.17344863252E+01  0.17344863252E+01  0.00000000000E+00 0.  1.
          1   -1    0    0  501    0 -0.00000000000E+00 -0.00000000000E+00 -0.13894166115E+04  0.13894166115E+04  0.00000000000E+00 0.  1.
          2    1    1    2  501    0 -0.42284925390E+01 -0.21079041336E+02 -0.68516251916E+02  0.71810047413E+02  0.00000000000E+00 0.  1.
          1    1    1    2  502    0  0.42284925390E+01  0.21079041336E+02 -0.13191658733E+04  0.13193410504E+04  0.00000000000E+00 0.  1.
</event>
<event>
 4    1  0.3767413E+003  0.2184927E+02  0.7546771E-02  0.1507477E+00
          2   -1    0    0  502    0  0.00000000000E+00  0.00000000000E+00  0.12048167477E+02  0.12048167477E+02  0.00000000000E+00 0. -1.
          1   -1    0    0  501    0 -0.00000000000E+00 -0.00000000000E+00 -0.26494467455E+03  0.26494467455E+03  0.00000000000E+00 0.  1.
          2    1    1    2  501    0  0.19841278406E+02 -0.91495395308E+01  0.12726462683E+01  0.21886297789E+02  0.00000000000E+00 0. -1.
          1    1    1    2  502    0 -0.19841278406E+02  0.91495395308E+01 -0.25416915335E+03  0.25510654424E+03  0.00000000000E+00 0.  1.
</event>
<event>
 4    1  0.3767413E+003  0.2558493E+02  0.7546771E-02  0.1462365E+00
          2   -1    0    0  502    0  0.00000000000E+00  0.00000000000E+00  0.27319059303E+01  0.27319059303E+01  0.00000000000E+00 0.  1.
          1   -1    0    0  501    0 -0.00000000000E+00 -0.00000000000E+00 -0.66484559027E+03  0.66484559027E+03  0.00000000000E+00 0. -1.
          2    1    1    2  501    0  0.14143630853E+02  0.21320092764E+02 -0.64108811140E+02  0.69025562764E+02  0.00000000000E+00 0.  1.
          1    1    1    2  502    0 -0.14143630853E+02 -0.21320092764E+02 -0.59800487320E+03  0.59855193344E+03  0.00000000000E+00 0. -1.
</event>
<event>
 4    1  0.3767413E+003  0.6969222E+02  0.7546771E-02  0.1230039E+00
          2   -1    0    0  502    0  0.00000000000E+00  0.00000000000E+00  0.52069160458E+02  0.52069160458E+02  0.00000000000E+00 0. -1.
          1   -1    0    0  501    0 -0.00000000000E+00 -0.00000000000E+00 -0.46696190807E+03  0.46696190807E+03  0.00000000000E+00 0.  1.
          2    1    1    2  501    0 -0.43030091844E+02  0.54821683154E+02  0.24706321155E+02  0.73941923514E+02  0.00000000000E+00 0. -1.
          1    1    1    2  502    0  0.43030091844E+02 -0.54821683154E+02 -0.43959906877E+03  0.44508914502E+03  0.00000000000E+00 0.  1.
</event>
<event>
 4    1  0.3767413E+003  0.2079426E+02  0.7546771E-02  0.1522223E+00
          2   -1    0    0  502    0  0.00000000000E+00  0.00000000000E+00  0.10574255200E+04  0.10574255200E+04  0.00000000000E+00 0. -1.
          1   -1    0    0  501    0 -0.00000000000E+00 -0.00000000000E+00 -0.11550088916E+01  0.11550088916E+01  0.00000000000E+00 0.  1.
          2    1    1    2  501    0 -0.74467243855E+01  0.19415134217E+02  0.95353466983E+03  0.95376137881E+03  0.00000000000E+00 0. -1.
          1    1    1    2  502    0  0.74467243855E+01 -0.19415134217E+02  0.10273584127E+03  0.10481915008E+03  0.00000000000E+00 0.  1.
</event>
<event>
 4    1  0.3767413E+003  0.2110963E+02  0.7546771E-02  0.1517705E+00
          2   -1    0    0  502    0  0.00000000000E+00  0.00000000000E+00  0.11207724091E+01  0.11207724091E+01  0.00000000000E+00 0. -1.
          1   -1    0    0  501    0 -0.00000000000E+00 -0.00000000000E+00 -0.40207142710E+03  0.40207142710E+03  0.00000000000E+00 0. -1.
          2    1    1    2  501    0 -0.21003826310E+02  0.21107538521E+01 -0.22174144647E+03  0.22274399001E+03  0.00000000000E+00 0. -1.
          1    1    1    2  502    0  0.21003826310E+02 -0.21107538521E+01 -0.17920920822E+03  0.18044820951E+03  0.00000000000E+00 0. -1.
</event>
<event>
 4    1  0.3767413E+003  0.2767414E+02  0.7546771E-02  0.1440951E+00
          2   -1    0    0  502    0  0.00000000000E+00  0.00000000000E+00  0.13664490114E+01  0.13664490114E+01  0.00000000000E+00 0.  1.
          1   -1    0    0  501    0 -0.00000000000E+00 -0.00000000000E+00 -0.57373582210E+03  0.57373582210E+03  0.00000000000E+00 0.  1.
          2    1    1    2  501    0 -0.13587530162E+01  0.27640749738E+02 -0.32990500511E+03  0.33106369425E+03  0.00000000000E+00 0.  1.
          1    1    1    2  502    0  0.13587530162E+01 -0.27640749738E+02 -0.24246436798E+03  0.24403857686E+03  0.00000000000E+00 0.  1.
</event>
<event>
 4    1  0.3767413E+003  0.2241396E+02  0.7546771E-02  0.1499991E+00
          2   -1    0    0  502    0  0.00000000000E+00  0.00000000000E+00  0.21687152589E+03  0.21687152589E+03  0.00000000000E+00 0.  1.
          1   -1    0    0  501    0 -0.00000000000E+00 -0.00000000000E+00 -0.13052370463E+02  0.13052370463E+02  0.00000000000E+00 0. -1.
          2    1    1    2  501    0  0.22406577187E+02 -0.57529598385E+00  0.20617199540E+03  0.20738678202E+03  0.00000000000E+00 0.  1.
          1    1    1    2  502    0 -0.22406577187E+02  0.57529598385E+00 -0.23528399761E+01  0.22537114337E+02  0.00000000000E+00 0. -1.
</event>
<event>
 4    1  0.3767413E+003  0.3264262E+02  0.7546771E-02  0.1397940E+00
          2   -1    0    0  502    0  0.00000000000E+00  0.00000000000E+00  0.41176259731E+01  0.41176259731E+01  0.00000000000E+00 0.  1.
          1   -1    0    0  501    0 -0.00000000000E+00 -0.00000000000E+00 -0.99296797860E+03  0.99296797860E+03  0.00000000000E+00 0. -1.
          2    1    1    2  501    0  0.32583402497E+02 -0.19653272680E+01 -0.65738682567E+02  0.73396968706E+02  0.00000000000E+00 0.  1.
          1    1    1    2  502    0 -0.32583402497E+02  0.19653272680E+01 -0.92311167006E+03  0.92368863587E+03  0.00000000000E+00 0. -1.
</event>
<event>
 4    1  0.3767413E+003  0.2985269E+02  0.7546771E-02  0.1420881E+00
          2   -1    0    0  502    0  0.00000000000E+00  0.00000000000E+00  0.10271175902E+04  0.10271175902E+04  0.00000000000E+00 0.  1.
          1   -1    0    0  501    0 -0.00000000000E+00 -0.00000000000E+00 -0.88912201730E+01  0.88912201730E+01  0.00000000000E+00 0.  1.
          2    1    1    2  501    0 -0.69802949548E+00  0.29844523881E+02  0.10011940594E+04  0.10016390205E+04  0.00000000000E+00 0.  1.
          1    1    1    2  502    0  0.69802949548E+00 -0.29844523881E+02  0.17032310675E+02  0.34369789901E+02  0.00000000000E+00 0.  1.
</event>
<event>
 4    1  0.3767413E+003  0.4898152E+02  0.7546771E-02  0.1302650E+00
          2   -1    0    0  502    0  0.00000000000E+00  0.00000000000E+00  0.15953007861E+04  0.15953007861E+04  0.00000000000E+00 0. -1.
          1   -1    0    0  501    0 -0.00000000000E+00 -0.00000000000E+00 -0.11784260108E+02  0.11784260108E+02  0.00000000000E+00 0. -1.
          2    1    1    2  501    0 -0.58480333145E+01 -0.48631159054E+02  0.15422771967E+04  0.15430548080E+04  0.00000000000E+00 0. -1.
          1    1    1    2  502    0  0.58480333145E+01  0.48631159054E+02  0.41239329376E+02  0.64030238263E+02  0.00000000000E+00 0. -1.
</event>
<event>
 4    1  0.3767413E+003  0.2925488E+02  0.7546771E-02  0.1426184E+00
          2   -1    0    0  502    0  0.00000000000E+00  0.00000000000E+00  0.28159844384E+01  0.28159844384E+01  0.00000000000E+00 0. -1.
          1   -1    0    0  501    0 -0.00000000000E+00 -0.00000000000E+00 -0.13613295009E+04  0.13613295009E+04  0.00000000000E+00 0. -1.
          2    1    1    2  501    0  0.29253401010E+02  0.29375963512E+00 -0.78125009321E+02  0.83422807713E+02  0.00000000000E+00 0. -1.
          1    1    1    2  502    0 -0.29253401010E+02 -0.29375963512E+00 -0.12803885072E+04  0.12807226777E+04  0.00000000000E+00 0. -1.
</event>
<event>
 4    1  0.3767413E+003  0.2223958E+02  0.7546771E-02  0.1502274E+00
          2   -1    0    0  502    0  0.00000000000E+00  0.00000000000E+00  0.88964876923E+01  0.88964876923E+01  0.00000000000E+00 0.  1.
          1   -1    0    0  501    0 -0.00000000000E+00 -0.00000000000E+00 -0.78626292092E+03  0.78626292092E+03  0.00000000000E+00 0.  1.
          2    1    1    2  501    0  0.17819421064E+02  0.13306660639E+02 -0.54171490840E+01  0.22889833739E+02  0.00000000000E+00 0.  1.
          1    1    1    2  502    0 -0.17819421064E+02 -0.13306660639E+02 -0.77194928415E+03  0.77226957487E+03  0.00000000000E+00 0.  1.
</event>
<event>
 4    1  0.3767413E+003  0.2281019E+02  0.7546771E-02  0.1494896E+00
          2   -1    0    0  502    0  0.00000000000E+00  0.00000000000E+00  0.26253542936E+03  0.26253542936E+03  0.00000000000E+00 0. -1.
          1   -1    0    0  501    0 -0.00000000000E+00 -0.00000000000E+00 -0.24743670873E+03  0.24743670873E+03  0.00000000000E+00 0.  1.
          2    1    1    2  501    0  0.19049895443E+02 -0.12546156141E+02  0.26151222054E+03  0.26250513527E+03  0.00000000000E+00 0. -1.
          1    1    1    2  502    0 -0.19049895443E+02  0.12546156141E+02 -0.24641349990E+03  0.24746700282E+03  0.00000000000E+00 0.  1.
</event>
<event>
 4    1  0.3767413E+003  0.4457508E+02  0.7546771E-02  0.1323578E+00
          2   -1    0    0  502    0  0.00000000000E+00  0.00000000000E+00  0.94237330546E+02  0.94237330546E+02  0.00000000000E+00 0. -1.
          1   -1    0    0  501    0 -0.00000000000E+00 -0.00000000000E+00 -0.64029731739E+02  0.64029731739E+02  0.00000000000E+00 0. -1.
          2    1    1    2  501    0  0.30646895659E+02  0.32368276938E+02  0.79911660099E+02  0.91503065442E+02  0.00000000000E+00 0. -1.
          1    1    1    2  502    0 -0.30646895659E+02 -0.32368276938E+02 -0.49704061293E+02  0.66763996843E+02  0.00000000000E+00 0. -1.
</event>
<event>
 4    1  0.3767413E+003  0.2363950E+02  0.7546771E-02  0.1484620E+00
          2   -1    0    0  502    0  0.00000000000E+00  0.00000000000E+00  0.23920324575E+03  0.23920324575E+03  0.00000000000E+00 0. -1.
          1   -1    0    0  501    0 -0.00000000000E+00 -0.00000000000E+00 -0.23369114038E+01  0.23369114038E+01  0.00000000000E+00 0. -1.
          2    1    1    2  501    0 -0.18762769841E+02  0.14380002988E+02  0.12054406180E+03  0.12284012721E+03  0.00000000000E+00 0. -1.
          1    1    1    2  502    0  0.18762769841E+02 -0.14380002988E+02  0.11632227254E+03  0.11870002994E+03  0.00000000000E+00 0. -1.
</event>
<event>
 4    1  0.3767413E+003  0.3417685E+02  0.7546771E-02  0.1386444E+00
          2   -1    0    0  502    0  0.00000000000E+00  0.00000000000E+00  0.18077410102E+04  0.18077410102E+04  0.00000000000E+00 0.  1.
          1   -1    0    0  501    0 -0.00000000000E+00 -0.00000000000E+00 -0.35956086681E+01  0.35956086681E+01  0.00000000000E+00 0. -1.
          2    1    1    2  501    0 -0.16483512488E+02 -0.29939118111E+02  0.17223387287E+04  0.17226777857E+04  0.00000000000E+00 0.  1.
          1    1    1    2  502    0  0.16483512488E+02  0.29939118111E+02  0.81806672755E+02  0.88658833087E+02  0.00000000000E+00 0. -1.
</event>
<event>
 4    1  0.3767413E+003  0.2133174E+02  0.7546771E-02  0.1514581E+00
          2   -1    0    0  502    0  0.00000000000E+00  0.00000000000E+00  0.19940960719E+02  0.19940960719E+02  0.00000000000E+00 0. -1.
          1   -1    0    0  501    0 -0.00000000000E+00 -0.00000000000E+00 -0.29441643034E+02  0.29441643034E+02  0.00000000000E+00 0. -1.
          2    1    1    2  501    0  0.20049452595E+02 -0.72843929932E+01  0.69597952596E+01  0.22438397463E+02  0.00000000000E+00 0. -1.
          1    1    1    2  502    0 -0.20049452595E+02  0.72843929932E+01 -0.16460477575E+02  0.26944206291E+02  0.00000000000E+00 0. -1.
</event>
<event>
 4    1  0.3767413E+003  0.2092522E+02  0.7546771E-02  0.1520335E+00
          2   -1    0    0  502    0  0.00000000000E+00  0.00000000000E+00  0.99303421319E+02  0.99303421319E+02  0.00000000000E+00 0. -1.
          1   -1    0    0  501    0 -0.00000000000E+00 -0.00000000000E+00 -0.52344168250E+03  0.52344168250E+03  0.00000000000E+00 0.  1.
          2    1    1    2  501    0 -0.20921285025E+02  0.40577016248E+00  0.97989179235E+02  0.10019852326E+03  0.00000000000E+00 0. -1.
          1    1    1    2  502    0  0.20921285025E+02 -0.40577016248E+00 -0.52212744042E+03  0.52254658056E+03  0.00000000000E+00 0.  1.
</event>
<event>
 4    1  0.3767413E+003  0.2210944E+02  0.7546771E-02  0.1503994E+00
          2   -1    0    0  502    0  0.00000000000E+00  0.00000000000E+00  0.26809686511E+03  0.26809686511E+03  0.00000000000E+00 0.  1.
          1   -1    0    0  501    0 -0.00000000000E+00 -0.00000000000E+00 -0.12752629218E+02  0.12752629218E+02  0.00000000000E+00 0.  1.
          2    1    1    2  501    0  0.13630471204E+02 -0.17407974636E+02  0.25767113559E+03  0.25861794494E+03  0.00000000000E+00 0.  1.
          1    1    1    2  502    0 -0.13630471204E+02  0.17407974636E+02 -0.23268996984E+01  0.22231549392E+02  0.00000000000E+00 0.  1.
</event>
<event>
 4    1  0.3767413E+003  0.2579590E+02  0.7546771E-02  0.1460093E+00
          2   -1    0    0  502    0  0.00000000000E+00  0.00000000000E+00  0.49807304992E+01  0.49807304992E+01  0.00000000000E+00 0. -1.
          1   -1    0    0  501    0 -0.00000000000E+00 -0.00000000000E+00 -0.14130012638E+03  0.14130012638E+03  0.00000000000E+00 0. -1.
          2    1    1    2  501    0 -0.59536811369E+01  0.25099446605E+02 -0.51086358267E+02  0.57229752227E+02  0.00000000000E+00 0. -1.
          1    1    1    2  502    0  0.59536811369E+01 -0.25099446605E+02 -0.85233037617E+02  0.89051104656E+02  0.00000000000E+00 0. -1.
</event>
<event>
 4    1  0.3767413E+003  0.6273665E+02  0.7546771E-02  0.1250807E+00
          2   -1    0    0  502    0  0.00000000000E+00  0.00000000000E+00  0.11544975742E+04  0.11544975742E+04  0.00000000000E+00 0. -1.
          1   -1    0    0  501    0 -0.00000000000E+00 -0.00000000000E+00 -0.13659895272E+02  0.13659895272E+02  0.00000000000E+00 0. -1.
          2    1    1    2  501    0 -0.39356300470E+02 -0.48856612565E+02  0.10763889372E+04  0.10782156700E+04  0.00000000000E+00 0. -1.
          1    1    1    2  502    0  0.39356300470E+02  0.48856612565E+02  0.64448741767E+02  0.89941799479E+02  0.00000000000E+00 0. -1.
</event>
<event>
 4    1  0.3767413E+003  0.2250010E+02  0.7546771E-02  0.1498873E+00
          2   -1    0    0  502    0  0.00000000000E+00  0.00000000000E+00  0.63463284405E+03  0.63463284405E+03  0.00000000000E+00 0. -1.
          1   -1    0    0  501    0 -0.00000000000E+00 -0.00000000000E+00 -0.38777974566E+02  0.38777974566E+02  0.00000000000E+00 0. -1.
          2    1    1    2  501    0  0.15851420160E+02  0.15968313801E+02  0.63115161729E+03  0.63155254617E+03  0.00000000000E+00 0. -1.
          1    1    1    2  502    0 -0.15851420160E+02 -0.15968313801E+02 -0.35296747804E+02  0.41858272447E+02  0.00000000000E+00 0. -1.
</event>
<event>
 4    1  0.3767413E+003  0.3835163E+02  0.7546771E-02  0.1358426E+00
          2   -1    0    0  502    0  0.00000000000E+00  0.00000000000E+00  0.20627423642E+04  0.20627423642E+04  0.00000000000E+00 0. -1.
          1   -1    0    0  501    0 -0.00000000000E+00 -0.00000000000E+00 -0.28954398609E+01  0.28954398609E+01  0.00000000000E+00 0.  1.
          2    1    1    2  501    0 -0.27604958606E+02  0.26623550913E+02  0.19265934795E+04  0.19269751639E+04  0.00000000000E+00 0. -1.
          1    1    1    2  502    0  0.27604958606E+02 -0.26623550913E+02  0.13325344484E+03  0.13866264012E+03  0.00000000000E+00 0.  1.
</event>
<event>
 4    1  0.3767413E+003  0.2164778E+02  0.7546771E-02  0.1510214E+00
          2   -1    0    0  502    0  0.00000000000E+00  0.00000000000E+00  0.79416527329E+01  0.79416527329E+01  0.00000000000E+00 0. -1.
          1   -1    0    0  501    0 -0.00000000000E+00 -0.00000000000E+00 -0.24565439027E+03  0.24565439027E+03  0.00000000000E+00 0.  1.
          2    1    1    2  501    0  0.49319004545E+01  0.21078486691E+02 -0.83316934058E+01  0.23195761645E+02  0.00000000000E+00 0. -1.
          1    1    1    2  502    0 -0.49319004545E+01 -0.21078486691E+02 -0.22938104413E+03  0.23040028136E+03  0.00000000000E+00 0.  1.
</event>
<event>
 4    1  0.3767413E+003  0.4711217E+02  0.7546771E-02  0.1311203E+00
          2   -1    0    0  502    0  0.00000000000E+00  0.00000000000E+00  0.14088725538E+04  0.14088725538E+04  0.00000000000E+00 0. -1.
          1   -1    0    0  501    0 -0.00000000000E+00 -0.00000000000E+00 -0.20352374291E+01  0.20352374291E+01  0.00000000000E+00 0. -1.
          2    1    1    2  501    0  0.47108643682E+02  0.57644937339E+00  0.10387367293E+04  0.10398045727E+04  0.00000000000E+00 0. -1.
          1    1    1    2  502    0 -0.47108643682E+02 -0.57644937339E+00  0.36810058708E+03  0.37110321854E+03  0.00000000000E+00 0. -1.
</event>
<event>
 4    1  0.3767413E+003  0.3007244E+02  0.7546771E-02  0.1418968E+00
          2   -1    0    0  502    0  0.00000000000E+00  0.00000000000E+00  0.16049367664E+04  0.16049367664E+04  0.00000000000E+00 0. -1.
          1   -1    0    0  501    0 -0.00000000000E+00 -0.00000000000E+00 -0.20758755734E+02  0.20758755734E+02  0.00000000000E+00 0.  1.
          2    1    1    2  501    0  0.68887760664E+01 -0.29272788394E+02  0.15938287941E+04  0.15941124729E+04  0.00000000000E+00 0. -1.
          1    1    1    2  502    0 -0.68887760664E+01  0.29272788394E+02 -0.96507834521E+01  0.31583049208E+02  0.00000000000E+00 0.  1.
</event>
<event>
 4    1  0.3767413E+003  0.2641459E+02  0.7546771E-02  0.1453579E+00
          2   -1    0    0  502    0  0.00000000000E+00  0.00000000000E+00  0.24946766124E+02  0.24946766124E+02  0.00000000000E+00 0.  1.
          1   -1    0    0  501    0 -0.00000000000E+00 -0.00000000000E+00 -0.81141157850E+03  0.81141157850E+03  0.00000000000E+00 0.  1.
          2    1    1    2  501    0  0.77116618626E+01  0.25263824477E+02  0.17676396893E+02  0.31783416478E+02  0.00000000000E+00 0.  1.
          1    1    1    2  502    0 -0.77116618626E+01 -0.25263824477E+02 -0.80414120927E+03  0.80457492814E+03  0.00000000000E+00 0.  1.
</event>
<event>
 4    1  0.3767413E+003  0.2705479E+02  0.7546771E-02  0.1447059E+00
          2   -1    0    0  502    0  0.00000000000E+00  0.00000000000E+00  0.56200602967E+01  0.56200602967E+01  0.00000000000E+00 0.  1.
          1   -1    0    0  501    0 -0.00000000000E+00 -0.00000000000E+00 -0.63049407648E+03  0.63049407648E+03  0.00000000000E+00 0. -1.
          2    1    1    2  501    0 -0.90028740929E+01  0.25512936658E+02 -0.29128591879E+02  0.39754704674E+02  0.00000000000E+00 0.  1.
          1    1    1    2  502    0  0.90028740929E+01 -0.25512936658E+02 -0.59574542431E+03  0.59635943211E+03  0.00000000000E+00 0. -1.
</event>
<event>
 4    1  0.3767413E+003  0.2870107E+02  0.7546771E-02  0.1431230E+00
          2   -1    0    0  502    0  0.00000000000E+00  0.00000000000E+00  0.38358387185E+03  0.38358387185E+03  0.00000000000E+00 0. -1.
          1   -1    0    0  501    0 -0.00000000000E+00 -0.00000000000E+00 -0.79904773846E+01  0.79904773846E+01  0.00000000000E+00 0. -1.
          2    1    1    2  501    0  0.94556518055E+01  0.27098746836E+02  0.35521945360E+03  0.35637706386E+03  0.00000000000E+00 0. -1.
          1    1    1    2  502    0 -0.94556518055E+01 -0.27098746836E+02  0.20373940863E+02  0.35197285370E+02  0.00000000000E+00 0. -1.
</event>
<event>
 4    1  0.3767413E+003  0.2718705E+02  0.7546771E-02  0.1445738E+00
          2   -1    0    0  502    0  0.00000000000E+00  0.00000000000E+00  0.11054473140E+04  0.11054473140E+04  0.00000000000E+00 0.  1.
          1   -1    0    0  501    0 -0.00000000000E+00 -0.00000000000E+00 -0.20209028490E+02  0.20209028490E+02  0.00000000000E+00 0.  1.
          2    1    1    2  501    0  0.14379548452E+02  0.23073015009E+02  0.10960582129E+04  0.10963953400E+04  0.00000000000E+00 0.  1.
          1    1    1    2  502    0 -0.14379548452E+02 -0.23073015009E+02 -0.10819927448E+02  0.29261002465E+02  0.00000000000E+00 0.  1.
</event>
<event>
 4    1  0.3767413E+003  0.2233052E+02  0.7546771E-02  0.1501080E+00
          2   -1    0    0  502    0  0.00000000000E+00  0.00000000000E+00  0.94039158150E+02  0.94039158150E+02  0.00000000000E+00 0. -1.
          1   -1    0    0  501    0 -0.00000000000E+00 -0.00000000000E+00 -0.44961361579E+02  0.44961361579E+02  0.00000000000E+00 0. -1.
          2    1    1    2  501    0  0.10755157865E+02  0.19569845303E+02  0.89812302358E+02  0.92546755322E+02  0.00000000000E+00 0. -1.
          1    1    1    2  502    0 -0.10755157865E+02 -0.19569845303E+02 -0.40734505786E+02  0.46453764407E+02  0.00000000000E+00 0. -1.
</event>
<event>
 4    1  0.3767413E+003  0.4053347E+02  0.7546771E-02  0.1345388E+00
          2   -1    0    0  502    0  0.00000000000E+00  0.00000000000E+00  0.15850459193E+03  0.15850459193E+03  0.00000000000E+00 0.  1.
          1   -1    0    0  501    0 -0.00000000000E+00 -0.00000000000E+00 -0.65075319827E+03  0.65075319827E+03  0.00000000000E+00 0.  1.
          2    1    1    2  501    0  0.40337319418E+02  0.39828288517E+01  0.15526913114E+03  0.16047263115E+03  0.00000000000E+00 0.  1.
          1    1    1    2  502    0 -0.40337319418E+02 -0.39828288517E+01 -0.64751773747E+03  0.64878515905E+03  0.00000000000E+00 0.  1.
</event>
<event>
 4    1  0.3767413E+003  0.2753616E+02  0.7546771E-02  0.1442295E+00
          2   -1    0    0  502    0  0.00000000000E+00  0.00000000000E+00  0.72106165362E+01  0.72106165362E+01  0.00000000000E+00 0.  1.
          1   -1    0    0  501    0 -0.00000000000E+00 -0.00000000000E+00 -0.10573429580E+03  0.10573429580E+03  0.00000000000E+00 0.  1.
          2    1    1    2  501    0 -0.17157821680E+02  0.21537155015E+02 -0.45085573023E+02  0.52829431057E+02  0.00000000000E+00 0.  1.
          1    1    1    2  502    0  0.17157821680E+02 -0.21537155015E+02 -0.53438106244E+02  0.60115481283E+02  0.00000000000E+00 0.  1.
</event>
<event>
 4    1  0.3767413E+003  0.2140553E+02  0.7546771E-02  0.1513553E+00
          2   -1    0    0  502    0  0.00000000000E+00  0.00000000000E+00  0.29000050086E+03  0.29000050086E+03  0.00000000000E+00 0. -1.
          1   -1    0    0  501    0 -0.00000000000E+00 -0.00000000000E+00 -0.71967288096E+01  0.71967288096E+01  0.00000000000E+00 0.  1.
          2    1    1    2  501    0  0.83539678640E+01  0.19708063567E+02  0.27267914061E+03  0.27351802549E+03  0.00000000000E+00 0. -1.
          1    1    1    2  502    0 -0.83539678640E+01 -0.19708063567E+02  0.10124631449E+02  0.23679204180E+02  0.00000000000E+00 0.  1.
</event>
<event>
 4    1  0.3767413E+003  0.2019340E+02  0.7546771E-02  0.1531100E+00
          2   -1    0    0  502    0  0.00000000000E+00  0.00000000000E+00  0.64714174689E+03  0.64714174689E+03  0.00000000000E+00 0.  1.
          1   -1    0    0  501    0 -0.00000000000E+00 -0.00000000000E+00 -0.23662880886E+01  0.23662880886E+01  0.00000000000E+00 0.  1.
          2    1    1    2  501    0  0.17043244072E+02  0.10830565035E+02  0.60056222790E+03  0.60090162497E+03  0.00000000000E+00 0.  1.
          1    1    1    2  502    0 -0.17043244072E+02 -0.10830565035E+02  0.44213230897E+02  0.48606410007E+02  0.00000000000E+00 0.  1.
</event>
<event>
 4    1  0.3767413E+003  0.2827251E+02  0.7546771E-02  0.1435228E+00
          2   -1    0    0  502    0  0.00000000000E+00  0.00000000000E+00  0.20213044406E+03  0.20213044406E+03  0.00000000000E+00 0.  1.
          1   -1    0    0  501    0 -0.00000000000E+00 -0.00000000000E+00 -0.76635914249E+02  0.76635914249E+02  0.00000000000E+00 0.  1.
          2    1    1    2  501    0 -0.25817834891E+02 -0.11522774207E+02  0.19848660397E+03  0.20049006678E+03  0.00000000000E+00 0.  1.
          1    1    1    2  502    0  0.25817834891E+02  0.11522774207E+02 -0.72992074161E+02  0.78276291521E+02  0.00000000000E+00 0.  1.
</event>
<event>
 4    1  0.3767413E+003  0.2426320E+02  0.7546771E-02  0.1477217E+00
          2   -1    0    0  502    0  0.00000000000E+00  0.00000000000E+00  0.37394019810E+03  0.37394019810E+03  0.00000000000E+00 0. -1.
          1   -1    0    0  501    0 -0.00000000000E+00 -0.00000000000E+00 -0.55906060014E+02  0.55906060014E+02  0.00000000000E+00 0. -1.
          2    1    1    2  501    0  0.20805300233E+02 -0.12483682416E+02  0.37089245396E+03  0.37168523679E+03  0.00000000000E+00 0. -1.
          1    1    1    2  502    0 -0.20805300233E+02  0.12483682416E+02 -0.52858315873E+02  0.58161021324E+02  0.00000000000E+00 0. -1.
</event>
<event>
 4    1  0.3767413E+003  0.2008054E+02  0.7546771E-02  0.1532808E+00
          2   -1    0    0  502    0  0.00000000000E+00  0.00000000000E+00  0.30935333197E+01  0.30935333197E+01  0.00000000000E+00 0. -1.
          1   -1    0    0  501    0 -0.00000000000E+00 -0.00000000000E+00 -0.97703042867E+03  0.97703042867E+03  0.00000000000E+00 0. -1.
          2    1    1    2  501    0  0.19985633237E+02  0.19500209128E+01 -0.30765713794E+02  0.36739042757E+02  0.00000000000E+00 0. -1.
          1    1    1    2  502    0 -0.19985633237E+02 -0.19500209128E+01 -0.94317118156E+03  0.94338491923E+03  0.00000000000E+00 0. -1.
</event>
<event>
 4    1  0.3767413E+003  0.2678759E+02  0.7546771E-02  0.1449754E+00
          2   -1    0    0  502    0  0.00000000000E+00  0.00000000000E+00  0.96030200376E+03  0.96030200376E+03  0.00000000000E+00 0. -1.
          1   -1    0    0  501    0 -0.00000000000E+00 -0.00000000000E+00 -0.90176798704E+01  0.90176798704E+01  0.00000000000E+00 0. -1.
          2    1    1    2  501    0 -0.62621753938E+01 -0.26045349851E+02  0.93978746550E+03  0.94016916318E+03  0.00000000000E+00 0. -1.
          1    1    1    2  502    0  0.62621753938E+01  0.26045349851E+02  0.11496858390E+02  0.29150520447E+02  0.00000000000E+00 0. -1.
</event>
<event>
 4    1  0.3767413E+003  0.2307912E+02  0.7546771E-02  0.1491507E+00
          2   -1    0    0  502    0  0.00000000000E+00  0.00000000000E+00  0.17459306770E+04  0.17459306770E+04  0.00000000000E+00 0.  1.
          1   -1    0    0  501    0 -0.00000000000E+00 -0.00000000000E+00 -0.17617922955E+01  0.17617922955E+01  0.00000000000E+00 0.  1.
          2    1    1    2  501    0  0.24037590769E+01 -0.22953595420E+02  0.16666775784E+04  0.16668373634E+04  0.00000000000E+00 0.  1.
          1    1    1    2  502    0 -0.24037590769E+01  0.22953595420E+02  0.77491306259E+02  0.80855105875E+02  0.00000000000E+00 0.  1.
</event>
<event>
 4    1  0.3767413E+003  0.3767889E+02  0.7546771E-02  0.1362652E+00
          2   -1    0    0  502    0  0.00000000000E+00  0.00000000000E+00  0.51244871207E+03  0.51244871207E+03  0.00000000000E+00 0.  1.
          1   -1    0    0  501    0 -0.00000000000E+00 -0.00000000000E+00 -0.81532150478E+01  0.81532150478E+01  0.00000000000E+00 0. -1.
          2    1    1    2  501    0  0.29396945056E+02 -0.23569434721E+02  0.46365010578E+03  0.46517858853E+03  0.00000000000E+00 0.  1.
          1    1    1    2  502    0 -0.29396945056E+02  0.23569434721E+02  0.40645391244E+02  0.55423338595E+02  0.00000000000E+00 0. -1.
</event>
<event>
 4    1  0.3767413E+003  0.2820125E+02  0.7546771E-02  0.1435901E+00
          2   -1    0    0  502    0  0.00000000000E+00  0.00000000000E+00  0.66865302439E+02  0.66865302439E+02  0.00000000000E+00 0.  1.
          1   -1    0    0  501    0 -0.00000000000E+00 -0.00000000000E+00 -0.28314922410E+02  0.28314922410E+02  0.00000000000E+00 0.  1.
          2    1    1    2  501    0  0.27606153140E+02 -0.57628993574E+01  0.55516583811E+02  0.62268786548E+02  0.00000000000E+00 0.  1.
          1    1    1    2  502    0 -0.27606153140E+02  0.57628993574E+01 -0.16966203782E+02  0.32911438300E+02  0.00000000000E+00 0.  1.
</event>
<event>
 4    1  0.3767413E+003  0.2005908E+02  0.7546771E-02  0.1533134E+00
          2   -1    0    0  502    0  0.00000000000E+00  0.00000000000E+00  0.19887516061E+03  0.19887516061E+03  0.00000000000E+00 0. -1.
          1   -1    0    0  501    0 -0.00000000000E+00 -0.00000000000E+00 -0.27278744704E+01  0.27278744704E+01  0.00000000000E+00 0. -1.
          2    1    1    2  501    0  0.14691563310E+02 -0.13657406816E+02  0.14930609824E+03  0.15064752824E+03  0.00000000000E+00 0. -1.
          1    1    1    2  502    0 -0.14691563310E+02  0.13657406816E+02  0.46841187899E+02  0.50955506839E+02  0.00000000000E+00 0. -1.
</event>
<event>
 4    1  0.3767413E+003  0.2177972E+02  0.7546771E-02  0.1508417E+00
          2   -1    0    0  502    0  0.00000000000E+00  0.00000000000E+00  0.29696038738E+03  0.29696038738E+03  0.00000000000E+00 0. -1.
          1   -1    0    0  501    0 -0.00000000000E+00 -0.00000000000E+00 -0.10560192835E+02  0.10560192835E+02  0.00000000000E+00 0. -1.
          2    1    1    2  501    0 -0.20029656910E+02  0.85538807997E+01  0.28485468262E+03  0.28568609740E+03  0.00000000000E+00 0. -1.
          1    1    1    2  502    0  0.20029656910E+02 -0.85538807997E+01  0.15455119166E+01  0.21834482814E+02  0.00000000000E+00 0. -1.
</event>
<event>
 4    1  0.3767413E+003  0.2663238E+02  0.7546771E-02  0.1451336E+00
          2   -1    0    0  502    0  0.00000000000E+00  0.00000000000E+00  0.22957156407E+04  0.22957156407E+04  0.00000000000E+00 0. -1.
          1   -1    0    0  501    0 -0.00000000000E+00 -0.00000000000E+00 -0.36320875274E+00  0.36320875274E+00  0.00000000000E+00 0.  1.
          2    1    1    2  501    0 -0.25575309984E+02  0.74288030453E+01  0.15913612343E+04  0.15915840730E+04  0.00000000000E+00 0. -1.
          1    1    1    2  502    0  0.25575309984E+02 -0.74288030453E+01  0.70399119771E+03  0.70449477646E+03  0.00000000000E+00 0.  1.
</event>
<event>
 4    1  0.3767413E+003  0.2326390E+02  0.7546771E-02  0.1489211E+00
          2   -1    0    0  502    0  0.00000000000E+00  0.00000000000E+00  0.37734991118E+03  0.37734991118E+03  0.00000000000E+00 0.  1.
          1   -1    0    0  501    0 -0.00000000000E+00 -0.00000000000E+00 -0.10080801881E+02  0.10080801881E+02  0.00000000000E+00 0. -1.
          2    1    1    2  501    0  0.22685511512E+02  0.51552531243E+01  0.36304111584E+03  0.36378573482E+03  0.00000000000E+00 0.  1.
          1    1    1    2  502    0 -0.22685511512E+02 -0.51552531243E+01  0.42279934592E+01  0.23644978241E+02  0.00000000000E+00 0. -1.
</event>
<event>
 4    1  0.3767413E+003  0.3291619E+02  0.7546771E-02  0.1395836E+00
          2   -1    0    0  502    0  0.00000000000E+00  0.00000000000E+00  0.13865410015E+02  0.13865410015E+02  0.00000000000E+00 0.  1.
          1   -1    0    0  501    0 -0.00000000000E+00 -0.00000000000E+00 -0.12629287161E+04  0.12629287161E+04  0.00000000000E+00 0.  1.
          2    1    1    2  501    0 -0.32131991231E+02 -0.71421927185E+01 -0.61999922573E+01  0.33495009797E+02  0.00000000000E+00 0.  1.
          1    1    1    2  502    0  0.32131991231E+02  0.71421927185E+01 -0.12428633139E+04  0.12432991164E+04  0.00000000000E+00 0.  1.
</event>
<event>
 4    1  0.3767413E+003  0.3348492E+02  0.7546771E-02  0.1391539E+00
          2   -1    0    0  502    0  0.00000000000E+00  0.00000000000E+00  0.18157097837E+02  0.18157097837E+02  0.00000000000E+00 0.  1.
          1   -1    0    0  501    0 -0.00000000000E+00 -0.00000000000E+00 -0.13445493944E+03  0.13445493944E+03  0.00000000000E+00 0.  1.
          2    1    1    2  501    0  0.33483905629E+02 -0.26002013753E+00 -0.20381807004E+01  0.33546888488E+02  0.00000000000E+00 0.  1.
          1    1    1    2  502    0 -0.33483905629E+02  0.26002013753E+00 -0.11425966090E+03  0.11906514879E+03  0.00000000000E+00 0.  1.
</event>
<event>
 4    1  0.3767413E+003  0.2165841E+02  0.7546771E-02  0.1510069E+00
          2   -1    0    0  502    0  0.00000000000E+00  0.00000000000E+00  0.15386907214E+02  0.15386907214E+02  0.00000000000E+00 0. -1.
          1   -1    0    0  501    0 -0.00000000000E+00 -0.00000000000E+00 -0.57236769301E+02  0.57236769301E+02  0.00000000000E+00 0. -1.
          2    1    1    2  501    0  0.21113751277E+02  0.48265950424E+01  0.38994342191E+01  0.22006637633E+02  0.00000000000E+00 0. -1.
          1    1    1    2  502    0 -0.21113751277E+02 -0.48265950424E+01 -0.45749296306E+02  0.50617038882E+02  0.00000000000E+00 0. -1.
</event>
<event>
 4    1  0.3767413E+003  0.2628922E+02  0.7546771E-02  0.1454882E+00
          2   -1    0    0  502    0  0.00000000000E+00  0.00000000000E+00  0.20124307908E+04  0.20124307908E+04  0.00000000000E+00 0.  1.
          1   -1    0    0  501    0 -0.00000000000E+00 -0.00000000000E+00 -0.62624417103E+00  0.62624417103E+00  0.00000000000E+00 0.  1.
          2    1    1    2  501    0 -0.87911899320E+01  0.24775751206E+02  0.16823078809E+04  0.16825132775E+04  0.00000000000E+00 0.  1.
          1    1    1    2  502    0  0.87911899320E+01 -0.24775751206E+02  0.32949666576E+03  0.33054375749E+03  0.00000000000E+00 0.  1.
</event>
<event>
 4    1  0.3767413E+003  0.2898888E+02  0.7546771E-02  0.1428591E+00
          2   -1    0    0  502    0  0.00000000000E+00  0.00000000000E+00  0.66295315041E+03  0.66295315041E+03  0.00000000000E+00 0.  1.
          1   -1    0    0  501    0 -0.00000000000E+00 -0.00000000000E+00 -0.37844309858E+03  0.37844309858E+03  0.00000000000E+00 0.  1.
          2    1    1    2  501    0  0.28983087102E+02  0.57966440572E+00  0.66208038066E+03  0.66271470921E+03  0.00000000000E+00 0.  1.
          1    1    1    2  502    0 -0.28983087102E+02 -0.57966440572E+00 -0.37757032883E+03  0.37868153977E+03  0.00000000000E+00 0.  1.
</event>
<event>
 4    1  0.3767413E+003  0.2641588E+02  0.7546771E-02  0.1453566E+00
          2   -1    0    0  502    0  0.00000000000E+00  0.00000000000E+00  0.28502582694E+00  0.28502582694E+00  0.00000000000E+00 0.  1.
          1   -1    0    0  501    0 -0.00000000000E+00 -0.00000000000E+00 -0.25747086189E+04  0.25747086189E+04  0.00000000000E+00 0. -1.
          2    1    1    2  501    0 -0.71075899364E+01  0.25441719999E+02 -0.10018144851E+04  0.10021626921E+04  0.00000000000E+00 0.  1.
          1    1    1    2  502    0  0.71075899364E+01 -0.25441719999E+02 -0.15726091080E+04  0.15728309527E+04  0.00000000000E+00 0. -1.
</event>
<event>
 4    1  0.3767413E+003  0.4391244E+02  0.7546771E-02  0.1326968E+00
          2   -1    0    0  502    0  0.00000000000E+00  0.00000000000E+00  0.10621418929E+04  0.10621418929E+04  0.00000000000E+00 0.  1.
          1   -1    0    0  501    0 -0.00000000000E+00 -0.00000000000E+00 -0.67656985510E+02  0.67656985510E+02  0.00000000000E+00 0. -1.
          2    1    1    2  501    0  0.38927752948E+02 -0.20320742980E+02  0.10545111938E+04  0.10554251089E+04  0.00000000000E+00 0.  1.
          1    1    1    2  502    0 -0.38927752948E+02  0.20320742980E+02 -0.60026286385E+02  0.74373769583E+02  0.00000000000E+00 0. -1.
</event>
<event>
 4    1  0.3767413E+003  0.2112719E+02  0.7546771E-02  0.1517457E+00
          2   -1    0    0  502    0  0.00000000000E+00  0.00000000000E+00  0.49738005680E+02  0.49738005680E+02  0.00000000000E+00 0.  1.
          1   -1    0    0  501    0 -0.00000000000E+00 -0.00000000000E+00 -0.73179861427E+02  0.73179861427E+02  0.00000000000E+00 0.  1.
          2    1    1    2  501    0  0.53134443625E+01  0.20448117861E+02  0.45846381467E+02  0.50480183327E+02  0.00000000000E+00 0.  1.
          1    1    1    2  502    0 -0.53134443625E+01 -0.20448117861E+02 -0.69288237215E+02  0.72437683780E+02  0.00000000000E+00 0.  1.
</event>
<event>
 4    1  0.3767413E+003  0.2232329E+02  0.7546771E-02  0.1501175E+00
          2   -1    0    0  502    0  0.00000000000E+00  0.00000000000E+00  0.63941986563E+03  0.63941986563E+03  0.00000000000E+00 0.  1.
          1   -1    0    0  501    0 -0.00000000000E+00 -0.00000000000E+00 -0.81220822886E+00  0.81220822886E+00  0.00000000000E+00 0.  1.
          2    1    1    2  501    0  0.22315036754E+02 -0.60690260453E+00  0.38369457694E+03  0.38434341099E+03  0.00000000000E+00 0.  1.
          1    1    1    2  502    0 -0.22315036754E+02  0.60690260453E+00  0.25491308046E+03  0.25588866287E+03  0.00000000000E+00 0.  1.
</event>
<event>
 4    1  0.3767413E+003  0.3440579E+02  0.7546771E-02  0.1384789E+00
          2   -1    0    0  502    0  0.00000000000E+00  0.00000000000E+00  0.25961863572E+04  0.25961863572E+04  0.00000000000E+00 0.  1.
          1   -1    0    0  501    0 -0.00000000000E+00 -0.00000000000E+00 -0.10712611038E+01  0.10712611038E+01  0.00000000000E+00 0. -1.
          2    1    1    2  501    0 -0.33727639552E+02  0.67974075275E+01  0.22817522820E+04  0.22820116641E+04  0.00000000000E+00 0.  1.
          1    1    1    2  502    0  0.33727639552E+02 -0.67974075275E+01  0.31336281401E+03  0.31524595417E+03  0.00000000000E+00 0. -1.
</event>
<event>
 4    1  0.3767413E+003  0.2199161E+02  0.7546771E-02  0.1505564E+00
          2   -1    0    0  502    0  0.00000000000E+00  0.00000000000E+00  0.10948502022E+04  0.10948502022E+04  0.00000000000E+00 0.  1.
          1   -1    0    0  501    0 -0.00000000000E+00 -0.00000000000E+00 -0.23460248573E+02  0.23460248573E+02  0.00000000000E+00 0. -1.
          2    1    1    2  501    0  0.52666821842E+01  0.21351649691E+02  0.10895610261E+04  0.10897829419E+04  0.00000000000E+00 0.  1.
          1    1    1    2  502    0 -0.52666821842E+01 -0.21351649691E+02 -0.18171072486E+02  0.28527508848E+02  0.00000000000E+00 0. -1.
</event>
<event>
 4    1  0.3767413E+003  0.2492755E+02  0.7546771E-02  0.1469616E+00
          2   -1    0    0  502    0  0.00000000000E+00  0.00000000000E+00  0.88580848370E+03  0.88580848370E+03  0.00000000000E+00 0. -1.
          1   -1    0    0  501    0 -0.00000000000E+00 -0.00000000000E+00 -0.79930673044E+00  0.79930673044E+00  0.00000000000E+00 0. -1.
          2    1    1    2  501    0 -0.22693305401E+02 -0.10314882623E+02  0.59758559113E+03  0.59810527639E+03  0.00000000000E+00 0. -1.
          1    1    1    2  502    0  0.22693305401E+02  0.10314882623E+02  0.28742358583E+03  0.28850251404E+03  0.00000000000E+00 0. -1.
</event>
<event>
 4    1  0.3767413E+003  0.2343526E+02  0.7546771E-02  0.1487104E+00
          2   -1    0    0  502    0  0.00000000000E+00  0.00000000000E+00  0.98334986371E+01  0.98334986371E+01  0.00000000000E+00 0.  1.
          1   -1    0    0  501    0 -0.00000000000E+00 -0.00000000000E+00 -0.25473023581E+03  0.25473023581E+03  0.00000000000E+00 0.  1.
          2    1    1    2  501    0 -0.16935029267E+02  0.16199272263E+02 -0.55644700908E+01  0.24086821408E+02  0.00000000000E+00 0.  1.
          1    1    1    2  502    0  0.16935029267E+02 -0.16199272263E+02 -0.23933226708E+03  0.24047691304E+03  0.00000000000E+00 0.  1.
</event>
<event>
 4    1  0.3767413E+003  0.3116229E+02  0.7546771E-02  0.1409758E+00
          2   -1    0    0  502    0  0.00000000000E+00  0.00000000000E+00  0.99868622914E+03  0.99868622914E+03  0.00000000000E+00 0.  1.
          1   -1    0    0  501    0 -0.00000000000E+00 -0.00000000000E+00 -0.79108967035E+02  0.79108967035E+02  0.00000000000E+00 0.  1.
          2    1    1    2  501    0  0.27897993427E+02 -0.13884884105E+02  0.99536406713E+03  0.99585175312E+03  0.00000000000E+00 0.  1.
          1    1    1    2  502    0 -0.27897993427E+02  0.13884884105E+02 -0.75786805029E+02  0.81943443059E+02  0.00000000000E+00 0.  1.
</event>
<event>
 4    1  0.3767413E+003  0.2391814E+02  0.7546771E-02  0.1481280E+00
          2   -1    0    0  502    0  0.00000000000E+00  0.00000000000E+00  0.22163623520E+01  0.22163623520E+01  0.00000000000E+00 0. -1.
          1   -1    0    0  501    0 -0.00000000000E+00 -0.00000000000E+00 -0.45681456556E+03  0.45681456556E+03  0.00000000000E+00 0. -1.
          2    1    1    2  501    0 -0.23875498613E+02 -0.14275327825E+01 -0.75929039864E+02  0.79607137736E+02  0.00000000000E+00 0. -1.
          1    1    1    2  502    0  0.23875498613E+02  0.14275327825E+01 -0.37866916335E+03  0.37942379018E+03  0.00000000000E+00 0. -1.
</event>
<event>
 4    1  0.3767413E+003  0.6338922E+02  0.7546771E-02  0.1248732E+00
          2   -1    0    0  502    0  0.00000000000E+00  0.00000000000E+00  0.44557288419E+03  0.44557288419E+03  0.00000000000E+00 0. -1.
          1   -1    0    0  501    0 -0.00000000000E+00 -0.00000000000E+00 -0.16956760843E+02  0.16956760843E+02  0.00000000000E+00 0. -1.
          2    1    1    2  501    0 -0.26591313201E+02 -0.57542111987E+02  0.37254704640E+03  0.37790143473E+03  0.00000000000E+00 0. -1.
          1    1    1    2  502    0  0.26591313201E+02  0.57542111987E+02  0.56069076950E+02  0.84628210307E+02  0.00000000000E+00 0. -1.
</event>
<event>
 4    1  0.3767413E+003  0.3526689E+02  0.7546771E-02  0.1378697E+00
          2   -1    0    0  502    0  0.00000000000E+00  0.00000000000E+00  0.29956212030E+03  0.29956212030E+03  0.00000000000E+00 0. -1.
          1   -1    0    0  501    0 -0.00000000000E+00 -0.00000000000E+00 -0.83187525813E+01  0.83187525813E+01  0.00000000000E+00 0. -1.
          2    1    1    2  501    0 -0.35183471208E+02  0.24242203861E+01  0.25457172852E+03  0.25700295417E+03  0.00000000000E+00 0. -1.
          1    1    1    2  502    0  0.35183471208E+02 -0.24242203861E+01  0.36671639196E+02  0.50877918708E+02  0.00000000000E+00 0. -1.
</event>
<event>
 4    1  0.3767413E+003  0.4063828E+02  0.7546771E-02  0.1344786E+00
          2   -1    0    0  502    0  0.00000000000E+00  0.00000000000E+00  0.98257511496E+02  0.98257511496E+02  0.00000000000E+00 0. -1.
          1   -1    0    0  501    0 -0.00000000000E+00 -0.00000000000E+00 -0.29355312040E+03  0.29355312040E+03  0.00000000000E+00 0.  1.
          2    1    1    2  501    0 -0.30477169559E+01 -0.40523832599E+02  0.92566510287E+02  0.10109415618E+03  0.00000000000E+00 0. -1.
          1    1    1    2  502    0  0.30477169559E+01  0.40523832599E+02 -0.28786211919E+03  0.29071647572E+03  0.00000000000E+00 0.  1.
</event>
<event>
 4    1  0.3767413E+003  0.2561803E+02  0.7546771E-02  0.1462007E+00
          2   -1    0    0  502    0  0.00000000000E+00  0.00000000000E+00  0.39892341292E+02  0.39892341292E+02  0.00000000000E+00 0.  1.
          1   -1    0    0  501    0 -0.00000000000E+00 -0.00000000000E+00 -0.11371984272E+03  0.11371984272E+03  0.00000000000E+00 0.  1.
          2    1    1    2  501    0  0.25897166755E+01  0.25486793751E+02  0.34119814482E+02  0.42666673510E+02  0.00000000000E+00 0.  1.
          1    1    1    2  502    0 -0.25897166755E+01 -0.25486793751E+02 -0.10794731591E+03  0.11094551050E+03  0.00000000000E+00 0.  1.
</event>
<event>
 4    1  0.3767413E+003  0.2256044E+02  0.7546771E-02  0.1498093E+00
          2   -1    0    0  502    0  0.00000000000E+00  0.00000000000E+00  0.16704130181E+01  0.16704130181E+01  0.00000000000E+00 0. -1.
          1   -1    0    0  501    0 -0.00000000000E+00 -0.00000000000E+00 -0.71666176995E+03  0.71666176995E+03  0.00000000000E+00 0. -1.
          2    1    1    2  501    0 -0.15712204860E+02  0.16189505516E+02 -0.85183476691E+02  0.88120361844E+02  0.00000000000E+00 0. -1.
          1    1    1    2  502    0  0.15712204860E+02 -0.16189505516E+02 -0.62980788024E+03  0.63021182113E+03  0.00000000000E+00 0. -1.
</event>
<event>
 4    1  0.3767413E+003  0.2502998E+02  0.7546771E-02  0.1468468E+00
          2   -1    0    0  502    0  0.00000000000E+00  0.00000000000E+00  0.10111348662E+02  0.10111348662E+02  0.00000000000E+00 0.  1.
          1   -1    0    0  501    0 -0.00000000000E+00 -0.00000000000E+00 -0.22490307097E+03  0.22490307097E+03  0.00000000000E+00 0. -1.
          2    1    1    2  501    0 -0.24931324656E+02  0.22201238234E+01 -0.73763625863E+01  0.26094264195E+02  0.00000000000E+00 0.  1.
          1    1    1    2  502    0  0.24931324656E+02 -0.22201238234E+01 -0.20741535972E+03  0.20892015543E+03  0.00000000000E+00 0. -1.
</event>
<event>
 4    1  0.3767413E+003  0.2159063E+02  0.7546771E-02  0.1510997E+00
          2   -1    0    0  502    0  0.00000000000E+00  0.00000000000E+00  0.33858721282E+03  0.33858721282E+03  0.00000000000E+00 0. -1.
          1   -1    0    0  501    0 -0.00000000000E+00 -0.00000000000E+00 -0.11232870026E+02  0.11232870026E+02  0.00000000000E+00 0.  1.
          2    1    1    2  501    0 -0.14366682087E+02 -0.16116881138E+02  0.32751795328E+03  0.32822883044E+03  0.00000000000E+00 0. -1.
          1    1    1    2  502    0  0.14366682087E+02  0.16116881138E+02 -0.16361049114E+00  0.21591252400E+02  0.00000000000E+00 0.  1.
</event>
<event>
 4    1  0.3767413E+003  0.2386186E+02  0.7546771E-02  0.1481950E+00
          2   -1    0    0  502    0  0.00000000000E+00  0.00000000000E+00  0.19437157179E+03  0.19437157179E+03  0.00000000000E+00 0. -1.
          1   -1    0    0  501    0 -0.00000000000E+00 -0.00000000000E+00 -0.49242626995E+01  0.49242626995E+01  0.00000000000E+00 0.  1.
          2    1    1    2  501    0  0.13087988765E+02 -0.19952270448E+02  0.15814801614E+03  0.15993806162E+03  0.00000000000E+00 0. -1.
          1    1    1    2  502    0 -0.13087988765E+02  0.19952270448E+02  0.31299292946E+02  0.39357772864E+02  0.00000000000E+00 0.  1.
</event>
<event>
 4    1  0.3767413E+003  0.4693104E+02  0.7546771E-02  0.1312056E+00
          2   -1    0    0  502    0  0.00000000000E+00  0.00000000000E+00  0.14507909953E+02  0.14507909953E+02  0.00000000000E+00 0. -1.
          1   -1    0    0  501    0 -0.00000000000E+00 -0.00000000000E+00 -0.73459584959E+03  0.73459584959E+03  0.00000000000E+00 0. -1.
          2    1    1    2  501    0  0.23378429163E+01 -0.46872770897E+02 -0.26433029649E+02  0.53863041294E+02  0.00000000000E+00 0. -1.
          1    1    1    2  502    0 -0.23378429163E+01  0.46872770897E+02 -0.69365490998E+03  0.69524071824E+03  0.00000000000E+00 0. -1.
</event>
<event>
 4    1  0.3767413E+003  0.2271546E+02  0.7546771E-02  0.1496102E+00
          2   -1    0    0  502    0  0.00000000000E+00  0.00000000000E+00  0.18707907522E+01  0.18707907522E+01  0.00000000000E+00 0.  1.
          1   -1    0    0  501    0 -0.00000000000E+00 -0.00000000000E+00 -0.16501939675E+04  0.16501939675E+04  0.00000000000E+00 0. -1.
          2    1    1    2  501    0 -0.18024691762E+02  0.13823979300E+02 -0.70315225649E+02  0.73893320909E+02  0.00000000000E+00 0.  1.
          1    1    1    2  502    0  0.18024691762E+02 -0.13823979300E+02 -0.15780079511E+04  0.15781714374E+04  0.00000000000E+00 0. -1.
</event>
<event>
 4    1  0.3767413E+003  0.2823837E+02  0.7546771E-02  0.1435550E+00
          2   -1    0    0  502    0  0.00000000000E+00  0.00000000000E+00  0.17852216706E+02  0.17852216706E+02  0.00000000000E+00 0.  1.
          1   -1    0    0  501    0 -0.00000000000E+00 -0.00000000000E+00 -0.26721060932E+03  0.26721060932E+03  0.00000000000E+00 0. -1.
          2    1    1    2  501    0 -0.24930190151E+02 -0.13262403745E+02  0.53950336431E+01  0.28749123849E+02  0.00000000000E+00 0.  1.
          1    1    1    2  502    0  0.24930190151E+02  0.13262403745E+02 -0.25475342626E+03  0.25631370218E+03  0.00000000000E+00 0. -1.
</event>
<event>
 4    1  0.3767413E+003  0.2006729E+02  0.7546771E-02  0.1533010E+00
          2   -1    0    0  502    0  0.00000000000E+00  0.00000000000E+00  0.14267711742E+01  0.14267711742E+01  0.00000000000E+00 0. -1.
          1   -1    0    0  501    0 -0.00000000000E+00 -0.00000000000E+00 -0.29510405240E+03  0.29510405240E+03  0.00000000000E+00 0. -1.
          2    1    1    2  501    0 -0.19382964676E+02 -0.51958308343E+01 -0.11588634472E+03  0.11761097258E+03  0.00000000000E+00 0. -1.
          1    1    1    2  502    0  0.19382964676E+02  0.51958308343E+01 -0.17779093651E+03  0.17891985100E+03  0.00000000000E+00 0. -1.
</event>
<event>
 4    1  0.3767413E+003  0.2215539E+02  0.7546771E-02  0.1503385E+00
          2   -1    0    0  502    0  0.00000000000E+00  0.00000000000E+00  0.32267763644E+02  0.32267763644E+02  0.00000000000E+00 0. -1.
          1   -1    0    0  501    0 -0.00000000000E+00 -0.00000000000E+00 -0.16831164179E+02  0.16831164179E+02  0.00000000000E+00 0. -1.
          2    1    1    2  501    0  0.17935036321E+01  0.22082682158E+02  0.15332294325E+02  0.26943287770E+02  0.00000000000E+00 0. -1.
          1    1    1    2  502    0 -0.17935036321E+01 -0.22082682158E+02  0.10430513946E+00  0.22155640053E+02  0.00000000000E+00 0. -1.
</event>
<event>
 4    1  0.3767413E+003  0.2121430E+02  0.7546771E-02  0.1516227E+00
          2   -1    0    0  502    0  0.00000000000E+00  0.00000000000E+00  0.79419967531E+01  0.79419967531E+01  0.00000000000E+00 0. -1.
          1   -1    0    0  501    0 -0.00000000000E+00 -0.00000000000E+00 -0.16986290423E+03  0.16986290423E+03  0.00000000000E+00 0. -1.
          2    1    1    2  501    0 -0.86304253737E+01 -0.19379433983E+02 -0.83865637651E+01  0.22811864357E+02  0.00000000000E+00 0. -1.
          1    1    1    2  502    0  0.86304253737E+01  0.19379433983E+02 -0.15353434371E+03  0.15499303662E+03  0.00000000000E+00 0. -1.
</event>
<event>
 4    1  0.3767413E+003  0.2063116E+02  0.7546771E-02  0.1524597E+00
          2   -1    0    0  502    0  0.00000000000E+00  0.00000000000E+00  0.57034026669E+03  0.57034026669E+03  0.00000000000E+00 0. -1.
          1   -1    0    0  501    0 -0.00000000000E+00 -0.00000000000E+00 -0.14610569575E+02  0.14610569575E+02  0.00000000000E+00 0. -1.
          2    1    1    2  501    0  0.10143692501E+02  0.17965249040E+02  0.56277262394E+03  0.56315066450E+03  0.00000000000E+00 0. -1.
          1    1    1    2  502    0 -0.10143692501E+02 -0.17965249040E+02 -0.70429268259E+01  0.21800171763E+02  0.00000000000E+00 0. -1.
</event>
<event>
 4    1  0.3767413E+003  0.2185544E+02  0.7546771E-02  0.1507393E+00
          2   -1    0    0  502    0  0.00000000000E+00  0.00000000000E+00  0.77168676200E+03  0.77168676200E+03  0.00000000000E+00 0. -1.
          1   -1    0    0  501    0 -0.00000000000E+00 -0.00000000000E+00 -0.89023901976E+00  0.89023901976E+00  0.00000000000E+00 0. -1.
          2    1    1    2  501    0  0.15006925827E+02 -0.15888754178E+02  0.59862852257E+03  0.59902735194E+03  0.00000000000E+00 0. -1.
          1    1    1    2  502    0 -0.15006925827E+02  0.15888754178E+02  0.17216800040E+03  0.17354964908E+03  0.00000000000E+00 0. -1.
</event>
<event>
 4    1  0.3767413E+003  0.3137594E+02  0.7546771E-02  0.1408005E+00
          2   -1    0    0  502    0  0.00000000000E+00  0.00000000000E+00  0.28086224413E+02  0.28086224413E+02  0.00000000000E+00 0. -1.
          1   -1    0    0  501    0 -0.00000000000E+00 -0.00000000000E+00 -0.54951603510E+03  0.54951603510E+03  0.00000000000E+00 0.  1.
          2    1    1    2  501    0  0.27769156011E+02  0.14605605935E+02  0.18723852666E+02  0.36538095311E+02  0.00000000000E+00 0. -1.
          1    1    1    2  502    0 -0.27769156011E+02 -0.14605605935E+02 -0.54015366335E+03  0.54106416420E+03  0.00000000000E+00 0.  1.
</event>
<event>
 4    1  0.3767413E+003  0.2435873E+02  0.7546771E-02  0.1476107E+00
          2   -1    0    0  502    0  0.00000000000E+00  0.00000000000E+00  0.53083699751E+03  0.53083699751E+03  0.00000000000E+00 0. -1.
          1   -1    0    0  501    0 -0.00000000000E+00 -0.00000000000E+00 -0.50489113777E+01  0.50489113777E+01  0.00000000000E+00 0. -1.
          2    1    1    2  501    0  0.15786948155E+02 -0.18550465811E+02  0.49932451004E+03  0.49991830717E+03  0.00000000000E+00 0. -1.
          1    1    1    2  502    0 -0.15786948155E+02  0.18550465811E+02  0.26463576086E+02  0.35967601715E+02  0.00000000000E+00 0. -1.
</event>
<event>
 4    1  0.3767413E+003  0.2087474E+02  0.7546771E-02  0.1521061E+00
          2   -1    0    0  502    0  0.00000000000E+00  0.00000000000E+00  0.27063008636E+03  0.27063008636E+03  0.00000000000E+00 0.  1.
          1   -1    0    0  501    0 -0.00000000000E+00 -0.00000000000E+00 -0.39124724265E+01  0.39124724265E+01  0.00000000000E+00 0.  1.
          2    1    1    2  501    0  0.15612592532E+02  0.13856467727E+02  0.23866094996E+03  0.23957212646E+03  0.00000000000E+00 0.  1.
          1    1    1    2  502    0 -0.15612592532E+02 -0.13856467727E+02  0.28056663979E+02  0.34970432326E+02  0.00000000000E+00 0.  1.
</event>
<event>
 4    1  0.3767413E+003  0.2229287E+02  0.7546771E-02  0.1501574E+00
          2   -1    0    0  502    0  0.00000000000E+00  0.00000000000E+00  0.27654099206E+02  0.27654099206E+02  0.00000000000E+00 0.  1.
          1   -1    0    0  501    0 -0.00000000000E+00 -0.00000000000E+00 -0.38033972173E+02  0.38033972173E+02  0.00000000000E+00 0. -1.
          2    1    1    2  501    0 -0.10573060769E+02 -0.19626064200E+02  0.18664448992E+02  0.29074622373E+02  0.00000000000E+00 0.  1.
          1    1    1    2  502    0  0.10573060769E+02  0.19626064200E+02 -0.29044321959E+02  0.36613449005E+02  0.00000000000E+00 0. -1.
</event>
<event>
 4    1  0.3767413E+003  0.2298975E+02  0.7546771E-02  0.1492627E+00
          2   -1    0    0  502    0  0.00000000000E+00  0.00000000000E+00  0.38112735676E+01  0.38112735676E+01  0.00000000000E+00 0.  1.
          1   -1    0    0  501    0 -0.00000000000E+00 -0.00000000000E+00 -0.12814309105E+04  0.12814309105E+04  0.00000000000E+00 0.  1.
          2    1    1    2  501    0 -0.16644360425E+02 -0.15858552660E+02 -0.31955966680E+02  0.39366384555E+02  0.00000000000E+00 0.  1.
          1    1    1    2  502    0  0.16644360425E+02  0.15858552660E+02 -0.12456636703E+04  0.12458757995E+04  0.00000000000E+00 0.  1.
</event>
<event>
 4    1  0.3767413E+003  0.2420333E+02  0.7546771E-02  0.1477916E+00
          2   -1    0    0  502    0  0.00000000000E+00  0.00000000000E+00  0.11474957377E+01  0.11474957377E+01  0.00000000000E+00 0. -1.
          1   -1    0    0  501    0 -0.00000000000E+00 -0.00000000000E+00 -0.60127352385E+03  0.60127352385E+03  0.00000000000E+00 0. -1.
          2    1    1    2  501    0  0.11372768202E+02 -0.21364954624E+02 -0.18303114148E+03  0.18462448347E+03  0.00000000000E+00 0. -1.
          1    1    1    2  502    0 -0.11372768202E+02  0.21364954624E+02 -0.41709488663E+03  0.41779653612E+03  0.00000000000E+00 0. -1.
</event>
<event>
 4    1  0.3767413E+003  0.4594750E+02  0.7546771E-02  0.1316768E+00
          2   -1    0    0  502    0  0.00000000000E+00  0.00000000000E+00  0.23153631436E+04  0.23153631436E+04  0.00000000000E+00 0. -1.
          1   -1    0    0  501    0 -0.00000000000E+00 -0.00000000000E+00 -0.34322796029E+03  0.34322796029E+03  0.00000000000E+00 0.  1.
          2    1    1    2  501    0  0.11988842939E+02 -0.44355840508E+02  0.23135962829E+04  0.23140524915E+04  0.00000000000E+00 0. -1.
          1    1    1    2  502    0 -0.11988842939E+02  0.44355840508E+02 -0.34146109958E+03  0.34453861245E+03  0.00000000000E+00 0.  1.
</event>
<event>
 4    1  0.3767413E+003  0.4653119E+02  0.7546771E-02  0.1313956E+00
          2   -1    0    0  502    0  0.00000000000E+00  0.00000000000E+00  0.16822464446E+04  0.16822464446E+04  0.00000000000E+00 0.  1.
          1   -1    0    0  501    0 -0.00000000000E+00 -0.00000000000E+00 -0.60395548842E+02  0.60395548842E+02  0.00000000000E+00 0.  1.
          2    1    1    2  501    0 -0.25649653790E+02 -0.38823276064E+02  0.16729123028E+04  0.16735592981E+04  0.00000000000E+00 0.  1.
          1    1    1    2  502    0  0.25649653790E+02  0.38823276064E+02 -0.51061407035E+02  0.69082695317E+02  0.00000000000E+00 0.  1.
</event>
<event>
 4    1  0.3767413E+003  0.2216899E+02  0.7546771E-02  0.1503205E+00
          2   -1    0    0  502    0  0.00000000000E+00  0.00000000000E+00  0.65650391005E+03  0.65650391005E+03  0.00000000000E+00 0. -1.
          1   -1    0    0  501    0 -0.00000000000E+00 -0.00000000000E+00 -0.13387155728E+02  0.13387155728E+02  0.00000000000E+00 0.  1.
          2    1    1    2  501    0 -0.13968325653E+02 -0.17214821575E+02  0.64700413545E+03  0.64738382393E+03  0.00000000000E+00 0. -1.
          1    1    1    2  502    0  0.13968325653E+02  0.17214821575E+02 -0.38873811276E+01  0.22507241844E+02  0.00000000000E+00 0.  1.
</event>
<event>
 4    1  0.3767413E+003  0.2880023E+02  0.7546771E-02  0.1430317E+00
          2   -1    0    0  502    0  0.00000000000E+00  0.00000000000E+00  0.20509861226E+04  0.20509861226E+04  0.00000000000E+00 0. -1.
          1   -1    0    0  501    0 -0.00000000000E+00 -0.00000000000E+00 -0.39875684521E+02  0.39875684521E+02  0.00000000000E+00 0.  1.
          2    1    1    2  501    0 -0.21187608206E+02 -0.19507393065E+02  0.20456712645E+04  0.20458739882E+04  0.00000000000E+00 0. -1.
          1    1    1    2  502    0  0.21187608206E+02  0.19507393065E+02 -0.34560826447E+02  0.44987818911E+02  0.00000000000E+00 0.  1.
</event>
<event>
 4    1  0.3767413E+003  0.2171834E+02  0.7546771E-02  0.1509251E+00
          2   -1    0    0  502    0  0.00000000000E+00  0.00000000000E+00  0.42343996003E+02  0.42343996003E+02  0.00000000000E+00 0. -1.
          1   -1    0    0  501    0 -0.00000000000E+00 -0.00000000000E+00 -0.13815060894E+02  0.13815060894E+02  0.00000000000E+00 0. -1.
          2    1    1    2  501    0  0.22101215512E+01 -0.21605592577E+02  0.26621943955E+02  0.34357155991E+02  0.00000000000E+00 0. -1.
          1    1    1    2  502    0 -0.22101215512E+01  0.21605592577E+02  0.19069911536E+01  0.21801900906E+02  0.00000000000E+00 0. -1.
</event>
<event>
 4    1  0.3767413E+003  0.2260911E+02  0.7546771E-02  0.1497466E+00
          2   -1    0    0  502    0  0.00000000000E+00  0.00000000000E+00  0.52514145472E+03  0.52514145472E+03  0.00000000000E+00 0. -1.
          1   -1    0    0  501    0 -0.00000000000E+00 -0.00000000000E+00 -0.97438372654E+00  0.97438372654E+00  0.00000000000E+00 0. -1.
          2    1    1    2  501    0 -0.11834356642E+02  0.19264471939E+02  0.27044854067E+03  0.27139193987E+03  0.00000000000E+00 0. -1.
          1    1    1    2  502    0  0.11834356642E+02 -0.19264471939E+02  0.25371853033E+03  0.25472389858E+03  0.00000000000E+00 0. -1.
</event>
<event>
 4    1  0.3767413E+003  0.4786184E+02  0.7546771E-02  0.1307719E+00
          2   -1    0    0  502    0  0.00000000000E+00  0.00000000000E+00  0.57901246180E+02  0.57901246180E+02  0.00000000000E+00 0.  1.
          1   -1    0    0  501    0 -0.00000000000E+00 -0.00000000000E+00 -0.16310389749E+03  0.16310389749E+03  0.00000000000E+00 0.  1.
          2    1    1    2  501    0  0.31801064876E+02 -0.35769379061E+02  0.43569935900E+02  0.64723222416E+02  0.00000000000E+00 0.  1.
          1    1    1    2  502    0 -0.31801064876E+02  0.35769379061E+02 -0.14877258721E+03  0.15628192126E+03  0.00000000000E+00 0.  1.
</event>
<event>
 4    1  0.3767413E+003  0.2228910E+02  0.7546771E-02  0.1501623E+00
          2   -1    0    0  502    0  0.00000000000E+00  0.00000000000E+00  0.89058410802E+00  0.89058410802E+00  0.00000000000E+00 0. -1.
          1   -1    0    0  501    0 -0.00000000000E+00 -0.00000000000E+00 -0.16971938907E+04  0.16971938907E+04  0.00000000000E+00 0. -1.
          2    1    1    2  501    0 -0.39139302095E+01 -0.21942768814E+02 -0.15249847187E+03  0.15411874603E+03  0.00000000000E+00 0. -1.
          1    1    1    2  502    0  0.39139302095E+01  0.21942768814E+02 -0.15438048347E+04  0.15439657288E+04  0.00000000000E+00 0. -1.
</event>
<event>
 4    1  0.3767413E+003  0.2064689E+02  0.7546771E-02  0.1524367E+00
          2   -1    0    0  502    0  0.00000000000E+00  0.00000000000E+00  0.17581893469E+02  0.17581893469E+02  0.00000000000E+00 0. -1.
          1   -1    0    0  501    0 -0.00000000000E+00 -0.00000000000E+00 -0.35710245235E+02  0.35710245235E+02  0.00000000000E+00 0. -1.
          2    1    1    2  501    0 -0.46930315650E+01  0.20106451999E+02  0.60333520819E+01  0.21510353196E+02  0.00000000000E+00 0. -1.
          1    1    1    2  502    0  0.46930315650E+01 -0.20106451999E+02 -0.24161703847E+02  0.31781785508E+02  0.00000000000E+00 0. -1.
</event>
<event>
 4    1  0.3767413E+003  0.2382570E+02  0.7546771E-02  0.1482382E+00
          2   -1    0    0  502    0  0.00000000000E+00  0.00000000000E+00  0.48833608653E+02  0.48833608653E+02  0.00000000000E+00 0. -1.
          1   -1    0    0  501    0 -0.00000000000E+00 -0.00000000000E+00 -0.98718622626E+02  0.98718622626E+02  0.00000000000E+00 0. -1.
          2    1    1    2  501    0  0.18908852189E+02 -0.14495488327E+02  0.44353911531E+02  0.50348121524E+02  0.00000000000E+00 0. -1.
          1    1    1    2  502    0 -0.18908852189E+02  0.14495488327E+02 -0.94238925504E+02  0.97204109754E+02  0.00000000000E+00 0. -1.
</event>
<event>
 4    1  0.3767413E+003  0.5044845E+02  0.7546771E-02  0.1296240E+00
          2   -1    0    0  502    0  0.00000000000E+00  0.00000000000E+00  0.65792706771E+03  0.65792706771E+03  0.00000000000E+00 0. -1.
          1   -1    0    0  501    0 -0.00000000000E+00 -0.00000000000E+00 -0.39605868499E+01  0.39605868499E+01  0.00000000000E+00 0. -1.
          2    1    1    2  501    0  0.88257777179E+01  0.49670429607E+02  0.37750659184E+03  0.38086253795E+03  0.00000000000E+00 0. -1.
          1    1    1    2  502    0 -0.88257777179E+01 -0.49670429607E+02  0.27645988902E+03  0.28102511661E+03  0.00000000000E+00 0. -1.
</event>
<event>
 4    1  0.3767413E+003  0.2282458E+02  0.7546771E-02  0.1494713E+00
          2   -1    0    0  502    0  0.00000000000E+00  0.00000000000E+00  0.10774449939E+02  0.10774449939E+02  0.00000000000E+00 0. -1.
          1   -1    0    0  501    0 -0.00000000000E+00 -0.00000000000E+00 -0.73738964475E+03  0.73738964475E+03  0.00000000000E+00 0.  1.
          2    1    1    2  501    0  0.19481173676E+02 -0.11893083632E+02 -0.16979907045E+01  0.22887654718E+02  0.00000000000E+00 0. -1.
          1    1    1    2  502    0 -0.19481173676E+02  0.11893083632E+02 -0.72491720411E+03  0.72527643997E+03  0.00000000000E+00 0.  1.
</event>
<event>
 4    1  0.3767413E+003  0.2363485E+02  0.7546771E-02  0.1484677E+00
          2   -1    0    0  502    0  0.00000000000E+00  0.00000000000E+00  0.33041323870E+01  0.33041323870E+01  0.00000000000E+00 0. -1.
          1   -1    0    0  501    0 -0.00000000000E+00 -0.00000000000E+00 -0.40237806282E+03  0.40237806282E+03  0.00000000000E+00 0. -1.
          2    1    1    2  501    0  0.48056160844E+01  0.23141134719E+02 -0.45078994076E+02  0.50899133282E+02  0.00000000000E+00 0. -1.
          1    1    1    2  502    0 -0.48056160844E+01 -0.23141134719E+02 -0.35399493635E+03  0.35478306192E+03  0.00000000000E+00 0. -1.
</event>
<event>
 4    1  0.3767413E+003  0.2966384E+02  0.7546771E-02  0.1422540E+00
          2   -1    0    0  502    0  0.00000000000E+00  0.00000000000E+00  0.10104262346E+04  0.10104262346E+04  0.00000000000E+00 0. -1.
          1   -1    0    0  501    0 -0.00000000000E+00 -0.00000000000E+00 -0.30772961494E+01  0.30772961494E+01  0.00000000000E+00 0. -1.
          2    1    1    2  501    0  0.27844940116E+02 -0.10227547687E+02  0.93277193745E+03  0.93324350023E+03  0.00000000000E+00 0. -1.
          1    1    1    2  502    0 -0.27844940116E+02  0.10227547687E+02  0.74577001051E+02  0.80260030573E+02  0.00000000000E+00 0. -1.
</event>
<event>
 4    1  0.3767413E+003  0.2249000E+02  0.7546771E-02  0.1499003E+00
          2   -1    0    0  502    0  0.00000000000E+00  0.00000000000E+00  0.18911569337E+03  0.18911569337E+03  0.00000000000E+00 0. -1.
          1   -1    0    0  501    0 -0.00000000000E+00 -0.00000000000E+00 -0.47656938160E+01  0.47656938160E+01  0.00000000000E+00 0. -1.
          2    1    1    2  501    0 -0.21861703550E+02  0.52788277478E+01  0.15638972171E+03  0.15799856063E+03  0.00000000000E+00 0. -1.
          1    1    1    2  502    0  0.21861703550E+02 -0.52788277478E+01  0.27960277838E+02  0.35882826551E+02  0.00000000000E+00 0. -1.
</event>
<event>
 4    1  0.3767413E+003  0.4435737E+02  0.7546771E-02  0.1324684E+00
          2   -1    0    0  502    0  0.00000000000E+00  0.00000000000E+00  0.15957460935E+03  0.15957460935E+03  0.00000000000E+00 0. -1.
          1   -1    0    0  501    0 -0.00000000000E+00 -0.00000000000E+00 -0.37800268512E+02  0.37800268512E+02  0.00000000000E+00 0. -1.
          2    1    1    2  501    0  0.35355044248E+02 -0.26787996397E+02  0.14189557470E+03  0.14866717871E+03  0.00000000000E+00 0. -1.
          1    1    1    2  502    0 -0.35355044248E+02  0.26787996397E+02 -0.20121233864E+02  0.48707699155E+02  0.00000000000E+00 0. -1.
</event>
<event>
 4    1  0.3767413E+003  0.2238660E+02  0.7546771E-02  0.1500348E+00
          2   -1    0    0  502    0  0.00000000000E+00  0.00000000000E+00  0.45301018678E+02  0.45301018678E+02  0.00000000000E+00 0. -1.
          1   -1    0    0  501    0 -0.00000000000E+00 -0.00000000000E+00 -0.44888596592E+03  0.44888596592E+03  0.00000000000E+00 0. -1.
          2    1    1    2  501    0 -0.20619953497E+02 -0.87164981090E+01  0.42237190162E+02  0.47803138540E+02  0.00000000000E+00 0. -1.
          1    1    1    2  502    0  0.20619953497E+02  0.87164981090E+01 -0.44582213740E+03  0.44638384606E+03  0.00000000000E+00 0. -1.
</event>
<event>
 4    1  0.3767413E+003  0.2576290E+02  0.7546771E-02  0.1460447E+00
          2   -1    0    0  502    0  0.00000000000E+00  0.00000000000E+00  0.15923405869E+04  0.15923405869E+04  0.00000000000E+00 0. -1.
          1   -1    0    0  501    0 -0.00000000000E+00 -0.00000000000E+00 -0.41708489928E+00  0.41708489928E+00  0.00000000000E+00 0. -1.
          2    1    1    2  501    0  0.24071658043E+02 -0.91805305542E+01  0.81585353521E+03  0.81626020225E+03  0.00000000000E+00 0. -1.
          1    1    1    2  502    0 -0.24071658043E+02  0.91805305542E+01  0.77606996678E+03  0.77649746954E+03  0.00000000000E+00 0. -1.
</event>
<event>
 4    1  0.3767413E+003  0.2319638E+02  0.7546771E-02  0.1490047E+00
          2   -1    0    0  502    0  0.00000000000E+00  0.00000000000E+00  0.31919081159E+03  0.31919081159E+03  0.00000000000E+00 0. -1.
          1   -1    0    0  501    0 -0.00000000000E+00 -0.00000000000E+00 -0.18930855468E+01  0.18930855468E+01  0.00000000000E+00 0.  1.
          2    1    1    2  501    0 -0.23184590532E+02 -0.73931250487E+00  0.21178056296E+03  0.21304712781E+03  0.00000000000E+00 0. -1.
          1    1    1    2  502    0  0.23184590532E+02  0.73931250487E+00  0.10551716308E+03  0.10803676932E+03  0.00000000000E+00 0.  1.
</event>
<event>
 4    1  0.3767413E+003  0.2591360E+02  0.7546771E-02  0.1458837E+00
          2   -1    0    0  502    0  0.00000000000E+00  0.00000000000E+00  0.20465626926E+03  0.20465626926E+03  0.00000000000E+00 0.  1.
          1   -1    0    0  501    0 -0.00000000000E+00 -0.00000000000E+00 -0.54344631243E+01  0.54344631243E+01  0.00000000000E+00 0. -1.
          2    1    1    2  501    0  0.49304494428E+00 -0.25908906579E+02  0.16573334900E+03  0.16774700445E+03  0.00000000000E+00 0.  1.
          1    1    1    2  502    0 -0.49304494428E+00  0.25908906579E+02  0.33488457135E+02  0.42343727927E+02  0.00000000000E+00 0. -1.
</event>
<event>
 4    1  0.3767413E+003  0.2038784E+02  0.7546771E-02  0.1528187E+00
          2   -1    0    0  502    0  0.00000000000E+00  0.00000000000E+00  0.15377623190E+01  0.15377623190E+01  0.00000000000E+00 0. -1.
          1   -1    0    0  501    0 -0.00000000000E+00 -0.00000000000E+00 -0.28399014964E+03  0.28399014964E+03  0.00000000000E+00 0. -1.
          2    1    1    2  501    0  0.15735852479E+01  0.20327015694E+02 -0.17256649180E+03  0.17376667641E+03  0.00000000000E+00 0. -1.
          1    1    1    2  502    0 -0.15735852479E+01 -0.20327015694E+02 -0.10988589552E+03  0.11176123555E+03  0.00000000000E+00 0. -1.
</event>
<event>
 4    1  0.3767413E+003  0.3866758E+02  0.7546771E-02  0.1356476E+00
          2   -1    0    0  502    0  0.00000000000E+00  0.00000000000E+00  0.46763479123E+01  0.46763479123E+01  0.00000000000E+00 0. -1.
          1   -1    0    0  501    0 -0.00000000000E+00 -0.00000000000E+00 -0.65610174818E+03  0.65610174818E+03  0.00000000000E+00 0.  1.
          2    1    1    2  501    0  0.37419223421E+02 -0.97459367953E+01 -0.89149041786E+02  0.97173726988E+02  0.00000000000E+00 0. -1.
          1    1    1    2  502    0 -0.37419223421E+02  0.97459367953E+01 -0.56227635848E+03  0.56360436910E+03  0.00000000000E+00 0.  1.
</event>
<event>
 4    1  0.3767413E+003  0.3944945E+02  0.7546771E-02  0.1351743E+00
          2   -1    0    0  502    0  0.00000000000E+00  0.00000000000E+00  0.52145740765E+01  0.52145740765E+01  0.00000000000E+00 0.  1.
          1   -1    0    0  501    0 -0.00000000000E+00 -0.00000000000E+00 -0.42512483022E+03  0.42512483022E+03  0.00000000000E+00 0.  1.
          2    1    1    2  501    0  0.20965816977E+02 -0.33416967334E+02 -0.92498357281E+02  0.10055946145E+03  0.00000000000E+00 0.  1.
          1    1    1    2  502    0 -0.20965816977E+02  0.33416967334E+02 -0.32741189886E+03  0.32977994284E+03  0.00000000000E+00 0.  1.
</event>
<event>
 4    1  0.3767413E+003  0.2577305E+02  0.7546771E-02  0.1460338E+00
          2   -1    0    0  502    0  0.00000000000E+00  0.00000000000E+00  0.14125483452E+04  0.14125483452E+04  0.00000000000E+00 0.  1.
          1   -1    0    0  501    0 -0.00000000000E+00 -0.00000000000E+00 -0.34834267125E+02  0.34834267125E+02  0.00000000000E+00 0.  1.
          2    1    1    2  501    0 -0.23016108596E+02  0.11597794135E+02  0.14076469676E+04  0.14078828913E+04  0.00000000000E+00 0.  1.
          1    1    1    2  502    0  0.23016108596E+02 -0.11597794135E+02 -0.29932889568E+02  0.39499721032E+02  0.00000000000E+00 0.  1.
</event>
<event>
 4    1  0.3767413E+003  0.2514947E+02  0.7546771E-02  0.1467138E+00
          2   -1    0    0  502    0  0.00000000000E+00  0.00000000000E+00  0.50625927593E+02  0.50625927593E+02  0.00000000000E+00 0. -1.
          1   -1    0    0  501    0 -0.00000000000E+00 -0.00000000000E+00 -0.54139058384E+02  0.54139058384E+02  0.00000000000E+00 0.  1.
          2    1    1    2  501    0 -0.86364703119E+01 -0.23620064996E+02  0.44185979641E+02  0.50841881227E+02  0.00000000000E+00 0. -1.
          1    1    1    2  502    0  0.86364703119E+01  0.23620064996E+02 -0.47699110433E+02  0.53923104750E+02  0.00000000000E+00 0.  1.
</event>
<event>
 4    1  0.3767413E+003  0.2748614E+02  0.7546771E-02  0.1442785E+00
          2   -1    0    0  502    0  0.00000000000E+00  0.00000000000E+00  0.62100741668E+02  0.62100741668E+02  0.00000000000E+00 0.  1.
          1   -1    0    0  501    0 -0.00000000000E+00 -0.00000000000E+00 -0.12665410143E+02  0.12665410143E+02  0.00000000000E+00 0.  1.
          2    1    1    2  501    0 -0.19671629168E+02  0.19196747451E+02  0.32144447269E+02  0.42293659064E+02  0.00000000000E+00 0.  1.
          1    1    1    2  502    0  0.19671629168E+02 -0.19196747451E+02  0.17290884255E+02  0.32472492747E+02  0.00000000000E+00 0.  1.
</event>
<event>
 4    1  0.3767413E+003  0.2910945E+02  0.7546771E-02  0.1427496E+00
          2   -1    0    0  502    0  0.00000000000E+00  0.00000000000E+00  0.30345040128E+03  0.30345040128E+03  0.00000000000E+00 0. -1.
          1   -1    0    0  501    0 -0.00000000000E+00 -0.00000000000E+00 -0.50334932933E+01  0.50334932933E+01  0.00000000000E+00 0.  1.
          2    1    1    2  501    0  0.94611840003E+01  0.27529009250E+02  0.25212755390E+03  0.25380241092E+03  0.00000000000E+00 0. -1.
          1    1    1    2  502    0 -0.94611840003E+01 -0.27529009250E+02  0.46289354095E+02  0.54681483663E+02  0.00000000000E+00 0.  1.
</event>
<event>
 4    1  0.3767413E+003  0.2273287E+02  0.7546771E-02  0.1495880E+00
          2   -1    0    0  502    0  0.00000000000E+00  0.00000000000E+00  0.39446577844E+02  0.39446577844E+02  0.00000000000E+00 0.  1.
          1   -1    0    0  501    0 -0.00000000000E+00 -0.00000000000E+00 -0.55146307402E+03  0.55146307402E+03  0.00000000000E+00 0. -1.
          2    1    1    2  501    0 -0.22695134795E+02 -0.13092295937E+01  0.35915995477E+02  0.42505787330E+02  0.00000000000E+00 0.  1.
          1    1    1    2  502    0  0.22695134795E+02  0.13092295937E+01 -0.54793249166E+03  0.54840386454E+03  0.00000000000E+00 0. -1.
</event>
<event>
 4    1  0.3767413E+003  0.2141635E+02  0.7546771E-02  0.1513403E+00
          2   -1    0    0  502    0  0.00000000000E+00  0.00000000000E+00  0.10956682946E+04  0.10956682946E+04  0.00000000000E+00 0. -1.
          1   -1    0    0  501    0 -0.00000000000E+00 -0.00000000000E+00 -0.17687809029E+03  0.17687809029E+03  0.00000000000E+00 0.  1.
          2    1    1    2  501    0  0.14369460008E+02  0.15880140780E+02  0.10949149238E+04  0.10951243539E+04  0.00000000000E+00 0. -1.
          1    1    1    2  502    0 -0.14369460008E+02 -0.15880140780E+02 -0.17612471948E+03  0.17742203095E+03  0.00000000000E+00 0.  1.
</event>
<event>
 4    1  0.3767413E+003  0.3825253E+02  0.7546771E-02  0.1359042E+00
          2   -1    0    0  502    0  0.00000000000E+00  0.00000000000E+00  0.42605775302E+02  0.42605775302E+02  0.00000000000E+00 0. -1.
          1   -1    0    0  501    0 -0.00000000000E+00 -0.00000000000E+00 -0.15110892289E+03  0.15110892289E+03  0.00000000000E+00 0. -1.
          2    1    1    2  501    0 -0.62902662215E+01 -0.37731797642E+02  0.30890373735E+02  0.49167786120E+02  0.00000000000E+00 0. -1.
          1    1    1    2  502    0  0.62902662215E+01  0.37731797642E+02 -0.13939352132E+03  0.14454691207E+03  0.00000000000E+00 0. -1.
</event>
<event>
 4    1  0.3767413E+003  0.2580495E+02  0.7546771E-02  0.1459997E+00
          2   -1    0    0  502    0  0.00000000000E+00  0.00000000000E+00  0.10757559280E+02  0.10757559280E+02  0.00000000000E+00 0.  1.
          1   -1    0    0  501    0 -0.00000000000E+00 -0.00000000000E+00 -0.44147723683E+03  0.44147723683E+03  0.00000000000E+00 0. -1.
          2    1    1    2  501    0 -0.22394557702E+02 -0.12821037539E+02 -0.56929845256E+01  0.26425466714E+02  0.00000000000E+00 0.  1.
          1    1    1    2  502    0  0.22394557702E+02  0.12821037539E+02 -0.42502669302E+03  0.42580932939E+03  0.00000000000E+00 0. -1.
</event>
<event>
 4    1  0.3767413E+003  0.2001237E+02  0.7546771E-02  0.1533847E+00
          2   -1    0    0  502    0  0.00000000000E+00  0.00000000000E+00  0.29033704493E+02  0.29033704493E+02  0.00000000000E+00 0. -1.
          1   -1    0    0  501    0 -0.00000000000E+00 -0.00000000000E+00 -0.14717450919E+02  0.14717450919E+02  0.00000000000E+00 0. -1.
          2    1    1    2  501    0  0.14543705169E+02  0.13746830360E+02  0.16788973954E+01  0.20082664202E+02  0.00000000000E+00 0. -1.
          1    1    1    2  502    0 -0.14543705169E+02 -0.13746830360E+02  0.12637356178E+02  0.23668491210E+02  0.00000000000E+00 0. -1.
</event>
<event>
 4    1  0.3767413E+003  0.2013883E+02  0.7546771E-02  0.1531924E+00
          2   -1    0    0  502    0  0.00000000000E+00  0.00000000000E+00  0.10338722458E+03  0.10338722458E+03  0.00000000000E+00 0. -1.
          1   -1    0    0  501    0 -0.00000000000E+00 -0.00000000000E+00 -0.95924778485E+01  0.95924778485E+01  0.00000000000E+00 0.  1.
          2    1    1    2  501    0  0.19492519354E+02  0.50610488470E+01  0.90326622686E+02  0.92544428747E+02  0.00000000000E+00 0. -1.
          1    1    1    2  502    0 -0.19492519354E+02 -0.50610488470E+01  0.34681240497E+01  0.20435273686E+02  0.00000000000E+00 0.  1.
</event>
<event>
 4    1  0.3767413E+003  0.6482480E+02  0.7546771E-02  0.1244266E+00
          2   -1    0    0  502    0  0.00000000000E+00  0.00000000000E+00  0.27987213588E+04  0.27987213588E+04  0.00000000000E+00 0. -1.
          1   -1    0    0  501    0 -0.00000000000E+00 -0.00000000000E+00 -0.43990975277E+01  0.43990975277E+01  0.00000000000E+00 0. -1.
          2    1    1    2  501    0 -0.61593034273E+02 -0.20212689880E+02  0.25346566161E+04  0.25354854400E+04  0.00000000000E+00 0. -1.
          1    1    1    2  502    0  0.61593034273E+02  0.20212689880E+02  0.25966564512E+03  0.26763501632E+03  0.00000000000E+00 0. -1.
</event>
<event>
 4    1  0.3767413E+003  0.2700650E+02  0.7546771E-02  0.1447543E+00
          2   -1    0    0  502    0  0.00000000000E+00  0.00000000000E+00  0.19873478270E+04  0.19873478270E+04  0.00000000000E+00 0. -1.
          1   -1    0    0  501    0 -0.00000000000E+00 -0.00000000000E+00 -0.17837514029E+01  0.17837514029E+01  0.00000000000E+00 0. -1.
          2    1    1    2  501    0  0.13461546148E+02  0.23412339285E+02  0.18791491331E+04  0.18793431872E+04  0.00000000000E+00 0. -1.
          1    1    1    2  502    0 -0.13461546148E+02 -0.23412339285E+02  0.10641494247E+03  0.10978839118E+03  0.00000000000E+00 0. -1.
</event>
<event>
 4    1  0.3767413E+003  0.2005151E+02  0.7546771E-02  0.1533250E+00
          2   -1    0    0  502    0  0.00000000000E+00  0.00000000000E+00  0.11028974182E+04  0.11028974182E+04  0.00000000000E+00 0. -1.
          1   -1    0    0  501    0 -0.00000000000E+00 -0.00000000000E+00 -0.10640310313E+01  0.10640310313E+01  0.00000000000E+00 0.  1.
          2    1    1    2  501    0 -0.92140530642E+01  0.17809109729E+02  0.99845910615E+03  0.99866042768E+03  0.00000000000E+00 0. -1.
          1    1    1    2  502    0  0.92140530642E+01 -0.17809109729E+02  0.10337428100E+03  0.10530102153E+03  0.00000000000E+00 0.  1.
</event>
<event>
 4    1  0.3767413E+003  0.2095160E+02  0.7546771E-02  0.1519957E+00
          2   -1    0    0  502    0  0.00000000000E+00  0.00000000000E+00  0.59318588317E+02  0.59318588317E+02  0.00000000000E+00 0. -1.
          1   -1    0    0  501    0 -0.00000000000E+00 -0.00000000000E+00 -0.83124903439E+02  0.83124903439E+02  0.00000000000E+00 0.  1.
          2    1    1    2  501    0  0.77536799429E+01 -0.19464068841E+02  0.56074441864E+02  0.59860776463E+02  0.00000000000E+00 0. -1.
          1    1    1    2  502    0 -0.77536799429E+01  0.19464068841E+02 -0.79880756986E+02  0.82582715293E+02  0.00000000000E+00 0.  1.
</event>
<event>
 4    1  0.3767413E+003  0.7591196E+02  0.7546771E-02  0.1213670E+00
          2   -1    0    0  502    0  0.00000000000E+00  0.00000000000E+00  0.12457673357E+03  0.12457673357E+03  0.00000000000E+00 0. -1.
          1   -1    0    0  501    0 -0.00000000000E+00 -0.00000000000E+00 -0.87128701787E+03  0.87128701787E+03  0.00000000000E+00 0.  1.
          2    1    1    2  501    0  0.46920455780E+02 -0.59674927830E+02  0.11117858562E+03  0.13462282156E+03  0.00000000000E+00 0. -1.
          1    1    1    2  502    0 -0.46920455780E+02  0.59674927830E+02 -0.85788886992E+03  0.86124092989E+03  0.00000000000E+00 0.  1.
</event>
<event>
 4    1  0.3767413E+003  0.4772368E+02  0.7546771E-02  0.1308355E+00
          2   -1    0    0  502    0  0.00000000000E+00  0.00000000000E+00  0.30169699615E+01  0.30169699615E+01  0.00000000000E+00 0. -1.
          1   -1    0    0  501    0 -0.00000000000E+00 -0.00000000000E+00 -0.77475200905E+03  0.77475200905E+03  0.00000000000E+00 0.  1.
          2    1    1    2  501    0  0.70994007928E+01  0.47192672269E+02 -0.32363757864E+03  0.32713732914E+03  0.00000000000E+00 0. -1.
          1    1    1    2  502    0 -0.70994007928E+01 -0.47192672269E+02 -0.44809746045E+03  0.45063164987E+03  0.00000000000E+00 0.  1.
</event>
<event>
 4    1  0.3767413E+003  0.3139489E+02  0.7546771E-02  0.1407850E+00
          2   -1    0    0  502    0  0.00000000000E+00  0.00000000000E+00  0.57977685874E+03  0.57977685874E+03  0.00000000000E+00 0.  1.
          1   -1    0    0  501    0 -0.00000000000E+00 -0.00000000000E+00 -0.55447039735E+03  0.55447039735E+03  0.00000000000E+00 0.  1.
          2    1    1    2  501    0 -0.14423720421E+02 -0.27885397911E+02  0.57890677768E+03  0.57975744616E+03  0.00000000000E+00 0.  1.
          1    1    1    2  502    0  0.14423720421E+02  0.27885397911E+02 -0.55360031629E+03  0.55448980994E+03  0.00000000000E+00 0.  1.
</event>
<event>
 4    1  0.3767413E+003  0.2108679E+02  0.7546771E-02  0.1518029E+00
          2   -1    0    0  502    0  0.00000000000E+00  0.00000000000E+00  0.12516585320E+03  0.12516585320E+03  0.00000000000E+00 0.  1.
          1   -1    0    0  501    0 -0.00000000000E+00 -0.00000000000E+00 -0.16591561925E+03  0.16591561925E+03  0.00000000000E+00 0.  1.
          2    1    1    2  501    0  0.60334112399E+01  0.20205212469E+02  0.12359929711E+03  0.12538516223E+03  0.00000000000E+00 0.  1.
          1    1    1    2  502    0 -0.60334112399E+01 -0.20205212469E+02 -0.16434906315E+03  0.16569631022E+03  0.00000000000E+00 0.  1.
</event>
<event>
 4    1  0.3767413E+003  0.3007875E+02  0.7546771E-02  0.1418913E+00
          2   -1    0    0  502    0  0.00000000000E+00  0.00000000000E+00  0.11074331642E+04  0.11074331642E+04  0.00000000000E+00 0. -1.
          1   -1    0    0  501    0 -0.00000000000E+00 -0.00000000000E+00 -0.11764225512E+01  0.11764225512E+01  0.00000000000E+00 0.  1.
          2    1    1    2  501    0 -0.11759939074E+02  0.27684563697E+02  0.85953090411E+03  0.86005703669E+03  0.00000000000E+00 0. -1.
          1    1    1    2  502    0  0.11759939074E+02 -0.27684563697E+02  0.24672583748E+03  0.24855255001E+03  0.00000000000E+00 0.  1.
</event>
<event>
 4    1  0.3767413E+003  0.2323975E+02  0.7546771E-02  0.1489509E+00
          2   -1    0    0  502    0  0.00000000000E+00  0.00000000000E+00  0.10831202105E+04  0.10831202105E+04  0.00000000000E+00 0. -1.
          1   -1    0    0  501    0 -0.00000000000E+00 -0.00000000000E+00 -0.10742551421E+01  0.10742551421E+01  0.00000000000E+00 0.  1.
          2    1    1    2  501    0  0.22775025220E+02  0.46242964515E+01  0.93783971537E+03  0.93812761265E+03  0.00000000000E+00 0. -1.
          1    1    1    2  502    0 -0.22775025220E+02 -0.46242964515E+01  0.14420623998E+03  0.14606685298E+03  0.00000000000E+00 0.  1.
</event>
<event>
 4    1  0.3767413E+003  0.2162406E+02  0.7546771E-02  0.1510538E+00
          2   -1    0    0  502    0  0.00000000000E+00  0.00000000000E+00  0.14392505816E+04  0.14392505816E+04  0.00000000000E+00 0.  1.
          1   -1    0    0  501    0 -0.00000000000E+00 -0.00000000000E+00 -0.13006760549E+03  0.13006760549E+03  0.00000000000E+00 0. -1.
          2    1    1    2  501    0  0.21252314042E+02  0.39923809089E+01  0.14382699827E+04  0.14384325299E+04  0.00000000000E+00 0.  1.
          1    1    1    2  502    0 -0.21252314042E+02 -0.39923809089E+01 -0.12908700665E+03  0.13088565713E+03  0.00000000000E+00 0. -1.
</event>
<event>
 4    1  0.3767413E+003  0.2439221E+02  0.7546771E-02  0.1475719E+00
          2   -1    0    0  502    0  0.00000000000E+00  0.00000000000E+00  0.27527774872E+02  0.27527774872E+02  0.00000000000E+00 0. -1.
          1   -1    0    0  501    0 -0.00000000000E+00 -0.00000000000E+00 -0.23153156661E+02  0.23153156661E+02  0.00000000000E+00 0. -1.
          2    1    1    2  501    0  0.20109140828E+01  0.24309175133E+02  0.87213126994E+01  0.25904460355E+02  0.00000000000E+00 0. -1.
          1    1    1    2  502    0 -0.20109140828E+01 -0.24309175133E+02 -0.43466944883E+01  0.24776471178E+02  0.00000000000E+00 0. -1.
</event>
<event>
 4    1  0.3767413E+003  0.4711339E+02  0.7546771E-02  0.1311197E+00
          2   -1    0    0  502    0  0.00000000000E+00  0.00000000000E+00  0.12782801635E+04  0.12782801635E+04  0.00000000000E+00 0.  1.
          1   -1    0    0  501    0 -0.00000000000E+00 -0.00000000000E+00 -0.25262730303E+02  0.25262730303E+02  0.00000000000E+00 0.  1.
          2    1    1    2  501    0  0.30571451176E+02  0.35847708249E+02  0.12554814307E+04  0.12563651120E+04  0.00000000000E+00 0.  1.
          1    1    1    2  502    0 -0.30571451176E+02 -0.35847708249E+02 -0.24639974884E+01  0.47177781819E+02  0.00000000000E+00 0.  1.
</event>
<event>
 4    1  0.3767413E+003  0.2127467E+02  0.7546771E-02  0.1515379E+00
          2   -1    0    0  502    0  0.00000000000E+00  0.00000000000E+00  0.40160097624E+01  0.40160097624E+01  0.00000000000E+00 0.  1.
          1   -1    0    0  501    0 -0.00000000000E+00 -0.00000000000E+00 -0.39528380472E+03  0.39528380472E+03  0.00000000000E+00 0. -1.
          2    1    1    2  501    0 -0.14854707597E+02 -0.15229876040E+02 -0.26828291255E+02  0.34239869650E+02  0.00000000000E+00 0.  1.
          1    1    1    2  502    0  0.14854707597E+02  0.15229876040E+02 -0.36443950371E+03  0.36505994484E+03  0.00000000000E+00 0. -1.
</event>
<event>
 4    1  0.3767413E+003  0.2325163E+02  0.7546771E-02  0.1489362E+00
          2   -1    0    0  502    0  0.00000000000E+00  0.00000000000E+00  0.71752595076E+01  0.71752595076E+01  0.00000000000E+00 0.  1.
          1   -1    0    0  501    0 -0.00000000000E+00 -0.00000000000E+00 -0.73048031669E+03  0.73048031669E+03  0.00000000000E+00 0.  1.
          2    1    1    2  501    0  0.17155096897E+02  0.15695248231E+02 -0.12364228627E+02  0.26334622005E+02  0.00000000000E+00 0.  1.
          1    1    1    2  502    0 -0.17155096897E+02 -0.15695248231E+02 -0.71094082856E+03  0.71132095419E+03  0.00000000000E+00 0.  1.
</event>
<event>
 4    1  0.3767413E+003  0.3829890E+02  0.7546771E-02  0.1358753E+00
          2   -1    0    0  502    0  0.00000000000E+00  0.00000000000E+00  0.11329996851E+04  0.11329996851E+04  0.00000000000E+00 0.  1.
          1   -1    0    0  501    0 -0.00000000000E+00 -0.00000000000E+00 -0.16978211408E+01  0.16978211408E+01  0.00000000000E+00 0. -1.
          2    1    1    2  501    0 -0.22109755298E+02  0.31272419044E+02  0.84213132454E+03  0.84300176348E+03  0.00000000000E+00 0.  1.
          1    1    1    2  502    0  0.22109755298E+02 -0.31272419044E+02  0.28917053943E+03  0.29169574276E+03  0.00000000000E+00 0. -1.
</event>
<event>
 4    1  0.3767413E+003  0.2226901E+02  0.7546771E-02  0.1501887E+00
          2   -1    0    0  502    0  0.00000000000E+00  0.00000000000E+00  0.35784930284E+03  0.35784930284E+03  0.00000000000E+00 0.  1.
          1   -1    0    0  501    0 -0.00000000000E+00 -0.00000000000E+00 -0.14302788777E+02  0.14302788777E+02  0.00000000000E+00 0.  1.
          2    1    1    2  501    0  0.11830161516E+02 -0.18866798136E+02  0.34860518801E+03  0.34931573956E+03  0.00000000000E+00 0.  1.
          1    1    1    2  502    0 -0.11830161516E+02  0.18866798136E+02 -0.50586739463E+01  0.22836352062E+02  0.00000000000E+00 0.  1.
</event>
<event>
 4    1  0.3767413E+003  0.2382488E+02  0.7546771E-02  0.1482392E+00
          2   -1    0    0  502    0  0.00000000000E+00  0.00000000000E+00  0.43611185972E+02  0.43611185972E+02  0.00000000000E+00 0. -1.
          1   -1    0    0  501    0 -0.00000000000E+00 -0.00000000000E+00 -0.18768039691E+02  0.18768039691E+02  0.00000000000E+00 0.  1.
          2    1    1    2  501    0  0.19524172841E+02 -0.13653992529E+02  0.29688989309E+02  0.38066532851E+02  0.00000000000E+00 0. -1.
          1    1    1    2  502    0 -0.19524172841E+02  0.13653992529E+02 -0.48458430275E+01  0.24312692812E+02  0.00000000000E+00 0.  1.
</event>
<event>
 4    1  0.3767413E+003  0.2243329E+02  0.7546771E-02  0.1499740E+00
          2   -1    0    0  502    0  0.00000000000E+00  0.00000000000E+00  0.91802822806E+02  0.91802822806E+02  0.00000000000E+00 0.  1.
          1   -1    0    0  501    0 -0.00000000000E+00 -0.00000000000E+00 -0.35408261034E+03  0.35408261034E+03  0.00000000000E+00 0.  1.
          2    1    1    2  501    0  0.20769662984E+02  0.84778387522E+01  0.90070297828E+02  0.92821932759E+02  0.00000000000E+00 0.  1.
          1    1    1    2  502    0 -0.20769662984E+02 -0.84778387522E+01 -0.35235008537E+03  0.35306350039E+03  0.00000000000E+00 0.  1.
</event>
<event>
 4    1  0.3767413E+003  0.2011821E+02  0.7546771E-02  0.1532236E+00
          2   -1    0    0  502    0  0.00000000000E+00  0.00000000000E+00  0.55807350711E+03  0.55807350711E+03  0.00000000000E+00 0.  1.
          1   -1    0    0  501    0 -0.00000000000E+00 -0.00000000000E+00 -0.26238811254E+01  0.26238811254E+01  0.00000000000E+00 0. -1.
          2    1    1    2  501    0 -0.23110149351E+01  0.19985033044E+02  0.51620200821E+03  0.51659389816E+03  0.00000000000E+00 0.  1.
          1    1    1    2  502    0  0.23110149351E+01 -0.19985033044E+02  0.39247617766E+02  0.44103490067E+02  0.00000000000E+00 0. -1.
</event>
<event>
 4    1  0.3767413E+003  0.3875888E+02  0.7546771E-02  0.1355916E+00
          2   -1    0    0  502    0  0.00000000000E+00  0.00000000000E+00  0.50411502733E+01  0.50411502733E+01  0.00000000000E+00 0.  1.
          1   -1    0    0  501    0 -0.00000000000E+00 -0.00000000000E+00 -0.30633763093E+03  0.30633763093E+03  0.00000000000E+00 0.  1.
          2    1    1    2  501    0  0.34463876385E+02 -0.17733911896E+02 -0.12495942360E+03  0.13083236585E+03  0.00000000000E+00 0.  1.
          1    1    1    2  502    0 -0.34463876385E+02  0.17733911896E+02 -0.17633705706E+03  0.18054641536E+03  0.00000000000E+00 0.  1.
</event>
<event>
 4    1  0.3767413E+003  0.2293664E+02  0.7546771E-02  0.1493295E+00
          2   -1    0    0  502    0  0.00000000000E+00  0.00000000000E+00  0.11114150449E+01  0.11114150449E+01  0.00000000000E+00 0. -1.
          1   -1    0    0  501    0 -0.00000000000E+00 -0.00000000000E+00 -0.61658820094E+03  0.61658820094E+03  0.00000000000E+00 0.  1.
          2    1    1    2  501    0 -0.18021725108E+02 -0.14188258657E+02 -0.15887844375E+03  0.16052554049E+03  0.00000000000E+00 0. -1.
          1    1    1    2  502    0  0.18021725108E+02  0.14188258657E+02 -0.45659834214E+03  0.45717407550E+03  0.00000000000E+00 0.  1.
</event>
<event>
 4    1  0.3767413E+003  0.2561226E+02  0.7546771E-02  0.1462069E+00
          2   -1    0    0  502    0  0.00000000000E+00  0.00000000000E+00  0.66617060263E+03  0.66617060263E+03  0.00000000000E+00 0. -1.
          1   -1    0    0  501    0 -0.00000000000E+00 -0.00000000000E+00 -0.12382084478E+01  0.12382084478E+01  0.00000000000E+00 0. -1.
          2    1    1    2  501    0 -0.25543645438E+02 -0.18734641665E+01  0.48345650271E+03  0.48413446242E+03  0.00000000000E+00 0. -1.
          1    1    1    2  502    0  0.25543645438E+02  0.18734641665E+01  0.18147589147E+03  0.18327434865E+03  0.00000000000E+00 0. -1.
</event>
<event>
 4    1  0.3767413E+003  0.2397274E+02  0.7546771E-02  0.1480632E+00
          2   -1    0    0  502    0  0.00000000000E+00  0.00000000000E+00  0.51178511358E+01  0.51178511358E+01  0.00000000000E+00 0.  1.
          1   -1    0    0  501    0 -0.00000000000E+00 -0.00000000000E+00 -0.83647610898E+03  0.83647610898E+03  0.00000000000E+00 0. -1.
          2    1    1    2  501    0 -0.19048459412E+02 -0.14555022099E+02 -0.24144288778E+02  0.34024096680E+02  0.00000000000E+00 0.  1.
          1    1    1    2  502    0  0.19048459412E+02  0.14555022099E+02 -0.80721396907E+03  0.80756986343E+03  0.00000000000E+00 0. -1.
</event>
<event>
 4    1  0.3767413E+003  0.2579973E+02  0.7546771E-02  0.1460052E+00
          2   -1    0    0  502    0  0.00000000000E+00  0.00000000000E+00  0.16327278018E+01  0.16327278018E+01  0.00000000000E+00 0.  1.
          1   -1    0    0  501    0 -0.00000000000E+00 -0.00000000000E+00 -0.41278689338E+03  0.41278689338E+03  0.00000000000E+00 0. -1.
          2    1    1    2  501    0 -0.24399361642E+02  0.83843540077E+01 -0.18252363526E+03  0.18433801472E+03  0.00000000000E+00 0.  1.
          1    1    1    2  502    0  0.24399361642E+02 -0.83843540077E+01 -0.22863053031E+03  0.23008160646E+03  0.00000000000E+00 0. -1.
</event>
<event>
 4    1  0.3767413E+003  0.2662189E+02  0.7546771E-02  0.1451444E+00
          2   -1    0    0  502    0  0.00000000000E+00  0.00000000000E+00  0.30479844219E+02  0.30479844219E+02  0.00000000000E+00 0. -1.
          1   -1    0    0  501    0 -0.00000000000E+00 -0.00000000000E+00 -0.56860861713E+02  0.56860861713E+02  0.00000000000E+00 0.  1.
          2    1    1    2  501    0  0.45824555824E+01  0.26224534000E+02  0.20383658053E+02  0.33529369191E+02  0.00000000000E+00 0. -1.
          1    1    1    2  502    0 -0.45824555824E+01 -0.26224534000E+02 -0.46764675548E+02  0.53811336740E+02  0.00000000000E+00 0.  1.
</event>
<event>
 4    1  0.3767413E+003  0.2922153E+02  0.7546771E-02  0.1426484E+00
          2   -1    0    0  502    0  0.00000000000E+00  0.00000000000E+00  0.23436357400E+03  0.23436357400E+03  0.00000000000E+00 0.  1.
          1   -1    0    0  501    0 -0.00000000000E+00 -0.00000000000E+00 -0.94203709298E+01  0.94203709298E+01  0.00000000000E+00 0.  1.
          2    1    1    2  501    0  0.28833265473E+02  0.47476883071E+01  0.20792433901E+03  0.20996768440E+03  0.00000000000E+00 0.  1.
          1    1    1    2  502    0 -0.28833265473E+02 -0.47476883071E+01  0.17018864066E+02  0.33816260529E+02  0.00000000000E+00 0.  1.
</event>
<event>
 4    1  0.3767413E+003  0.2287999E+02  0.7546771E-02  0.1494011E+00
          2   -1    0    0  502    0  0.00000000000E+00  0.00000000000E+00  0.18472912042E+02  0.18472912042E+02  0.00000000000E+00 0. -1.
          1   -1    0    0  501    0 -0.00000000000E+00 -0.00000000000E+00 -0.13523751658E+03  0.13523751658E+03  0.00000000000E+00 0. -1.
          2    1    1    2  501    0  0.16082813698E+02 -0.16273812060E+02  0.99477390303E+01  0.24948975274E+02  0.00000000000E+00 0. -1.
          1    1    1    2  502    0 -0.16082813698E+02  0.16273812060E+02 -0.12671234356E+03  0.12876145334E+03  0.00000000000E+00 0. -1.
</event>
<event>
 4    1  0.3767413E+003  0.2491297E+02  0.7546771E-02  0.1469779E+00
          2   -1    0    0  502    0  0.00000000000E+00  0.00000000000E+00  0.15389223671E+03  0.15389223671E+03  0.00000000000E+00 0. -1.
          1   -1    0    0  501    0 -0.00000000000E+00 -0.00000000000E+00 -0.15707300914E+03  0.15707300914E+03  0.00000000000E+00 0. -1.
          2    1    1    2  501    0  0.24404075077E+02 -0.50096897989E+01  0.15188314641E+03  0.15391278711E+03  0.00000000000E+00 0. -1.
          1    1    1    2  502    0 -0.24404075077E+02  0.50096897989E+01 -0.15506391884E+03  0.15705245874E+03  0.00000000000E+00 0. -1.
</event>
<event>
 4    1  0.3767413E+003  0.2302176E+02  0.7546771E-02  0.1492225E+00
          2   -1    0    0  502    0  0.00000000000E+00  0.00000000000E+00  0.20718617596E+02  0.20718617596E+02  0.00000000000E+00 0. -1.
          1   -1    0    0  501    0 -0.00000000000E+00 -0.00000000000E+00 -0.20117509523E+03  0.20117509523E+03  0.00000000000E+00 0. -1.
          2    1    1    2  501    0 -0.92384567681E+01 -0.21086783817E+02  0.13425013210E+02  0.26650187896E+02  0.00000000000E+00 0. -1.
          1    1    1    2  502    0  0.92384567681E+01  0.21086783817E+02 -0.19388149085E+03  0.19524352493E+03  0.00000000000E+00 0. -1.
</event>
<event>
 4    1  0.3767413E+003  0.6023150E+02  0.7546771E-02  0.1259048E+00
          2   -1    0    0  502    0  0.00000000000E+00  0.00000000000E+00  0.37600921396E+03  0.37600921396E+03  0.00000000000E+00 0. -1.
          1   -1    0    0  501    0 -0.00000000000E+00 -0.00000000000E+00 -0.31665076200E+03  0.31665076200E+03  0.00000000000E+00 0. -1.
          2    1    1    2  501    0  0.32452579853E+02  0.50741146529E+02  0.37069211025E+03  0.37555355742E+03  0.00000000000E+00 0. -1.
          1    1    1    2  502    0 -0.32452579853E+02 -0.50741146529E+02 -0.31133365830E+03  0.31710641854E+03  0.00000000000E+00 0. -1.
</event>
<event>
 4    1  0.3767413E+003  0.2546528E+02  0.7546771E-02  0.1463665E+00
          2   -1    0    0  502    0  0.00000000000E+00  0.00000000000E+00  0.12973639465E+01  0.12973639465E+01  0.00000000000E+00 0.  1.
          1   -1    0    0  501    0 -0.00000000000E+00 -0.00000000000E+00 -0.72695696648E+03  0.72695696648E+03  0.00000000000E+00 0. -1.
          2    1    1    2  501    0 -0.12605866227E+02  0.22126283950E+02 -0.15930414546E+03  0.16132665950E+03  0.00000000000E+00 0.  1.
          1    1    1    2  502    0  0.12605866227E+02 -0.22126283950E+02 -0.56635545707E+03  0.56692767092E+03  0.00000000000E+00 0. -1.
</event>
<event>
 4    1  0.3767413E+003  0.2502859E+02  0.7546771E-02  0.1468484E+00
          2   -1    0    0  502    0  0.00000000000E+00  0.00000000000E+00  0.67440047489E+03  0.67440047489E+03  0.00000000000E+00 0. -1.
          1   -1    0    0  501    0 -0.00000000000E+00 -0.00000000000E+00 -0.22752953565E+03  0.22752953565E+03  0.00000000000E+00 0. -1.
          2    1    1    2  501    0  0.21175004718E+02 -0.13343522785E+02  0.67347902025E+03  0.67394393026E+03  0.00000000000E+00 0. -1.
          1    1    1    2  502    0 -0.21175004718E+02  0.13343522785E+02 -0.22660808100E+03  0.22798608028E+03  0.00000000000E+00 0. -1.
</event>
<event>
 4    1  0.3767413E+003  0.2124023E+02  0.7546771E-02  0.1515863E+00
          2   -1    0    0  502    0  0.00000000000E+00  0.00000000000E+00  0.91063752619E+03  0.91063752619E+03  0.00000000000E+00 0. -1.
          1   -1    0    0  501    0 -0.00000000000E+00 -0.00000000000E+00 -0.78831659117E+01  0.78831659117E+01  0.00000000000E+00 0.  1.
          2    1    1    2  501    0  0.13324910974E+02  0.16540676377E+02  0.89597222360E+03  0.89622395231E+03  0.00000000000E+00 0. -1.
          1    1    1    2  502    0 -0.13324910974E+02 -0.16540676377E+02  0.67821366772E+01  0.22296739793E+02  0.00000000000E+00 0.  1.
</event>
<event>
 4    1  0.3767413E+003  0.3154335E+02  0.7546771E-02  0.1406643E+00
          2   -1    0    0  502    0  0.00000000000E+00  0.00000000000E+00  0.32696560130E+01  0.32696560130E+01  0.00000000000E+00 0.  1.
          1   -1    0    0  501    0 -0.00000000000E+00 -0.00000000000E+00 -0.57862179865E+03  0.57862179865E+03  0.00000000000E+00 0.  1.
          2    1    1    2  501    0  0.25432192178E+02  0.18659758422E+02 -0.87349621739E+02  0.92870551851E+02  0.00000000000E+00 0.  1.
          1    1    1    2  502    0 -0.25432192178E+02 -0.18659758422E+02 -0.48800252090E+03  0.48902090281E+03  0.00000000000E+00 0.  1.
</event>
<event>
 4    1  0.3767413E+003  0.2426670E+02  0.7546771E-02  0.1477177E+00
          2   -1    0    0  502    0  0.00000000000E+00  0.00000000000E+00  0.33712351654E+03  0.33712351654E+03  0.00000000000E+00 0.  1.
          1   -1    0    0  501    0 -0.00000000000E+00 -0.00000000000E+00 -0.27650201547E+01  0.27650201547E+01  0.00000000000E+00 0.  1.
          2    1    1    2  501    0 -0.21468593592E+02  0.11312486888E+02  0.27030980934E+03  0.27139687893E+03  0.00000000000E+00 0.  1.
          1    1    1    2  502    0  0.21468593592E+02 -0.11312486888E+02  0.64048687049E+02  0.68491657763E+02  0.00000000000E+00 0.  1.
</event>
<event>
 4    1  0.3767413E+003  0.2518657E+02  0.7546771E-02  0.1466727E+00
          2   -1    0    0  502    0  0.00000000000E+00  0.00000000000E+00  0.29181052964E+03  0.29181052964E+03  0.00000000000E+00 0. -1.
          1   -1    0    0  501    0 -0.00000000000E+00 -0.00000000000E+00 -0.57962455534E+01  0.57962455534E+01  0.00000000000E+00 0. -1.
          2    1    1    2  501    0  0.24546812838E+02  0.56406704771E+01  0.26064175683E+03  0.26185585460E+03  0.00000000000E+00 0. -1.
          1    1    1    2  502    0 -0.24546812838E+02 -0.56406704771E+01  0.25372527251E+02  0.35750920590E+02  0.00000000000E+00 0. -1.
</event>
<event>
 4    1  0.3767413E+003  0.2238822E+02  0.7546771E-02  0.1500327E+00
          2   -1    0    0  502    0  0.00000000000E+00  0.00000000000E+00  0.15638342989E+03  0.15638342989E+03  0.00000000000E+00 0.  1.
          1   -1    0    0  501    0 -0.00000000000E+00 -0.00000000000E+00 -0.55681756578E+01  0.55681756578E+01  0.00000000000E+00 0.  1.
          2    1    1    2  501    0 -0.21452391587E+02 -0.64052697545E+01  0.12815889215E+03  0.13009970877E+03  0.00000000000E+00 0.  1.
          1    1    1    2  502    0  0.21452391587E+02  0.64052697545E+01  0.22656362084E+02  0.31851896777E+02  0.00000000000E+00 0.  1.
</event>
<event>
 4    1  0.3767413E+003  0.2175782E+02  0.7546771E-02  0.1508714E+00
          2   -1    0    0  502    0  0.00000000000E+00  0.00000000000E+00  0.59116470588E+03  0.59116470588E+03  0.00000000000E+00 0.  1.
          1   -1    0    0  501    0 -0.00000000000E+00 -0.00000000000E+00 -0.17737664472E+01  0.17737664472E+01  0.00000000000E+00 0. -1.
          2    1    1    2  501    0 -0.10821095708E+02 -0.18876089048E+02  0.51426953654E+03  0.51472959800E+03  0.00000000000E+00 0.  1.
          1    1    1    2  502    0  0.10821095708E+02  0.18876089048E+02  0.75121402894E+02  0.78208874322E+02  0.00000000000E+00 0. -1.
</event>
<event>
 4    1  0.3767413E+003  0.2100040E+02  0.7546771E-02  0.1519259E+00
          2   -1    0    0  502    0  0.00000000000E+00  0.00000000000E+00  0.12432813976E+02  0.12432813976E+02  0.00000000000E+00 0. -1.
          1   -1    0    0  501    0 -0.00000000000E+00 -0.00000000000E+00 -0.95735853090E+03  0.95735853090E+03  0.00000000000E+00 0. -1.
          2    1    1    2  501    0 -0.19879354803E+02 -0.67696519453E+01  0.33648565497E+01  0.21268267312E+02  0.00000000000E+00 0. -1.
          1    1    1    2  502    0  0.19879354803E+02  0.67696519453E+01 -0.94829057347E+03  0.94852307756E+03  0.00000000000E+00 0. -1.
</event>
<event>
 4    1  0.3767413E+003  0.2317617E+02  0.7546771E-02  0.1490298E+00
          2   -1    0    0  502    0  0.00000000000E+00  0.00000000000E+00  0.15023633523E+03  0.15023633523E+03  0.00000000000E+00 0.  1.
          1   -1    0    0  501    0 -0.00000000000E+00 -0.00000000000E+00 -0.16766998016E+02  0.16766998016E+02  0.00000000000E+00 0. -1.
          2    1    1    2  501    0 -0.11239482561E+00  0.23175893759E+02  0.14080058776E+03  0.14269527041E+03  0.00000000000E+00 0.  1.
          1    1    1    2  502    0  0.11239482561E+00 -0.23175893759E+02 -0.73312505475E+01  0.24308062834E+02  0.00000000000E+00 0. -1.
</event>
<event>
 4    1  0.3767413E+003  0.4612932E+02  0.7546771E-02  0.1315887E+00
          2   -1    0    0  502    0  0.00000000000E+00  0.00000000000E+00  0.10748440703E+03  0.10748440703E+03  0.00000000000E+00 0. -1.
          1   -1    0    0  501    0 -0.00000000000E+00 -0.00000000000E+00 -0.43283910503E+03  0.43283910503E+03  0.00000000000E+00 0. -1.
          2    1    1    2  501    0 -0.14541980263E+02  0.43777218265E+02  0.10123369629E+03  0.11124825973E+03  0.00000000000E+00 0. -1.
          1    1    1    2  502    0  0.14541980263E+02 -0.43777218265E+02 -0.42658839428E+03  0.42907525233E+03  0.00000000000E+00 0. -1.
</event>
<event>
 4    1  0.3767413E+003  0.5422695E+02  0.7546771E-02  0.1280817E+00
          2   -1    0    0  502    0  0.00000000000E+00  0.00000000000E+00  0.11576539985E+04  0.11576539985E+04  0.00000000000E+00 0.  1.
          1   -1    0    0  501    0 -0.00000000000E+00 -0.00000000000E+00 -0.17247103236E+02  0.17247103236E+02  0.00000000000E+00 0.  1.
          2    1    1    2  501    0 -0.54039289756E+02  0.45074177842E+01  0.11126728755E+04  0.11139934872E+04  0.00000000000E+00 0.  1.
          1    1    1    2  502    0  0.54039289756E+02 -0.45074177842E+01  0.27734019708E+02  0.60907614479E+02  0.00000000000E+00 0.  1.
</event>
<event>
 4    1  0.3767413E+003  0.2116833E+02  0.7546771E-02  0.1516875E+00
          2   -1    0    0  502    0  0.00000000000E+00  0.00000000000E+00  0.15476601471E+04  0.15476601471E+04  0.00000000000E+00 0.  1.
          1   -1    0    0  501    0 -0.00000000000E+00 -0.00000000000E+00 -0.15901710583E+01  0.15901710583E+01  0.00000000000E+00 0.  1.
          2    1    1    2  501    0 -0.20593665823E+02 -0.48988918210E+01  0.14735992129E+04  0.14737512471E+04  0.00000000000E+00 0.  1.
          1    1    1    2  502    0  0.20593665823E+02  0.48988918210E+01  0.72470763169E+02  0.75499071037E+02  0.00000000000E+00 0.  1.
</event>
<event>
 4    1  0.3767413E+003  0.3596848E+02  0.7546771E-02  0.1373879E+00
          2   -1    0    0  502    0  0.00000000000E+00  0.00000000000E+00  0.10929484168E+04  0.10929484168E+04  0.00000000000E+00 0. -1.
          1   -1    0    0  501    0 -0.00000000000E+00 -0.00000000000E+00 -0.15979151961E+01  0.15979151961E+01  0.00000000000E+00 0. -1.
          2    1    1    2  501    0  0.35943680708E+02  0.13349374483E+01  0.26703949190E+03  0.26945096117E+03  0.00000000000E+00 0. -1.
          1    1    1    2  502    0 -0.35943680708E+02 -0.13349374483E+01  0.82431100974E+03  0.82509537086E+03  0.00000000000E+00 0. -1.
</event>
<event>
 4    1  0.3767413E+003  0.2338272E+02  0.7546771E-02  0.1487747E+00
          2   -1    0    0  502    0  0.00000000000E+00  0.00000000000E+00  0.12295446566E+01  0.12295446566E+01  0.00000000000E+00 0. -1.
          1   -1    0    0  501    0 -0.00000000000E+00 -0.00000000000E+00 -0.44501431670E+03  0.44501431670E+03  0.00000000000E+00 0. -1.
          2    1    1    2  501    0 -0.22237704333E+02  0.72274211131E+01 -0.22802877107E+03  0.22922450032E+03  0.00000000000E+00 0. -1.
          1    1    1    2  502    0  0.22237704333E+02 -0.72274211131E+01 -0.21575600098E+03  0.21701936104E+03  0.00000000000E+00 0. -1.
</event>
<event>
 4    1  0.3767413E+003  0.2199635E+02  0.7546771E-02  0.1505501E+00
          2   -1    0    0  502    0  0.00000000000E+00  0.00000000000E+00  0.17648962952E+04  0.17648962952E+04  0.00000000000E+00 0. -1.
          1   -1    0    0  501    0 -0.00000000000E+00 -0.00000000000E+00 -0.87469469364E+00  0.87469469364E+00  0.00000000000E+00 0.  1.
          2    1    1    2  501    0 -0.21128614074E+02  0.61172613330E+01  0.16135713161E+04  0.16137212372E+04  0.00000000000E+00 0. -1.
          1    1    1    2  502    0  0.21128614074E+02 -0.61172613330E+01  0.15045028434E+03  0.15204975264E+03  0.00000000000E+00 0.  1.
</event>
<event>
 4    1  0.3767413E+003  0.2218096E+02  0.7546771E-02  0.1503047E+00
          2   -1    0    0  502    0  0.00000000000E+00  0.00000000000E+00  0.65306633568E+03  0.65306633568E+03  0.00000000000E+00 0. -1.
          1   -1    0    0  501    0 -0.00000000000E+00 -0.00000000000E+00 -0.12168051135E+02  0.12168051135E+02  0.00000000000E+00 0.  1.
          2    1    1    2  501    0  0.30121460561E+01  0.21975482299E+02  0.64260515459E+03  0.64298785335E+03  0.00000000000E+00 0. -1.
          1    1    1    2  502    0 -0.30121460561E+01 -0.21975482299E+02 -0.17068700415E+01  0.22246533471E+02  0.00000000000E+00 0.  1.
</event>
<event>
 4    1  0.3767413E+003  0.2827924E+02  0.7546771E-02  0.1435164E+00
          2   -1    0    0  502    0  0.00000000000E+00  0.00000000000E+00  0.26205346228E+03  0.26205346228E+03  0.00000000000E+00 0.  1.
          1   -1    0    0  501    0 -0.00000000000E+00 -0.00000000000E+00 -0.26264075944E+02  0.26264075944E+02  0.00000000000E+00 0.  1.
          2    1    1    2  501    0 -0.66736647943E+01  0.27480496888E+02  0.25341973566E+03  0.25499270172E+03  0.00000000000E+00 0.  1.
          1    1    1    2  502    0  0.66736647943E+01 -0.27480496888E+02 -0.17630349319E+02  0.33324836505E+02  0.00000000000E+00 0.  1.
</event>
<event>
 4    1  0.3767413E+003  0.2880521E+02  0.7546771E-02  0.1430271E+00
          2   -1    0    0  502    0  0.00000000000E+00  0.00000000000E+00  0.31579662903E+02  0.31579662903E+02  0.00000000000E+00 0. -1.
          1   -1    0    0  501    0 -0.00000000000E+00 -0.00000000000E+00 -0.62797438855E+02  0.62797438855E+02  0.00000000000E+00 0.  1.
          2    1    1    2  501    0  0.23242587840E+02 -0.17015353508E+02  0.20378346875E+02  0.35284800777E+02  0.00000000000E+00 0. -1.
          1    1    1    2  502    0 -0.23242587840E+02  0.17015353508E+02 -0.51596122827E+02  0.59092300981E+02  0.00000000000E+00 0.  1.
</event>
<event>
 4    1  0.3767413E+003  0.2015263E+02  0.7546771E-02  0.1531715E+00
          2   -1    0    0  502    0  0.00000000000E+00  0.00000000000E+00  0.83347163056E+02  0.83347163056E+02  0.00000000000E+00 0.  1.
          1   -1    0    0  501    0 -0.00000000000E+00 -0.00000000000E+00 -0.49110680648E+01  0.49110680648E+01  0.00000000000E+00 0.  1.
          2    1    1    2  501    0  0.16787454199E+02  0.11149434093E+02  0.43116870315E+02  0.47594043796E+02  0.00000000000E+00 0.  1.
          1    1    1    2  502    0 -0.16787454199E+02 -0.11149434093E+02  0.35319224676E+02  0.40664187325E+02  0.00000000000E+00 0.  1.
</event>
<event>
 4    1  0.3767413E+003  0.5507043E+02  0.7546771E-02  0.1277569E+00
          2   -1    0    0  502    0  0.00000000000E+00  0.00000000000E+00  0.93286865149E+03  0.93286865149E+03  0.00000000000E+00 0. -1.
          1   -1    0    0  501    0 -0.00000000000E+00 -0.00000000000E+00 -0.39547364629E+01  0.39547364629E+01  0.00000000000E+00 0. -1.
          2    1    1    2  501    0 -0.40829795752E+02  0.36955063626E+02  0.26686179443E+03  0.27248480008E+03  0.00000000000E+00 0. -1.
          1    1    1    2  502    0  0.40829795752E+02 -0.36955063626E+02  0.66205212059E+03  0.66433858787E+03  0.00000000000E+00 0. -1.
</event>
<event>
 4    1  0.3767413E+003  0.2218854E+02  0.7546771E-02  0.1502947E+00
          2   -1    0    0  502    0  0.00000000000E+00  0.00000000000E+00  0.86494824646E+02  0.86494824646E+02  0.00000000000E+00 0. -1.
          1   -1    0    0  501    0 -0.00000000000E+00 -0.00000000000E+00 -0.75780164419E+02  0.75780164419E+02  0.00000000000E+00 0.  1.
          2    1    1    2  501    0 -0.19953227302E+02  0.97056801917E+01  0.83388129864E+02  0.86289696430E+02  0.00000000000E+00 0. -1.
          1    1    1    2  502    0  0.19953227302E+02 -0.97056801917E+01 -0.72673469637E+02  0.75985292635E+02  0.00000000000E+00 0.  1.
</event>
<event>
 4    1  0.3767413E+003  0.2833929E+02  0.7546771E-02  0.1434599E+00
          2   -1    0    0  502    0  0.00000000000E+00  0.00000000000E+00  0.98377707388E+02  0.98377707388E+02  0.00000000000E+00 0. -1.
          1   -1    0    0  501    0 -0.00000000000E+00 -0.00000000000E+00 -0.40533389894E+03  0.40533389894E+03  0.00000000000E+00 0.  1.
          2    1    1    2  501    0 -0.73883285460E+00 -0.28329657964E+02  0.95828567237E+02  0.99931124746E+02  0.00000000000E+00 0. -1.
          1    1    1    2  502    0  0.73883285460E+00  0.28329657964E+02 -0.40278475879E+03  0.40378048158E+03  0.00000000000E+00 0.  1.
</event>
<event>
 4    1  0.3767413E+003  0.3404906E+02  0.7546771E-02  0.1387375E+00
          2   -1    0    0  502    0  0.00000000000E+00  0.00000000000E+00  0.23212542863E+02  0.23212542863E+02  0.00000000000E+00 0.  1.
          1   -1    0    0  501    0 -0.00000000000E+00 -0.00000000000E+00 -0.53797236194E+03  0.53797236194E+03  0.00000000000E+00 0.  1.
          2    1    1    2  501    0 -0.21259311926E+02 -0.26596624583E+02  0.98704586938E+01  0.35450877811E+02  0.00000000000E+00 0.  1.
          1    1    1    2  502    0  0.21259311926E+02  0.26596624583E+02 -0.52463027777E+03  0.52573402699E+03  0.00000000000E+00 0.  1.
</event>
<event>
 4    1  0.3767413E+003  0.3828170E+02  0.7546771E-02  0.1358860E+00
          2   -1    0    0  502    0  0.00000000000E+00  0.00000000000E+00  0.28887718159E+03  0.28887718159E+03  0.00000000000E+00 0. -1.
          1   -1    0    0  501    0 -0.00000000000E+00 -0.00000000000E+00 -0.65857948945E+01  0.65857948945E+01  0.00000000000E+00 0. -1.
          2    1    1    2  501    0  0.85968918011E+01  0.37303912367E+02  0.21194871627E+03  0.21537814828E+03  0.00000000000E+00 0. -1.
          1    1    1    2  502    0 -0.85968918011E+01 -0.37303912367E+02  0.70342670426E+02  0.80084828209E+02  0.00000000000E+00 0. -1.
</event>
<event>
 4    1  0.3767413E+003  0.5914752E+02  0.7546771E-02  0.1262757E+00
          2   -1    0    0  502    0  0.00000000000E+00  0.00000000000E+00  0.82456546319E+03  0.82456546319E+03  0.00000000000E+00 0.  1.
          1   -1    0    0  501    0 -0.00000000000E+00 -0.00000000000E+00 -0.75991912487E+01  0.75991912487E+01  0.00000000000E+00 0.  1.
          2    1    1    2  501    0  0.56470346223E+01  0.58877330523E+02  0.68500838941E+03  0.68755721407E+03  0.00000000000E+00 0.  1.
          1    1    1    2  502    0 -0.56470346223E+01 -0.58877330523E+02  0.13195788253E+03  0.14460744038E+03  0.00000000000E+00 0.  1.
</event>
<event>
 4    1  0.3767413E+003  0.5209540E+02  0.7546771E-02  0.1289334E+00
          2   -1    0    0  502    0  0.00000000000E+00  0.00000000000E+00  0.46706061498E+02  0.46706061498E+02  0.00000000000E+00 0. -1.
          1   -1    0    0  501    0 -0.00000000000E+00 -0.00000000000E+00 -0.26044896590E+03  0.26044896590E+03  0.00000000000E+00 0.  1.
          2    1    1    2  501    0  0.10979667200E+02 -0.50925211745E+02  0.28494589282E+02  0.59379052716E+02  0.00000000000E+00 0. -1.
          1    1    1    2  502    0 -0.10979667200E+02  0.50925211745E+02 -0.24223749368E+03  0.24777597468E+03  0.00000000000E+00 0.  1.
</event>
<event>
 4    1  0.3767413E+003  0.2165698E+02  0.7546771E-02  0.1510088E+00
          2   -1    0    0  502    0  0.00000000000E+00  0.00000000000E+00  0.13072664599E+01  0.13072664599E+01  0.00000000000E+00 0.  1.
          1   -1    0    0  501    0 -0.00000000000E+00 -0.00000000000E+00 -0.13091499531E+04  0.13091499531E+04  0.00000000000E+00 0. -1.
          2    1    1    2  501    0  0.21233823117E+02  0.42602431873E+01 -0.95651935982E+02  0.98073022658E+02  0.00000000000E+00 0.  1.
          1    1    1    2  502    0 -0.21233823117E+02 -0.42602431873E+01 -0.12121907507E+04  0.12123841969E+04  0.00000000000E+00 0. -1.
</event>
<event>
 4    1  0.3767413E+003  0.2046091E+02  0.7546771E-02  0.1527103E+00
          2   -1    0    0  502    0  0.00000000000E+00  0.00000000000E+00  0.10523475464E+02  0.10523475464E+02  0.00000000000E+00 0. -1.
          1   -1    0    0  501    0 -0.00000000000E+00 -0.00000000000E+00 -0.39789050582E+02  0.39789050582E+02  0.00000000000E+00 0. -1.
          2    1    1    2  501    0 -0.10990674418E+01  0.20431375213E+02 -0.14307396970E+02  0.24966991216E+02  0.00000000000E+00 0. -1.
          1    1    1    2  502    0  0.10990674418E+01 -0.20431375213E+02 -0.14958178148E+02  0.25345534830E+02  0.00000000000E+00 0. -1.
</event>
<event>
 4    1  0.3767413E+003  0.2371548E+02  0.7546771E-02  0.1483704E+00
          2   -1    0    0  502    0  0.00000000000E+00  0.00000000000E+00  0.12426588548E+02  0.12426588548E+02  0.00000000000E+00 0.  1.
          1   -1    0    0  501    0 -0.00000000000E+00 -0.00000000000E+00 -0.46705040496E+02  0.46705040496E+02  0.00000000000E+00 0. -1.
          2    1    1    2  501    0 -0.20759017860E+02 -0.11466792079E+02 -0.11938220227E+02  0.26550804984E+02  0.00000000000E+00 0.  1.
          1    1    1    2  502    0  0.20759017860E+02  0.11466792079E+02 -0.22340231720E+02  0.32580824060E+02  0.00000000000E+00 0. -1.
</event>
<event>
 4    1  0.3767413E+003  0.2494826E+02  0.7546771E-02  0.1469383E+00
          2   -1    0    0  502    0  0.00000000000E+00  0.00000000000E+00  0.12859979745E+02  0.12859979745E+02  0.00000000000E+00 0.  1.
          1   -1    0    0  501    0 -0.00000000000E+00 -0.00000000000E+00 -0.58995853216E+03  0.58995853216E+03  0.00000000000E+00 0. -1.
          2    1    1    2  501    0  0.23772328940E+02  0.75691542704E+01  0.23182657872E+00  0.24949337931E+02  0.00000000000E+00 0.  1.
          1    1    1    2  502    0 -0.23772328940E+02 -0.75691542704E+01 -0.57733037900E+03  0.57786917397E+03  0.00000000000E+00 0. -1.
</event>
<event>
 4    1  0.3767413E+003  0.2255740E+02  0.7546771E-02  0.1498132E+00
          2   -1    0    0  502    0  0.00000000000E+00  0.00000000000E+00  0.29345837558E+02  0.29345837558E+02  0.00000000000E+00 0. -1.
          1   -1    0    0  501    0 -0.00000000000E+00 -0.00000000000E+00 -0.13119297646E+04  0.13119297646E+04  0.00000000000E+00 0.  1.
          2    1    1    2  501    0 -0.36782371666E+01  0.22255488754E+02  0.24899308964E+02  0.33597794499E+02  0.00000000000E+00 0. -1.
          1    1    1    2  502    0  0.36782371666E+01 -0.22255488754E+02 -0.13074832360E+04  0.13076778077E+04  0.00000000000E+00 0.  1.
</event>
<event>
 4    1  0.3767413E+003  0.2561574E+02  0.7546771E-02  0.1462032E+00
          2   -1    0    0  502    0  0.00000000000E+00  0.00000000000E+00  0.14643525630E+01  0.14643525630E+01  0.00000000000E+00 0.  1.
          1   -1    0    0  501    0 -0.00000000000E+00 -0.00000000000E+00 -0.56875467781E+03  0.56875467781E+03  0.00000000000E+00 0.  1.
          2    1    1    2  501    0  0.19093068036E+01  0.25544485796E+02 -0.15232427492E+03  0.15446310542E+03  0.00000000000E+00 0.  1.
          1    1    1    2  502    0 -0.19093068036E+01 -0.25544485796E+02 -0.41496605033E+03  0.41575592495E+03  0.00000000000E+00 0.  1.
</event>
<event>
 4    1  0.3767413E+003  0.6020112E+02  0.7546771E-02  0.1259151E+00
          2   -1    0    0  502    0  0.00000000000E+00  0.00000000000E+00  0.91553092175E+02  0.91553092175E+02  0.00000000000E+00 0. -1.
          1   -1    0    0  501    0 -0.00000000000E+00 -0.00000000000E+00 -0.22358761893E+03  0.22358761893E+03  0.00000000000E+00 0. -1.
          2    1    1    2  501    0 -0.87245752297E+01 -0.59565568168E+02  0.76925459014E+02  0.97681632709E+02  0.00000000000E+00 0. -1.
          1    1    1    2  502    0  0.87245752297E+01  0.59565568168E+02 -0.20895998577E+03  0.21745907840E+03  0.00000000000E+00 0. -1.
</event>
<event>
 4    1  0.3767413E+003  0.2634770E+02  0.7546771E-02  0.1454273E+00
          2   -1    0    0  502    0  0.00000000000E+00  0.00000000000E+00  0.13286540981E+03  0.13286540981E+03  0.00000000000E+00 0.  1.
          1   -1    0    0  501    0 -0.00000000000E+00 -0.00000000000E+00 -0.14916888315E+02  0.14916888315E+02  0.00000000000E+00 0. -1.
          2    1    1    2  501    0  0.25441359083E+02 -0.68511726989E+01  0.11853511933E+03  0.12142806856E+03  0.00000000000E+00 0.  1.
          1    1    1    2  502    0 -0.25441359083E+02  0.68511726989E+01 -0.58659782797E+00  0.26354229572E+02  0.00000000000E+00 0. -1.
</event>
<event>
 4    1  0.3767413E+003  0.2845660E+02  0.7546771E-02  0.1433501E+00
          2   -1    0    0  502    0  0.00000000000E+00  0.00000000000E+00  0.11768525866E+03  0.11768525866E+03  0.00000000000E+00 0. -1.
          1   -1    0    0  501    0 -0.00000000000E+00 -0.00000000000E+00 -0.10260669718E+02  0.10260669718E+02  0.00000000000E+00 0. -1.
          2    1    1    2  501    0  0.25558307005E+02  0.12512030247E+02  0.90428142293E+02  0.94799930782E+02  0.00000000000E+00 0. -1.
          1    1    1    2  502    0 -0.25558307005E+02 -0.12512030247E+02  0.16996446649E+02  0.33145997595E+02  0.00000000000E+00 0. -1.
</event>
<event>
 4    1  0.3767413E+003  0.2271616E+02  0.7546771E-02  0.1496093E+00
          2   -1    0    0  502    0  0.00000000000E+00  0.00000000000E+00  0.95638339820E+03  0.95638339820E+03  0.00000000000E+00 0.  1.
          1   -1    0    0  501    0 -0.00000000000E+00 -0.00000000000E+00 -0.54719600263E+00  0.54719600263E+00  0.00000000000E+00 0.  1.
          2    1    1    2  501    0 -0.13143312465E+02  0.18527744711E+02  0.53444805177E+03  0.53493059740E+03  0.00000000000E+00 0.  1.
          1    1    1    2  502    0  0.13143312465E+02 -0.18527744711E+02  0.42138815042E+03  0.42199999681E+03  0.00000000000E+00 0.  1.
</event>
<event>
 4    1  0.3767413E+003  0.3483025E+02  0.7546771E-02  0.1381761E+00
          2   -1    0    0  502    0  0.00000000000E+00  0.00000000000E+00  0.18945381918E+04  0.18945381918E+04  0.00000000000E+00 0. -1.
          1   -1    0    0  501    0 -0.00000000000E+00 -0.00000000000E+00 -0.11430381135E+02  0.11430381135E+02  0.00000000000E+00 0.  1.
          2    1    1    2  501    0 -0.30314599447E+00  0.34828929328E+02  0.18674600350E+04  0.18677848186E+04  0.00000000000E+00 0. -1.
          1    1    1    2  502    0  0.30314599447E+00 -0.34828929328E+02  0.15647775725E+02  0.38183754409E+02  0.00000000000E+00 0.  1.
</event>
<event>
 4    1  0.3767413E+003  0.4764484E+02  0.7546771E-02  0.1308720E+00
          2   -1    0    0  502    0  0.00000000000E+00  0.00000000000E+00  0.55102325674E+02  0.55102325674E+02  0.00000000000E+00 0. -1.
          1   -1    0    0  501    0 -0.00000000000E+00 -0.00000000000E+00 -0.14196030918E+03  0.14196030918E+03  0.00000000000E+00 0. -1.
          2    1    1    2  501    0 -0.45920421691E+02  0.12702175658E+02  0.39583379364E+02  0.61942508156E+02  0.00000000000E+00 0. -1.
          1    1    1    2  502    0  0.45920421691E+02 -0.12702175658E+02 -0.12644136287E+03  0.13512012670E+03  0.00000000000E+00 0. -1.
</event>
<event>
 4    1  0.3767413E+003  0.2044987E+02  0.7546771E-02  0.1527266E+00
          2   -1    0    0  502    0  0.00000000000E+00  0.00000000000E+00  0.27814969943E+02  0.27814969943E+02  0.00000000000E+00 0.  1.
          1   -1    0    0  501    0 -0.00000000000E+00 -0.00000000000E+00 -0.23444707499E+02  0.23444707499E+02  0.00000000000E+00 0.  1.
          2    1    1    2  501    0  0.18182909478E+02  0.93583619995E+01  0.17535357395E+02  0.26938557782E+02  0.00000000000E+00 0.  1.
          1    1    1    2  502    0 -0.18182909478E+02 -0.93583619995E+01 -0.13165094951E+02  0.24321119659E+02  0.00000000000E+00 0.  1.
</event>
<event>
 4    1  0.3767413E+003  0.2184425E+02  0.7546771E-02  0.1507544E+00
          2   -1    0    0  502    0  0.00000000000E+00  0.00000000000E+00  0.81533183094E+02  0.81533183094E+02  0.00000000000E+00 0.  1.
          1   -1    0    0  501    0 -0.00000000000E+00 -0.00000000000E+00 -0.83294106221E+02  0.83294106221E+02  0.00000000000E+00 0. -1.
          2    1    1    2  501    0 -0.44247139576E+00  0.21839768975E+02  0.78585147773E+02  0.81564678264E+02  0.00000000000E+00 0.  1.
          1    1    1    2  502    0  0.44247139576E+00 -0.21839768975E+02 -0.80346070900E+02  0.83262611050E+02  0.00000000000E+00 0. -1.
</event>
<event>
 4    1  0.3767413E+003  0.3242331E+02  0.7546771E-02  0.1399643E+00
          2   -1    0    0  502    0  0.00000000000E+00  0.00000000000E+00  0.40563553246E+03  0.40563553246E+03  0.00000000000E+00 0.  1.
          1   -1    0    0  501    0 -0.00000000000E+00 -0.00000000000E+00 -0.17926269041E+03  0.17926269041E+03  0.00000000000E+00 0. -1.
          2    1    1    2  501    0  0.26840971997E+02  0.18188816728E+02  0.40351381627E+03  0.40481436579E+03  0.00000000000E+00 0.  1.
          1    1    1    2  502    0 -0.26840971997E+02 -0.18188816728E+02 -0.17714097422E+03  0.18008385707E+03  0.00000000000E+00 0. -1.
</event>
<event>
 4    1  0.3767413E+003  0.3421985E+02  0.7546771E-02  0.1386132E+00
          2   -1    0    0  502    0  0.00000000000E+00  0.00000000000E+00  0.77612024012E+03  0.77612024012E+03  0.00000000000E+00 0.  1.
          1   -1    0    0  501    0 -0.00000000000E+00 -0.00000000000E+00 -0.36789304248E+02  0.36789304248E+02  0.00000000000E+00 0. -1.
          2    1    1    2  501    0 -0.12648648295E+02 -0.31796375553E+02  0.76769833049E+03  0.76846061997E+03  0.00000000000E+00 0.  1.
          1    1    1    2  502    0  0.12648648295E+02  0.31796375553E+02 -0.28367394625E+02  0.44448924394E+02  0.00000000000E+00 0. -1.
</event>
<event>
 4    1  0.3767413E+003  0.5232265E+02  0.7546771E-02  0.1288405E+00
          2   -1    0    0  502    0  0.00000000000E+00  0.00000000000E+00  0.37494442477E+01  0.37494442477E+01  0.00000000000E+00 0.  1.
          1   -1    0    0  501    0 -0.00000000000E+00 -0.00000000000E+00 -0.10035372598E+04  0.10035372598E+04  0.00000000000E+00 0. -1.
          2    1    1    2  501    0  0.52298801822E+02 -0.15795951432E+01 -0.23702159910E+03  0.24272803347E+03  0.00000000000E+00 0.  1.
          1    1    1    2  502    0 -0.52298801822E+02  0.15795951432E+01 -0.76276621647E+03  0.76455867059E+03  0.00000000000E+00 0. -1.
</event>
<event>
 4    1  0.3767413E+003  0.2196982E+02  0.7546771E-02  0.1505856E+00
          2   -1    0    0  502    0  0.00000000000E+00  0.00000000000E+00  0.83292823279E+03  0.83292823279E+03  0.00000000000E+00 0. -1.
          1   -1    0    0  501    0 -0.00000000000E+00 -0.00000000000E+00 -0.93402173029E+02  0.93402173029E+02  0.00000000000E+00 0. -1.
          2    1    1    2  501    0 -0.42275620864E+01  0.21559239145E+02  0.83148920353E+03  0.83177939904E+03  0.00000000000E+00 0. -1.
          1    1    1    2  502    0  0.42275620864E+01 -0.21559239145E+02 -0.91963143764E+02  0.94551006788E+02  0.00000000000E+00 0. -1.
</event>
<event>
 4    1  0.3767413E+003  0.2011330E+02  0.7546771E-02  0.1532311E+00
          2   -1    0    0  502    0  0.00000000000E+00  0.00000000000E+00  0.86873179516E+03  0.86873179516E+03  0.00000000000E+00 0.  1.
          1   -1    0    0  501    0 -0.00000000000E+00 -0.00000000000E+00 -0.20281908516E+01  0.20281908516E+01  0.00000000000E+00 0. -1.
          2    1    1    2  501    0  0.12202661102E+02 -0.15988740447E+02  0.81549539406E+03  0.81574339255E+03  0.00000000000E+00 0.  1.
          1    1    1    2  502    0 -0.12202661102E+02  0.15988740447E+02  0.51208210248E+02  0.55016593459E+02  0.00000000000E+00 0. -1.
</event>
<event>
 4    1  0.3767413E+003  0.2221631E+02  0.7546771E-02  0.1502581E+00
          2   -1    0    0  502    0  0.00000000000E+00  0.00000000000E+00  0.19084144266E+01  0.19084144266E+01  0.00000000000E+00 0. -1.
          1   -1    0    0  501    0 -0.00000000000E+00 -0.00000000000E+00 -0.86731021098E+03  0.86731021098E+03  0.00000000000E+00 0. -1.
          2    1    1    2  501    0 -0.47179690884E+01 -0.21709559946E+02 -0.68611467776E+02  0.72118636535E+02  0.00000000000E+00 0. -1.
          1    1    1    2  502    0  0.47179690884E+01  0.21709559946E+02 -0.79679032878E+03  0.79709998887E+03  0.00000000000E+00 0. -1.
</event>
<event>
 4    1  0.3767413E+003  0.2366001E+02  0.7546771E-02  0.1484373E+00
          2   -1    0    0  502    0  0.00000000000E+00  0.00000000000E+00  0.40901966238E+03  0.40901966238E+03  0.00000000000E+00 0.  1.
          1   -1    0    0  501    0 -0.00000000000E+00 -0.00000000000E+00 -0.59923455800E+01  0.59923455800E+01  0.00000000000E+00 0. -1.
          2    1    1    2  501    0  0.14961080894E+02  0.18329264713E+02  0.38378898154E+03  0.38451759159E+03  0.00000000000E+00 0.  1.
          1    1    1    2  502    0 -0.14961080894E+02 -0.18329264713E+02  0.19238335257E+02  0.30494416373E+02  0.00000000000E+00 0. -1.
</event>
<event>
 4    1  0.3767413E+003  0.2662200E+02  0.7546771E-02  0.1451443E+00
          2   -1    0    0  502    0  0.00000000000E+00  0.00000000000E+00  0.13127113346E+04  0.13127113346E+04  0.00000000000E+00 0.  1.
          1   -1    0    0  501    0 -0.00000000000E+00 -0.00000000000E+00 -0.53995127029E+00  0.53995127029E+00  0.00000000000E+00 0.  1.
          2    1    1    2  501    0  0.88090869743E+01 -0.25122318585E+02  0.66257592510E+03  0.66311053937E+03  0.00000000000E+00 0.  1.
          1    1    1    2  502    0 -0.88090869743E+01  0.25122318585E+02  0.64959545824E+03  0.65014074651E+03  0.00000000000E+00 0.  1.
</event>
<event>
 4    1  0.3767413E+003  0.2281289E+02  0.7546771E-02  0.1494861E+00
          2   -1    0    0  502    0  0.00000000000E+00  0.00000000000E+00  0.11195231887E+04  0.11195231887E+04  0.00000000000E+00 0. -1.
          1   -1    0    0  501    0 -0.00000000000E+00 -0.00000000000E+00 -0.22848056407E+02  0.22848056407E+02  0.00000000000E+00 0.  1.
          2    1    1    2  501    0 -0.21134445966E+02  0.85885405607E+01  0.11136826687E+04  0.11139162959E+04  0.00000000000E+00 0. -1.
          1    1    1    2  502    0  0.21134445966E+02 -0.85885405607E+01 -0.17007536420E+02  0.28454949136E+02  0.00000000000E+00 0.  1.
</event>
<event>
 4    1  0.3767413E+003  0.2013466E+02  0.7546771E-02  0.1531987E+00
          2   -1    0    0  502    0  0.00000000000E+00  0.00000000000E+00  0.42999678879E+03  0.42999678879E+03  0.00000000000E+00 0. -1.
          1   -1    0    0  501    0 -0.00000000000E+00 -0.00000000000E+00 -0.22221786910E+03  0.22221786910E+03  0.00000000000E+00 0.  1.
          2    1    1    2  501    0  0.10716072708E+02  0.17046125063E+02  0.42930426225E+03  0.42977616753E+03  0.00000000000E+00 0. -1.
          1    1    1    2  502    0 -0.10716072708E+02 -0.17046125063E+02 -0.22152534256E+03  0.22243849036E+03  0.00000000000E+00 0.  1.
</event>
<event>
 4    1  0.3767413E+003  0.2198187E+02  0.7546771E-02  0.1505694E+00
          2   -1    0    0  502    0  0.00000000000E+00  0.00000000000E+00  0.11756458372E+03  0.11756458372E+03  0.00000000000E+00 0.  1.
          1   -1    0    0  501    0 -0.00000000000E+00 -0.00000000000E+00 -0.12467976187E+03  0.12467976187E+03  0.00000000000E+00 0. -1.
          2    1    1    2  501    0 -0.21908458726E+02 -0.17949713196E+01  0.11555144095E+03  0.11762371356E+03  0.00000000000E+00 0.  1.
          1    1    1    2  502    0  0.21908458726E+02  0.17949713196E+01 -0.12266661910E+03  0.12462063203E+03  0.00000000000E+00 0. -1.
</event>
<event>
 4    1  0.3767413E+003  0.2034679E+02  0.7546771E-02  0.1528799E+00
          2   -1    0    0  502    0  0.00000000000E+00  0.00000000000E+00  0.29180669421E+03  0.29180669421E+03  0.00000000000E+00 0.  1.
          1   -1    0    0  501    0 -0.00000000000E+00 -0.00000000000E+00 -0.20896002137E+01  0.20896002137E+01  0.00000000000E+00 0.  1.
          2    1    1    2  501    0 -0.10004503627E+02 -0.17717272659E+02  0.22812214440E+03  0.22902773764E+03  0.00000000000E+00 0.  1.
          1    1    1    2  502    0  0.10004503627E+02  0.17717272659E+02  0.61594949600E+02  0.64868556786E+02  0.00000000000E+00 0.  1.
</event>
<event>
 4    1  0.3767413E+003  0.2210157E+02  0.7546771E-02  0.1504099E+00
          2   -1    0    0  502    0  0.00000000000E+00  0.00000000000E+00  0.11972097936E+04  0.11972097936E+04  0.00000000000E+00 0. -1.
          1   -1    0    0  501    0 -0.00000000000E+00 -0.00000000000E+00 -0.11116626663E+01  0.11116626663E+01  0.00000000000E+00 0.  1.
          2    1    1    2  501    0 -0.41275849660E+01 -0.21712721117E+02  0.10747374202E+04  0.10749646514E+04  0.00000000000E+00 0. -1.
          1    1    1    2  502    0  0.41275849660E+01  0.21712721117E+02  0.12136071072E+03  0.12335680493E+03  0.00000000000E+00 0.  1.
</event>
<event>
 4    1  0.3767413E+003  0.2801317E+02  0.7546771E-02  0.1437688E+00
          2   -1    0    0  502    0  0.00000000000E+00  0.00000000000E+00  0.98747270415E+03  0.98747270415E+03  0.00000000000E+00 0. -1.
          1   -1    0    0  501    0 -0.00000000000E+00 -0.00000000000E+00 -0.50715782204E+01  0.50715782204E+01  0.00000000000E+00 0. -1.
          2    1    1    2  501    0  0.10238174580E+02  0.26075229640E+02  0.94693528760E+03  0.94734955361E+03  0.00000000000E+00 0. -1.
          1    1    1    2  502    0 -0.10238174580E+02 -0.26075229640E+02  0.35465838332E+02  0.45194728764E+02  0.00000000000E+00 0. -1.
</event>
<event>
 4    1  0.3767413E+003  0.3940832E+02  0.7546771E-02  0.1351988E+00
          2   -1    0    0  502    0  0.00000000000E+00  0.00000000000E+00  0.34717477361E+02  0.34717477361E+02  0.00000000000E+00 0.  1.
          1   -1    0    0  501    0 -0.00000000000E+00 -0.00000000000E+00 -0.14822139410E+03  0.14822139410E+03  0.00000000000E+00 0.  1.
          2    1    1    2  501    0  0.18697207795E+02 -0.34690486014E+02  0.19678500779E+02  0.44048368780E+02  0.00000000000E+00 0.  1.
          1    1    1    2  502    0 -0.18697207795E+02  0.34690486014E+02 -0.13318241752E+03  0.13889050268E+03  0.00000000000E+00 0.  1.
</event>
<event>
 4    1  0.3767413E+003  0.4085472E+02  0.7546771E-02  0.1343549E+00
          2   -1    0    0  502    0  0.00000000000E+00  0.00000000000E+00  0.39575244598E+02  0.39575244598E+02  0.00000000000E+00 0.  1.
          1   -1    0    0  501    0 -0.00000000000E+00 -0.00000000000E+00 -0.70452526905E+02  0.70452526905E+02  0.00000000000E+00 0.  1.
          2    1    1    2  501    0  0.13857063505E+02 -0.38432923606E+02  0.19414385591E+02  0.45233021055E+02  0.00000000000E+00 0.  1.
          1    1    1    2  502    0 -0.13857063505E+02  0.38432923606E+02 -0.50291667897E+02  0.64794750449E+02  0.00000000000E+00 0.  1.
</event>
<event>
 4    1  0.3767413E+003  0.2776791E+02  0.7546771E-02  0.1440043E+00
          2   -1    0    0  502    0  0.00000000000E+00  0.00000000000E+00  0.58253972554E+03  0.58253972554E+03  0.00000000000E+00 0. -1.
          1   -1    0    0  501    0 -0.00000000000E+00 -0.00000000000E+00 -0.13917691535E+03  0.13917691535E+03  0.00000000000E+00 0.  1.
          2    1    1    2  501    0  0.27582678917E+02  0.32019782803E+01  0.58081969310E+03  0.58148308035E+03  0.00000000000E+00 0. -1.
          1    1    1    2  502    0 -0.27582678917E+02 -0.32019782803E+01 -0.13745688291E+03  0.14023356054E+03  0.00000000000E+00 0.  1.
</event>
<event>
 4    1  0.3767413E+003  0.2579190E+02  0.7546771E-02  0.1460136E+00
          2   -1    0    0  502    0  0.00000000000E+00  0.00000000000E+00  0.26332239221E+03  0.26332239221E+03  0.00000000000E+00 0. -1.
          1   -1    0    0  501    0 -0.00000000000E+00 -0.00000000000E+00 -0.15330163970E+03  0.15330163970E+03  0.00000000000E+00 0. -1.
          2    1    1    2  501    0  0.22396661519E+02  0.12791080807E+02  0.26159887028E+03  0.26286725000E+03  0.00000000000E+00 0. -1.
          1    1    1    2  502    0 -0.22396661519E+02 -0.12791080807E+02 -0.15157811777E+03  0.15375678191E+03  0.00000000000E+00 0. -1.
</event>
<event>
 4    1  0.3767413E+003  0.2116159E+02  0.7546771E-02  0.1516970E+00
          2   -1    0    0  502    0  0.00000000000E+00  0.00000000000E+00  0.39157782584E+01  0.39157782584E+01  0.00000000000E+00 0.  1.
          1   -1    0    0  501    0 -0.00000000000E+00 -0.00000000000E+00 -0.30575073050E+03  0.30575073050E+03  0.00000000000E+00 0.  1.
          2    1    1    2  501    0 -0.84538827768E+01  0.19399611464E+02 -0.28416488215E+02  0.35430352262E+02  0.00000000000E+00 0.  1.
          1    1    1    2  502    0  0.84538827768E+01 -0.19399611464E+02 -0.27341846403E+03  0.27423615650E+03  0.00000000000E+00 0.  1.
</event>
<event>
 4    1  0.3767413E+003  0.2405495E+02  0.7546771E-02  0.1479660E+00
          2   -1    0    0  502    0  0.00000000000E+00  0.00000000000E+00  0.21588133644E+02  0.21588133644E+02  0.00000000000E+00 0.  1.
          1   -1    0    0  501    0 -0.00000000000E+00 -0.00000000000E+00 -0.46137089018E+03  0.46137089018E+03  0.00000000000E+00 0. -1.
          2    1    1    2  501    0 -0.14430248517E+02 -0.19246003806E+02  0.14468728701E+02  0.28071067756E+02  0.00000000000E+00 0.  1.
          1    1    1    2  502    0  0.14430248517E+02  0.19246003806E+02 -0.45425148524E+03  0.45488795607E+03  0.00000000000E+00 0. -1.
</event>
<event>
 4    1  0.3767413E+003  0.2213061E+02  0.7546771E-02  0.1503714E+00
          2   -1    0    0  502    0  0.00000000000E+00  0.00000000000E+00  0.56833245802E+02  0.56833245802E+02  0.00000000000E+00 0.  1.
          1   -1    0    0  501    0 -0.00000000000E+00 -0.00000000000E+00 -0.25118390433E+03  0.25118390433E+03  0.00000000000E+00 0.  1.
          2    1    1    2  501    0 -0.84313989028E+01 -0.20461555160E+02  0.54168345092E+02  0.58514727523E+02  0.00000000000E+00 0.  1.
          1    1    1    2  502    0  0.84313989028E+01  0.20461555160E+02 -0.24851900363E+03  0.24950242261E+03  0.00000000000E+00 0.  1.
</event>
<event>
 4    1  0.3767413E+003  0.2510830E+02  0.7546771E-02  0.1467595E+00
          2   -1    0    0  502    0  0.00000000000E+00  0.00000000000E+00  0.11975504902E+02  0.11975504902E+02  0.00000000000E+00 0. -1.
          1   -1    0    0  501    0 -0.00000000000E+00 -0.00000000000E+00 -0.82655920376E+03  0.82655920376E+03  0.00000000000E+00 0. -1.
          2    1    1    2  501    0 -0.25104332131E+02 -0.44655212705E+00 -0.15955694155E+01  0.25158949547E+02  0.00000000000E+00 0. -1.
          1    1    1    2  502    0  0.25104332131E+02  0.44655212705E+00 -0.81298812945E+03  0.81337575912E+03  0.00000000000E+00 0. -1.
</event>
<event>
 4    1  0.3767413E+003  0.4268481E+02  0.7546771E-02  0.1333433E+00
          2   -1    0    0  502    0  0.00000000000E+00  0.00000000000E+00  0.58343894382E+02  0.58343894382E+02  0.00000000000E+00 0.  1.
          1   -1    0    0  501    0 -0.00000000000E+00 -0.00000000000E+00 -0.14207358587E+03  0.14207358587E+03  0.00000000000E+00 0.  1.
          2    1    1    2  501    0  0.34824233593E+02 -0.24683307546E+02  0.46648168907E+02  0.63230092355E+02  0.00000000000E+00 0.  1.
          1    1    1    2  502    0 -0.34824233593E+02  0.24683307546E+02 -0.13037786040E+03  0.13718738790E+03  0.00000000000E+00 0.  1.
</event>
<event>
 4    1  0.3767413E+003  0.2908521E+02  0.7546771E-02  0.1427716E+00
          2   -1    0    0  502    0  0.00000000000E+00  0.00000000000E+00  0.74360701369E+01  0.74360701369E+01  0.00000000000E+00 0.  1.
          1   -1    0    0  501    0 -0.00000000000E+00 -0.00000000000E+00 -0.17127541095E+03  0.17127541095E+03  0.00000000000E+00 0.  1.
          2    1    1    2  501    0 -0.23795721282E+02  0.16724603767E+02 -0.13369897407E+03  0.13682603696E+03  0.00000000000E+00 0.  1.
          1    1    1    2  502    0  0.23795721282E+02 -0.16724603767E+02 -0.30140366747E+02  0.41885444132E+02  0.00000000000E+00 0.  1.
</event>
<event>
 4    1  0.3767413E+003  0.2135307E+02  0.7546771E-02  0.1514283E+00
          2   -1    0    0  502    0  0.00000000000E+00  0.00000000000E+00  0.65528380397E+03  0.65528380397E+03  0.00000000000E+00 0.  1.
          1   -1    0    0  501    0 -0.00000000000E+00 -0.00000000000E+00 -0.86927474693E+00  0.86927474693E+00  0.00000000000E+00 0. -1.
          2    1    1    2  501    0 -0.17652571675E+01  0.21279979452E+02  0.47376240119E+03  0.47424336204E+03  0.00000000000E+00 0.  1.
          1    1    1    2  502    0  0.17652571675E+01 -0.21279979452E+02  0.18065212803E+03  0.18190971667E+03  0.00000000000E+00 0. -1.
</event>
<event>
 4    1  0.3767413E+003  0.2098245E+02  0.7546771E-02  0.1519515E+00
          2   -1    0    0  502    0  0.00000000000E+00  0.00000000000E+00  0.17108463334E+02  0.17108463334E+02  0.00000000000E+00 0.  1.
          1   -1    0    0  501    0 -0.00000000000E+00 -0.00000000000E+00 -0.16089843908E+03  0.16089843908E+03  0.00000000000E+00 0.  1.
          2    1    1    2  501    0  0.17192059677E+02 -0.12028980930E+02  0.96810689427E+01  0.23108145620E+02  0.00000000000E+00 0.  1.
          1    1    1    2  502    0 -0.17192059677E+02  0.12028980930E+02 -0.15347104469E+03  0.15489875679E+03  0.00000000000E+00 0.  1.
</event>
<event>
 4    1  0.3767413E+003  0.2420461E+02  0.7546771E-02  0.1477902E+00
          2   -1    0    0  502    0  0.00000000000E+00  0.00000000000E+00  0.49323652827E+03  0.49323652827E+03  0.00000000000E+00 0. -1.
          1   -1    0    0  501    0 -0.00000000000E+00 -0.00000000000E+00 -0.67816726281E+01  0.67816726281E+01  0.00000000000E+00 0. -1.
          2    1    1    2  501    0 -0.38111893285E+01  0.23902676820E+02  0.47028916038E+03  0.47091162386E+03  0.00000000000E+00 0. -1.
          1    1    1    2  502    0  0.38111893285E+01 -0.23902676820E+02  0.16165695268E+02  0.29106577036E+02  0.00000000000E+00 0. -1.
</event>
<event>
 4    1  0.3767413E+003  0.2000406E+02  0.7546771E-02  0.1533974E+00
          2   -1    0    0  502    0  0.00000000000E+00  0.00000000000E+00  0.57387191661E+00  0.57387191661E+00  0.00000000000E+00 0.  1.
          1   -1    0    0  501    0 -0.00000000000E+00 -0.00000000000E+00 -0.10369783036E+04  0.10369783036E+04  0.00000000000E+00 0.  1.
          2    1    1    2  501    0  0.19815548298E+02  0.27397728752E+01 -0.22129043195E+03  0.22219274872E+03  0.00000000000E+00 0.  1.
          1    1    1    2  502    0 -0.19815548298E+02 -0.27397728752E+01 -0.81511399972E+03  0.81535942678E+03  0.00000000000E+00 0.  1.
</event>
<event>
 4    1  0.3767413E+003  0.2026225E+02  0.7546771E-02  0.1530064E+00
          2   -1    0    0  502    0  0.00000000000E+00  0.00000000000E+00  0.21864153180E+04  0.21864153180E+04  0.00000000000E+00 0. -1.
          1   -1    0    0  501    0 -0.00000000000E+00 -0.00000000000E+00 -0.18804253017E+00  0.18804253017E+00  0.00000000000E+00 0. -1.
          2    1    1    2  501    0  0.14256120910E+02 -0.14398652323E+02  0.10520180731E+04  0.10522131838E+04  0.00000000000E+00 0. -1.
          1    1    1    2  502    0 -0.14256120910E+02  0.14398652323E+02  0.11342092024E+04  0.11343901767E+04  0.00000000000E+00 0. -1.
</event>
<event>
 4    1  0.3767413E+003  0.4191589E+02  0.7546771E-02  0.1337610E+00
          2   -1    0    0  502    0  0.00000000000E+00  0.00000000000E+00  0.94990905185E+02  0.94990905185E+02  0.00000000000E+00 0.  1.
          1   -1    0    0  501    0 -0.00000000000E+00 -0.00000000000E+00 -0.54942324607E+03  0.54942324607E+03  0.00000000000E+00 0. -1.
          2    1    1    2  501    0  0.79121045596E+01  0.41162370069E+02  0.89521053614E+02  0.98848172206E+02  0.00000000000E+00 0.  1.
          1    1    1    2  502    0 -0.79121045596E+01 -0.41162370069E+02 -0.54395339450E+03  0.54556597905E+03  0.00000000000E+00 0. -1.
</event>
<event>
 4    1  0.3767413E+003  0.3061180E+02  0.7546771E-02  0.1414353E+00
          2   -1    0    0  502    0  0.00000000000E+00  0.00000000000E+00  0.33771804687E+03  0.33771804687E+03  0.00000000000E+00 0.  1.
          1   -1    0    0  501    0 -0.00000000000E+00 -0.00000000000E+00 -0.64544229829E+01  0.64544229829E+01  0.00000000000E+00 0.  1.
          2    1    1    2  501    0 -0.11112686668E+02 -0.28523510000E+02  0.29556561786E+03  0.29714662523E+03  0.00000000000E+00 0.  1.
          1    1    1    2  502    0  0.11112686668E+02  0.28523510000E+02  0.35698006026E+02  0.47025844617E+02  0.00000000000E+00 0.  1.
</event>
<event>
 4    1  0.3767413E+003  0.2292752E+02  0.7546771E-02  0.1493410E+00
          2   -1    0    0  502    0  0.00000000000E+00  0.00000000000E+00  0.78032993103E+01  0.78032993103E+01  0.00000000000E+00 0. -1.
          1   -1    0    0  501    0 -0.00000000000E+00 -0.00000000000E+00 -0.68876137756E+03  0.68876137756E+03  0.00000000000E+00 0.  1.
          2    1    1    2  501    0 -0.16948847261E+02 -0.15440461477E+02 -0.96669841788E+01  0.24882159417E+02  0.00000000000E+00 0. -1.
          1    1    1    2  502    0  0.16948847261E+02  0.15440461477E+02 -0.67129109408E+03  0.67168251746E+03  0.00000000000E+00 0.  1.
</event>
<event>
 4    1  0.3767413E+003  0.2656747E+02  0.7546771E-02  0.1452002E+00
          2   -1    0    0  502    0  0.00000000000E+00  0.00000000000E+00  0.89646574217E+02  0.89646574217E+02  0.00000000000E+00 0.  1.
          1   -1    0    0  501    0 -0.00000000000E+00 -0.00000000000E+00 -0.20020409081E+02  0.20020409081E+02  0.00000000000E+00 0.  1.
          2    1    1    2  501    0 -0.10659999568E+02  0.24335049411E+02  0.77524376974E+02  0.81950346222E+02  0.00000000000E+00 0.  1.
          1    1    1    2  502    0  0.10659999568E+02 -0.24335049411E+02 -0.78982118386E+01  0.27716637077E+02  0.00000000000E+00 0.  1.
</event>
<event>
 4    1  0.3767413E+003  0.2715266E+02  0.7546771E-02  0.1446081E+00
          2   -1    0    0  502    0  0.00000000000E+00  0.00000000000E+00  0.89516754386E+01  0.89516754386E+01  0.00000000000E+00 0.  1.
          1   -1    0    0  501    0 -0.00000000000E+00 -0.00000000000E+00 -0.85348764908E+03  0.85348764908E+03  0.00000000000E+00 0. -1.
          2    1    1    2  501    0 -0.27084289958E+02  0.19256754859E+01 -0.12382206496E+02  0.29842687988E+02  0.00000000000E+00 0.  1.
          1    1    1    2  502    0  0.27084289958E+02 -0.19256754859E+01 -0.83215376714E+03  0.83259663653E+03  0.00000000000E+00 0. -1.
</event>
<event>
 4    1  0.3767413E+003  0.2278616E+02  0.7546771E-02  0.1495201E+00
          2   -1    0    0  502    0  0.00000000000E+00  0.00000000000E+00  0.10782269586E+01  0.10782269586E+01  0.00000000000E+00 0. -1.
          1   -1    0    0  501    0 -0.00000000000E+00 -0.00000000000E+00 -0.48172528090E+03  0.48172528090E+03  0.00000000000E+00 0. -1.
          2    1    1    2  501    0 -0.52741473493E+01 -0.22167378692E+02 -0.23558802340E+03  0.23668740160E+03  0.00000000000E+00 0. -1.
          1    1    1    2  502    0  0.52741473493E+01  0.22167378692E+02 -0.24505903055E+03  0.24611610626E+03  0.00000000000E+00 0. -1.
</event>
<event>
 4    1  0.3767413E+003  0.2638236E+02  0.7546771E-02  0.1453913E+00
          2   -1    0    0  502    0  0.00000000000E+00  0.00000000000E+00  0.41640053190E+03  0.41640053190E+03  0.00000000000E+00 0.  1.
          1   -1    0    0  501    0 -0.00000000000E+00 -0.00000000000E+00 -0.37038126204E+03  0.37038126204E+03  0.00000000000E+00 0. -1.
          2    1    1    2  501    0 -0.14622459658E+02 -0.21959342735E+02  0.41551183794E+03  0.41634855173E+03  0.00000000000E+00 0.  1.
          1    1    1    2  502    0  0.14622459658E+02  0.21959342735E+02 -0.36949256808E+03  0.37043324220E+03  0.00000000000E+00 0. -1.
</event>
<event>
 4    1  0.3767413E+003  0.2192760E+02  0.7546771E-02  0.1506422E+00
          2   -1    0    0  502    0  0.00000000000E+00  0.00000000000E+00  0.43664723003E+02  0.43664723003E+02  0.00000000000E+00 0. -1.
          1   -1    0    0  501    0 -0.00000000000E+00 -0.00000000000E+00 -0.67149054381E+02  0.67149054381E+02  0.00000000000E+00 0.  1.
          2    1    1    2  501    0 -0.44958543180E-01 -0.21927555511E+02  0.38918402923E+02  0.44670592094E+02  0.00000000000E+00 0. -1.
          1    1    1    2  502    0  0.44958543180E-01  0.21927555511E+02 -0.62402734301E+02  0.66143185289E+02  0.00000000000E+00 0.  1.
</event>
<event>
 4    1  0.3767413E+003  0.2446563E+02  0.7546771E-02  0.1474871E+00
          2   -1    0    0  502    0  0.00000000000E+00  0.00000000000E+00  0.16212578975E+04  0.16212578975E+04  0.00000000000E+00 0.  1.
          1   -1    0    0  501    0 -0.00000000000E+00 -0.00000000000E+00 -0.65143790637E+02  0.65143790637E+02  0.00000000000E+00 0. -1.
          2    1    1    2  501    0  0.23833446453E+02  0.55257344519E+01  0.16188651037E+04  0.16190499656E+04  0.00000000000E+00 0.  1.
          1    1    1    2  502    0 -0.23833446453E+02 -0.55257344519E+01 -0.62750996924E+02  0.67351722517E+02  0.00000000000E+00 0. -1.
</event>
<event>
 4    1  0.3767413E+003  0.2466894E+02  0.7546771E-02  0.1472541E+00
          2   -1    0    0  502    0  0.00000000000E+00  0.00000000000E+00  0.11132460582E+04  0.11132460582E+04  0.00000000000E+00 0. -1.
          1   -1    0    0  501    0 -0.00000000000E+00 -0.00000000000E+00 -0.86091702506E+02  0.86091702506E+02  0.00000000000E+00 0. -1.
          2    1    1    2  501    0  0.24570615692E+02  0.22003621541E+01  0.11113391878E+04  0.11116129484E+04  0.00000000000E+00 0. -1.
          1    1    1    2  502    0 -0.24570615692E+02 -0.22003621541E+01 -0.84184832063E+02  0.87724812331E+02  0.00000000000E+00 0. -1.
</event>
<event>
 4    1  0.3767413E+003  0.4227165E+02  0.7546771E-02  0.1335665E+00
          2   -1    0    0  502    0  0.00000000000E+00  0.00000000000E+00  0.11019701746E+03  0.11019701746E+03  0.00000000000E+00 0.  1.
          1   -1    0    0  501    0 -0.00000000000E+00 -0.00000000000E+00 -0.38592127999E+02  0.38592127999E+02  0.00000000000E+00 0.  1.
          2    1    1    2  501    0  0.20370712410E+02 -0.37039526752E+02  0.92451132188E+02  0.10165679667E+03  0.00000000000E+00 0.  1.
          1    1    1    2  502    0 -0.20370712410E+02  0.37039526752E+02 -0.20846242731E+02  0.47132348786E+02  0.00000000000E+00 0.  1.
</event>
<event>
 4    1  0.3767413E+003  0.2492092E+02  0.7546771E-02  0.1469690E+00
          2   -1    0    0  502    0  0.00000000000E+00  0.00000000000E+00  0.23643681023E+03  0.23643681023E+03  0.00000000000E+00 0. -1.
          1   -1    0    0  501    0 -0.00000000000E+00 -0.00000000000E+00 -0.20588221309E+02  0.20588221309E+02  0.00000000000E+00 0.  1.
          2    1    1    2  501    0 -0.40365046461E+00  0.24917647911E+02  0.22795915420E+03  0.22931730875E+03  0.00000000000E+00 0. -1.
          1    1    1    2  502    0  0.40365046461E+00 -0.24917647911E+02 -0.12110565270E+02  0.27707722792E+02  0.00000000000E+00 0.  1.
</event>
<event>
 4    1  0.3767413E+003  0.2229000E+02  0.7546771E-02  0.1501611E+00
          2   -1    0    0  502    0  0.00000000000E+00  0.00000000000E+00  0.21722751653E+02  0.21722751653E+02  0.00000000000E+00 0. -1.
          1   -1    0    0  501    0 -0.00000000000E+00 -0.00000000000E+00 -0.37443698337E+03  0.37443698337E+03  0.00000000000E+00 0. -1.
          2    1    1    2  501    0  0.18328475691E+02  0.12685076381E+02  0.15577688303E+02  0.27193906612E+02  0.00000000000E+00 0. -1.
          1    1    1    2  502    0 -0.18328475691E+02 -0.12685076381E+02 -0.36829192002E+03  0.36896582841E+03  0.00000000000E+00 0. -1.
</event>
<event>
 4    1  0.3767413E+003  0.3512310E+02  0.7546771E-02  0.1379700E+00
          2   -1    0    0  502    0  0.00000000000E+00  0.00000000000E+00  0.35695167237E+03  0.35695167237E+03  0.00000000000E+00 0.  1.
          1   -1    0    0  501    0 -0.00000000000E+00 -0.00000000000E+00 -0.26900419184E+02  0.26900419184E+02  0.00000000000E+00 0. -1.
          2    1    1    2  501    0  0.11267620769E+02 -0.33266692935E+02  0.34419919583E+03  0.34598658723E+03  0.00000000000E+00 0.  1.
          1    1    1    2  502    0 -0.11267620769E+02  0.33266692935E+02 -0.14147942640E+02  0.37865504323E+02  0.00000000000E+00 0. -1.
</event>
<event>
 4    1  0.3767413E+003  0.2222397E+02  0.7546771E-02  0.1502480E+00
          2   -1    0    0  502    0  0.00000000000E+00  0.00000000000E+00  0.55837969024E+03  0.55837969024E+03  0.00000000000E+00 0. -1.
          1   -1    0    0  501    0 -0.00000000000E+00 -0.00000000000E+00 -0.62521505883E+01  0.62521505883E+01  0.00000000000E+00 0.  1.
          2    1    1    2  501    0 -0.21637607857E+02 -0.50713505679E+01  0.53764795342E+03  0.53810707716E+03  0.00000000000E+00 0. -1.
          1    1    1    2  502    0  0.21637607857E+02  0.50713505679E+01  0.14479586233E+02  0.26524763672E+02  0.00000000000E+00 0.  1.
</event>
<event>
 4    1  0.3767413E+003  0.3892217E+02  0.7546771E-02  0.1354920E+00
          2   -1    0    0  502    0  0.00000000000E+00  0.00000000000E+00  0.19517989812E+04  0.19517989812E+04  0.00000000000E+00 0.  1.
          1   -1    0    0  501    0 -0.00000000000E+00 -0.00000000000E+00 -0.33261521819E+01  0.33261521819E+01  0.00000000000E+00 0. -1.
          2    1    1    2  501    0  0.38888785364E+02  0.16118034923E+01  0.18301732980E+04  0.18305871289E+04  0.00000000000E+00 0.  1.
          1    1    1    2  502    0 -0.38888785364E+02 -0.16118034923E+01  0.11829953100E+03  0.12453800453E+03  0.00000000000E+00 0. -1.
</event>
<event>
 4    1  0.3767413E+003  0.2245312E+02  0.7546771E-02  0.1499482E+00
          2   -1    0    0  502    0  0.00000000000E+00  0.00000000000E+00  0.67980259873E+01  0.67980259873E+01  0.00000000000E+00 0.  1.
          1   -1    0    0  501    0 -0.00000000000E+00 -0.00000000000E+00 -0.15758367670E+04  0.15758367670E+04  0.00000000000E+00 0. -1.
          2    1    1    2  501    0  0.22337108811E+02 -0.22795326193E+01 -0.12046374211E+02  0.25480538272E+02  0.00000000000E+00 0.  1.
          1    1    1    2  502    0 -0.22337108811E+02  0.22795326193E+01 -0.15569923668E+04  0.15571542547E+04  0.00000000000E+00 0. -1.
</event>
<event>
 4    1  0.3767413E+003  0.2100573E+02  0.7546771E-02  0.1519183E+00
          2   -1    0    0  502    0  0.00000000000E+00  0.00000000000E+00  0.10826306638E+04  0.10826306638E+04  0.00000000000E+00 0.  1.
          1   -1    0    0  501    0 -0.00000000000E+00 -0.00000000000E+00 -0.19492669165E+01  0.19492669165E+01  0.00000000000E+00 0. -1.
          2    1    1    2  501    0  0.20769369408E+02 -0.31422609919E+01  0.10226174866E+04  0.10228332046E+04  0.00000000000E+00 0.  1.
          1    1    1    2  502    0 -0.20769369408E+02  0.31422609919E+01  0.58063910243E+02  0.61746726087E+02  0.00000000000E+00 0. -1.
</event>
<event>
 4    1  0.3767413E+003  0.2034373E+02  0.7546771E-02  0.1528844E+00
          2   -1    0    0  502    0  0.00000000000E+00  0.00000000000E+00  0.90301485420E+00  0.90301485420E+00  0.00000000000E+00 0. -1.
          1   -1    0    0  501    0 -0.00000000000E+00 -0.00000000000E+00 -0.79273246136E+03  0.79273246136E+03  0.00000000000E+00 0.  1.
          2    1    1    2  501    0  0.12044027707E+02 -0.16395388045E+02 -0.13818131365E+03  0.13967083731E+03  0.00000000000E+00 0. -1.
          1    1    1    2  502    0 -0.12044027707E+02  0.16395388045E+02 -0.65364813285E+03  0.65396463890E+03  0.00000000000E+00 0.  1.
</event>
<event>
 4    1  0.3767413E+003  0.2605058E+02  0.7546771E-02  0.1457386E+00
          2   -1    0    0  502    0  0.00000000000E+00  0.00000000000E+00  0.83893675907E+03  0.83893675907E+03  0.00000000000E+00 0. -1.
          1   -1    0    0  501    0 -0.00000000000E+00 -0.00000000000E+00 -0.12937655775E+03  0.12937655775E+03  0.00000000000E+00 0. -1.
          2    1    1    2  501    0  0.25634725776E+02 -0.46361295497E+01  0.83742080365E+03  0.83782589793E+03  0.00000000000E+00 0. -1.
          1    1    1    2  502    0 -0.25634725776E+02  0.46361295497E+01 -0.12786060232E+03  0.13048741889E+03  0.00000000000E+00 0. -1.
</event>
<event>
 4    1  0.3767413E+003  0.2142148E+02  0.7546771E-02  0.1513331E+00
          2   -1    0    0  502    0  0.00000000000E+00  0.00000000000E+00  0.16833190786E+02  0.16833190786E+02  0.00000000000E+00 0.  1.
          1   -1    0    0  501    0 -0.00000000000E+00 -0.00000000000E+00 -0.78405024827E+03  0.78405024827E+03  0.00000000000E+00 0.  1.
          2    1    1    2  501    0  0.20997966124E+02  0.42385478414E+01  0.98101831148E+01  0.23560975402E+02  0.00000000000E+00 0.  1.
          1    1    1    2  502    0 -0.20997966124E+02 -0.42385478414E+01 -0.77702724060E+03  0.77732246365E+03  0.00000000000E+00 0.  1.
</event>
<event>
 4    1  0.3767413E+003  0.2628236E+02  0.7546771E-02  0.1454953E+00
          2   -1    0    0  502    0  0.00000000000E+00  0.00000000000E+00  0.98303285324E+02  0.98303285324E+02  0.00000000000E+00 0.  1.
          1   -1    0    0  501    0 -0.00000000000E+00 -0.00000000000E+00 -0.14231787765E+03  0.14231787765E+03  0.00000000000E+00 0. -1.
          2    1    1    2  501    0  0.26282359164E+02  0.14531841407E-01  0.95295561295E+02  0.98853460318E+02  0.00000000000E+00 0.  1.
          1    1    1    2  502    0 -0.26282359164E+02 -0.14531841407E-01 -0.13931015362E+03  0.14176770265E+03  0.00000000000E+00 0. -1.
</event>
<event>
 4    1  0.3767413E+003  0.2078333E+02  0.7546771E-02  0.1522381E+00
          2   -1    0    0  502    0  0.00000000000E+00  0.00000000000E+00  0.47597405505E+03  0.47597405505E+03  0.00000000000E+00 0. -1.
          1   -1    0    0  501    0 -0.00000000000E+00 -0.00000000000E+00 -0.96952842505E+00  0.96952842505E+00  0.00000000000E+00 0. -1.
          2    1    1    2  501    0 -0.34589710128E+01  0.20493459230E+02  0.17718343759E+03  0.17839819760E+03  0.00000000000E+00 0. -1.
          1    1    1    2  502    0  0.34589710128E+01 -0.20493459230E+02  0.29782108903E+03  0.29854538587E+03  0.00000000000E+00 0. -1.
</event>
<event>
 4    1  0.3767413E+003  0.3852834E+02  0.7546771E-02  0.1357332E+00
          2   -1    0    0  502    0  0.00000000000E+00  0.00000000000E+00  0.25244333753E+03  0.25244333753E+03  0.00000000000E+00 0. -1.
          1   -1    0    0  501    0 -0.00000000000E+00 -0.00000000000E+00 -0.73390478287E+02  0.73390478287E+02  0.00000000000E+00 0. -1.
          2    1    1    2  501    0  0.27952556468E+02  0.26515796152E+02  0.24578039615E+03  0.24878190447E+03  0.00000000000E+00 0. -1.
          1    1    1    2  502    0 -0.27952556468E+02 -0.26515796152E+02 -0.66727536915E+02  0.77051911342E+02  0.00000000000E+00 0. -1.
</event>
<event>
 4    1  0.3767413E+003  0.2365007E+02  0.7546771E-02  0.1484493E+00
          2   -1    0    0  502    0  0.00000000000E+00  0.00000000000E+00  0.13855211003E+03  0.13855211003E+03  0.00000000000E+00 0.  1.
          1   -1    0    0  501    0 -0.00000000000E+00 -0.00000000000E+00 -0.68877860984E+02  0.68877860984E+02  0.00000000000E+00 0.  1.
          2    1    1    2  501    0 -0.10065238704E+02  0.21401331089E+02  0.13546684956E+03  0.13751579303E+03  0.00000000000E+00 0.  1.
          1    1    1    2  502    0  0.10065238704E+02 -0.21401331089E+02 -0.65792600509E+02  0.69914177992E+02  0.00000000000E+00 0.  1.
</event>
<event>
 4    1  0.3767413E+003  0.2138675E+02  0.7546771E-02  0.1513814E+00
          2   -1    0    0  502    0  0.00000000000E+00  0.00000000000E+00  0.14324251542E+04  0.14324251542E+04  0.00000000000E+00 0. -1.
          1   -1    0    0  501    0 -0.00000000000E+00 -0.00000000000E+00 -0.37701479318E+02  0.37701479318E+02  0.00000000000E+00 0. -1.
          2    1    1    2  501    0 -0.11396979936E+02  0.18097010474E+02  0.14293057160E+04  0.14294657124E+04  0.00000000000E+00 0. -1.
          1    1    1    2  502    0  0.11396979936E+02 -0.18097010474E+02 -0.34582041146E+02  0.40660921160E+02  0.00000000000E+00 0. -1.
</event>
<event>
 4    1  0.3767413E+003  0.2895972E+02  0.7546771E-02  0.1428857E+00
          2   -1    0    0  502    0  0.00000000000E+00  0.00000000000E+00  0.19157872189E+03  0.19157872189E+03  0.00000000000E+00 0. -1.
          1   -1    0    0  501    0 -0.00000000000E+00 -0.00000000000E+00 -0.56803335553E+01  0.56803335553E+01  0.00000000000E+00 0. -1.
          2    1    1    2  501    0 -0.18719893542E+02  0.22095943598E+02  0.14018148660E+03  0.14314158837E+03  0.00000000000E+00 0. -1.
          1    1    1    2  502    0  0.18719893542E+02 -0.22095943598E+02  0.45716901737E+02  0.54117467071E+02  0.00000000000E+00 0. -1.
</event>
<event>
 4    1  0.3767413E+003  0.3272422E+02  0.7546771E-02  0.1397310E+00
          2   -1    0    0  502    0  0.00000000000E+00  0.00000000000E+00  0.11538990732E+02  0.11538990732E+02  0.00000000000E+00 0. -1.
          1   -1    0    0  501    0 -0.00000000000E+00 -0.00000000000E+00 -0.80848312115E+03  0.80848312115E+03  0.00000000000E+00 0. -1.
          2    1    1    2  501    0  0.31973476112E+02  0.69693212584E+01 -0.12710463199E+02  0.35105989350E+02  0.00000000000E+00 0. -1.
          1    1    1    2  502    0 -0.31973476112E+02 -0.69693212584E+01 -0.78423366721E+03  0.78491612253E+03  0.00000000000E+00 0. -1.
</event>
<event>
 4    1  0.3767413E+003  0.2287005E+02  0.7546771E-02  0.1494136E+00
          2   -1    0    0  502    0  0.00000000000E+00  0.00000000000E+00  0.19154549551E+03  0.19154549551E+03  0.00000000000E+00 0.  1.
          1   -1    0    0  501    0 -0.00000000000E+00 -0.00000000000E+00 -0.28504388637E+03  0.28504388637E+03  0.00000000000E+00 0.  1.
          2    1    1    2  501    0  0.31325339666E+01 -0.22654498454E+02  0.19040135679E+03  0.19176995525E+03  0.00000000000E+00 0.  1.
          1    1    1    2  502    0 -0.31325339666E+01  0.22654498454E+02 -0.28389974765E+03  0.28481942663E+03  0.00000000000E+00 0.  1.
</event>
<event>
 4    1  0.3767413E+003  0.2305245E+02  0.7546771E-02  0.1491841E+00
          2   -1    0    0  502    0  0.00000000000E+00  0.00000000000E+00  0.64207708558E+01  0.64207708558E+01  0.00000000000E+00 0. -1.
          1   -1    0    0  501    0 -0.00000000000E+00 -0.00000000000E+00 -0.11905822428E+03  0.11905822428E+03  0.00000000000E+00 0. -1.
          2    1    1    2  501    0  0.21262064276E+01  0.22954183520E+02 -0.21679041988E+02  0.31644844073E+02  0.00000000000E+00 0. -1.
          1    1    1    2  502    0 -0.21262064276E+01 -0.22954183520E+02 -0.90958411435E+02  0.93834151062E+02  0.00000000000E+00 0. -1.
</event>
<event>
 4    1  0.3767413E+003  0.2241524E+02  0.7546771E-02  0.1499975E+00
          2   -1    0    0  502    0  0.00000000000E+00  0.00000000000E+00  0.11568365876E+01  0.11568365876E+01  0.00000000000E+00 0.  1.
          1   -1    0    0  501    0 -0.00000000000E+00 -0.00000000000E+00 -0.77220802611E+03  0.77220802611E+03  0.00000000000E+00 0. -1.
          2    1    1    2  501    0  0.21793111732E+02 -0.52443387594E+01 -0.12974322451E+03  0.13166528439E+03  0.00000000000E+00 0.  1.
          1    1    1    2  502    0 -0.21793111732E+02  0.52443387594E+01 -0.64130796501E+03  0.64169957830E+03  0.00000000000E+00 0. -1.
</event>
<event>
 4    1  0.3767413E+003  0.2846147E+02  0.7546771E-02  0.1433455E+00
          2   -1    0    0  502    0  0.00000000000E+00  0.00000000000E+00  0.22454458885E+04  0.22454458885E+04  0.00000000000E+00 0. -1.
          1   -1    0    0  501    0 -0.00000000000E+00 -0.00000000000E+00 -0.43420010889E+00  0.43420010889E+00  0.00000000000E+00 0. -1.
          2    1    1    2  501    0  0.26925611905E+02  0.92231705982E+01  0.15843479704E+04  0.15846035930E+04  0.00000000000E+00 0. -1.
          1    1    1    2  502    0 -0.26925611905E+02 -0.92231705982E+01  0.66066371798E+03  0.66127649566E+03  0.00000000000E+00 0. -1.
</event>
<event>
 4    1  0.3767413E+003  0.2339849E+02  0.7546771E-02  0.1487554E+00
          2   -1    0    0  502    0  0.00000000000E+00  0.00000000000E+00  0.11545402965E+04  0.11545402965E+04  0.00000000000E+00 0. -1.
          1   -1    0    0  501    0 -0.00000000000E+00 -0.00000000000E+00 -0.11682242387E+01  0.11682242387E+01  0.00000000000E+00 0.  1.
          2    1    1    2  501    0  0.22223754146E+02 -0.73207843350E+01  0.10220764577E+04  0.10223442544E+04  0.00000000000E+00 0. -1.
          1    1    1    2  502    0 -0.22223754146E+02  0.73207843350E+01  0.13129561459E+03  0.13336426636E+03  0.00000000000E+00 0.  1.
</event>
<event>
 4    1  0.3767413E+003  0.2042928E+02  0.7546771E-02  0.1527571E+00
          2   -1    0    0  502    0  0.00000000000E+00  0.00000000000E+00  0.59918532359E+01  0.59918532359E+01  0.00000000000E+00 0. -1.
          1   -1    0    0  501    0 -0.00000000000E+00 -0.00000000000E+00 -0.11742896724E+03  0.11742896724E+03  0.00000000000E+00 0.  1.
          2    1    1    2  501    0 -0.20311495454E+02 -0.21905832241E+01 -0.16357042268E+02  0.26170753413E+02  0.00000000000E+00 0. -1.
          1    1    1    2  502    0  0.20311495454E+02  0.21905832241E+01 -0.95080071740E+02  0.97250067067E+02  0.00000000000E+00 0.  1.
</event>
<event>
 4    1  0.3767413E+003  0.3072174E+02  0.7546771E-02  0.1413426E+00
          2   -1    0    0  502    0  0.00000000000E+00  0.00000000000E+00  0.13961136180E+04  0.13961136180E+04  0.00000000000E+00 0. -1.
          1   -1    0    0  501    0 -0.00000000000E+00 -0.00000000000E+00 -0.36543332278E+01  0.36543332278E+01  0.00000000000E+00 0. -1.
          2    1    1    2  501    0  0.21735401763E+01 -0.30644754362E+02  0.13280678457E+04  0.13284231359E+04  0.00000000000E+00 0. -1.
          1    1    1    2  502    0 -0.21735401763E+01  0.30644754362E+02  0.64391439095E+02  0.71344815338E+02  0.00000000000E+00 0. -1.
</event>
<event>
 4    1  0.3767413E+003  0.2086850E+02  0.7546771E-02  0.1521151E+00
          2   -1    0    0  502    0  0.00000000000E+00  0.00000000000E+00  0.58671129925E+03  0.58671129925E+03  0.00000000000E+00 0.  1.
          1   -1    0    0  501    0 -0.00000000000E+00 -0.00000000000E+00 -0.18866325665E+01  0.18866325665E+01  0.00000000000E+00 0. -1.
          2    1    1    2  501    0  0.20851633506E+02  0.83894466770E+00  0.52161945448E+03  0.52203673218E+03  0.00000000000E+00 0.  1.
          1    1    1    2  502    0 -0.20851633506E+02 -0.83894466770E+00  0.63205212200E+02  0.66561199638E+02  0.00000000000E+00 0. -1.
</event>
<event>
 4    1  0.3767413E+003  0.5159748E+02  0.7546771E-02  0.1291391E+00
          2   -1    0    0  502    0  0.00000000000E+00  0.00000000000E+00  0.24723840148E+01  0.24723840148E+01  0.00000000000E+00 0. -1.
          1   -1    0    0  501    0 -0.00000000000E+00 -0.00000000000E+00 -0.13408922897E+04  0.13408922897E+04  0.00000000000E+00 0. -1.
          2    1    1    2  501    0 -0.13678932558E+02  0.49751248146E+02 -0.37113010936E+03  0.37469969036E+03  0.00000000000E+00 0. -1.
          1    1    1    2  502    0  0.13678932558E+02 -0.49751248146E+02 -0.96728979629E+03  0.96866498332E+03  0.00000000000E+00 0. -1.
</event>
<event>
 4    1  0.3767413E+003  0.6901674E+02  0.7546771E-02  0.1231934E+00
          2   -1    0    0  502    0  0.00000000000E+00  0.00000000000E+00  0.46453667619E+03  0.46453667619E+03  0.00000000000E+00 0.  1.
          1   -1    0    0  501    0 -0.00000000000E+00 -0.00000000000E+00 -0.47391258912E+02  0.47391258912E+02  0.00000000000E+00 0. -1.
          2    1    1    2  501    0 -0.66672712982E+02 -0.17834238514E+02  0.43515984039E+03  0.44059890763E+03  0.00000000000E+00 0.  1.
          1    1    1    2  502    0  0.66672712982E+02  0.17834238514E+02 -0.18014423111E+02  0.71329027470E+02  0.00000000000E+00 0. -1.
</event>
<event>
 4    1  0.3767413E+003  0.2282935E+02  0.7546771E-02  0.1494652E+00
          2   -1    0    0  502    0  0.00000000000E+00  0.00000000000E+00  0.12500056696E+04  0.12500056696E+04  0.00000000000E+00 0.  1.
          1   -1    0    0  501    0 -0.00000000000E+00 -0.00000000000E+00 -0.16475313262E+01  0.16475313262E+01  0.00000000000E+00 0.  1.
          2    1    1    2  501    0 -0.18435467368E+02 -0.13465250838E+02  0.11650502110E+04  0.11652738621E+04  0.00000000000E+00 0.  1.
          1    1    1    2  502    0  0.18435467368E+02  0.13465250838E+02  0.83307927280E+02  0.86379338877E+02  0.00000000000E+00 0.  1.
</event>
<event>
 4    1  0.3767413E+003  0.4963035E+02  0.7546771E-02  0.1299783E+00
          2   -1    0    0  502    0  0.00000000000E+00  0.00000000000E+00  0.86766341894E+01  0.86766341894E+01  0.00000000000E+00 0. -1.
          1   -1    0    0  501    0 -0.00000000000E+00 -0.00000000000E+00 -0.99828144725E+03  0.99828144725E+03  0.00000000000E+00 0. -1.
          2    1    1    2  501    0 -0.33125727309E+02  0.36957515802E+02 -0.68886022305E+02  0.84902625714E+02  0.00000000000E+00 0. -1.
          1    1    1    2  502    0  0.33125727309E+02 -0.36957515802E+02 -0.92071879075E+03  0.92205545573E+03  0.00000000000E+00 0. -1.
</event>
<event>
 4    1  0.3767413E+003  0.3055970E+02  0.7546771E-02  0.1414794E+00
          2   -1    0    0  502    0  0.00000000000E+00  0.00000000000E+00  0.10166797013E+04  0.10166797013E+04  0.00000000000E+00 0. -1.
          1   -1    0    0  501    0 -0.00000000000E+00 -0.00000000000E+00 -0.17184873342E+01  0.17184873342E+01  0.00000000000E+00 0.  1.
          2    1    1    2  501    0 -0.29597645595E+02  0.76075537425E+01  0.85488550239E+03  0.85543153887E+03  0.00000000000E+00 0. -1.
          1    1    1    2  502    0  0.29597645595E+02 -0.76075537425E+01  0.16007571161E+03  0.16296664980E+03  0.00000000000E+00 0.  1.
</event>
<event>
 4    1  0.3767413E+003  0.4349283E+02  0.7546771E-02  0.1329150E+00
          2   -1    0    0  502    0  0.00000000000E+00  0.00000000000E+00  0.15848569697E+04  0.15848569697E+04  0.00000000000E+00 0. -1.
          1   -1    0    0  501    0 -0.00000000000E+00 -0.00000000000E+00 -0.27988937671E+01  0.27988937671E+01  0.00000000000E+00 0.  1.
          2    1    1    2  501    0 -0.14222628913E+02  0.41101622342E+02  0.13922241519E+04  0.13929033404E+04  0.00000000000E+00 0. -1.
          1    1    1    2  502    0  0.14222628913E+02 -0.41101622342E+02  0.18983392410E+03  0.19475252315E+03  0.00000000000E+00 0.  1.
</event>
<event>
 4    1  0.3767413E+003  0.2265031E+02  0.7546771E-02  0.1496936E+00
          2   -1    0    0  502    0  0.00000000000E+00  0.00000000000E+00  0.37704835907E+02  0.37704835907E+02  0.00000000000E+00 0. -1.
          1   -1    0    0  501    0 -0.00000000000E+00 -0.00000000000E+00 -0.58806841705E+02  0.58806841705E+02  0.00000000000E+00 0.  1.
          2    1    1    2  501    0 -0.57082364048E+01 -0.21919232907E+02  0.31755395082E+02  0.39005664344E+02  0.00000000000E+00 0. -1.
          1    1    1    2  502    0  0.57082364048E+01  0.21919232907E+02 -0.52857400881E+02  0.57506013268E+02  0.00000000000E+00 0.  1.
</event>
<event>
 4    1  0.3767413E+003  0.2826643E+02  0.7546771E-02  0.1435285E+00
          2   -1    0    0  502    0  0.00000000000E+00  0.00000000000E+00  0.11855522323E+03  0.11855522323E+03  0.00000000000E+00 0.  1.
          1   -1    0    0  501    0 -0.00000000000E+00 -0.00000000000E+00 -0.98054302952E+01  0.98054302952E+01  0.00000000000E+00 0.  1.
          2    1    1    2  501    0  0.26352534569E+02  0.10224225949E+02  0.90263530935E+02  0.94585918039E+02  0.00000000000E+00 0.  1.
          1    1    1    2  502    0 -0.26352534569E+02 -0.10224225949E+02  0.18486262002E+02  0.33774735488E+02  0.00000000000E+00 0.  1.
</event>
<event>
 4    1  0.3767413E+003  0.2990799E+02  0.7546771E-02  0.1420398E+00
          2   -1    0    0  502    0  0.00000000000E+00  0.00000000000E+00  0.17364683372E+04  0.17364683372E+04  0.00000000000E+00 0. -1.
          1   -1    0    0  501    0 -0.00000000000E+00 -0.00000000000E+00 -0.92685846928E+00  0.92685846928E+00  0.00000000000E+00 0. -1.
          2    1    1    2  501    0  0.70936298733E+01 -0.29054576380E+02  0.14467634696E+04  0.14470725707E+04  0.00000000000E+00 0. -1.
          1    1    1    2  502    0 -0.70936298733E+01  0.29054576380E+02  0.28877800911E+03  0.29032262492E+03  0.00000000000E+00 0. -1.
</event>
<event>
 4    1  0.3767413E+003  0.2438977E+02  0.7546771E-02  0.1475747E+00
          2   -1    0    0  502    0  0.00000000000E+00  0.00000000000E+00  0.35988857414E+03  0.35988857414E+03  0.00000000000E+00 0.  1.
          1   -1    0    0  501    0 -0.00000000000E+00 -0.00000000000E+00 -0.26245290293E+01  0.26245290293E+01  0.00000000000E+00 0.  1.
          2    1    1    2  501    0 -0.21359385347E+02 -0.11774453500E+02  0.28891728295E+03  0.28994492147E+03  0.00000000000E+00 0.  1.
          1    1    1    2  502    0  0.21359385347E+02  0.11774453500E+02  0.68346762158E+02  0.72568181699E+02  0.00000000000E+00 0.  1.
</event>
<event>
 4    1  0.3767413E+003  0.2206209E+02  0.7546771E-02  0.1504624E+00
          2   -1    0    0  502    0  0.00000000000E+00  0.00000000000E+00  0.83344528355E+00  0.83344528355E+00  0.00000000000E+00 0.  1.
          1   -1    0    0  501    0 -0.00000000000E+00 -0.00000000000E+00 -0.10979595070E+04  0.10979595070E+04  0.00000000000E+00 0.  1.
          2    1    1    2  501    0  0.61721054211E+01  0.21181148914E+02 -0.17267787259E+03  0.17408154307E+03  0.00000000000E+00 0.  1.
          1    1    1    2  502    0 -0.61721054211E+01 -0.21181148914E+02 -0.92444818916E+03  0.92471140925E+03  0.00000000000E+00 0.  1.
</event>
<event>
 4    1  0.3767413E+003  0.3971072E+02  0.7546771E-02  0.1350189E+00
          2   -1    0    0  502    0  0.00000000000E+00  0.00000000000E+00  0.79476547985E+02  0.79476547985E+02  0.00000000000E+00 0. -1.
          1   -1    0    0  501    0 -0.00000000000E+00 -0.00000000000E+00 -0.57033833720E+02  0.57033833720E+02  0.00000000000E+00 0. -1.
          2    1    1    2  501    0  0.26779246322E+02 -0.29322567789E+02  0.66339629568E+02  0.77316799381E+02  0.00000000000E+00 0. -1.
          1    1    1    2  502    0 -0.26779246322E+02  0.29322567789E+02 -0.43896915302E+02  0.59193582324E+02  0.00000000000E+00 0. -1.
</event>
<event>
 4    1  0.3767413E+003  0.5794510E+02  0.7546771E-02  0.1266979E+00
          2   -1    0    0  502    0  0.00000000000E+00  0.00000000000E+00  0.30579034953E+04  0.30579034953E+04  0.00000000000E+00 0.  1.
          1   -1    0    0  501    0 -0.00000000000E+00 -0.00000000000E+00 -0.68994072135E+01  0.68994072135E+01  0.00000000000E+00 0. -1.
          2    1    1    2  501    0  0.50412321906E+02  0.28569780961E+02  0.29306842725E+04  0.29312570579E+04  0.00000000000E+00 0.  1.
          1    1    1    2  502    0 -0.50412321906E+02 -0.28569780961E+02  0.12031981563E+03  0.13354584463E+03  0.00000000000E+00 0. -1.
</event>
<event>
 4    1  0.3767413E+003  0.2243128E+02  0.7546771E-02  0.1499766E+00
          2   -1    0    0  502    0  0.00000000000E+00  0.00000000000E+00  0.30083520428E+03  0.30083520428E+03  0.00000000000E+00 0.  1.
          1   -1    0    0  501    0 -0.00000000000E+00 -0.00000000000E+00 -0.92108335884E+03  0.92108335884E+03  0.00000000000E+00 0. -1.
          2    1    1    2  501    0 -0.55670955393E+01 -0.21729465508E+02  0.30028024644E+03  0.30111690193E+03  0.00000000000E+00 0.  1.
          1    1    1    2  502    0  0.55670955393E+01  0.21729465508E+02 -0.92052840099E+03  0.92080166119E+03  0.00000000000E+00 0. -1.
</event>
<event>
 4    1  0.3767413E+003  0.3263591E+02  0.7546771E-02  0.1397991E+00
          2   -1    0    0  502    0  0.00000000000E+00  0.00000000000E+00  0.55633694092E+02  0.55633694092E+02  0.00000000000E+00 0. -1.
          1   -1    0    0  501    0 -0.00000000000E+00 -0.00000000000E+00 -0.21901706255E+03  0.21901706255E+03  0.00000000000E+00 0.  1.
          2    1    1    2  501    0 -0.31496578147E+02  0.85479800508E+01  0.49494459972E+02  0.59285782156E+02  0.00000000000E+00 0. -1.
          1    1    1    2  502    0  0.31496578147E+02 -0.85479800508E+01 -0.21287782843E+03  0.21536497448E+03  0.00000000000E+00 0.  1.
</event>
<event>
 4    1  0.3767413E+003  0.2369645E+02  0.7546771E-02  0.1483933E+00
          2   -1    0    0  502    0  0.00000000000E+00  0.00000000000E+00  0.92312923720E+03  0.92312923720E+03  0.00000000000E+00 0. -1.
          1   -1    0    0  501    0 -0.00000000000E+00 -0.00000000000E+00 -0.10114160731E+01  0.10114160731E+01  0.00000000000E+00 0.  1.
          2    1    1    2  501    0 -0.23679947827E+02  0.88432466164E+00  0.75278042246E+03  0.75315329542E+03  0.00000000000E+00 0. -1.
          1    1    1    2  502    0  0.23679947827E+02 -0.88432466164E+00  0.16933739867E+03  0.17098735785E+03  0.00000000000E+00 0.  1.
</event>
<event>
 4    1  0.3767413E+003  0.2449953E+02  0.7546771E-02  0.1474481E+00
          2   -1    0    0  502    0  0.00000000000E+00  0.00000000000E+00  0.74042227392E+02  0.74042227392E+02  0.00000000000E+00 0. -1.
          1   -1    0    0  501    0 -0.00000000000E+00 -0.00000000000E+00 -0.50339677995E+03  0.50339677995E+03  0.00000000000E+00 0.  1.
          2    1    1    2  501    0  0.18645538023E+02 -0.15892485149E+02  0.71708065566E+02  0.75777792523E+02  0.00000000000E+00 0. -1.
          1    1    1    2  502    0 -0.18645538023E+02  0.15892485149E+02 -0.50106261812E+03  0.50166121482E+03  0.00000000000E+00 0.  1.
</event>
<event>
 4    1  0.3767413E+003  0.3580911E+02  0.7546771E-02  0.1374962E+00
          2   -1    0    0  502    0  0.00000000000E+00  0.00000000000E+00  0.19559401560E+03  0.19559401560E+03  0.00000000000E+00 0. -1.
          1   -1    0    0  501    0 -0.00000000000E+00 -0.00000000000E+00 -0.11796999951E+02  0.11796999951E+02  0.00000000000E+00 0.  1.
          2    1    1    2  501    0  0.24505502700E+02 -0.26110775371E+02  0.16101567274E+03  0.16494950477E+03  0.00000000000E+00 0. -1.
          1    1    1    2  502    0 -0.24505502700E+02  0.26110775371E+02  0.22781342900E+02  0.42441510781E+02  0.00000000000E+00 0.  1.
</event>
<event>
 4    1  0.3767413E+003  0.2315383E+02  0.7546771E-02  0.1490575E+00
          2   -1    0    0  502    0  0.00000000000E+00  0.00000000000E+00  0.97799783460E+03  0.97799783460E+03  0.00000000000E+00 0.  1.
          1   -1    0    0  501    0 -0.00000000000E+00 -0.00000000000E+00 -0.15498145413E+01  0.15498145413E+01  0.00000000000E+00 0. -1.
          2    1    1    2  501    0 -0.25287648617E+01  0.23015326638E+02  0.88196855525E+03  0.88227242525E+03  0.00000000000E+00 0.  1.
          1    1    1    2  502    0  0.25287648617E+01 -0.23015326638E+02  0.94479464809E+02  0.97275223888E+02  0.00000000000E+00 0. -1.
</event>
<event>
 4    1  0.3767413E+003  0.2996540E+02  0.7546771E-02  0.1419897E+00
          2   -1    0    0  502    0  0.00000000000E+00  0.00000000000E+00  0.11113276820E+04  0.11113276820E+04  0.00000000000E+00 0.  1.
          1   -1    0    0  501    0 -0.00000000000E+00 -0.00000000000E+00 -0.32914268072E+01  0.32914268072E+01  0.00000000000E+00 0.  1.
          2    1    1    2  501    0 -0.29229342938E+02 -0.66008270399E+01  0.10381149397E+04  0.10385473285E+04  0.00000000000E+00 0.  1.
          1    1    1    2  502    0  0.29229342938E+02  0.66008270399E+01  0.69921315493E+02  0.76071780355E+02  0.00000000000E+00 0.  1.
</event>
<event>
 4    1  0.3767413E+003  0.2725752E+02  0.7546771E-02  0.1445038E+00
          2   -1    0    0  502    0  0.00000000000E+00  0.00000000000E+00  0.53501605879E+02  0.53501605879E+02  0.00000000000E+00 0. -1.
          1   -1    0    0  501    0 -0.00000000000E+00 -0.00000000000E+00 -0.60343400872E+02  0.60343400872E+02  0.00000000000E+00 0. -1.
          2    1    1    2  501    0 -0.56697596822E+01  0.26661325850E+02  0.46524130247E+02  0.53920934396E+02  0.00000000000E+00 0. -1.
          1    1    1    2  502    0  0.56697596822E+01 -0.26661325850E+02 -0.53365925239E+02  0.59924072355E+02  0.00000000000E+00 0. -1.
</event>
<event>
 4    1  0.3767413E+003  0.2047794E+02  0.7546771E-02  0.1526851E+00
          2   -1    0    0  502    0  0.00000000000E+00  0.00000000000E+00  0.12578433346E+03  0.12578433346E+03  0.00000000000E+00 0.  1.
          1   -1    0    0  501    0 -0.00000000000E+00 -0.00000000000E+00 -0.20928975290E+02  0.20928975290E+02  0.00000000000E+00 0.  1.
          2    1    1    2  501    0  0.14372468064E+02 -0.14586913553E+02  0.11968843382E+03  0.12142762073E+03  0.00000000000E+00 0.  1.
          1    1    1    2  502    0 -0.14372468064E+02  0.14586913553E+02 -0.14833075653E+02  0.25285688019E+02  0.00000000000E+00 0.  1.
</event>
<event>
 4    1  0.3767413E+003  0.2200769E+02  0.7546771E-02  0.1505349E+00
          2   -1    0    0  502    0  0.00000000000E+00  0.00000000000E+00  0.46325439337E+03  0.46325439337E+03  0.00000000000E+00 0.  1.
          1   -1    0    0  501    0 -0.00000000000E+00 -0.00000000000E+00 -0.34097333890E+02  0.34097333890E+02  0.00000000000E+00 0.  1.
          2    1    1    2  501    0 -0.10674727054E+02 -0.19245482305E+02  0.45941218729E+03  0.45993901358E+03  0.00000000000E+00 0.  1.
          1    1    1    2  502    0  0.10674727054E+02  0.19245482305E+02 -0.30255127802E+02  0.37412713684E+02  0.00000000000E+00 0.  1.
</event>
<event>
 4    1  0.3767413E+003  0.2263996E+02  0.7546771E-02  0.1497069E+00
          2   -1    0    0  502    0  0.00000000000E+00  0.00000000000E+00  0.65837407845E+02  0.65837407845E+02  0.00000000000E+00 0. -1.
          1   -1    0    0  501    0 -0.00000000000E+00 -0.00000000000E+00 -0.20864643661E+03  0.20864643661E+03  0.00000000000E+00 0. -1.
          2    1    1    2  501    0  0.68225601364E+01 -0.21587509206E+02  0.63252567881E+02  0.67182253789E+02  0.00000000000E+00 0. -1.
          1    1    1    2  502    0 -0.68225601364E+01  0.21587509206E+02 -0.20606159665E+03  0.20730159067E+03  0.00000000000E+00 0. -1.
</event>
<event>
 4    1  0.3767413E+003  0.2499832E+02  0.7546771E-02  0.1468822E+00
          2   -1    0    0  502    0  0.00000000000E+00  0.00000000000E+00  0.19864709851E+02  0.19864709851E+02  0.00000000000E+00 0. -1.
          1   -1    0    0  501    0 -0.00000000000E+00 -0.00000000000E+00 -0.33962970978E+02  0.33962970978E+02  0.00000000000E+00 0. -1.
          2    1    1    2  501    0 -0.21621375630E+02  0.12547193176E+02  0.25926856123E+00  0.24999663216E+02  0.00000000000E+00 0. -1.
          1    1    1    2  502    0  0.21621375630E+02 -0.12547193176E+02 -0.14357529689E+02  0.28828017613E+02  0.00000000000E+00 0. -1.
</event>
<event>
 4    1  0.3767413E+003  0.2009043E+02  0.7546771E-02  0.1532658E+00
          2   -1    0    0  502    0  0.00000000000E+00  0.00000000000E+00  0.61830197579E+03  0.61830197579E+03  0.00000000000E+00 0.  1.
          1   -1    0    0  501    0 -0.00000000000E+00 -0.00000000000E+00 -0.20128756389E+02  0.20128756389E+02  0.00000000000E+00 0. -1.
          2    1    1    2  501    0 -0.13888315995E+02 -0.14516883589E+02  0.61308307205E+03  0.61341216035E+03  0.00000000000E+00 0.  1.
          1    1    1    2  502    0  0.13888315995E+02  0.14516883589E+02 -0.14909852650E+02  0.25018571829E+02  0.00000000000E+00 0. -1.
</event>
<event>
 4    1  0.3767413E+003  0.2224676E+02  0.7546771E-02  0.1502180E+00
          2   -1    0    0  502    0  0.00000000000E+00  0.00000000000E+00  0.31924542668E+02  0.31924542668E+02  0.00000000000E+00 0.  1.
          1   -1    0    0  501    0 -0.00000000000E+00 -0.00000000000E+00 -0.50681710704E+03  0.50681710704E+03  0.00000000000E+00 0.  1.
          2    1    1    2  501    0  0.14792216303E+02 -0.16616517383E+02  0.27772727704E+02  0.35584304366E+02  0.00000000000E+00 0.  1.
          1    1    1    2  502    0 -0.14792216303E+02  0.16616517383E+02 -0.50266529207E+03  0.50315734534E+03  0.00000000000E+00 0.  1.
</event>
<event>
 4    1  0.3767413E+003  0.6878398E+02  0.7546771E-02  0.1232593E+00
          2   -1    0    0  502    0  0.00000000000E+00  0.00000000000E+00  0.75262707195E+03  0.75262707195E+03  0.00000000000E+00 0. -1.
          1   -1    0    0  501    0 -0.00000000000E+00 -0.00000000000E+00 -0.75149879116E+01  0.75149879116E+01  0.00000000000E+00 0. -1.
          2    1    1    2  501    0  0.12079737055E+02 -0.67714961120E+02  0.52623777608E+03  0.53071407837E+03  0.00000000000E+00 0. -1.
          1    1    1    2  502    0 -0.12079737055E+02  0.67714961120E+02  0.21887430795E+03  0.22942798148E+03  0.00000000000E+00 0. -1.
</event>
<event>
 4    1  0.3767413E+003  0.2038390E+02  0.7546771E-02  0.1528246E+00
          2   -1    0    0  502    0  0.00000000000E+00  0.00000000000E+00  0.86276212145E+02  0.86276212145E+02  0.00000000000E+00 0.  1.
          1   -1    0    0  501    0 -0.00000000000E+00 -0.00000000000E+00 -0.64583636653E+01  0.64583636653E+01  0.00000000000E+00 0. -1.
          2    1    1    2  501    0 -0.29995582043E+01 -0.20161993831E+02  0.63291348897E+02  0.66492843148E+02  0.00000000000E+00 0.  1.
          1    1    1    2  502    0  0.29995582043E+01  0.20161993831E+02  0.16526499583E+02  0.26241732663E+02  0.00000000000E+00 0. -1.
</event>
<event>
 4    1  0.3767413E+003  0.2109816E+02  0.7546771E-02  0.1517868E+00
          2   -1    0    0  502    0  0.00000000000E+00  0.00000000000E+00  0.51113652643E+03  0.51113652643E+03  0.00000000000E+00 0.  1.
          1   -1    0    0  501    0 -0.00000000000E+00 -0.00000000000E+00 -0.99558214227E+02  0.99558214227E+02  0.00000000000E+00 0. -1.
          2    1    1    2  501    0  0.13318460778E+02 -0.16363103835E+02  0.50979810649E+03  0.51023449701E+03  0.00000000000E+00 0.  1.
          1    1    1    2  502    0 -0.13318460778E+02  0.16363103835E+02 -0.98219794282E+02  0.10046024365E+03  0.00000000000E+00 0. -1.
</event>
<event>
 4    1  0.3767413E+003  0.2988543E+02  0.7546771E-02  0.1420595E+00
          2   -1    0    0  502    0  0.00000000000E+00  0.00000000000E+00  0.22859808648E+03  0.22859808648E+03  0.00000000000E+00 0.  1.
          1   -1    0    0  501    0 -0.00000000000E+00 -0.00000000000E+00 -0.52553810707E+03  0.52553810707E+03  0.00000000000E+00 0. -1.
          2    1    1    2  501    0 -0.26363167678E+02 -0.14075587203E+02  0.22719384641E+03  0.22915100395E+03  0.00000000000E+00 0.  1.
          1    1    1    2  502    0  0.26363167678E+02  0.14075587203E+02 -0.52413386700E+03  0.52498518960E+03  0.00000000000E+00 0. -1.
</event>
<event>
 4    1  0.3767413E+003  0.2192800E+02  0.7546771E-02  0.1506417E+00
          2   -1    0    0  502    0  0.00000000000E+00  0.00000000000E+00  0.48829528370E+02  0.48829528370E+02  0.00000000000E+00 0.  1.
          1   -1    0    0  501    0 -0.00000000000E+00 -0.00000000000E+00 -0.24338288864E+03  0.24338288864E+03  0.00000000000E+00 0.  1.
          2    1    1    2  501    0 -0.21925303328E+02  0.34366206943E+00  0.45843285794E+02  0.50817751642E+02  0.00000000000E+00 0.  1.
          1    1    1    2  502    0  0.21925303328E+02 -0.34366206943E+00 -0.24039664607E+03  0.24139466537E+03  0.00000000000E+00 0.  1.
</event>
<event>
 4    1  0.3767413E+003  0.6224497E+02  0.7546771E-02  0.1252390E+00
          2   -1    0    0  502    0  0.00000000000E+00  0.00000000000E+00  0.15761098531E+04  0.15761098531E+04  0.00000000000E+00 0. -1.
          1   -1    0    0  501    0 -0.00000000000E+00 -0.00000000000E+00 -0.94224714510E+03  0.94224714510E+03  0.00000000000E+00 0.  1.
          2    1    1    2  501    0 -0.39096382804E+02  0.48434591374E+02  0.15744662456E+04  0.15756961622E+04  0.00000000000E+00 0. -1.
          1    1    1    2  502    0  0.39096382804E+02 -0.48434591374E+02 -0.94060353764E+03  0.94266083604E+03  0.00000000000E+00 0.  1.
</event>
<event>
 4    1  0.3767413E+003  0.2766482E+02  0.7546771E-02  0.1441042E+00
          2   -1    0    0  502    0  0.00000000000E+00  0.00000000000E+00  0.36537530783E+01  0.36537530783E+01  0.00000000000E+00 0.  1.
          1   -1    0    0  501    0 -0.00000000000E+00 -0.00000000000E+00 -0.30294082473E+03  0.30294082473E+03  0.00000000000E+00 0. -1.
          2    1    1    2  501    0 -0.11401447746E+02  0.25206130679E+02 -0.64490579896E+02  0.70173904906E+02  0.00000000000E+00 0.  1.
          1    1    1    2  502    0  0.11401447746E+02 -0.25206130679E+02 -0.23479649175E+03  0.23642067290E+03  0.00000000000E+00 0. -1.
</event>
<event>
 4    1  0.3767413E+003  0.2402145E+02  0.7546771E-02  0.1480055E+00
          2   -1    0    0  502    0  0.00000000000E+00  0.00000000000E+00  0.25005332131E+02  0.25005332131E+02  0.00000000000E+00 0.  1.
          1   -1    0    0  501    0 -0.00000000000E+00 -0.00000000000E+00 -0.12926945498E+03  0.12926945498E+03  0.00000000000E+00 0. -1.
          2    1    1    2  501    0  0.24012056306E+02 -0.67177336027E+00  0.17782123250E+02  0.29887021175E+02  0.00000000000E+00 0.  1.
          1    1    1    2  502    0 -0.24012056306E+02  0.67177336027E+00 -0.12204624610E+03  0.12438776593E+03  0.00000000000E+00 0. -1.
</event>
<event>
 4    1  0.3767413E+003  0.3040068E+02  0.7546771E-02  0.1416146E+00
          2   -1    0    0  502    0  0.00000000000E+00  0.00000000000E+00  0.61844180397E+03  0.61844180397E+03  0.00000000000E+00 0. -1.
          1   -1    0    0  501    0 -0.00000000000E+00 -0.00000000000E+00 -0.86947156754E+01  0.86947156754E+01  0.00000000000E+00 0.  1.
          2    1    1    2  501    0 -0.28671070818E+02 -0.10107965229E+02  0.59022499349E+03  0.59100739776E+03  0.00000000000E+00 0. -1.
          1    1    1    2  502    0  0.28671070818E+02  0.10107965229E+02  0.19522094805E+02  0.36129121889E+02  0.00000000000E+00 0.  1.
</event>
<event>
 4    1  0.3767413E+003  0.2196239E+02  0.7546771E-02  0.1505955E+00
          2   -1    0    0  502    0  0.00000000000E+00  0.00000000000E+00  0.26317582291E+03  0.26317582291E+03  0.00000000000E+00 0. -1.
          1   -1    0    0  501    0 -0.00000000000E+00 -0.00000000000E+00 -0.51697150760E+03  0.51697150760E+03  0.00000000000E+00 0.  1.
          2    1    1    2  501    0 -0.20946852669E+02 -0.66012047650E+01  0.26248375511E+03  0.26340096476E+03  0.00000000000E+00 0. -1.
          1    1    1    2  502    0  0.20946852669E+02  0.66012047650E+01 -0.51627943981E+03  0.51674636574E+03  0.00000000000E+00 0.  1.
</event>
<event>
 4    1  0.3767413E+003  0.4375087E+02  0.7546771E-02  0.1327805E+00
          2   -1    0    0  502    0  0.00000000000E+00  0.00000000000E+00  0.41837482978E+02  0.41837482978E+02  0.00000000000E+00 0.  1.
          1   -1    0    0  501    0 -0.00000000000E+00 -0.00000000000E+00 -0.55261793353E+02  0.55261793353E+02  0.00000000000E+00 0. -1.
          2    1    1    2  501    0  0.23024505778E+02 -0.37202300497E+02  0.13428065777E+02  0.45765183044E+02  0.00000000000E+00 0.  1.
          1    1    1    2  502    0 -0.23024505778E+02  0.37202300497E+02 -0.26852376152E+02  0.51334093287E+02  0.00000000000E+00 0. -1.
</event>
<event>
 4    1  0.3767413E+003  0.2208478E+02  0.7546771E-02  0.1504322E+00
          2   -1    0    0  502    0  0.00000000000E+00  0.00000000000E+00  0.42786494795E+03  0.42786494795E+03  0.00000000000E+00 0. -1.
          1   -1    0    0  501    0 -0.00000000000E+00 -0.00000000000E+00 -0.32962155503E+02  0.32962155503E+02  0.00000000000E+00 0.  1.
          2    1    1    2  501    0 -0.29407570178E+01 -0.21888111314E+02  0.42384568617E+03  0.42442066768E+03  0.00000000000E+00 0. -1.
          1    1    1    2  502    0  0.29407570178E+01  0.21888111314E+02 -0.28942893723E+02  0.36406435774E+02  0.00000000000E+00 0.  1.
</event>
<event>
 4    1  0.3767413E+003  0.5164908E+02  0.7546771E-02  0.1291177E+00
          2   -1    0    0  502    0  0.00000000000E+00  0.00000000000E+00  0.41726068793E+01  0.41726068793E+01  0.00000000000E+00 0. -1.
          1   -1    0    0  501    0 -0.00000000000E+00 -0.00000000000E+00 -0.65619571675E+03  0.65619571675E+03  0.00000000000E+00 0. -1.
          2    1    1    2  501    0  0.44150650860E+02 -0.26802008509E+02 -0.27305970520E+03  0.27790147577E+03  0.00000000000E+00 0. -1.
          1    1    1    2  502    0 -0.44150650860E+02  0.26802008509E+02 -0.37896340467E+03  0.38246684786E+03  0.00000000000E+00 0. -1.
</event>
<event>
 4    1  0.3767413E+003  0.2024171E+02  0.7546771E-02  0.1530372E+00
          2   -1    0    0  502    0  0.00000000000E+00  0.00000000000E+00  0.85181615374E+01  0.85181615374E+01  0.00000000000E+00 0. -1.
          1   -1    0    0  501    0 -0.00000000000E+00 -0.00000000000E+00 -0.80070990914E+02  0.80070990914E+02  0.00000000000E+00 0. -1.
          2    1    1    2  501    0 -0.95319252585E+01 -0.17856913620E+02 -0.77873560227E+01  0.21688012288E+02  0.00000000000E+00 0. -1.
          1    1    1    2  502    0  0.95319252585E+01  0.17856913620E+02 -0.63765473353E+02  0.66901140163E+02  0.00000000000E+00 0. -1.
</event>
<event>
 4    1  0.3767413E+003  0.2067035E+02  0.7546771E-02  0.1524024E+00
          2   -1    0    0  502    0  0.00000000000E+00  0.00000000000E+00  0.10253833652E+03  0.10253833652E+03  0.00000000000E+00 0.  1.
          1   -1    0    0  501    0 -0.00000000000E+00 -0.00000000000E+00 -0.41880950550E+02  0.41880950550E+02  0.00000000000E+00 0.  1.
          2    1    1    2  501    0  0.14151407088E+02 -0.15066555273E+02  0.98852065061E+02  0.10099006970E+03  0.00000000000E+00 0.  1.
          1    1    1    2  502    0 -0.14151407088E+02  0.15066555273E+02 -0.38194679094E+02  0.43429217371E+02  0.00000000000E+00 0.  1.
</event>
<event>
 4    1  0.3767413E+003  0.2600593E+02  0.7546771E-02  0.1457858E+00
          2   -1    0    0  502    0  0.00000000000E+00  0.00000000000E+00  0.12280341586E+03  0.12280341586E+03  0.00000000000E+00 0.  1.
          1   -1    0    0  501    0 -0.00000000000E+00 -0.00000000000E+00 -0.30177291854E+03  0.30177291854E+03  0.00000000000E+00 0.  1.
          2    1    1    2  501    0  0.24558760927E+02  0.85542838192E+01  0.12085740589E+03  0.12362370755E+03  0.00000000000E+00 0.  1.
          1    1    1    2  502    0 -0.24558760927E+02 -0.85542838192E+01 -0.29982690856E+03  0.30095262685E+03  0.00000000000E+00 0.  1.
</event>
<event>
 4    1  0.3767413E+003  0.2727376E+02  0.7546771E-02  0.1444877E+00
          2   -1    0    0  502    0  0.00000000000E+00  0.00000000000E+00  0.12611586340E+03  0.12611586340E+03  0.00000000000E+00 0. -1.
          1   -1    0    0  501    0 -0.00000000000E+00 -0.00000000000E+00 -0.48953934502E+03  0.48953934502E+03  0.00000000000E+00 0.  1.
          2    1    1    2  501    0 -0.24929365416E+02  0.11062753910E+02  0.12425581495E+03  0.12721385668E+03  0.00000000000E+00 0. -1.
          1    1    1    2  502    0  0.24929365416E+02 -0.11062753910E+02 -0.48767929657E+03  0.48844135173E+03  0.00000000000E+00 0.  1.
</event>
<event>
 4    1  0.3767413E+003  0.2406802E+02  0.7546771E-02  0.1479505E+00
          2   -1    0    0  502    0  0.00000000000E+00  0.00000000000E+00  0.54491511467E+01  0.54491511467E+01  0.00000000000E+00 0.  1.
          1   -1    0    0  501    0 -0.00000000000E+00 -0.00000000000E+00 -0.28213312224E+03  0.28213312224E+03  0.00000000000E+00 0. -1.
          2    1    1    2  501    0 -0.19183986378E+02  0.14534251705E+02 -0.24827901658E+02  0.34578815866E+02  0.00000000000E+00 0.  1.
          1    1    1    2  502    0  0.19183986378E+02 -0.14534251705E+02 -0.25185606943E+03  0.25300345752E+03  0.00000000000E+00 0. -1.
</event>
<event>
 4    1  0.3767413E+003  0.2215687E+02  0.7546771E-02  0.1503366E+00
          2   -1    0    0  502    0  0.00000000000E+00  0.00000000000E+00  0.83893426999E+00  0.83893426999E+00  0.00000000000E+00 0. -1.
          1   -1    0    0  501    0 -0.00000000000E+00 -0.00000000000E+00 -0.10423945817E+04  0.10423945817E+04  0.00000000000E+00 0.  1.
          2    1    1    2  501    0 -0.12745402768E+02 -0.18124057644E+02 -0.17531926919E+03  0.17671381640E+03  0.00000000000E+00 0. -1.
          1    1    1    2  502    0  0.12745402768E+02  0.18124057644E+02 -0.86623637826E+03  0.86651969959E+03  0.00000000000E+00 0.  1.
</event>
<event>
 4    1  0.3767413E+003  0.2213356E+02  0.7546771E-02  0.1503674E+00
          2   -1    0    0  502    0  0.00000000000E+00  0.00000000000E+00  0.18410389994E+03  0.18410389994E+03  0.00000000000E+00 0. -1.
          1   -1    0    0  501    0 -0.00000000000E+00 -0.00000000000E+00 -0.34539032888E+01  0.34539032888E+01  0.00000000000E+00 0. -1.
          2    1    1    2  501    0  0.70243861643E+01  0.20989340718E+02  0.13525838663E+03  0.13705738061E+03  0.00000000000E+00 0. -1.
          1    1    1    2  502    0 -0.70243861643E+01 -0.20989340718E+02  0.45391610021E+02  0.50500422623E+02  0.00000000000E+00 0. -1.
</event>
<event>
 4    1  0.3767413E+003  0.2602546E+02  0.7546771E-02  0.1457651E+00
          2   -1    0    0  502    0  0.00000000000E+00  0.00000000000E+00  0.14821547588E+04  0.14821547588E+04  0.00000000000E+00 0. -1.
          1   -1    0    0  501    0 -0.00000000000E+00 -0.00000000000E+00 -0.98729043686E+00  0.98729043686E+00  0.00000000000E+00 0.  1.
          2    1    1    2  501    0  0.21388702491E+00 -0.26024582823E+02  0.12840751994E+04  0.12843389125E+04  0.00000000000E+00 0. -1.
          1    1    1    2  502    0 -0.21388702491E+00  0.26024582823E+02  0.19709226900E+03  0.19880313669E+03  0.00000000000E+00 0.  1.
</event>
<event>
 4    1  0.3767413E+003  0.2118248E+02  0.7546771E-02  0.1516675E+00
          2   -1    0    0  502    0  0.00000000000E+00  0.00000000000E+00  0.81023743070E+03  0.81023743070E+03  0.00000000000E+00 0.  1.
          1   -1    0    0  501    0 -0.00000000000E+00 -0.00000000000E+00 -0.28450672790E+02  0.28450672790E+02  0.00000000000E+00 0. -1.
          2    1    1    2  501    0  0.14312713391E+02 -0.15615501618E+02  0.80613616032E+03  0.80641441370E+03  0.00000000000E+00 0.  1.
          1    1    1    2  502    0 -0.14312713391E+02  0.15615501618E+02 -0.24349402403E+02  0.32273689792E+02  0.00000000000E+00 0. -1.
</event>
<event>
 4    1  0.3767413E+003  0.2163537E+02  0.7546771E-02  0.1510384E+00
          2   -1    0    0  502    0  0.00000000000E+00  0.00000000000E+00  0.15113823029E+02  0.15113823029E+02  0.00000000000E+00 0.  1.
          1   -1    0    0  501    0 -0.00000000000E+00 -0.00000000000E+00 -0.31693930855E+03  0.31693930855E+03  0.00000000000E+00 0.  1.
          2    1    1    2  501    0  0.20319605426E+02 -0.74298718891E+01  0.67933702523E+01  0.22676843703E+02  0.00000000000E+00 0.  1.
          1    1    1    2  502    0 -0.20319605426E+02  0.74298718891E+01 -0.30861885577E+03  0.30937628787E+03  0.00000000000E+00 0.  1.
</event>
<event>
 4    1  0.3767413E+003  0.2050403E+02  0.7546771E-02  0.1526465E+00
          2   -1    0    0  502    0  0.00000000000E+00  0.00000000000E+00  0.26794901600E+01  0.26794901600E+01  0.00000000000E+00 0.  1.
          1   -1    0    0  501    0 -0.00000000000E+00 -0.00000000000E+00 -0.22672847025E+03  0.22672847025E+03  0.00000000000E+00 0.  1.
          2    1    1    2  501    0  0.20333573179E+02 -0.26383980551E+01 -0.48368709038E+02  0.52535201118E+02  0.00000000000E+00 0.  1.
          1    1    1    2  502    0 -0.20333573179E+02  0.26383980551E+01 -0.17568027105E+03  0.17687275929E+03  0.00000000000E+00 0.  1.
</event>
<event>
 4    1  0.3767413E+003  0.2317119E+02  0.7546771E-02  0.1490360E+00
          2   -1    0    0  502    0  0.00000000000E+00  0.00000000000E+00  0.27727445080E+03  0.27727445080E+03  0.00000000000E+00 0. -1.
          1   -1    0    0  501    0 -0.00000000000E+00 -0.00000000000E+00 -0.19846110937E+02  0.19846110937E+02  0.00000000000E+00 0.  1.
          2    1    1    2  501    0  0.15550300398E+02  0.17178245730E+02  0.26984105049E+03  0.27083407559E+03  0.00000000000E+00 0. -1.
          1    1    1    2  502    0 -0.15550300398E+02 -0.17178245730E+02 -0.12412710631E+02  0.26286486148E+02  0.00000000000E+00 0.  1.
</event>
<event>
 4    1  0.3767413E+003  0.2040317E+02  0.7546771E-02  0.1527959E+00
          2   -1    0    0  502    0  0.00000000000E+00  0.00000000000E+00  0.19081727089E+02  0.19081727089E+02  0.00000000000E+00 0. -1.
          1   -1    0    0  501    0 -0.00000000000E+00 -0.00000000000E+00 -0.38772841286E+02  0.38772841286E+02  0.00000000000E+00 0. -1.
          2    1    1    2  501    0  0.12488907150E+02 -0.16134326360E+02  0.92844337358E+01  0.22416288691E+02  0.00000000000E+00 0. -1.
          1    1    1    2  502    0 -0.12488907150E+02  0.16134326360E+02 -0.28975547933E+02  0.35438279683E+02  0.00000000000E+00 0. -1.
</event>
<event>
 4    1  0.3767413E+003  0.3433202E+02  0.7546771E-02  0.1385321E+00
          2   -1    0    0  502    0  0.00000000000E+00  0.00000000000E+00  0.11734579349E+04  0.11734579349E+04  0.00000000000E+00 0.  1.
          1   -1    0    0  501    0 -0.00000000000E+00 -0.00000000000E+00 -0.11816441876E+01  0.11816441876E+01  0.00000000000E+00 0.  1.
          2    1    1    2  501    0  0.26170554172E+01  0.34232107333E+02  0.35870728227E+03  0.36034650062E+03  0.00000000000E+00 0.  1.
          1    1    1    2  502    0 -0.26170554172E+01 -0.34232107333E+02  0.81356900848E+03  0.81429307851E+03  0.00000000000E+00 0.  1.
</event>
<event>
 4    1  0.3767413E+003  0.5404863E+02  0.7546771E-02  0.1281513E+00
          2   -1    0    0  502    0  0.00000000000E+00  0.00000000000E+00  0.61156301994E+02  0.61156301994E+02  0.00000000000E+00 0.  1.
          1   -1    0    0  501    0 -0.00000000000E+00 -0.00000000000E+00 -0.83264566055E+03  0.83264566055E+03  0.00000000000E+00 0.  1.
          2    1    1    2  501    0 -0.51086957774E+02 -0.17645894700E+02  0.48148126680E+02  0.72384369564E+02  0.00000000000E+00 0.  1.
          1    1    1    2  502    0  0.51086957774E+02  0.17645894700E+02 -0.81963748523E+03  0.82141759298E+03  0.00000000000E+00 0.  1.
</event>
<event>
 4    1  0.3767413E+003  0.3658737E+02  0.7546771E-02  0.1369734E+00
          2   -1    0    0  502    0  0.00000000000E+00  0.00000000000E+00  0.12493773867E+04  0.12493773867E+04  0.00000000000E+00 0. -1.
          1   -1    0    0  501    0 -0.00000000000E+00 -0.00000000000E+00 -0.11358451272E+01  0.11358451272E+01  0.00000000000E+00 0. -1.
          2    1    1    2  501    0 -0.36203487894E+02 -0.52861197467E+01  0.77300602835E+03  0.77387140758E+03  0.00000000000E+00 0. -1.
          1    1    1    2  502    0  0.36203487894E+02  0.52861197467E+01  0.47523551318E+03  0.47664182421E+03  0.00000000000E+00 0. -1.
</event>
<event>
 4    1  0.3767413E+003  0.2713356E+02  0.7546771E-02  0.1446271E+00
          2   -1    0    0  502    0  0.00000000000E+00  0.00000000000E+00  0.14506951233E+03  0.14506951233E+03  0.00000000000E+00 0. -1.
          1   -1    0    0  501    0 -0.00000000000E+00 -0.00000000000E+00 -0.41245253947E+02  0.41245253947E+02  0.00000000000E+00 0.  1.
          2    1    1    2  501    0 -0.22341361436E+02 -0.15397837711E+02  0.13915018596E+03  0.14177095644E+03  0.00000000000E+00 0. -1.
          1    1    1    2  502    0  0.22341361436E+02  0.15397837711E+02 -0.35325927569E+02  0.44543809846E+02  0.00000000000E+00 0.  1.
</event>
<event>
 4    1  0.3767413E+003  0.4273860E+02  0.7546771E-02  0.1333144E+00
          2   -1    0    0  502    0  0.00000000000E+00  0.00000000000E+00  0.15851062584E+03  0.15851062584E+03  0.00000000000E+00 0.  1.
          1   -1    0    0  501    0 -0.00000000000E+00 -0.00000000000E+00 -0.36023442758E+02  0.36023442758E+02  0.00000000000E+00 0. -1.
          2    1    1    2  501    0 -0.19323862550E+02  0.38120549004E+02  0.14145868981E+03  0.14777397891E+03  0.00000000000E+00 0.  1.
          1    1    1    2  502    0  0.19323862550E+02 -0.38120549004E+02 -0.18971506727E+02  0.46760089689E+02  0.00000000000E+00 0. -1.
</event>
<event>
 4    1  0.3767413E+003  0.2441154E+02  0.7546771E-02  0.1475495E+00
          2   -1    0    0  502    0  0.00000000000E+00  0.00000000000E+00  0.80779822709E+00  0.80779822709E+00  0.00000000000E+00 0.  1.
          1   -1    0    0  501    0 -0.00000000000E+00 -0.00000000000E+00 -0.11737164225E+04  0.11737164225E+04  0.00000000000E+00 0.  1.
          2    1    1    2  501    0  0.24330183316E+02 -0.19912989529E+01 -0.22852650494E+03  0.22982664456E+03  0.00000000000E+00 0.  1.
          1    1    1    2  502    0 -0.24330183316E+02  0.19912989529E+01 -0.94438211936E+03  0.94469757619E+03  0.00000000000E+00 0.  1.
</event>
<event>
 4    1  0.3767413E+003  0.2482850E+02  0.7546771E-02  0.1470731E+00
          2   -1    0    0  502    0  0.00000000000E+00  0.00000000000E+00  0.34609605808E+02  0.34609605808E+02  0.00000000000E+00 0. -1.
          1   -1    0    0  501    0 -0.00000000000E+00 -0.00000000000E+00 -0.23936964010E+02  0.23936964010E+02  0.00000000000E+00 0. -1.
          2    1    1    2  501    0  0.47294403372E+00  0.24823979668E+02 -0.94718582809E+01  0.26573854480E+02  0.00000000000E+00 0. -1.
          1    1    1    2  502    0 -0.47294403372E+00 -0.24823979668E+02  0.20144500080E+02  0.31972715338E+02  0.00000000000E+00 0. -1.
</event>
<event>
 4    1  0.3767413E+003  0.3187125E+02  0.7546771E-02  0.1404003E+00
          2   -1    0    0  502    0  0.00000000000E+00  0.00000000000E+00  0.10774626694E+04  0.10774626694E+04  0.00000000000E+00 0.  1.
          1   -1    0    0  501    0 -0.00000000000E+00 -0.00000000000E+00 -0.80873668244E+01  0.80873668244E+01  0.00000000000E+00 0. -1.
          2    1    1    2  501    0  0.12788325145E+02  0.29193067981E+02  0.10448469317E+04  0.10453329073E+04  0.00000000000E+00 0.  1.
          1    1    1    2  502    0 -0.12788325145E+02 -0.29193067981E+02  0.24528370875E+02  0.40217128887E+02  0.00000000000E+00 0. -1.
</event>
<event>
 4    1  0.3767413E+003  0.2345637E+02  0.7546771E-02  0.1486846E+00
          2   -1    0    0  502    0  0.00000000000E+00  0.00000000000E+00  0.77361060796E+02  0.77361060796E+02  0.00000000000E+00 0. -1.
          1   -1    0    0  501    0 -0.00000000000E+00 -0.00000000000E+00 -0.90572118277E+01  0.90572118277E+01  0.00000000000E+00 0. -1.
          2    1    1    2  501    0 -0.46562612880E+01 -0.22989573390E+02  0.54175804043E+02  0.59035743390E+02  0.00000000000E+00 0. -1.
          1    1    1    2  502    0  0.46562612880E+01  0.22989573390E+02  0.14128044925E+02  0.27382529234E+02  0.00000000000E+00 0. -1.
</event>
<event>
 4    1  0.3767413E+003  0.2395219E+02  0.7546771E-02  0.1480876E+00
          2   -1    0    0  502    0  0.00000000000E+00  0.00000000000E+00  0.76056084636E+01  0.76056084636E+01  0.00000000000E+00 0. -1.
          1   -1    0    0  501    0 -0.00000000000E+00 -0.00000000000E+00 -0.24968648914E+03  0.24968648914E+03  0.00000000000E+00 0. -1.
          2    1    1    2  501    0 -0.12843540594E+02 -0.20217582531E+02 -0.13569569666E+02  0.27528901164E+02  0.00000000000E+00 0. -1.
          1    1    1    2  502    0  0.12843540594E+02  0.20217582531E+02 -0.22851131101E+03  0.22976319644E+03  0.00000000000E+00 0. -1.
</event>
<event>
 4    1  0.3767413E+003  0.2427992E+02  0.7546771E-02  0.1477023E+00
          2   -1    0    0  502    0  0.00000000000E+00  0.00000000000E+00  0.11838232566E+01  0.11838232566E+01  0.00000000000E+00 0.  1.
          1   -1    0    0  501    0 -0.00000000000E+00 -0.00000000000E+00 -0.13888486967E+04  0.13888486967E+04  0.00000000000E+00 0. -1.
          2    1    1    2  501    0 -0.21886727450E+02  0.10511209129E+02 -0.13719094949E+03  0.13932290184E+03  0.00000000000E+00 0.  1.
          1    1    1    2  502    0  0.21886727450E+02 -0.10511209129E+02 -0.12504739240E+04  0.12507096182E+04  0.00000000000E+00 0. -1.
</event>
<event>
 4    1  0.3767413E+003  0.2162477E+02  0.7546771E-02  0.1510529E+00
          2   -1    0    0  502    0  0.00000000000E+00  0.00000000000E+00  0.20536902533E+01  0.20536902533E+01  0.00000000000E+00 0. -1.
          1   -1    0    0  501    0 -0.00000000000E+00 -0.00000000000E+00 -0.60431240791E+03  0.60431240791E+03  0.00000000000E+00 0.  1.
          2    1    1    2  501    0 -0.14399430609E+02  0.16133418790E+02 -0.61786805785E+02  0.65461745874E+02  0.00000000000E+00 0. -1.
          1    1    1    2  502    0  0.14399430609E+02 -0.16133418790E+02 -0.54047191188E+03  0.54090435229E+03  0.00000000000E+00 0.  1.
</event>
<event>
 4    1  0.3767413E+003  0.2961272E+02  0.7546771E-02  0.1422992E+00
          2   -1    0    0  502    0  0.00000000000E+00  0.00000000000E+00  0.50239782678E+03  0.50239782678E+03  0.00000000000E+00 0. -1.
          1   -1    0    0  501    0 -0.00000000000E+00 -0.00000000000E+00 -0.39610716116E+02  0.39610716116E+02  0.00000000000E+00 0.  1.
          2    1    1    2  501    0  0.21646691493E+02 -0.20207277377E+02  0.49635962347E+03  0.49724218357E+03  0.00000000000E+00 0. -1.
          1    1    1    2  502    0 -0.21646691493E+02  0.20207277377E+02 -0.33572512803E+02  0.44766359328E+02  0.00000000000E+00 0.  1.
</event>
<event>
 4    1  0.3767413E+003  0.2078162E+02  0.7546771E-02  0.1522406E+00
          2   -1    0    0  502    0  0.00000000000E+00  0.00000000000E+00  0.10316895742E+04  0.10316895742E+04  0.00000000000E+00 0.  1.
          1   -1    0    0  501    0 -0.00000000000E+00 -0.00000000000E+00 -0.11904091834E+01  0.11904091834E+01  0.00000000000E+00 0. -1.
          2    1    1    2  501    0  0.25226073878E+01  0.20627946776E+02  0.93108726709E+03  0.93131915833E+03  0.00000000000E+00 0.  1.
          1    1    1    2  502    0 -0.25226073878E+01 -0.20627946776E+02  0.99411897961E+02  0.10156082509E+03  0.00000000000E+00 0. -1.
</event>
<event>
 4    1  0.3767413E+003  0.2293826E+02  0.7546771E-02  0.1493275E+00
          2   -1    0    0  502    0  0.00000000000E+00  0.00000000000E+00  0.19486688074E+01  0.19486688074E+01  0.00000000000E+00 0. -1.
          1   -1    0    0  501    0 -0.00000000000E+00 -0.00000000000E+00 -0.27322288872E+03  0.27322288872E+03  0.00000000000E+00 0. -1.
          2    1    1    2  501    0  0.15998267784E+02 -0.16438343702E+02 -0.12072166615E+03  0.12288158687E+03  0.00000000000E+00 0. -1.
          1    1    1    2  502    0 -0.15998267784E+02  0.16438343702E+02 -0.15055255376E+03  0.15228997065E+03  0.00000000000E+00 0. -1.
</event>
<event>
 4    1  0.3767413E+003  0.2240209E+02  0.7546771E-02  0.1500146E+00
          2   -1    0    0  502    0  0.00000000000E+00  0.00000000000E+00  0.12448895324E+03  0.12448895324E+03  0.00000000000E+00 0.  1.
          1   -1    0    0  501    0 -0.00000000000E+00 -0.00000000000E+00 -0.11434756167E+02  0.11434756167E+02  0.00000000000E+00 0.  1.
          2    1    1    2  501    0 -0.21425676532E+02  0.65417292460E+01  0.11121215502E+03  0.11344601034E+03  0.00000000000E+00 0.  1.
          1    1    1    2  502    0  0.21425676532E+02 -0.65417292460E+01  0.18420420449E+01  0.22477699066E+02  0.00000000000E+00 0.  1.
</event>
<event>
 4    1  0.3767413E+003  0.2850629E+02  0.7546771E-02  0.1433037E+00
          2   -1    0    0  502    0  0.00000000000E+00  0.00000000000E+00  0.36232439018E+03  0.36232439018E+03  0.00000000000E+00 0. -1.
          1   -1    0    0  501    0 -0.00000000000E+00 -0.00000000000E+00 -0.34595102310E+03  0.34595102310E+03  0.00000000000E+00 0.  1.
          2    1    1    2  501    0  0.33513752224E+01 -0.28308598109E+02  0.36117460447E+03  0.36229781032E+03  0.00000000000E+00 0. -1.
          1    1    1    2  502    0 -0.33513752224E+01  0.28308598109E+02 -0.34480123740E+03  0.34597760296E+03  0.00000000000E+00 0.  1.
</event>
<event>
 4    1  0.3767413E+003  0.2270598E+02  0.7546771E-02  0.1496224E+00
          2   -1    0    0  502    0  0.00000000000E+00  0.00000000000E+00  0.69163444023E+01  0.69163444023E+01  0.00000000000E+00 0. -1.
          1   -1    0    0  501    0 -0.00000000000E+00 -0.00000000000E+00 -0.75799623031E+02  0.75799623031E+02  0.00000000000E+00 0. -1.
          2    1    1    2  501    0  0.14631542471E+02  0.17363162772E+02 -0.29115428217E+02  0.36922481184E+02  0.00000000000E+00 0. -1.
          1    1    1    2  502    0 -0.14631542471E+02 -0.17363162772E+02 -0.39767850412E+02  0.45793486250E+02  0.00000000000E+00 0. -1.
</event>
<event>
 4    1  0.3767413E+003  0.2268154E+02  0.7546771E-02  0.1496536E+00
          2   -1    0    0  502    0  0.00000000000E+00  0.00000000000E+00  0.44218679059E+02  0.44218679059E+02  0.00000000000E+00 0. -1.
          1   -1    0    0  501    0 -0.00000000000E+00 -0.00000000000E+00 -0.61679934339E+03  0.61679934339E+03  0.00000000000E+00 0.  1.
          2    1    1    2  501    0 -0.22594660549E+02 -0.19832919697E+01  0.41086755134E+02  0.46931584033E+02  0.00000000000E+00 0. -1.
          1    1    1    2  502    0  0.22594660549E+02  0.19832919697E+01 -0.61366741947E+03  0.61408643842E+03  0.00000000000E+00 0.  1.
</event>
<event>
 4    1  0.3767413E+003  0.2139492E+02  0.7546771E-02  0.1513700E+00
          2   -1    0    0  502    0  0.00000000000E+00  0.00000000000E+00  0.14222931658E+03  0.14222931658E+03  0.00000000000E+00 0. -1.
          1   -1    0    0  501    0 -0.00000000000E+00 -0.00000000000E+00 -0.60838774302E+01  0.60838774302E+01  0.00000000000E+00 0. -1.
          2    1    1    2  501    0  0.19320261644E+02  0.91907705012E+01  0.11896622378E+03  0.12087474994E+03  0.00000000000E+00 0. -1.
          1    1    1    2  502    0 -0.19320261644E+02 -0.91907705012E+01  0.17179215375E+02  0.27438444076E+02  0.00000000000E+00 0. -1.
</event>
<event>
 4    1  0.3767413E+003  0.2677529E+02  0.7546771E-02  0.1449879E+00
          2   -1    0    0  502    0  0.00000000000E+00  0.00000000000E+00  0.58177241647E+03  0.58177241647E+03  0.00000000000E+00 0. -1.
          1   -1    0    0  501    0 -0.00000000000E+00 -0.00000000000E+00 -0.16815040517E+01  0.16815040517E+01  0.00000000000E+00 0. -1.
          2    1    1    2  501    0 -0.97972496102E+00  0.26757343989E+02  0.13926266031E+03  0.14181327115E+03  0.00000000000E+00 0. -1.
          1    1    1    2  502    0  0.97972496102E+00 -0.26757343989E+02  0.44082825211E+03  0.44164064937E+03  0.00000000000E+00 0. -1.
</event>
<event>
 4    1  0.3767413E+003  0.3258737E+02  0.7546771E-02  0.1398367E+00
          2   -1    0    0  502    0  0.00000000000E+00  0.00000000000E+00  0.88225646118E+02  0.88225646118E+02  0.00000000000E+00 0. -1.
          1   -1    0    0  501    0 -0.00000000000E+00 -0.00000000000E+00 -0.26611634655E+02  0.26611634655E+02  0.00000000000E+00 0.  1.
          2    1    1    2  501    0  0.26127918305E+02  0.19474813015E+02  0.73300455139E+02  0.80217785936E+02  0.00000000000E+00 0. -1.
          1    1    1    2  502    0 -0.26127918305E+02 -0.19474813015E+02 -0.11686443676E+02  0.34619494836E+02  0.00000000000E+00 0.  1.
</event>
<event>
 4    1  0.3767413E+003  0.6658934E+02  0.7546771E-02  0.1238951E+00
          2   -1    0    0  502    0  0.00000000000E+00  0.00000000000E+00  0.28764926281E+03  0.28764926281E+03  0.00000000000E+00 0.  1.
          1   -1    0    0  501    0 -0.00000000000E+00 -0.00000000000E+00 -0.15462335691E+02  0.15462335691E+02  0.00000000000E+00 0.  1.
          2    1    1    2  501    0 -0.27868013712E+02 -0.60477352033E+02  0.12771501356E+03  0.14403215261E+03  0.00000000000E+00 0.  1.
          1    1    1    2  502    0  0.27868013712E+02  0.60477352033E+02  0.14447191355E+03  0.15907944588E+03  0.00000000000E+00 0.  1.
</event>
<event>
 4    1  0.3767413E+003  0.2243291E+02  0.7546771E-02  0.1499745E+00
          2   -1    0    0  502    0  0.00000000000E+00  0.00000000000E+00  0.61340694600E+02  0.61340694600E+02  0.00000000000E+00 0.  1.
          1   -1    0    0  501    0 -0.00000000000E+00 -0.00000000000E+00 -0.12155851053E+02  0.12155851053E+02  0.00000000000E+00 0.  1.
          2    1    1    2  501    0 -0.79792195148E+01  0.20965861964E+02  0.45545502531E+02  0.50770346786E+02  0.00000000000E+00 0.  1.
          1    1    1    2  502    0  0.79792195148E+01 -0.20965861964E+02  0.36393410157E+01  0.22726198868E+02  0.00000000000E+00 0.  1.
</event>
<event>
 4    1  0.3767413E+003  0.2062532E+02  0.7546771E-02  0.1524682E+00
          2   -1    0    0  502    0  0.00000000000E+00  0.00000000000E+00  0.84009303517E+03  0.84009303517E+03  0.00000000000E+00 0.  1.
          1   -1    0    0  501    0 -0.00000000000E+00 -0.00000000000E+00 -0.44048271074E+03  0.44048271074E+03  0.00000000000E+00 0. -1.
          2    1    1    2  501    0 -0.20604043102E+02 -0.93652219217E+00  0.83972489338E+03  0.83997815461E+03  0.00000000000E+00 0.  1.
          1    1    1    2  502    0  0.20604043102E+02  0.93652219217E+00 -0.44011456894E+03  0.44059759130E+03  0.00000000000E+00 0. -1.
</event>
<event>
 4    1  0.3767413E+003  0.2194626E+02  0.7546771E-02  0.1506172E+00
          2   -1    0    0  502    0  0.00000000000E+00  0.00000000000E+00  0.10344581462E+03  0.10344581462E+03  0.00000000000E+00 0. -1.
          1   -1    0    0  501    0 -0.00000000000E+00 -0.00000000000E+00 -0.22425338537E+02  0.22425338537E+02  0.00000000000E+00 0.  1.
          2    1    1    2  501    0  0.21934175952E+02 -0.72808740467E+00  0.96532803789E+02  0.98996062514E+02  0.00000000000E+00 0. -1.
          1    1    1    2  502    0 -0.21934175952E+02  0.72808740467E+00 -0.15512327709E+02  0.26875090640E+02  0.00000000000E+00 0.  1.
</event>
<event>
 4    1  0.3767413E+003  0.2462539E+02  0.7546771E-02  0.1473038E+00
          2   -1    0    0  502    0  0.00000000000E+00  0.00000000000E+00  0.13716343254E+02  0.13716343254E+02  0.00000000000E+00 0.  1.
          1   -1    0    0  501    0 -0.00000000000E+00 -0.00000000000E+00 -0.35943014000E+03  0.35943014000E+03  0.00000000000E+00 0. -1.
          2    1    1    2  501    0  0.12944386478E+02 -0.20948815099E+02  0.18654928312E+01  0.24695952276E+02  0.00000000000E+00 0.  1.
          1    1    1    2  502    0 -0.12944386478E+02  0.20948815099E+02 -0.34757928958E+03  0.34845053098E+03  0.00000000000E+00 0. -1.
</event>
<event>
 4    1  0.3767413E+003  0.6377988E+02  0.7546771E-02  0.1247504E+00
          2   -1    0    0  502    0  0.00000000000E+00  0.00000000000E+00  0.14353760777E+03  0.14353760777E+03  0.00000000000E+00 0. -1.
          1   -1    0    0  501    0 -0.00000000000E+00 -0.00000000000E+00 -0.30135556070E+02  0.30135556070E+02  0.00000000000E+00 0. -1.
          2    1    1    2  501    0  0.43910696920E+02  0.46257108166E+02  0.35505159144E+02  0.72996477215E+02  0.00000000000E+00 0. -1.
          1    1    1    2  502    0 -0.43910696920E+02 -0.46257108166E+02  0.77896892551E+02  0.10067668662E+03  0.00000000000E+00 0. -1.
</event>
<event>
 4    1  0.3767413E+003  0.2176570E+02  0.7546771E-02  0.1508607E+00
          2   -1    0    0  502    0  0.00000000000E+00  0.00000000000E+00  0.41591744663E+02  0.41591744663E+02  0.00000000000E+00 0.  1.
          1   -1    0    0  501    0 -0.00000000000E+00 -0.00000000000E+00 -0.34145959657E+02  0.34145959657E+02  0.00000000000E+00 0.  1.
          2    1    1    2  501    0 -0.42407837072E+00  0.21761568041E+02  0.34636981453E+02  0.40908020854E+02  0.00000000000E+00 0.  1.
          1    1    1    2  502    0  0.42407837072E+00 -0.21761568041E+02 -0.27191196447E+02  0.34829683465E+02  0.00000000000E+00 0.  1.
</event>
<event>
 4    1  0.3767413E+003  0.2257785E+02  0.7546771E-02  0.1497868E+00
          2   -1    0    0  502    0  0.00000000000E+00  0.00000000000E+00  0.11852013068E+04  0.11852013068E+04  0.00000000000E+00 0. -1.
          1   -1    0    0  501    0 -0.00000000000E+00 -0.00000000000E+00 -0.48419233246E+01  0.48419233246E+01  0.00000000000E+00 0. -1.
          2    1    1    2  501    0  0.21533862184E+02 -0.67861817157E+01  0.11581591929E+04  0.11583792452E+04  0.00000000000E+00 0. -1.
          1    1    1    2  502    0 -0.21533862184E+02  0.67861817157E+01  0.22200190555E+02  0.31663984960E+02  0.00000000000E+00 0. -1.
</event>
<event>
 4    1  0.3767413E+003  0.3542069E+02  0.7546771E-02  0.1377630E+00
          2   -1    0    0  502    0  0.00000000000E+00  0.00000000000E+00  0.26576769692E+03  0.26576769692E+03  0.00000000000E+00 0.  1.
          1   -1    0    0  501    0 -0.00000000000E+00 -0.00000000000E+00 -0.18144649644E+03  0.18144649644E+03  0.00000000000E+00 0. -1.
          2    1    1    2  501    0  0.30926672069E+02  0.17267481209E+02  0.26283969409E+03  0.26521562877E+03  0.00000000000E+00 0.  1.
          1    1    1    2  502    0 -0.30926672069E+02 -0.17267481209E+02 -0.17851849361E+03  0.18199856460E+03  0.00000000000E+00 0. -1.
</event>
<event>
 4    1  0.3767413E+003  0.2071105E+02  0.7546771E-02  0.1523431E+00
          2   -1    0    0  502    0  0.00000000000E+00  0.00000000000E+00  0.11307505505E+01  0.11307505505E+01  0.00000000000E+00 0.  1.
          1   -1    0    0  501    0 -0.00000000000E+00 -0.00000000000E+00 -0.95062872920E+03  0.95062872920E+03  0.00000000000E+00 0. -1.
          2    1    1    2  501    0 -0.18227883158E+02 -0.98332073926E+01 -0.10584221937E+03  0.10784953914E+03  0.00000000000E+00 0.  1.
          1    1    1    2  502    0  0.18227883158E+02  0.98332073926E+01 -0.84365575928E+03  0.84390994061E+03  0.00000000000E+00 0. -1.
</event>
<event>
 4    1  0.3767413E+003  0.2218877E+02  0.7546771E-02  0.1502944E+00
          2   -1    0    0  502    0  0.00000000000E+00  0.00000000000E+00  0.97281952071E+03  0.97281952071E+03  0.00000000000E+00 0. -1.
          1   -1    0    0  501    0 -0.00000000000E+00 -0.00000000000E+00 -0.13696304495E+01  0.13696304495E+01  0.00000000000E+00 0.  1.
          2    1    1    2  501    0 -0.22120031623E+00  0.22187664969E+02  0.87249343062E+03  0.87277553121E+03  0.00000000000E+00 0. -1.
          1    1    1    2  502    0  0.22120031623E+00 -0.22187664969E+02  0.98956459639E+02  0.10141361995E+03  0.00000000000E+00 0.  1.
</event>
<event>
 4    1  0.3767413E+003  0.2382038E+02  0.7546771E-02  0.1482446E+00
          2   -1    0    0  502    0  0.00000000000E+00  0.00000000000E+00  0.10454076155E+02  0.10454076155E+02  0.00000000000E+00 0. -1.
          1   -1    0    0  501    0 -0.00000000000E+00 -0.00000000000E+00 -0.10444181150E+03  0.10444181150E+03  0.00000000000E+00 0. -1.
          2    1    1    2  501    0 -0.13308284517E+02 -0.19756016128E+02 -0.71795689757E+01  0.24878842833E+02  0.00000000000E+00 0. -1.
          1    1    1    2  502    0  0.13308284517E+02  0.19756016128E+02 -0.86808166366E+02  0.90017044818E+02  0.00000000000E+00 0. -1.
</event>
<event>
 4    1  0.3767413E+003  0.2003405E+02  0.7546771E-02  0.1533516E+00
          2   -1    0    0  502    0  0.00000000000E+00  0.00000000000E+00  0.13309174428E+04  0.13309174428E+04  0.00000000000E+00 0.  1.
          1   -1    0    0  501    0 -0.00000000000E+00 -0.00000000000E+00 -0.87331838495E+02  0.87331838495E+02  0.00000000000E+00 0.  1.
          2    1    1    2  501    0 -0.19294328272E+02 -0.53936948152E+01  0.13296920321E+04  0.13298429469E+04  0.00000000000E+00 0.  1.
          1    1    1    2  502    0  0.19294328272E+02  0.53936948152E+01 -0.86106427840E+02  0.88406334403E+02  0.00000000000E+00 0.  1.
</event>
<event>
 4    1  0.3767413E+003  0.5138261E+02  0.7546771E-02  0.1292287E+00
          2   -1    0    0  502    0  0.00000000000E+00  0.00000000000E+00  0.89518576746E+03  0.89518576746E+03  0.00000000000E+00 0.  1.
          1   -1    0    0  501    0 -0.00000000000E+00 -0.00000000000E+00 -0.34806578513E+02  0.34806578513E+02  0.00000000000E+00 0. -1.
          2    1    1    2  501    0 -0.47415795559E+02  0.19796854689E+02  0.87504926349E+03  0.87655655074E+03  0.00000000000E+00 0.  1.
          1    1    1    2  502    0  0.47415795559E+02 -0.19796854689E+02 -0.14670074544E+02  0.53435795224E+02  0.00000000000E+00 0. -1.
</event>
<event>
 4    1  0.3767413E+003  0.3342484E+02  0.7546771E-02  0.1391988E+00
          2   -1    0    0  502    0  0.00000000000E+00  0.00000000000E+00  0.13282533957E+04  0.13282533957E+04  0.00000000000E+00 0. -1.
          1   -1    0    0  501    0 -0.00000000000E+00 -0.00000000000E+00 -0.31141523644E+01  0.31141523644E+01  0.00000000000E+00 0. -1.
          2    1    1    2  501    0  0.24262452530E+02  0.22990289010E+02  0.12312927480E+04  0.12317463421E+04  0.00000000000E+00 0. -1.
          1    1    1    2  502    0 -0.24262452530E+02 -0.22990289010E+02  0.93846495320E+02  0.99621205952E+02  0.00000000000E+00 0. -1.
</event>
<event>
 4    1  0.3767413E+003  0.3745798E+02  0.7546771E-02  0.1364062E+00
          2   -1    0    0  502    0  0.00000000000E+00  0.00000000000E+00  0.29163056148E+02  0.29163056148E+02  0.00000000000E+00 0. -1.
          1   -1    0    0  501    0 -0.00000000000E+00 -0.00000000000E+00 -0.48437411716E+02  0.48437411716E+02  0.00000000000E+00 0. -1.
          2    1    1    2  501    0 -0.35458560514E+02  0.12074398991E+02 -0.64582185365E+01  0.38010646027E+02  0.00000000000E+00 0. -1.
          1    1    1    2  502    0  0.35458560514E+02 -0.12074398991E+02 -0.12816137031E+02  0.39589821837E+02  0.00000000000E+00 0. -1.
</event>
<event>
 4    1  0.3767413E+003  0.4250555E+02  0.7546771E-02  0.1334397E+00
          2   -1    0    0  502    0  0.00000000000E+00  0.00000000000E+00  0.11183338136E+04  0.11183338136E+04  0.00000000000E+00 0.  1.
          1   -1    0    0  501    0 -0.00000000000E+00 -0.00000000000E+00 -0.43383797368E+01  0.43383797368E+01  0.00000000000E+00 0. -1.
          2    1    1    2  501    0 -0.41336898046E+02  0.98986139885E+01  0.10017002561E+04  0.10026016780E+04  0.00000000000E+00 0.  1.
          1    1    1    2  502    0  0.41336898046E+02 -0.98986139885E+01  0.11229517774E+03  0.12007051529E+03  0.00000000000E+00 0. -1.
</event>
<event>
 4    1  0.3767413E+003  0.2995485E+02  0.7546771E-02  0.1419989E+00
          2   -1    0    0  502    0  0.00000000000E+00  0.00000000000E+00  0.49625557179E+03  0.49625557179E+03  0.00000000000E+00 0. -1.
          1   -1    0    0  501    0 -0.00000000000E+00 -0.00000000000E+00 -0.35317638882E+01  0.35317638882E+01  0.00000000000E+00 0.  1.
          2    1    1    2  501    0 -0.29935302723E+02  0.10818803542E+01  0.42093703743E+03  0.42200151931E+03  0.00000000000E+00 0. -1.
          1    1    1    2  502    0  0.29935302723E+02 -0.10818803542E+01  0.71786770464E+02  0.77785816367E+02  0.00000000000E+00 0.  1.
</event>
<event>
 4    1  0.3767413E+003  0.3138444E+02  0.7546771E-02  0.1407935E+00
          2   -1    0    0  502    0  0.00000000000E+00  0.00000000000E+00  0.26119331258E+03  0.26119331258E+03  0.00000000000E+00 0. -1.
          1   -1    0    0  501    0 -0.00000000000E+00 -0.00000000000E+00 -0.26582396112E+02  0.26582396112E+02  0.00000000000E+00 0. -1.
          2    1    1    2  501    0  0.30845359309E+02 -0.57919504144E+01  0.25059687135E+03  0.25255449869E+03  0.00000000000E+00 0. -1.
          1    1    1    2  502    0 -0.30845359309E+02  0.57919504144E+01 -0.15985954880E+02  0.35221210000E+02  0.00000000000E+00 0. -1.
</event>
<event>
 4    1  0.3767413E+003  0.2795192E+02  0.7546771E-02  0.1438273E+00
          2   -1    0    0  502    0  0.00000000000E+00  0.00000000000E+00  0.13955310086E+03  0.13955310086E+03  0.00000000000E+00 0. -1.
          1   -1    0    0  501    0 -0.00000000000E+00 -0.00000000000E+00 -0.22275297528E+03  0.22275297528E+03  0.00000000000E+00 0. -1.
          2    1    1    2  501    0  0.18291723240E+02  0.21135814130E+02  0.13726207049E+03  0.14007921249E+03  0.00000000000E+00 0. -1.
          1    1    1    2  502    0 -0.18291723240E+02 -0.21135814130E+02 -0.22046194490E+03  0.22222686365E+03  0.00000000000E+00 0. -1.
</event>
<event>
 4    1  0.3767413E+003  0.5046733E+02  0.7546771E-02  0.1296159E+00
          2   -1    0    0  502    0  0.00000000000E+00  0.00000000000E+00  0.23807865205E+04  0.23807865205E+04  0.00000000000E+00 0.  1.
          1   -1    0    0  501    0 -0.00000000000E+00 -0.00000000000E+00 -0.64381412784E+01  0.64381412784E+01  0.00000000000E+00 0. -1.
          2    1    1    2  501    0 -0.25330595298E+02 -0.43649885109E+02  0.22771160691E+04  0.22776752498E+04  0.00000000000E+00 0.  1.
          1    1    1    2  502    0  0.25330595298E+02  0.43649885109E+02  0.97232310170E+02  0.10954941200E+03  0.00000000000E+00 0. -1.
</event>
<event>
 4    1  0.3767413E+003  0.4561554E+02  0.7546771E-02  0.1318390E+00
          2   -1    0    0  502    0  0.00000000000E+00  0.00000000000E+00  0.25184764971E+03  0.25184764971E+03  0.00000000000E+00 0. -1.
          1   -1    0    0  501    0 -0.00000000000E+00 -0.00000000000E+00 -0.67731255987E+02  0.67731255987E+02  0.00000000000E+00 0.  1.
          2    1    1    2  501    0  0.42698836526E+02  0.16049525761E+02  0.24178502155E+03  0.24605034965E+03  0.00000000000E+00 0. -1.
          1    1    1    2  502    0 -0.42698836526E+02 -0.16049525761E+02 -0.57668627830E+02  0.73528556042E+02  0.00000000000E+00 0.  1.
</event>
<event>
 4    1  0.3767413E+003  0.2268960E+02  0.7546771E-02  0.1496433E+00
          2   -1    0    0  502    0  0.00000000000E+00  0.00000000000E+00  0.10943546344E+03  0.10943546344E+03  0.00000000000E+00 0.  1.
          1   -1    0    0  501    0 -0.00000000000E+00 -0.00000000000E+00 -0.31464766054E+02  0.31464766054E+02  0.00000000000E+00 0.  1.
          2    1    1    2  501    0  0.19224719031E+02  0.12051067226E+02  0.10395585166E+03  0.10640318199E+03  0.00000000000E+00 0.  1.
          1    1    1    2  502    0 -0.19224719031E+02 -0.12051067226E+02 -0.25985154280E+02  0.34497047498E+02  0.00000000000E+00 0.  1.
</event>
<event>
 4    1  0.3767413E+003  0.2331814E+02  0.7546771E-02  0.1488541E+00
          2   -1    0    0  502    0  0.00000000000E+00  0.00000000000E+00  0.85798381459E+03  0.85798381459E+03  0.00000000000E+00 0. -1.
          1   -1    0    0  501    0 -0.00000000000E+00 -0.00000000000E+00 -0.12213757999E+02  0.12213757999E+02  0.00000000000E+00 0.  1.
          2    1    1    2  501    0 -0.23216297958E+02 -0.21769180391E+01  0.84654545921E+03  0.84686654792E+03  0.00000000000E+00 0. -1.
          1    1    1    2  502    0  0.23216297958E+02  0.21769180391E+01 -0.77540262425E+00  0.23331024672E+02  0.00000000000E+00 0.  1.
</event>
<event>
 4    1  0.3767413E+003  0.2111550E+02  0.7546771E-02  0.1517622E+00
          2   -1    0    0  502    0  0.00000000000E+00  0.00000000000E+00  0.29921723206E+02  0.29921723206E+02  0.00000000000E+00 0. -1.
          1   -1    0    0  501    0 -0.00000000000E+00 -0.00000000000E+00 -0.17325855613E+03  0.17325855613E+03  0.00000000000E+00 0. -1.
          2    1    1    2  501    0 -0.16883911275E+02  0.12680616245E+02  0.25454914039E+02  0.33072906389E+02  0.00000000000E+00 0. -1.
          1    1    1    2  502    0  0.16883911275E+02 -0.12680616245E+02 -0.16879174696E+03  0.17010737295E+03  0.00000000000E+00 0. -1.
</event>
<event>
 4    1  0.3767413E+003  0.3330063E+02  0.7546771E-02  0.1392921E+00
          2   -1    0    0  502    0  0.00000000000E+00  0.00000000000E+00  0.84075691811E+03  0.84075691811E+03  0.00000000000E+00 0. -1.
          1   -1    0    0  501    0 -0.00000000000E+00 -0.00000000000E+00 -0.14469008296E+02  0.14469008296E+02  0.00000000000E+00 0.  1.
          2    1    1    2  501    0 -0.28102901450E+02 -0.17865011546E+02  0.82080106071E+03  0.82147630091E+03  0.00000000000E+00 0. -1.
          1    1    1    2  502    0  0.28102901450E+02  0.17865011546E+02  0.54868491031E+01  0.33749625487E+02  0.00000000000E+00 0.  1.
</event>
<event>
 4    1  0.3767413E+003  0.2003848E+02  0.7546771E-02  0.1533448E+00
          2   -1    0    0  502    0  0.00000000000E+00  0.00000000000E+00  0.41741614717E+03  0.41741614717E+03  0.00000000000E+00 0. -1.
          1   -1    0    0  501    0 -0.00000000000E+00 -0.00000000000E+00 -0.11745459545E+03  0.11745459545E+03  0.00000000000E+00 0. -1.
          2    1    1    2  501    0  0.10863644037E+02 -0.16838111241E+02  0.41631873140E+03  0.41680070402E+03  0.00000000000E+00 0. -1.
          1    1    1    2  502    0 -0.10863644037E+02  0.16838111241E+02 -0.11635717969E+03  0.11807003861E+03  0.00000000000E+00 0. -1.
</event>
<event>
 4    1  0.3767413E+003  0.2739226E+02  0.7546771E-02  0.1443707E+00
          2   -1    0    0  502    0  0.00000000000E+00  0.00000000000E+00  0.48077329950E+01  0.48077329950E+01  0.00000000000E+00 0.  1.
          1   -1    0    0  501    0 -0.00000000000E+00 -0.00000000000E+00 -0.42407993308E+03  0.42407993308E+03  0.00000000000E+00 0.  1.
          2    1    1    2  501    0 -0.24620336198E+02 -0.12007292949E+02 -0.39158901672E+02  0.47788655753E+02  0.00000000000E+00 0.  1.
          1    1    1    2  502    0  0.24620336198E+02  0.12007292949E+02 -0.38011329841E+03  0.38109901032E+03  0.00000000000E+00 0.  1.
</event>
<event>
 4    1  0.3767413E+003  0.5453158E+02  0.7546771E-02  0.1279636E+00
          2   -1    0    0  502    0  0.00000000000E+00  0.00000000000E+00  0.14911169258E+04  0.14911169258E+04  0.00000000000E+00 0.  1.
          1   -1    0    0  501    0 -0.00000000000E+00 -0.00000000000E+00 -0.28238024987E+01  0.28238024987E+01  0.00000000000E+00 0.  1.
          2    1    1    2  501    0  0.87135979156E+01 -0.53830908945E+02  0.11490041175E+04  0.11502974205E+04  0.00000000000E+00 0.  1.
          1    1    1    2  502    0 -0.87135979156E+01  0.53830908945E+02  0.33928900581E+03  0.34364330782E+03  0.00000000000E+00 0.  1.
</event>
<event>
 4    1  0.3767413E+003  0.2053664E+02  0.7546771E-02  0.1525984E+00
          2   -1    0    0  502    0  0.00000000000E+00  0.00000000000E+00  0.46142527559E+03  0.46142527559E+03  0.00000000000E+00 0.  1.
          1   -1    0    0  501    0 -0.00000000000E+00 -0.00000000000E+00 -0.98299351766E+01  0.98299351766E+01  0.00000000000E+00 0. -1.
          2    1    1    2  501    0  0.45667076063E+01  0.20022460480E+02  0.45020328089E+03  0.45067144115E+03  0.00000000000E+00 0.  1.
          1    1    1    2  502    0 -0.45667076063E+01 -0.20022460480E+02  0.13920595244E+01  0.20583769620E+02  0.00000000000E+00 0. -1.
</event>
<event>
 4    1  0.3767413E+003  0.2348126E+02  0.7546771E-02  0.1486542E+00
          2   -1    0    0  502    0  0.00000000000E+00  0.00000000000E+00  0.93439042388E+03  0.93439042388E+03  0.00000000000E+00 0.  1.
          1   -1    0    0  501    0 -0.00000000000E+00 -0.00000000000E+00 -0.23193385566E+01  0.23193385566E+01  0.00000000000E+00 0. -1.
          2    1    1    2  501    0  0.21655702327E+02  0.90774486449E+01  0.87044597486E+03  0.87076263394E+03  0.00000000000E+00 0.  1.
          1    1    1    2  502    0 -0.21655702327E+02 -0.90774486449E+01  0.61625110460E+02  0.65947128492E+02  0.00000000000E+00 0. -1.
</event>
<event>
 4    1  0.3767413E+003  0.3003208E+02  0.7546771E-02  0.1419318E+00
          2   -1    0    0  502    0  0.00000000000E+00  0.00000000000E+00  0.42180602045E+02  0.42180602045E+02  0.00000000000E+00 0.  1.
          1   -1    0    0  501    0 -0.00000000000E+00 -0.00000000000E+00 -0.32724600482E+03  0.32724600482E+03  0.00000000000E+00 0. -1.
          2    1    1    2  501    0  0.27596041824E+02 -0.11848400319E+02  0.36044017602E+02  0.46915853604E+02  0.00000000000E+00 0.  1.
          1    1    1    2  502    0 -0.27596041824E+02  0.11848400319E+02 -0.32110942037E+03  0.32251075326E+03  0.00000000000E+00 0. -1.
</event>
<event>
 4    1  0.3767413E+003  0.3353961E+02  0.7546771E-02  0.1391131E+00
          2   -1    0    0  502    0  0.00000000000E+00  0.00000000000E+00  0.22767029965E+04  0.22767029965E+04  0.00000000000E+00 0.  1.
          1   -1    0    0  501    0 -0.00000000000E+00 -0.00000000000E+00 -0.34155481399E+02  0.34155481399E+02  0.00000000000E+00 0.  1.
          2    1    1    2  501    0  0.30952135442E+02 -0.12917843285E+02  0.22683153181E+04  0.22685632650E+04  0.00000000000E+00 0.  1.
          1    1    1    2  502    0 -0.30952135442E+02  0.12917843285E+02 -0.25767802941E+02  0.42295212873E+02  0.00000000000E+00 0.  1.
</event>
<event>
 4    1  0.3767413E+003  0.2703498E+02  0.7546771E-02  0.1447257E+00
          2   -1    0    0  502    0  0.00000000000E+00  0.00000000000E+00  0.23196754719E+02  0.23196754719E+02  0.00000000000E+00 0. -1.
          1   -1    0    0  501    0 -0.00000000000E+00 -0.00000000000E+00 -0.63904086714E+02  0.63904086714E+02  0.00000000000E+00 0. -1.
          2    1    1    2  501    0 -0.95634571982E+01  0.25286966745E+02  0.10654228443E+02  0.29058612914E+02  0.00000000000E+00 0. -1.
          1    1    1    2  502    0  0.95634571982E+01 -0.25286966745E+02 -0.51361560438E+02  0.58042228519E+02  0.00000000000E+00 0. -1.
</event>
<event>
 4    1  0.3767413E+003  0.2273936E+02  0.7546771E-02  0.1495797E+00
          2   -1    0    0  502    0  0.00000000000E+00  0.00000000000E+00  0.41440023751E+03  0.41440023751E+03  0.00000000000E+00 0. -1.
          1   -1    0    0  501    0 -0.00000000000E+00 -0.00000000000E+00 -0.28150224516E+01  0.28150224516E+01  0.00000000000E+00 0. -1.
          2    1    1    2  501    0 -0.21756759783E+02  0.66122559546E+01  0.36144577179E+03  0.36216035740E+03  0.00000000000E+00 0. -1.
          1    1    1    2  502    0  0.21756759783E+02 -0.66122559546E+01  0.50139443264E+02  0.55054902560E+02  0.00000000000E+00 0. -1.
</event>
<event>
 4    1  0.3767413E+003  0.2319020E+02  0.7546771E-02  0.1490123E+00
          2   -1    0    0  502    0  0.00000000000E+00  0.00000000000E+00  0.13763081310E+04  0.13763081310E+04  0.00000000000E+00 0.  1.
          1   -1    0    0  501    0 -0.00000000000E+00 -0.00000000000E+00 -0.33380701151E+01  0.33380701151E+01  0.00000000000E+00 0. -1.
          2    1    1    2  501    0  0.10111950366E+02  0.20869452608E+02  0.13346775654E+04  0.13348790167E+04  0.00000000000E+00 0.  1.
          1    1    1    2  502    0 -0.10111950366E+02 -0.20869452608E+02  0.38292495534E+02  0.44767184484E+02  0.00000000000E+00 0. -1.
</event>
<event>
 4    1  0.3767413E+003  0.4288316E+02  0.7546771E-02  0.1332371E+00
          2   -1    0    0  502    0  0.00000000000E+00  0.00000000000E+00  0.47614840542E+02  0.47614840542E+02  0.00000000000E+00 0. -1.
          1   -1    0    0  501    0 -0.00000000000E+00 -0.00000000000E+00 -0.38406865762E+03  0.38406865762E+03  0.00000000000E+00 0. -1.
          2    1    1    2  501    0  0.10052816381E+02 -0.41688204364E+02  0.36474915120E+02  0.56297290639E+02  0.00000000000E+00 0. -1.
          1    1    1    2  502    0 -0.10052816381E+02  0.41688204364E+02 -0.37292873219E+03  0.37538620752E+03  0.00000000000E+00 0. -1.
</event>
<event>
 4    1  0.3767413E+003  0.2525468E+02  0.7546771E-02  0.1465974E+00
          2   -1    0    0  502    0  0.00000000000E+00  0.00000000000E+00  0.10665266267E+04  0.10665266267E+04  0.00000000000E+00 0.  1.
          1   -1    0    0  501    0 -0.00000000000E+00 -0.00000000000E+00 -0.46822904766E+01  0.46822904766E+01  0.00000000000E+00 0. -1.
          2    1    1    2  501    0 -0.15432612530E+02 -0.19990832571E+02  0.10311553783E+04  0.10314645961E+04  0.00000000000E+00 0.  1.
          1    1    1    2  502    0  0.15432612530E+02  0.19990832571E+02  0.30688957981E+02  0.39744321083E+02  0.00000000000E+00 0. -1.
</event>
<event>
 4    1  0.3767413E+003  0.3890653E+02  0.7546771E-02  0.1355015E+00
          2   -1    0    0  502    0  0.00000000000E+00  0.00000000000E+00  0.14980902152E+04  0.14980902152E+04  0.00000000000E+00 0. -1.
          1   -1    0    0  501    0 -0.00000000000E+00 -0.00000000000E+00 -0.39414496858E+01  0.39414496858E+01  0.00000000000E+00 0. -1.
          2    1    1    2  501    0 -0.32055298203E+02 -0.22049391406E+02  0.13947094298E+04  0.13952519885E+04  0.00000000000E+00 0. -1.
          1    1    1    2  502    0  0.32055298203E+02  0.22049391406E+02  0.99439335693E+02  0.10677967638E+03  0.00000000000E+00 0. -1.
</event>
<event>
 4    1  0.3767413E+003  0.2189214E+02  0.7546771E-02  0.1506899E+00
          2   -1    0    0  502    0  0.00000000000E+00  0.00000000000E+00  0.13185008509E+02  0.13185008509E+02  0.00000000000E+00 0. -1.
          1   -1    0    0  501    0 -0.00000000000E+00 -0.00000000000E+00 -0.11278715487E+03  0.11278715487E+03  0.00000000000E+00 0.  1.
          2    1    1    2  501    0 -0.39624865553E+01  0.21530546209E+02  0.20513480487E+01  0.21988036487E+02  0.00000000000E+00 0. -1.
          1    1    1    2  502    0  0.39624865553E+01 -0.21530546209E+02 -0.10165349441E+03  0.10398412690E+03  0.00000000000E+00 0.  1.
</event>
<event>
 4    1  0.3767413E+003  0.4634985E+02  0.7546771E-02  0.1314824E+00
          2   -1    0    0  502    0  0.00000000000E+00  0.00000000000E+00  0.44669571291E+02  0.44669571291E+02  0.00000000000E+00 0. -1.
          1   -1    0    0  501    0 -0.00000000000E+00 -0.00000000000E+00 -0.13420086473E+03  0.13420086473E+03  0.00000000000E+00 0. -1.
          2    1    1    2  501    0  0.34251224296E+02  0.31227585515E+02  0.26873678896E+02  0.53577076071E+02  0.00000000000E+00 0. -1.
          1    1    1    2  502    0 -0.34251224296E+02 -0.31227585515E+02 -0.11640497233E+03  0.12529335994E+03  0.00000000000E+00 0. -1.
</event>
<event>
 4    1  0.3767413E+003  0.2095992E+02  0.7546771E-02  0.1519838E+00
          2   -1    0    0  502    0  0.00000000000E+00  0.00000000000E+00  0.80419878166E+02  0.80419878166E+02  0.00000000000E+00 0. -1.
          1   -1    0    0  501    0 -0.00000000000E+00 -0.00000000000E+00 -0.33564166714E+03  0.33564166714E+03  0.00000000000E+00 0.  1.
          2    1    1    2  501    0  0.12259673748E+02 -0.17000552882E+02  0.78720008221E+02  0.81462617764E+02  0.00000000000E+00 0. -1.
          1    1    1    2  502    0 -0.12259673748E+02  0.17000552882E+02 -0.33394179719E+03  0.33459892754E+03  0.00000000000E+00 0.  1.
</event>
<event>
 4    1  0.3767413E+003  0.2965643E+02  0.7546771E-02  0.1422606E+00
          2   -1    0    0  502    0  0.00000000000E+00  0.00000000000E+00  0.10893915466E+03  0.10893915466E+03  0.00000000000E+00 0.  1.
          1   -1    0    0  501    0 -0.00000000000E+00 -0.00000000000E+00 -0.36633888298E+02  0.36633888298E+02  0.00000000000E+00 0.  1.
          2    1    1    2  501    0 -0.23493652287E+02 -0.18098393836E+02  0.10042032110E+03  0.10470790060E+03  0.00000000000E+00 0.  1.
          1    1    1    2  502    0  0.23493652287E+02  0.18098393836E+02 -0.28115054739E+02  0.40865142361E+02  0.00000000000E+00 0.  1.
</event>
<event>
 4    1  0.3767413E+003  0.2366735E+02  0.7546771E-02  0.1484284E+00
          2   -1    0    0  502    0  0.00000000000E+00  0.00000000000E+00  0.10221023065E+03  0.10221023065E+03  0.00000000000E+00 0.  1.
          1   -1    0    0  501    0 -0.00000000000E+00 -0.00000000000E+00 -0.14115555412E+03  0.14115555412E+03  0.00000000000E+00 0.  1.
          2    1    1    2  501    0 -0.11547789008E+02 -0.20658947589E+02  0.99824702292E+02  0.10259198182E+03  0.00000000000E+00 0.  1.
          1    1    1    2  502    0  0.11547789008E+02  0.20658947589E+02 -0.13877002577E+03  0.14077380295E+03  0.00000000000E+00 0.  1.
</event>
<event>
 4    1  0.3767413E+003  0.2737223E+02  0.7546771E-02  0.1443904E+00
          2   -1    0    0  502    0  0.00000000000E+00  0.00000000000E+00  0.83513871530E+01  0.83513871530E+01  0.00000000000E+00 0. -1.
          1   -1    0    0  501    0 -0.00000000000E+00 -0.00000000000E+00 -0.42255647362E+03  0.42255647362E+03  0.00000000000E+00 0.  1.
          2    1    1    2  501    0  0.15623367620E+02 -0.22475533567E+02 -0.15883479717E+02  0.31646866398E+02  0.00000000000E+00 0. -1.
          1    1    1    2  502    0 -0.15623367620E+02  0.22475533567E+02 -0.39832160675E+03  0.39926099437E+03  0.00000000000E+00 0.  1.
</event>
<event>
 4    1  0.3767413E+003  0.2286980E+02  0.7546771E-02  0.1494140E+00
          2   -1    0    0  502    0  0.00000000000E+00  0.00000000000E+00  0.22648664249E+01  0.22648664249E+01  0.00000000000E+00 0. -1.
          1   -1    0    0  501    0 -0.00000000000E+00 -0.00000000000E+00 -0.34820500068E+03  0.34820500068E+03  0.00000000000E+00 0. -1.
          2    1    1    2  501    0 -0.12790804152E+02 -0.18958454224E+02 -0.71273983295E+02  0.74853245435E+02  0.00000000000E+00 0. -1.
          1    1    1    2  502    0  0.12790804152E+02  0.18958454224E+02 -0.27466615096E+03  0.27561662167E+03  0.00000000000E+00 0. -1.
</event>
<event>
 4    1  0.3767413E+003  0.2036503E+02  0.7546771E-02  0.1528527E+00
          2   -1    0    0  502    0  0.00000000000E+00  0.00000000000E+00  0.12362287474E+03  0.12362287474E+03  0.00000000000E+00 0. -1.
          1   -1    0    0  501    0 -0.00000000000E+00 -0.00000000000E+00 -0.13697343898E+03  0.13697343898E+03  0.00000000000E+00 0. -1.
          2    1    1    2  501    0  0.14653598102E+02 -0.14142364216E+02  0.12201731248E+03  0.12370512902E+03  0.00000000000E+00 0. -1.
          1    1    1    2  502    0 -0.14653598102E+02  0.14142364216E+02 -0.13536787672E+03  0.13689118470E+03  0.00000000000E+00 0. -1.
</event>
<event>
 4    1  0.3767413E+003  0.2495176E+02  0.7546771E-02  0.1469344E+00
          2   -1    0    0  502    0  0.00000000000E+00  0.00000000000E+00  0.34367507885E+01  0.34367507885E+01  0.00000000000E+00 0.  1.
          1   -1    0    0  501    0 -0.00000000000E+00 -0.00000000000E+00 -0.71346733019E+03  0.71346733019E+03  0.00000000000E+00 0. -1.
          2    1    1    2  501    0  0.12499363797E+02 -0.21595283100E+02 -0.45397011821E+02  0.51802307186E+02  0.00000000000E+00 0.  1.
          1    1    1    2  502    0 -0.12499363797E+02  0.21595283100E+02 -0.66463356758E+03  0.66510177379E+03  0.00000000000E+00 0. -1.
</event>
<event>
 4    1  0.3767413E+003  0.2319077E+02  0.7546771E-02  0.1490116E+00
          2   -1    0    0  502    0  0.00000000000E+00  0.00000000000E+00  0.19742597399E+02  0.19742597399E+02  0.00000000000E+00 0. -1.
          1   -1    0    0  501    0 -0.00000000000E+00 -0.00000000000E+00 -0.12747318488E+04  0.12747318488E+04  0.00000000000E+00 0. -1.
          2    1    1    2  501    0  0.10362344995E+02 -0.20746893182E+02  0.12789477514E+02  0.26483627123E+02  0.00000000000E+00 0. -1.
          1    1    1    2  502    0 -0.10362344995E+02  0.20746893182E+02 -0.12677787289E+04  0.12679908190E+04  0.00000000000E+00 0. -1.
</event>
<event>
 4    1  0.3767413E+003  0.2088236E+02  0.7546771E-02  0.1520951E+00
          2   -1    0    0  502    0  0.00000000000E+00  0.00000000000E+00  0.88147163233E+02  0.88147163233E+02  0.00000000000E+00 0.  1.
          1   -1    0    0  501    0 -0.00000000000E+00 -0.00000000000E+00 -0.17726099315E+02  0.17726099315E+02  0.00000000000E+00 0. -1.
          2    1    1    2  501    0  0.18915087161E+02 -0.88482950825E+01  0.80157265129E+02  0.82832723010E+02  0.00000000000E+00 0.  1.
          1    1    1    2  502    0 -0.18915087161E+02  0.88482950825E+01 -0.97362012113E+01  0.23040539538E+02  0.00000000000E+00 0. -1.
</event>
<event>
 4    1  0.3767413E+003  0.2581414E+02  0.7546771E-02  0.1459898E+00
          2   -1    0    0  502    0  0.00000000000E+00  0.00000000000E+00  0.29936763677E+02  0.29936763677E+02  0.00000000000E+00 0.  1.
          1   -1    0    0  501    0 -0.00000000000E+00 -0.00000000000E+00 -0.62359746117E+03  0.62359746117E+03  0.00000000000E+00 0. -1.
          2    1    1    2  501    0 -0.61059357770E+01  0.25081615323E+02  0.24051811073E+02  0.35282566444E+02  0.00000000000E+00 0.  1.
          1    1    1    2  502    0  0.61059357770E+01 -0.25081615323E+02 -0.61771250856E+03  0.61825165840E+03  0.00000000000E+00 0. -1.
</event>
<event>
 4    1  0.3767413E+003  0.2863998E+02  0.7546771E-02  0.1431795E+00
          2   -1    0    0  502    0  0.00000000000E+00  0.00000000000E+00  0.81262789452E+03  0.81262789452E+03  0.00000000000E+00 0.  1.
          1   -1    0    0  501    0 -0.00000000000E+00 -0.00000000000E+00 -0.12235989138E+02  0.12235989138E+02  0.00000000000E+00 0.  1.
          2    1    1    2  501    0 -0.24452891653E+02  0.14909875464E+02  0.79525053317E+03  0.79576608297E+03  0.00000000000E+00 0.  1.
          1    1    1    2  502    0  0.24452891653E+02 -0.14909875464E+02  0.51413722095E+01  0.29097800686E+02  0.00000000000E+00 0.  1.
</event>
<event>
 4    1  0.3767413E+003  0.4323592E+02  0.7546771E-02  0.1330500E+00
          2   -1    0    0  502    0  0.00000000000E+00  0.00000000000E+00  0.11187869525E+04  0.11187869525E+04  0.00000000000E+00 0.  1.
          1   -1    0    0  501    0 -0.00000000000E+00 -0.00000000000E+00 -0.16743092736E+01  0.16743092736E+01  0.00000000000E+00 0.  1.
          2    1    1    2  501    0  0.19084781469E+02  0.38795801032E+02  0.53315034885E+03  0.53490058660E+03  0.00000000000E+00 0.  1.
          1    1    1    2  502    0 -0.19084781469E+02 -0.38795801032E+02  0.58396229434E+03  0.58556067514E+03  0.00000000000E+00 0.  1.
</event>
<event>
 4    1  0.3767413E+003  0.2574786E+02  0.7546771E-02  0.1460608E+00
          2   -1    0    0  502    0  0.00000000000E+00  0.00000000000E+00  0.97815359923E+01  0.97815359923E+01  0.00000000000E+00 0.  1.
          1   -1    0    0  501    0 -0.00000000000E+00 -0.00000000000E+00 -0.68620328569E+02  0.68620328569E+02  0.00000000000E+00 0.  1.
          2    1    1    2  501    0 -0.21189702746E+02 -0.14626965085E+02 -0.33768225603E+02  0.42464628463E+02  0.00000000000E+00 0.  1.
          1    1    1    2  502    0  0.21189702746E+02  0.14626965085E+02 -0.25070566974E+02  0.35937236099E+02  0.00000000000E+00 0.  1.
</event>
<event>
 4    1  0.3767413E+003  0.2132751E+02  0.7546771E-02  0.1514640E+00
          2   -1    0    0  502    0  0.00000000000E+00  0.00000000000E+00  0.58214806364E+03  0.58214806364E+03  0.00000000000E+00 0.  1.
          1   -1    0    0  501    0 -0.00000000000E+00 -0.00000000000E+00 -0.17467078020E+01  0.17467078020E+01  0.00000000000E+00 0. -1.
          2    1    1    2  501    0  0.77413553113E+01  0.19872947605E+02  0.50723985660E+03  0.50768802896E+03  0.00000000000E+00 0.  1.
          1    1    1    2  502    0 -0.77413553113E+01 -0.19872947605E+02  0.73161499241E+02  0.76206742482E+02  0.00000000000E+00 0. -1.
</event>
<event>
 4    1  0.3767413E+003  0.2214351E+02  0.7546771E-02  0.1503543E+00
          2   -1    0    0  502    0  0.00000000000E+00  0.00000000000E+00  0.18480801363E+04  0.18480801363E+04  0.00000000000E+00 0.  1.
          1   -1    0    0  501    0 -0.00000000000E+00 -0.00000000000E+00 -0.54034516066E+00  0.54034516066E+00  0.00000000000E+00 0. -1.
          2    1    1    2  501    0  0.19392393499E+01 -0.22058428157E+02  0.15831978761E+04  0.15833527243E+04  0.00000000000E+00 0.  1.
          1    1    1    2  502    0 -0.19392393499E+01  0.22058428157E+02  0.26434191508E+03  0.26526775713E+03  0.00000000000E+00 0. -1.
</event>
<event>
 4    1  0.3767413E+003  0.2061719E+02  0.7546771E-02  0.1524801E+00
          2   -1    0    0  502    0  0.00000000000E+00  0.00000000000E+00  0.14810831485E+04  0.14810831485E+04  0.00000000000E+00 0.  1.
          1   -1    0    0  501    0 -0.00000000000E+00 -0.00000000000E+00 -0.96699837595E+01  0.96699837595E+01  0.00000000000E+00 0. -1.
          2    1    1    2  501    0 -0.20083249460E+02 -0.46616977420E+01  0.14699387107E+04  0.14700832907E+04  0.00000000000E+00 0.  1.
          1    1    1    2  502    0  0.20083249460E+02  0.46616977420E+01  0.14744540063E+01  0.20669841541E+02  0.00000000000E+00 0. -1.
</event>
<event>
 4    1  0.3767413E+003  0.3010892E+02  0.7546771E-02  0.1418652E+00
          2   -1    0    0  502    0  0.00000000000E+00  0.00000000000E+00  0.99563314844E+03  0.99563314844E+03  0.00000000000E+00 0.  1.
          1   -1    0    0  501    0 -0.00000000000E+00 -0.00000000000E+00 -0.21335738889E+01  0.21335738889E+01  0.00000000000E+00 0. -1.
          2    1    1    2  501    0  0.27553951346E+02 -0.12137829476E+02  0.87446753680E+03  0.87498572563E+03  0.00000000000E+00 0.  1.
          1    1    1    2  502    0 -0.27553951346E+02  0.12137829476E+02  0.11903203775E+03  0.12278099670E+03  0.00000000000E+00 0. -1.
</event>
<event>
 4    1  0.3767413E+003  0.2606450E+02  0.7546771E-02  0.1457239E+00
          2   -1    0    0  502    0  0.00000000000E+00  0.00000000000E+00  0.57984941665E+01  0.57984941665E+01  0.00000000000E+00 0. -1.
          1   -1    0    0  501    0 -0.00000000000E+00 -0.00000000000E+00 -0.11859873481E+03  0.11859873481E+03  0.00000000000E+00 0. -1.
          2    1    1    2  501    0 -0.25898791329E+02  0.29342838592E+01 -0.63248361721E+02  0.68408425464E+02  0.00000000000E+00 0. -1.
          1    1    1    2  502    0  0.25898791329E+02 -0.29342838592E+01 -0.49551878927E+02  0.55988803517E+02  0.00000000000E+00 0. -1.
</event>
<event>
 4    1  0.3767413E+003  0.2229125E+02  0.7546771E-02  0.1501595E+00
          2   -1    0    0  502    0  0.00000000000E+00  0.00000000000E+00  0.74370958394E+02  0.74370958394E+02  0.00000000000E+00 0.  1.
          1   -1    0    0  501    0 -0.00000000000E+00 -0.00000000000E+00 -0.29241922467E+03  0.29241922467E+03  0.00000000000E+00 0. -1.
          2    1    1    2  501    0 -0.91730387338E+01 -0.20316381979E+02  0.72263690700E+02  0.75623680219E+02  0.00000000000E+00 0.  1.
          1    1    1    2  502    0  0.91730387338E+01  0.20316381979E+02 -0.29031195697E+03  0.29116650284E+03  0.00000000000E+00 0. -1.
</event>
<event>
 4    1  0.3767413E+003  0.2041427E+02  0.7546771E-02  0.1527794E+00
          2   -1    0    0  502    0  0.00000000000E+00  0.00000000000E+00  0.13214137748E+04  0.13214137748E+04  0.00000000000E+00 0.  1.
          1   -1    0    0  501    0 -0.00000000000E+00 -0.00000000000E+00 -0.26694855818E+01  0.26694855818E+01  0.00000000000E+00 0. -1.
          2    1    1    2  501    0 -0.15397566576E+02 -0.13403636503E+02  0.12810778080E+04  0.12812404508E+04  0.00000000000E+00 0.  1.
          1    1    1    2  502    0  0.15397566576E+02  0.13403636503E+02  0.37666481172E+02  0.42842809570E+02  0.00000000000E+00 0. -1.
</event>
<event>
 4    1  0.3767413E+003  0.2258909E+02  0.7546771E-02  0.1497723E+00
          2   -1    0    0  502    0  0.00000000000E+00  0.00000000000E+00  0.10947903466E+02  0.10947903466E+02  0.00000000000E+00 0.  1.
          1   -1    0    0  501    0 -0.00000000000E+00 -0.00000000000E+00 -0.20565244300E+03  0.20565244300E+03  0.00000000000E+00 0.  1.
          2    1    1    2  501    0  0.17394754974E+02 -0.14411439590E+02 -0.21120112035E+01  0.22687610782E+02  0.00000000000E+00 0.  1.
          1    1    1    2  502    0 -0.17394754974E+02  0.14411439590E+02 -0.19259252833E+03  0.19391273568E+03  0.00000000000E+00 0.  1.
</event>
<event>
 4    1  0.3767413E+003  0.2474234E+02  0.7546771E-02  0.1471707E+00
          2   -1    0    0  502    0  0.00000000000E+00  0.00000000000E+00  0.14354308322E+02  0.14354308322E+02  0.00000000000E+00 0.  1.
          1   -1    0    0  501    0 -0.00000000000E+00 -0.00000000000E+00 -0.38045765702E+03  0.38045765702E+03  0.00000000000E+00 0. -1.
          2    1    1    2  501    0 -0.22097689705E+02 -0.11129931827E+02  0.29612598729E+01  0.24918915161E+02  0.00000000000E+00 0.  1.
          1    1    1    2  502    0  0.22097689705E+02  0.11129931827E+02 -0.36906460858E+03  0.36989305019E+03  0.00000000000E+00 0. -1.
</event>
<event>
 4    1  0.3767413E+003  0.3001154E+02  0.7546771E-02  0.1419496E+00
          2   -1    0    0  502    0  0.00000000000E+00  0.00000000000E+00  0.20196318495E+03  0.20196318495E+03  0.00000000000E+00 0.  1.
          1   -1    0    0  501    0 -0.00000000000E+00 -0.00000000000E+00 -0.18652484276E+02  0.18652484276E+02  0.00000000000E+00 0. -1.
          2    1    1    2  501    0 -0.20982468270E+02  0.21457603409E+02  0.18787682490E+03  0.19025875553E+03  0.00000000000E+00 0.  1.
          1    1    1    2  502    0  0.20982468270E+02 -0.21457603409E+02 -0.45661242317E+01  0.30356913698E+02  0.00000000000E+00 0. -1.
</event>
<event>
 4    1  0.3767413E+003  0.4029975E+02  0.7546771E-02  0.1346738E+00
          2   -1    0    0  502    0  0.00000000000E+00  0.00000000000E+00  0.42834494356E+01  0.42834494356E+01  0.00000000000E+00 0.  1.
          1   -1    0    0  501    0 -0.00000000000E+00 -0.00000000000E+00 -0.64241601447E+03  0.64241601447E+03  0.00000000000E+00 0.  1.
          2    1    1    2  501    0  0.30482511058E+01 -0.40184304020E+02 -0.11207041601E+03  0.11909596244E+03  0.00000000000E+00 0.  1.
          1    1    1    2  502    0 -0.30482511058E+01  0.40184304020E+02 -0.52606214902E+03  0.52760350147E+03  0.00000000000E+00 0.  1.
</event>
<event>
 4    1  0.3767413E+003  0.2693907E+02  0.7546771E-02  0.1448221E+00
          2   -1    0    0  502    0  0.00000000000E+00  0.00000000000E+00  0.17754203206E+02  0.17754203206E+02  0.00000000000E+00 0. -1.
          1   -1    0    0  501    0 -0.00000000000E+00 -0.00000000000E+00 -0.13688187992E+03  0.13688187992E+03  0.00000000000E+00 0. -1.
          2    1    1    2  501    0 -0.14282662380E+01 -0.26901184691E+02  0.51888328291E+01  0.27434242624E+02  0.00000000000E+00 0. -1.
          1    1    1    2  502    0  0.14282662380E+01  0.26901184691E+02 -0.12431650954E+03  0.12720184050E+03  0.00000000000E+00 0. -1.
</event>
<event>
 4    1  0.3767413E+003  0.2017424E+02  0.7546771E-02  0.1531389E+00
          2   -1    0    0  502    0  0.00000000000E+00  0.00000000000E+00  0.84500311751E+02  0.84500311751E+02  0.00000000000E+00 0.  1.
          1   -1    0    0  501    0 -0.00000000000E+00 -0.00000000000E+00 -0.12970945654E+02  0.12970945654E+02  0.00000000000E+00 0.  1.
          2    1    1    2  501    0  0.17486595088E+02  0.10060763577E+02  0.74406420425E+02  0.77092900918E+02  0.00000000000E+00 0.  1.
          1    1    1    2  502    0 -0.17486595088E+02 -0.10060763577E+02 -0.28770543282E+01  0.20378356487E+02  0.00000000000E+00 0.  1.
</event>
<event>
 4    1  0.3767413E+003  0.4381743E+02  0.7546771E-02  0.1327459E+00
          2   -1    0    0  502    0  0.00000000000E+00  0.00000000000E+00  0.19359852388E+02  0.19359852388E+02  0.00000000000E+00 0. -1.
          1   -1    0    0  501    0 -0.00000000000E+00 -0.00000000000E+00 -0.82421474675E+03  0.82421474675E+03  0.00000000000E+00 0.  1.
          2    1    1    2  501    0 -0.63742474905E+01 -0.43351313467E+02 -0.68286825159E+01  0.44346345005E+02  0.00000000000E+00 0. -1.
          1    1    1    2  502    0  0.63742474905E+01  0.43351313467E+02 -0.79802621185E+03  0.79922825413E+03  0.00000000000E+00 0.  1.
</event>
<event>
 4    1  0.3767413E+003  0.2562474E+02  0.7546771E-02  0.1461934E+00
          2   -1    0    0  502    0  0.00000000000E+00  0.00000000000E+00  0.93181864750E+02  0.93181864750E+02  0.00000000000E+00 0. -1.
          1   -1    0    0  501    0 -0.00000000000E+00 -0.00000000000E+00 -0.31494271332E+03  0.31494271332E+03  0.00000000000E+00 0.  1.
          2    1    1    2  501    0 -0.20250237199E+02  0.15702076557E+02  0.90886040301E+02  0.94429336736E+02  0.00000000000E+00 0. -1.
          1    1    1    2  502    0  0.20250237199E+02 -0.15702076557E+02 -0.31264688887E+03  0.31369524133E+03  0.00000000000E+00 0.  1.
</event>
<event>
 4    1  0.3767413E+003  0.2188927E+02  0.7546771E-02  0.1506937E+00
          2   -1    0    0  502    0  0.00000000000E+00  0.00000000000E+00  0.63357703334E+03  0.63357703334E+03  0.00000000000E+00 0. -1.
          1   -1    0    0  501    0 -0.00000000000E+00 -0.00000000000E+00 -0.80900648583E+00  0.80900648583E+00  0.00000000000E+00 0. -1.
          2    1    1    2  501    0 -0.49926125869E+01 -0.21312299839E+02  0.39738693138E+03  0.39798933847E+03  0.00000000000E+00 0. -1.
          1    1    1    2  502    0  0.49926125869E+01  0.21312299839E+02  0.23538109548E+03  0.23639670136E+03  0.00000000000E+00 0. -1.
</event>
<event>
 4    1  0.3767413E+003  0.2591051E+02  0.7546771E-02  0.1458870E+00
          2   -1    0    0  502    0  0.00000000000E+00  0.00000000000E+00  0.48113024960E+01  0.48113024960E+01  0.00000000000E+00 0.  1.
          1   -1    0    0  501    0 -0.00000000000E+00 -0.00000000000E+00 -0.19655874690E+03  0.19655874690E+03  0.00000000000E+00 0. -1.
          2    1    1    2  501    0 -0.24861297163E+02 -0.72986448294E+01 -0.41643763728E+02  0.49046481733E+02  0.00000000000E+00 0.  1.
          1    1    1    2  502    0  0.24861297163E+02  0.72986448294E+01 -0.15010368068E+03  0.15232356766E+03  0.00000000000E+00 0. -1.
</event>
<event>
 4    1  0.3767413E+003  0.2096156E+02  0.7546771E-02  0.1519814E+00
          2   -1    0    0  502    0  0.00000000000E+00  0.00000000000E+00  0.33606381938E+03  0.33606381938E+03  0.00000000000E+00 0.  1.
          1   -1    0    0  501    0 -0.00000000000E+00 -0.00000000000E+00 -0.10529332023E+02  0.10529332023E+02  0.00000000000E+00 0. -1.
          2    1    1    2  501    0 -0.42083978238E+00 -0.20957333035E+02  0.32494800425E+03  0.32562339040E+03  0.00000000000E+00 0.  1.
          1    1    1    2  502    0  0.42083978238E+00  0.20957333035E+02  0.58648311314E+00  0.20969761003E+02  0.00000000000E+00 0. -1.
</event>
<event>
 4    1  0.3767413E+003  0.3624379E+02  0.7546771E-02  0.1372024E+00
          2   -1    0    0  502    0  0.00000000000E+00  0.00000000000E+00  0.22441803622E+04  0.22441803622E+04  0.00000000000E+00 0.  1.
          1   -1    0    0  501    0 -0.00000000000E+00 -0.00000000000E+00 -0.12934800016E+02  0.12934800016E+02  0.00000000000E+00 0.  1.
          2    1    1    2  501    0  0.30461712743E+02 -0.19639146384E+02  0.22183493033E+04  0.22186453623E+04  0.00000000000E+00 0.  1.
          1    1    1    2  502    0 -0.30461712743E+02  0.19639146384E+02  0.12896258851E+02  0.38469799925E+02  0.00000000000E+00 0.  1.
</event>
<event>
 4    1  0.3767413E+003  0.2536805E+02  0.7546771E-02  0.1464728E+00
          2   -1    0    0  502    0  0.00000000000E+00  0.00000000000E+00  0.43498993066E+02  0.43498993066E+02  0.00000000000E+00 0. -1.
          1   -1    0    0  501    0 -0.00000000000E+00 -0.00000000000E+00 -0.49333504840E+03  0.49333504840E+03  0.00000000000E+00 0.  1.
          2    1    1    2  501    0  0.16366684877E+02 -0.19382202141E+02  0.39443661635E+02  0.46897127597E+02  0.00000000000E+00 0. -1.
          1    1    1    2  502    0 -0.16366684877E+02  0.19382202141E+02 -0.48927971697E+03  0.48993691387E+03  0.00000000000E+00 0.  1.
</event>
<event>
 4    1  0.3767413E+003  0.2515732E+02  0.7546771E-02  0.1467051E+00
          2   -1    0    0  502    0  0.00000000000E+00  0.00000000000E+00  0.11962239142E+04  0.11962239142E+04  0.00000000000E+00 0. -1.
          1   -1    0    0  501    0 -0.00000000000E+00 -0.00000000000E+00 -0.76809100157E+00  0.76809100157E+00  0.00000000000E+00 0.  1.
          2    1    1    2  501    0  0.20148108465E+02 -0.15064678270E+02  0.93159179278E+03  0.93193141334E+03  0.00000000000E+00 0. -1.
          1    1    1    2  502    0 -0.20148108465E+02  0.15064678270E+02  0.26386403039E+03  0.26506059183E+03  0.00000000000E+00 0.  1.
</event>
<event>
 4    1  0.3767413E+003  0.3730537E+02  0.7546771E-02  0.1365043E+00
          2   -1    0    0  502    0  0.00000000000E+00  0.00000000000E+00  0.18655241895E+04  0.18655241895E+04  0.00000000000E+00 0.  1.
          1   -1    0    0  501    0 -0.00000000000E+00 -0.00000000000E+00 -0.18152599271E+02  0.18152599271E+02  0.00000000000E+00 0. -1.
          2    1    1    2  501    0  0.35074320493E+02  0.12707582618E+02  0.18459681124E+04  0.18463450280E+04  0.00000000000E+00 0.  1.
          1    1    1    2  502    0 -0.35074320493E+02 -0.12707582618E+02  0.14034779067E+01  0.37331760798E+02  0.00000000000E+00 0. -1.
</event>
<event>
 4    1  0.3767413E+003  0.2034646E+02  0.7546771E-02  0.1528804E+00
          2   -1    0    0  502    0  0.00000000000E+00  0.00000000000E+00  0.38826893920E+03  0.38826893920E+03  0.00000000000E+00 0. -1.
          1   -1    0    0  501    0 -0.00000000000E+00 -0.00000000000E+00 -0.12980613076E+04  0.12980613076E+04  0.00000000000E+00 0. -1.
          2    1    1    2  501    0 -0.15894508267E+02 -0.12702087007E+02  0.38792258402E+03  0.38845580135E+03  0.00000000000E+00 0. -1.
          1    1    1    2  502    0  0.15894508267E+02  0.12702087007E+02 -0.12977149524E+04  0.12978744454E+04  0.00000000000E+00 0. -1.
</event>
<event>
 4    1  0.3767413E+003  0.2283235E+02  0.7546771E-02  0.1494614E+00
          2   -1    0    0  502    0  0.00000000000E+00  0.00000000000E+00  0.94569486458E+03  0.94569486458E+03  0.00000000000E+00 0.  1.
          1   -1    0    0  501    0 -0.00000000000E+00 -0.00000000000E+00 -0.46947787716E+01  0.46947787716E+01  0.00000000000E+00 0. -1.
          2    1    1    2  501    0 -0.21950368134E+02 -0.62847199621E+01  0.91692575277E+03  0.91720998276E+03  0.00000000000E+00 0.  1.
          1    1    1    2  502    0  0.21950368134E+02  0.62847199621E+01  0.24074333036E+02  0.33179660597E+02  0.00000000000E+00 0. -1.
</event>
<event>
 4    1  0.3767413E+003  0.3039952E+02  0.7546771E-02  0.1416156E+00
          2   -1    0    0  502    0  0.00000000000E+00  0.00000000000E+00  0.96629380277E+00  0.96629380277E+00  0.00000000000E+00 0. -1.
          1   -1    0    0  501    0 -0.00000000000E+00 -0.00000000000E+00 -0.98192713537E+03  0.98192713537E+03  0.00000000000E+00 0.  1.
          2    1    1    2  501    0 -0.13071644466E+02 -0.27445630357E+02 -0.41118883775E+03  0.41231103648E+03  0.00000000000E+00 0. -1.
          1    1    1    2  502    0  0.13071644466E+02  0.27445630357E+02 -0.56977200382E+03  0.57058239269E+03  0.00000000000E+00 0.  1.
</event>
<event>
 4    1  0.3767413E+003  0.2196425E+02  0.7546771E-02  0.1505930E+00
          2   -1    0    0  502    0  0.00000000000E+00  0.00000000000E+00  0.39411055204E+03  0.39411055204E+03  0.00000000000E+00 0.  1.
          1   -1    0    0  501    0 -0.00000000000E+00 -0.00000000000E+00 -0.16817676846E+02  0.16817676846E+02  0.00000000000E+00 0.  1.
          2    1    1    2  501    0  0.16329822427E+02  0.14688945180E+02  0.38649182995E+03  0.38711543864E+03  0.00000000000E+00 0.  1.
          1    1    1    2  502    0 -0.16329822427E+02 -0.14688945180E+02 -0.91989547557E+01  0.23812790252E+02  0.00000000000E+00 0.  1.
</event>
<event>
 4    1  0.3767413E+003  0.2750769E+02  0.7546771E-02  0.1442574E+00
          2   -1    0    0  502    0  0.00000000000E+00  0.00000000000E+00  0.11280813888E+01  0.11280813888E+01  0.00000000000E+00 0.  1.
          1   -1    0    0  501    0 -0.00000000000E+00 -0.00000000000E+00 -0.11787837465E+04  0.11787837465E+04  0.00000000000E+00 0.  1.
          2    1    1    2  501    0  0.19277361054E+02 -0.19622850006E+02 -0.20153085320E+03  0.20339950266E+03  0.00000000000E+00 0.  1.
          1    1    1    2  502    0 -0.19277361054E+02  0.19622850006E+02 -0.97612481194E+03  0.97651232525E+03  0.00000000000E+00 0.  1.
</event>
<event>
 4    1  0.3767413E+003  0.3150090E+02  0.7546771E-02  0.1406987E+00
          2   -1    0    0  502    0  0.00000000000E+00  0.00000000000E+00  0.18772879936E+03  0.18772879936E+03  0.00000000000E+00 0.  1.
          1   -1    0    0  501    0 -0.00000000000E+00 -0.00000000000E+00 -0.19901738039E+02  0.19901738039E+02  0.00000000000E+00 0.  1.
          2    1    1    2  501    0  0.30767104414E+02 -0.67595770693E+01  0.17288039990E+03  0.17572688829E+03  0.00000000000E+00 0.  1.
          1    1    1    2  502    0 -0.30767104414E+02  0.67595770693E+01 -0.50533385776E+01  0.31903649116E+02  0.00000000000E+00 0.  1.
</event>
<event>
 4    1  0.3767413E+003  0.2044985E+02  0.7546771E-02  0.1527266E+00
          2   -1    0    0  502    0  0.00000000000E+00  0.00000000000E+00  0.14593945333E+04  0.14593945333E+04  0.00000000000E+00 0. -1.
          1   -1    0    0  501    0 -0.00000000000E+00 -0.00000000000E+00 -0.75364651810E+01  0.75364651810E+01  0.00000000000E+00 0. -1.
          2    1    1    2  501    0 -0.20056508346E+02  0.39915850831E+01  0.14453153386E+04  0.14454600044E+04  0.00000000000E+00 0. -1.
          1    1    1    2  502    0  0.20056508346E+02 -0.39915850831E+01  0.65427295366E+01  0.21470994116E+02  0.00000000000E+00 0. -1.
</event>
<event>
 4    1  0.3767413E+003  0.2208682E+02  0.7546771E-02  0.1504295E+00
          2   -1    0    0  502    0  0.00000000000E+00  0.00000000000E+00  0.50948059961E+01  0.50948059961E+01  0.00000000000E+00 0. -1.
          1   -1    0    0  501    0 -0.00000000000E+00 -0.00000000000E+00 -0.14342843687E+03  0.14342843687E+03  0.00000000000E+00 0. -1.
          2    1    1    2  501    0 -0.20629987852E+02 -0.78886740503E+01 -0.26350638560E+02  0.34382898796E+02  0.00000000000E+00 0. -1.
          1    1    1    2  502    0  0.20629987852E+02  0.78886740503E+01 -0.11198299231E+03  0.11414034407E+03  0.00000000000E+00 0. -1.
</event>
<event>
 4    1  0.3767413E+003  0.2073046E+02  0.7546771E-02  0.1523148E+00
          2   -1    0    0  502    0  0.00000000000E+00  0.00000000000E+00  0.72122013313E+03  0.72122013313E+03  0.00000000000E+00 0. -1.
          1   -1    0    0  501    0 -0.00000000000E+00 -0.00000000000E+00 -0.93440296475E+00  0.93440296475E+00  0.00000000000E+00 0. -1.
          2    1    1    2  501    0 -0.20131877836E+02  0.49456615689E+01  0.57748040268E+03  0.57785237522E+03  0.00000000000E+00 0. -1.
          1    1    1    2  502    0  0.20131877836E+02 -0.49456615689E+01  0.14280532748E+03  0.14430216087E+03  0.00000000000E+00 0. -1.
</event>
<event>
 4    1  0.3767413E+003  0.2485321E+02  0.7546771E-02  0.1470452E+00
          2   -1    0    0  502    0  0.00000000000E+00  0.00000000000E+00  0.10864750646E+03  0.10864750646E+03  0.00000000000E+00 0. -1.
          1   -1    0    0  501    0 -0.00000000000E+00 -0.00000000000E+00 -0.13391443469E+02  0.13391443469E+02  0.00000000000E+00 0. -1.
          2    1    1    2  501    0 -0.16056499741E+02  0.18970269011E+02  0.93916868188E+02  0.97149680496E+02  0.00000000000E+00 0. -1.
          1    1    1    2  502    0  0.16056499741E+02 -0.18970269011E+02  0.13391948059E+01  0.24889269435E+02  0.00000000000E+00 0. -1.
</event>
<event>
 4    1  0.3767413E+003  0.2795527E+02  0.7546771E-02  0.1438241E+00
          2   -1    0    0  502    0  0.00000000000E+00  0.00000000000E+00  0.25977823335E+02  0.25977823335E+02  0.00000000000E+00 0. -1.
          1   -1    0    0  501    0 -0.00000000000E+00 -0.00000000000E+00 -0.71025232017E+03  0.71025232017E+03  0.00000000000E+00 0.  1.
          2    1    1    2  501    0  0.85510474805E+01  0.26615348761E+02  0.18097588940E+02  0.33301950816E+02  0.00000000000E+00 0. -1.
          1    1    1    2  502    0 -0.85510474805E+01 -0.26615348761E+02 -0.70237208578E+03  0.70292819269E+03  0.00000000000E+00 0.  1.
</event>
<event>
 4    1  0.3767413E+003  0.2780902E+02  0.7546771E-02  0.1439646E+00
          2   -1    0    0  502    0  0.00000000000E+00  0.00000000000E+00  0.67440018627E+02  0.67440018627E+02  0.00000000000E+00 0. -1.
          1   -1    0    0  501    0 -0.00000000000E+00 -0.00000000000E+00 -0.21822410771E+02  0.21822410771E+02  0.00000000000E+00 0. -1.
          2    1    1    2  501    0 -0.22529723291E+02  0.16301933615E+02  0.53553407800E+02  0.60343259426E+02  0.00000000000E+00 0. -1.
          1    1    1    2  502    0  0.22529723291E+02 -0.16301933615E+02 -0.79357999432E+01  0.28919169972E+02  0.00000000000E+00 0. -1.
</event>
<event>
 4    1  0.3767413E+003  0.3515813E+02  0.7546771E-02  0.1379455E+00
          2   -1    0    0  502    0  0.00000000000E+00  0.00000000000E+00  0.46002868891E+03  0.46002868891E+03  0.00000000000E+00 0.  1.
          1   -1    0    0  501    0 -0.00000000000E+00 -0.00000000000E+00 -0.31409168766E+02  0.31409168766E+02  0.00000000000E+00 0.  1.
          2    1    1    2  501    0  0.81931415975E+01  0.34190155407E+02  0.44928335029E+03  0.45065687961E+03  0.00000000000E+00 0.  1.
          1    1    1    2  502    0 -0.81931415975E+01 -0.34190155407E+02 -0.20663830141E+02  0.40780978066E+02  0.00000000000E+00 0.  1.
</event>
<event>
 4    1  0.3767413E+003  0.2191848E+02  0.7546771E-02  0.1506544E+00
          2   -1    0    0  502    0  0.00000000000E+00  0.00000000000E+00  0.11604612777E+03  0.11604612777E+03  0.00000000000E+00 0.  1.
          1   -1    0    0  501    0 -0.00000000000E+00 -0.00000000000E+00 -0.23153488731E+03  0.23153488731E+03  0.00000000000E+00 0. -1.
          2    1    1    2  501    0 -0.21644872104E+02 -0.34524459332E+01  0.11448540992E+03  0.11656469858E+03  0.00000000000E+00 0.  1.
          1    1    1    2  502    0  0.21644872104E+02  0.34524459332E+01 -0.22997416946E+03  0.23101631650E+03  0.00000000000E+00 0. -1.
</event>
<event>
 4    1  0.3767413E+003  0.2990218E+02  0.7546771E-02  0.1420449E+00
          2   -1    0    0  502    0  0.00000000000E+00  0.00000000000E+00  0.71892076997E+03  0.71892076997E+03  0.00000000000E+00 0. -1.
          1   -1    0    0  501    0 -0.00000000000E+00 -0.00000000000E+00 -0.46031326950E+01  0.46031326950E+01  0.00000000000E+00 0.  1.
          2    1    1    2  501    0  0.28816492299E+02 -0.79843500731E+01  0.66620790646E+03  0.66687863567E+03  0.00000000000E+00 0. -1.
          1    1    1    2  502    0 -0.28816492299E+02  0.79843500731E+01  0.48109730808E+02  0.56645266995E+02  0.00000000000E+00 0.  1.
</event>
<event>
 4    1  0.3767413E+003  0.8526254E+02  0.7546771E-02  0.1192130E+00
          2   -1    0    0  502    0  0.00000000000E+00  0.00000000000E+00  0.24479590470E+04  0.24479590470E+04  0.00000000000E+00 0.  1.
          1   -1    0    0  501    0 -0.00000000000E+00 -0.00000000000E+00 -0.19214950894E+02  0.19214950894E+02  0.00000000000E+00 0. -1.
          2    1    1    2  501    0  0.82502296368E+02  0.21519112361E+02  0.23486340188E+04  0.23501811537E+04  0.00000000000E+00 0.  1.
          1    1    1    2  502    0 -0.82502296368E+02 -0.21519112361E+02  0.80110077365E+02  0.11699284422E+03  0.00000000000E+00 0. -1.
</event>
<event>
 4    1  0.3767413E+003  0.2264899E+02  0.7546771E-02  0.1496953E+00
          2   -1    0    0  502    0  0.00000000000E+00  0.00000000000E+00  0.62975066749E+01  0.62975066749E+01  0.00000000000E+00 0.  1.
          1   -1    0    0  501    0 -0.00000000000E+00 -0.00000000000E+00 -0.15359232089E+03  0.15359232089E+03  0.00000000000E+00 0.  1.
          2    1    1    2  501    0 -0.14416218631E+02  0.17468526575E+02 -0.18860132295E+02  0.29473401068E+02  0.00000000000E+00 0.  1.
          1    1    1    2  502    0  0.14416218631E+02 -0.17468526575E+02 -0.12843468193E+03  0.13041642650E+03  0.00000000000E+00 0.  1.
</event>
<event>
 4    1  0.3767413E+003  0.2084736E+02  0.7546771E-02  0.1521455E+00
          2   -1    0    0  502    0  0.00000000000E+00  0.00000000000E+00  0.80432859776E+03  0.80432859776E+03  0.00000000000E+00 0. -1.
          1   -1    0    0  501    0 -0.00000000000E+00 -0.00000000000E+00 -0.16511705773E+01  0.16511705773E+01  0.00000000000E+00 0. -1.
          2    1    1    2  501    0 -0.98367343019E+01  0.18380721837E+02  0.73187698825E+03  0.73217384425E+03  0.00000000000E+00 0. -1.
          1    1    1    2  502    0  0.98367343019E+01 -0.18380721837E+02  0.70800438932E+02  0.73805924084E+02  0.00000000000E+00 0. -1.
</event>
<event>
 4    1  0.3767413E+003  0.3785942E+02  0.7546771E-02  0.1361508E+00
          2   -1    0    0  502    0  0.00000000000E+00  0.00000000000E+00  0.25221556209E+03  0.25221556209E+03  0.00000000000E+00 0. -1.
          1   -1    0    0  501    0 -0.00000000000E+00 -0.00000000000E+00 -0.96869745207E+01  0.96869745207E+01  0.00000000000E+00 0. -1.
          2    1    1    2  501    0 -0.28681297951E+02  0.24712728050E+02  0.20545466296E+03  0.20891374850E+03  0.00000000000E+00 0. -1.
          1    1    1    2  502    0  0.28681297951E+02 -0.24712728050E+02  0.37073924615E+02  0.52988788118E+02  0.00000000000E+00 0. -1.
</event>
<event>
 4    1  0.3767413E+003  0.2078454E+02  0.7546771E-02  0.1522363E+00
          2   -1    0    0  502    0  0.00000000000E+00  0.00000000000E+00  0.42417097483E+02  0.42417097483E+02  0.00000000000E+00 0.  1.
          1   -1    0    0  501    0 -0.00000000000E+00 -0.00000000000E+00 -0.13933343340E+03  0.13933343340E+03  0.00000000000E+00 0. -1.
          2    1    1    2  501    0  0.11126493137E+02  0.17555580333E+02  0.39032840440E+02  0.44221712802E+02  0.00000000000E+00 0.  1.
          1    1    1    2  502    0 -0.11126493137E+02 -0.17555580333E+02 -0.13594917635E+03  0.13752881808E+03  0.00000000000E+00 0. -1.
</event>
<event>
 4    1  0.3767413E+003  0.2188370E+02  0.7546771E-02  0.1507012E+00
          2   -1    0    0  502    0  0.00000000000E+00  0.00000000000E+00  0.67001728201E+02  0.67001728201E+02  0.00000000000E+00 0. -1.
          1   -1    0    0  501    0 -0.00000000000E+00 -0.00000000000E+00 -0.11375275606E+03  0.11375275606E+03  0.00000000000E+00 0.  1.
          2    1    1    2  501    0  0.71609343497E+01 -0.20678911853E+02  0.64116292469E+02  0.67748028282E+02  0.00000000000E+00 0. -1.
          1    1    1    2  502    0 -0.71609343497E+01  0.20678911853E+02 -0.11086732033E+03  0.11300645598E+03  0.00000000000E+00 0.  1.
</event>
<event>
 4    1  0.3767413E+003  0.2037473E+02  0.7546771E-02  0.1528382E+00
          2   -1    0    0  502    0  0.00000000000E+00  0.00000000000E+00  0.21441605854E+03  0.21441605854E+03  0.00000000000E+00 0. -1.
          1   -1    0    0  501    0 -0.00000000000E+00 -0.00000000000E+00 -0.12659069295E+04  0.12659069295E+04  0.00000000000E+00 0.  1.
          2    1    1    2  501    0  0.19213338774E+02  0.67806391185E+01  0.21384983606E+03  0.21481825303E+03  0.00000000000E+00 0. -1.
          1    1    1    2  502    0 -0.19213338774E+02 -0.67806391185E+01 -0.12653407070E+04  0.12655047350E+04  0.00000000000E+00 0.  1.
</event>
<event>
 4    1  0.3767413E+003  0.3263622E+02  0.7546771E-02  0.1397989E+00
          2   -1    0    0  502    0  0.00000000000E+00  0.00000000000E+00  0.12096256461E+03  0.12096256461E+03  0.00000000000E+00 0.  1.
          1   -1    0    0  501    0 -0.00000000000E+00 -0.00000000000E+00 -0.31899240665E+02  0.31899240665E+02  0.00000000000E+00 0. -1.
          2    1    1    2  501    0 -0.14268659063E+02  0.29351798847E+02  0.10956364232E+03  0.11432110237E+03  0.00000000000E+00 0.  1.
          1    1    1    2  502    0  0.14268659063E+02 -0.29351798847E+02 -0.20500318379E+02  0.38540702908E+02  0.00000000000E+00 0. -1.
</event>
<event>
 4    1  0.3767413E+003  0.3381194E+02  0.7546771E-02  0.1389114E+00
          2   -1    0    0  502    0  0.00000000000E+00  0.00000000000E+00  0.25413208079E+04  0.25413208079E+04  0.00000000000E+00 0. -1.
          1   -1    0    0  501    0 -0.00000000000E+00 -0.00000000000E+00 -0.99278697795E+00  0.99278697795E+00  0.00000000000E+00 0.  1.
          2    1    1    2  501    0 -0.31662181243E+02  0.11863974463E+02  0.22101911184E+04  0.22104497342E+04  0.00000000000E+00 0. -1.
          1    1    1    2  502    0  0.31662181243E+02 -0.11863974463E+02  0.33013690252E+03  0.33186386067E+03  0.00000000000E+00 0.  1.
</event>
<event>
 4    1  0.3767413E+003  0.3724646E+02  0.7546771E-02  0.1365423E+00
          2   -1    0    0  502    0  0.00000000000E+00  0.00000000000E+00  0.23782433041E+03  0.23782433041E+03  0.00000000000E+00 0. -1.
          1   -1    0    0  501    0 -0.00000000000E+00 -0.00000000000E+00 -0.10272128094E+02  0.10272128094E+02  0.00000000000E+00 0.  1.
          2    1    1    2  501    0  0.36144519928E+02  0.89928976688E+01  0.19532065459E+03  0.19884027922E+03  0.00000000000E+00 0. -1.
          1    1    1    2  502    0 -0.36144519928E+02 -0.89928976688E+01  0.32231547725E+02  0.49256179288E+02  0.00000000000E+00 0.  1.
</event>
<event>
 4    1  0.3767413E+003  0.2329198E+02  0.7546771E-02  0.1488864E+00
          2   -1    0    0  502    0  0.00000000000E+00  0.00000000000E+00  0.14009214788E+01  0.14009214788E+01  0.00000000000E+00 0. -1.
          1   -1    0    0  501    0 -0.00000000000E+00 -0.00000000000E+00 -0.93718359632E+03  0.93718359632E+03  0.00000000000E+00 0. -1.
          2    1    1    2  501    0 -0.19598037941E+01  0.23209387674E+02 -0.10840411925E+03  0.11087817449E+03  0.00000000000E+00 0. -1.
          1    1    1    2  502    0  0.19598037941E+01 -0.23209387674E+02 -0.82737855559E+03  0.82770634332E+03  0.00000000000E+00 0. -1.
</event>
<event>
 4    1  0.3767413E+003  0.2308673E+02  0.7546771E-02  0.1491412E+00
          2   -1    0    0  502    0  0.00000000000E+00  0.00000000000E+00  0.70915843263E+00  0.70915843263E+00  0.00000000000E+00 0.  1.
          1   -1    0    0  501    0 -0.00000000000E+00 -0.00000000000E+00 -0.12211437324E+04  0.12211437324E+04  0.00000000000E+00 0.  1.
          2    1    1    2  501    0  0.22020693633E+02  0.69344060242E+01 -0.23138426936E+03  0.23253317407E+03  0.00000000000E+00 0.  1.
          1    1    1    2  502    0 -0.22020693633E+02 -0.69344060242E+01 -0.98905030465E+03  0.98931971680E+03  0.00000000000E+00 0.  1.
</event>
<event>
 4    1  0.3767413E+003  0.2182801E+02  0.7546771E-02  0.1507764E+00
          2   -1    0    0  502    0  0.00000000000E+00  0.00000000000E+00  0.22887373654E+03  0.22887373654E+03  0.00000000000E+00 0. -1.
          1   -1    0    0  501    0 -0.00000000000E+00 -0.00000000000E+00 -0.28181641212E+01  0.28181641212E+01  0.00000000000E+00 0. -1.
          2    1    1    2  501    0  0.56052705090E+01 -0.21096038677E+02  0.17224576918E+03  0.17362334781E+03  0.00000000000E+00 0. -1.
          1    1    1    2  502    0 -0.56052705090E+01  0.21096038677E+02  0.53809803243E+02  0.58068552853E+02  0.00000000000E+00 0. -1.
</event>
<event>
 4    1  0.3767413E+003  0.3492106E+02  0.7546771E-02  0.1381119E+00
          2   -1    0    0  502    0  0.00000000000E+00  0.00000000000E+00  0.27378124781E+02  0.27378124781E+02  0.00000000000E+00 0.  1.
          1   -1    0    0  501    0 -0.00000000000E+00 -0.00000000000E+00 -0.87711274257E+02  0.87711274257E+02  0.00000000000E+00 0. -1.
          2    1    1    2  501    0  0.30192115083E+02 -0.17547562607E+02  0.10203931386E+02  0.36381327386E+02  0.00000000000E+00 0.  1.
          1    1    1    2  502    0 -0.30192115083E+02  0.17547562607E+02 -0.70537080861E+02  0.78708071652E+02  0.00000000000E+00 0. -1.
</event>
<event>
 4    1  0.3767413E+003  0.2869715E+02  0.7546771E-02  0.1431266E+00
          2   -1    0    0  502    0  0.00000000000E+00  0.00000000000E+00  0.12671275542E+04  0.12671275542E+04  0.00000000000E+00 0.  1.
          1   -1    0    0  501    0 -0.00000000000E+00 -0.00000000000E+00 -0.24096022541E+03  0.24096022541E+03  0.00000000000E+00 0.  1.
          2    1    1    2  501    0  0.18519601523E+02  0.21921464948E+02  0.12661099672E+04  0.12664351446E+04  0.00000000000E+00 0.  1.
          1    1    1    2  502    0 -0.18519601523E+02 -0.21921464948E+02 -0.23994263846E+03  0.24165263503E+03  0.00000000000E+00 0.  1.
</event>
<event>
 4    1  0.3767413E+003  0.2320917E+02  0.7546771E-02  0.1489888E+00
          2   -1    0    0  502    0  0.00000000000E+00  0.00000000000E+00  0.19820233899E+04  0.19820233899E+04  0.00000000000E+00 0. -1.
          1   -1    0    0  501    0 -0.00000000000E+00 -0.00000000000E+00 -0.27254988757E+00  0.27254988757E+00  0.00000000000E+00 0. -1.
          2    1    1    2  501    0  0.23108398110E+02 -0.21604325040E+01  0.10437048247E+04  0.10439628474E+04  0.00000000000E+00 0. -1.
          1    1    1    2  502    0 -0.23108398110E+02  0.21604325040E+01  0.93804601533E+03  0.93833309246E+03  0.00000000000E+00 0. -1.
</event>
<event>
 4    1  0.3767413E+003  0.2566660E+02  0.7546771E-02  0.1461482E+00
          2   -1    0    0  502    0  0.00000000000E+00  0.00000000000E+00  0.73573177955E+03  0.73573177955E+03  0.00000000000E+00 0.  1.
          1   -1    0    0  501    0 -0.00000000000E+00 -0.00000000000E+00 -0.12141204276E+02  0.12141204276E+02  0.00000000000E+00 0.  1.
          2    1    1    2  501    0 -0.13642451272E+02  0.21740696871E+02  0.72167902581E+03  0.72213529942E+03  0.00000000000E+00 0.  1.
          1    1    1    2  502    0  0.13642451272E+02 -0.21740696871E+02  0.19115494643E+01  0.25737684405E+02  0.00000000000E+00 0.  1.
</event>
<event>
 4    1  0.3767413E+003  0.2262012E+02  0.7546771E-02  0.1497324E+00
          2   -1    0    0  502    0  0.00000000000E+00  0.00000000000E+00  0.97910898469E+03  0.97910898469E+03  0.00000000000E+00 0.  1.
          1   -1    0    0  501    0 -0.00000000000E+00 -0.00000000000E+00 -0.20962453719E+01  0.20962453719E+01  0.00000000000E+00 0.  1.
          2    1    1    2  501    0  0.37545498396E+01 -0.22306346474E+02  0.91357985216E+03  0.91385984484E+03  0.00000000000E+00 0.  1.
          1    1    1    2  502    0 -0.37545498396E+01  0.22306346474E+02  0.63432887155E+02  0.67345385219E+02  0.00000000000E+00 0.  1.
</event>
<event>
 4    1  0.3767413E+003  0.2342109E+02  0.7546771E-02  0.1487277E+00
          2   -1    0    0  502    0  0.00000000000E+00  0.00000000000E+00  0.14975418434E+03  0.14975418434E+03  0.00000000000E+00 0. -1.
          1   -1    0    0  501    0 -0.00000000000E+00 -0.00000000000E+00 -0.69197938348E+02  0.69197938348E+02  0.00000000000E+00 0.  1.
          2    1    1    2  501    0  0.19896149660E+02  0.12356802450E+02  0.14681723770E+03  0.14867363124E+03  0.00000000000E+00 0. -1.
          1    1    1    2  502    0 -0.19896149660E+02 -0.12356802450E+02 -0.66260991712E+02  0.70278491452E+02  0.00000000000E+00 0.  1.
</event>
<event>
 4    1  0.3767413E+003  0.2164708E+02  0.7546771E-02  0.1510223E+00
          2   -1    0    0  502    0  0.00000000000E+00  0.00000000000E+00  0.22551283702E+01  0.22551283702E+01  0.00000000000E+00 0. -1.
          1   -1    0    0  501    0 -0.00000000000E+00 -0.00000000000E+00 -0.49554418849E+03  0.49554418849E+03  0.00000000000E+00 0.  1.
          2    1    1    2  501    0 -0.21307545271E+02 -0.38189510527E+01 -0.56976988865E+02  0.60950579429E+02  0.00000000000E+00 0. -1.
          1    1    1    2  502    0  0.21307545271E+02  0.38189510527E+01 -0.43631207125E+03  0.43684873743E+03  0.00000000000E+00 0.  1.
</event>
<event>
 4    1  0.3767413E+003  0.2429985E+02  0.7546771E-02  0.1476791E+00
          2   -1    0    0  502    0  0.00000000000E+00  0.00000000000E+00  0.36493541395E+02  0.36493541395E+02  0.00000000000E+00 0. -1.
          1   -1    0    0  501    0 -0.00000000000E+00 -0.00000000000E+00 -0.44659700701E+03  0.44659700701E+03  0.00000000000E+00 0. -1.
          2    1    1    2  501    0 -0.15951678138E+02 -0.18331031714E+02  0.32077509658E+02  0.40242382944E+02  0.00000000000E+00 0. -1.
          1    1    1    2  502    0  0.15951678138E+02  0.18331031714E+02 -0.44218097528E+03  0.44284816547E+03  0.00000000000E+00 0. -1.
</event>
<event>
 4    1  0.3767413E+003  0.2373381E+02  0.7546771E-02  0.1483484E+00
          2   -1    0    0  502    0  0.00000000000E+00  0.00000000000E+00  0.31005771136E+02  0.31005771136E+02  0.00000000000E+00 0. -1.
          1   -1    0    0  501    0 -0.00000000000E+00 -0.00000000000E+00 -0.28471605309E+03  0.28471605309E+03  0.00000000000E+00 0.  1.
          2    1    1    2  501    0  0.23675687026E+02 -0.16600019441E+01  0.25886302086E+02  0.35119715237E+02  0.00000000000E+00 0. -1.
          1    1    1    2  502    0 -0.23675687026E+02  0.16600019441E+01 -0.27959658404E+03  0.28060210899E+03  0.00000000000E+00 0.  1.
</event>
<event>
 4    1  0.3767413E+003  0.2414245E+02  0.7546771E-02  0.1478630E+00
          2   -1    0    0  502    0  0.00000000000E+00  0.00000000000E+00  0.33241320551E+03  0.33241320551E+03  0.00000000000E+00 0.  1.
          1   -1    0    0  501    0 -0.00000000000E+00 -0.00000000000E+00 -0.44176412137E+01  0.44176412137E+01  0.00000000000E+00 0. -1.
          2    1    1    2  501    0 -0.44904256229E+01 -0.23721172370E+02  0.29478710089E+03  0.29577405700E+03  0.00000000000E+00 0.  1.
          1    1    1    2  502    0  0.44904256229E+01  0.23721172370E+02  0.33208463404E+02  0.41056789725E+02  0.00000000000E+00 0. -1.
</event>
<event>
 4    1  0.3767413E+003  0.2096391E+02  0.7546771E-02  0.1519781E+00
          2   -1    0    0  502    0  0.00000000000E+00  0.00000000000E+00  0.23847013217E+01  0.23847013217E+01  0.00000000000E+00 0. -1.
          1   -1    0    0  501    0 -0.00000000000E+00 -0.00000000000E+00 -0.25050598285E+03  0.25050598285E+03  0.00000000000E+00 0. -1.
          2    1    1    2  501    0  0.19425735956E+02 -0.78820164428E+01 -0.59053194519E+02  0.62663906545E+02  0.00000000000E+00 0. -1.
          1    1    1    2  502    0 -0.19425735956E+02  0.78820164428E+01 -0.18906808701E+03  0.19022677763E+03  0.00000000000E+00 0. -1.
</event>
<event>
 4    1  0.3767413E+003  0.2172458E+02  0.7546771E-02  0.1509166E+00
          2   -1    0    0  502    0  0.00000000000E+00  0.00000000000E+00  0.19561097766E+03  0.19561097766E+03  0.00000000000E+00 0. -1.
          1   -1    0    0  501    0 -0.00000000000E+00 -0.00000000000E+00 -0.51036883865E+02  0.51036883865E+02  0.00000000000E+00 0. -1.
          2    1    1    2  501    0 -0.14183055467E+01  0.21678234373E+02  0.19266065831E+03  0.19388163063E+03  0.00000000000E+00 0. -1.
          1    1    1    2  502    0  0.14183055467E+01 -0.21678234373E+02 -0.48086564513E+02  0.52766230894E+02  0.00000000000E+00 0. -1.
</event>
<event>
 4    1  0.3767413E+003  0.2039200E+02  0.7546771E-02  0.1528125E+00
          2   -1    0    0  502    0  0.00000000000E+00  0.00000000000E+00  0.91374728366E+01  0.91374728366E+01  0.00000000000E+00 0. -1.
          1   -1    0    0  501    0 -0.00000000000E+00 -0.00000000000E+00 -0.61458253249E+02  0.61458253249E+02  0.00000000000E+00 0. -1.
          2    1    1    2  501    0 -0.13113093829E+02 -0.15616667582E+02 -0.81785547248E+01  0.21970942026E+02  0.00000000000E+00 0. -1.
          1    1    1    2  502    0  0.13113093829E+02  0.15616667582E+02 -0.44142225687E+02  0.48624784059E+02  0.00000000000E+00 0. -1.
</event>
<event>
 4    1  0.3767413E+003  0.2494321E+02  0.7546771E-02  0.1469440E+00
          2   -1    0    0  502    0  0.00000000000E+00  0.00000000000E+00  0.31644666216E+03  0.31644666216E+03  0.00000000000E+00 0.  1.
          1   -1    0    0  501    0 -0.00000000000E+00 -0.00000000000E+00 -0.10824145349E+03  0.10824145349E+03  0.00000000000E+00 0. -1.
          2    1    1    2  501    0  0.93082109886E+01  0.23141329916E+02  0.31450931916E+03  0.31549687127E+03  0.00000000000E+00 0.  1.
          1    1    1    2  502    0 -0.93082109886E+01 -0.23141329916E+02 -0.10630411049E+03  0.10919124438E+03  0.00000000000E+00 0. -1.
</event>
<event>
 4    1  0.3767413E+003  0.2682272E+02  0.7546771E-02  0.1449397E+00
          2   -1    0    0  502    0  0.00000000000E+00  0.00000000000E+00  0.10369744520E+04  0.10369744520E+04  0.00000000000E+00 0.  1.
          1   -1    0    0  501    0 -0.00000000000E+00 -0.00000000000E+00 -0.14288175469E+02  0.14288175469E+02  0.00000000000E+00 0. -1.
          2    1    1    2  501    0 -0.10517906968E+02 -0.24674525251E+02  0.10240538430E+04  0.10244050624E+04  0.00000000000E+00 0.  1.
          1    1    1    2  502    0  0.10517906968E+02  0.24674525251E+02 -0.13675664441E+01  0.26857565067E+02  0.00000000000E+00 0. -1.
</event>
<event>
 4    1  0.3767413E+003  0.2109307E+02  0.7546771E-02  0.1517940E+00
          2   -1    0    0  502    0  0.00000000000E+00  0.00000000000E+00  0.28859738647E+03  0.28859738647E+03  0.00000000000E+00 0.  1.
          1   -1    0    0  501    0 -0.00000000000E+00 -0.00000000000E+00 -0.88033501367E+02  0.88033501367E+02  0.00000000000E+00 0.  1.
          2    1    1    2  501    0  0.85983018386E+01  0.19261021037E+02  0.28694119994E+03  0.28771543224E+03  0.00000000000E+00 0.  1.
          1    1    1    2  502    0 -0.85983018386E+01 -0.19261021037E+02 -0.86377314836E+02  0.88915455598E+02  0.00000000000E+00 0.  1.
</event>
<event>
 4    1  0.3767413E+003  0.2103300E+02  0.7546771E-02  0.1518794E+00
          2   -1    0    0  502    0  0.00000000000E+00  0.00000000000E+00  0.94141020127E+03  0.94141020127E+03  0.00000000000E+00 0. -1.
          1   -1    0    0  501    0 -0.00000000000E+00 -0.00000000000E+00 -0.14517712337E+01  0.14517712337E+01  0.00000000000E+00 0. -1.
          2    1    1    2  501    0 -0.17644718592E+02 -0.11447752658E+02  0.85767578398E+03  0.85793364403E+03  0.00000000000E+00 0. -1.
          1    1    1    2  502    0  0.17644718592E+02  0.11447752658E+02  0.82282646056E+02  0.84928328473E+02  0.00000000000E+00 0. -1.
</event>
<event>
 4    1  0.3767413E+003  0.2137189E+02  0.7546771E-02  0.1514021E+00
          2   -1    0    0  502    0  0.00000000000E+00  0.00000000000E+00  0.10829567628E+04  0.10829567628E+04  0.00000000000E+00 0. -1.
          1   -1    0    0  501    0 -0.00000000000E+00 -0.00000000000E+00 -0.98298590530E+02  0.98298590530E+02  0.00000000000E+00 0. -1.
          2    1    1    2  501    0  0.13639384236E+02  0.16453717973E+02  0.10816882998E+04  0.10818994110E+04  0.00000000000E+00 0. -1.
          1    1    1    2  502    0 -0.13639384236E+02 -0.16453717973E+02 -0.97030127496E+02  0.99355942345E+02  0.00000000000E+00 0. -1.
</event>
<event>
 4    1  0.3767413E+003  0.2117723E+02  0.7546771E-02  0.1516749E+00
          2   -1    0    0  502    0  0.00000000000E+00  0.00000000000E+00  0.13601270859E+03  0.13601270859E+03  0.00000000000E+00 0. -1.
          1   -1    0    0  501    0 -0.00000000000E+00 -0.00000000000E+00 -0.25739090106E+02  0.25739090106E+02  0.00000000000E+00 0.  1.
          2    1    1    2  501    0  0.94439608246E+00 -0.21156160881E+02  0.13065494372E+03  0.13236007460E+03  0.00000000000E+00 0. -1.
          1    1    1    2  502    0 -0.94439608246E+00  0.21156160881E+02 -0.20381325239E+02  0.29391724102E+02  0.00000000000E+00 0.  1.
</event>
<event>
 4    1  0.3767413E+003  0.4814629E+02  0.7546771E-02  0.1306416E+00
          2   -1    0    0  502    0  0.00000000000E+00  0.00000000000E+00  0.65772748021E+03  0.65772748021E+03  0.00000000000E+00 0. -1.
          1   -1    0    0  501    0 -0.00000000000E+00 -0.00000000000E+00 -0.15304143253E+02  0.15304143253E+02  0.00000000000E+00 0. -1.
          2    1    1    2  501    0 -0.21437360197E+02  0.43110377697E+02  0.61644793687E+03  0.61832525741E+03  0.00000000000E+00 0. -1.
          1    1    1    2  502    0  0.21437360197E+02 -0.43110377697E+02  0.25975400088E+02  0.54706366057E+02  0.00000000000E+00 0. -1.
</event>
<event>
 4    1  0.3767413E+003  0.2139680E+02  0.7546771E-02  0.1513674E+00
          2   -1    0    0  502    0  0.00000000000E+00  0.00000000000E+00  0.78752251623E+03  0.78752251623E+03  0.00000000000E+00 0. -1.
          1   -1    0    0  501    0 -0.00000000000E+00 -0.00000000000E+00 -0.60571566169E+02  0.60571566169E+02  0.00000000000E+00 0. -1.
          2    1    1    2  501    0  0.14920059482E+02 -0.15336715459E+02  0.78548267811E+03  0.78577405189E+03  0.00000000000E+00 0. -1.
          1    1    1    2  502    0 -0.14920059482E+02  0.15336715459E+02 -0.58531728041E+02  0.62320030515E+02  0.00000000000E+00 0. -1.
</event>
<event>
 4    1  0.3767413E+003  0.2005323E+02  0.7546771E-02  0.1533223E+00
          2   -1    0    0  502    0  0.00000000000E+00  0.00000000000E+00  0.43465938027E+02  0.43465938027E+02  0.00000000000E+00 0.  1.
          1   -1    0    0  501    0 -0.00000000000E+00 -0.00000000000E+00 -0.19221907627E+03  0.19221907627E+03  0.00000000000E+00 0.  1.
          2    1    1    2  501    0  0.56893931872E+01 -0.19229222320E+02  0.40595038906E+02  0.45277912603E+02  0.00000000000E+00 0.  1.
          1    1    1    2  502    0 -0.56893931872E+01  0.19229222320E+02 -0.18934817715E+03  0.19040710169E+03  0.00000000000E+00 0.  1.
</event>
<event>
 4    1  0.3767413E+003  0.3955543E+02  0.7546771E-02  0.1351111E+00
          2   -1    0    0  502    0  0.00000000000E+00  0.00000000000E+00  0.49287066471E+03  0.49287066471E+03  0.00000000000E+00 0. -1.
          1   -1    0    0  501    0 -0.00000000000E+00 -0.00000000000E+00 -0.12471322765E+03  0.12471322765E+03  0.00000000000E+00 0.  1.
          2    1    1    2  501    0 -0.39375021297E+02 -0.37735292297E+01  0.48891524020E+03  0.49051273574E+03  0.00000000000E+00 0. -1.
          1    1    1    2  502    0  0.39375021297E+02  0.37735292297E+01 -0.12075780314E+03  0.12707115662E+03  0.00000000000E+00 0.  1.
</event>
<event>
 4    1  0.3767413E+003  0.2434941E+02  0.7546771E-02  0.1476215E+00
          2   -1    0    0  502    0  0.00000000000E+00  0.00000000000E+00  0.12576544828E+02  0.12576544828E+02  0.00000000000E+00 0.  1.
          1   -1    0    0  501    0 -0.00000000000E+00 -0.00000000000E+00 -0.29879775909E+03  0.29879775909E+03  0.00000000000E+00 0. -1.
          2    1    1    2  501    0  0.21951543207E+02 -0.10536777005E+02 -0.23212550253E+00  0.24350519524E+02  0.00000000000E+00 0.  1.
          1    1    1    2  502    0 -0.21951543207E+02  0.10536777005E+02 -0.28598908876E+03  0.28702378440E+03  0.00000000000E+00 0. -1.
</event>
<event>
 4    1  0.3767413E+003  0.2309759E+02  0.7546771E-02  0.1491276E+00
          2   -1    0    0  502    0  0.00000000000E+00  0.00000000000E+00  0.32149012076E+01  0.32149012076E+01  0.00000000000E+00 0.  1.
          1   -1    0    0  501    0 -0.00000000000E+00 -0.00000000000E+00 -0.33398007593E+03  0.33398007593E+03  0.00000000000E+00 0. -1.
          2    1    1    2  501    0 -0.17379447061E+02  0.15213602667E+02 -0.45793941426E+02  0.51289218726E+02  0.00000000000E+00 0.  1.
          1    1    1    2  502    0  0.17379447061E+02 -0.15213602667E+02 -0.28497123329E+03  0.28590575841E+03  0.00000000000E+00 0. -1.
</event>
<event>
 4    1  0.3767413E+003  0.2513091E+02  0.7546771E-02  0.1467344E+00
          2   -1    0    0  502    0  0.00000000000E+00  0.00000000000E+00  0.36912717511E+02  0.36912717511E+02  0.00000000000E+00 0.  1.
          1   -1    0    0  501    0 -0.00000000000E+00 -0.00000000000E+00 -0.15342818941E+03  0.15342818941E+03  0.00000000000E+00 0. -1.
          2    1    1    2  501    0  0.13866894492E+02  0.20958808247E+02  0.31449417399E+02  0.40257027470E+02  0.00000000000E+00 0.  1.
          1    1    1    2  502    0 -0.13866894492E+02 -0.20958808247E+02 -0.14796488929E+03  0.15008387945E+03  0.00000000000E+00 0. -1.
</event>
<event>
 4    1  0.3767413E+003  0.2854590E+02  0.7546771E-02  0.1432668E+00
          2   -1    0    0  502    0  0.00000000000E+00  0.00000000000E+00  0.36114243743E+03  0.36114243743E+03  0.00000000000E+00 0.  1.
          1   -1    0    0  501    0 -0.00000000000E+00 -0.00000000000E+00 -0.44881805362E+03  0.44881805362E+03  0.00000000000E+00 0.  1.
          2    1    1    2  501    0  0.11770238620E+02  0.26006340759E+02  0.36012316734E+03  0.36125277014E+03  0.00000000000E+00 0.  1.
          1    1    1    2  502    0 -0.11770238620E+02 -0.26006340759E+02 -0.44779878353E+03  0.44870772091E+03  0.00000000000E+00 0.  1.
</event>
<event>
 4    1  0.3767413E+003  0.2143228E+02  0.7546771E-02  0.1513182E+00
          2   -1    0    0  502    0  0.00000000000E+00  0.00000000000E+00  0.27408998160E+01  0.27408998160E+01  0.00000000000E+00 0.  1.
          1   -1    0    0  501    0 -0.00000000000E+00 -0.00000000000E+00 -0.71731243898E+03  0.71731243898E+03  0.00000000000E+00 0. -1.
          2    1    1    2  501    0 -0.13216305978E+02 -0.16872223852E+02 -0.42109940303E+02  0.47250288398E+02  0.00000000000E+00 0.  1.
          1    1    1    2  502    0  0.13216305978E+02  0.16872223852E+02 -0.67246159886E+03  0.67280305040E+03  0.00000000000E+00 0. -1.
</event>
<event>
 4    1  0.3767413E+003  0.2089123E+02  0.7546771E-02  0.1520823E+00
          2   -1    0    0  502    0  0.00000000000E+00  0.00000000000E+00  0.14091019750E+02  0.14091019750E+02  0.00000000000E+00 0.  1.
          1   -1    0    0  501    0 -0.00000000000E+00 -0.00000000000E+00 -0.11735593930E+03  0.11735593930E+03  0.00000000000E+00 0.  1.
          2    1    1    2  501    0 -0.20834289740E+02  0.15413751486E+01  0.47548775481E+01  0.21425506454E+02  0.00000000000E+00 0.  1.
          1    1    1    2  502    0  0.20834289740E+02 -0.15413751486E+01 -0.10801979710E+03  0.11002145260E+03  0.00000000000E+00 0.  1.
</event>
<event>
 4    1  0.3767413E+003  0.4400293E+02  0.7546771E-02  0.1326501E+00
          2   -1    0    0  502    0  0.00000000000E+00  0.00000000000E+00  0.11336297925E+04  0.11336297925E+04  0.00000000000E+00 0. -1.
          1   -1    0    0  501    0 -0.00000000000E+00 -0.00000000000E+00 -0.16920412110E+02  0.16920412110E+02  0.00000000000E+00 0. -1.
          2    1    1    2  501    0 -0.38218256691E+02  0.21808765838E+02  0.11038222510E+04  0.11046989722E+04  0.00000000000E+00 0. -1.
          1    1    1    2  502    0  0.38218256691E+02 -0.21808765838E+02  0.12887129447E+02  0.45851232451E+02  0.00000000000E+00 0. -1.
</event>
<event>
 4    1  0.3767413E+003  0.3116868E+02  0.7546771E-02  0.1409705E+00
          2   -1    0    0  502    0  0.00000000000E+00  0.00000000000E+00  0.57367069814E+02  0.57367069814E+02  0.00000000000E+00 0. -1.
          1   -1    0    0  501    0 -0.00000000000E+00 -0.00000000000E+00 -0.32672764181E+02  0.32672764181E+02  0.00000000000E+00 0.  1.
          2    1    1    2  501    0  0.15604006810E+02 -0.26981499339E+02  0.43592782304E+02  0.53589336664E+02  0.00000000000E+00 0. -1.
          1    1    1    2  502    0 -0.15604006810E+02  0.26981499339E+02 -0.18898476671E+02  0.36450497330E+02  0.00000000000E+00 0.  1.
</event>
<event>
 4    1  0.3767413E+003  0.2789671E+02  0.7546771E-02  0.1438803E+00
          2   -1    0    0  502    0  0.00000000000E+00  0.00000000000E+00  0.29198331151E+01  0.29198331151E+01  0.00000000000E+00 0.  1.
          1   -1    0    0  501    0 -0.00000000000E+00 -0.00000000000E+00 -0.12532198685E+04  0.12532198685E+04  0.00000000000E+00 0.  1.
          2    1    1    2  501    0  0.25500718845E+02 -0.11311050610E+02 -0.67855990776E+02  0.73366627371E+02  0.00000000000E+00 0.  1.
          1    1    1    2  502    0 -0.25500718845E+02  0.11311050610E+02 -0.11824440447E+04  0.11827730743E+04  0.00000000000E+00 0.  1.
</event>
<event>
 4    1  0.3767413E+003  0.2845222E+02  0.7546771E-02  0.1433541E+00
          2   -1    0    0  502    0  0.00000000000E+00  0.00000000000E+00  0.37405898089E+02  0.37405898089E+02  0.00000000000E+00 0.  1.
          1   -1    0    0  501    0 -0.00000000000E+00 -0.00000000000E+00 -0.25129775028E+03  0.25129775028E+03  0.00000000000E+00 0.  1.
          2    1    1    2  501    0  0.21583286382E+02 -0.18538890083E+02  0.31050196764E+02  0.42114646094E+02  0.00000000000E+00 0.  1.
          1    1    1    2  502    0 -0.21583286382E+02  0.18538890083E+02 -0.24494204895E+03  0.24658900227E+03  0.00000000000E+00 0.  1.
</event>
<event>
 4    1  0.3767413E+003  0.4975391E+02  0.7546771E-02  0.1299243E+00
          2   -1    0    0  502    0  0.00000000000E+00  0.00000000000E+00  0.10708236042E+04  0.10708236042E+04  0.00000000000E+00 0.  1.
          1   -1    0    0  501    0 -0.00000000000E+00 -0.00000000000E+00 -0.10192397568E+02  0.10192397568E+02  0.00000000000E+00 0. -1.
          2    1    1    2  501    0  0.15803967103E+01 -0.49728803311E+02  0.10055912306E+04  0.10068213221E+04  0.00000000000E+00 0.  1.
          1    1    1    2  502    0 -0.15803967103E+01  0.49728803311E+02  0.55039976030E+02  0.74194679687E+02  0.00000000000E+00 0. -1.
</event>
<event>
 4    1  0.3767413E+003  0.3675298E+02  0.7546771E-02  0.1368641E+00
          2   -1    0    0  502    0  0.00000000000E+00  0.00000000000E+00  0.13514864150E+03  0.13514864150E+03  0.00000000000E+00 0. -1.
          1   -1    0    0  501    0 -0.00000000000E+00 -0.00000000000E+00 -0.14836911723E+04  0.14836911723E+04  0.00000000000E+00 0. -1.
          2    1    1    2  501    0  0.36689295578E+02  0.21627495448E+01  0.13241773285E+03  0.13742357101E+03  0.00000000000E+00 0. -1.
          1    1    1    2  502    0 -0.36689295578E+02 -0.21627495448E+01 -0.14809602637E+04  0.14814162428E+04  0.00000000000E+00 0. -1.
</event>
<event>
 4    1  0.3767413E+003  0.2252736E+02  0.7546771E-02  0.1498520E+00
          2   -1    0    0  502    0  0.00000000000E+00  0.00000000000E+00  0.21894478165E+02  0.21894478165E+02  0.00000000000E+00 0. -1.
          1   -1    0    0  501    0 -0.00000000000E+00 -0.00000000000E+00 -0.39164102617E+02  0.39164102617E+02  0.00000000000E+00 0.  1.
          2    1    1    2  501    0  0.20752966513E+02 -0.87633431874E+01  0.10869773427E+02  0.25012672334E+02  0.00000000000E+00 0. -1.
          1    1    1    2  502    0 -0.20752966513E+02  0.87633431874E+01 -0.28139397879E+02  0.36045908449E+02  0.00000000000E+00 0.  1.
</event>
<event>
 4    1  0.3767413E+003  0.2140286E+02  0.7546771E-02  0.1513590E+00
          2   -1    0    0  502    0  0.00000000000E+00  0.00000000000E+00  0.15860833545E+01  0.15860833545E+01  0.00000000000E+00 0. -1.
          1   -1    0    0  501    0 -0.00000000000E+00 -0.00000000000E+00 -0.34356743876E+03  0.34356743876E+03  0.00000000000E+00 0. -1.
          2    1    1    2  501    0 -0.21123726775E+02  0.34453592422E+01 -0.10209628481E+03  0.10431554872E+03  0.00000000000E+00 0. -1.
          1    1    1    2  502    0  0.21123726775E+02 -0.34453592422E+01 -0.23988507060E+03  0.24083797339E+03  0.00000000000E+00 0. -1.
</event>
<event>
 4    1  0.3767413E+003  0.3667463E+02  0.7546771E-02  0.1369157E+00
          2   -1    0    0  502    0  0.00000000000E+00  0.00000000000E+00  0.18278829111E+02  0.18278829111E+02  0.00000000000E+00 0. -1.
          1   -1    0    0  501    0 -0.00000000000E+00 -0.00000000000E+00 -0.17092668306E+03  0.17092668306E+03  0.00000000000E+00 0. -1.
          2    1    1    2  501    0  0.34450750774E+02  0.12576743375E+02 -0.49317552636E+01  0.37004741761E+02  0.00000000000E+00 0. -1.
          1    1    1    2  502    0 -0.34450750774E+02 -0.12576743375E+02 -0.14771609868E+03  0.15220077041E+03  0.00000000000E+00 0. -1.
</event>
<event>
 4    1  0.3767413E+003  0.4697676E+02  0.7546771E-02  0.1311841E+00
          2   -1    0    0  502    0  0.00000000000E+00  0.00000000000E+00  0.63246456095E+03  0.63246456095E+03  0.00000000000E+00 0. -1.
          1   -1    0    0  501    0 -0.00000000000E+00 -0.00000000000E+00 -0.88748587763E+01  0.88748587763E+01  0.00000000000E+00 0. -1.
          2    1    1    2  501    0  0.45287906437E+02  0.12482834262E+02  0.56159652133E+03  0.56355786605E+03  0.00000000000E+00 0. -1.
          1    1    1    2  502    0 -0.45287906437E+02 -0.12482834262E+02  0.61993180845E+02  0.77781553674E+02  0.00000000000E+00 0. -1.
</event>
<event>
 4    1  0.3767413E+003  0.4137085E+02  0.7546771E-02  0.1340635E+00
          2   -1    0    0  502    0  0.00000000000E+00  0.00000000000E+00  0.72833114483E+02  0.72833114483E+02  0.00000000000E+00 0.  1.
          1   -1    0    0  501    0 -0.00000000000E+00 -0.00000000000E+00 -0.43372948207E+02  0.43372948207E+02  0.00000000000E+00 0.  1.
          2    1    1    2  501    0  0.40151784813E+01 -0.41175544203E+02  0.54060190682E+02  0.68073866610E+02  0.00000000000E+00 0.  1.
          1    1    1    2  502    0 -0.40151784813E+01  0.41175544203E+02 -0.24600024406E+02  0.48132196080E+02  0.00000000000E+00 0.  1.
</event>
<event>
 4    1  0.3767413E+003  0.2052950E+02  0.7546771E-02  0.1526089E+00
          2   -1    0    0  502    0  0.00000000000E+00  0.00000000000E+00  0.77981159524E+01  0.77981159524E+01  0.00000000000E+00 0.  1.
          1   -1    0    0  501    0 -0.00000000000E+00 -0.00000000000E+00 -0.62953404995E+02  0.62953404995E+02  0.00000000000E+00 0. -1.
          2    1    1    2  501    0 -0.14413184088E+02  0.14619189419E+02 -0.14271246287E+02  0.25002580775E+02  0.00000000000E+00 0.  1.
          1    1    1    2  502    0  0.14413184088E+02 -0.14619189419E+02 -0.40884042755E+02  0.45748940172E+02  0.00000000000E+00 0. -1.
</event>
<event>
 4    1  0.3767413E+003  0.2924971E+02  0.7546771E-02  0.1426230E+00
          2   -1    0    0  502    0  0.00000000000E+00  0.00000000000E+00  0.11467158534E+04  0.11467158534E+04  0.00000000000E+00 0.  1.
          1   -1    0    0  501    0 -0.00000000000E+00 -0.00000000000E+00 -0.16050594882E+01  0.16050594882E+01  0.00000000000E+00 0.  1.
          2    1    1    2  501    0 -0.23289057520E+02  0.17696480185E+02  0.99258341434E+03  0.99301428994E+03  0.00000000000E+00 0.  1.
          1    1    1    2  502    0  0.23289057520E+02 -0.17696480185E+02  0.15252737957E+03  0.15530662294E+03  0.00000000000E+00 0.  1.
</event>
<event>
 4    1  0.3767413E+003  0.2308156E+02  0.7546771E-02  0.1491477E+00
          2   -1    0    0  502    0  0.00000000000E+00  0.00000000000E+00  0.57590876974E+02  0.57590876974E+02  0.00000000000E+00 0.  1.
          1   -1    0    0  501    0 -0.00000000000E+00 -0.00000000000E+00 -0.98989750598E+01  0.98989750598E+01  0.00000000000E+00 0.  1.
          2    1    1    2  501    0  0.11826819211E+02  0.19821315800E+02  0.32481296486E+02  0.39847118266E+02  0.00000000000E+00 0.  1.
          1    1    1    2  502    0 -0.11826819211E+02 -0.19821315800E+02  0.15210605428E+02  0.27642733768E+02  0.00000000000E+00 0.  1.
</event>
<event>
 4    1  0.3767413E+003  0.2331122E+02  0.7546771E-02  0.1488627E+00
          2   -1    0    0  502    0  0.00000000000E+00  0.00000000000E+00  0.98612563734E+02  0.98612563734E+02  0.00000000000E+00 0.  1.
          1   -1    0    0  501    0 -0.00000000000E+00 -0.00000000000E+00 -0.14902235878E+04  0.14902235878E+04  0.00000000000E+00 0. -1.
          2    1    1    2  501    0 -0.28893386099E+01 -0.23131470402E+02  0.97142393360E+02  0.99900239180E+02  0.00000000000E+00 0.  1.
          1    1    1    2  502    0  0.28893386099E+01  0.23131470402E+02 -0.14887534174E+04  0.14889359123E+04  0.00000000000E+00 0. -1.
</event>
<event>
 4    1  0.3767413E+003  0.2468642E+02  0.7546771E-02  0.1472342E+00
          2   -1    0    0  502    0  0.00000000000E+00  0.00000000000E+00  0.39431776084E+03  0.39431776084E+03  0.00000000000E+00 0.  1.
          1   -1    0    0  501    0 -0.00000000000E+00 -0.00000000000E+00 -0.18241904477E+01  0.18241904477E+01  0.00000000000E+00 0.  1.
          2    1    1    2  501    0 -0.19477563324E+02 -0.15167202629E+02  0.27366515267E+03  0.27477633685E+03  0.00000000000E+00 0.  1.
          1    1    1    2  502    0  0.19477563324E+02  0.15167202629E+02  0.11882841772E+03  0.12136561444E+03  0.00000000000E+00 0.  1.
</event>
<event>
 4    1  0.3767413E+003  0.2230369E+02  0.7546771E-02  0.1501432E+00
          2   -1    0    0  502    0  0.00000000000E+00  0.00000000000E+00  0.18994078914E+02  0.18994078914E+02  0.00000000000E+00 0.  1.
          1   -1    0    0  501    0 -0.00000000000E+00 -0.00000000000E+00 -0.37599392371E+02  0.37599392371E+02  0.00000000000E+00 0. -1.
          2    1    1    2  501    0  0.10243091408E+02 -0.19812461165E+02  0.62848829038E+01  0.23172274211E+02  0.00000000000E+00 0.  1.
          1    1    1    2  502    0 -0.10243091408E+02  0.19812461165E+02 -0.24890196361E+02  0.33421197074E+02  0.00000000000E+00 0. -1.
</event>
<event>
 4    1  0.3767413E+003  0.3061147E+02  0.7546771E-02  0.1414356E+00
          2   -1    0    0  502    0  0.00000000000E+00  0.00000000000E+00  0.16198891401E+04  0.16198891401E+04  0.00000000000E+00 0. -1.
          1   -1    0    0  501    0 -0.00000000000E+00 -0.00000000000E+00 -0.16128076006E+01  0.16128076006E+01  0.00000000000E+00 0. -1.
          2    1    1    2  501    0 -0.62296241225E+01 -0.29970879277E+02  0.14584103017E+04  0.14587315277E+04  0.00000000000E+00 0. -1.
          1    1    1    2  502    0  0.62296241225E+01  0.29970879277E+02  0.15986603078E+03  0.16277041998E+03  0.00000000000E+00 0. -1.
</event>
<event>
 4    1  0.3767413E+003  0.3717383E+02  0.7546771E-02  0.1365893E+00
          2   -1    0    0  502    0  0.00000000000E+00  0.00000000000E+00  0.10641658496E+02  0.10641658496E+02  0.00000000000E+00 0.  1.
          1   -1    0    0  501    0 -0.00000000000E+00 -0.00000000000E+00 -0.14132532260E+03  0.14132532260E+03  0.00000000000E+00 0. -1.
          2    1    1    2  501    0  0.33994439438E+02 -0.15042323056E+02 -0.43696711852E+02  0.57369818043E+02  0.00000000000E+00 0.  1.
          1    1    1    2  502    0 -0.33994439438E+02  0.15042323056E+02 -0.86986952247E+02  0.94597163049E+02  0.00000000000E+00 0. -1.
</event>
<event>
 4    1  0.3767413E+003  0.3552089E+02  0.7546771E-02  0.1376938E+00
          2   -1    0    0  502    0  0.00000000000E+00  0.00000000000E+00  0.41033419564E+01  0.41033419564E+01  0.00000000000E+00 0.  1.
          1   -1    0    0  501    0 -0.00000000000E+00 -0.00000000000E+00 -0.61085544150E+03  0.61085544150E+03  0.00000000000E+00 0. -1.
          2    1    1    2  501    0 -0.24308945934E+02 -0.25899973546E+02 -0.86690280737E+02  0.93685315052E+02  0.00000000000E+00 0.  1.
          1    1    1    2  502    0  0.24308945934E+02  0.25899973546E+02 -0.52006181881E+03  0.52127346841E+03  0.00000000000E+00 0. -1.
</event>
<event>
 4    1  0.5018202E+003  0.3093981E+02  0.7546771E-02  0.1411601E+00
          2   -1    0    0  502    0  0.00000000000E+00  0.00000000000E+00  0.77267626577E+03  0.77267626577E+03  0.00000000000E+00 0. -1.
          1   -1    0    0  501    0 -0.00000000000E+00 -0.00000000000E+00 -0.83279499349E+03  0.83279499349E+03  0.00000000000E+00 0. -1.
          2    1    1    2  501    0  0.38069828425E+01 -0.30704702832E+02  0.77207895027E+03  0.77269863293E+03  0.00000000000E+00 0. -1.
          1    1    1    2  502    0 -0.38069828425E+01  0.30704702832E+02 -0.83219767799E+03  0.83277262632E+03  0.00000000000E+00 0. -1.
</event>
<event>
 4    1  0.3767413E+003  0.3530730E+02  0.7546771E-02  0.1378416E+00
          2   -1    0    0  502    0  0.00000000000E+00  0.00000000000E+00  0.13156774071E+02  0.13156774071E+02  0.00000000000E+00 0. -1.
          1   -1    0    0  501    0 -0.00000000000E+00 -0.00000000000E+00 -0.23663679707E+03  0.23663679707E+03  0.00000000000E+00 0.  1.
          2    1    1    2  501    0 -0.24970825753E+02  0.24961242064E+02 -0.15027880777E+02  0.38372424276E+02  0.00000000000E+00 0. -1.
          1    1    1    2  502    0  0.24970825753E+02 -0.24961242064E+02 -0.20845214222E+03  0.21142114686E+03  0.00000000000E+00 0.  1.
</event>
<event>
 4    1  0.3767413E+003  0.5683117E+02  0.7546771E-02  0.1270997E+00
          2   -1    0    0  502    0  0.00000000000E+00  0.00000000000E+00  0.69264391542E+03  0.69264391542E+03  0.00000000000E+00 0.  1.
          1   -1    0    0  501    0 -0.00000000000E+00 -0.00000000000E+00 -0.15892213551E+02  0.15892213551E+02  0.00000000000E+00 0.  1.
          2    1    1    2  501    0 -0.56172087443E+02 -0.86300685026E+01  0.63616917402E+03  0.63870259078E+03  0.00000000000E+00 0.  1.
          1    1    1    2  502    0  0.56172087443E+02  0.86300685026E+01  0.40582527846E+02  0.69833538192E+02  0.00000000000E+00 0.  1.
</event>
<event>
 4    1  0.3767413E+003  0.3604779E+02  0.7546771E-02  0.1373343E+00
          2   -1    0    0  502    0  0.00000000000E+00  0.00000000000E+00  0.14589172842E+03  0.14589172842E+03  0.00000000000E+00 0.  1.
          1   -1    0    0  501    0 -0.00000000000E+00 -0.00000000000E+00 -0.26769349029E+02  0.26769349029E+02  0.00000000000E+00 0.  1.
          2    1    1    2  501    0  0.35590990968E+02  0.57205566526E+01  0.13008179256E+03  0.13498413300E+03  0.00000000000E+00 0.  1.
          1    1    1    2  502    0 -0.35590990968E+02 -0.57205566526E+01 -0.10959413163E+02  0.37676944454E+02  0.00000000000E+00 0.  1.
</event>
<event>
 4    1  0.3767413E+003  0.2547483E+02  0.7546771E-02  0.1463561E+00
          2   -1    0    0  502    0  0.00000000000E+00  0.00000000000E+00  0.91921952253E+02  0.91921952253E+02  0.00000000000E+00 0.  1.
          1   -1    0    0  501    0 -0.00000000000E+00 -0.00000000000E+00 -0.41017255445E+02  0.41017255445E+02  0.00000000000E+00 0. -1.
          2    1    1    2  501    0 -0.25474221476E+02 -0.17624376693E+00  0.85931573635E+02  0.89628133803E+02  0.00000000000E+00 0.  1.
          1    1    1    2  502    0  0.25474221476E+02  0.17624376693E+00 -0.35026876827E+02  0.43311073895E+02  0.00000000000E+00 0. -1.
</event>
<event>
 4    1  0.3767413E+003  0.2939595E+02  0.7546771E-02  0.1424919E+00
          2   -1    0    0  502    0  0.00000000000E+00  0.00000000000E+00  0.10332434255E+01  0.10332434255E+01  0.00000000000E+00 0. -1.
          1   -1    0    0  501    0 -0.00000000000E+00 -0.00000000000E+00 -0.11942747742E+04  0.11942747742E+04  0.00000000000E+00 0. -1.
          2    1    1    2  501    0  0.40298417797E+01  0.29118421804E+02 -0.26942188894E+03  0.27102080428E+03  0.00000000000E+00 0. -1.
          1    1    1    2  502    0 -0.40298417797E+01 -0.29118421804E+02 -0.92381964180E+03  0.92428721331E+03  0.00000000000E+00 0. -1.
</event>
<event>
 4    1  0.3767413E+003  0.2096326E+02  0.7546771E-02  0.1519790E+00
          2   -1    0    0  502    0  0.00000000000E+00  0.00000000000E+00  0.19018001770E+03  0.19018001770E+03  0.00000000000E+00 0.  1.
          1   -1    0    0  501    0 -0.00000000000E+00 -0.00000000000E+00 -0.25122509095E+03  0.25122509095E+03  0.00000000000E+00 0.  1.
          2    1    1    2  501    0 -0.20141713386E+02 -0.58111786581E+01  0.18916267009E+03  0.19032071399E+03  0.00000000000E+00 0.  1.
          1    1    1    2  502    0  0.20141713386E+02  0.58111786581E+01 -0.25020774335E+03  0.25108439467E+03  0.00000000000E+00 0.  1.
</event>
<event>
 4    1  0.3767413E+003  0.4666925E+02  0.7546771E-02  0.1313297E+00
          2   -1    0    0  502    0  0.00000000000E+00  0.00000000000E+00  0.17839663648E+04  0.17839663648E+04  0.00000000000E+00 0.  1.
          1   -1    0    0  501    0 -0.00000000000E+00 -0.00000000000E+00 -0.82276972008E+01  0.82276972008E+01  0.00000000000E+00 0. -1.
          2    1    1    2  501    0  0.45923495774E+02  0.83097347134E+01  0.17148133388E+04  0.17154482814E+04  0.00000000000E+00 0.  1.
          1    1    1    2  502    0 -0.45923495774E+02 -0.83097347134E+01  0.60925328829E+02  0.76745780653E+02  0.00000000000E+00 0. -1.
</event>
<event>
 4    1  0.3767413E+003  0.2099265E+02  0.7546771E-02  0.1519370E+00
          2   -1    0    0  502    0  0.00000000000E+00  0.00000000000E+00  0.30190770381E+03  0.30190770381E+03  0.00000000000E+00 0. -1.
          1   -1    0    0  501    0 -0.00000000000E+00 -0.00000000000E+00 -0.11061862363E+03  0.11061862363E+03  0.00000000000E+00 0. -1.
          2    1    1    2  501    0  0.18438902622E+02  0.10034852899E+02  0.30054229199E+03  0.30127456029E+03  0.00000000000E+00 0. -1.
          1    1    1    2  502    0 -0.18438902622E+02 -0.10034852899E+02 -0.10925321182E+03  0.11125176715E+03  0.00000000000E+00 0. -1.
</event>
<event>
 4    1  0.3767413E+003  0.2079290E+02  0.7546771E-02  0.1522242E+00
          2   -1    0    0  502    0  0.00000000000E+00  0.00000000000E+00  0.35421031946E+03  0.35421031946E+03  0.00000000000E+00 0. -1.
          1   -1    0    0  501    0 -0.00000000000E+00 -0.00000000000E+00 -0.15545258660E+02  0.15545258660E+02  0.00000000000E+00 0. -1.
          2    1    1    2  501    0  0.16010988765E+02  0.13266239640E+02  0.34680381175E+03  0.34742658033E+03  0.00000000000E+00 0. -1.
          1    1    1    2  502    0 -0.16010988765E+02 -0.13266239640E+02 -0.81387509486E+01  0.22328997792E+02  0.00000000000E+00 0. -1.
</event>
<event>
 4    1  0.3767413E+003  0.2046411E+02  0.7546771E-02  0.1527055E+00
          2   -1    0    0  502    0  0.00000000000E+00  0.00000000000E+00  0.32912405221E+02  0.32912405221E+02  0.00000000000E+00 0. -1.
          1   -1    0    0  501    0 -0.00000000000E+00 -0.00000000000E+00 -0.65425452929E+03  0.65425452929E+03  0.00000000000E+00 0.  1.
          2    1    1    2  501    0  0.20461155127E+02 -0.34752953114E+00  0.29554962616E+02  0.35948233074E+02  0.00000000000E+00 0. -1.
          1    1    1    2  502    0 -0.20461155127E+02  0.34752953114E+00 -0.65089708669E+03  0.65121870144E+03  0.00000000000E+00 0.  1.
</event>
<event>
 4    1  0.3767413E+003  0.2001384E+02  0.7546771E-02  0.1533824E+00
          2   -1    0    0  502    0  0.00000000000E+00  0.00000000000E+00  0.33662371079E+03  0.33662371079E+03  0.00000000000E+00 0.  1.
          1   -1    0    0  501    0 -0.00000000000E+00 -0.00000000000E+00 -0.78987550063E+01  0.78987550063E+01  0.00000000000E+00 0.  1.
          2    1    1    2  501    0 -0.19833909410E+02  0.26776626453E+01  0.32311912714E+03  0.32373835758E+03  0.00000000000E+00 0.  1.
          1    1    1    2  502    0  0.19833909410E+02 -0.26776626453E+01  0.56058286383E+01  0.20784108219E+02  0.00000000000E+00 0.  1.
</event>
<event>
 4    1  0.3767413E+003  0.2106081E+02  0.7546771E-02  0.1518398E+00
          2   -1    0    0  502    0  0.00000000000E+00  0.00000000000E+00  0.15447059913E+04  0.15447059913E+04  0.00000000000E+00 0. -1.
          1   -1    0    0  501    0 -0.00000000000E+00 -0.00000000000E+00 -0.45191794736E+00  0.45191794736E+00  0.00000000000E+00 0.  1.
          2    1    1    2  501    0  0.18386071589E+02 -0.10271803442E+02  0.12386290239E+04  0.12388080628E+04  0.00000000000E+00 0. -1.
          1    1    1    2  502    0 -0.18386071589E+02  0.10271803442E+02  0.30562504947E+03  0.30634984648E+03  0.00000000000E+00 0.  1.
</event>
<event>
 4    1  0.3767413E+003  0.3523101E+02  0.7546771E-02  0.1378946E+00
          2   -1    0    0  502    0  0.00000000000E+00  0.00000000000E+00  0.46007059216E+03  0.46007059216E+03  0.00000000000E+00 0. -1.
          1   -1    0    0  501    0 -0.00000000000E+00 -0.00000000000E+00 -0.27645567876E+02  0.27645567876E+02  0.00000000000E+00 0.  1.
          2    1    1    2  501    0  0.60771559186E+01 -0.34702913606E+02  0.44786628465E+03  0.44924985583E+03  0.00000000000E+00 0. -1.
          1    1    1    2  502    0 -0.60771559186E+01  0.34702913606E+02 -0.15441260374E+02  0.38466304199E+02  0.00000000000E+00 0.  1.
</event>
<event>
 4    1  0.3767413E+003  0.3118233E+02  0.7546771E-02  0.1409593E+00
          2   -1    0    0  502    0  0.00000000000E+00  0.00000000000E+00  0.43015902312E+03  0.43015902312E+03  0.00000000000E+00 0. -1.
          1   -1    0    0  501    0 -0.00000000000E+00 -0.00000000000E+00 -0.39638028482E+02  0.39638028482E+02  0.00000000000E+00 0.  1.
          2    1    1    2  501    0 -0.28992562191E+02  0.11479059888E+02  0.42336300442E+03  0.42450980081E+03  0.00000000000E+00 0. -1.
          1    1    1    2  502    0  0.28992562191E+02 -0.11479059888E+02 -0.32842009774E+02  0.45287250792E+02  0.00000000000E+00 0.  1.
</event>
<event>
 4    1  0.3767413E+003  0.2177244E+02  0.7546771E-02  0.1508516E+00
          2   -1    0    0  502    0  0.00000000000E+00  0.00000000000E+00  0.17132011310E+04  0.17132011310E+04  0.00000000000E+00 0.  1.
          1   -1    0    0  501    0 -0.00000000000E+00 -0.00000000000E+00 -0.10255090898E+01  0.10255090898E+01  0.00000000000E+00 0.  1.
          2    1    1    2  501    0 -0.21034750890E+02 -0.56194543526E+01  0.15884985007E+04  0.15886477034E+04  0.00000000000E+00 0.  1.
          1    1    1    2  502    0  0.21034750890E+02  0.56194543526E+01  0.12367712130E+03  0.12557893671E+03  0.00000000000E+00 0.  1.
</event>
<event>
 4    1  0.3767413E+003  0.2391500E+02  0.7546771E-02  0.1481317E+00
          2   -1    0    0  502    0  0.00000000000E+00  0.00000000000E+00  0.11625359520E+04  0.11625359520E+04  0.00000000000E+00 0.  1.
          1   -1    0    0  501    0 -0.00000000000E+00 -0.00000000000E+00 -0.12700633590E+01  0.12700633590E+01  0.00000000000E+00 0. -1.
          2    1    1    2  501    0 -0.16805573256E+02  0.17014693915E+02  0.10360980747E+04  0.10363740384E+04  0.00000000000E+00 0.  1.
          1    1    1    2  502    0  0.16805573256E+02 -0.17014693915E+02  0.12516781397E+03  0.12743197697E+03  0.00000000000E+00 0. -1.
</event>
<event>
 4    1  0.3767413E+003  0.2003848E+02  0.7546771E-02  0.1533448E+00
          2   -1    0    0  502    0  0.00000000000E+00  0.00000000000E+00  0.88348003025E+02  0.88348003025E+02  0.00000000000E+00 0.  1.
          1   -1    0    0  501    0 -0.00000000000E+00 -0.00000000000E+00 -0.99261399219E+02  0.99261399219E+02  0.00000000000E+00 0.  1.
          2    1    1    2  501    0  0.99786284360E+01 -0.17377217186E+02  0.86175271676E+02  0.88474392629E+02  0.00000000000E+00 0.  1.
          1    1    1    2  502    0 -0.99786284360E+01  0.17377217186E+02 -0.97088667870E+02  0.99135009615E+02  0.00000000000E+00 0.  1.
</event>
<event>
 4    1  0.3767413E+003  0.3060466E+02  0.7546771E-02  0.1414413E+00
          2   -1    0    0  502    0  0.00000000000E+00  0.00000000000E+00  0.15058575332E+04  0.15058575332E+04  0.00000000000E+00 0. -1.
          1   -1    0    0  501    0 -0.00000000000E+00 -0.00000000000E+00 -0.18193113933E+01  0.18193113933E+01  0.00000000000E+00 0.  1.
          2    1    1    2  501    0  0.30391101357E+02 -0.36091681755E+01  0.13635636554E+04  0.13639070671E+04  0.00000000000E+00 0. -1.
          1    1    1    2  502    0 -0.30391101357E+02  0.36091681755E+01  0.14047456641E+03  0.14376977757E+03  0.00000000000E+00 0.  1.
</event>
<event>
 4    1  0.3767413E+003  0.5762072E+02  0.7546771E-02  0.1268138E+00
          2   -1    0    0  502    0  0.00000000000E+00  0.00000000000E+00  0.22971860294E+02  0.22971860294E+02  0.00000000000E+00 0. -1.
          1   -1    0    0  501    0 -0.00000000000E+00 -0.00000000000E+00 -0.75313818979E+03  0.75313818979E+03  0.00000000000E+00 0.  1.
          2    1    1    2  501    0 -0.57331896674E+02  0.57620039372E+01 -0.16244594071E+02  0.59866801335E+02  0.00000000000E+00 0. -1.
          1    1    1    2  502    0  0.57331896674E+02 -0.57620039372E+01 -0.71392173543E+03  0.71624324875E+03  0.00000000000E+00 0.  1.
</event>
<event>
 4    1  0.3767413E+003  0.2429711E+02  0.7546771E-02  0.1476822E+00
          2   -1    0    0  502    0  0.00000000000E+00  0.00000000000E+00  0.15086915705E+04  0.15086915705E+04  0.00000000000E+00 0.  1.
          1   -1    0    0  501    0 -0.00000000000E+00 -0.00000000000E+00 -0.44874262194E+00  0.44874262194E+00  0.00000000000E+00 0. -1.
          2    1    1    2  501    0 -0.82529671634E+01  0.22852531928E+02  0.10240950910E+04  0.10243832804E+04  0.00000000000E+00 0.  1.
          1    1    1    2  502    0  0.82529671634E+01 -0.22852531928E+02  0.48414773694E+03  0.48475703281E+03  0.00000000000E+00 0. -1.
</event>
<event>
 4    1  0.3767413E+003  0.4134439E+02  0.7546771E-02  0.1340783E+00
          2   -1    0    0  502    0  0.00000000000E+00  0.00000000000E+00  0.24048727432E+02  0.24048727432E+02  0.00000000000E+00 0.  1.
          1   -1    0    0  501    0 -0.00000000000E+00 -0.00000000000E+00 -0.92552139143E+03  0.92552139143E+03  0.00000000000E+00 0. -1.
          2    1    1    2  501    0 -0.52752222022E+01  0.41006474087E+02  0.54530928691E+01  0.41702459258E+02  0.00000000000E+00 0.  1.
          1    1    1    2  502    0  0.52752222022E+01 -0.41006474087E+02 -0.90692575687E+03  0.90786765961E+03  0.00000000000E+00 0. -1.
</event>
<event>
 4    1  0.3767413E+003  0.3113695E+02  0.7546771E-02  0.1409967E+00
          2   -1    0    0  502    0  0.00000000000E+00  0.00000000000E+00  0.41676469563E+02  0.41676469563E+02  0.00000000000E+00 0.  1.
          1   -1    0    0  501    0 -0.00000000000E+00 -0.00000000000E+00 -0.26307239691E+03  0.26307239691E+03  0.00000000000E+00 0. -1.
          2    1    1    2  501    0  0.31135685370E+02 -0.28099413435E+00  0.34783537864E+02  0.46684091161E+02  0.00000000000E+00 0.  1.
          1    1    1    2  502    0 -0.31135685370E+02  0.28099413435E+00 -0.25617946521E+03  0.25806477532E+03  0.00000000000E+00 0. -1.
</event>
<event>
 4    1  0.3767413E+003  0.2249113E+02  0.7546771E-02  0.1498989E+00
          2   -1    0    0  502    0  0.00000000000E+00  0.00000000000E+00  0.79639603906E+03  0.79639603906E+03  0.00000000000E+00 0. -1.
          1   -1    0    0  501    0 -0.00000000000E+00 -0.00000000000E+00 -0.16016205759E+01  0.16016205759E+01  0.00000000000E+00 0. -1.
          2    1    1    2  501    0  0.17543953074E+02  0.14073397298E+02  0.70733927151E+03  0.70769675414E+03  0.00000000000E+00 0. -1.
          1    1    1    2  502    0 -0.17543953074E+02 -0.14073397298E+02  0.87455146972E+02  0.90300905493E+02  0.00000000000E+00 0. -1.
</event>
<event>
 4    1  0.3767413E+003  0.2149162E+02  0.7546771E-02  0.1512360E+00
          2   -1    0    0  502    0  0.00000000000E+00  0.00000000000E+00  0.35254043363E+03  0.35254043363E+03  0.00000000000E+00 0. -1.
          1   -1    0    0  501    0 -0.00000000000E+00 -0.00000000000E+00 -0.38331659914E+03  0.38331659914E+03  0.00000000000E+00 0. -1.
          2    1    1    2  501    0 -0.18301391055E+02  0.11267150104E+02  0.35191110623E+03  0.35256675435E+03  0.00000000000E+00 0. -1.
          1    1    1    2  502    0  0.18301391055E+02 -0.11267150104E+02 -0.38268727173E+03  0.38329027842E+03  0.00000000000E+00 0. -1.
</event>
<event>
 4    1  0.3767413E+003  0.4961048E+02  0.7546771E-02  0.1299870E+00
          2   -1    0    0  502    0  0.00000000000E+00  0.00000000000E+00  0.16545445794E+03  0.16545445794E+03  0.00000000000E+00 0. -1.
          1   -1    0    0  501    0 -0.00000000000E+00 -0.00000000000E+00 -0.16209416908E+02  0.16209416908E+02  0.00000000000E+00 0.  1.
          2    1    1    2  501    0  0.49512799145E+02  0.31117218169E+01  0.10068025662E+03  0.11223953922E+03  0.00000000000E+00 0. -1.
          1    1    1    2  502    0 -0.49512799145E+02 -0.31117218169E+01  0.48564784407E+02  0.69424335621E+02  0.00000000000E+00 0.  1.
</event>
<event>
 4    1  0.3767413E+003  0.2158329E+02  0.7546771E-02  0.1511098E+00
          2   -1    0    0  502    0  0.00000000000E+00  0.00000000000E+00  0.15660942167E+04  0.15660942167E+04  0.00000000000E+00 0. -1.
          1   -1    0    0  501    0 -0.00000000000E+00 -0.00000000000E+00 -0.30713987425E+01  0.30713987425E+01  0.00000000000E+00 0.  1.
          2    1    1    2  501    0 -0.20174617397E+02 -0.76696223861E+01  0.15271351432E+04  0.15272876559E+04  0.00000000000E+00 0. -1.
          1    1    1    2  502    0  0.20174617397E+02  0.76696223861E+01  0.35887674712E+02  0.41877959488E+02  0.00000000000E+00 0.  1.
</event>
<event>
 4    1  0.3767413E+003  0.2241563E+02  0.7546771E-02  0.1499969E+00
          2   -1    0    0  502    0  0.00000000000E+00  0.00000000000E+00  0.56506251645E+03  0.56506251645E+03  0.00000000000E+00 0.  1.
          1   -1    0    0  501    0 -0.00000000000E+00 -0.00000000000E+00 -0.12894281984E+02  0.12894281984E+02  0.00000000000E+00 0.  1.
          2    1    1    2  501    0  0.22307734471E+02  0.21966616863E+01  0.55492031258E+03  0.55537286003E+03  0.00000000000E+00 0.  1.
          1    1    1    2  502    0 -0.22307734471E+02 -0.21966616863E+01 -0.27520781188E+01  0.22583938403E+02  0.00000000000E+00 0.  1.
</event>
<event>
 4    1  0.3767413E+003  0.2045829E+02  0.7546771E-02  0.1527141E+00
          2   -1    0    0  502    0  0.00000000000E+00  0.00000000000E+00  0.21960834232E+02  0.21960834232E+02  0.00000000000E+00 0. -1.
          1   -1    0    0  501    0 -0.00000000000E+00 -0.00000000000E+00 -0.19578969435E+03  0.19578969435E+03  0.00000000000E+00 0.  1.
          2    1    1    2  501    0 -0.88771931540E+01  0.18431963285E+02  0.16526125224E+02  0.26299327820E+02  0.00000000000E+00 0. -1.
          1    1    1    2  502    0  0.88771931540E+01 -0.18431963285E+02 -0.19035498534E+03  0.19145120076E+03  0.00000000000E+00 0.  1.
</event>
<event>
 4    1  0.3767413E+003  0.3248296E+02  0.7546771E-02  0.1399178E+00
          2   -1    0    0  502    0  0.00000000000E+00  0.00000000000E+00  0.23173715549E+03  0.23173715549E+03  0.00000000000E+00 0. -1.
          1   -1    0    0  501    0 -0.00000000000E+00 -0.00000000000E+00 -0.10520132223E+02  0.10520132223E+02  0.00000000000E+00 0. -1.
          2    1    1    2  501    0 -0.19761990746E+02  0.25779965537E+02  0.20183316768E+03  0.20443035605E+03  0.00000000000E+00 0. -1.
          1    1    1    2  502    0  0.19761990746E+02 -0.25779965537E+02  0.19383855591E+02  0.37826931661E+02  0.00000000000E+00 0. -1.
</event>
<event>
 4    1  0.3767413E+003  0.3502761E+02  0.7546771E-02  0.1380369E+00
          2   -1    0    0  502    0  0.00000000000E+00  0.00000000000E+00  0.60061895937E+03  0.60061895937E+03  0.00000000000E+00 0.  1.
          1   -1    0    0  501    0 -0.00000000000E+00 -0.00000000000E+00 -0.23510631738E+01  0.23510631738E+01  0.00000000000E+00 0.  1.
          2    1    1    2  501    0  0.31017064929E+02  0.16274983278E+02  0.40830495462E+03  0.40980467221E+03  0.00000000000E+00 0.  1.
          1    1    1    2  502    0 -0.31017064929E+02 -0.16274983278E+02  0.18996294157E+03  0.19316535033E+03  0.00000000000E+00 0.  1.
</event>
<event>
 4    1  0.3767413E+003  0.2042990E+02  0.7546771E-02  0.1527562E+00
          2   -1    0    0  502    0  0.00000000000E+00  0.00000000000E+00  0.82301454373E+03  0.82301454373E+03  0.00000000000E+00 0. -1.
          1   -1    0    0  501    0 -0.00000000000E+00 -0.00000000000E+00 -0.14591927307E+01  0.14591927307E+01  0.00000000000E+00 0.  1.
          2    1    1    2  501    0  0.12972638466E+02 -0.15782632415E+02  0.74376045033E+03  0.74404098563E+03  0.00000000000E+00 0. -1.
          1    1    1    2  502    0 -0.12972638466E+02  0.15782632415E+02  0.77794900674E+02  0.80432750827E+02  0.00000000000E+00 0.  1.
</event>
<event>
 4    1  0.3767413E+003  0.2992383E+02  0.7546771E-02  0.1420260E+00
          2   -1    0    0  502    0  0.00000000000E+00  0.00000000000E+00  0.99829669705E+02  0.99829669705E+02  0.00000000000E+00 0.  1.
          1   -1    0    0  501    0 -0.00000000000E+00 -0.00000000000E+00 -0.19727405889E+03  0.19727405889E+03  0.00000000000E+00 0. -1.
          2    1    1    2  501    0 -0.23568822969E+02  0.18437632326E+02  0.96413213333E+02  0.10095020261E+03  0.00000000000E+00 0.  1.
          1    1    1    2  502    0  0.23568822969E+02 -0.18437632326E+02 -0.19385760252E+03  0.19615352599E+03  0.00000000000E+00 0. -1.
</event>
<event>
 4    1  0.3767413E+003  0.2719209E+02  0.7546771E-02  0.1445688E+00
          2   -1    0    0  502    0  0.00000000000E+00  0.00000000000E+00  0.38487359138E+02  0.38487359138E+02  0.00000000000E+00 0. -1.
          1   -1    0    0  501    0 -0.00000000000E+00 -0.00000000000E+00 -0.10169601363E+04  0.10169601363E+04  0.00000000000E+00 0.  1.
          2    1    1    2  501    0 -0.20570946660E+02  0.17783298924E+02  0.33478884794E+02  0.43130561023E+02  0.00000000000E+00 0. -1.
          1    1    1    2  502    0  0.20570946660E+02 -0.17783298924E+02 -0.10119516620E+04  0.10123169344E+04  0.00000000000E+00 0.  1.
</event>
<event>
 4    1  0.3767413E+003  0.2037425E+02  0.7546771E-02  0.1528389E+00
          2   -1    0    0  502    0  0.00000000000E+00  0.00000000000E+00  0.12053886520E+03  0.12053886520E+03  0.00000000000E+00 0. -1.
          1   -1    0    0  501    0 -0.00000000000E+00 -0.00000000000E+00 -0.33169057708E+02  0.33169057708E+02  0.00000000000E+00 0.  1.
          2    1    1    2  501    0  0.16057485456E+02  0.12540627635E+02  0.11643986274E+03  0.11820893289E+03  0.00000000000E+00 0. -1.
          1    1    1    2  502    0 -0.16057485456E+02 -0.12540627635E+02 -0.29070055243E+02  0.35498990021E+02  0.00000000000E+00 0.  1.
</event>
<event>
 4    1  0.3767413E+003  0.2263976E+02  0.7546771E-02  0.1497072E+00
          2   -1    0    0  502    0  0.00000000000E+00  0.00000000000E+00  0.57030534519E+03  0.57030534519E+03  0.00000000000E+00 0.  1.
          1   -1    0    0  501    0 -0.00000000000E+00 -0.00000000000E+00 -0.85315705693E+01  0.85315705693E+01  0.00000000000E+00 0.  1.
          2    1    1    2  501    0 -0.21415217255E+02  0.73448845964E+01  0.55463706587E+03  0.55509894046E+03  0.00000000000E+00 0.  1.
          1    1    1    2  502    0  0.21415217255E+02 -0.73448845964E+01  0.71367087550E+01  0.23737975307E+02  0.00000000000E+00 0.  1.
</event>
<event>
 4    1  0.3767413E+003  0.5183637E+02  0.7546771E-02  0.1290401E+00
          2   -1    0    0  502    0  0.00000000000E+00  0.00000000000E+00  0.30564006976E+03  0.30564006976E+03  0.00000000000E+00 0.  1.
          1   -1    0    0  501    0 -0.00000000000E+00 -0.00000000000E+00 -0.43593867824E+02  0.43593867824E+02  0.00000000000E+00 0.  1.
          2    1    1    2  501    0  0.48046468396E+02 -0.19456253052E+02  0.28704252337E+03  0.29168547981E+03  0.00000000000E+00 0.  1.
          1    1    1    2  502    0 -0.48046468396E+02  0.19456253052E+02 -0.24996321428E+02  0.57548457782E+02  0.00000000000E+00 0.  1.
</event>
<event>
 4    1  0.3767413E+003  0.2273365E+02  0.7546771E-02  0.1495870E+00
          2   -1    0    0  502    0  0.00000000000E+00  0.00000000000E+00  0.47612711554E+03  0.47612711554E+03  0.00000000000E+00 0.  1.
          1   -1    0    0  501    0 -0.00000000000E+00 -0.00000000000E+00 -0.12453799615E+01  0.12453799615E+01  0.00000000000E+00 0. -1.
          2    1    1    2  501    0 -0.20207974982E+02  0.10414240109E+02  0.32297174356E+03  0.32377085383E+03  0.00000000000E+00 0.  1.
          1    1    1    2  502    0  0.20207974982E+02 -0.10414240109E+02  0.15190999202E+03  0.15360164167E+03  0.00000000000E+00 0. -1.
</event>
<event>
 4    1  0.3767413E+003  0.3712386E+02  0.7546771E-02  0.1366217E+00
          2   -1    0    0  502    0  0.00000000000E+00  0.00000000000E+00  0.47852882061E+03  0.47852882061E+03  0.00000000000E+00 0.  1.
          1   -1    0    0  501    0 -0.00000000000E+00 -0.00000000000E+00 -0.22135713662E+03  0.22135713662E+03  0.00000000000E+00 0.  1.
          2    1    1    2  501    0  0.24587325134E+02 -0.27814458951E+02  0.47624484536E+03  0.47768957851E+03  0.00000000000E+00 0.  1.
          1    1    1    2  502    0 -0.24587325134E+02  0.27814458951E+02 -0.21907316137E+03  0.22219637872E+03  0.00000000000E+00 0.  1.
</event>
<event>
 4    1  0.3767413E+003  0.2144395E+02  0.7546771E-02  0.1513020E+00
          2   -1    0    0  502    0  0.00000000000E+00  0.00000000000E+00  0.11688271560E+04  0.11688271560E+04  0.00000000000E+00 0.  1.
          1   -1    0    0  501    0 -0.00000000000E+00 -0.00000000000E+00 -0.56610175042E+01  0.56610175042E+01  0.00000000000E+00 0. -1.
          2    1    1    2  501    0  0.16299991186E+02 -0.13933891871E+02  0.11480539456E+04  0.11482541988E+04  0.00000000000E+00 0.  1.
          1    1    1    2  502    0 -0.16299991186E+02  0.13933891871E+02  0.15112192928E+02  0.26233974736E+02  0.00000000000E+00 0. -1.
</event>
<event>
 4    1  0.3767413E+003  0.3897342E+02  0.7546771E-02  0.1354609E+00
          2   -1    0    0  502    0  0.00000000000E+00  0.00000000000E+00  0.29072067163E+02  0.29072067163E+02  0.00000000000E+00 0. -1.
          1   -1    0    0  501    0 -0.00000000000E+00 -0.00000000000E+00 -0.47111184781E+03  0.47111184781E+03  0.00000000000E+00 0.  1.
          2    1    1    2  501    0 -0.38796418026E+02 -0.37101375727E+01  0.14796881606E+02  0.41687826493E+02  0.00000000000E+00 0. -1.
          1    1    1    2  502    0  0.38796418026E+02  0.37101375727E+01 -0.45683666225E+03  0.45849608848E+03  0.00000000000E+00 0.  1.
</event>
<event>
 4    1  0.3767413E+003  0.4866441E+02  0.7546771E-02  0.1304069E+00
          2   -1    0    0  502    0  0.00000000000E+00  0.00000000000E+00  0.57766111642E+01  0.57766111642E+01  0.00000000000E+00 0. -1.
          1   -1    0    0  501    0 -0.00000000000E+00 -0.00000000000E+00 -0.81536735379E+03  0.81536735379E+03  0.00000000000E+00 0.  1.
          2    1    1    2  501    0 -0.14897392261E+02  0.46328096641E+02 -0.11529157777E+03  0.12514141097E+03  0.00000000000E+00 0. -1.
          1    1    1    2  502    0  0.14897392261E+02 -0.46328096641E+02 -0.69429916486E+03  0.69600255399E+03  0.00000000000E+00 0.  1.
</event>
<event>
 4    1  0.3767413E+003  0.3158195E+02  0.7546771E-02  0.1406330E+00
          2   -1    0    0  502    0  0.00000000000E+00  0.00000000000E+00  0.22720152976E+04  0.22720152976E+04  0.00000000000E+00 0.  1.
          1   -1    0    0  501    0 -0.00000000000E+00 -0.00000000000E+00 -0.13171628569E+01  0.13171628569E+01  0.00000000000E+00 0.  1.
          2    1    1    2  501    0  0.13961693419E+01 -0.31551070351E+02  0.20634607721E+04  0.20637024440E+04  0.00000000000E+00 0.  1.
          1    1    1    2  502    0 -0.13961693419E+01  0.31551070351E+02  0.20723736264E+03  0.20963001646E+03  0.00000000000E+00 0.  1.
</event>
<event>
 4    1  0.3767413E+003  0.2596378E+02  0.7546771E-02  0.1458304E+00
          2   -1    0    0  502    0  0.00000000000E+00  0.00000000000E+00  0.31569443779E+02  0.31569443779E+02  0.00000000000E+00 0.  1.
          1   -1    0    0  501    0 -0.00000000000E+00 -0.00000000000E+00 -0.22437701411E+02  0.22437701411E+02  0.00000000000E+00 0.  1.
          2    1    1    2  501    0  0.16433103114E+02  0.20101511346E+02  0.10501819095E+02  0.28007246217E+02  0.00000000000E+00 0.  1.
          1    1    1    2  502    0 -0.16433103114E+02 -0.20101511346E+02 -0.13700767272E+01  0.25999898973E+02  0.00000000000E+00 0.  1.
</event>
<event>
 4    1  0.3767413E+003  0.2517242E+02  0.7546771E-02  0.1466884E+00
          2   -1    0    0  502    0  0.00000000000E+00  0.00000000000E+00  0.20143569814E+04  0.20143569814E+04  0.00000000000E+00 0. -1.
          1   -1    0    0  501    0 -0.00000000000E+00 -0.00000000000E+00 -0.35130999677E+00  0.35130999677E+00  0.00000000000E+00 0.  1.
          2    1    1    2  501    0 -0.12503116254E+02 -0.21847713451E+02  0.13327820934E+04  0.13330197894E+04  0.00000000000E+00 0. -1.
          1    1    1    2  502    0  0.12503116254E+02  0.21847713451E+02  0.68122357800E+03  0.68168850197E+03  0.00000000000E+00 0.  1.
</event>
<event>
 4    1  0.3767413E+003  0.2025936E+02  0.7546771E-02  0.1530107E+00
          2   -1    0    0  502    0  0.00000000000E+00  0.00000000000E+00  0.16127792271E+02  0.16127792271E+02  0.00000000000E+00 0. -1.
          1   -1    0    0  501    0 -0.00000000000E+00 -0.00000000000E+00 -0.14279921807E+04  0.14279921807E+04  0.00000000000E+00 0.  1.
          2    1    1    2  501    0  0.18838184367E+02  0.74541570186E+01  0.96646756975E+01  0.22446549923E+02  0.00000000000E+00 0. -1.
          1    1    1    2  502    0 -0.18838184367E+02 -0.74541570186E+01 -0.14215290641E+04  0.14216734230E+04  0.00000000000E+00 0.  1.
</event>
<event>
 4    1  0.3767413E+003  0.4612994E+02  0.7546771E-02  0.1315884E+00
          2   -1    0    0  502    0  0.00000000000E+00  0.00000000000E+00  0.42895239194E+03  0.42895239194E+03  0.00000000000E+00 0. -1.
          1   -1    0    0  501    0 -0.00000000000E+00 -0.00000000000E+00 -0.54711376993E+03  0.54711376993E+03  0.00000000000E+00 0. -1.
          2    1    1    2  501    0  0.27656297462E+02 -0.36920186331E+02  0.42673477742E+03  0.42922085365E+03  0.00000000000E+00 0. -1.
          1    1    1    2  502    0 -0.27656297462E+02  0.36920186331E+02 -0.54489615541E+03  0.54684530823E+03  0.00000000000E+00 0. -1.
</event>
<event>
 4    1  0.3767413E+003  0.2276433E+02  0.7546771E-02  0.1495479E+00
          2   -1    0    0  502    0  0.00000000000E+00  0.00000000000E+00  0.13280828833E+03  0.13280828833E+03  0.00000000000E+00 0. -1.
          1   -1    0    0  501    0 -0.00000000000E+00 -0.00000000000E+00 -0.56686977899E+01  0.56686977899E+01  0.00000000000E+00 0.  1.
          2    1    1    2  501    0  0.16456624195E+02 -0.15728769956E+02  0.10222340895E+03  0.10472745591E+03  0.00000000000E+00 0. -1.
          1    1    1    2  502    0 -0.16456624195E+02  0.15728769956E+02  0.24916181585E+02  0.33749530204E+02  0.00000000000E+00 0.  1.
</event>
<event>
 4    1  0.3767413E+003  0.6307861E+02  0.7546771E-02  0.1249717E+00
          2   -1    0    0  502    0  0.00000000000E+00  0.00000000000E+00  0.20498909818E+04  0.20498909818E+04  0.00000000000E+00 0.  1.
          1   -1    0    0  501    0 -0.00000000000E+00 -0.00000000000E+00 -0.22585607051E+01  0.22585607051E+01  0.00000000000E+00 0.  1.
          2    1    1    2  501    0  0.50191922658E+02  0.38205791720E+02  0.14085426884E+04  0.14099544023E+04  0.00000000000E+00 0.  1.
          1    1    1    2  502    0 -0.50191922658E+02 -0.38205791720E+02  0.63908973272E+03  0.64219514019E+03  0.00000000000E+00 0.  1.
</event>
<event>
 4    1  0.3767413E+003  0.2456562E+02  0.7546771E-02  0.1473722E+00
          2   -1    0    0  502    0  0.00000000000E+00  0.00000000000E+00  0.19692756414E+01  0.19692756414E+01  0.00000000000E+00 0. -1.
          1   -1    0    0  501    0 -0.00000000000E+00 -0.00000000000E+00 -0.40249632169E+03  0.40249632169E+03  0.00000000000E+00 0. -1.
          2    1    1    2  501    0  0.24262566280E+02 -0.38467852329E+01 -0.10147015053E+03  0.10440144313E+03  0.00000000000E+00 0. -1.
          1    1    1    2  502    0 -0.24262566280E+02  0.38467852329E+01 -0.29905689552E+03  0.30006415420E+03  0.00000000000E+00 0. -1.
</event>
<event>
 4    1  0.3767413E+003  0.4815877E+02  0.7546771E-02  0.1306359E+00
          2   -1    0    0  502    0  0.00000000000E+00  0.00000000000E+00  0.12208681709E+03  0.12208681709E+03  0.00000000000E+00 0.  1.
          1   -1    0    0  501    0 -0.00000000000E+00 -0.00000000000E+00 -0.27543182087E+02  0.27543182087E+02  0.00000000000E+00 0.  1.
          2    1    1    2  501    0  0.46108732733E+02 -0.13901408780E+02  0.55972004204E+01  0.48482915061E+02  0.00000000000E+00 0.  1.
          1    1    1    2  502    0 -0.46108732733E+02  0.13901408780E+02  0.88946434585E+02  0.10114708412E+03  0.00000000000E+00 0.  1.
</event>
<event>
 4    1  0.3767413E+003  0.4526304E+02  0.7546771E-02  0.1320129E+00
          2   -1    0    0  502    0  0.00000000000E+00  0.00000000000E+00  0.44610689622E+03  0.44610689622E+03  0.00000000000E+00 0. -1.
          1   -1    0    0  501    0 -0.00000000000E+00 -0.00000000000E+00 -0.11449144093E+03  0.11449144093E+03  0.00000000000E+00 0. -1.
          2    1    1    2  501    0  0.44691591156E+02 -0.71696611078E+01  0.44042766791E+03  0.44274741447E+03  0.00000000000E+00 0. -1.
          1    1    1    2  502    0 -0.44691591156E+02  0.71696611078E+01 -0.10881221262E+03  0.11785092267E+03  0.00000000000E+00 0. -1.
</event>
<event>
 4    1  0.3767413E+003  0.3189318E+02  0.7546771E-02  0.1403828E+00
          2   -1    0    0  502    0  0.00000000000E+00  0.00000000000E+00  0.31583100189E+03  0.31583100189E+03  0.00000000000E+00 0.  1.
          1   -1    0    0  501    0 -0.00000000000E+00 -0.00000000000E+00 -0.70661031415E+01  0.70661031415E+01  0.00000000000E+00 0.  1.
          2    1    1    2  501    0  0.30380364906E+02  0.97060957005E+01  0.27348444786E+03  0.27533782539E+03  0.00000000000E+00 0.  1.
          1    1    1    2  502    0 -0.30380364906E+02 -0.97060957005E+01  0.35280450882E+02  0.47559279642E+02  0.00000000000E+00 0.  1.
</event>
<event>
 4    1  0.3767413E+003  0.2576019E+02  0.7546771E-02  0.1460476E+00
          2   -1    0    0  502    0  0.00000000000E+00  0.00000000000E+00  0.20607435012E+02  0.20607435012E+02  0.00000000000E+00 0. -1.
          1   -1    0    0  501    0 -0.00000000000E+00 -0.00000000000E+00 -0.13049313777E+03  0.13049313777E+03  0.00000000000E+00 0. -1.
          2    1    1    2  501    0 -0.83235707949E+01 -0.24378380255E+02  0.10626500689E+02  0.27865924918E+02  0.00000000000E+00 0. -1.
          1    1    1    2  502    0  0.83235707949E+01  0.24378380255E+02 -0.12051220345E+03  0.12323464786E+03  0.00000000000E+00 0. -1.
</event>
<event>
 4    1  0.3767413E+003  0.2209520E+02  0.7546771E-02  0.1504183E+00
          2   -1    0    0  502    0  0.00000000000E+00  0.00000000000E+00  0.30402279646E+03  0.30402279646E+03  0.00000000000E+00 0.  1.
          1   -1    0    0  501    0 -0.00000000000E+00 -0.00000000000E+00 -0.18443222989E+03  0.18443222989E+03  0.00000000000E+00 0. -1.
          2    1    1    2  501    0 -0.16337720872E+02 -0.14875368782E+02  0.30295726620E+03  0.30376191806E+03  0.00000000000E+00 0.  1.
          1    1    1    2  502    0  0.16337720872E+02  0.14875368782E+02 -0.18336669962E+03  0.18469310829E+03  0.00000000000E+00 0. -1.
</event>
<event>
 4    1  0.3767413E+003  0.6276475E+02  0.7546771E-02  0.1250718E+00
          2   -1    0    0  502    0  0.00000000000E+00  0.00000000000E+00  0.51053610237E+03  0.51053610237E+03  0.00000000000E+00 0.  1.
          1   -1    0    0  501    0 -0.00000000000E+00 -0.00000000000E+00 -0.76144391838E+03  0.76144391838E+03  0.00000000000E+00 0. -1.
          2    1    1    2  501    0  0.23768750400E+02  0.58090105124E+02  0.50730543700E+03  0.51117337589E+03  0.00000000000E+00 0.  1.
          1    1    1    2  502    0 -0.23768750400E+02 -0.58090105124E+02 -0.75821325302E+03  0.76080664486E+03  0.00000000000E+00 0. -1.
</event>
<event>
 4    1  0.3767413E+003  0.3482380E+02  0.7546771E-02  0.1381806E+00
          2   -1    0    0  502    0  0.00000000000E+00  0.00000000000E+00  0.21227938575E+04  0.21227938575E+04  0.00000000000E+00 0. -1.
          1   -1    0    0  501    0 -0.00000000000E+00 -0.00000000000E+00 -0.22027178200E+01  0.22027178200E+01  0.00000000000E+00 0. -1.
          2    1    1    2  501    0 -0.29853304924E+01  0.34695604678E+02  0.19746926960E+04  0.19749997318E+04  0.00000000000E+00 0. -1.
          1    1    1    2  502    0  0.29853304924E+01 -0.34695604678E+02  0.14589844370E+03  0.14999684349E+03  0.00000000000E+00 0. -1.
</event>
<event>
 4    1  0.3767413E+003  0.2229874E+02  0.7546771E-02  0.1501497E+00
          2   -1    0    0  502    0  0.00000000000E+00  0.00000000000E+00  0.16994387258E+03  0.16994387258E+03  0.00000000000E+00 0.  1.
          1   -1    0    0  501    0 -0.00000000000E+00 -0.00000000000E+00 -0.59411871624E+01  0.59411871624E+01  0.00000000000E+00 0. -1.
          2    1    1    2  501    0  0.13596021932E+02 -0.17674332783E+02  0.14465245192E+03  0.14636107986E+03  0.00000000000E+00 0.  1.
          1    1    1    2  502    0 -0.13596021932E+02  0.17674332783E+02  0.19350233501E+02  0.29523979885E+02  0.00000000000E+00 0. -1.
</event>
<event>
 4    1  0.3767413E+003  0.3440569E+02  0.7546771E-02  0.1384790E+00
          2   -1    0    0  502    0  0.00000000000E+00  0.00000000000E+00  0.46544753674E+03  0.46544753674E+03  0.00000000000E+00 0. -1.
          1   -1    0    0  501    0 -0.00000000000E+00 -0.00000000000E+00 -0.72919497368E+02  0.72919497368E+02  0.00000000000E+00 0.  1.
          2    1    1    2  501    0  0.32651635757E+02 -0.10845365183E+02  0.46071164449E+03  0.46199455693E+03  0.00000000000E+00 0. -1.
          1    1    1    2  502    0 -0.32651635757E+02  0.10845365183E+02 -0.68183605118E+02  0.76372477179E+02  0.00000000000E+00 0.  1.
</event>
<event>
 4    1  0.3767413E+003  0.2649196E+02  0.7546771E-02  0.1452779E+00
          2   -1    0    0  502    0  0.00000000000E+00  0.00000000000E+00  0.42083039247E+03  0.42083039247E+03  0.00000000000E+00 0.  1.
          1   -1    0    0  501    0 -0.00000000000E+00 -0.00000000000E+00 -0.64019242865E+01  0.64019242865E+01  0.00000000000E+00 0. -1.
          2    1    1    2  501    0  0.24244672440E+02  0.10677994994E+02  0.39091151043E+03  0.39180815804E+03  0.00000000000E+00 0.  1.
          1    1    1    2  502    0 -0.24244672440E+02 -0.10677994994E+02  0.23516957751E+02  0.35424158715E+02  0.00000000000E+00 0. -1.
</event>
<event>
 4    1  0.3767413E+003  0.2081719E+02  0.7546771E-02  0.1521891E+00
          2   -1    0    0  502    0  0.00000000000E+00  0.00000000000E+00  0.47236730064E+00  0.47236730064E+00  0.00000000000E+00 0.  1.
          1   -1    0    0  501    0 -0.00000000000E+00 -0.00000000000E+00 -0.11108431315E+04  0.11108431315E+04  0.00000000000E+00 0.  1.
          2    1    1    2  501    0 -0.15803995464E+01 -0.20757099064E+02 -0.78705595449E+03  0.78733120751E+03  0.00000000000E+00 0.  1.
          1    1    1    2  502    0  0.15803995464E+01  0.20757099064E+02 -0.32331480966E+03  0.32398429124E+03  0.00000000000E+00 0.  1.
</event>
<event>
 4    1  0.3767413E+003  0.2003740E+02  0.7546771E-02  0.1533465E+00
          2   -1    0    0  502    0  0.00000000000E+00  0.00000000000E+00  0.24946737718E+03  0.24946737718E+03  0.00000000000E+00 0.  1.
          1   -1    0    0  501    0 -0.00000000000E+00 -0.00000000000E+00 -0.34069281364E+03  0.34069281364E+03  0.00000000000E+00 0.  1.
          2    1    1    2  501    0 -0.10080541742E+02  0.17317046007E+02  0.24876957916E+03  0.24957524100E+03  0.00000000000E+00 0.  1.
          1    1    1    2  502    0  0.10080541742E+02 -0.17317046007E+02 -0.33999501562E+03  0.34058494983E+03  0.00000000000E+00 0.  1.
</event>
<event>
 4    1  0.7148282E+003  0.2548857E+02  0.7546771E-02  0.1463411E+00
          2   -1    0    0  502    0  0.00000000000E+00  0.00000000000E+00  0.92830590657E+03  0.92830590657E+03  0.00000000000E+00 0.  1.
          1   -1    0    0  501    0 -0.00000000000E+00 -0.00000000000E+00 -0.11465629988E+04  0.11465629988E+04  0.00000000000E+00 0. -1.
          2    1    1    2  501    0 -0.21308304913E+02  0.13986545216E+02  0.92798924239E+03  0.92833921672E+03  0.00000000000E+00 0.  1.
          1    1    1    2  502    0  0.21308304913E+02 -0.13986545216E+02 -0.11462463347E+04  0.11465296887E+04  0.00000000000E+00 0. -1.
</event>
<event>
 4    1  0.3767413E+003  0.2587631E+02  0.7546771E-02  0.1459234E+00
          2   -1    0    0  502    0  0.00000000000E+00  0.00000000000E+00  0.66764652338E+03  0.66764652338E+03  0.00000000000E+00 0.  1.
          1   -1    0    0  501    0 -0.00000000000E+00 -0.00000000000E+00 -0.38467850909E+02  0.38467850909E+02  0.00000000000E+00 0. -1.
          2    1    1    2  501    0 -0.24224768704E+01 -0.25762671738E+02  0.66301382413E+03  0.66351858651E+03  0.00000000000E+00 0.  1.
          1    1    1    2  502    0  0.24224768704E+01  0.25762671738E+02 -0.33835151659E+02  0.42595787785E+02  0.00000000000E+00 0. -1.
</event>
<event>
 4    1  0.3767413E+003  0.3084304E+02  0.7546771E-02  0.1412409E+00
          2   -1    0    0  502    0  0.00000000000E+00  0.00000000000E+00  0.16649706532E+04  0.16649706532E+04  0.00000000000E+00 0. -1.
          1   -1    0    0  501    0 -0.00000000000E+00 -0.00000000000E+00 -0.57009455829E+02  0.57009455829E+02  0.00000000000E+00 0. -1.
          2    1    1    2  501    0 -0.29002327614E+02 -0.10495609088E+02  0.16606453045E+04  0.16609317024E+04  0.00000000000E+00 0. -1.
          1    1    1    2  502    0  0.29002327614E+02  0.10495609088E+02 -0.52684107066E+02  0.61048406650E+02  0.00000000000E+00 0. -1.
</event>
<event>
 4    1  0.3767413E+003  0.2772400E+02  0.7546771E-02  0.1440468E+00
          2   -1    0    0  502    0  0.00000000000E+00  0.00000000000E+00  0.18175468666E+03  0.18175468666E+03  0.00000000000E+00 0. -1.
          1   -1    0    0  501    0 -0.00000000000E+00 -0.00000000000E+00 -0.14034359047E+02  0.14034359047E+02  0.00000000000E+00 0.  1.
          2    1    1    2  501    0  0.90227555957E+01 -0.26214696075E+02  0.16568710358E+03  0.16799058516E+03  0.00000000000E+00 0. -1.
          1    1    1    2  502    0 -0.90227555957E+01  0.26214696075E+02  0.20332240306E+01  0.27798460547E+02  0.00000000000E+00 0.  1.
</event>
<event>
 4    1  0.3767413E+003  0.3047559E+02  0.7546771E-02  0.1415508E+00
          2   -1    0    0  502    0  0.00000000000E+00  0.00000000000E+00  0.34433554464E+03  0.34433554464E+03  0.00000000000E+00 0.  1.
          1   -1    0    0  501    0 -0.00000000000E+00 -0.00000000000E+00 -0.69990956604E+03  0.69990956604E+03  0.00000000000E+00 0.  1.
          2    1    1    2  501    0  0.25960633130E+02 -0.15962678622E+02  0.34332851574E+03  0.34467844624E+03  0.00000000000E+00 0.  1.
          1    1    1    2  502    0 -0.25960633130E+02  0.15962678622E+02 -0.69890253714E+03  0.69956666445E+03  0.00000000000E+00 0.  1.
</event>
<event>
 4    1  0.3767413E+003  0.2397135E+02  0.7546771E-02  0.1480648E+00
          2   -1    0    0  502    0  0.00000000000E+00  0.00000000000E+00  0.33218519492E+02  0.33218519492E+02  0.00000000000E+00 0.  1.
          1   -1    0    0  501    0 -0.00000000000E+00 -0.00000000000E+00 -0.15294808941E+03  0.15294808941E+03  0.00000000000E+00 0.  1.
          2    1    1    2  501    0  0.53679271128E+01  0.23362594138E+02  0.27796786627E+02  0.36705405502E+02  0.00000000000E+00 0.  1.
          1    1    1    2  502    0 -0.53679271128E+01 -0.23362594138E+02 -0.14752635654E+03  0.14946120340E+03  0.00000000000E+00 0.  1.
</event>
<event>
 4    1  0.3767413E+003  0.2209381E+02  0.7546771E-02  0.1504202E+00
          2   -1    0    0  502    0  0.00000000000E+00  0.00000000000E+00  0.11377518957E+01  0.11377518957E+01  0.00000000000E+00 0.  1.
          1   -1    0    0  501    0 -0.00000000000E+00 -0.00000000000E+00 -0.12059699336E+04  0.12059699336E+04  0.00000000000E+00 0. -1.
          2    1    1    2  501    0  0.16140588428E+02 -0.15087009987E+02 -0.11797626613E+03  0.12002722956E+03  0.00000000000E+00 0.  1.
          1    1    1    2  502    0 -0.16140588428E+02  0.15087009987E+02 -0.10868559155E+04  0.10870804559E+04  0.00000000000E+00 0. -1.
</event>
<event>
 4    1  0.3767413E+003  0.5749482E+02  0.7546771E-02  0.1268590E+00
          2   -1    0    0  502    0  0.00000000000E+00  0.00000000000E+00  0.32150132320E+02  0.32150132320E+02  0.00000000000E+00 0.  1.
          1   -1    0    0  501    0 -0.00000000000E+00 -0.00000000000E+00 -0.26658065249E+03  0.26658065249E+03  0.00000000000E+00 0. -1.
          2    1    1    2  501    0 -0.16602586068E+02  0.55045515207E+02 -0.14640848340E+00  0.57495008862E+02  0.00000000000E+00 0.  1.
          1    1    1    2  502    0  0.16602586068E+02 -0.55045515207E+02 -0.23428411168E+03  0.24123577595E+03  0.00000000000E+00 0. -1.
</event>
<event>
 4    1  0.3767413E+003  0.2735271E+02  0.7546771E-02  0.1444097E+00
          2   -1    0    0  502    0  0.00000000000E+00  0.00000000000E+00  0.18411580467E+04  0.18411580467E+04  0.00000000000E+00 0. -1.
          1   -1    0    0  501    0 -0.00000000000E+00 -0.00000000000E+00 -0.43711750683E+00  0.43711750683E+00  0.00000000000E+00 0. -1.
          2    1    1    2  501    0 -0.23853477313E+02  0.13385906159E+02  0.11646184464E+04  0.11649396107E+04  0.00000000000E+00 0. -1.
          1    1    1    2  502    0  0.23853477313E+02 -0.13385906159E+02  0.67610248277E+03  0.67665555350E+03  0.00000000000E+00 0. -1.
</event>
<event>
 4    1  0.3767413E+003  0.2377949E+02  0.7546771E-02  0.1482935E+00
          2   -1    0    0  502    0  0.00000000000E+00  0.00000000000E+00  0.47308162040E+02  0.47308162040E+02  0.00000000000E+00 0. -1.
          1   -1    0    0  501    0 -0.00000000000E+00 -0.00000000000E+00 -0.13916229346E+02  0.13916229346E+02  0.00000000000E+00 0. -1.
          2    1    1    2  501    0 -0.12817828400E+02 -0.20029145115E+02  0.51973623110E+01  0.24340828949E+02  0.00000000000E+00 0. -1.
          1    1    1    2  502    0  0.12817828400E+02  0.20029145115E+02  0.28194570383E+02  0.36883562437E+02  0.00000000000E+00 0. -1.
</event>
<event>
 4    1  0.3767413E+003  0.2162548E+02  0.7546771E-02  0.1510519E+00
          2   -1    0    0  502    0  0.00000000000E+00  0.00000000000E+00  0.12591452260E+04  0.12591452260E+04  0.00000000000E+00 0. -1.
          1   -1    0    0  501    0 -0.00000000000E+00 -0.00000000000E+00 -0.17272526669E+02  0.17272526669E+02  0.00000000000E+00 0.  1.
          2    1    1    2  501    0  0.11698745652E+02 -0.18187932795E+02  0.12522462199E+04  0.12524329350E+04  0.00000000000E+00 0. -1.
          1    1    1    2  502    0 -0.11698745652E+02  0.18187932795E+02 -0.10373520539E+02  0.23984817647E+02  0.00000000000E+00 0.  1.
</event>
<event>
 4    1  0.3767413E+003  0.3303445E+02  0.7546771E-02  0.1394934E+00
          2   -1    0    0  502    0  0.00000000000E+00  0.00000000000E+00  0.81356402055E+03  0.81356402055E+03  0.00000000000E+00 0. -1.
          1   -1    0    0  501    0 -0.00000000000E+00 -0.00000000000E+00 -0.87473327287E+01  0.87473327287E+01  0.00000000000E+00 0. -1.
          2    1    1    2  501    0 -0.28571578518E+02  0.16581309956E+02  0.78072876528E+03  0.78142733499E+03  0.00000000000E+00 0. -1.
          1    1    1    2  502    0  0.28571578518E+02 -0.16581309956E+02  0.24087922543E+02  0.40884018287E+02  0.00000000000E+00 0. -1.
</event>
<event>
 4    1  0.3767413E+003  0.2537323E+02  0.7546771E-02  0.1464671E+00
          2   -1    0    0  502    0  0.00000000000E+00  0.00000000000E+00  0.11252674013E+04  0.11252674013E+04  0.00000000000E+00 0. -1.
          1   -1    0    0  501    0 -0.00000000000E+00 -0.00000000000E+00 -0.24563983027E+02  0.24563983027E+02  0.00000000000E+00 0. -1.
          2    1    1    2  501    0 -0.11624722126E+02  0.22553642515E+02  0.11185326358E+04  0.11188203870E+04  0.00000000000E+00 0. -1.
          1    1    1    2  502    0  0.11624722126E+02 -0.22553642515E+02 -0.17829217569E+02  0.31010997312E+02  0.00000000000E+00 0. -1.
</event>
<event>
 4    1  0.3767413E+003  0.2014425E+02  0.7546771E-02  0.1531842E+00
          2   -1    0    0  502    0  0.00000000000E+00  0.00000000000E+00  0.80283712976E+03  0.80283712976E+03  0.00000000000E+00 0. -1.
          1   -1    0    0  501    0 -0.00000000000E+00 -0.00000000000E+00 -0.20196561960E+02  0.20196561960E+02  0.00000000000E+00 0. -1.
          2    1    1    2  501    0 -0.24162941980E+01  0.19998805324E+02  0.79765512427E+03  0.79790944848E+03  0.00000000000E+00 0. -1.
          1    1    1    2  502    0  0.24162941980E+01 -0.19998805324E+02 -0.15014556477E+02  0.25124243238E+02  0.00000000000E+00 0. -1.
</event>
<event>
 4    1  0.3767413E+003  0.5107353E+02  0.7546771E-02  0.1293584E+00
          2   -1    0    0  502    0  0.00000000000E+00  0.00000000000E+00  0.61028092347E+01  0.61028092347E+01  0.00000000000E+00 0. -1.
          1   -1    0    0  501    0 -0.00000000000E+00 -0.00000000000E+00 -0.53385091993E+03  0.53385091993E+03  0.00000000000E+00 0.  1.
          2    1    1    2  501    0  0.50166955734E+02  0.95802895494E+01 -0.14333266593E+03  0.15216030533E+03  0.00000000000E+00 0. -1.
          1    1    1    2  502    0 -0.50166955734E+02 -0.95802895494E+01 -0.38441544476E+03  0.38779342383E+03  0.00000000000E+00 0.  1.
</event>
<event>
 4    1  0.3767413E+003  0.3437616E+02  0.7546771E-02  0.1385003E+00
          2   -1    0    0  502    0  0.00000000000E+00  0.00000000000E+00  0.61918222673E+02  0.61918222673E+02  0.00000000000E+00 0.  1.
          1   -1    0    0  501    0 -0.00000000000E+00 -0.00000000000E+00 -0.67308203743E+02  0.67308203743E+02  0.00000000000E+00 0. -1.
          2    1    1    2  501    0  0.31553996316E+02 -0.13640594326E+02  0.51995844293E+02  0.62332080992E+02  0.00000000000E+00 0.  1.
          1    1    1    2  502    0 -0.31553996316E+02  0.13640594326E+02 -0.57385825363E+02  0.66894345423E+02  0.00000000000E+00 0. -1.
</event>
<event>
 4    1  0.3767413E+003  0.2333164E+02  0.7546771E-02  0.1488375E+00
          2   -1    0    0  502    0  0.00000000000E+00  0.00000000000E+00  0.68939948600E+01  0.68939948600E+01  0.00000000000E+00 0. -1.
          1   -1    0    0  501    0 -0.00000000000E+00 -0.00000000000E+00 -0.60676487739E+03  0.60676487739E+03  0.00000000000E+00 0.  1.
          2    1    1    2  501    0 -0.23216087329E+02  0.23191747617E+01 -0.13766443323E+02  0.27090224144E+02  0.00000000000E+00 0. -1.
          1    1    1    2  502    0  0.23216087329E+02 -0.23191747617E+01 -0.58610443921E+03  0.58656864811E+03  0.00000000000E+00 0.  1.
</event>
<event>
 4    1  0.3767413E+003  0.3160593E+02  0.7546771E-02  0.1406136E+00
          2   -1    0    0  502    0  0.00000000000E+00  0.00000000000E+00  0.10272563558E+03  0.10272563558E+03  0.00000000000E+00 0.  1.
          1   -1    0    0  501    0 -0.00000000000E+00 -0.00000000000E+00 -0.89188451250E+02  0.89188451250E+02  0.00000000000E+00 0. -1.
          2    1    1    2  501    0  0.30954499728E+02  0.63838836288E+01  0.97343555765E+02  0.10234599588E+03  0.00000000000E+00 0.  1.
          1    1    1    2  502    0 -0.30954499728E+02 -0.63838836288E+01 -0.83806371434E+02  0.89568090951E+02  0.00000000000E+00 0. -1.
</event>
<event>
 4    1  0.3767413E+003  0.4165060E+02  0.7546771E-02  0.1339076E+00
          2   -1    0    0  502    0  0.00000000000E+00  0.00000000000E+00  0.81944555069E+03  0.81944555069E+03  0.00000000000E+00 0. -1.
          1   -1    0    0  501    0 -0.00000000000E+00 -0.00000000000E+00 -0.11546193375E+02  0.11546193375E+02  0.00000000000E+00 0.  1.
          2    1    1    2  501    0  0.40958197183E+02 -0.75629930991E+01  0.77942758462E+03  0.78053964181E+03  0.00000000000E+00 0. -1.
          1    1    1    2  502    0 -0.40958197183E+02  0.75629930991E+01  0.28471772700E+02  0.50452102254E+02  0.00000000000E+00 0.  1.
</event>
<event>
 4    1  0.3767413E+003  0.2973865E+02  0.7546771E-02  0.1421881E+00
          2   -1    0    0  502    0  0.00000000000E+00  0.00000000000E+00  0.56575868116E+02  0.56575868116E+02  0.00000000000E+00 0. -1.
          1   -1    0    0  501    0 -0.00000000000E+00 -0.00000000000E+00 -0.87427557639E+02  0.87427557639E+02  0.00000000000E+00 0.  1.
          2    1    1    2  501    0  0.15038527011E+02 -0.25655988174E+02  0.49822246711E+02  0.58022782519E+02  0.00000000000E+00 0. -1.
          1    1    1    2  502    0 -0.15038527011E+02  0.25655988174E+02 -0.80673936234E+02  0.85980643237E+02  0.00000000000E+00 0.  1.
</event>
<event>
 4    1  0.3767413E+003  0.2458838E+02  0.7546771E-02  0.1473461E+00
          2   -1    0    0  502    0  0.00000000000E+00  0.00000000000E+00  0.85709861394E+02  0.85709861394E+02  0.00000000000E+00 0.  1.
          1   -1    0    0  501    0 -0.00000000000E+00 -0.00000000000E+00 -0.24910904912E+03  0.24910904912E+03  0.00000000000E+00 0. -1.
          2    1    1    2  501    0 -0.17631325323E+02  0.17138402284E+02  0.83322615568E+02  0.86874891256E+02  0.00000000000E+00 0.  1.
          1    1    1    2  502    0  0.17631325323E+02 -0.17138402284E+02 -0.24672180329E+03  0.24794401925E+03  0.00000000000E+00 0. -1.
</event>
<event>
 4    1  0.3767413E+003  0.2052721E+02  0.7546771E-02  0.1526123E+00
          2   -1    0    0  502    0  0.00000000000E+00  0.00000000000E+00  0.55263203719E+01  0.55263203719E+01  0.00000000000E+00 0. -1.
          1   -1    0    0  501    0 -0.00000000000E+00 -0.00000000000E+00 -0.30428114532E+03  0.30428114532E+03  0.00000000000E+00 0. -1.
          2    1    1    2  501    0 -0.19483187953E+02 -0.64631144110E+01 -0.15278853208E+02  0.25589251964E+02  0.00000000000E+00 0. -1.
          1    1    1    2  502    0  0.19483187953E+02  0.64631144110E+01 -0.28347597174E+03  0.28421821373E+03  0.00000000000E+00 0. -1.
</event>
<event>
 4    1  0.3767413E+003  0.2178021E+02  0.7546771E-02  0.1508411E+00
          2   -1    0    0  502    0  0.00000000000E+00  0.00000000000E+00  0.47979630249E+03  0.47979630249E+03  0.00000000000E+00 0. -1.
          1   -1    0    0  501    0 -0.00000000000E+00 -0.00000000000E+00 -0.48100061454E+03  0.48100061454E+03  0.00000000000E+00 0. -1.
          2    1    1    2  501    0  0.20370227432E+02  0.77091832274E+01  0.47930231419E+03  0.47979692168E+03  0.00000000000E+00 0. -1.
          1    1    1    2  502    0 -0.20370227432E+02 -0.77091832274E+01 -0.48050662624E+03  0.48099999535E+03  0.00000000000E+00 0. -1.
</event>
<event>
 4    1  0.3767413E+003  0.2058278E+02  0.7546771E-02  0.1525306E+00
          2   -1    0    0  502    0  0.00000000000E+00  0.00000000000E+00  0.60360986047E+03  0.60360986047E+03  0.00000000000E+00 0. -1.
          1   -1    0    0  501    0 -0.00000000000E+00 -0.00000000000E+00 -0.32397891974E+03  0.32397891974E+03  0.00000000000E+00 0.  1.
          2    1    1    2  501    0  0.14574646191E+02 -0.14533774945E+02  0.60310721013E+03  0.60345833148E+03  0.00000000000E+00 0. -1.
          1    1    1    2  502    0 -0.14574646191E+02  0.14533774945E+02 -0.32347626941E+03  0.32413044873E+03  0.00000000000E+00 0.  1.
</event>
<event>
 4    1  0.3767413E+003  0.2977904E+02  0.7546771E-02  0.1421527E+00
          2   -1    0    0  502    0  0.00000000000E+00  0.00000000000E+00  0.92954145542E+03  0.92954145542E+03  0.00000000000E+00 0.  1.
          1   -1    0    0  501    0 -0.00000000000E+00 -0.00000000000E+00 -0.20505040839E+01  0.20505040839E+01  0.00000000000E+00 0. -1.
          2    1    1    2  501    0 -0.15937654518E+02 -0.25155164971E+02  0.80436435008E+03  0.80491539855E+03  0.00000000000E+00 0.  1.
          1    1    1    2  502    0  0.15937654518E+02  0.25155164971E+02  0.12312660126E+03  0.12667656095E+03  0.00000000000E+00 0. -1.
</event>
<event>
 4    1  0.3767413E+003  0.2363253E+02  0.7546771E-02  0.1484705E+00
          2   -1    0    0  502    0  0.00000000000E+00  0.00000000000E+00  0.60652479709E+03  0.60652479709E+03  0.00000000000E+00 0. -1.
          1   -1    0    0  501    0 -0.00000000000E+00 -0.00000000000E+00 -0.12420135784E+02  0.12420135784E+02  0.00000000000E+00 0.  1.
          2    1    1    2  501    0 -0.40989880597E+01 -0.23274332230E+02  0.59483194729E+03  0.59530121936E+03  0.00000000000E+00 0. -1.
          1    1    1    2  502    0  0.40989880597E+01  0.23274332230E+02 -0.72728599241E+00  0.23643713515E+02  0.00000000000E+00 0.  1.
</event>
<event>
 4    1  0.3767413E+003  0.3715506E+02  0.7546771E-02  0.1366015E+00
          2   -1    0    0  502    0  0.00000000000E+00  0.00000000000E+00  0.10245111207E+03  0.10245111207E+03  0.00000000000E+00 0.  1.
          1   -1    0    0  501    0 -0.00000000000E+00 -0.00000000000E+00 -0.42081330830E+02  0.42081330830E+02  0.00000000000E+00 0. -1.
          2    1    1    2  501    0 -0.16799736061E+02 -0.33140119373E+02  0.89768104156E+02  0.97153544287E+02  0.00000000000E+00 0.  1.
          1    1    1    2  502    0  0.16799736061E+02  0.33140119373E+02 -0.29398322914E+02  0.47378898615E+02  0.00000000000E+00 0. -1.
</event>
<event>
 4    1  0.3767413E+003  0.2379456E+02  0.7546771E-02  0.1482755E+00
          2   -1    0    0  502    0  0.00000000000E+00  0.00000000000E+00  0.12716389835E+03  0.12716389835E+03  0.00000000000E+00 0. -1.
          1   -1    0    0  501    0 -0.00000000000E+00 -0.00000000000E+00 -0.45824992914E+01  0.45824992914E+01  0.00000000000E+00 0. -1.
          2    1    1    2  501    0 -0.23670305680E+02 -0.24284991683E+01  0.72391179596E+02  0.76201468900E+02  0.00000000000E+00 0. -1.
          1    1    1    2  502    0  0.23670305680E+02  0.24284991683E+01  0.50190219462E+02  0.55544928741E+02  0.00000000000E+00 0. -1.
</event>
<event>
 4    1  0.3767413E+003  0.3193021E+02  0.7546771E-02  0.1403533E+00
          2   -1    0    0  502    0  0.00000000000E+00  0.00000000000E+00  0.49933680410E+03  0.49933680410E+03  0.00000000000E+00 0.  1.
          1   -1    0    0  501    0 -0.00000000000E+00 -0.00000000000E+00 -0.10336874477E+02  0.10336874477E+02  0.00000000000E+00 0.  1.
          2    1    1    2  501    0  0.25901220686E+02  0.18672579202E+02  0.47278535769E+03  0.47386235649E+03  0.00000000000E+00 0.  1.
          1    1    1    2  502    0 -0.25901220686E+02 -0.18672579202E+02  0.16214571932E+02  0.35811322092E+02  0.00000000000E+00 0.  1.
</event>
<event>
 4    1  0.3767413E+003  0.2054333E+02  0.7546771E-02  0.1525886E+00
          2   -1    0    0  502    0  0.00000000000E+00  0.00000000000E+00  0.18311155886E+01  0.18311155886E+01  0.00000000000E+00 0. -1.
          1   -1    0    0  501    0 -0.00000000000E+00 -0.00000000000E+00 -0.27217168181E+03  0.27217168181E+03  0.00000000000E+00 0. -1.
          2    1    1    2  501    0 -0.14000034012E+02  0.15034194862E+02 -0.18879311225E+03  0.18990752276E+03  0.00000000000E+00 0. -1.
          1    1    1    2  502    0  0.14000034012E+02 -0.15034194862E+02 -0.81547453976E+02  0.84095274644E+02  0.00000000000E+00 0. -1.
</event>
<event>
 4    1  0.3767413E+003  0.2678247E+02  0.7546771E-02  0.1449806E+00
          2   -1    0    0  502    0  0.00000000000E+00  0.00000000000E+00  0.62329511766E+03  0.62329511766E+03  0.00000000000E+00 0.  1.
          1   -1    0    0  501    0 -0.00000000000E+00 -0.00000000000E+00 -0.29195961383E+01  0.29195961383E+01  0.00000000000E+00 0.  1.
          2    1    1    2  501    0  0.26782458384E+02 -0.25472531810E-01  0.55389491036E+03  0.55454203849E+03  0.00000000000E+00 0.  1.
          1    1    1    2  502    0 -0.26782458384E+02  0.25472531810E-01  0.66480611162E+02  0.71672675312E+02  0.00000000000E+00 0.  1.
</event>
<event>
 4    1  0.3767413E+003  0.2044425E+02  0.7546771E-02  0.1527349E+00
          2   -1    0    0  502    0  0.00000000000E+00  0.00000000000E+00  0.76173357172E+00  0.76173357172E+00  0.00000000000E+00 0. -1.
          1   -1    0    0  501    0 -0.00000000000E+00 -0.00000000000E+00 -0.13496594496E+04  0.13496594496E+04  0.00000000000E+00 0. -1.
          2    1    1    2  501    0 -0.14681097279E+02 -0.14227883240E+02 -0.15429603103E+03  0.15564457096E+03  0.00000000000E+00 0. -1.
          1    1    1    2  502    0  0.14681097279E+02  0.14227883240E+02 -0.11946016850E+04  0.11947766122E+04  0.00000000000E+00 0. -1.
</event>
<event>
 4    1  0.3767413E+003  0.2121891E+02  0.7546771E-02  0.1516162E+00
          2   -1    0    0  502    0  0.00000000000E+00  0.00000000000E+00  0.58850998350E+03  0.58850998350E+03  0.00000000000E+00 0. -1.
          1   -1    0    0  501    0 -0.00000000000E+00 -0.00000000000E+00 -0.21900207254E+01  0.21900207254E+01  0.00000000000E+00 0. -1.
          2    1    1    2  501    0  0.11542416507E+02 -0.17804904162E+02  0.53140027096E+03  0.53182373957E+03  0.00000000000E+00 0. -1.
          1    1    1    2  502    0 -0.11542416507E+02  0.17804904162E+02  0.54919691810E+02  0.58876264654E+02  0.00000000000E+00 0. -1.
</event>
<event>
 4    1  0.3767413E+003  0.4466669E+02  0.7546771E-02  0.1323115E+00
          2   -1    0    0  502    0  0.00000000000E+00  0.00000000000E+00  0.11398858900E+02  0.11398858900E+02  0.00000000000E+00 0. -1.
          1   -1    0    0  501    0 -0.00000000000E+00 -0.00000000000E+00 -0.23882398051E+03  0.23882398051E+03  0.00000000000E+00 0.  1.
          2    1    1    2  501    0 -0.81064945848E+01  0.43924907720E+02 -0.49049442240E+02  0.66339735881E+02  0.00000000000E+00 0. -1.
          1    1    1    2  502    0  0.81064945848E+01 -0.43924907720E+02 -0.17837567937E+03  0.18388310353E+03  0.00000000000E+00 0.  1.
</event>
<event>
 4    1  0.3767413E+003  0.2358725E+02  0.7546771E-02  0.1485253E+00
          2   -1    0    0  502    0  0.00000000000E+00  0.00000000000E+00  0.18319877060E+02  0.18319877060E+02  0.00000000000E+00 0. -1.
          1   -1    0    0  501    0 -0.00000000000E+00 -0.00000000000E+00 -0.39002484593E+02  0.39002484593E+02  0.00000000000E+00 0. -1.
          2    1    1    2  501    0 -0.14297923668E+02 -0.18759718521E+02 -0.23825938830E+02  0.33526601697E+02  0.00000000000E+00 0. -1.
          1    1    1    2  502    0  0.14297923668E+02  0.18759718521E+02  0.31433312973E+01  0.23795759955E+02  0.00000000000E+00 0. -1.
</event>
<event>
 4    1  0.3767413E+003  0.4209259E+02  0.7546771E-02  0.1336641E+00
          2   -1    0    0  502    0  0.00000000000E+00  0.00000000000E+00  0.12528437247E+04  0.12528437247E+04  0.00000000000E+00 0.  1.
          1   -1    0    0  501    0 -0.00000000000E+00 -0.00000000000E+00 -0.22473939407E+01  0.22473939407E+01  0.00000000000E+00 0. -1.
          2    1    1    2  501    0  0.41462979904E+02 -0.72531146794E+01  0.10073969311E+04  0.10082759360E+04  0.00000000000E+00 0.  1.
          1    1    1    2  502    0 -0.41462979904E+02  0.72531146794E+01  0.24319939959E+03  0.24681518255E+03  0.00000000000E+00 0. -1.
</event>
<event>
 4    1  0.3767413E+003  0.3749739E+02  0.7546771E-02  0.1363810E+00
          2   -1    0    0  502    0  0.00000000000E+00  0.00000000000E+00  0.51573270164E+03  0.51573270164E+03  0.00000000000E+00 0.  1.
          1   -1    0    0  501    0 -0.00000000000E+00 -0.00000000000E+00 -0.35348943190E+01  0.35348943190E+01  0.00000000000E+00 0.  1.
          2    1    1    2  501    0 -0.12344960534E+02  0.35407012237E+02  0.38027323845E+03  0.38211750869E+03  0.00000000000E+00 0.  1.
          1    1    1    2  502    0  0.12344960534E+02 -0.35407012237E+02  0.13192456888E+03  0.13715008727E+03  0.00000000000E+00 0.  1.
</event>
<event>
 4    1  0.3767413E+003  0.3225987E+02  0.7546771E-02  0.1400923E+00
          2   -1    0    0  502    0  0.00000000000E+00  0.00000000000E+00  0.23094555810E+04  0.23094555810E+04  0.00000000000E+00 0. -1.
          1   -1    0    0  501    0 -0.00000000000E+00 -0.00000000000E+00 -0.54373353861E+02  0.54373353861E+02  0.00000000000E+00 0.  1.
          2    1    1    2  501    0  0.25656573030E+02  0.19556059162E+02  0.23045477663E+04  0.23047735477E+04  0.00000000000E+00 0. -1.
          1    1    1    2  502    0 -0.25656573030E+02 -0.19556059162E+02 -0.49465539135E+02  0.59055387151E+02  0.00000000000E+00 0.  1.
</event>
<event>
 4    1  0.3767413E+003  0.4316007E+02  0.7546771E-02  0.1330901E+00
          2   -1    0    0  502    0  0.00000000000E+00  0.00000000000E+00  0.24497007903E+04  0.24497007903E+04  0.00000000000E+00 0. -1.
          1   -1    0    0  501    0 -0.00000000000E+00 -0.00000000000E+00 -0.38799691650E+01  0.38799691650E+01  0.00000000000E+00 0. -1.
          2    1    1    2  501    0  0.41470073840E+02  0.11959274551E+02  0.23229350975E+04  0.23233360193E+04  0.00000000000E+00 0. -1.
          1    1    1    2  502    0 -0.41470073840E+02 -0.11959274551E+02  0.12288572355E+03  0.13024474010E+03  0.00000000000E+00 0. -1.
</event>
<event>
 4    1  0.3767413E+003  0.6066985E+02  0.7546771E-02  0.1257573E+00
          2   -1    0    0  502    0  0.00000000000E+00  0.00000000000E+00  0.29322616244E+04  0.29322616244E+04  0.00000000000E+00 0.  1.
          1   -1    0    0  501    0 -0.00000000000E+00 -0.00000000000E+00 -0.40693216994E+02  0.40693216994E+02  0.00000000000E+00 0. -1.
          2    1    1    2  501    0 -0.55320917776E+02 -0.24908372863E+02  0.29091549146E+04  0.29097874747E+04  0.00000000000E+00 0.  1.
          1    1    1    2  502    0  0.55320917776E+02  0.24908372863E+02 -0.17586507151E+02  0.63167366702E+02  0.00000000000E+00 0. -1.
</event>
<event>
 4    1  0.3767413E+003  0.2019431E+02  0.7546771E-02  0.1531086E+00
          2   -1    0    0  502    0  0.00000000000E+00  0.00000000000E+00  0.96371444725E+03  0.96371444725E+03  0.00000000000E+00 0.  1.
          1   -1    0    0  501    0 -0.00000000000E+00 -0.00000000000E+00 -0.16673721060E+02  0.16673721060E+02  0.00000000000E+00 0.  1.
          2    1    1    2  501    0 -0.14562517786E+02  0.13990821162E+02  0.95745411840E+03  0.95766706054E+03  0.00000000000E+00 0.  1.
          1    1    1    2  502    0  0.14562517786E+02 -0.13990821162E+02 -0.10413392210E+02  0.22721107771E+02  0.00000000000E+00 0.  1.
</event>
<event>
 4    1  0.3767413E+003  0.3070757E+02  0.7546771E-02  0.1413545E+00
          2   -1    0    0  502    0  0.00000000000E+00  0.00000000000E+00  0.34900425510E+03  0.34900425510E+03  0.00000000000E+00 0. -1.
          1   -1    0    0  501    0 -0.00000000000E+00 -0.00000000000E+00 -0.44408983865E+01  0.44408983865E+01  0.00000000000E+00 0. -1.
          2    1    1    2  501    0  0.30254657959E+02  0.52545572854E+01  0.28287103340E+03  0.28453290888E+03  0.00000000000E+00 0. -1.
          1    1    1    2  502    0 -0.30254657959E+02 -0.52545572854E+01  0.61692323311E+02  0.68912244601E+02  0.00000000000E+00 0. -1.
</event>
<event>
 4    1  0.3767413E+003  0.5003193E+02  0.7546771E-02  0.1298034E+00
          2   -1    0    0  502    0  0.00000000000E+00  0.00000000000E+00  0.14882082438E+03  0.14882082438E+03  0.00000000000E+00 0. -1.
          1   -1    0    0  501    0 -0.00000000000E+00 -0.00000000000E+00 -0.33184183599E+02  0.33184183599E+02  0.00000000000E+00 0. -1.
          2    1    1    2  501    0  0.48285773972E+01  0.49798381924E+02  0.12172297210E+03  0.13160423982E+03  0.00000000000E+00 0. -1.
          1    1    1    2  502    0 -0.48285773972E+01 -0.49798381924E+02 -0.60863313197E+01  0.50400768157E+02  0.00000000000E+00 0. -1.
</event>
<event>
 4    1  0.3767413E+003  0.2983281E+02  0.7546771E-02  0.1421055E+00
          2   -1    0    0  502    0  0.00000000000E+00  0.00000000000E+00  0.10572082173E+03  0.10572082173E+03  0.00000000000E+00 0.  1.
          1   -1    0    0  501    0 -0.00000000000E+00 -0.00000000000E+00 -0.20068339396E+02  0.20068339396E+02  0.00000000000E+00 0.  1.
          2    1    1    2  501    0  0.29569080824E+02  0.39580110335E+01  0.90746593765E+02  0.95524555335E+02  0.00000000000E+00 0.  1.
          1    1    1    2  502    0 -0.29569080824E+02 -0.39580110335E+01 -0.50941114354E+01  0.30264605786E+02  0.00000000000E+00 0.  1.
</event>
<event>
 4    1  0.3767413E+003  0.2117720E+02  0.7546771E-02  0.1516750E+00
          2   -1    0    0  502    0  0.00000000000E+00  0.00000000000E+00  0.27767535021E+03  0.27767535021E+03  0.00000000000E+00 0. -1.
          1   -1    0    0  501    0 -0.00000000000E+00 -0.00000000000E+00 -0.21839249117E+03  0.21839249117E+03  0.00000000000E+00 0. -1.
          2    1    1    2  501    0  0.18528237599E+02  0.10255646667E+02  0.27675649225E+03  0.27756554159E+03  0.00000000000E+00 0. -1.
          1    1    1    2  502    0 -0.18528237599E+02 -0.10255646667E+02 -0.21747363320E+03  0.21850229979E+03  0.00000000000E+00 0. -1.
</event>
<event>
 4    1  0.3767413E+003  0.2049155E+02  0.7546771E-02  0.1526649E+00
          2   -1    0    0  502    0  0.00000000000E+00  0.00000000000E+00  0.28419441022E+03  0.28419441022E+03  0.00000000000E+00 0. -1.
          1   -1    0    0  501    0 -0.00000000000E+00 -0.00000000000E+00 -0.17606592088E+02  0.17606592088E+02  0.00000000000E+00 0. -1.
          2    1    1    2  501    0  0.19187310398E+02 -0.71937971925E+01  0.27772400190E+03  0.27847894863E+03  0.00000000000E+00 0. -1.
          1    1    1    2  502    0 -0.19187310398E+02  0.71937971925E+01 -0.11136183776E+02  0.23322053671E+02  0.00000000000E+00 0. -1.
</event>
<event>
 4    1  0.3767413E+003  0.2133122E+02  0.7546771E-02  0.1514588E+00
          2   -1    0    0  502    0  0.00000000000E+00  0.00000000000E+00  0.25615978241E+03  0.25615978241E+03  0.00000000000E+00 0.  1.
          1   -1    0    0  501    0 -0.00000000000E+00 -0.00000000000E+00 -0.20703496483E+02  0.20703496483E+02  0.00000000000E+00 0.  1.
          2    1    1    2  501    0  0.14992000633E+02  0.15174353489E+02  0.25008805172E+03  0.25099612487E+03  0.00000000000E+00 0.  1.
          1    1    1    2  502    0 -0.14992000633E+02 -0.15174353489E+02 -0.14631765796E+02  0.25867154020E+02  0.00000000000E+00 0.  1.
</event>
<event>
 4    1  0.3767413E+003  0.2625830E+02  0.7546771E-02  0.1455204E+00
          2   -1    0    0  502    0  0.00000000000E+00  0.00000000000E+00  0.36987142433E+03  0.36987142433E+03  0.00000000000E+00 0. -1.
          1   -1    0    0  501    0 -0.00000000000E+00 -0.00000000000E+00 -0.96301726051E+01  0.96301726051E+01  0.00000000000E+00 0. -1.
          2    1    1    2  501    0 -0.13319035597E+02 -0.22629667288E+02  0.35051909741E+03  0.35150126059E+03  0.00000000000E+00 0. -1.
          1    1    1    2  502    0  0.13319035597E+02  0.22629667288E+02  0.97221543200E+01  0.28000336345E+02  0.00000000000E+00 0. -1.
</event>
<event>
 4    1  0.3767413E+003  0.2816970E+02  0.7546771E-02  0.1436199E+00
          2   -1    0    0  502    0  0.00000000000E+00  0.00000000000E+00  0.10928911332E+03  0.10928911332E+03  0.00000000000E+00 0.  1.
          1   -1    0    0  501    0 -0.00000000000E+00 -0.00000000000E+00 -0.13678416966E+02  0.13678416966E+02  0.00000000000E+00 0. -1.
          2    1    1    2  501    0 -0.27382590949E+02  0.66125611303E+01  0.89919457346E+02  0.94228663692E+02  0.00000000000E+00 0.  1.
          1    1    1    2  502    0  0.27382590949E+02 -0.66125611303E+01  0.56912390120E+01  0.28738866597E+02  0.00000000000E+00 0. -1.
</event>
<event>
 4    1  0.3767413E+003  0.2291203E+02  0.7546771E-02  0.1493606E+00
          2   -1    0    0  502    0  0.00000000000E+00  0.00000000000E+00  0.35902843621E+03  0.35902843621E+03  0.00000000000E+00 0. -1.
          1   -1    0    0  501    0 -0.00000000000E+00 -0.00000000000E+00 -0.10594208532E+03  0.10594208532E+03  0.00000000000E+00 0.  1.
          2    1    1    2  501    0 -0.26047540080E+01 -0.22763486459E+02  0.35741852672E+03  0.35815215245E+03  0.00000000000E+00 0. -1.
          1    1    1    2  502    0  0.26047540080E+01  0.22763486459E+02 -0.10433217583E+03  0.10681836908E+03  0.00000000000E+00 0.  1.
</event>
<event>
 4    1  0.3767413E+003  0.7993704E+02  0.7546771E-02  0.1203994E+00
          2   -1    0    0  502    0  0.00000000000E+00  0.00000000000E+00  0.37547854480E+03  0.37547854480E+03  0.00000000000E+00 0.  1.
          1   -1    0    0  501    0 -0.00000000000E+00 -0.00000000000E+00 -0.51900258597E+02  0.51900258597E+02  0.00000000000E+00 0. -1.
          2    1    1    2  501    0 -0.30103553593E+02 -0.74052054415E+02  0.33697535035E+03  0.34632689391E+03  0.00000000000E+00 0.  1.
          1    1    1    2  502    0  0.30103553593E+02  0.74052054415E+02 -0.13397064156E+02  0.81051909478E+02  0.00000000000E+00 0. -1.
</event>
<event>
 4    1  0.3767413E+003  0.2345151E+02  0.7546771E-02  0.1486905E+00
          2   -1    0    0  502    0  0.00000000000E+00  0.00000000000E+00  0.51403370253E+03  0.51403370253E+03  0.00000000000E+00 0.  1.
          1   -1    0    0  501    0 -0.00000000000E+00 -0.00000000000E+00 -0.51786529116E+02  0.51786529116E+02  0.00000000000E+00 0. -1.
          2    1    1    2  501    0 -0.76629526915E+01 -0.22164216733E+02  0.51109596865E+03  0.51163371909E+03  0.00000000000E+00 0.  1.
          1    1    1    2  502    0  0.76629526915E+01  0.22164216733E+02 -0.48848795230E+02  0.54186512554E+02  0.00000000000E+00 0. -1.
</event>
<event>
 4    1  0.3767413E+003  0.2577491E+02  0.7546771E-02  0.1460318E+00
          2   -1    0    0  502    0  0.00000000000E+00  0.00000000000E+00  0.14357931135E+02  0.14357931135E+02  0.00000000000E+00 0.  1.
          1   -1    0    0  501    0 -0.00000000000E+00 -0.00000000000E+00 -0.15168580830E+04  0.15168580830E+04  0.00000000000E+00 0. -1.
          2    1    1    2  501    0 -0.93560435010E+01  0.24016873848E+02  0.25904283478E+01  0.25904750500E+02  0.00000000000E+00 0.  1.
          1    1    1    2  502    0  0.93560435010E+01 -0.24016873848E+02 -0.15050905802E+04  0.15053112637E+04  0.00000000000E+00 0. -1.
</event>
<event>
 4    1  0.3767413E+003  0.3480871E+02  0.7546771E-02  0.1381913E+00
          2   -1    0    0  502    0  0.00000000000E+00  0.00000000000E+00  0.10604640274E+04  0.10604640274E+04  0.00000000000E+00 0. -1.
          1   -1    0    0  501    0 -0.00000000000E+00 -0.00000000000E+00 -0.50241755271E+02  0.50241755271E+02  0.00000000000E+00 0.  1.
          2    1    1    2  501    0 -0.26974832662E+02 -0.22000099531E+02  0.10541129929E+04  0.10546875593E+04  0.00000000000E+00 0. -1.
          1    1    1    2  502    0  0.26974832662E+02  0.22000099531E+02 -0.43890720779E+02  0.56018223347E+02  0.00000000000E+00 0.  1.
</event>
<event>
 4    1  0.3767413E+003  0.4659198E+02  0.7546771E-02  0.1313665E+00
          2   -1    0    0  502    0  0.00000000000E+00  0.00000000000E+00  0.68226538078E+03  0.68226538078E+03  0.00000000000E+00 0.  1.
          1   -1    0    0  501    0 -0.00000000000E+00 -0.00000000000E+00 -0.27359161157E+02  0.27359161157E+02  0.00000000000E+00 0.  1.
          2    1    1    2  501    0 -0.37262882931E+02  0.27969454479E+02  0.66099619660E+03  0.66263623863E+03  0.00000000000E+00 0.  1.
          1    1    1    2  502    0  0.37262882931E+02 -0.27969454479E+02 -0.60899769753E+01  0.46988303308E+02  0.00000000000E+00 0.  1.
</event>
<event>
 4    1  0.3767413E+003  0.3937102E+02  0.7546771E-02  0.1352212E+00
          2   -1    0    0  502    0  0.00000000000E+00  0.00000000000E+00  0.66921581533E+02  0.66921581533E+02  0.00000000000E+00 0. -1.
          1   -1    0    0  501    0 -0.00000000000E+00 -0.00000000000E+00 -0.31178278866E+03  0.31178278866E+03  0.00000000000E+00 0.  1.
          2    1    1    2  501    0 -0.21749623425E+02  0.32818150945E+02  0.59752297429E+02  0.71557069523E+02  0.00000000000E+00 0. -1.
          1    1    1    2  502    0  0.21749623425E+02 -0.32818150945E+02 -0.30461350455E+03  0.30714730067E+03  0.00000000000E+00 0.  1.
</event>
<event>
 4    1  0.3767413E+003  0.3937234E+02  0.7546771E-02  0.1352204E+00
          2   -1    0    0  502    0  0.00000000000E+00  0.00000000000E+00  0.11058631855E+04  0.11058631855E+04  0.00000000000E+00 0.  1.
          1   -1    0    0  501    0 -0.00000000000E+00 -0.00000000000E+00 -0.14524204755E+03  0.14524204755E+03  0.00000000000E+00 0.  1.
          2    1    1    2  501    0  0.13409557179E+02  0.37018443969E+02  0.11028371480E+04  0.11035397394E+04  0.00000000000E+00 0.  1.
          1    1    1    2  502    0 -0.13409557179E+02 -0.37018443969E+02 -0.14221601003E+03  0.14756549368E+03  0.00000000000E+00 0.  1.
</event>
<event>
 4    1  0.3767413E+003  0.2113288E+02  0.7546771E-02  0.1517376E+00
          2   -1    0    0  502    0  0.00000000000E+00  0.00000000000E+00  0.47779327694E+02  0.47779327694E+02  0.00000000000E+00 0. -1.
          1   -1    0    0  501    0 -0.00000000000E+00 -0.00000000000E+00 -0.78121218194E+02  0.78121218194E+02  0.00000000000E+00 0. -1.
          2    1    1    2  501    0  0.19375482428E+02 -0.84373671066E+01  0.43893429052E+02  0.48715824913E+02  0.00000000000E+00 0. -1.
          1    1    1    2  502    0 -0.19375482428E+02  0.84373671066E+01 -0.74235319552E+02  0.77184720975E+02  0.00000000000E+00 0. -1.
</event>
<event>
 4    1  0.3767413E+003  0.2055572E+02  0.7546771E-02  0.1525704E+00
          2   -1    0    0  502    0  0.00000000000E+00  0.00000000000E+00  0.12674525936E+04  0.12674525936E+04  0.00000000000E+00 0. -1.
          1   -1    0    0  501    0 -0.00000000000E+00 -0.00000000000E+00 -0.14792700890E+02  0.14792700890E+02  0.00000000000E+00 0. -1.
          2    1    1    2  501    0  0.12188437174E+02  0.16552324936E+02  0.12601871030E+04  0.12603547405E+04  0.00000000000E+00 0. -1.
          1    1    1    2  502    0 -0.12188437174E+02 -0.16552324936E+02 -0.75272102134E+01  0.21890554016E+02  0.00000000000E+00 0. -1.
</event>
<event>
 4    1  0.3767413E+003  0.3935380E+02  0.7546771E-02  0.1352315E+00
          2   -1    0    0  502    0  0.00000000000E+00  0.00000000000E+00  0.84219135393E+03  0.84219135393E+03  0.00000000000E+00 0.  1.
          1   -1    0    0  501    0 -0.00000000000E+00 -0.00000000000E+00 -0.57797686143E+01  0.57797686143E+01  0.00000000000E+00 0. -1.
          2    1    1    2  501    0  0.35773787645E+02  0.16399924743E+02  0.76830472757E+03  0.76931194961E+03  0.00000000000E+00 0.  1.
          1    1    1    2  502    0 -0.35773787645E+02 -0.16399924743E+02  0.68106857754E+02  0.78659172937E+02  0.00000000000E+00 0. -1.
</event>
<event>
 4    1  0.3767413E+003  0.2101887E+02  0.7546771E-02  0.1518996E+00
          2   -1    0    0  502    0  0.00000000000E+00  0.00000000000E+00  0.11255069976E+02  0.11255069976E+02  0.00000000000E+00 0.  1.
          1   -1    0    0  501    0 -0.00000000000E+00 -0.00000000000E+00 -0.57874526595E+03  0.57874526595E+03  0.00000000000E+00 0. -1.
          2    1    1    2  501    0 -0.86199474532E+01 -0.19170010248E+02  0.10753974329E+01  0.21046359938E+02  0.00000000000E+00 0.  1.
          1    1    1    2  502    0  0.86199474532E+01  0.19170010248E+02 -0.56856559341E+03  0.56895397599E+03  0.00000000000E+00 0. -1.
</event>
<event>
 4    1  0.3767413E+003  0.2918531E+02  0.7546771E-02  0.1426811E+00
          2   -1    0    0  502    0  0.00000000000E+00  0.00000000000E+00  0.37932783907E+03  0.37932783907E+03  0.00000000000E+00 0.  1.
          1   -1    0    0  501    0 -0.00000000000E+00 -0.00000000000E+00 -0.15186662479E+03  0.15186662479E+03  0.00000000000E+00 0.  1.
          2    1    1    2  501    0 -0.26014408518E+02 -0.13229988751E+02  0.37735696296E+03  0.37848389602E+03  0.00000000000E+00 0.  1.
          1    1    1    2  502    0  0.26014408518E+02  0.13229988751E+02 -0.14989574869E+03  0.15271056783E+03  0.00000000000E+00 0.  1.
</event>
<event>
 4    1  0.3767413E+003  0.2510775E+02  0.7546771E-02  0.1467602E+00
          2   -1    0    0  502    0  0.00000000000E+00  0.00000000000E+00  0.29110947493E+03  0.29110947493E+03  0.00000000000E+00 0. -1.
          1   -1    0    0  501    0 -0.00000000000E+00 -0.00000000000E+00 -0.48014404128E+02  0.48014404128E+02  0.00000000000E+00 0.  1.
          2    1    1    2  501    0 -0.24772291756E+02  0.40905420527E+01  0.28724164165E+03  0.28833688573E+03  0.00000000000E+00 0. -1.
          1    1    1    2  502    0  0.24772291756E+02 -0.40905420527E+01 -0.44146570852E+02  0.50786993326E+02  0.00000000000E+00 0.  1.
</event>
<event>
 4    1  0.3767413E+003  0.2411019E+02  0.7546771E-02  0.1479009E+00
          2   -1    0    0  502    0  0.00000000000E+00  0.00000000000E+00  0.92316498313E+03  0.92316498313E+03  0.00000000000E+00 0. -1.
          1   -1    0    0  501    0 -0.00000000000E+00 -0.00000000000E+00 -0.10394143361E+01  0.10394143361E+01  0.00000000000E+00 0. -1.
          2    1    1    2  501    0 -0.22486615229E+02 -0.86978913025E+01  0.75119325447E+03  0.75158007341E+03  0.00000000000E+00 0. -1.
          1    1    1    2  502    0  0.22486615229E+02  0.86978913025E+01  0.17093231432E+03  0.17262432406E+03  0.00000000000E+00 0. -1.
</event>
<event>
 4    1  0.3767413E+003  0.2115610E+02  0.7546771E-02  0.1517048E+00
          2   -1    0    0  502    0  0.00000000000E+00  0.00000000000E+00  0.66151750565E+00  0.66151750565E+00  0.00000000000E+00 0.  1.
          1   -1    0    0  501    0 -0.00000000000E+00 -0.00000000000E+00 -0.98236186813E+03  0.98236186813E+03  0.00000000000E+00 0.  1.
          2    1    1    2  501    0  0.32882838414E+01 -0.20898986976E+02 -0.21663454125E+03  0.21766512107E+03  0.00000000000E+00 0.  1.
          1    1    1    2  502    0 -0.32882838414E+01  0.20898986976E+02 -0.76506580937E+03  0.76535826457E+03  0.00000000000E+00 0.  1.
</event>
<event>
 4    1  0.3767413E+003  0.2010920E+02  0.7546771E-02  0.1532373E+00
          2   -1    0    0  502    0  0.00000000000E+00  0.00000000000E+00  0.26268997344E+03  0.26268997344E+03  0.00000000000E+00 0.  1.
          1   -1    0    0  501    0 -0.00000000000E+00 -0.00000000000E+00 -0.37136893223E+02  0.37136893223E+02  0.00000000000E+00 0. -1.
          2    1    1    2  501    0 -0.17425333194E+02 -0.10036814547E+02  0.25955002015E+03  0.26032785645E+03  0.00000000000E+00 0.  1.
          1    1    1    2  502    0  0.17425333194E+02  0.10036814547E+02 -0.33996939933E+02  0.39499010215E+02  0.00000000000E+00 0. -1.
</event>
<event>
 4    1  0.3767413E+003  0.2599296E+02  0.7546771E-02  0.1457995E+00
          2   -1    0    0  502    0  0.00000000000E+00  0.00000000000E+00  0.22829692282E+03  0.22829692282E+03  0.00000000000E+00 0. -1.
          1   -1    0    0  501    0 -0.00000000000E+00 -0.00000000000E+00 -0.50947433281E+03  0.50947433281E+03  0.00000000000E+00 0.  1.
          2    1    1    2  501    0  0.26727354949E+01  0.25855185762E+02  0.22722396407E+03  0.22870584599E+03  0.00000000000E+00 0. -1.
          1    1    1    2  502    0 -0.26727354949E+01 -0.25855185762E+02 -0.50840137405E+03  0.50906540963E+03  0.00000000000E+00 0.  1.
</event>
<event>
 4    1  0.3767413E+003  0.2961993E+02  0.7546771E-02  0.1422928E+00
          2   -1    0    0  502    0  0.00000000000E+00  0.00000000000E+00  0.15344533745E+03  0.15344533745E+03  0.00000000000E+00 0.  1.
          1   -1    0    0  501    0 -0.00000000000E+00 -0.00000000000E+00 -0.90485880530E+03  0.90485880530E+03  0.00000000000E+00 0. -1.
          2    1    1    2  501    0  0.27707338081E+02 -0.10471085235E+02  0.15177088928E+03  0.15463422338E+03  0.00000000000E+00 0.  1.
          1    1    1    2  502    0 -0.27707338081E+02  0.10471085235E+02 -0.90318435712E+03  0.90366991936E+03  0.00000000000E+00 0. -1.
</event>
<event>
 4    1  0.3767413E+003  0.2419074E+02  0.7546771E-02  0.1478064E+00
          2   -1    0    0  502    0  0.00000000000E+00  0.00000000000E+00  0.10754381109E+04  0.10754381109E+04  0.00000000000E+00 0. -1.
          1   -1    0    0  501    0 -0.00000000000E+00 -0.00000000000E+00 -0.80593422145E+00  0.80593422145E+00  0.00000000000E+00 0. -1.
          2    1    1    2  501    0 -0.19210808634E+01 -0.24114336544E+02  0.84401255333E+03  0.84435915460E+03  0.00000000000E+00 0. -1.
          1    1    1    2  502    0  0.19210808634E+01  0.24114336544E+02  0.23061962337E+03  0.23188489055E+03  0.00000000000E+00 0. -1.
</event>
<event>
 4    1  0.3767413E+003  0.2623524E+02  0.7546771E-02  0.1455445E+00
          2   -1    0    0  502    0  0.00000000000E+00  0.00000000000E+00  0.18767448027E+03  0.18767448027E+03  0.00000000000E+00 0.  1.
          1   -1    0    0  501    0 -0.00000000000E+00 -0.00000000000E+00 -0.43130129228E+02  0.43130129228E+02  0.00000000000E+00 0.  1.
          2    1    1    2  501    0  0.24567960042E+02  0.92034376242E+01  0.18265902860E+03  0.18453348924E+03  0.00000000000E+00 0.  1.
          1    1    1    2  502    0 -0.24567960042E+02 -0.92034376242E+01 -0.38114677554E+02  0.46271120256E+02  0.00000000000E+00 0.  1.
</event>
<event>
 4    1  0.3767413E+003  0.2724185E+02  0.7546771E-02  0.1445194E+00
          2   -1    0    0  502    0  0.00000000000E+00  0.00000000000E+00  0.17648420834E+03  0.17648420834E+03  0.00000000000E+00 0.  1.
          1   -1    0    0  501    0 -0.00000000000E+00 -0.00000000000E+00 -0.43500039258E+01  0.43500039258E+01  0.00000000000E+00 0. -1.
          2    1    1    2  501    0 -0.27071514990E+02  0.30416141813E+01  0.10257442378E+03  0.10613025372E+03  0.00000000000E+00 0.  1.
          1    1    1    2  502    0  0.27071514990E+02 -0.30416141813E+01  0.69559780635E+02  0.74703958548E+02  0.00000000000E+00 0. -1.
</event>
<event>
 4    1  0.3767413E+003  0.2970580E+02  0.7546771E-02  0.1422171E+00
          2   -1    0    0  502    0  0.00000000000E+00  0.00000000000E+00  0.17629641000E+04  0.17629641000E+04  0.00000000000E+00 0.  1.
          1   -1    0    0  501    0 -0.00000000000E+00 -0.00000000000E+00 -0.37886808448E+02  0.37886808448E+02  0.00000000000E+00 0.  1.
          2    1    1    2  501    0  0.65702543802E+01 -0.28970096331E+02  0.17569963525E+04  0.17572474548E+04  0.00000000000E+00 0.  1.
          1    1    1    2  502    0 -0.65702543802E+01  0.28970096331E+02 -0.31919060906E+02  0.43603453684E+02  0.00000000000E+00 0.  1.
</event>
<event>
 4    1  0.3767413E+003  0.3496536E+02  0.7546771E-02  0.1380807E+00
          2   -1    0    0  502    0  0.00000000000E+00  0.00000000000E+00  0.27126947681E+02  0.27126947681E+02  0.00000000000E+00 0.  1.
          1   -1    0    0  501    0 -0.00000000000E+00 -0.00000000000E+00 -0.78368835547E+02  0.78368835547E+02  0.00000000000E+00 0. -1.
          2    1    1    2  501    0 -0.27076948930E+02 -0.22122724354E+02  0.87630601670E+01  0.36046737989E+02  0.00000000000E+00 0.  1.
          1    1    1    2  502    0  0.27076948930E+02  0.22122724354E+02 -0.60004948033E+02  0.69449045239E+02  0.00000000000E+00 0. -1.
</event>
<event>
 4    1  0.3767413E+003  0.2419418E+02  0.7546771E-02  0.1478024E+00
          2   -1    0    0  502    0  0.00000000000E+00  0.00000000000E+00  0.39490170485E+02  0.39490170485E+02  0.00000000000E+00 0.  1.
          1   -1    0    0  501    0 -0.00000000000E+00 -0.00000000000E+00 -0.77977726072E+02  0.77977726072E+02  0.00000000000E+00 0. -1.
          2    1    1    2  501    0 -0.22063440986E+02  0.99278761352E+01  0.33613798520E+02  0.41415523704E+02  0.00000000000E+00 0.  1.
          1    1    1    2  502    0  0.22063440986E+02 -0.99278761352E+01 -0.72101354106E+02  0.76052372854E+02  0.00000000000E+00 0. -1.
</event>
<event>
 4    1  0.3767413E+003  0.4853717E+02  0.7546771E-02  0.1304642E+00
          2   -1    0    0  502    0  0.00000000000E+00  0.00000000000E+00  0.10174021072E+04  0.10174021072E+04  0.00000000000E+00 0. -1.
          1   -1    0    0  501    0 -0.00000000000E+00 -0.00000000000E+00 -0.50160078568E+03  0.50160078568E+03  0.00000000000E+00 0.  1.
          2    1    1    2  501    0  0.12010082064E+02 -0.47027811595E+02  0.10156470196E+04  0.10168061396E+04  0.00000000000E+00 0. -1.
          1    1    1    2  502    0 -0.12010082064E+02  0.47027811595E+02 -0.49984569806E+03  0.50219675328E+03  0.00000000000E+00 0.  1.
</event>
<event>
 4    1  0.3767413E+003  0.2746504E+02  0.7546771E-02  0.1442992E+00
          2   -1    0    0  502    0  0.00000000000E+00  0.00000000000E+00  0.17363942348E+04  0.17363942348E+04  0.00000000000E+00 0.  1.
          1   -1    0    0  501    0 -0.00000000000E+00 -0.00000000000E+00 -0.45292766021E+00  0.45292766021E+00  0.00000000000E+00 0.  1.
          2    1    1    2  501    0  0.27620640316E+01  0.27325787306E+02  0.69243276329E+03  0.69297724301E+03  0.00000000000E+00 0.  1.
          1    1    1    2  502    0 -0.27620640316E+01 -0.27325787306E+02  0.10435085438E+04  0.10438699195E+04  0.00000000000E+00 0.  1.
</event>
<event>
 4    1  0.3767413E+003  0.4004022E+02  0.7546771E-02  0.1348250E+00
          2   -1    0    0  502    0  0.00000000000E+00  0.00000000000E+00  0.10759039732E+03  0.10759039732E+03  0.00000000000E+00 0.  1.
          1   -1    0    0  501    0 -0.00000000000E+00 -0.00000000000E+00 -0.72954713189E+02  0.72954713189E+02  0.00000000000E+00 0.  1.
          2    1    1    2  501    0  0.41263497765E+01  0.39827028267E+02  0.97845220016E+02  0.10572088735E+03  0.00000000000E+00 0.  1.
          1    1    1    2  502    0 -0.41263497765E+01 -0.39827028267E+02 -0.63209535888E+02  0.74824223152E+02  0.00000000000E+00 0.  1.
</event>
<event>
 4    1  0.3767413E+003  0.4978879E+02  0.7546771E-02  0.1299091E+00
          2   -1    0    0  502    0  0.00000000000E+00  0.00000000000E+00  0.12281452281E+04  0.12281452281E+04  0.00000000000E+00 0.  1.
          1   -1    0    0  501    0 -0.00000000000E+00 -0.00000000000E+00 -0.30196077872E+02  0.30196077872E+02  0.00000000000E+00 0. -1.
          2    1    1    2  501    0  0.51910289321E+00 -0.49786080740E+02  0.12067534059E+04  0.12077800735E+04  0.00000000000E+00 0.  1.
          1    1    1    2  502    0 -0.51910289321E+00  0.49786080740E+02 -0.88042557349E+01  0.50561232405E+02  0.00000000000E+00 0. -1.
</event>
<event>
 4    1  0.3767413E+003  0.3158574E+02  0.7546771E-02  0.1406299E+00
          2   -1    0    0  502    0  0.00000000000E+00  0.00000000000E+00  0.47841749761E+03  0.47841749761E+03  0.00000000000E+00 0. -1.
          1   -1    0    0  501    0 -0.00000000000E+00 -0.00000000000E+00 -0.51140167696E+02  0.51140167696E+02  0.00000000000E+00 0. -1.
          2    1    1    2  501    0 -0.31249710452E+02 -0.45950768902E+01  0.47296289890E+03  0.47401641624E+03  0.00000000000E+00 0. -1.
          1    1    1    2  502    0  0.31249710452E+02  0.45950768902E+01 -0.45685568979E+02  0.55541249067E+02  0.00000000000E+00 0. -1.
</event>
<event>
 4    1  0.3767413E+003  0.3191945E+02  0.7546771E-02  0.1403618E+00
          2   -1    0    0  502    0  0.00000000000E+00  0.00000000000E+00  0.11519190503E+04  0.11519190503E+04  0.00000000000E+00 0.  1.
          1   -1    0    0  501    0 -0.00000000000E+00 -0.00000000000E+00 -0.15490055751E+01  0.15490055751E+01  0.00000000000E+00 0. -1.
          2    1    1    2  501    0 -0.18836155276E+02 -0.25769175242E+02  0.95293498631E+03  0.95346942230E+03  0.00000000000E+00 0.  1.
          1    1    1    2  502    0  0.18836155276E+02  0.25769175242E+02  0.19743505839E+03  0.19999863355E+03  0.00000000000E+00 0. -1.
</event>
<event>
 4    1  0.3767413E+003  0.4485899E+02  0.7546771E-02  0.1322146E+00
          2   -1    0    0  502    0  0.00000000000E+00  0.00000000000E+00  0.24017338045E+03  0.24017338045E+03  0.00000000000E+00 0.  1.
          1   -1    0    0  501    0 -0.00000000000E+00 -0.00000000000E+00 -0.61789457797E+03  0.61789457797E+03  0.00000000000E+00 0. -1.
          2    1    1    2  501    0 -0.44213880294E+02  0.75803503723E+01  0.23725460147E+03  0.24145822587E+03  0.00000000000E+00 0.  1.
          1    1    1    2  502    0  0.44213880294E+02 -0.75803503723E+01 -0.61497579899E+03  0.61660973254E+03  0.00000000000E+00 0. -1.
</event>
<event>
 4    1  0.3767413E+003  0.4830075E+02  0.7546771E-02  0.1305713E+00
          2   -1    0    0  502    0  0.00000000000E+00  0.00000000000E+00  0.16460679252E+02  0.16460679252E+02  0.00000000000E+00 0.  1.
          1   -1    0    0  501    0 -0.00000000000E+00 -0.00000000000E+00 -0.16825193858E+03  0.16825193858E+03  0.00000000000E+00 0.  1.
          2    1    1    2  501    0 -0.38315861054E+02 -0.29408448396E+02 -0.39227044938E+02  0.62223171728E+02  0.00000000000E+00 0.  1.
          1    1    1    2  502    0  0.38315861054E+02  0.29408448396E+02 -0.11256421439E+03  0.12248944610E+03  0.00000000000E+00 0.  1.
</event>
<event>
 4    1  0.3767413E+003  0.2158765E+02  0.7546771E-02  0.1511038E+00
          2   -1    0    0  502    0  0.00000000000E+00  0.00000000000E+00  0.29590468763E+03  0.29590468763E+03  0.00000000000E+00 0.  1.
          1   -1    0    0  501    0 -0.00000000000E+00 -0.00000000000E+00 -0.15732742745E+02  0.15732742745E+02  0.00000000000E+00 0. -1.
          2    1    1    2  501    0 -0.17609018493E+02  0.12487963195E+02  0.28789998462E+03  0.28870820546E+03  0.00000000000E+00 0.  1.
          1    1    1    2  502    0  0.17609018493E+02 -0.12487963195E+02 -0.77280397328E+01  0.22929224914E+02  0.00000000000E+00 0. -1.
</event>
<event>
 4    1  0.3767413E+003  0.2310198E+02  0.7546771E-02  0.1491221E+00
          2   -1    0    0  502    0  0.00000000000E+00  0.00000000000E+00  0.70296300098E+01  0.70296300098E+01  0.00000000000E+00 0.  1.
          1   -1    0    0  501    0 -0.00000000000E+00 -0.00000000000E+00 -0.98905845882E+02  0.98905845882E+02  0.00000000000E+00 0. -1.
          2    1    1    2  501    0  0.32859780160E+01 -0.22867093278E+02 -0.20404367793E+02  0.30822716161E+02  0.00000000000E+00 0.  1.
          1    1    1    2  502    0 -0.32859780160E+01  0.22867093278E+02 -0.71471848080E+02  0.75112759731E+02  0.00000000000E+00 0. -1.
</event>
<event>
 4    1  0.3767413E+003  0.2001583E+02  0.7546771E-02  0.1533794E+00
          2   -1    0    0  502    0  0.00000000000E+00  0.00000000000E+00  0.73428513969E+03  0.73428513969E+03  0.00000000000E+00 0. -1.
          1   -1    0    0  501    0 -0.00000000000E+00 -0.00000000000E+00 -0.43467390886E+03  0.43467390886E+03  0.00000000000E+00 0. -1.
          2    1    1    2  501    0  0.20007250636E+02  0.58603626605E+00  0.73391820006E+03  0.73419109086E+03  0.00000000000E+00 0. -1.
          1    1    1    2  502    0 -0.20007250636E+02 -0.58603626605E+00 -0.43430696922E+03  0.43476795769E+03  0.00000000000E+00 0. -1.
</event>
<event>
 4    1  0.3767413E+003  0.2720447E+02  0.7546771E-02  0.1445565E+00
          2   -1    0    0  502    0  0.00000000000E+00  0.00000000000E+00  0.22539368402E+04  0.22539368402E+04  0.00000000000E+00 0.  1.
          1   -1    0    0  501    0 -0.00000000000E+00 -0.00000000000E+00 -0.79140660403E+00  0.79140660403E+00  0.00000000000E+00 0.  1.
          2    1    1    2  501    0  0.10612809020E+02 -0.25048981841E+02  0.19889171867E+04  0.19891032297E+04  0.00000000000E+00 0.  1.
          1    1    1    2  502    0 -0.10612809020E+02  0.25048981841E+02  0.26422824691E+03  0.26562501703E+03  0.00000000000E+00 0.  1.
</event>
<event>
 4    1  0.3767413E+003  0.2416127E+02  0.7546771E-02  0.1478409E+00
          2   -1    0    0  502    0  0.00000000000E+00  0.00000000000E+00  0.76727962812E+03  0.76727962812E+03  0.00000000000E+00 0. -1.
          1   -1    0    0  501    0 -0.00000000000E+00 -0.00000000000E+00 -0.13235429818E+02  0.13235429818E+02  0.00000000000E+00 0.  1.
          2    1    1    2  501    0 -0.24161006461E+02 -0.11180979541E+00  0.75589682610E+03  0.75628286933E+03  0.00000000000E+00 0. -1.
          1    1    1    2  502    0  0.24161006461E+02  0.11180979541E+00 -0.18526278037E+01  0.24232188602E+02  0.00000000000E+00 0.  1.
</event>
<event>
 4    1  0.3767413E+003  0.3148329E+02  0.7546771E-02  0.1407130E+00
          2   -1    0    0  502    0  0.00000000000E+00  0.00000000000E+00  0.46321911879E+02  0.46321911879E+02  0.00000000000E+00 0.  1.
          1   -1    0    0  501    0 -0.00000000000E+00 -0.00000000000E+00 -0.42360145311E+03  0.42360145311E+03  0.00000000000E+00 0.  1.
          2    1    1    2  501    0 -0.91843558687E+01  0.30113873991E+02  0.40310521724E+02  0.51148176518E+02  0.00000000000E+00 0.  1.
          1    1    1    2  502    0  0.91843558687E+01 -0.30113873991E+02 -0.41759006295E+03  0.41877518847E+03  0.00000000000E+00 0.  1.
</event>
<event>
 4    1  0.3767413E+003  0.2069319E+02  0.7546771E-02  0.1523691E+00
          2   -1    0    0  502    0  0.00000000000E+00  0.00000000000E+00  0.22975146193E+03  0.22975146193E+03  0.00000000000E+00 0.  1.
          1   -1    0    0  501    0 -0.00000000000E+00 -0.00000000000E+00 -0.39393396415E+01  0.39393396415E+01  0.00000000000E+00 0. -1.
          2    1    1    2  501    0  0.20469491953E+02 -0.30344808925E+01  0.19771987826E+03  0.19879979486E+03  0.00000000000E+00 0.  1.
          1    1    1    2  502    0 -0.20469491953E+02  0.30344808925E+01  0.28092244022E+02  0.34891006711E+02  0.00000000000E+00 0. -1.
</event>
<event>
 4    1  0.3767413E+003  0.2169258E+02  0.7546771E-02  0.1509602E+00
          2   -1    0    0  502    0  0.00000000000E+00  0.00000000000E+00  0.22759600012E+02  0.22759600012E+02  0.00000000000E+00 0.  1.
          1   -1    0    0  501    0 -0.00000000000E+00 -0.00000000000E+00 -0.51361736853E+02  0.51361736853E+02  0.00000000000E+00 0. -1.
          2    1    1    2  501    0 -0.75287604049E+01 -0.20344183352E+02  0.14344973093E+02  0.26006658427E+02  0.00000000000E+00 0.  1.
          1    1    1    2  502    0  0.75287604049E+01  0.20344183352E+02 -0.42947109934E+02  0.48114678438E+02  0.00000000000E+00 0. -1.
</event>
<event>
 4    1  0.3767413E+003  0.2283271E+02  0.7546771E-02  0.1494610E+00
          2   -1    0    0  502    0  0.00000000000E+00  0.00000000000E+00  0.21744064406E+03  0.21744064406E+03  0.00000000000E+00 0.  1.
          1   -1    0    0  501    0 -0.00000000000E+00 -0.00000000000E+00 -0.12263744799E+04  0.12263744799E+04  0.00000000000E+00 0.  1.
          2    1    1    2  501    0 -0.94901677071E-01  0.22832510718E+02  0.21673462727E+03  0.21793400655E+03  0.00000000000E+00 0.  1.
          1    1    1    2  502    0  0.94901677071E-01 -0.22832510718E+02 -0.12256684631E+04  0.12258811174E+04  0.00000000000E+00 0.  1.
</event>
<event>
 4    1  0.3767413E+003  0.2135655E+02  0.7546771E-02  0.1514235E+00
          2   -1    0    0  502    0  0.00000000000E+00  0.00000000000E+00  0.30930625073E+01  0.30930625073E+01  0.00000000000E+00 0.  1.
          1   -1    0    0  501    0 -0.00000000000E+00 -0.00000000000E+00 -0.39228908210E+03  0.39228908210E+03  0.00000000000E+00 0. -1.
          2    1    1    2  501    0  0.12821053189E+02  0.17079892573E+02 -0.38421506205E+02  0.43958096800E+02  0.00000000000E+00 0.  1.
          1    1    1    2  502    0 -0.12821053189E+02 -0.17079892573E+02 -0.35077451339E+03  0.35142404781E+03  0.00000000000E+00 0. -1.
</event>
<event>
 4    1  0.3767413E+003  0.2655391E+02  0.7546771E-02  0.1452141E+00
          2   -1    0    0  502    0  0.00000000000E+00  0.00000000000E+00  0.19295370488E+03  0.19295370488E+03  0.00000000000E+00 0.  1.
          1   -1    0    0  501    0 -0.00000000000E+00 -0.00000000000E+00 -0.47140098893E+01  0.47140098893E+01  0.00000000000E+00 0.  1.
          2    1    1    2  501    0 -0.25650605210E+02 -0.68670262395E+01  0.47259533829E+02  0.54208607571E+02  0.00000000000E+00 0.  1.
          1    1    1    2  502    0  0.25650605210E+02  0.68670262395E+01  0.14098016116E+03  0.14345910720E+03  0.00000000000E+00 0.  1.
</event>
<event>
 4    1  0.3767413E+003  0.7476881E+02  0.7546771E-02  0.1216542E+00
          2   -1    0    0  502    0  0.00000000000E+00  0.00000000000E+00  0.57564882574E+03  0.57564882574E+03  0.00000000000E+00 0. -1.
          1   -1    0    0  501    0 -0.00000000000E+00 -0.00000000000E+00 -0.95225048310E+03  0.95225048310E+03  0.00000000000E+00 0. -1.
          2    1    1    2  501    0 -0.54979910821E+02  0.50671332402E+02  0.57174331031E+03  0.57661147006E+03  0.00000000000E+00 0. -1.
          1    1    1    2  502    0  0.54979910821E+02 -0.50671332402E+02 -0.94834496767E+03  0.95128783879E+03  0.00000000000E+00 0. -1.
</event>
<event>
 4    1  0.3767413E+003  0.2227158E+02  0.7546771E-02  0.1501853E+00
          2   -1    0    0  502    0  0.00000000000E+00  0.00000000000E+00  0.70093776186E+03  0.70093776186E+03  0.00000000000E+00 0. -1.
          1   -1    0    0  501    0 -0.00000000000E+00 -0.00000000000E+00 -0.10910791844E+02  0.10910791844E+02  0.00000000000E+00 0.  1.
          2    1    1    2  501    0 -0.89700286992E+01 -0.20385333977E+02  0.68920193864E+03  0.68956169809E+03  0.00000000000E+00 0. -1.
          1    1    1    2  502    0  0.89700286992E+01  0.20385333977E+02  0.82503137822E+00  0.22286855610E+02  0.00000000000E+00 0.  1.
</event>
<event>
 4    1  0.3767413E+003  0.3298751E+02  0.7546771E-02  0.1395292E+00
          2   -1    0    0  502    0  0.00000000000E+00  0.00000000000E+00  0.10332051825E+04  0.10332051825E+04  0.00000000000E+00 0.  1.
          1   -1    0    0  501    0 -0.00000000000E+00 -0.00000000000E+00 -0.10938374637E+03  0.10938374637E+03  0.00000000000E+00 0.  1.
          2    1    1    2  501    0  0.36631574330E+01  0.32783486278E+02  0.10304481691E+04  0.10309760448E+04  0.00000000000E+00 0.  1.
          1    1    1    2  502    0 -0.36631574330E+01 -0.32783486278E+02 -0.10662673301E+03  0.11161288405E+03  0.00000000000E+00 0.  1.
</event>
<event>
 4    1  0.3767413E+003  0.3214322E+02  0.7546771E-02  0.1401842E+00
          2   -1    0    0  502    0  0.00000000000E+00  0.00000000000E+00  0.22544564990E+03  0.22544564990E+03  0.00000000000E+00 0.  1.
          1   -1    0    0  501    0 -0.00000000000E+00 -0.00000000000E+00 -0.34759569097E+03  0.34759569097E+03  0.00000000000E+00 0. -1.
          2    1    1    2  501    0 -0.29540543700E+02  0.12670562987E+02  0.22355057133E+03  0.22584960666E+03  0.00000000000E+00 0.  1.
          1    1    1    2  502    0  0.29540543700E+02 -0.12670562987E+02 -0.34570061240E+03  0.34719173421E+03  0.00000000000E+00 0. -1.
</event>
<event>
 4    1  0.3767413E+003  0.2082158E+02  0.7546771E-02  0.1521828E+00
          2   -1    0    0  502    0  0.00000000000E+00  0.00000000000E+00  0.15152358845E+01  0.15152358845E+01  0.00000000000E+00 0.  1.
          1   -1    0    0  501    0 -0.00000000000E+00 -0.00000000000E+00 -0.48704478441E+03  0.48704478441E+03  0.00000000000E+00 0.  1.
          2    1    1    2  501    0  0.25244465545E+01 -0.20667975160E+02 -0.85865426702E+02  0.88353888032E+02  0.00000000000E+00 0.  1.
          1    1    1    2  502    0 -0.25244465545E+01  0.20667975160E+02 -0.39966412182E+03  0.40020613226E+03  0.00000000000E+00 0.  1.
</event>
<event>
 4    1  0.3767413E+003  0.2396817E+02  0.7546771E-02  0.1480686E+00
          2   -1    0    0  502    0  0.00000000000E+00  0.00000000000E+00  0.54554787723E+03  0.54554787723E+03  0.00000000000E+00 0.  1.
          1   -1    0    0  501    0 -0.00000000000E+00 -0.00000000000E+00 -0.10577755285E+02  0.10577755285E+02  0.00000000000E+00 0.  1.
          2    1    1    2  501    0  0.23712739567E+02 -0.34898468501E+01  0.53134448325E+03  0.53188479291E+03  0.00000000000E+00 0.  1.
          1    1    1    2  502    0 -0.23712739567E+02  0.34898468501E+01  0.36256386953E+01  0.24240839605E+02  0.00000000000E+00 0.  1.
</event>
<event>
 4    1  0.3767413E+003  0.2043355E+02  0.7546771E-02  0.1527508E+00
          2   -1    0    0  502    0  0.00000000000E+00  0.00000000000E+00  0.14128166067E+03  0.14128166067E+03  0.00000000000E+00 0.  1.
          1   -1    0    0  501    0 -0.00000000000E+00 -0.00000000000E+00 -0.71755605697E+01  0.71755605697E+01  0.00000000000E+00 0. -1.
          2    1    1    2  501    0 -0.64435672951E+01 -0.19390983389E+02  0.12397935689E+03  0.12565194281E+03  0.00000000000E+00 0.  1.
          1    1    1    2  502    0  0.64435672951E+01  0.19390983389E+02  0.10126743207E+02  0.22805278430E+02  0.00000000000E+00 0. -1.
</event>
<event>
 4    1  0.3767413E+003  0.2198982E+02  0.7546771E-02  0.1505588E+00
          2   -1    0    0  502    0  0.00000000000E+00  0.00000000000E+00  0.39098050965E+02  0.39098050965E+02  0.00000000000E+00 0. -1.
          1   -1    0    0  501    0 -0.00000000000E+00 -0.00000000000E+00 -0.67793618517E+02  0.67793618517E+02  0.00000000000E+00 0. -1.
          2    1    1    2  501    0  0.10393353161E+02  0.19378603902E+02  0.33977676049E+02  0.40472639509E+02  0.00000000000E+00 0. -1.
          1    1    1    2  502    0 -0.10393353161E+02 -0.19378603902E+02 -0.62673243601E+02  0.66419029973E+02  0.00000000000E+00 0. -1.
</event>
<event>
 4    1  0.3767413E+003  0.2214662E+02  0.7546771E-02  0.1503501E+00
          2   -1    0    0  502    0  0.00000000000E+00  0.00000000000E+00  0.23794236633E+02  0.23794236633E+02  0.00000000000E+00 0.  1.
          1   -1    0    0  501    0 -0.00000000000E+00 -0.00000000000E+00 -0.46305590801E+02  0.46305590801E+02  0.00000000000E+00 0. -1.
          2    1    1    2  501    0  0.12756570136E+02 -0.18103670838E+02  0.14852307232E+02  0.26665783498E+02  0.00000000000E+00 0.  1.
          1    1    1    2  502    0 -0.12756570136E+02  0.18103670838E+02 -0.37363661401E+02  0.43434043937E+02  0.00000000000E+00 0. -1.
</event>
<event>
 4    1  0.3767413E+003  0.2693778E+02  0.7546771E-02  0.1448234E+00
          2   -1    0    0  502    0  0.00000000000E+00  0.00000000000E+00  0.12120539022E+02  0.12120539022E+02  0.00000000000E+00 0. -1.
          1   -1    0    0  501    0 -0.00000000000E+00 -0.00000000000E+00 -0.12140584686E+04  0.12140584686E+04  0.00000000000E+00 0. -1.
          2    1    1    2  501    0  0.26887103031E+02  0.16516221551E+01 -0.31872324435E+01  0.27125681849E+02  0.00000000000E+00 0. -1.
          1    1    1    2  502    0 -0.26887103031E+02 -0.16516221551E+01 -0.11987506971E+04  0.11990533258E+04  0.00000000000E+00 0. -1.
</event>
<event>
 4    1  0.3767413E+003  0.2783442E+02  0.7546771E-02  0.1439402E+00
          2   -1    0    0  502    0  0.00000000000E+00  0.00000000000E+00  0.29196340343E+02  0.29196340343E+02  0.00000000000E+00 0. -1.
          1   -1    0    0  501    0 -0.00000000000E+00 -0.00000000000E+00 -0.72281613880E+03  0.72281613880E+03  0.00000000000E+00 0.  1.
          2    1    1    2  501    0 -0.17384837076E+02  0.21737581074E+02  0.22229832065E+02  0.35621909336E+02  0.00000000000E+00 0. -1.
          1    1    1    2  502    0  0.17384837076E+02 -0.21737581074E+02 -0.71584963052E+03  0.71639056981E+03  0.00000000000E+00 0.  1.
</event>
<event>
 4    1  0.3767413E+003  0.2336252E+02  0.7546771E-02  0.1487995E+00
          2   -1    0    0  502    0  0.00000000000E+00  0.00000000000E+00  0.14173026400E+02  0.14173026400E+02  0.00000000000E+00 0.  1.
          1   -1    0    0  501    0 -0.00000000000E+00 -0.00000000000E+00 -0.62719168635E+03  0.62719168635E+03  0.00000000000E+00 0. -1.
          2    1    1    2  501    0 -0.16280816957E+02  0.16755367872E+02  0.41719426130E+01  0.23732097642E+02  0.00000000000E+00 0.  1.
          1    1    1    2  502    0  0.16280816957E+02 -0.16755367872E+02 -0.61719060256E+03  0.61763261511E+03  0.00000000000E+00 0. -1.
</event>
<event>
 4    1  0.3767413E+003  0.2656160E+02  0.7546771E-02  0.1452062E+00
          2   -1    0    0  502    0  0.00000000000E+00  0.00000000000E+00  0.67553082056E+03  0.67553082056E+03  0.00000000000E+00 0.  1.
          1   -1    0    0  501    0 -0.00000000000E+00 -0.00000000000E+00 -0.25449246243E+02  0.25449246243E+02  0.00000000000E+00 0.  1.
          2    1    1    2  501    0 -0.26552330029E+02  0.70186164296E+00  0.66826373882E+03  0.66879140504E+03  0.00000000000E+00 0.  1.
          1    1    1    2  502    0  0.26552330029E+02 -0.70186164296E+00 -0.18182164503E+02  0.32188661758E+02  0.00000000000E+00 0.  1.
</event>
<event>
 4    1  0.3767413E+003  0.2737721E+02  0.7546771E-02  0.1443855E+00
          2   -1    0    0  502    0  0.00000000000E+00  0.00000000000E+00  0.15099771361E+01  0.15099771361E+01  0.00000000000E+00 0.  1.
          1   -1    0    0  501    0 -0.00000000000E+00 -0.00000000000E+00 -0.50343217780E+03  0.50343217780E+03  0.00000000000E+00 0. -1.
          2    1    1    2  501    0 -0.15034433901E+02 -0.22879616673E+02 -0.28085860175E+03  0.28218976813E+03  0.00000000000E+00 0.  1.
          1    1    1    2  502    0  0.15034433901E+02  0.22879616673E+02 -0.22106359892E+03  0.22275238680E+03  0.00000000000E+00 0. -1.
</event>
<event>
 4    1  0.3767413E+003  0.2807000E+02  0.7546771E-02  0.1437146E+00
          2   -1    0    0  502    0  0.00000000000E+00  0.00000000000E+00  0.18068334039E+03  0.18068334039E+03  0.00000000000E+00 0.  1.
          1   -1    0    0  501    0 -0.00000000000E+00 -0.00000000000E+00 -0.45113745078E+01  0.45113745078E+01  0.00000000000E+00 0. -1.
          2    1    1    2  501    0 -0.12478807084E+02  0.25143669249E+02  0.10500259320E+03  0.10868978474E+03  0.00000000000E+00 0.  1.
          1    1    1    2  502    0  0.12478807084E+02 -0.25143669249E+02  0.71169372689E+02  0.76504930158E+02  0.00000000000E+00 0. -1.
</event>
<event>
 4    1  0.3767413E+003  0.2593754E+02  0.7546771E-02  0.1458583E+00
          2   -1    0    0  502    0  0.00000000000E+00  0.00000000000E+00  0.95726894787E+01  0.95726894787E+01  0.00000000000E+00 0.  1.
          1   -1    0    0  501    0 -0.00000000000E+00 -0.00000000000E+00 -0.99630700931E+02  0.99630700931E+02  0.00000000000E+00 0. -1.
          2    1    1    2  501    0 -0.50405642791E+01  0.25443044663E+02 -0.15392385868E+02  0.30160924267E+02  0.00000000000E+00 0.  1.
          1    1    1    2  502    0  0.50405642791E+01 -0.25443044663E+02 -0.74665625584E+02  0.79042466142E+02  0.00000000000E+00 0. -1.
</event>
<event>
 4    1  0.3767413E+003  0.2364751E+02  0.7546771E-02  0.1484524E+00
          2   -1    0    0  502    0  0.00000000000E+00  0.00000000000E+00  0.15751067682E+03  0.15751067682E+03  0.00000000000E+00 0. -1.
          1   -1    0    0  501    0 -0.00000000000E+00 -0.00000000000E+00 -0.23365800813E+02  0.23365800813E+02  0.00000000000E+00 0. -1.
          2    1    1    2  501    0 -0.19858306158E+02 -0.12839481814E+02  0.15035703205E+03  0.15220526175E+03  0.00000000000E+00 0. -1.
          1    1    1    2  502    0  0.19858306158E+02  0.12839481814E+02 -0.16212156044E+02  0.28671215885E+02  0.00000000000E+00 0. -1.
</event>
<event>
 4    1  0.3767413E+003  0.2161525E+02  0.7546771E-02  0.1510659E+00
          2   -1    0    0  502    0  0.00000000000E+00  0.00000000000E+00  0.44590176330E+03  0.44590176330E+03  0.00000000000E+00 0. -1.
          1   -1    0    0  501    0 -0.00000000000E+00 -0.00000000000E+00 -0.64746671862E+01  0.64746671862E+01  0.00000000000E+00 0.  1.
          2    1    1    2  501    0  0.10758893667E+02 -0.18747409205E+02  0.42679230601E+03  0.42733931672E+03  0.00000000000E+00 0. -1.
          1    1    1    2  502    0 -0.10758893667E+02  0.18747409205E+02  0.12634790105E+02  0.25037113768E+02  0.00000000000E+00 0.  1.
</event>
<event>
 4    1  0.4877380E+003  0.2240717E+02  0.7546771E-02  0.1500080E+00
          2   -1    0    0  502    0  0.00000000000E+00  0.00000000000E+00  0.66154408847E+03  0.66154408847E+03  0.00000000000E+00 0. -1.
          1   -1    0    0  501    0 -0.00000000000E+00 -0.00000000000E+00 -0.92179893463E+03  0.92179893463E+03  0.00000000000E+00 0. -1.
          2    1    1    2  501    0  0.16807545959E+02 -0.14818490723E+02  0.66121811409E+03  0.66159766903E+03  0.00000000000E+00 0. -1.
          1    1    1    2  502    0 -0.16807545959E+02  0.14818490723E+02 -0.92147296026E+03  0.92174535407E+03  0.00000000000E+00 0. -1.
</event>
<event>
 4    1  0.3767413E+003  0.7464528E+02  0.7546771E-02  0.1216856E+00
          2   -1    0    0  502    0  0.00000000000E+00  0.00000000000E+00  0.28723266437E+04  0.28723266437E+04  0.00000000000E+00 0.  1.
          1   -1    0    0  501    0 -0.00000000000E+00 -0.00000000000E+00 -0.13501041227E+04  0.13501041227E+04  0.00000000000E+00 0.  1.
          2    1    1    2  501    0  0.19630826554E+02  0.72017691929E+02  0.28708093760E+04  0.28717796557E+04  0.00000000000E+00 0.  1.
          1    1    1    2  502    0 -0.19630826554E+02 -0.72017691929E+02 -0.13485868550E+04  0.13506511107E+04  0.00000000000E+00 0.  1.
</event>
<event>
 4    1  0.3767413E+003  0.2888558E+02  0.7546771E-02  0.1429534E+00
          2   -1    0    0  502    0  0.00000000000E+00  0.00000000000E+00  0.21683881457E+02  0.21683881457E+02  0.00000000000E+00 0. -1.
          1   -1    0    0  501    0 -0.00000000000E+00 -0.00000000000E+00 -0.59092967453E+02  0.59092967453E+02  0.00000000000E+00 0.  1.
          2    1    1    2  501    0  0.23775283868E+02  0.16404651967E+02  0.51498579956E+01  0.29341059397E+02  0.00000000000E+00 0. -1.
          1    1    1    2  502    0 -0.23775283868E+02 -0.16404651967E+02 -0.42558943992E+02  0.51435789513E+02  0.00000000000E+00 0.  1.
</event>
<event>
 4    1  0.3767413E+003  0.2038563E+02  0.7546771E-02  0.1528220E+00
          2   -1    0    0  502    0  0.00000000000E+00  0.00000000000E+00  0.15627646359E+04  0.15627646359E+04  0.00000000000E+00 0. -1.
          1   -1    0    0  501    0 -0.00000000000E+00 -0.00000000000E+00 -0.15782060905E+01  0.15782060905E+01  0.00000000000E+00 0. -1.
          2    1    1    2  501    0  0.11230784119E+02 -0.17013034675E+02  0.14938304035E+04  0.14939694938E+04  0.00000000000E+00 0. -1.
          1    1    1    2  502    0 -0.11230784119E+02  0.17013034675E+02  0.67356026252E+02  0.70373348174E+02  0.00000000000E+00 0. -1.
</event>
<event>
 4    1  0.3767413E+003  0.2403854E+02  0.7546771E-02  0.1479853E+00
          2   -1    0    0  502    0  0.00000000000E+00  0.00000000000E+00  0.53055385186E+03  0.53055385186E+03  0.00000000000E+00 0. -1.
          1   -1    0    0  501    0 -0.00000000000E+00 -0.00000000000E+00 -0.16591287538E+01  0.16591287538E+01  0.00000000000E+00 0. -1.
          2    1    1    2  501    0  0.64303629578E+01 -0.23162506232E+02  0.42041906231E+03  0.42110573401E+03  0.00000000000E+00 0. -1.
          1    1    1    2  502    0 -0.64303629578E+01  0.23162506232E+02  0.10847566080E+03  0.11110724661E+03  0.00000000000E+00 0. -1.
</event>
<event>
 4    1  0.3767413E+003  0.2735957E+02  0.7546771E-02  0.1444029E+00
          2   -1    0    0  502    0  0.00000000000E+00  0.00000000000E+00  0.17938257144E+03  0.17938257144E+03  0.00000000000E+00 0. -1.
          1   -1    0    0  501    0 -0.00000000000E+00 -0.00000000000E+00 -0.13709163375E+02  0.13709163375E+02  0.00000000000E+00 0. -1.
          2    1    1    2  501    0 -0.21554190411E+01 -0.27274539423E+02  0.16335920027E+03  0.16563446092E+03  0.00000000000E+00 0. -1.
          1    1    1    2  502    0  0.21554190411E+01  0.27274539423E+02  0.23142077959E+01  0.27457273894E+02  0.00000000000E+00 0. -1.
</event>
<event>
 4    1  0.3767413E+003  0.2192215E+02  0.7546771E-02  0.1506495E+00
          2   -1    0    0  502    0  0.00000000000E+00  0.00000000000E+00  0.15270114981E+04  0.15270114981E+04  0.00000000000E+00 0. -1.
          1   -1    0    0  501    0 -0.00000000000E+00 -0.00000000000E+00 -0.81243495556E+01  0.81243495556E+01  0.00000000000E+00 0.  1.
          2    1    1    2  501    0 -0.11917474248E+02  0.18399854256E+02  0.15119976951E+04  0.15121566092E+04  0.00000000000E+00 0. -1.
          1    1    1    2  502    0  0.11917474248E+02 -0.18399854256E+02  0.68894534110E+01  0.22979238399E+02  0.00000000000E+00 0.  1.
</event>
<event>
 4    1  0.3767413E+003  0.2040756E+02  0.7546771E-02  0.1527894E+00
          2   -1    0    0  502    0  0.00000000000E+00  0.00000000000E+00  0.34764437416E+02  0.34764437416E+02  0.00000000000E+00 0.  1.
          1   -1    0    0  501    0 -0.00000000000E+00 -0.00000000000E+00 -0.53695808228E+02  0.53695808228E+02  0.00000000000E+00 0. -1.
          2    1    1    2  501    0 -0.37996169189E+00 -0.20404022689E+02  0.29519508549E+02  0.35886904266E+02  0.00000000000E+00 0.  1.
          1    1    1    2  502    0  0.37996169189E+00  0.20404022689E+02 -0.48450879361E+02  0.52573341378E+02  0.00000000000E+00 0. -1.
</event>
<event>
 4    1  0.3767413E+003  0.2454601E+02  0.7546771E-02  0.1473947E+00
          2   -1    0    0  502    0  0.00000000000E+00  0.00000000000E+00  0.27996913505E+02  0.27996913505E+02  0.00000000000E+00 0. -1.
          1   -1    0    0  501    0 -0.00000000000E+00 -0.00000000000E+00 -0.30265119043E+03  0.30265119043E+03  0.00000000000E+00 0.  1.
          2    1    1    2  501    0  0.15469395271E+02  0.19057926655E+02  0.22010728827E+02  0.32969363687E+02  0.00000000000E+00 0. -1.
          1    1    1    2  502    0 -0.15469395271E+02 -0.19057926655E+02 -0.29666500575E+03  0.29767874025E+03  0.00000000000E+00 0.  1.
</event>
<event>
 4    1  0.3767413E+003  0.2083994E+02  0.7546771E-02  0.1521562E+00
          2   -1    0    0  502    0  0.00000000000E+00  0.00000000000E+00  0.17568484097E+02  0.17568484097E+02  0.00000000000E+00 0.  1.
          1   -1    0    0  501    0 -0.00000000000E+00 -0.00000000000E+00 -0.33801765189E+02  0.33801765189E+02  0.00000000000E+00 0.  1.
          2    1    1    2  501    0  0.19881948090E+02  0.62458991020E+01  0.51965839363E+01  0.21478072541E+02  0.00000000000E+00 0.  1.
          1    1    1    2  502    0 -0.19881948090E+02 -0.62458991020E+01 -0.21429865028E+02  0.29892176745E+02  0.00000000000E+00 0.  1.
</event>
<event>
 4    1  0.3767413E+003  0.3317613E+02  0.7546771E-02  0.1393860E+00
          2   -1    0    0  502    0  0.00000000000E+00  0.00000000000E+00  0.43763865121E+02  0.43763865121E+02  0.00000000000E+00 0. -1.
          1   -1    0    0  501    0 -0.00000000000E+00 -0.00000000000E+00 -0.31138098893E+02  0.31138098893E+02  0.00000000000E+00 0. -1.
          2    1    1    2  501    0 -0.32615546735E+02 -0.60730134144E+01  0.22736411799E+02  0.40219395847E+02  0.00000000000E+00 0. -1.
          1    1    1    2  502    0  0.32615546735E+02  0.60730134144E+01 -0.10110645572E+02  0.34682568167E+02  0.00000000000E+00 0. -1.
</event>
<event>
 4    1  0.3767413E+003  0.2171206E+02  0.7546771E-02  0.1509337E+00
          2   -1    0    0  502    0  0.00000000000E+00  0.00000000000E+00  0.32855336387E+01  0.32855336387E+01  0.00000000000E+00 0. -1.
          1   -1    0    0  501    0 -0.00000000000E+00 -0.00000000000E+00 -0.24163956806E+03  0.24163956806E+03  0.00000000000E+00 0. -1.
          2    1    1    2  501    0 -0.24980990505E+01  0.21567869845E+02 -0.41125359172E+02  0.46504931733E+02  0.00000000000E+00 0. -1.
          1    1    1    2  502    0  0.24980990505E+01 -0.21567869845E+02 -0.19722867525E+03  0.19842016997E+03  0.00000000000E+00 0. -1.
</event>
<event>
 4    1  0.3767413E+003  0.2442779E+02  0.7546771E-02  0.1475308E+00
          2   -1    0    0  502    0  0.00000000000E+00  0.00000000000E+00  0.22383197408E+01  0.22383197408E+01  0.00000000000E+00 0.  1.
          1   -1    0    0  501    0 -0.00000000000E+00 -0.00000000000E+00 -0.46986981945E+03  0.46986981945E+03  0.00000000000E+00 0.  1.
          2    1    1    2  501    0  0.94126857462E+01  0.22541476893E+02 -0.78552620433E+02  0.82263181378E+02  0.00000000000E+00 0.  1.
          1    1    1    2  502    0 -0.94126857462E+01 -0.22541476893E+02 -0.38907887928E+03  0.38984495782E+03  0.00000000000E+00 0.  1.
</event>
<event>
 4    1  0.3767413E+003  0.2303568E+02  0.7546771E-02  0.1492051E+00
          2   -1    0    0  502    0  0.00000000000E+00  0.00000000000E+00  0.58604150809E+02  0.58604150809E+02  0.00000000000E+00 0.  1.
          1   -1    0    0  501    0 -0.00000000000E+00 -0.00000000000E+00 -0.10403174241E+04  0.10403174241E+04  0.00000000000E+00 0. -1.
          2    1    1    2  501    0  0.94297827875E+01 -0.21017176284E+02  0.56207732708E+02  0.60744972785E+02  0.00000000000E+00 0.  1.
          1    1    1    2  502    0 -0.94297827875E+01  0.21017176284E+02 -0.10379210060E+04  0.10381766021E+04  0.00000000000E+00 0. -1.
</event>
<event>
 4    1  0.3767413E+003  0.2662392E+02  0.7546771E-02  0.1451423E+00
          2   -1    0    0  502    0  0.00000000000E+00  0.00000000000E+00  0.27443282771E+02  0.27443282771E+02  0.00000000000E+00 0. -1.
          1   -1    0    0  501    0 -0.00000000000E+00 -0.00000000000E+00 -0.10818137721E+03  0.10818137721E+03  0.00000000000E+00 0.  1.
          2    1    1    2  501    0  0.26321775120E+02 -0.39996794637E+01  0.18796708166E+02  0.32590635451E+02  0.00000000000E+00 0. -1.
          1    1    1    2  502    0 -0.26321775120E+02  0.39996794637E+01 -0.99534802602E+02  0.10303402453E+03  0.00000000000E+00 0.  1.
</event>
<event>
 4    1  0.3767413E+003  0.2336052E+02  0.7546771E-02  0.1488020E+00
          2   -1    0    0  502    0  0.00000000000E+00  0.00000000000E+00  0.17668017463E+02  0.17668017463E+02  0.00000000000E+00 0.  1.
          1   -1    0    0  501    0 -0.00000000000E+00 -0.00000000000E+00 -0.10781710007E+03  0.10781710007E+03  0.00000000000E+00 0.  1.
          2    1    1    2  501    0 -0.21985622033E+02 -0.78959796902E+01  0.79242822541E+01  0.24667961421E+02  0.00000000000E+00 0.  1.
          1    1    1    2  502    0  0.21985622033E+02  0.78959796902E+01 -0.98073364864E+02  0.10081715612E+03  0.00000000000E+00 0.  1.
</event>
<event>
 4    1  0.3767413E+003  0.3546086E+02  0.7546771E-02  0.1377352E+00
          2   -1    0    0  502    0  0.00000000000E+00  0.00000000000E+00  0.87952976038E+03  0.87952976038E+03  0.00000000000E+00 0.  1.
          1   -1    0    0  501    0 -0.00000000000E+00 -0.00000000000E+00 -0.10376352749E+02  0.10376352749E+02  0.00000000000E+00 0.  1.
          2    1    1    2  501    0 -0.35300183651E+02 -0.33718676402E+01  0.84774013902E+03  0.84848147638E+03  0.00000000000E+00 0.  1.
          1    1    1    2  502    0  0.35300183651E+02  0.33718676402E+01  0.21413268617E+02  0.41424636752E+02  0.00000000000E+00 0.  1.
</event>
<event>
 4    1  0.3767413E+003  0.2615143E+02  0.7546771E-02  0.1456324E+00
          2   -1    0    0  502    0  0.00000000000E+00  0.00000000000E+00  0.57482365583E+03  0.57482365583E+03  0.00000000000E+00 0. -1.
          1   -1    0    0  501    0 -0.00000000000E+00 -0.00000000000E+00 -0.24923796392E+02  0.24923796392E+02  0.00000000000E+00 0.  1.
          2    1    1    2  501    0  0.75424470629E+01 -0.25040139599E+02  0.56757882093E+03  0.56818097034E+03  0.00000000000E+00 0. -1.
          1    1    1    2  502    0 -0.75424470629E+01  0.25040139599E+02 -0.17678961487E+02  0.31566481877E+02  0.00000000000E+00 0.  1.
</event>
<event>
 4    1  0.3767413E+003  0.2406292E+02  0.7546771E-02  0.1479566E+00
          2   -1    0    0  502    0  0.00000000000E+00  0.00000000000E+00  0.13436054072E+04  0.13436054072E+04  0.00000000000E+00 0. -1.
          1   -1    0    0  501    0 -0.00000000000E+00 -0.00000000000E+00 -0.77684753071E+00  0.77684753071E+00  0.00000000000E+00 0. -1.
          2    1    1    2  501    0  0.70693053803E+01 -0.23001060917E+02  0.11199530127E+04  0.11202114866E+04  0.00000000000E+00 0. -1.
          1    1    1    2  502    0 -0.70693053803E+01  0.23001060917E+02  0.22287554690E+03  0.22417076814E+03  0.00000000000E+00 0. -1.
</event>
<event>
 4    1  0.3767413E+003  0.2124346E+02  0.7546771E-02  0.1515817E+00
          2   -1    0    0  502    0  0.00000000000E+00  0.00000000000E+00  0.43838219520E+03  0.43838219520E+03  0.00000000000E+00 0. -1.
          1   -1    0    0  501    0 -0.00000000000E+00 -0.00000000000E+00 -0.97458178031E+01  0.97458178031E+01  0.00000000000E+00 0. -1.
          2    1    1    2  501    0 -0.20702606725E+02 -0.47630576220E+01  0.42621829600E+03  0.42674737315E+03  0.00000000000E+00 0. -1.
          1    1    1    2  502    0  0.20702606725E+02  0.47630576220E+01  0.24180814004E+01  0.21380639859E+02  0.00000000000E+00 0. -1.
</event>
<event>
 4    1  0.3767413E+003  0.2415756E+02  0.7546771E-02  0.1478453E+00
          2   -1    0    0  502    0  0.00000000000E+00  0.00000000000E+00  0.12231471745E+03  0.12231471745E+03  0.00000000000E+00 0. -1.
          1   -1    0    0  501    0 -0.00000000000E+00 -0.00000000000E+00 -0.50732068687E+01  0.50732068687E+01  0.00000000000E+00 0. -1.
          2    1    1    2  501    0 -0.18365143403E+02 -0.15694248058E+02  0.74161283484E+02  0.77996691483E+02  0.00000000000E+00 0. -1.
          1    1    1    2  502    0  0.18365143403E+02  0.15694248058E+02  0.43080227100E+02  0.49391232838E+02  0.00000000000E+00 0. -1.
</event>
<event>
 4    1  0.3767413E+003  0.2016172E+02  0.7546771E-02  0.1531578E+00
          2   -1    0    0  502    0  0.00000000000E+00  0.00000000000E+00  0.94557210826E+03  0.94557210826E+03  0.00000000000E+00 0. -1.
          1   -1    0    0  501    0 -0.00000000000E+00 -0.00000000000E+00 -0.72136315745E+03  0.72136315745E+03  0.00000000000E+00 0. -1.
          2    1    1    2  501    0 -0.15275357806E+02 -0.13158971863E+02  0.94532372051E+03  0.94553869919E+03  0.00000000000E+00 0. -1.
          1    1    1    2  502    0  0.15275357806E+02  0.13158971863E+02 -0.72111476970E+03  0.72139656652E+03  0.00000000000E+00 0. -1.
</event>
<event>
 4    1  0.3767413E+003  0.2375438E+02  0.7546771E-02  0.1483237E+00
          2   -1    0    0  502    0  0.00000000000E+00  0.00000000000E+00  0.84154366869E+00  0.84154366869E+00  0.00000000000E+00 0.  1.
          1   -1    0    0  501    0 -0.00000000000E+00 -0.00000000000E+00 -0.19453062157E+04  0.19453062157E+04  0.00000000000E+00 0. -1.
          2    1    1    2  501    0  0.72027923031E+01 -0.22636037624E+02 -0.18451428183E+03  0.18603706786E+03  0.00000000000E+00 0.  1.
          1    1    1    2  502    0 -0.72027923031E+01  0.22636037624E+02 -0.17599503902E+04  0.17601106915E+04  0.00000000000E+00 0. -1.
</event>
<event>
 4    1  0.3767413E+003  0.2101447E+02  0.7546771E-02  0.1519058E+00
          2   -1    0    0  502    0  0.00000000000E+00  0.00000000000E+00  0.78109581162E+02  0.78109581162E+02  0.00000000000E+00 0.  1.
          1   -1    0    0  501    0 -0.00000000000E+00 -0.00000000000E+00 -0.17082335569E+02  0.17082335569E+02  0.00000000000E+00 0.  1.
          2    1    1    2  501    0 -0.56131569640E+01  0.20250934675E+02  0.69444456579E+02  0.72554396392E+02  0.00000000000E+00 0.  1.
          1    1    1    2  502    0  0.56131569640E+01 -0.20250934675E+02 -0.84172109849E+01  0.22637520339E+02  0.00000000000E+00 0.  1.
</event>
<event>
 4    1  0.3767413E+003  0.2450088E+02  0.7546771E-02  0.1474465E+00
          2   -1    0    0  502    0  0.00000000000E+00  0.00000000000E+00  0.38863328060E+02  0.38863328060E+02  0.00000000000E+00 0.  1.
          1   -1    0    0  501    0 -0.00000000000E+00 -0.00000000000E+00 -0.19404336047E+03  0.19404336047E+03  0.00000000000E+00 0. -1.
          2    1    1    2  501    0  0.77015341986E+01  0.23258961735E+02  0.34132260594E+02  0.42015522647E+02  0.00000000000E+00 0.  1.
          1    1    1    2  502    0 -0.77015341986E+01 -0.23258961735E+02 -0.18931229301E+03  0.19089116589E+03  0.00000000000E+00 0. -1.
</event>
<event>
 4    1  0.3767413E+003  0.2102089E+02  0.7546771E-02  0.1518967E+00
          2   -1    0    0  502    0  0.00000000000E+00  0.00000000000E+00  0.81419717658E+01  0.81419717658E+01  0.00000000000E+00 0.  1.
          1   -1    0    0  501    0 -0.00000000000E+00 -0.00000000000E+00 -0.12564481676E+03  0.12564481676E+03  0.00000000000E+00 0.  1.
          2    1    1    2  501    0 -0.11399871545E+02  0.17661275733E+02 -0.83342346108E+01  0.22612766269E+02  0.00000000000E+00 0.  1.
          1    1    1    2  502    0  0.11399871545E+02 -0.17661275733E+02 -0.10916861038E+03  0.11117402225E+03  0.00000000000E+00 0.  1.
</event>
<event>
 4    1  0.3767413E+003  0.2104493E+02  0.7546771E-02  0.1518624E+00
          2   -1    0    0  502    0  0.00000000000E+00  0.00000000000E+00  0.22498245399E+03  0.22498245399E+03  0.00000000000E+00 0.  1.
          1   -1    0    0  501    0 -0.00000000000E+00 -0.00000000000E+00 -0.16885209225E+02  0.16885209225E+02  0.00000000000E+00 0. -1.
          2    1    1    2  501    0 -0.27832282051E+01  0.20860073638E+02  0.21771457225E+03  0.21872933960E+03  0.00000000000E+00 0.  1.
          1    1    1    2  502    0  0.27832282051E+01 -0.20860073638E+02 -0.96173274905E+01  0.23138323610E+02  0.00000000000E+00 0. -1.
</event>
<event>
 4    1  0.3767413E+003  0.2082137E+02  0.7546771E-02  0.1521831E+00
          2   -1    0    0  502    0  0.00000000000E+00  0.00000000000E+00  0.22181820433E+01  0.22181820433E+01  0.00000000000E+00 0. -1.
          1   -1    0    0  501    0 -0.00000000000E+00 -0.00000000000E+00 -0.37618038105E+03  0.37618038105E+03  0.00000000000E+00 0.  1.
          2    1    1    2  501    0  0.10945725637E+02  0.17712161426E+02 -0.55838244001E+02  0.59593951583E+02  0.00000000000E+00 0. -1.
          1    1    1    2  502    0 -0.10945725637E+02 -0.17712161426E+02 -0.31812395500E+03  0.31880461151E+03  0.00000000000E+00 0.  1.
</event>
<event>
 4    1  0.3767413E+003  0.3148570E+02  0.7546771E-02  0.1407111E+00
          2   -1    0    0  502    0  0.00000000000E+00  0.00000000000E+00  0.38274831873E+03  0.38274831873E+03  0.00000000000E+00 0. -1.
          1   -1    0    0  501    0 -0.00000000000E+00 -0.00000000000E+00 -0.14296022450E+02  0.14296022450E+02  0.00000000000E+00 0. -1.
          2    1    1    2  501    0  0.26347183916E+02 -0.17238775970E+02  0.36386677469E+03  0.36522647662E+03  0.00000000000E+00 0. -1.
          1    1    1    2  502    0 -0.26347183916E+02  0.17238775970E+02  0.45855215886E+01  0.31817864565E+02  0.00000000000E+00 0. -1.
</event>
<event>
 4    1  0.3767413E+003  0.2865729E+02  0.7546771E-02  0.1431635E+00
          2   -1    0    0  502    0  0.00000000000E+00  0.00000000000E+00  0.40154988149E+01  0.40154988149E+01  0.00000000000E+00 0. -1.
          1   -1    0    0  501    0 -0.00000000000E+00 -0.00000000000E+00 -0.96733102145E+03  0.96733102145E+03  0.00000000000E+00 0.  1.
          2    1    1    2  501    0 -0.28639631548E+02  0.10058209422E+01 -0.50371326223E+02  0.57952658925E+02  0.00000000000E+00 0. -1.
          1    1    1    2  502    0  0.28639631548E+02 -0.10058209422E+01 -0.91294419641E+03  0.91339386134E+03  0.00000000000E+00 0.  1.
</event>
<event>
 4    1  0.3767413E+003  0.2007834E+02  0.7546771E-02  0.1532842E+00
          2   -1    0    0  502    0  0.00000000000E+00  0.00000000000E+00  0.50886327258E+01  0.50886327258E+01  0.00000000000E+00 0. -1.
          1   -1    0    0  501    0 -0.00000000000E+00 -0.00000000000E+00 -0.80376361188E+03  0.80376361188E+03  0.00000000000E+00 0.  1.
          2    1    1    2  501    0 -0.64418860121E+01 -0.19016879287E+02 -0.15359590314E+02  0.25279568980E+02  0.00000000000E+00 0. -1.
          1    1    1    2  502    0  0.64418860121E+01  0.19016879287E+02 -0.78331538884E+03  0.78357267563E+03  0.00000000000E+00 0.  1.
</event>
<event>
 4    1  0.3767413E+003  0.3344670E+02  0.7546771E-02  0.1391825E+00
          2   -1    0    0  502    0  0.00000000000E+00  0.00000000000E+00  0.41723819358E+03  0.41723819358E+03  0.00000000000E+00 0. -1.
          1   -1    0    0  501    0 -0.00000000000E+00 -0.00000000000E+00 -0.88210429742E+01  0.88210429742E+01  0.00000000000E+00 0.  1.
          2    1    1    2  501    0  0.34075283297E+01 -0.33272670237E+02  0.38193831761E+03  0.38340000038E+03  0.00000000000E+00 0. -1.
          1    1    1    2  502    0 -0.34075283297E+01  0.33272670237E+02  0.26478832996E+02  0.42659236173E+02  0.00000000000E+00 0.  1.
</event>
<event>
 4    1  0.3767413E+003  0.5855203E+02  0.7546771E-02  0.1264833E+00
          2   -1    0    0  502    0  0.00000000000E+00  0.00000000000E+00  0.28316408131E+03  0.28316408131E+03  0.00000000000E+00 0. -1.
          1   -1    0    0  501    0 -0.00000000000E+00 -0.00000000000E+00 -0.12178046901E+02  0.12178046901E+02  0.00000000000E+00 0.  1.
          2    1    1    2  501    0 -0.36423488857E+02  0.45843969886E+02  0.14675187400E+03  0.15800143239E+03  0.00000000000E+00 0. -1.
          1    1    1    2  502    0  0.36423488857E+02 -0.45843969886E+02  0.12423416041E+03  0.13734069582E+03  0.00000000000E+00 0.  1.
</event>
<event>
 4    1  0.3767413E+003  0.2199342E+02  0.7546771E-02  0.1505540E+00
          2   -1    0    0  502    0  0.00000000000E+00  0.00000000000E+00  0.45978842498E+02  0.45978842498E+02  0.00000000000E+00 0. -1.
          1   -1    0    0  501    0 -0.00000000000E+00 -0.00000000000E+00 -0.24400554769E+03  0.24400554769E+03  0.00000000000E+00 0.  1.
          2    1    1    2  501    0  0.11103616050E+02  0.18984737222E+02  0.42818740219E+02  0.48136836734E+02  0.00000000000E+00 0. -1.
          1    1    1    2  502    0 -0.11103616050E+02 -0.18984737222E+02 -0.24084544541E+03  0.24184755345E+03  0.00000000000E+00 0.  1.
</event>
<event>
 4    1  0.3767413E+003  0.2111406E+02  0.7546771E-02  0.1517643E+00
          2   -1    0    0  502    0  0.00000000000E+00  0.00000000000E+00  0.11674479790E+04  0.11674479790E+04  0.00000000000E+00 0. -1.
          1   -1    0    0  501    0 -0.00000000000E+00 -0.00000000000E+00 -0.83543644669E+02  0.83543644669E+02  0.00000000000E+00 0. -1.
          2    1    1    2  501    0  0.45403131258E+01 -0.20620108743E+02  0.11660168332E+04  0.11662079825E+04  0.00000000000E+00 0. -1.
          1    1    1    2  502    0 -0.45403131258E+01  0.20620108743E+02 -0.82112498863E+02  0.84783641095E+02  0.00000000000E+00 0. -1.
</event>
<event>
 4    1  0.3767413E+003  0.2430534E+02  0.7546771E-02  0.1476727E+00
          2   -1    0    0  502    0  0.00000000000E+00  0.00000000000E+00  0.35415702739E+03  0.35415702739E+03  0.00000000000E+00 0.  1.
          1   -1    0    0  501    0 -0.00000000000E+00 -0.00000000000E+00 -0.38861086310E+01  0.38861086310E+01  0.00000000000E+00 0. -1.
          2    1    1    2  501    0 -0.22403113918E+02 -0.94260206112E+01  0.31038475807E+03  0.31133494410E+03  0.00000000000E+00 0.  1.
          1    1    1    2  502    0  0.22403113918E+02  0.94260206112E+01  0.39886160695E+02  0.46708191924E+02  0.00000000000E+00 0. -1.
</event>
<event>
 4    1  0.3767413E+003  0.2123353E+02  0.7546771E-02  0.1515957E+00
          2   -1    0    0  502    0  0.00000000000E+00  0.00000000000E+00  0.43579396918E+03  0.43579396918E+03  0.00000000000E+00 0.  1.
          1   -1    0    0  501    0 -0.00000000000E+00 -0.00000000000E+00 -0.38143797983E+03  0.38143797983E+03  0.00000000000E+00 0. -1.
          2    1    1    2  501    0 -0.71022899559E+01 -0.20010501226E+02  0.43523944655E+03  0.43575708660E+03  0.00000000000E+00 0.  1.
          1    1    1    2  502    0  0.71022899559E+01  0.20010501226E+02 -0.38088345721E+03  0.38147486241E+03  0.00000000000E+00 0. -1.
</event>
<event>
 4    1  0.3767413E+003  0.2042101E+02  0.7546771E-02  0.1527694E+00
          2   -1    0    0  502    0  0.00000000000E+00  0.00000000000E+00  0.89131212612E+03  0.89131212612E+03  0.00000000000E+00 0.  1.
          1   -1    0    0  501    0 -0.00000000000E+00 -0.00000000000E+00 -0.36833912747E+03  0.36833912747E+03  0.00000000000E+00 0.  1.
          2    1    1    2  501    0  0.17236022621E+02 -0.10951592118E+02  0.89091199228E+03  0.89114600141E+03  0.00000000000E+00 0.  1.
          1    1    1    2  502    0 -0.17236022621E+02  0.10951592118E+02 -0.36793899363E+03  0.36850525217E+03  0.00000000000E+00 0.  1.
</event>
<event>
 4    1  0.3767413E+003  0.2467110E+02  0.7546771E-02  0.1472517E+00
          2   -1    0    0  502    0  0.00000000000E+00  0.00000000000E+00  0.34694689760E+02  0.34694689760E+02  0.00000000000E+00 0. -1.
          1   -1    0    0  501    0 -0.00000000000E+00 -0.00000000000E+00 -0.17957763471E+03  0.17957763471E+03  0.00000000000E+00 0.  1.
          2    1    1    2  501    0  0.14646268844E+02 -0.19853207475E+02  0.29327020769E+02  0.38324107104E+02  0.00000000000E+00 0. -1.
          1    1    1    2  502    0 -0.14646268844E+02  0.19853207475E+02 -0.17420996572E+03  0.17594821736E+03  0.00000000000E+00 0.  1.
</event>
<event>
 4    1  0.3767413E+003  0.2298053E+02  0.7546771E-02  0.1492743E+00
          2   -1    0    0  502    0  0.00000000000E+00  0.00000000000E+00  0.25658748805E+03  0.25658748805E+03  0.00000000000E+00 0.  1.
          1   -1    0    0  501    0 -0.00000000000E+00 -0.00000000000E+00 -0.34546436036E+02  0.34546436036E+02  0.00000000000E+00 0.  1.
          2    1    1    2  501    0 -0.12917755845E+02  0.19006222192E+02  0.25218465395E+03  0.25322954920E+03  0.00000000000E+00 0.  1.
          1    1    1    2  502    0  0.12917755845E+02 -0.19006222192E+02 -0.30143601936E+02  0.37904374889E+02  0.00000000000E+00 0.  1.
</event>
<event>
 4    1  0.3767413E+003  0.2878127E+02  0.7546771E-02  0.1430491E+00
          2   -1    0    0  502    0  0.00000000000E+00  0.00000000000E+00  0.94642245161E+01  0.94642245161E+01  0.00000000000E+00 0.  1.
          1   -1    0    0  501    0 -0.00000000000E+00 -0.00000000000E+00 -0.24020582893E+03  0.24020582893E+03  0.00000000000E+00 0. -1.
          2    1    1    2  501    0  0.28778829090E+02 -0.37515409517E+00 -0.15844901505E+02  0.32854568147E+02  0.00000000000E+00 0.  1.
          1    1    1    2  502    0 -0.28778829090E+02  0.37515409517E+00 -0.21489670291E+03  0.21681548530E+03  0.00000000000E+00 0. -1.
</event>
<event>
 4    1  0.3767413E+003  0.3221151E+02  0.7546771E-02  0.1401304E+00
          2   -1    0    0  502    0  0.00000000000E+00  0.00000000000E+00  0.46174201286E+02  0.46174201286E+02  0.00000000000E+00 0.  1.
          1   -1    0    0  501    0 -0.00000000000E+00 -0.00000000000E+00 -0.11808505019E+03  0.11808505019E+03  0.00000000000E+00 0. -1.
          2    1    1    2  501    0  0.89767388938E+01 -0.30935412608E+02  0.37947765924E+02  0.49775641966E+02  0.00000000000E+00 0.  1.
          1    1    1    2  502    0 -0.89767388938E+01  0.30935412608E+02 -0.10985861483E+03  0.11448360951E+03  0.00000000000E+00 0. -1.
</event>
<event>
 4    1  0.3767413E+003  0.2307266E+02  0.7546771E-02  0.1491588E+00
          2   -1    0    0  502    0  0.00000000000E+00  0.00000000000E+00  0.76166170788E+03  0.76166170788E+03  0.00000000000E+00 0.  1.
          1   -1    0    0  501    0 -0.00000000000E+00 -0.00000000000E+00 -0.37189495636E+03  0.37189495636E+03  0.00000000000E+00 0. -1.
          2    1    1    2  501    0  0.56265387432E+01 -0.22376093753E+02  0.76112886367E+03  0.76147849255E+03  0.00000000000E+00 0.  1.
          1    1    1    2  502    0 -0.56265387432E+01  0.22376093753E+02 -0.37136211215E+03  0.37207817169E+03  0.00000000000E+00 0. -1.
</event>
<event>
 4    1  0.3767413E+003  0.2260942E+02  0.7546771E-02  0.1497462E+00
          2   -1    0    0  502    0  0.00000000000E+00  0.00000000000E+00  0.51213541893E+02  0.51213541893E+02  0.00000000000E+00 0.  1.
          1   -1    0    0  501    0 -0.00000000000E+00 -0.00000000000E+00 -0.44305636981E+02  0.44305636981E+02  0.00000000000E+00 0.  1.
          2    1    1    2  501    0 -0.18053548783E+02 -0.13610848232E+02  0.45490899906E+02  0.50799682947E+02  0.00000000000E+00 0.  1.
          1    1    1    2  502    0  0.18053548783E+02  0.13610848232E+02 -0.38582994994E+02  0.44719495927E+02  0.00000000000E+00 0.  1.
</event>
<event>
 4    1  0.3767413E+003  0.2623816E+02  0.7546771E-02  0.1455415E+00
          2   -1    0    0  502    0  0.00000000000E+00  0.00000000000E+00  0.16715764797E+03  0.16715764797E+03  0.00000000000E+00 0.  1.
          1   -1    0    0  501    0 -0.00000000000E+00 -0.00000000000E+00 -0.10233532398E+03  0.10233532398E+03  0.00000000000E+00 0. -1.
          2    1    1    2  501    0 -0.25432007581E+02  0.64539874229E+01  0.16441834940E+03  0.16649875250E+03  0.00000000000E+00 0.  1.
          1    1    1    2  502    0  0.25432007581E+02 -0.64539874229E+01 -0.99596025411E+02  0.10299421945E+03  0.00000000000E+00 0. -1.
</event>
