<event>
 4    1  0.3099057E+006  0.2637319E+02  0.7546771E-02  0.1454008E+00
         21   -1    0    0  503  501  0.00000000000E+00  0.00000000000E+00  0.22112805431E+01  0.22112805431E+01  0.00000000000E+00 0. -1.
         21   -1    0    0  504  502 -0.00000000000E+00 -0.00000000000E+00 -0.63706038546E+03  0.63706038546E+03  0.00000000000E+00 0.  1.
         21    1    1    2  503  502 -0.10497374058E+02 -0.24194009104E+02 -0.89998046520E+02  0.93782691985E+02  0.00000000000E+00 0. -1.
         21    1    1    2  504  501  0.10497374058E+02  0.24194009104E+02 -0.54485105840E+03  0.54548897402E+03  0.00000000000E+00 0.  1.
</event>
<event>
 4    1  0.3099057E+006  0.2240774E+02  0.7546771E-02  0.1500072E+00
         21   -1    0    0  503  501  0.00000000000E+00  0.00000000000E+00  0.38783564250E+03  0.38783564250E+03  0.00000000000E+00 0.  1.
         21   -1    0    0  504  502 -0.00000000000E+00 -0.00000000000E+00 -0.10647843868E+03  0.10647843868E+03  0.00000000000E+00 0. -1.
         21    1    1    2  503  502 -0.49398238780E+01  0.21856460727E+02 -0.10497129097E+03  0.10733628773E+03  0.00000000000E+00 0. -1.
         21    1    1    2  504  501  0.49398238780E+01 -0.21856460727E+02  0.38632849479E+03  0.38697779345E+03  0.00000000000E+00 0.  1.
</event>
<event>
 4    1  0.3099057E+006  0.2706662E+02  0.7546771E-02  0.1446940E+00
         21   -1    0    0  502  501  0.00000000000E+00  0.00000000000E+00  0.43864615595E+02  0.43864615595E+02  0.00000000000E+00 0. -1.
         21   -1    0    0  503  502 -0.00000000000E+00 -0.00000000000E+00 -0.18284552330E+02  0.18284552330E+02  0.00000000000E+00 0. -1.
         21    1    1    2  503  504  0.20173065450E+02  0.18045756639E+02  0.36463710650E+01  0.27311131875E+02  0.00000000000E+00 0. -1.
         21    1    1    2  504  501 -0.20173065450E+02 -0.18045756639E+02  0.21933692200E+02  0.34838036051E+02  0.00000000000E+00 0. -1.
</event>
<event>
 4    1  0.3099057E+006  0.2055806E+02  0.7546771E-02  0.1525669E+00
         21   -1    0    0  503  501  0.00000000000E+00  0.00000000000E+00  0.10998932884E+02  0.10998932884E+02  0.00000000000E+00 0.  1.
         21   -1    0    0  501  502 -0.00000000000E+00 -0.00000000000E+00 -0.11430095556E+03  0.11430095556E+03  0.00000000000E+00 0. -1.
         21    1    1    2  503  504  0.13416671934E+02  0.15576486753E+02 -0.60664260562E+00  0.20567013409E+02  0.00000000000E+00 0.  1.
         21    1    1    2  504  502 -0.13416671934E+02 -0.15576486753E+02 -0.10269538007E+03  0.10473287503E+03  0.00000000000E+00 0. -1.
</event>
<event>
 4    1  0.3099057E+006  0.2410590E+02  0.7546771E-02  0.1479059E+00
         21   -1    0    0  504  501  0.00000000000E+00  0.00000000000E+00  0.14989855167E+03  0.14989855167E+03  0.00000000000E+00 0. -1.
         21   -1    0    0  503  502 -0.00000000000E+00 -0.00000000000E+00 -0.19514582731E+02  0.19514582731E+02  0.00000000000E+00 0. -1.
         21    1    1    2  503  501  0.24064982722E+02 -0.14038967430E+01  0.14101971092E+03  0.14306520607E+03  0.00000000000E+00 0. -1.
         21    1    1    2  504  502 -0.24064982722E+02  0.14038967430E+01 -0.10635741987E+02  0.26347928327E+02  0.00000000000E+00 0. -1.
</event>
<event>
 4    1  0.3099057E+006  0.2333881E+02  0.7546771E-02  0.1488287E+00
         21   -1    0    0  503  501  0.00000000000E+00  0.00000000000E+00  0.19785525454E+02  0.19785525454E+02  0.00000000000E+00 0.  1.
         21   -1    0    0  504  502 -0.00000000000E+00 -0.00000000000E+00 -0.51653640150E+02  0.51653640150E+02  0.00000000000E+00 0. -1.
         21    1    1    2  503  502  0.23169421158E+02  0.28067619530E+01 -0.40344479879E+02  0.46608765765E+02  0.00000000000E+00 0. -1.
         21    1    1    2  504  501 -0.23169421158E+02 -0.28067619530E+01  0.84763651825E+01  0.24830399839E+02  0.00000000000E+00 0.  1.
</event>
<event>
 4    1  0.3099057E+006  0.2348800E+02  0.7546771E-02  0.1486460E+00
         21   -1    0    0  503  501  0.00000000000E+00  0.00000000000E+00  0.24961401336E+02  0.24961401336E+02  0.00000000000E+00 0.  1.
         21   -1    0    0  504  502 -0.00000000000E+00 -0.00000000000E+00 -0.61842822569E+02  0.61842822569E+02  0.00000000000E+00 0. -1.
         21    1    1    2  503  502  0.16176150794E+02 -0.17029920502E+02 -0.53233320815E+02  0.58184813241E+02  0.00000000000E+00 0. -1.
         21    1    1    2  504  501 -0.16176150794E+02  0.17029920502E+02  0.16351899582E+02  0.28619410664E+02  0.00000000000E+00 0.  1.
</event>
<event>
 4    1  0.3099057E+006  0.2081892E+02  0.7546771E-02  0.1521866E+00
         21   -1    0    0  502  501  0.00000000000E+00  0.00000000000E+00  0.39923323096E+01  0.39923323096E+01  0.00000000000E+00 0. -1.
         21   -1    0    0  503  502 -0.00000000000E+00 -0.00000000000E+00 -0.12616476520E+03  0.12616476520E+03  0.00000000000E+00 0.  1.
         21    1    1    2  503  504  0.64585496660E+01  0.19791775501E+02 -0.85392761430E+02  0.87893975595E+02  0.00000000000E+00 0.  1.
         21    1    1    2  504  501 -0.64585496660E+01 -0.19791775501E+02 -0.36779671462E+02  0.42263121916E+02  0.00000000000E+00 0. -1.
</event>
<event>
 4    1  0.3099057E+006  0.2428867E+02  0.7546771E-02  0.1476921E+00
         21   -1    0    0  504  501  0.00000000000E+00  0.00000000000E+00  0.93144801618E+01  0.93144801618E+01  0.00000000000E+00 0. -1.
         21   -1    0    0  501  502 -0.00000000000E+00 -0.00000000000E+00 -0.66152316704E+03  0.66152316704E+03  0.00000000000E+00 0. -1.
         21    1    1    2  503  502 -0.24097660037E+02 -0.30400927479E+01 -0.64506237835E+03  0.64551948951E+03  0.00000000000E+00 0. -1.
         21    1    1    2  504  503  0.24097660037E+02  0.30400927479E+01 -0.71463085326E+01  0.25318157690E+02  0.00000000000E+00 0. -1.
</event>
<event>
 4    1  0.3099057E+006  0.2078648E+02  0.7546771E-02  0.1522335E+00
         21   -1    0    0  503  501  0.00000000000E+00  0.00000000000E+00  0.81195120379E+02  0.81195120379E+02  0.00000000000E+00 0. -1.
         21   -1    0    0  501  502 -0.00000000000E+00 -0.00000000000E+00 -0.31533100845E+02  0.31533100845E+02  0.00000000000E+00 0.  1.
         21    1    1    2  503  504 -0.20768180266E+02 -0.87195307476E+00  0.76219554369E+02  0.79003152355E+02  0.00000000000E+00 0. -1.
         21    1    1    2  504  502  0.20768180266E+02  0.87195307476E+00 -0.26557534836E+02  0.33725068870E+02  0.00000000000E+00 0.  1.
</event>
<event>
 4    1  0.3099057E+006  0.2798525E+02  0.7546771E-02  0.1437954E+00
         21   -1    0    0  503  501  0.00000000000E+00  0.00000000000E+00  0.32859997799E+01  0.32859997799E+01  0.00000000000E+00 0.  1.
         21   -1    0    0  501  502 -0.00000000000E+00 -0.00000000000E+00 -0.26614580391E+03  0.26614580391E+03  0.00000000000E+00 0.  1.
         21    1    1    2  503  504 -0.95432730092E+01  0.26307798557E+02 -0.17497633578E+03  0.17720014788E+03  0.00000000000E+00 0.  1.
         21    1    1    2  504  502  0.95432730092E+01 -0.26307798557E+02 -0.87883468343E+02  0.92231655806E+02  0.00000000000E+00 0.  1.
</event>
<event>
 4    1  0.3099057E+006  0.2653274E+02  0.7546771E-02  0.1452359E+00
         21   -1    0    0  502  501  0.00000000000E+00  0.00000000000E+00  0.99935444821E+02  0.99935444821E+02  0.00000000000E+00 0. -1.
         21   -1    0    0  503  502 -0.00000000000E+00 -0.00000000000E+00 -0.44793413107E+02  0.44793413107E+02  0.00000000000E+00 0.  1.
         21    1    1    2  503  504  0.26145573357E+02 -0.45161265337E+01 -0.38859985070E+02  0.47054062999E+02  0.00000000000E+00 0.  1.
         21    1    1    2  504  501 -0.26145573357E+02  0.45161265337E+01  0.94002016784E+02  0.97674794930E+02  0.00000000000E+00 0. -1.
</event>
<event>
 4    1  0.3099057E+006  0.2277091E+02  0.7546771E-02  0.1495395E+00
         21   -1    0    0  504  501  0.00000000000E+00  0.00000000000E+00  0.75406416422E+02  0.75406416422E+02  0.00000000000E+00 0. -1.
         21   -1    0    0  503  502 -0.00000000000E+00 -0.00000000000E+00 -0.15732333383E+02  0.15732333383E+02  0.00000000000E+00 0. -1.
         21    1    1    2  503  501 -0.20060972063E+02 -0.10773652831E+02  0.64026882517E+02  0.67955543411E+02  0.00000000000E+00 0. -1.
         21    1    1    2  504  502  0.20060972063E+02  0.10773652831E+02 -0.43527994785E+01  0.23183206394E+02  0.00000000000E+00 0. -1.
</event>
<event>
 4    1  0.3099057E+006  0.3255286E+02  0.7546771E-02  0.1398635E+00
         21   -1    0    0  503  501  0.00000000000E+00  0.00000000000E+00  0.64666860053E+02  0.64666860053E+02  0.00000000000E+00 0. -1.
         21   -1    0    0  504  502 -0.00000000000E+00 -0.00000000000E+00 -0.19484243373E+02  0.19484243373E+02  0.00000000000E+00 0.  1.
         21    1    1    2  503  502  0.31489690159E+02  0.82515487567E+01  0.58154978870E+01  0.33068242452E+02  0.00000000000E+00 0.  1.
         21    1    1    2  504  501 -0.31489690159E+02 -0.82515487567E+01  0.39367118793E+02  0.51082860973E+02  0.00000000000E+00 0. -1.
</event>
<event>
 4    1  0.3099057E+006  0.2374864E+02  0.7546771E-02  0.1483305E+00
         21   -1    0    0  504  501  0.00000000000E+00  0.00000000000E+00  0.33201014896E+02  0.33201014896E+02  0.00000000000E+00 0. -1.
         21   -1    0    0  503  502 -0.00000000000E+00 -0.00000000000E+00 -0.40077640284E+02  0.40077640284E+02  0.00000000000E+00 0. -1.
         21    1    1    2  503  501 -0.19987752143E+02 -0.12825283025E+02  0.24372320444E+02  0.34029518425E+02  0.00000000000E+00 0. -1.
         21    1    1    2  504  502  0.19987752143E+02  0.12825283025E+02 -0.31248945832E+02  0.39249136755E+02  0.00000000000E+00 0. -1.
</event>
<event>
 4    1  0.3099057E+006  0.2003859E+02  0.7546771E-02  0.1533447E+00
         21   -1    0    0  502  501  0.00000000000E+00  0.00000000000E+00  0.10531798168E+02  0.10531798168E+02  0.00000000000E+00 0.  1.
         21   -1    0    0  503  502 -0.00000000000E+00 -0.00000000000E+00 -0.63896581214E+02  0.63896581214E+02  0.00000000000E+00 0. -1.
         21    1    1    2  503  504  0.78808094063E+01  0.18423840039E+02 -0.50315676978E+02  0.54159139473E+02  0.00000000000E+00 0. -1.
         21    1    1    2  504  501 -0.78808094063E+01 -0.18423840039E+02 -0.30491060676E+01  0.20269239909E+02  0.00000000000E+00 0.  1.
</event>
<event>
 4    1  0.3099057E+006  0.2295437E+02  0.7546771E-02  0.1493072E+00
         21   -1    0    0  504  501  0.00000000000E+00  0.00000000000E+00  0.39489608429E+02  0.39489608429E+02  0.00000000000E+00 0.  1.
         21   -1    0    0  501  502 -0.00000000000E+00 -0.00000000000E+00 -0.95799107286E+02  0.95799107286E+02  0.00000000000E+00 0. -1.
         21    1    1    2  503  502  0.20230103759E+02 -0.10846480891E+02 -0.90911825566E+02  0.93764936269E+02  0.00000000000E+00 0. -1.
         21    1    1    2  504  503 -0.20230103759E+02  0.10846480891E+02  0.34602326708E+02  0.41523779446E+02  0.00000000000E+00 0.  1.
</event>
<event>
 4    1  0.3099057E+006  0.2488128E+02  0.7546771E-02  0.1470136E+00
         21   -1    0    0  502  501  0.00000000000E+00  0.00000000000E+00  0.12568257335E+02  0.12568257335E+02  0.00000000000E+00 0.  1.
         21   -1    0    0  504  502 -0.00000000000E+00 -0.00000000000E+00 -0.15209295429E+03  0.15209295429E+03  0.00000000000E+00 0.  1.
         21    1    1    2  503  501  0.14243582849E+02 -0.20400938315E+02 -0.20639020307E+01  0.24966730424E+02  0.00000000000E+00 0.  1.
         21    1    1    2  504  503 -0.14243582849E+02  0.20400938315E+02 -0.13746079493E+03  0.13969448121E+03  0.00000000000E+00 0.  1.
</event>
<event>
 4    1  0.3099057E+006  0.2136251E+02  0.7546771E-02  0.1514152E+00
         21   -1    0    0  502  501  0.00000000000E+00  0.00000000000E+00  0.28932737003E+02  0.28932737003E+02  0.00000000000E+00 0.  1.
         21   -1    0    0  504  502 -0.00000000000E+00 -0.00000000000E+00 -0.41292515099E+02  0.41292515099E+02  0.00000000000E+00 0. -1.
         21    1    1    2  503  501  0.16969328407E+02  0.12976853314E+02  0.21423577534E+02  0.30254363369E+02  0.00000000000E+00 0.  1.
         21    1    1    2  504  503 -0.16969328407E+02 -0.12976853314E+02 -0.33783355630E+02  0.39970888733E+02  0.00000000000E+00 0. -1.
</event>
<event>
 4    1  0.3099057E+006  0.2056203E+02  0.7546771E-02  0.1525611E+00
         21   -1    0    0  502  501  0.00000000000E+00  0.00000000000E+00  0.10611714828E+04  0.10611714828E+04  0.00000000000E+00 0.  1.
         21   -1    0    0  504  502 -0.00000000000E+00 -0.00000000000E+00 -0.44108260099E+00  0.44108260099E+00  0.00000000000E+00 0.  1.
         21    1    1    2  503  501  0.13644568214E+01  0.20516706172E+02  0.69543803770E+03  0.69574195019E+03  0.00000000000E+00 0.  1.
         21    1    1    2  504  503 -0.13644568214E+01 -0.20516706172E+02  0.36529236251E+03  0.36587061523E+03  0.00000000000E+00 0.  1.
</event>
<event>
 4    1  0.3099057E+006  0.2819321E+02  0.7546771E-02  0.1435977E+00
         21   -1    0    0  503  501  0.00000000000E+00  0.00000000000E+00  0.74844991826E+02  0.74844991826E+02  0.00000000000E+00 0. -1.
         21   -1    0    0  504  502 -0.00000000000E+00 -0.00000000000E+00 -0.30558179139E+03  0.30558179139E+03  0.00000000000E+00 0. -1.
         21    1    1    2  503  502 -0.26630041628E+02 -0.92573293248E+01  0.71510470592E+02  0.76867448687E+02  0.00000000000E+00 0. -1.
         21    1    1    2  504  501  0.26630041628E+02  0.92573293248E+01 -0.30224727015E+03  0.30355933453E+03  0.00000000000E+00 0. -1.
</event>
<event>
 4    1  0.3099057E+006  0.2661675E+02  0.7546771E-02  0.1451496E+00
         21   -1    0    0  503  501  0.00000000000E+00  0.00000000000E+00  0.54462810157E+02  0.54462810157E+02  0.00000000000E+00 0. -1.
         21   -1    0    0  501  502 -0.00000000000E+00 -0.00000000000E+00 -0.40101279552E+03  0.40101279552E+03  0.00000000000E+00 0.  1.
         21    1    1    2  503  504 -0.19634624807E+02 -0.17970335186E+02  0.50738700477E+02  0.57296310214E+02  0.00000000000E+00 0. -1.
         21    1    1    2  504  502  0.19634624807E+02  0.17970335186E+02 -0.39728868584E+03  0.39817929546E+03  0.00000000000E+00 0.  1.
</event>
<event>
 4    1  0.3099057E+006  0.3221169E+02  0.7546771E-02  0.1401302E+00
         21   -1    0    0  503  501  0.00000000000E+00  0.00000000000E+00  0.54729365700E+02  0.54729365700E+02  0.00000000000E+00 0. -1.
         21   -1    0    0  504  502 -0.00000000000E+00 -0.00000000000E+00 -0.12876519119E+03  0.12876519119E+03  0.00000000000E+00 0.  1.
         21    1    1    2  503  502 -0.32078696439E+02  0.29241167710E+01 -0.12174223784E+03  0.12593159134E+03  0.00000000000E+00 0.  1.
         21    1    1    2  504  501  0.32078696439E+02 -0.29241167710E+01  0.47706412345E+02  0.57562965551E+02  0.00000000000E+00 0. -1.
</event>
<event>
 4    1  0.3099057E+006  0.2090160E+02  0.7546771E-02  0.1520674E+00
         21   -1    0    0  504  501  0.00000000000E+00  0.00000000000E+00  0.75115837343E+02  0.75115837343E+02  0.00000000000E+00 0.  1.
         21   -1    0    0  503  502 -0.00000000000E+00 -0.00000000000E+00 -0.93823267311E+02  0.93823267311E+02  0.00000000000E+00 0.  1.
         21    1    1    2  503  501  0.14100931975E+02 -0.15428559673E+02  0.72455850263E+02  0.75410390355E+02  0.00000000000E+00 0.  1.
         21    1    1    2  504  502 -0.14100931975E+02  0.15428559673E+02 -0.91163280230E+02  0.93528714299E+02  0.00000000000E+00 0.  1.
</event>
<event>
 4    1  0.3099057E+006  0.2002995E+02  0.7546771E-02  0.1533578E+00
         21   -1    0    0  504  501  0.00000000000E+00  0.00000000000E+00  0.89922738347E+01  0.89922738347E+01  0.00000000000E+00 0. -1.
         21   -1    0    0  503  502 -0.00000000000E+00 -0.00000000000E+00 -0.63365459950E+02  0.63365459950E+02  0.00000000000E+00 0. -1.
         21    1    1    2  503  501  0.15316809913E+02 -0.12907138714E+02 -0.75066628647E+01  0.21390392307E+02  0.00000000000E+00 0. -1.
         21    1    1    2  504  502 -0.15316809913E+02  0.12907138714E+02 -0.46866523250E+02  0.50967341477E+02  0.00000000000E+00 0. -1.
</event>
<event>
 4    1  0.3099057E+006  0.3094043E+02  0.7546771E-02  0.1411596E+00
         21   -1    0    0  504  501  0.00000000000E+00  0.00000000000E+00  0.48661207854E+01  0.48661207854E+01  0.00000000000E+00 0. -1.
         21   -1    0    0  503  502 -0.00000000000E+00 -0.00000000000E+00 -0.27900063001E+03  0.27900063001E+03  0.00000000000E+00 0.  1.
         21    1    1    2  503  501  0.30641030353E+02  0.42938546470E+01 -0.21414081875E+03  0.21636450768E+03  0.00000000000E+00 0.  1.
         21    1    1    2  504  502 -0.30641030353E+02 -0.42938546470E+01 -0.59993690475E+02  0.67502243115E+02  0.00000000000E+00 0. -1.
</event>
<event>
 4    1  0.3099057E+006  0.2222070E+02  0.7546771E-02  0.1502523E+00
         21   -1    0    0  503  501  0.00000000000E+00  0.00000000000E+00  0.40815239324E+01  0.40815239324E+01  0.00000000000E+00 0.  1.
         21   -1    0    0  504  502 -0.00000000000E+00 -0.00000000000E+00 -0.71198263577E+03  0.71198263577E+03  0.00000000000E+00 0. -1.
         21    1    1    2  503  502  0.11619101071E+02  0.18940853212E+02 -0.68015062595E+03  0.68051350715E+03  0.00000000000E+00 0. -1.
         21    1    1    2  504  501 -0.11619101071E+02 -0.18940853212E+02 -0.27750485889E+02  0.35550652557E+02  0.00000000000E+00 0.  1.
</event>
<event>
 4    1  0.3099057E+006  0.2767059E+02  0.7546771E-02  0.1440986E+00
         21   -1    0    0  502  501  0.00000000000E+00  0.00000000000E+00  0.64424262734E+03  0.64424262734E+03  0.00000000000E+00 0.  1.
         21   -1    0    0  503  502 -0.00000000000E+00 -0.00000000000E+00 -0.42790463779E+01  0.42790463779E+01  0.00000000000E+00 0.  1.
         21    1    1    2  503  504 -0.25150057252E+02  0.11538470476E+02  0.44406108672E+02  0.52321737051E+02  0.00000000000E+00 0.  1.
         21    1    1    2  504  501  0.25150057252E+02 -0.11538470476E+02  0.59555747229E+03  0.59619993667E+03  0.00000000000E+00 0.  1.
</event>
<event>
 4    1  0.3099057E+006  0.2658126E+02  0.7546771E-02  0.1451860E+00
         21   -1    0    0  502  501  0.00000000000E+00  0.00000000000E+00  0.11333848611E+03  0.11333848611E+03  0.00000000000E+00 0. -1.
         21   -1    0    0  504  502 -0.00000000000E+00 -0.00000000000E+00 -0.21569991087E+02  0.21569991087E+02  0.00000000000E+00 0.  1.
         21    1    1    2  503  501 -0.17156061340E+01  0.26525833176E+02  0.10276152633E+03  0.10614374415E+03  0.00000000000E+00 0. -1.
         21    1    1    2  504  503  0.17156061340E+01 -0.26525833176E+02 -0.10993031300E+02  0.28764733047E+02  0.00000000000E+00 0.  1.
</event>
<event>
 4    1  0.3099057E+006  0.2160101E+02  0.7546771E-02  0.1510854E+00
         21   -1    0    0  504  501  0.00000000000E+00  0.00000000000E+00  0.96119556092E+01  0.96119556092E+01  0.00000000000E+00 0. -1.
         21   -1    0    0  501  502 -0.00000000000E+00 -0.00000000000E+00 -0.95855116556E+02  0.95855116556E+02  0.00000000000E+00 0.  1.
         21    1    1    2  503  502 -0.20499194234E+02  0.68107734307E+01 -0.80169212027E+02  0.83028345498E+02  0.00000000000E+00 0.  1.
         21    1    1    2  504  503  0.20499194234E+02 -0.68107734307E+01 -0.60739489195E+01  0.22438726668E+02  0.00000000000E+00 0. -1.
</event>
<event>
 4    1  0.3099057E+006  0.2641925E+02  0.7546771E-02  0.1453531E+00
         21   -1    0    0  504  501  0.00000000000E+00  0.00000000000E+00  0.40251306190E+01  0.40251306190E+01  0.00000000000E+00 0.  1.
         21   -1    0    0  503  502 -0.00000000000E+00 -0.00000000000E+00 -0.21431307448E+03  0.21431307448E+03  0.00000000000E+00 0.  1.
         21    1    1    2  503  501  0.17231797078E+02  0.20026026347E+02 -0.57448019479E+02  0.63231728617E+02  0.00000000000E+00 0.  1.
         21    1    1    2  504  502 -0.17231797078E+02 -0.20026026347E+02 -0.15283992439E+03  0.15510647649E+03  0.00000000000E+00 0.  1.
</event>
<event>
 4    1  0.3099057E+006  0.2074438E+02  0.7546771E-02  0.1522946E+00
         21   -1    0    0  504  501  0.00000000000E+00  0.00000000000E+00  0.28379469067E+01  0.28379469067E+01  0.00000000000E+00 0.  1.
         21   -1    0    0  503  502 -0.00000000000E+00 -0.00000000000E+00 -0.15357621881E+03  0.15357621881E+03  0.00000000000E+00 0.  1.
         21    1    1    2  503  501 -0.19087157303E+02 -0.81246398144E+01 -0.84163998399E+02  0.86682800904E+02  0.00000000000E+00 0.  1.
         21    1    1    2  504  502  0.19087157303E+02  0.81246398144E+01 -0.66574273503E+02  0.69731364811E+02  0.00000000000E+00 0.  1.
</event>
<event>
 4    1  0.3099057E+006  0.5111153E+02  0.7546771E-02  0.1293424E+00
         21   -1    0    0  503  501  0.00000000000E+00  0.00000000000E+00  0.15017986044E+03  0.15017986044E+03  0.00000000000E+00 0.  1.
         21   -1    0    0  504  502 -0.00000000000E+00 -0.00000000000E+00 -0.17502752338E+02  0.17502752338E+02  0.00000000000E+00 0.  1.
         21    1    1    2  503  502 -0.38138801282E+02 -0.34026756467E+02  0.59762146329E+02  0.78637792776E+02  0.00000000000E+00 0.  1.
         21    1    1    2  504  501  0.38138801282E+02  0.34026756467E+02  0.72914961777E+02  0.89044820006E+02  0.00000000000E+00 0.  1.
</event>
<event>
 4    1  0.3099057E+006  0.2083123E+02  0.7546771E-02  0.1521688E+00
         21   -1    0    0  502  501  0.00000000000E+00  0.00000000000E+00  0.23632625314E+01  0.23632625314E+01  0.00000000000E+00 0.  1.
         21   -1    0    0  504  502 -0.00000000000E+00 -0.00000000000E+00 -0.26889146715E+03  0.26889146715E+03  0.00000000000E+00 0.  1.
         21    1    1    2  503  501 -0.20784140675E+02 -0.13998037988E+01 -0.56887000968E+02  0.60581109543E+02  0.00000000000E+00 0.  1.
         21    1    1    2  504  503  0.20784140675E+02  0.13998037988E+01 -0.20964120365E+03  0.21067362013E+03  0.00000000000E+00 0.  1.
</event>
<event>
 4    1  0.3099057E+006  0.3892266E+02  0.7546771E-02  0.1354917E+00
         21   -1    0    0  503  501  0.00000000000E+00  0.00000000000E+00  0.79614327011E+01  0.79614327011E+01  0.00000000000E+00 0.  1.
         21   -1    0    0  504  502 -0.00000000000E+00 -0.00000000000E+00 -0.87140956823E+03  0.87140956823E+03  0.00000000000E+00 0.  1.
         21    1    1    2  503  502 -0.38181386484E+02 -0.75601051479E+01 -0.82044950764E+03  0.82137224694E+03  0.00000000000E+00 0.  1.
         21    1    1    2  504  501  0.38181386484E+02  0.75601051479E+01 -0.42998627889E+02  0.57998753987E+02  0.00000000000E+00 0.  1.
</event>
<event>
 4    1  0.3099057E+006  0.2258555E+02  0.7546771E-02  0.1497769E+00
         21   -1    0    0  504  501  0.00000000000E+00  0.00000000000E+00  0.48189885589E+01  0.48189885589E+01  0.00000000000E+00 0. -1.
         21   -1    0    0  503  502 -0.00000000000E+00 -0.00000000000E+00 -0.10705864269E+03  0.10705864269E+03  0.00000000000E+00 0. -1.
         21    1    1    2  503  501  0.22349112436E+02 -0.32594599907E+01 -0.57054788074E+02  0.61362494639E+02  0.00000000000E+00 0. -1.
         21    1    1    2  504  502 -0.22349112436E+02  0.32594599907E+01 -0.45184866052E+02  0.50515136606E+02  0.00000000000E+00 0. -1.
</event>
<event>
 4    1  0.3099057E+006  0.2025158E+02  0.7546771E-02  0.1530224E+00
         21   -1    0    0  503  501  0.00000000000E+00  0.00000000000E+00  0.14078945138E+03  0.14078945138E+03  0.00000000000E+00 0.  1.
         21   -1    0    0  501  502 -0.00000000000E+00 -0.00000000000E+00 -0.12047451714E+02  0.12047451714E+02  0.00000000000E+00 0.  1.
         21    1    1    2  503  504  0.18802487938E+02  0.75228232907E+01  0.13091221666E+03  0.13246937342E+03  0.00000000000E+00 0.  1.
         21    1    1    2  504  502 -0.18802487938E+02 -0.75228232907E+01 -0.21702170015E+01  0.20367529668E+02  0.00000000000E+00 0.  1.
</event>
<event>
 4    1  0.3099057E+006  0.2265842E+02  0.7546771E-02  0.1496833E+00
         21   -1    0    0  502  501  0.00000000000E+00  0.00000000000E+00  0.16998835217E+03  0.16998835217E+03  0.00000000000E+00 0. -1.
         21   -1    0    0  503  502 -0.00000000000E+00 -0.00000000000E+00 -0.94825767581E+01  0.94825767581E+01  0.00000000000E+00 0.  1.
         21    1    1    2  503  504  0.22510591347E+02  0.25840088590E+01  0.61737225225E+01  0.23484434725E+02  0.00000000000E+00 0.  1.
         21    1    1    2  504  501 -0.22510591347E+02 -0.25840088590E+01  0.15433205289E+03  0.15598649421E+03  0.00000000000E+00 0. -1.
</event>
<event>
 4    1  0.3099057E+006  0.2324547E+02  0.7546771E-02  0.1489438E+00
         21   -1    0    0  503  501  0.00000000000E+00  0.00000000000E+00  0.10728283537E+03  0.10728283537E+03  0.00000000000E+00 0.  1.
         21   -1    0    0  504  502 -0.00000000000E+00 -0.00000000000E+00 -0.49113475196E+02  0.49113475196E+02  0.00000000000E+00 0.  1.
         21    1    1    2  503  502 -0.23048890118E+02 -0.30167458979E+01 -0.44995333371E+02  0.50645158867E+02  0.00000000000E+00 0.  1.
         21    1    1    2  504  501  0.23048890118E+02  0.30167458979E+01  0.10316469355E+03  0.10575115170E+03  0.00000000000E+00 0.  1.
</event>
<event>
 4    1  0.3099057E+006  0.2460883E+02  0.7546771E-02  0.1473227E+00
         21   -1    0    0  503  501  0.00000000000E+00  0.00000000000E+00  0.13524622272E+02  0.13524622272E+02  0.00000000000E+00 0. -1.
         21   -1    0    0  504  502 -0.00000000000E+00 -0.00000000000E+00 -0.53233017430E+02  0.53233017430E+02  0.00000000000E+00 0.  1.
         21    1    1    2  503  502  0.97013602115E+01  0.22615881759E+02 -0.65509201022E+01  0.25465840883E+02  0.00000000000E+00 0. -1.
         21    1    1    2  504  501 -0.97013602115E+01 -0.22615881759E+02 -0.33157475055E+02  0.41291798819E+02  0.00000000000E+00 0.  1.
</event>
<event>
 4    1  0.3099057E+006  0.3941134E+02  0.7546771E-02  0.1351970E+00
         21   -1    0    0  503  501  0.00000000000E+00  0.00000000000E+00  0.74606583883E+02  0.74606583883E+02  0.00000000000E+00 0. -1.
         21   -1    0    0  504  502 -0.00000000000E+00 -0.00000000000E+00 -0.24855175208E+02  0.24855175208E+02  0.00000000000E+00 0. -1.
         21    1    1    2  503  502  0.46902667631E+01 -0.39131254565E+02  0.48361124225E+01  0.39706947371E+02  0.00000000000E+00 0. -1.
         21    1    1    2  504  501 -0.46902667631E+01  0.39131254565E+02  0.44915296252E+02  0.59754811719E+02  0.00000000000E+00 0. -1.
</event>
<event>
 4    1  0.3099057E+006  0.4455553E+02  0.7546771E-02  0.1323677E+00
         21   -1    0    0  502  501  0.00000000000E+00  0.00000000000E+00  0.16757547977E+02  0.16757547977E+02  0.00000000000E+00 0.  1.
         21   -1    0    0  504  502 -0.00000000000E+00 -0.00000000000E+00 -0.24167466877E+03  0.24167466877E+03  0.00000000000E+00 0.  1.
         21    1    1    2  503  501 -0.41692870540E+02 -0.15713034021E+02 -0.20196695845E+02  0.48919335800E+02  0.00000000000E+00 0.  1.
         21    1    1    2  504  503  0.41692870540E+02  0.15713034021E+02 -0.20472042495E+03  0.20951288095E+03  0.00000000000E+00 0.  1.
</event>
<event>
 4    1  0.3099057E+006  0.2634292E+02  0.7546771E-02  0.1454323E+00
         21   -1    0    0  504  501  0.00000000000E+00  0.00000000000E+00  0.82551270357E+02  0.82551270357E+02  0.00000000000E+00 0. -1.
         21   -1    0    0  501  502 -0.00000000000E+00 -0.00000000000E+00 -0.13651009736E+03  0.13651009736E+03  0.00000000000E+00 0. -1.
         21    1    1    2  503  502 -0.16916895942E+02  0.20193270949E+02 -0.13308406840E+03  0.13566620368E+03  0.00000000000E+00 0. -1.
         21    1    1    2  504  503  0.16916895942E+02 -0.20193270949E+02  0.79125241391E+02  0.83395164039E+02  0.00000000000E+00 0. -1.
</event>
<event>
 4    1  0.3099057E+006  0.2441956E+02  0.7546771E-02  0.1475403E+00
         21   -1    0    0  503  501  0.00000000000E+00  0.00000000000E+00  0.57843475861E+00  0.57843475861E+00  0.00000000000E+00 0.  1.
         21   -1    0    0  504  502 -0.00000000000E+00 -0.00000000000E+00 -0.10579943513E+04  0.10579943513E+04  0.00000000000E+00 0.  1.
         21    1    1    2  503  502  0.21997107786E+02  0.10603864040E+02 -0.44402397978E+03  0.44469496209E+03  0.00000000000E+00 0.  1.
         21    1    1    2  504  501 -0.21997107786E+02 -0.10603864040E+02 -0.61339193677E+03  0.61387782398E+03  0.00000000000E+00 0.  1.
</event>
<event>
 4    1  0.3099057E+006  0.2043931E+02  0.7546771E-02  0.1527423E+00
         21   -1    0    0  502  501  0.00000000000E+00  0.00000000000E+00  0.17761508193E+02  0.17761508193E+02  0.00000000000E+00 0.  1.
         21   -1    0    0  503  502 -0.00000000000E+00 -0.00000000000E+00 -0.46230840727E+02  0.46230840727E+02  0.00000000000E+00 0.  1.
         21    1    1    2  503  504 -0.14464465323E+02  0.14441077367E+02 -0.36660097287E+02  0.41972946116E+02  0.00000000000E+00 0.  1.
         21    1    1    2  504  501  0.14464465323E+02 -0.14441077367E+02  0.81907647523E+01  0.22019402803E+02  0.00000000000E+00 0.  1.
</event>
<event>
 4    1  0.3099057E+006  0.3799628E+02  0.7546771E-02  0.1360645E+00
         21   -1    0    0  504  501  0.00000000000E+00  0.00000000000E+00  0.72671694888E+01  0.72671694888E+01  0.00000000000E+00 0.  1.
         21   -1    0    0  501  502 -0.00000000000E+00 -0.00000000000E+00 -0.54200615439E+03  0.54200615439E+03  0.00000000000E+00 0.  1.
         21    1    1    2  503  502  0.37611515476E+02  0.53936331497E+01 -0.48595462881E+03  0.48743781002E+03  0.00000000000E+00 0.  1.
         21    1    1    2  504  503 -0.37611515476E+02 -0.53936331497E+01 -0.48784356090E+02  0.61835513858E+02  0.00000000000E+00 0.  1.
</event>
<event>
 4    1  0.3099057E+006  0.2249553E+02  0.7546771E-02  0.1498932E+00
         21   -1    0    0  504  501  0.00000000000E+00  0.00000000000E+00  0.35082253225E+02  0.35082253225E+02  0.00000000000E+00 0.  1.
         21   -1    0    0  503  502 -0.00000000000E+00 -0.00000000000E+00 -0.18663328991E+02  0.18663328991E+02  0.00000000000E+00 0.  1.
         21    1    1    2  503  501 -0.83435189443E+01 -0.20891019193E+02  0.21016061490E+02  0.30785123547E+02  0.00000000000E+00 0.  1.
         21    1    1    2  504  502  0.83435189443E+01  0.20891019193E+02 -0.45971372558E+01  0.22960458668E+02  0.00000000000E+00 0.  1.
</event>
<event>
 4    1  0.3099057E+006  0.7177555E+02  0.7546771E-02  0.1224347E+00
         21   -1    0    0  503  501  0.00000000000E+00  0.00000000000E+00  0.30076797009E+02  0.30076797009E+02  0.00000000000E+00 0. -1.
         21   -1    0    0  501  502 -0.00000000000E+00 -0.00000000000E+00 -0.17291333178E+03  0.17291333178E+03  0.00000000000E+00 0.  1.
         21    1    1    2  503  504 -0.71350814908E+02  0.77968542424E+01 -0.61571610006E+02  0.94566341173E+02  0.00000000000E+00 0.  1.
         21    1    1    2  504  502  0.71350814908E+02 -0.77968542424E+01 -0.81264924766E+02  0.10842378762E+03  0.00000000000E+00 0. -1.
</event>
<event>
 4    1  0.3099057E+006  0.2112195E+02  0.7546771E-02  0.1517531E+00
         21   -1    0    0  502  501  0.00000000000E+00  0.00000000000E+00  0.57403025668E+02  0.57403025668E+02  0.00000000000E+00 0. -1.
         21   -1    0    0  503  502 -0.00000000000E+00 -0.00000000000E+00 -0.11946723280E+02  0.11946723280E+02  0.00000000000E+00 0. -1.
         21    1    1    2  503  504  0.15319214777E+02  0.14541612258E+02  0.22305104331E+01  0.21239397478E+02  0.00000000000E+00 0. -1.
         21    1    1    2  504  501 -0.15319214777E+02 -0.14541612258E+02  0.43225791955E+02  0.48110351470E+02  0.00000000000E+00 0. -1.
</event>
<event>
 4    1  0.3099057E+006  0.2781670E+02  0.7546771E-02  0.1439572E+00
         21   -1    0    0  504  501  0.00000000000E+00  0.00000000000E+00  0.12417166946E+03  0.12417166946E+03  0.00000000000E+00 0.  1.
         21   -1    0    0  503  502 -0.00000000000E+00 -0.00000000000E+00 -0.69990999733E+02  0.69990999733E+02  0.00000000000E+00 0.  1.
         21    1    1    2  503  501 -0.11929852874E+02 -0.25128612945E+02  0.11974926618E+03  0.12293760746E+03  0.00000000000E+00 0.  1.
         21    1    1    2  504  502  0.11929852874E+02  0.25128612945E+02 -0.65568596451E+02  0.71225061732E+02  0.00000000000E+00 0.  1.
</event>
<event>
 4    1  0.3099057E+006  0.2758724E+02  0.7546771E-02  0.1441797E+00
         21   -1    0    0  502  501  0.00000000000E+00  0.00000000000E+00  0.78418491428E+02  0.78418491428E+02  0.00000000000E+00 0. -1.
         21   -1    0    0  503  502 -0.00000000000E+00 -0.00000000000E+00 -0.11621943074E+03  0.11621943074E+03  0.00000000000E+00 0. -1.
         21    1    1    2  503  504  0.19583106946E+02  0.19430843059E+02 -0.11206748999E+03  0.11541307574E+03  0.00000000000E+00 0. -1.
         21    1    1    2  504  501 -0.19583106946E+02 -0.19430843059E+02  0.74266550684E+02  0.79224846420E+02  0.00000000000E+00 0. -1.
</event>
<event>
 4    1  0.3099057E+006  0.2396837E+02  0.7546771E-02  0.1480683E+00
         21   -1    0    0  503  501  0.00000000000E+00  0.00000000000E+00  0.36289262497E+03  0.36289262497E+03  0.00000000000E+00 0. -1.
         21   -1    0    0  504  502 -0.00000000000E+00 -0.00000000000E+00 -0.24046192249E+01  0.24046192249E+01  0.00000000000E+00 0. -1.
         21    1    1    2  503  502  0.43794803306E+01 -0.23564870530E+02  0.28700462575E+03  0.28800371208E+03  0.00000000000E+00 0. -1.
         21    1    1    2  504  501 -0.43794803306E+01  0.23564870530E+02  0.73483380003E+02  0.77293532121E+02  0.00000000000E+00 0. -1.
</event>
<event>
 4    1  0.3099057E+006  0.3230861E+02  0.7546771E-02  0.1400541E+00
         21   -1    0    0  503  501  0.00000000000E+00  0.00000000000E+00  0.50426395517E+02  0.50426395517E+02  0.00000000000E+00 0.  1.
         21   -1    0    0  504  502 -0.00000000000E+00 -0.00000000000E+00 -0.33579272562E+02  0.33579272562E+02  0.00000000000E+00 0.  1.
         21    1    1    2  503  502  0.31543646271E+02  0.69888810038E+01  0.34436058046E+02  0.47219574030E+02  0.00000000000E+00 0.  1.
         21    1    1    2  504  501 -0.31543646271E+02 -0.69888810038E+01 -0.17588935091E+02  0.36786094049E+02  0.00000000000E+00 0.  1.
</event>
<event>
 4    1  0.3099057E+006  0.2000278E+02  0.7546771E-02  0.1533993E+00
         21   -1    0    0  503  501  0.00000000000E+00  0.00000000000E+00  0.39943884220E+00  0.39943884220E+00  0.00000000000E+00 0. -1.
         21   -1    0    0  504  502 -0.00000000000E+00 -0.00000000000E+00 -0.12329145067E+04  0.12329145067E+04  0.00000000000E+00 0. -1.
         21    1    1    2  503  502 -0.92561770256E+01 -0.17732297478E+02 -0.34920268981E+03  0.34977511312E+03  0.00000000000E+00 0. -1.
         21    1    1    2  504  501  0.92561770256E+01  0.17732297478E+02 -0.88331237803E+03  0.88353883240E+03  0.00000000000E+00 0. -1.
</event>
<event>
 4    1  0.3099057E+006  0.2110162E+02  0.7546771E-02  0.1517819E+00
         21   -1    0    0  504  501  0.00000000000E+00  0.00000000000E+00  0.95021200161E+02  0.95021200161E+02  0.00000000000E+00 0.  1.
         21   -1    0    0  501  502 -0.00000000000E+00 -0.00000000000E+00 -0.29691651123E+02  0.29691651123E+02  0.00000000000E+00 0.  1.
         21    1    1    2  503  502  0.24316934946E+01  0.20961041184E+02 -0.24559763644E+02  0.32379937786E+02  0.00000000000E+00 0.  1.
         21    1    1    2  504  503 -0.24316934946E+01 -0.20961041184E+02  0.89889312682E+02  0.92332913499E+02  0.00000000000E+00 0.  1.
</event>
<event>
 4    1  0.3099057E+006  0.5397904E+02  0.7546771E-02  0.1281785E+00
         21   -1    0    0  503  501  0.00000000000E+00  0.00000000000E+00  0.40609978735E+02  0.40609978735E+02  0.00000000000E+00 0.  1.
         21   -1    0    0  504  502 -0.00000000000E+00 -0.00000000000E+00 -0.72489164513E+02  0.72489164513E+02  0.00000000000E+00 0.  1.
         21    1    1    2  503  502 -0.20024524714E+02 -0.50127387531E+02 -0.21652746858E+02  0.58159934811E+02  0.00000000000E+00 0.  1.
         21    1    1    2  504  501  0.20024524714E+02  0.50127387531E+02 -0.10226438920E+02  0.54939208437E+02  0.00000000000E+00 0.  1.
</event>
<event>
 4    1  0.3099057E+006  0.2922627E+02  0.7546771E-02  0.1426441E+00
         21   -1    0    0  503  501  0.00000000000E+00  0.00000000000E+00  0.76637977982E+01  0.76637977982E+01  0.00000000000E+00 0. -1.
         21   -1    0    0  504  502 -0.00000000000E+00 -0.00000000000E+00 -0.12058651889E+03  0.12058651889E+03  0.00000000000E+00 0. -1.
         21    1    1    2  503  502 -0.29136725950E+02  0.22861190774E+01 -0.38816012088E+02  0.48588660549E+02  0.00000000000E+00 0. -1.
         21    1    1    2  504  501  0.29136725950E+02 -0.22861190774E+01 -0.74106709008E+02  0.79661656144E+02  0.00000000000E+00 0. -1.
</event>
<event>
 4    1  0.3099057E+006  0.4186215E+02  0.7546771E-02  0.1337906E+00
         21   -1    0    0  503  501  0.00000000000E+00  0.00000000000E+00  0.48943310242E+02  0.48943310242E+02  0.00000000000E+00 0. -1.
         21   -1    0    0  504  502 -0.00000000000E+00 -0.00000000000E+00 -0.64303288208E+03  0.64303288208E+03  0.00000000000E+00 0.  1.
         21    1    1    2  503  502 -0.15038311982E+02  0.39067744129E+02 -0.63326222942E+03  0.63464438126E+03  0.00000000000E+00 0.  1.
         21    1    1    2  504  501  0.15038311982E+02 -0.39067744129E+02  0.39172657575E+02  0.57331811066E+02  0.00000000000E+00 0. -1.
</event>
<event>
 4    1  0.3099057E+006  0.4605515E+02  0.7546771E-02  0.1316246E+00
         21   -1    0    0  503  501  0.00000000000E+00  0.00000000000E+00  0.35582918060E+02  0.35582918060E+02  0.00000000000E+00 0.  1.
         21   -1    0    0  504  502 -0.00000000000E+00 -0.00000000000E+00 -0.28845474180E+03  0.28845474180E+03  0.00000000000E+00 0.  1.
         21    1    1    2  503  502 -0.24140232927E+02  0.39221496716E+02  0.17874505163E+02  0.49402171868E+02  0.00000000000E+00 0.  1.
         21    1    1    2  504  501  0.24140232927E+02 -0.39221496716E+02 -0.27074632890E+03  0.27463548799E+03  0.00000000000E+00 0.  1.
</event>
<event>
 4    1  0.3099057E+006  0.2076071E+02  0.7546771E-02  0.1522709E+00
         21   -1    0    0  503  501  0.00000000000E+00  0.00000000000E+00  0.27752178465E+02  0.27752178465E+02  0.00000000000E+00 0. -1.
         21   -1    0    0  504  502 -0.00000000000E+00 -0.00000000000E+00 -0.23948543317E+03  0.23948543317E+03  0.00000000000E+00 0.  1.
         21    1    1    2  503  502 -0.15882158635E+02 -0.13370262503E+02 -0.23508024715E+03  0.23599518954E+03  0.00000000000E+00 0.  1.
         21    1    1    2  504  501  0.15882158635E+02  0.13370262503E+02  0.23346992448E+02  0.31242422100E+02  0.00000000000E+00 0. -1.
</event>
<event>
 4    1  0.3099057E+006  0.2220422E+02  0.7546771E-02  0.1502740E+00
         21   -1    0    0  503  501  0.00000000000E+00  0.00000000000E+00  0.72227046703E+02  0.72227046703E+02  0.00000000000E+00 0.  1.
         21   -1    0    0  504  502 -0.00000000000E+00 -0.00000000000E+00 -0.21751851891E+02  0.21751851891E+02  0.00000000000E+00 0.  1.
         21    1    1    2  503  502 -0.17415230877E+02  0.13774516123E+02 -0.13686687634E+02  0.26083576812E+02  0.00000000000E+00 0.  1.
         21    1    1    2  504  501  0.17415230877E+02 -0.13774516123E+02  0.64161882446E+02  0.67895321782E+02  0.00000000000E+00 0.  1.
</event>
<event>
 4    1  0.3099057E+006  0.3997418E+02  0.7546771E-02  0.1348637E+00
         21   -1    0    0  503  501  0.00000000000E+00  0.00000000000E+00  0.67224658919E+02  0.67224658919E+02  0.00000000000E+00 0.  1.
         21   -1    0    0  501  502 -0.00000000000E+00 -0.00000000000E+00 -0.22564493592E+03  0.22564493592E+03  0.00000000000E+00 0.  1.
         21    1    1    2  503  504 -0.32306877940E+02  0.23541467190E+02  0.59297146913E+02  0.71512842705E+02  0.00000000000E+00 0.  1.
         21    1    1    2  504  502  0.32306877940E+02 -0.23541467190E+02 -0.21771742392E+03  0.22135675214E+03  0.00000000000E+00 0.  1.
</event>
<event>
 4    1  0.3099057E+006  0.2711988E+02  0.7546771E-02  0.1446408E+00
         21   -1    0    0  502  501  0.00000000000E+00  0.00000000000E+00  0.86461203295E+02  0.86461203295E+02  0.00000000000E+00 0. -1.
         21   -1    0    0  504  502 -0.00000000000E+00 -0.00000000000E+00 -0.18769015349E+02  0.18769015349E+02  0.00000000000E+00 0. -1.
         21    1    1    2  503  501  0.10670370327E+02  0.24932534378E+02  0.72751971125E+02  0.77642368434E+02  0.00000000000E+00 0. -1.
         21    1    1    2  504  503 -0.10670370327E+02 -0.24932534378E+02 -0.50597831794E+01  0.27587850210E+02  0.00000000000E+00 0. -1.
</event>
<event>
 4    1  0.3099057E+006  0.2083703E+02  0.7546771E-02  0.1521604E+00
         21   -1    0    0  502  501  0.00000000000E+00  0.00000000000E+00  0.47097076498E+02  0.47097076498E+02  0.00000000000E+00 0.  1.
         21   -1    0    0  503  502 -0.00000000000E+00 -0.00000000000E+00 -0.14826953856E+02  0.14826953856E+02  0.00000000000E+00 0.  1.
         21    1    1    2  503  504 -0.16250460876E+02  0.13042412655E+02 -0.29068418267E+01  0.21038814984E+02  0.00000000000E+00 0.  1.
         21    1    1    2  504  501  0.16250460876E+02 -0.13042412655E+02  0.35176964468E+02  0.40885215369E+02  0.00000000000E+00 0.  1.
</event>
<event>
 4    1  0.3099057E+006  0.3991182E+02  0.7546771E-02  0.1349003E+00
         21   -1    0    0  503  501  0.00000000000E+00  0.00000000000E+00  0.22483418836E+02  0.22483418836E+02  0.00000000000E+00 0. -1.
         21   -1    0    0  504  502 -0.00000000000E+00 -0.00000000000E+00 -0.14913059731E+03  0.14913059731E+03  0.00000000000E+00 0. -1.
         21    1    1    2  503  502  0.39071332636E+02  0.81476421291E+01 -0.11557045459E+01  0.39928545668E+02  0.00000000000E+00 0. -1.
         21    1    1    2  504  501 -0.39071332636E+02 -0.81476421291E+01 -0.12549147393E+03  0.13168547048E+03  0.00000000000E+00 0. -1.
</event>
<event>
 4    1  0.3099057E+006  0.2304053E+02  0.7546771E-02  0.1491990E+00
         21   -1    0    0  503  501  0.00000000000E+00  0.00000000000E+00  0.32173251582E+02  0.32173251582E+02  0.00000000000E+00 0. -1.
         21   -1    0    0  504  502 -0.00000000000E+00 -0.00000000000E+00 -0.23470266041E+02  0.23470266041E+02  0.00000000000E+00 0.  1.
         21    1    1    2  503  502  0.18424446813E+02 -0.13834944939E+02 -0.10810042923E+02  0.25450402154E+02  0.00000000000E+00 0.  1.
         21    1    1    2  504  501 -0.18424446813E+02  0.13834944939E+02  0.19513028464E+02  0.30193115468E+02  0.00000000000E+00 0. -1.
</event>
<event>
 4    1  0.3099057E+006  0.2186166E+02  0.7546771E-02  0.1507309E+00
         21   -1    0    0  503  501  0.00000000000E+00  0.00000000000E+00  0.45306336112E+03  0.45306336112E+03  0.00000000000E+00 0.  1.
         21   -1    0    0  504  502 -0.00000000000E+00 -0.00000000000E+00 -0.25172106175E+01  0.25172106175E+01  0.00000000000E+00 0. -1.
         21    1    1    2  503  502 -0.11582536254E+02  0.18541230564E+02  0.39889181650E+03  0.39949044249E+03  0.00000000000E+00 0.  1.
         21    1    1    2  504  501  0.11582536254E+02 -0.18541230564E+02  0.51654334010E+02  0.56090129247E+02  0.00000000000E+00 0. -1.
</event>
<event>
 4    1  0.3099057E+006  0.2667796E+02  0.7546771E-02  0.1450870E+00
         21   -1    0    0  503  501  0.00000000000E+00  0.00000000000E+00  0.11940530214E+03  0.11940530214E+03  0.00000000000E+00 0.  1.
         21   -1    0    0  504  502 -0.00000000000E+00 -0.00000000000E+00 -0.20618250102E+02  0.20618250102E+02  0.00000000000E+00 0. -1.
         21    1    1    2  503  502 -0.48186279510E+01 -0.26239176908E+02  0.10842437973E+03  0.11165822719E+03  0.00000000000E+00 0.  1.
         21    1    1    2  504  501  0.48186279510E+01  0.26239176908E+02 -0.96373276911E+01  0.28365325050E+02  0.00000000000E+00 0. -1.
</event>
<event>
 4    1  0.3099057E+006  0.2284742E+02  0.7546771E-02  0.1494423E+00
         21   -1    0    0  504  501  0.00000000000E+00  0.00000000000E+00  0.28273282857E+03  0.28273282857E+03  0.00000000000E+00 0. -1.
         21   -1    0    0  503  502 -0.00000000000E+00 -0.00000000000E+00 -0.23495437406E+01  0.23495437406E+01  0.00000000000E+00 0. -1.
         21    1    1    2  503  501  0.17536047010E+02 -0.14645525991E+02  0.20616153802E+03  0.20742368267E+03  0.00000000000E+00 0. -1.
         21    1    1    2  504  502 -0.17536047010E+02  0.14645525991E+02  0.74221746812E+02  0.77658689637E+02  0.00000000000E+00 0. -1.
</event>
<event>
 4    1  0.3099057E+006  0.2026538E+02  0.7546771E-02  0.1530017E+00
         21   -1    0    0  504  501  0.00000000000E+00  0.00000000000E+00  0.66588883006E+01  0.66588883006E+01  0.00000000000E+00 0.  1.
         21   -1    0    0  503  502 -0.00000000000E+00 -0.00000000000E+00 -0.79086798580E+02  0.79086798580E+02  0.00000000000E+00 0.  1.
         21    1    1    2  503  501 -0.11789679664E+02 -0.16482988905E+02 -0.56330567778E+02  0.59865000927E+02  0.00000000000E+00 0.  1.
         21    1    1    2  504  502  0.11789679664E+02  0.16482988905E+02 -0.16097342501E+02  0.25880685953E+02  0.00000000000E+00 0.  1.
</event>
<event>
 4    1  0.3099057E+006  0.2650027E+02  0.7546771E-02  0.1452694E+00
         21   -1    0    0  503  501  0.00000000000E+00  0.00000000000E+00  0.28198155295E+03  0.28198155295E+03  0.00000000000E+00 0.  1.
         21   -1    0    0  504  502 -0.00000000000E+00 -0.00000000000E+00 -0.34033791327E+01  0.34033791327E+01  0.00000000000E+00 0.  1.
         21    1    1    2  503  502  0.10611297985E+02  0.24283015870E+02  0.21319197650E+03  0.21483268687E+03  0.00000000000E+00 0.  1.
         21    1    1    2  504  501 -0.10611297985E+02 -0.24283015870E+02  0.65386197318E+02  0.70552245212E+02  0.00000000000E+00 0.  1.
</event>
<event>
 4    1  0.3099057E+006  0.2473587E+02  0.7546771E-02  0.1471780E+00
         21   -1    0    0  504  501  0.00000000000E+00  0.00000000000E+00  0.31844233363E+02  0.31844233363E+02  0.00000000000E+00 0.  1.
         21   -1    0    0  503  502 -0.00000000000E+00 -0.00000000000E+00 -0.24110590531E+02  0.24110590531E+02  0.00000000000E+00 0.  1.
         21    1    1    2  503  501 -0.24630718855E+02 -0.22783621448E+01 -0.87409743232E+01  0.26234859967E+02  0.00000000000E+00 0.  1.
         21    1    1    2  504  502  0.24630718855E+02  0.22783621448E+01  0.16474617156E+02  0.29719963927E+02  0.00000000000E+00 0.  1.
</event>
<event>
 4    1  0.3099057E+006  0.2805218E+02  0.7546771E-02  0.1437316E+00
         21   -1    0    0  503  501  0.00000000000E+00  0.00000000000E+00  0.28415723207E+02  0.28415723207E+02  0.00000000000E+00 0.  1.
         21   -1    0    0  504  502 -0.00000000000E+00 -0.00000000000E+00 -0.13764097629E+03  0.13764097629E+03  0.00000000000E+00 0.  1.
         21    1    1    2  503  502  0.27630981875E+02 -0.48428678518E+01 -0.12881975127E+03  0.13183873803E+03  0.00000000000E+00 0.  1.
         21    1    1    2  504  501 -0.27630981875E+02  0.48428678518E+01  0.19594498180E+02  0.34217961472E+02  0.00000000000E+00 0.  1.
</event>
<event>
 4    1  0.3099057E+006  0.2467440E+02  0.7546771E-02  0.1472479E+00
         21   -1    0    0  503  501  0.00000000000E+00  0.00000000000E+00  0.34779089621E+01  0.34779089621E+01  0.00000000000E+00 0.  1.
         21   -1    0    0  504  502 -0.00000000000E+00 -0.00000000000E+00 -0.23177991823E+03  0.23177991823E+03  0.00000000000E+00 0.  1.
         21    1    1    2  503  502 -0.76981455148E+01 -0.23442793991E+02 -0.17234288259E+03  0.17410024473E+03  0.00000000000E+00 0.  1.
         21    1    1    2  504  501  0.76981455148E+01  0.23442793991E+02 -0.55959126677E+02  0.61157582465E+02  0.00000000000E+00 0.  1.
</event>
<event>
 4    1  0.3099057E+006  0.6225954E+02  0.7546771E-02  0.1252343E+00
         21   -1    0    0  503  501  0.00000000000E+00  0.00000000000E+00  0.41271917232E+02  0.41271917232E+02  0.00000000000E+00 0.  1.
         21   -1    0    0  504  502 -0.00000000000E+00 -0.00000000000E+00 -0.11808182093E+03  0.11808182093E+03  0.00000000000E+00 0.  1.
         21    1    1    2  503  502  0.62208657647E+02  0.25166970463E+01 -0.23630891153E+01  0.62304374168E+02  0.00000000000E+00 0.  1.
         21    1    1    2  504  501 -0.62208657647E+02 -0.25166970463E+01 -0.74446814584E+02  0.97049363995E+02  0.00000000000E+00 0.  1.
</event>
<event>
 4    1  0.3099057E+006  0.5292854E+02  0.7546771E-02  0.1285951E+00
         21   -1    0    0  502  501  0.00000000000E+00  0.00000000000E+00  0.11411648950E+03  0.11411648950E+03  0.00000000000E+00 0. -1.
         21   -1    0    0  504  502 -0.00000000000E+00 -0.00000000000E+00 -0.57712255119E+02  0.57712255119E+02  0.00000000000E+00 0. -1.
         21    1    1    2  503  501  0.11645622928E+02 -0.51631484703E+02  0.93329141150E+02  0.10729286712E+03  0.00000000000E+00 0. -1.
         21    1    1    2  504  503 -0.11645622928E+02  0.51631484703E+02 -0.36924906765E+02  0.64535877507E+02  0.00000000000E+00 0. -1.
</event>
<event>
 4    1  0.3099057E+006  0.2093246E+02  0.7546771E-02  0.1520231E+00
         21   -1    0    0  503  501  0.00000000000E+00  0.00000000000E+00  0.38101561085E+03  0.38101561085E+03  0.00000000000E+00 0. -1.
         21   -1    0    0  504  502 -0.00000000000E+00 -0.00000000000E+00 -0.67798119308E+01  0.67798119308E+01  0.00000000000E+00 0. -1.
         21    1    1    2  503  502  0.20476054172E+01  0.20832073638E+02  0.36380742330E+03  0.36440912341E+03  0.00000000000E+00 0. -1.
         21    1    1    2  504  501 -0.20476054172E+01 -0.20832073638E+02  0.10428375621E+02  0.23386299368E+02  0.00000000000E+00 0. -1.
</event>
<event>
 4    1  0.3099057E+006  0.3095476E+02  0.7546771E-02  0.1411477E+00
         21   -1    0    0  504  501  0.00000000000E+00  0.00000000000E+00  0.71668732634E+01  0.71668732634E+01  0.00000000000E+00 0. -1.
         21   -1    0    0  503  502 -0.00000000000E+00 -0.00000000000E+00 -0.45012969258E+03  0.45012969258E+03  0.00000000000E+00 0.  1.
         21    1    1    2  503  501  0.21981137001E+01  0.30876619083E+02 -0.41318887914E+03  0.41434677163E+03  0.00000000000E+00 0.  1.
         21    1    1    2  504  502 -0.21981137001E+01 -0.30876619083E+02 -0.29773940174E+02  0.42949794217E+02  0.00000000000E+00 0. -1.
</event>
<event>
 4    1  0.3099057E+006  0.2760154E+02  0.7546771E-02  0.1441657E+00
         21   -1    0    0  503  501  0.00000000000E+00  0.00000000000E+00  0.73868148981E+02  0.73868148981E+02  0.00000000000E+00 0. -1.
         21   -1    0    0  501  502 -0.00000000000E+00 -0.00000000000E+00 -0.34498122934E+03  0.34498122934E+03  0.00000000000E+00 0. -1.
         21    1    1    2  503  504  0.27183031124E+02  0.47882760960E+01  0.70713909809E+02  0.75909826831E+02  0.00000000000E+00 0. -1.
         21    1    1    2  504  502 -0.27183031124E+02 -0.47882760960E+01 -0.34182699017E+03  0.34293955149E+03  0.00000000000E+00 0. -1.
</event>
<event>
 4    1  0.3099057E+006  0.2370914E+02  0.7546771E-02  0.1483780E+00
         21   -1    0    0  504  501  0.00000000000E+00  0.00000000000E+00  0.31553378680E+01  0.31553378680E+01  0.00000000000E+00 0. -1.
         21   -1    0    0  503  502 -0.00000000000E+00 -0.00000000000E+00 -0.54698257827E+03  0.54698257827E+03  0.00000000000E+00 0.  1.
         21    1    1    2  503  501  0.21320163474E+02  0.10371787729E+02 -0.49778930872E+03  0.49835360863E+03  0.00000000000E+00 0.  1.
         21    1    1    2  504  502 -0.21320163474E+02 -0.10371787729E+02 -0.46037931678E+02  0.51784307512E+02  0.00000000000E+00 0. -1.
</event>
<event>
 4    1  0.3099057E+006  0.2690540E+02  0.7546771E-02  0.1448561E+00
         21   -1    0    0  504  501  0.00000000000E+00  0.00000000000E+00  0.14350934331E+04  0.14350934331E+04  0.00000000000E+00 0.  1.
         21   -1    0    0  501  502 -0.00000000000E+00 -0.00000000000E+00 -0.15085671444E+01  0.15085671444E+01  0.00000000000E+00 0.  1.
         21    1    1    2  503  502 -0.23094005909E+02 -0.13804619146E+02  0.13076060763E+03  0.13349995178E+03  0.00000000000E+00 0.  1.
         21    1    1    2  504  503  0.23094005909E+02  0.13804619146E+02  0.13028242584E+04  0.13031020485E+04  0.00000000000E+00 0.  1.
</event>
<event>
 4    1  0.3099057E+006  0.2149989E+02  0.7546771E-02  0.1512246E+00
         21   -1    0    0  503  501  0.00000000000E+00  0.00000000000E+00  0.33852476494E+03  0.33852476494E+03  0.00000000000E+00 0.  1.
         21   -1    0    0  504  502 -0.00000000000E+00 -0.00000000000E+00 -0.69652155956E+02  0.69652155956E+02  0.00000000000E+00 0. -1.
         21    1    1    2  503  502 -0.51136699563E+01  0.20882906456E+02 -0.67641765763E+02  0.70976431849E+02  0.00000000000E+00 0. -1.
         21    1    1    2  504  501  0.51136699563E+01 -0.20882906456E+02  0.33651437475E+03  0.33720048905E+03  0.00000000000E+00 0.  1.
</event>
<event>
 4    1  0.3099057E+006  0.2109164E+02  0.7546771E-02  0.1517960E+00
         21   -1    0    0  504  501  0.00000000000E+00  0.00000000000E+00  0.63800568630E+02  0.63800568630E+02  0.00000000000E+00 0.  1.
         21   -1    0    0  503  502 -0.00000000000E+00 -0.00000000000E+00 -0.55544297433E+02  0.55544297433E+02  0.00000000000E+00 0. -1.
         21    1    1    2  503  501 -0.32476480541E+01  0.20840111952E+02 -0.51673320600E+02  0.55812091395E+02  0.00000000000E+00 0. -1.
         21    1    1    2  504  502  0.32476480541E+01 -0.20840111952E+02  0.59929591797E+02  0.63532774668E+02  0.00000000000E+00 0.  1.
</event>
<event>
 4    1  0.3099057E+006  0.4614628E+02  0.7546771E-02  0.1315805E+00
         21   -1    0    0  504  501  0.00000000000E+00  0.00000000000E+00  0.84839219177E+01  0.84839219177E+01  0.00000000000E+00 0.  1.
         21   -1    0    0  503  502 -0.00000000000E+00 -0.00000000000E+00 -0.64799580718E+03  0.64799580718E+03  0.00000000000E+00 0. -1.
         21    1    1    2  503  501 -0.44489251253E+02  0.12255041568E+02 -0.62836357487E+02  0.77960806455E+02  0.00000000000E+00 0.  1.
         21    1    1    2  504  502  0.44489251253E+02 -0.12255041568E+02 -0.57667552778E+03  0.57851892265E+03  0.00000000000E+00 0. -1.
</event>
<event>
 4    1  0.3099057E+006  0.2025800E+02  0.7546771E-02  0.1530128E+00
         21   -1    0    0  504  501  0.00000000000E+00  0.00000000000E+00  0.53118978425E+03  0.53118978425E+03  0.00000000000E+00 0. -1.
         21   -1    0    0  501  502 -0.00000000000E+00 -0.00000000000E+00 -0.87286096445E+00  0.87286096445E+00  0.00000000000E+00 0. -1.
         21    1    1    2  503  502 -0.20126917725E+02  0.23007841753E+01  0.17498677010E+03  0.17615548851E+03  0.00000000000E+00 0. -1.
         21    1    1    2  504  503  0.20126917725E+02 -0.23007841753E+01  0.35533015319E+03  0.35590715670E+03  0.00000000000E+00 0. -1.
</event>
<event>
 4    1  0.3099057E+006  0.2730476E+02  0.7546771E-02  0.1444570E+00
         21   -1    0    0  503  501  0.00000000000E+00  0.00000000000E+00  0.31831687126E+03  0.31831687126E+03  0.00000000000E+00 0.  1.
         21   -1    0    0  504  502 -0.00000000000E+00 -0.00000000000E+00 -0.21677612412E+02  0.21677612412E+02  0.00000000000E+00 0. -1.
         21    1    1    2  503  502 -0.11356436653E+02 -0.24831059810E+02 -0.12231468725E+02  0.29919208076E+02  0.00000000000E+00 0. -1.
         21    1    1    2  504  501  0.11356436653E+02  0.24831059810E+02  0.30887072757E+03  0.31007527560E+03  0.00000000000E+00 0.  1.
</event>
<event>
 4    1  0.3099057E+006  0.2373318E+02  0.7546771E-02  0.1483491E+00
         21   -1    0    0  504  501  0.00000000000E+00  0.00000000000E+00  0.54010152642E+02  0.54010152642E+02  0.00000000000E+00 0. -1.
         21   -1    0    0  501  502 -0.00000000000E+00 -0.00000000000E+00 -0.22994314929E+02  0.22994314929E+02  0.00000000000E+00 0. -1.
         21    1    1    2  503  502 -0.97560245521E-01 -0.23732980329E+02 -0.12954050098E+02  0.27038329964E+02  0.00000000000E+00 0. -1.
         21    1    1    2  504  503  0.97560245521E-01  0.23732980329E+02  0.43969887810E+02  0.49966137607E+02  0.00000000000E+00 0. -1.
</event>
<event>
 4    1  0.3099057E+006  0.2597361E+02  0.7546771E-02  0.1458200E+00
         21   -1    0    0  504  501  0.00000000000E+00  0.00000000000E+00  0.27373239833E+03  0.27373239833E+03  0.00000000000E+00 0.  1.
         21   -1    0    0  503  502 -0.00000000000E+00 -0.00000000000E+00 -0.63794663207E+01  0.63794663207E+01  0.00000000000E+00 0.  1.
         21    1    1    2  503  501  0.15638203607E+02  0.20738254121E+02  0.24339254785E+03  0.24477451040E+03  0.00000000000E+00 0.  1.
         21    1    1    2  504  502 -0.15638203607E+02 -0.20738254121E+02  0.23960384167E+02  0.35337354251E+02  0.00000000000E+00 0.  1.
</event>
<event>
 4    1  0.3099057E+006  0.4907613E+02  0.7546771E-02  0.1302228E+00
         21   -1    0    0  504  501  0.00000000000E+00  0.00000000000E+00  0.19033963906E+03  0.19033963906E+03  0.00000000000E+00 0. -1.
         21   -1    0    0  503  502 -0.00000000000E+00 -0.00000000000E+00 -0.13899448461E+02  0.13899448461E+02  0.00000000000E+00 0. -1.
         21    1    1    2  503  501 -0.43998168910E+02  0.21739990612E+02  0.11879442712E+03  0.12853241604E+03  0.00000000000E+00 0. -1.
         21    1    1    2  504  502  0.43998168910E+02 -0.21739990612E+02  0.57645763484E+02  0.75706671482E+02  0.00000000000E+00 0. -1.
</event>
<event>
 4    1  0.3099057E+006  0.2199904E+02  0.7546771E-02  0.1505465E+00
         21   -1    0    0  504  501  0.00000000000E+00  0.00000000000E+00  0.38830759952E+02  0.38830759952E+02  0.00000000000E+00 0. -1.
         21   -1    0    0  501  502 -0.00000000000E+00 -0.00000000000E+00 -0.95843546911E+02  0.95843546911E+02  0.00000000000E+00 0.  1.
         21    1    1    2  503  502  0.21855138209E+02 -0.25120890669E+01 -0.91312955428E+02  0.93925574188E+02  0.00000000000E+00 0.  1.
         21    1    1    2  504  503 -0.21855138209E+02  0.25120890669E+01  0.34300168469E+02  0.40748732675E+02  0.00000000000E+00 0. -1.
</event>
<event>
 4    1  0.3099057E+006  0.2006333E+02  0.7546771E-02  0.1533070E+00
         21   -1    0    0  503  501  0.00000000000E+00  0.00000000000E+00  0.12127260168E+03  0.12127260168E+03  0.00000000000E+00 0.  1.
         21   -1    0    0  504  502 -0.00000000000E+00 -0.00000000000E+00 -0.63136899391E+01  0.63136899391E+01  0.00000000000E+00 0.  1.
         21    1    1    2  503  502 -0.66500579587E+01 -0.18929178347E+02  0.13546703266E+02  0.24208474407E+02  0.00000000000E+00 0.  1.
         21    1    1    2  504  501  0.66500579587E+01  0.18929178347E+02  0.10141220848E+03  0.10337781721E+03  0.00000000000E+00 0.  1.
</event>
<event>
 4    1  0.3099057E+006  0.2037368E+02  0.7546771E-02  0.1528398E+00
         21   -1    0    0  504  501  0.00000000000E+00  0.00000000000E+00  0.32083090729E+03  0.32083090729E+03  0.00000000000E+00 0.  1.
         21   -1    0    0  503  502 -0.00000000000E+00 -0.00000000000E+00 -0.45626444573E+02  0.45626444573E+02  0.00000000000E+00 0. -1.
         21    1    1    2  503  501  0.16746822104E+02  0.11603050884E+02 -0.43009939564E+02  0.47591404074E+02  0.00000000000E+00 0. -1.
         21    1    1    2  504  502 -0.16746822104E+02 -0.11603050884E+02  0.31821440228E+03  0.31886594779E+03  0.00000000000E+00 0.  1.
</event>
<event>
 4    1  0.3099057E+006  0.2257132E+02  0.7546771E-02  0.1497952E+00
         21   -1    0    0  503  501  0.00000000000E+00  0.00000000000E+00  0.20356689731E+03  0.20356689731E+03  0.00000000000E+00 0. -1.
         21   -1    0    0  504  502 -0.00000000000E+00 -0.00000000000E+00 -0.26376534720E+01  0.26376534720E+01  0.00000000000E+00 0. -1.
         21    1    1    2  503  502  0.10613802739E+02  0.19920136178E+02  0.77142443326E+02  0.80376745369E+02  0.00000000000E+00 0. -1.
         21    1    1    2  504  501 -0.10613802739E+02 -0.19920136178E+02  0.12378680051E+03  0.12582780541E+03  0.00000000000E+00 0. -1.
</event>
<event>
 4    1  0.3099057E+006  0.2173662E+02  0.7546771E-02  0.1509002E+00
         21   -1    0    0  504  501  0.00000000000E+00  0.00000000000E+00  0.63490647072E+03  0.63490647072E+03  0.00000000000E+00 0.  1.
         21   -1    0    0  503  502 -0.00000000000E+00 -0.00000000000E+00 -0.23228346036E+01  0.23228346036E+01  0.00000000000E+00 0.  1.
         21    1    1    2  503  501  0.99095443855E+01 -0.19346359010E+02  0.57895610748E+03  0.57936400912E+03  0.00000000000E+00 0.  1.
         21    1    1    2  504  502 -0.99095443855E+01  0.19346359010E+02  0.53627528631E+02  0.57865296196E+02  0.00000000000E+00 0.  1.
</event>
<event>
 4    1  0.3099057E+006  0.2146850E+02  0.7546771E-02  0.1512680E+00
         21   -1    0    0  503  501  0.00000000000E+00  0.00000000000E+00  0.70726603581E+01  0.70726603581E+01  0.00000000000E+00 0.  1.
         21   -1    0    0  501  502 -0.00000000000E+00 -0.00000000000E+00 -0.98650937366E+02  0.98650937366E+02  0.00000000000E+00 0. -1.
         21    1    1    2  503  504  0.21134448889E+02 -0.37724835980E+01 -0.14991567677E+02  0.26184798333E+02  0.00000000000E+00 0.  1.
         21    1    1    2  504  502 -0.21134448889E+02  0.37724835980E+01 -0.76586709332E+02  0.79538799391E+02  0.00000000000E+00 0. -1.
</event>
<event>
 4    1  0.3099057E+006  0.2350691E+02  0.7546771E-02  0.1486229E+00
         21   -1    0    0  503  501  0.00000000000E+00  0.00000000000E+00  0.70847385376E+01  0.70847385376E+01  0.00000000000E+00 0.  1.
         21   -1    0    0  501  502 -0.00000000000E+00 -0.00000000000E+00 -0.10107316248E+03  0.10107316248E+03  0.00000000000E+00 0.  1.
         21    1    1    2  503  504 -0.18359345392E+02 -0.14680230703E+02 -0.21153159110E+02  0.31623264807E+02  0.00000000000E+00 0.  1.
         21    1    1    2  504  502  0.18359345392E+02  0.14680230703E+02 -0.72835264832E+02  0.76534636210E+02  0.00000000000E+00 0.  1.
</event>
<event>
 4    1  0.3099057E+006  0.2207625E+02  0.7546771E-02  0.1504435E+00
         21   -1    0    0  503  501  0.00000000000E+00  0.00000000000E+00  0.66180447536E+01  0.66180447536E+01  0.00000000000E+00 0.  1.
         21   -1    0    0  504  502 -0.00000000000E+00 -0.00000000000E+00 -0.10247866839E+03  0.10247866839E+03  0.00000000000E+00 0.  1.
         21    1    1    2  503  502 -0.16597243807E+02  0.14556525367E+02 -0.18993991717E+02  0.29122717148E+02  0.00000000000E+00 0.  1.
         21    1    1    2  504  501  0.16597243807E+02 -0.14556525367E+02 -0.76866631921E+02  0.79973995997E+02  0.00000000000E+00 0.  1.
</event>
<event>
 4    1  0.3099057E+006  0.2287893E+02  0.7546771E-02  0.1494024E+00
         21   -1    0    0  503  501  0.00000000000E+00  0.00000000000E+00  0.78588499583E+01  0.78588499583E+01  0.00000000000E+00 0.  1.
         21   -1    0    0  504  502 -0.00000000000E+00 -0.00000000000E+00 -0.10491333349E+03  0.10491333349E+03  0.00000000000E+00 0. -1.
         21    1    1    2  503  502 -0.63779049108E+01 -0.21971978331E+02 -0.82599300390E+02  0.85709333959E+02  0.00000000000E+00 0. -1.
         21    1    1    2  504  501  0.63779049108E+01  0.21971978331E+02 -0.14455183142E+02  0.27062849490E+02  0.00000000000E+00 0.  1.
</event>
<event>
 4    1  0.3099057E+006  0.2076647E+02  0.7546771E-02  0.1522625E+00
         21   -1    0    0  502  501  0.00000000000E+00  0.00000000000E+00  0.31769838540E+02  0.31769838540E+02  0.00000000000E+00 0.  1.
         21   -1    0    0  503  502 -0.00000000000E+00 -0.00000000000E+00 -0.17144653057E+02  0.17144653057E+02  0.00000000000E+00 0.  1.
         21    1    1    2  503  504  0.20483774094E+02  0.34148440196E+01 -0.38486481955E+01  0.21120091234E+02  0.00000000000E+00 0.  1.
         21    1    1    2  504  501 -0.20483774094E+02 -0.34148440196E+01  0.18473833679E+02  0.27794400364E+02  0.00000000000E+00 0.  1.
</event>
<event>
 4    1  0.3099057E+006  0.2815928E+02  0.7546771E-02  0.1436298E+00
         21   -1    0    0  504  501  0.00000000000E+00  0.00000000000E+00  0.65923286434E+03  0.65923286434E+03  0.00000000000E+00 0.  1.
         21   -1    0    0  503  502 -0.00000000000E+00 -0.00000000000E+00 -0.13855154588E+01  0.13855154588E+01  0.00000000000E+00 0. -1.
         21    1    1    2  503  501 -0.61326965189E+01  0.27483357612E+02  0.20898279285E+03  0.21087141252E+03  0.00000000000E+00 0. -1.
         21    1    1    2  504  502  0.61326965189E+01 -0.27483357612E+02  0.44886455604E+03  0.44974696728E+03  0.00000000000E+00 0.  1.
</event>
<event>
 4    1  0.3099057E+006  0.2961695E+02  0.7546771E-02  0.1422955E+00
         21   -1    0    0  502  501  0.00000000000E+00  0.00000000000E+00  0.47084196471E+03  0.47084196471E+03  0.00000000000E+00 0. -1.
         21   -1    0    0  504  502 -0.00000000000E+00 -0.00000000000E+00 -0.38904376711E+02  0.38904376711E+02  0.00000000000E+00 0.  1.
         21    1    1    2  503  501 -0.18937358604E+02 -0.22771476047E+02  0.46466470014E+03  0.46560761080E+03  0.00000000000E+00 0. -1.
         21    1    1    2  504  503  0.18937358604E+02  0.22771476047E+02 -0.32727112142E+02  0.44138730628E+02  0.00000000000E+00 0.  1.
</event>
<event>
 4    1  0.3099057E+006  0.2509470E+02  0.7546771E-02  0.1467747E+00
         21   -1    0    0  504  501  0.00000000000E+00  0.00000000000E+00  0.21118969762E+03  0.21118969762E+03  0.00000000000E+00 0.  1.
         21   -1    0    0  503  502 -0.00000000000E+00 -0.00000000000E+00 -0.62283322689E+01  0.62283322689E+01  0.00000000000E+00 0.  1.
         21    1    1    2  503  501  0.14340601761E+02  0.20593473738E+02  0.18096513852E+03  0.18269681272E+03  0.00000000000E+00 0.  1.
         21    1    1    2  504  502 -0.14340601761E+02 -0.20593473738E+02  0.23996226835E+02  0.34721217170E+02  0.00000000000E+00 0.  1.
</event>
<event>
 4    1  0.3099057E+006  0.2159599E+02  0.7546771E-02  0.1510923E+00
         21   -1    0    0  504  501  0.00000000000E+00  0.00000000000E+00  0.75579784354E+01  0.75579784354E+01  0.00000000000E+00 0. -1.
         21   -1    0    0  503  502 -0.00000000000E+00 -0.00000000000E+00 -0.91989136247E+02  0.91989136247E+02  0.00000000000E+00 0. -1.
         21    1    1    2  503  501  0.71041305030E+01  0.20394069394E+02 -0.70772898365E+02  0.73994526012E+02  0.00000000000E+00 0. -1.
         21    1    1    2  504  502 -0.71041305030E+01 -0.20394069394E+02 -0.13658259446E+02  0.25552588671E+02  0.00000000000E+00 0. -1.
</event>
<event>
 4    1  0.3099057E+006  0.2223479E+02  0.7546771E-02  0.1502337E+00
         21   -1    0    0  502  501  0.00000000000E+00  0.00000000000E+00  0.52424454862E+02  0.52424454862E+02  0.00000000000E+00 0.  1.
         21   -1    0    0  504  502 -0.00000000000E+00 -0.00000000000E+00 -0.26417233401E+03  0.26417233401E+03  0.00000000000E+00 0. -1.
         21    1    1    2  503  501 -0.11652320517E+02  0.18936977755E+02  0.49573305526E+02  0.54331375104E+02  0.00000000000E+00 0.  1.
         21    1    1    2  504  503  0.11652320517E+02 -0.18936977755E+02 -0.26132118468E+03  0.26226541377E+03  0.00000000000E+00 0. -1.
</event>
<event>
 4    1  0.3099057E+006  0.2132213E+02  0.7546771E-02  0.1514715E+00
         21   -1    0    0  504  501  0.00000000000E+00  0.00000000000E+00  0.47015138854E+03  0.47015138854E+03  0.00000000000E+00 0.  1.
         21   -1    0    0  501  502 -0.00000000000E+00 -0.00000000000E+00 -0.25116438106E+01  0.25116438106E+01  0.00000000000E+00 0. -1.
         21    1    1    2  503  502 -0.20834586196E+02 -0.45335485938E+01  0.48484723343E+02  0.52966040465E+02  0.00000000000E+00 0. -1.
         21    1    1    2  504  503  0.20834586196E+02  0.45335485938E+01  0.41915502139E+03  0.41969699189E+03  0.00000000000E+00 0.  1.
</event>
<event>
 4    1  0.3099057E+006  0.2120963E+02  0.7546771E-02  0.1516293E+00
         21   -1    0    0  503  501  0.00000000000E+00  0.00000000000E+00  0.56826530700E+01  0.56826530700E+01  0.00000000000E+00 0.  1.
         21   -1    0    0  504  502 -0.00000000000E+00 -0.00000000000E+00 -0.35349030749E+03  0.35349030749E+03  0.00000000000E+00 0.  1.
         21    1    1    2  503  502 -0.20586253719E+02  0.51043715944E+01 -0.15698742791E+02  0.26387477651E+02  0.00000000000E+00 0.  1.
         21    1    1    2  504  501  0.20586253719E+02 -0.51043715944E+01 -0.33210891163E+03  0.33278548291E+03  0.00000000000E+00 0.  1.
</event>
<event>
 4    1  0.3099057E+006  0.2335664E+02  0.7546771E-02  0.1488068E+00
         21   -1    0    0  504  501  0.00000000000E+00  0.00000000000E+00  0.58851569502E+02  0.58851569502E+02  0.00000000000E+00 0.  1.
         21   -1    0    0  503  502 -0.00000000000E+00 -0.00000000000E+00 -0.29178611538E+02  0.29178611538E+02  0.00000000000E+00 0. -1.
         21    1    1    2  503  501 -0.15916882553E+02  0.17093428882E+02  0.51193959121E+02  0.56270364417E+02  0.00000000000E+00 0.  1.
         21    1    1    2  504  502  0.15916882553E+02 -0.17093428882E+02 -0.21521001156E+02  0.31759816623E+02  0.00000000000E+00 0. -1.
</event>
<event>
 4    1  0.3099057E+006  0.2683244E+02  0.7546771E-02  0.1449299E+00
         21   -1    0    0  503  501  0.00000000000E+00  0.00000000000E+00  0.44460017575E+02  0.44460017575E+02  0.00000000000E+00 0.  1.
         21   -1    0    0  504  502 -0.00000000000E+00 -0.00000000000E+00 -0.45888983825E+02  0.45888983825E+02  0.00000000000E+00 0. -1.
         21    1    1    2  503  502 -0.26565613107E+02  0.37746879833E+01  0.35625237535E+02  0.44599749086E+02  0.00000000000E+00 0.  1.
         21    1    1    2  504  501  0.26565613107E+02 -0.37746879833E+01 -0.37054203785E+02  0.45749252314E+02  0.00000000000E+00 0. -1.
</event>
<event>
 4    1  0.3099057E+006  0.3632308E+02  0.7546771E-02  0.1371493E+00
         21   -1    0    0  504  501  0.00000000000E+00  0.00000000000E+00  0.23746889744E+03  0.23746889744E+03  0.00000000000E+00 0.  1.
         21   -1    0    0  503  502 -0.00000000000E+00 -0.00000000000E+00 -0.55814307442E+01  0.55814307442E+01  0.00000000000E+00 0.  1.
         21    1    1    2  503  501  0.35509370530E+02 -0.76453122565E+01  0.10773326133E+03  0.11369178418E+03  0.00000000000E+00 0.  1.
         21    1    1    2  504  502 -0.35509370530E+02  0.76453122565E+01  0.12415420537E+03  0.12935854400E+03  0.00000000000E+00 0.  1.
</event>
<event>
 4    1  0.3099057E+006  0.2183654E+02  0.7546771E-02  0.1507648E+00
         21   -1    0    0  504  501  0.00000000000E+00  0.00000000000E+00  0.34873226685E+01  0.34873226685E+01  0.00000000000E+00 0.  1.
         21   -1    0    0  503  502 -0.00000000000E+00 -0.00000000000E+00 -0.14600322223E+03  0.14600322223E+03  0.00000000000E+00 0.  1.
         21    1    1    2  503  501 -0.16875419219E+02  0.13858381861E+02 -0.52424440480E+02  0.56790461182E+02  0.00000000000E+00 0.  1.
         21    1    1    2  504  502  0.16875419219E+02 -0.13858381861E+02 -0.90091459079E+02  0.92700083714E+02  0.00000000000E+00 0.  1.
</event>
<event>
 4    1  0.3099057E+006  0.3975434E+02  0.7546771E-02  0.1349931E+00
         21   -1    0    0  503  501  0.00000000000E+00  0.00000000000E+00  0.26111276750E+02  0.26111276750E+02  0.00000000000E+00 0.  1.
         21   -1    0    0  504  502 -0.00000000000E+00 -0.00000000000E+00 -0.74266655976E+02  0.74266655976E+02  0.00000000000E+00 0.  1.
         21    1    1    2  503  502 -0.38814453596E+01 -0.39564399401E+02 -0.24894434696E+01  0.39832206151E+02  0.00000000000E+00 0.  1.
         21    1    1    2  504  501  0.38814453596E+01  0.39564399401E+02 -0.45665935755E+02  0.60545726575E+02  0.00000000000E+00 0.  1.
</event>
<event>
 4    1  0.3099057E+006  0.2435999E+02  0.7546771E-02  0.1476092E+00
         21   -1    0    0  504  501  0.00000000000E+00  0.00000000000E+00  0.92503739988E+01  0.92503739988E+01  0.00000000000E+00 0. -1.
         21   -1    0    0  503  502 -0.00000000000E+00 -0.00000000000E+00 -0.76092258031E+02  0.76092258031E+02  0.00000000000E+00 0. -1.
         21    1    1    2  503  501 -0.16521999251E+01 -0.24303891471E+02 -0.50325900599E+02  0.55911583561E+02  0.00000000000E+00 0. -1.
         21    1    1    2  504  502  0.16521999251E+01  0.24303891471E+02 -0.16515983433E+02  0.29431048469E+02  0.00000000000E+00 0. -1.
</event>
<event>
 4    1  0.3099057E+006  0.2204053E+02  0.7546771E-02  0.1504911E+00
         21   -1    0    0  503  501  0.00000000000E+00  0.00000000000E+00  0.84927795796E+01  0.84927795796E+01  0.00000000000E+00 0.  1.
         21   -1    0    0  504  502 -0.00000000000E+00 -0.00000000000E+00 -0.19321107949E+03  0.19321107949E+03  0.00000000000E+00 0. -1.
         21    1    1    2  503  502 -0.20826365977E+02  0.72143773905E+01 -0.17697578708E+03  0.17834296726E+03  0.00000000000E+00 0. -1.
         21    1    1    2  504  501  0.20826365977E+02 -0.72143773905E+01 -0.77425128325E+01  0.23360891805E+02  0.00000000000E+00 0.  1.
</event>
<event>
 4    1  0.3099057E+006  0.2220123E+02  0.7546771E-02  0.1502779E+00
         21   -1    0    0  503  501  0.00000000000E+00  0.00000000000E+00  0.87678021871E+02  0.87678021871E+02  0.00000000000E+00 0.  1.
         21   -1    0    0  504  502 -0.00000000000E+00 -0.00000000000E+00 -0.24623741524E+02  0.24623741524E+02  0.00000000000E+00 0. -1.
         21    1    1    2  503  502 -0.18741286259E+02  0.11902055537E+02 -0.17799361442E+02  0.28455438925E+02  0.00000000000E+00 0. -1.
         21    1    1    2  504  501  0.18741286259E+02 -0.11902055537E+02  0.80853641789E+02  0.83846324471E+02  0.00000000000E+00 0.  1.
</event>
<event>
 4    1  0.3099057E+006  0.2613332E+02  0.7546771E-02  0.1456514E+00
         21   -1    0    0  504  501  0.00000000000E+00  0.00000000000E+00  0.11778765701E+02  0.11778765701E+02  0.00000000000E+00 0. -1.
         21   -1    0    0  503  502 -0.00000000000E+00 -0.00000000000E+00 -0.46376637410E+03  0.46376637410E+03  0.00000000000E+00 0.  1.
         21    1    1    2  503  501 -0.14742216941E+02 -0.21578174831E+02 -0.44840674210E+03  0.44916762679E+03  0.00000000000E+00 0.  1.
         21    1    1    2  504  502  0.14742216941E+02  0.21578174831E+02 -0.35808662960E+01  0.26377513014E+02  0.00000000000E+00 0. -1.
</event>
<event>
 4    1  0.3099057E+006  0.2465538E+02  0.7546771E-02  0.1472696E+00
         21   -1    0    0  503  501  0.00000000000E+00  0.00000000000E+00  0.51388410691E+02  0.51388410691E+02  0.00000000000E+00 0. -1.
         21   -1    0    0  501  502 -0.00000000000E+00 -0.00000000000E+00 -0.12800755036E+04  0.12800755036E+04  0.00000000000E+00 0.  1.
         21    1    1    2  503  504 -0.72877248562E+01  0.23553699155E+02  0.48305231202E+02  0.54233596958E+02  0.00000000000E+00 0. -1.
         21    1    1    2  504  502  0.72877248562E+01 -0.23553699155E+02 -0.12769923241E+04  0.12772303173E+04  0.00000000000E+00 0.  1.
</event>
<event>
 4    1  0.3099057E+006  0.2457531E+02  0.7546771E-02  0.1473611E+00
         21   -1    0    0  502  501  0.00000000000E+00  0.00000000000E+00  0.35852259457E+02  0.35852259457E+02  0.00000000000E+00 0. -1.
         21   -1    0    0  503  502 -0.00000000000E+00 -0.00000000000E+00 -0.56557933991E+03  0.56557933991E+03  0.00000000000E+00 0. -1.
         21    1    1    2  503  504 -0.19929360066E+02 -0.14379380124E+02 -0.56106717680E+03  0.56160513072E+03  0.00000000000E+00 0. -1.
         21    1    1    2  504  501  0.19929360066E+02  0.14379380124E+02  0.31340096352E+02  0.39826468645E+02  0.00000000000E+00 0. -1.
</event>
<event>
 4    1  0.3099057E+006  0.2190679E+02  0.7546771E-02  0.1506702E+00
         21   -1    0    0  502  501  0.00000000000E+00  0.00000000000E+00  0.10331850518E+03  0.10331850518E+03  0.00000000000E+00 0.  1.
         21   -1    0    0  504  502 -0.00000000000E+00 -0.00000000000E+00 -0.68830283968E+01  0.68830283968E+01  0.00000000000E+00 0. -1.
         21    1    1    2  503  501 -0.16456718773E+02 -0.14459730192E+02  0.79637818958E+02  0.82595941779E+02  0.00000000000E+00 0.  1.
         21    1    1    2  504  503  0.16456718773E+02  0.14459730192E+02  0.16797657822E+02  0.27605591795E+02  0.00000000000E+00 0. -1.
</event>
<event>
 4    1  0.3099057E+006  0.2048424E+02  0.7546771E-02  0.1526758E+00
         21   -1    0    0  502  501  0.00000000000E+00  0.00000000000E+00  0.14257957991E+03  0.14257957991E+03  0.00000000000E+00 0. -1.
         21   -1    0    0  503  502 -0.00000000000E+00 -0.00000000000E+00 -0.29631933632E+01  0.29631933632E+01  0.00000000000E+00 0. -1.
         21    1    1    2  503  504 -0.20374747991E+02  0.21151020991E+01  0.63792796568E+02  0.67000932132E+02  0.00000000000E+00 0. -1.
         21    1    1    2  504  501  0.20374747991E+02 -0.21151020991E+01  0.75823589976E+02  0.78541841139E+02  0.00000000000E+00 0. -1.
</event>
<event>
 4    1  0.3099057E+006  0.2472099E+02  0.7546771E-02  0.1471949E+00
         21   -1    0    0  502  501  0.00000000000E+00  0.00000000000E+00  0.80639684176E+02  0.80639684176E+02  0.00000000000E+00 0.  1.
         21   -1    0    0  504  502 -0.00000000000E+00 -0.00000000000E+00 -0.80813850288E+01  0.80813850288E+01  0.00000000000E+00 0.  1.
         21    1    1    2  503  501  0.49271173957E+01  0.24225004637E+02  0.47345157114E+02  0.53410591063E+02  0.00000000000E+00 0.  1.
         21    1    1    2  504  503 -0.49271173957E+01 -0.24225004637E+02  0.25213142033E+02  0.35310478143E+02  0.00000000000E+00 0.  1.
</event>
<event>
 4    1  0.3099057E+006  0.2312042E+02  0.7546771E-02  0.1490992E+00
         21   -1    0    0  504  501  0.00000000000E+00  0.00000000000E+00  0.33349915515E+02  0.33349915515E+02  0.00000000000E+00 0. -1.
         21   -1    0    0  503  502 -0.00000000000E+00 -0.00000000000E+00 -0.40818717128E+02  0.40818717128E+02  0.00000000000E+00 0. -1.
         21    1    1    2  503  501  0.21241244969E+02  0.91303451577E+01 -0.32634515496E+02  0.39994565783E+02  0.00000000000E+00 0. -1.
         21    1    1    2  504  502 -0.21241244969E+02 -0.91303451577E+01  0.25165713883E+02  0.34174066860E+02  0.00000000000E+00 0. -1.
</event>
<event>
 4    1  0.3099057E+006  0.2030356E+02  0.7546771E-02  0.1529445E+00
         21   -1    0    0  504  501  0.00000000000E+00  0.00000000000E+00  0.14388445858E+01  0.14388445858E+01  0.00000000000E+00 0.  1.
         21   -1    0    0  503  502 -0.00000000000E+00 -0.00000000000E+00 -0.41965459207E+03  0.41965459207E+03  0.00000000000E+00 0.  1.
         21    1    1    2  503  501 -0.16446841791E+02  0.11905293955E+02 -0.90510751420E+02  0.92760070891E+02  0.00000000000E+00 0.  1.
         21    1    1    2  504  502  0.16446841791E+02 -0.11905293955E+02 -0.32770499606E+03  0.32833336577E+03  0.00000000000E+00 0.  1.
</event>
<event>
 4    1  0.3099057E+006  0.2167686E+02  0.7546771E-02  0.1509817E+00
         21   -1    0    0  502  501  0.00000000000E+00  0.00000000000E+00  0.29835282460E+02  0.29835282460E+02  0.00000000000E+00 0.  1.
         21   -1    0    0  504  502 -0.00000000000E+00 -0.00000000000E+00 -0.13697635106E+03  0.13697635106E+03  0.00000000000E+00 0. -1.
         21    1    1    2  503  501 -0.16179252564E+02 -0.14426289810E+02  0.24893970699E+02  0.33009026468E+02  0.00000000000E+00 0.  1.
         21    1    1    2  504  503  0.16179252564E+02  0.14426289810E+02 -0.13203503930E+03  0.13380260705E+03  0.00000000000E+00 0. -1.
</event>
<event>
 4    1  0.3099057E+006  0.2053170E+02  0.7546771E-02  0.1526057E+00
         21   -1    0    0  503  501  0.00000000000E+00  0.00000000000E+00  0.30533971516E+03  0.30533971516E+03  0.00000000000E+00 0. -1.
         21   -1    0    0  504  502 -0.00000000000E+00 -0.00000000000E+00 -0.70920430498E+01  0.70920430498E+01  0.00000000000E+00 0. -1.
         21    1    1    2  503  502 -0.20350660319E+02 -0.27205524664E+01  0.89352762881E+01  0.22391738286E+02  0.00000000000E+00 0. -1.
         21    1    1    2  504  501  0.20350660319E+02  0.27205524664E+01  0.28931239582E+03  0.29004001993E+03  0.00000000000E+00 0. -1.
</event>
<event>
 4    1  0.3099057E+006  0.2102521E+02  0.7546771E-02  0.1518905E+00
         21   -1    0    0  502  501  0.00000000000E+00  0.00000000000E+00  0.72553027674E+02  0.72553027674E+02  0.00000000000E+00 0. -1.
         21   -1    0    0  503  502 -0.00000000000E+00 -0.00000000000E+00 -0.31976007969E+02  0.31976007969E+02  0.00000000000E+00 0.  1.
         21    1    1    2  503  504  0.10829114347E+02  0.18021925994E+02 -0.26733685399E+02  0.34011019819E+02  0.00000000000E+00 0.  1.
         21    1    1    2  504  501 -0.10829114347E+02 -0.18021925994E+02  0.67310705105E+02  0.70518015824E+02  0.00000000000E+00 0. -1.
</event>
<event>
 4    1  0.3099057E+006  0.3454025E+02  0.7546771E-02  0.1383824E+00
         21   -1    0    0  502  501  0.00000000000E+00  0.00000000000E+00  0.20995788263E+03  0.20995788263E+03  0.00000000000E+00 0. -1.
         21   -1    0    0  503  502 -0.00000000000E+00 -0.00000000000E+00 -0.83534441539E+01  0.83534441539E+01  0.00000000000E+00 0.  1.
         21    1    1    2  503  504  0.12416256855E+02  0.32231430711E+02  0.39076237977E+02  0.52153436458E+02  0.00000000000E+00 0.  1.
         21    1    1    2  504  501 -0.12416256855E+02 -0.32231430711E+02  0.16252820050E+03  0.16615789033E+03  0.00000000000E+00 0. -1.
</event>
<event>
 4    1  0.3099057E+006  0.2079180E+02  0.7546771E-02  0.1522258E+00
         21   -1    0    0  503  501  0.00000000000E+00  0.00000000000E+00  0.11100285252E+01  0.11100285252E+01  0.00000000000E+00 0.  1.
         21   -1    0    0  504  502 -0.00000000000E+00 -0.00000000000E+00 -0.40939523645E+03  0.40939523645E+03  0.00000000000E+00 0. -1.
         21    1    1    2  503  502 -0.17490245508E+02  0.11242344492E+02 -0.15883691455E+03  0.16019196116E+03  0.00000000000E+00 0.  1.
         21    1    1    2  504  501  0.17490245508E+02 -0.11242344492E+02 -0.24944829338E+03  0.25031330382E+03  0.00000000000E+00 0. -1.
</event>
<event>
 4    1  0.3099057E+006  0.2099635E+02  0.7546771E-02  0.1519317E+00
         21   -1    0    0  503  501  0.00000000000E+00  0.00000000000E+00  0.71492618508E+02  0.71492618508E+02  0.00000000000E+00 0.  1.
         21   -1    0    0  504  502 -0.00000000000E+00 -0.00000000000E+00 -0.11380113024E+02  0.11380113024E+02  0.00000000000E+00 0.  1.
         21    1    1    2  503  502  0.74422415237E+01 -0.19633131337E+02  0.58103161804E+02  0.61780451736E+02  0.00000000000E+00 0.  1.
         21    1    1    2  504  501 -0.74422415237E+01  0.19633131337E+02  0.20093436795E+01  0.21092279797E+02  0.00000000000E+00 0.  1.
</event>
<event>
 4    1  0.3099057E+006  0.2446727E+02  0.7546771E-02  0.1474852E+00
         21   -1    0    0  502  501  0.00000000000E+00  0.00000000000E+00  0.16775762299E+02  0.16775762299E+02  0.00000000000E+00 0.  1.
         21   -1    0    0  503  502 -0.00000000000E+00 -0.00000000000E+00 -0.23466421454E+03  0.23466421454E+03  0.00000000000E+00 0.  1.
         21    1    1    2  503  504 -0.63048979476E+01 -0.23640975859E+02 -0.22471114348E+03  0.22603925650E+03  0.00000000000E+00 0.  1.
         21    1    1    2  504  501  0.63048979476E+01  0.23640975859E+02  0.68226912398E+01  0.25400720333E+02  0.00000000000E+00 0.  1.
</event>
<event>
 4    1  0.3099057E+006  0.2280011E+02  0.7546771E-02  0.1495024E+00
         21   -1    0    0  503  501  0.00000000000E+00  0.00000000000E+00  0.12152362159E+02  0.12152362159E+02  0.00000000000E+00 0. -1.
         21   -1    0    0  504  502 -0.00000000000E+00 -0.00000000000E+00 -0.43604290967E+02  0.43604290967E+02  0.00000000000E+00 0.  1.
         21    1    1    2  503  502  0.19023541654E+02  0.12567812167E+02 -0.19565306718E+02  0.30044072072E+02  0.00000000000E+00 0.  1.
         21    1    1    2  504  501 -0.19023541654E+02 -0.12567812167E+02 -0.11886622090E+02  0.25712581053E+02  0.00000000000E+00 0. -1.
</event>
<event>
 4    1  0.3099057E+006  0.3439794E+02  0.7546771E-02  0.1384846E+00
         21   -1    0    0  504  501  0.00000000000E+00  0.00000000000E+00  0.15234082214E+02  0.15234082214E+02  0.00000000000E+00 0. -1.
         21   -1    0    0  501  502 -0.00000000000E+00 -0.00000000000E+00 -0.90776205655E+02  0.90776205655E+02  0.00000000000E+00 0. -1.
         21    1    1    2  503  502 -0.95542772398E+01 -0.33044420435E+02 -0.57912240423E+02  0.67357594422E+02  0.00000000000E+00 0. -1.
         21    1    1    2  504  503  0.95542772398E+01  0.33044420435E+02 -0.17629883018E+02  0.38652693447E+02  0.00000000000E+00 0. -1.
</event>
<event>
 4    1  0.3099057E+006  0.2192272E+02  0.7546771E-02  0.1506487E+00
         21   -1    0    0  503  501  0.00000000000E+00  0.00000000000E+00  0.42412680423E+01  0.42412680423E+01  0.00000000000E+00 0.  1.
         21   -1    0    0  504  502 -0.00000000000E+00 -0.00000000000E+00 -0.12812776058E+03  0.12812776058E+03  0.00000000000E+00 0.  1.
         21    1    1    2  503  502 -0.14015735812E+01 -0.21877870374E+02 -0.39440740500E+02  0.45124024995E+02  0.00000000000E+00 0.  1.
         21    1    1    2  504  501  0.14015735812E+01  0.21877870374E+02 -0.84445752034E+02  0.87245003623E+02  0.00000000000E+00 0.  1.
</event>
<event>
 4    1  0.3099057E+006  0.3803636E+02  0.7546771E-02  0.1360393E+00
         21   -1    0    0  503  501  0.00000000000E+00  0.00000000000E+00  0.12418593654E+02  0.12418593654E+02  0.00000000000E+00 0.  1.
         21   -1    0    0  501  502 -0.00000000000E+00 -0.00000000000E+00 -0.20434692584E+03  0.20434692584E+03  0.00000000000E+00 0.  1.
         21    1    1    2  503  504 -0.18208837127E+02 -0.33394658539E+02 -0.24901798581E+02  0.45462781932E+02  0.00000000000E+00 0.  1.
         21    1    1    2  504  502  0.18208837127E+02  0.33394658539E+02 -0.16702653360E+03  0.17130273756E+03  0.00000000000E+00 0.  1.
</event>
<event>
 4    1  0.3099057E+006  0.2204405E+02  0.7546771E-02  0.1504864E+00
         21   -1    0    0  503  501  0.00000000000E+00  0.00000000000E+00  0.32221172516E+02  0.32221172516E+02  0.00000000000E+00 0.  1.
         21   -1    0    0  504  502 -0.00000000000E+00 -0.00000000000E+00 -0.29462184042E+02  0.29462184042E+02  0.00000000000E+00 0.  1.
         21    1    1    2  503  502  0.10817534981E+02  0.19207316833E+02 -0.20168009276E+02  0.29877896197E+02  0.00000000000E+00 0.  1.
         21    1    1    2  504  501 -0.10817534981E+02 -0.19207316833E+02  0.22926997750E+02  0.31805460362E+02  0.00000000000E+00 0.  1.
</event>
<event>
 4    1  0.3099057E+006  0.8701229E+02  0.7546771E-02  0.1188441E+00
         21   -1    0    0  504  501  0.00000000000E+00  0.00000000000E+00  0.19971766492E+03  0.19971766492E+03  0.00000000000E+00 0.  1.
         21   -1    0    0  501  502 -0.00000000000E+00 -0.00000000000E+00 -0.57050100624E+02  0.57050100624E+02  0.00000000000E+00 0. -1.
         21    1    1    2  503  502  0.86368812740E+02 -0.10562542502E+02 -0.30303231500E+01  0.87065044517E+02  0.00000000000E+00 0. -1.
         21    1    1    2  504  503 -0.86368812740E+02  0.10562542502E+02  0.14569788745E+03  0.16970272103E+03  0.00000000000E+00 0.  1.
</event>
<event>
 4    1  0.3099057E+006  0.2244172E+02  0.7546771E-02  0.1499630E+00
         21   -1    0    0  503  501  0.00000000000E+00  0.00000000000E+00  0.28057128314E+02  0.28057128314E+02  0.00000000000E+00 0. -1.
         21   -1    0    0  504  502 -0.00000000000E+00 -0.00000000000E+00 -0.21211972798E+02  0.21211972798E+02  0.00000000000E+00 0. -1.
         21    1    1    2  503  502 -0.13213290436E+02 -0.18139450465E+02 -0.62375265007E+01  0.23292433196E+02  0.00000000000E+00 0. -1.
         21    1    1    2  504  501  0.13213290436E+02  0.18139450465E+02  0.13082682017E+02  0.25976667917E+02  0.00000000000E+00 0. -1.
</event>
<event>
 4    1  0.3099057E+006  0.2374837E+02  0.7546771E-02  0.1483309E+00
         21   -1    0    0  504  501  0.00000000000E+00  0.00000000000E+00  0.74771147330E+02  0.74771147330E+02  0.00000000000E+00 0. -1.
         21   -1    0    0  503  502 -0.00000000000E+00 -0.00000000000E+00 -0.76993506431E+01  0.76993506431E+01  0.00000000000E+00 0. -1.
         21    1    1    2  503  501 -0.21987761352E+02 -0.89734936732E+01  0.27656369709E+02  0.36453532386E+02  0.00000000000E+00 0. -1.
         21    1    1    2  504  502  0.21987761352E+02  0.89734936732E+01  0.39415426979E+02  0.46016965587E+02  0.00000000000E+00 0. -1.
</event>
<event>
 4    1  0.3099057E+006  0.2120135E+02  0.7546771E-02  0.1516409E+00
         21   -1    0    0  504  501  0.00000000000E+00  0.00000000000E+00  0.43847544081E+01  0.43847544081E+01  0.00000000000E+00 0. -1.
         21   -1    0    0  501  502 -0.00000000000E+00 -0.00000000000E+00 -0.18316014167E+03  0.18316014167E+03  0.00000000000E+00 0.  1.
         21    1    1    2  503  502 -0.44824137465E+01 -0.20722099723E+02 -0.15161089356E+03  0.15308612117E+03  0.00000000000E+00 0.  1.
         21    1    1    2  504  503  0.44824137465E+01  0.20722099723E+02 -0.27164493708E+02  0.34458774910E+02  0.00000000000E+00 0. -1.
</event>
<event>
 4    1  0.3099057E+006  0.2206250E+02  0.7546771E-02  0.1504618E+00
         21   -1    0    0  504  501  0.00000000000E+00  0.00000000000E+00  0.24567538012E+01  0.24567538012E+01  0.00000000000E+00 0.  1.
         21   -1    0    0  503  502 -0.00000000000E+00 -0.00000000000E+00 -0.54745255581E+03  0.54745255581E+03  0.00000000000E+00 0.  1.
         21    1    1    2  503  501  0.33088020657E+01  0.21812974791E+02 -0.49213302950E+03  0.49262731630E+03  0.00000000000E+00 0.  1.
         21    1    1    2  504  502 -0.33088020657E+01 -0.21812974791E+02 -0.52862772507E+02  0.57281993309E+02  0.00000000000E+00 0.  1.
</event>
<event>
 4    1  0.3099057E+006  0.2181132E+02  0.7546771E-02  0.1507989E+00
         21   -1    0    0  503  501  0.00000000000E+00  0.00000000000E+00  0.39096665347E+03  0.39096665347E+03  0.00000000000E+00 0.  1.
         21   -1    0    0  504  502 -0.00000000000E+00 -0.00000000000E+00 -0.33113807910E+03  0.33113807910E+03  0.00000000000E+00 0.  1.
         21    1    1    2  503  502  0.21792938251E+02 -0.89517511377E+00  0.39030267406E+03  0.39091164075E+03  0.00000000000E+00 0.  1.
         21    1    1    2  504  501 -0.21792938251E+02  0.89517511377E+00 -0.33047409970E+03  0.33119309181E+03  0.00000000000E+00 0.  1.
</event>
<event>
 4    1  0.3099057E+006  0.7480033E+02  0.7546771E-02  0.1216462E+00
         21   -1    0    0  504  501  0.00000000000E+00  0.00000000000E+00  0.44420537454E+02  0.44420537454E+02  0.00000000000E+00 0.  1.
         21   -1    0    0  503  502 -0.00000000000E+00 -0.00000000000E+00 -0.17229532274E+03  0.17229532274E+03  0.00000000000E+00 0. -1.
         21    1    1    2  503  501 -0.55956329500E+02 -0.49638477590E+02 -0.12013177267E+03  0.14151583683E+03  0.00000000000E+00 0. -1.
         21    1    1    2  504  502  0.55956329500E+02  0.49638477590E+02 -0.77430126079E+01  0.75200023357E+02  0.00000000000E+00 0.  1.
</event>
<event>
 4    1  0.3099057E+006  0.2757163E+02  0.7546771E-02  0.1441949E+00
         21   -1    0    0  504  501  0.00000000000E+00  0.00000000000E+00  0.16686124600E+03  0.16686124600E+03  0.00000000000E+00 0.  1.
         21   -1    0    0  501  502 -0.00000000000E+00 -0.00000000000E+00 -0.63369588119E+01  0.63369588119E+01  0.00000000000E+00 0. -1.
         21    1    1    2  503  502  0.22191077206E+02 -0.16363099435E+02  0.34351002756E+02  0.44047546141E+02  0.00000000000E+00 0. -1.
         21    1    1    2  504  503 -0.22191077206E+02  0.16363099435E+02  0.12617328443E+03  0.12915065867E+03  0.00000000000E+00 0.  1.
</event>
<event>
 4    1  0.3099057E+006  0.3539439E+02  0.7546771E-02  0.1377812E+00
         21   -1    0    0  504  501  0.00000000000E+00  0.00000000000E+00  0.35038696884E+03  0.35038696884E+03  0.00000000000E+00 0.  1.
         21   -1    0    0  503  502 -0.00000000000E+00 -0.00000000000E+00 -0.36345269752E+02  0.36345269752E+02  0.00000000000E+00 0. -1.
         21    1    1    2  503  501 -0.33057281992E+02 -0.12648278449E+02 -0.26588162432E+02  0.44268422402E+02  0.00000000000E+00 0. -1.
         21    1    1    2  504  502  0.33057281992E+02  0.12648278449E+02  0.34062986152E+03  0.34246381619E+03  0.00000000000E+00 0.  1.
</event>
<event>
 4    1  0.3099057E+006  0.6470326E+02  0.7546771E-02  0.1244639E+00
         21   -1    0    0  503  501  0.00000000000E+00  0.00000000000E+00  0.15888454394E+03  0.15888454394E+03  0.00000000000E+00 0. -1.
         21   -1    0    0  504  502 -0.00000000000E+00 -0.00000000000E+00 -0.26529265624E+02  0.26529265624E+02  0.00000000000E+00 0.  1.
         21    1    1    2  503  502 -0.63140523946E+02 -0.14134579657E+02  0.73811175907E+02  0.98156007432E+02  0.00000000000E+00 0.  1.
         21    1    1    2  504  501  0.63140523946E+02  0.14134579657E+02  0.58544102413E+02  0.87257802136E+02  0.00000000000E+00 0. -1.
</event>
<event>
 4    1  0.3099057E+006  0.9556241E+02  0.7546771E-02  0.1171728E+00
         21   -1    0    0  504  501  0.00000000000E+00  0.00000000000E+00  0.52665578987E+02  0.52665578987E+02  0.00000000000E+00 0.  1.
         21   -1    0    0  501  502 -0.00000000000E+00 -0.00000000000E+00 -0.70698002172E+03  0.70698002172E+03  0.00000000000E+00 0.  1.
         21    1    1    2  503  502 -0.95561930000E+02 -0.30440858868E+00 -0.65712954964E+03  0.66404173072E+03  0.00000000000E+00 0.  1.
         21    1    1    2  504  503  0.95561930000E+02  0.30440858868E+00  0.28151069039E+01  0.95603869989E+02  0.00000000000E+00 0.  1.
</event>
<event>
 4    1  0.3099057E+006  0.2748927E+02  0.7546771E-02  0.1442754E+00
         21   -1    0    0  503  501  0.00000000000E+00  0.00000000000E+00  0.74947606104E+02  0.74947606104E+02  0.00000000000E+00 0.  1.
         21   -1    0    0  504  502 -0.00000000000E+00 -0.00000000000E+00 -0.58212342276E+02  0.58212342276E+02  0.00000000000E+00 0.  1.
         21    1    1    2  503  502 -0.95315431627E+01  0.25783904204E+02 -0.52172485216E+02  0.58971418880E+02  0.00000000000E+00 0.  1.
         21    1    1    2  504  501  0.95315431627E+01 -0.25783904204E+02  0.68907749044E+02  0.74188529500E+02  0.00000000000E+00 0.  1.
</event>
<event>
 4    1  0.3099057E+006  0.2314422E+02  0.7546771E-02  0.1490695E+00
         21   -1    0    0  502  501  0.00000000000E+00  0.00000000000E+00  0.66453221777E+02  0.66453221777E+02  0.00000000000E+00 0. -1.
         21   -1    0    0  504  502 -0.00000000000E+00 -0.00000000000E+00 -0.67642739946E+02  0.67642739946E+02  0.00000000000E+00 0. -1.
         21    1    1    2  503  501  0.53464795833E+01  0.22518215685E+02  0.62331663846E+02  0.66489782669E+02  0.00000000000E+00 0. -1.
         21    1    1    2  504  503 -0.53464795833E+01 -0.22518215685E+02 -0.63521182016E+02  0.67606179054E+02  0.00000000000E+00 0. -1.
</event>
<event>
 4    1  0.3099057E+006  0.2158993E+02  0.7546771E-02  0.1511006E+00
         21   -1    0    0  504  501  0.00000000000E+00  0.00000000000E+00  0.18755646299E+02  0.18755646299E+02  0.00000000000E+00 0. -1.
         21   -1    0    0  503  502 -0.00000000000E+00 -0.00000000000E+00 -0.33742792694E+02  0.33742792694E+02  0.00000000000E+00 0. -1.
         21    1    1    2  503  501 -0.86381567678E+01  0.19786542842E+02 -0.20967167990E+02  0.30095633628E+02  0.00000000000E+00 0. -1.
         21    1    1    2  504  502  0.86381567678E+01 -0.19786542842E+02  0.59800215950E+01  0.22402805365E+02  0.00000000000E+00 0. -1.
</event>
<event>
 4    1  0.3099057E+006  0.2252369E+02  0.7546771E-02  0.1498567E+00
         21   -1    0    0  502  501  0.00000000000E+00  0.00000000000E+00  0.35806196480E+02  0.35806196480E+02  0.00000000000E+00 0. -1.
         21   -1    0    0  504  502 -0.00000000000E+00 -0.00000000000E+00 -0.15951514552E+02  0.15951514552E+02  0.00000000000E+00 0. -1.
         21    1    1    2  503  501 -0.20027593696E+02  0.10305929613E+02  0.18579671716E+02  0.29197960468E+02  0.00000000000E+00 0. -1.
         21    1    1    2  504  503  0.20027593696E+02 -0.10305929613E+02  0.12750102118E+01  0.22559750563E+02  0.00000000000E+00 0. -1.
</event>
<event>
 4    1  0.3099057E+006  0.2907765E+02  0.7546771E-02  0.1427784E+00
         21   -1    0    0  503  501  0.00000000000E+00  0.00000000000E+00  0.23851452998E+02  0.23851452998E+02  0.00000000000E+00 0. -1.
         21   -1    0    0  501  502 -0.00000000000E+00 -0.00000000000E+00 -0.11588314367E+03  0.11588314367E+03  0.00000000000E+00 0. -1.
         21    1    1    2  503  504  0.29062577163E+02 -0.93623213460E+00  0.12192340491E+02  0.31530351863E+02  0.00000000000E+00 0. -1.
         21    1    1    2  504  502 -0.29062577163E+02  0.93623213460E+00 -0.10422403116E+03  0.10820424480E+03  0.00000000000E+00 0. -1.
</event>
<event>
 4    1  0.3099057E+006  0.3038417E+02  0.7546771E-02  0.1416287E+00
         21   -1    0    0  502  501  0.00000000000E+00  0.00000000000E+00  0.13925138795E+03  0.13925138795E+03  0.00000000000E+00 0.  1.
         21   -1    0    0  504  502 -0.00000000000E+00 -0.00000000000E+00 -0.35838318411E+02  0.35838318411E+02  0.00000000000E+00 0.  1.
         21    1    1    2  503  501 -0.22258791093E+02  0.20681977268E+02  0.13074020530E+03  0.13422443610E+03  0.00000000000E+00 0.  1.
         21    1    1    2  504  503  0.22258791093E+02 -0.20681977268E+02 -0.27327135760E+02  0.40865270261E+02  0.00000000000E+00 0.  1.
</event>
<event>
 4    1  0.3099057E+006  0.2259164E+02  0.7546771E-02  0.1497691E+00
         21   -1    0    0  503  501  0.00000000000E+00  0.00000000000E+00  0.21443709253E+01  0.21443709253E+01  0.00000000000E+00 0.  1.
         21   -1    0    0  504  502 -0.00000000000E+00 -0.00000000000E+00 -0.23804078135E+03  0.23804078135E+03  0.00000000000E+00 0.  1.
         21    1    1    2  503  502  0.16647314152E+02  0.15272494874E+02 -0.11658717425E+03  0.11875584772E+03  0.00000000000E+00 0.  1.
         21    1    1    2  504  501 -0.16647314152E+02 -0.15272494874E+02 -0.11930923618E+03  0.12142930456E+03  0.00000000000E+00 0.  1.
</event>
<event>
 4    1  0.3099057E+006  0.2693541E+02  0.7546771E-02  0.1448258E+00
         21   -1    0    0  503  501  0.00000000000E+00  0.00000000000E+00  0.23665427203E+03  0.23665427203E+03  0.00000000000E+00 0.  1.
         21   -1    0    0  504  502 -0.00000000000E+00 -0.00000000000E+00 -0.69107251823E+01  0.69107251823E+01  0.00000000000E+00 0.  1.
         21    1    1    2  503  502  0.24450718427E+02 -0.11299507156E+02  0.24032980947E+02  0.36098485657E+02  0.00000000000E+00 0.  1.
         21    1    1    2  504  501 -0.24450718427E+02  0.11299507156E+02  0.20571056590E+03  0.20746651156E+03  0.00000000000E+00 0.  1.
</event>
<event>
 4    1  0.3099057E+006  0.2381501E+02  0.7546771E-02  0.1482510E+00
         21   -1    0    0  503  501  0.00000000000E+00  0.00000000000E+00  0.28447701099E+03  0.28447701099E+03  0.00000000000E+00 0.  1.
         21   -1    0    0  504  502 -0.00000000000E+00 -0.00000000000E+00 -0.86261745943E+01  0.86261745943E+01  0.00000000000E+00 0. -1.
         21    1    1    2  503  502  0.21076466434E+02  0.11087701207E+02  0.94204098580E+01  0.25610518880E+02  0.00000000000E+00 0. -1.
         21    1    1    2  504  501 -0.21076466434E+02 -0.11087701207E+02  0.26643042653E+03  0.26749266670E+03  0.00000000000E+00 0.  1.
</event>
<event>
 4    1  0.3099057E+006  0.3288369E+02  0.7546771E-02  0.1396085E+00
         21   -1    0    0  504  501  0.00000000000E+00  0.00000000000E+00  0.15767910051E+03  0.15767910051E+03  0.00000000000E+00 0. -1.
         21   -1    0    0  503  502 -0.00000000000E+00 -0.00000000000E+00 -0.22687143242E+03  0.22687143242E+03  0.00000000000E+00 0.  1.
         21    1    1    2  503  501 -0.10182842869E+02 -0.31267343014E+02 -0.22394310024E+03  0.22634453643E+03  0.00000000000E+00 0.  1.
         21    1    1    2  504  502  0.10182842869E+02  0.31267343014E+02  0.15475076833E+03  0.15820599650E+03  0.00000000000E+00 0. -1.
</event>
<event>
 4    1  0.3099057E+006  0.2909120E+02  0.7546771E-02  0.1427662E+00
         21   -1    0    0  502  501  0.00000000000E+00  0.00000000000E+00  0.28954080509E+03  0.28954080509E+03  0.00000000000E+00 0. -1.
         21   -1    0    0  504  502 -0.00000000000E+00 -0.00000000000E+00 -0.62965759205E+01  0.62965759205E+01  0.00000000000E+00 0. -1.
         21    1    1    2  503  501  0.93482619636E+01  0.27548284918E+02  0.24989574361E+03  0.25158334738E+03  0.00000000000E+00 0. -1.
         21    1    1    2  504  503 -0.93482619636E+01 -0.27548284918E+02  0.33348485562E+02  0.44254033635E+02  0.00000000000E+00 0. -1.
</event>
<event>
 4    1  0.3099057E+006  0.2240003E+02  0.7546771E-02  0.1500173E+00
         21   -1    0    0  502  501  0.00000000000E+00  0.00000000000E+00  0.46218340303E+03  0.46218340303E+03  0.00000000000E+00 0.  1.
         21   -1    0    0  503  502 -0.00000000000E+00 -0.00000000000E+00 -0.26075766525E+01  0.26075766525E+01  0.00000000000E+00 0. -1.
         21    1    1    2  503  504  0.22393114771E+02  0.55649563129E+00  0.52242880575E+02  0.56842588323E+02  0.00000000000E+00 0. -1.
         21    1    1    2  504  501 -0.22393114771E+02 -0.55649563129E+00  0.40733294580E+03  0.40794839136E+03  0.00000000000E+00 0.  1.
</event>
<event>
 4    1  0.3099057E+006  0.4411132E+02  0.7546771E-02  0.1325943E+00
         21   -1    0    0  503  501  0.00000000000E+00  0.00000000000E+00  0.60949055899E+03  0.60949055899E+03  0.00000000000E+00 0. -1.
         21   -1    0    0  501  502 -0.00000000000E+00 -0.00000000000E+00 -0.83682068369E+01  0.83682068369E+01  0.00000000000E+00 0. -1.
         21    1    1    2  503  504 -0.35244863051E+02 -0.26525610401E+02  0.54351692271E+03  0.54530400113E+03  0.00000000000E+00 0. -1.
         21    1    1    2  504  502  0.35244863051E+02  0.26525610401E+02  0.57605429444E+02  0.72554764695E+02  0.00000000000E+00 0. -1.
</event>
<event>
 4    1  0.3099057E+006  0.2374797E+02  0.7546771E-02  0.1483314E+00
         21   -1    0    0  503  501  0.00000000000E+00  0.00000000000E+00  0.59477067132E+01  0.59477067132E+01  0.00000000000E+00 0.  1.
         21   -1    0    0  504  502 -0.00000000000E+00 -0.00000000000E+00 -0.51948143713E+03  0.51948143713E+03  0.00000000000E+00 0.  1.
         21    1    1    2  503  502  0.22777425438E+02 -0.67197438020E+01 -0.19235934719E+02  0.30561204997E+02  0.00000000000E+00 0.  1.
         21    1    1    2  504  501 -0.22777425438E+02  0.67197438020E+01 -0.49429779570E+03  0.49486793885E+03  0.00000000000E+00 0.  1.
</event>
<event>
 4    1  0.3099057E+006  0.2926304E+02  0.7546771E-02  0.1426110E+00
         21   -1    0    0  504  501  0.00000000000E+00  0.00000000000E+00  0.10348005386E+02  0.10348005386E+02  0.00000000000E+00 0.  1.
         21   -1    0    0  503  502 -0.00000000000E+00 -0.00000000000E+00 -0.27246453012E+03  0.27246453012E+03  0.00000000000E+00 0. -1.
         21    1    1    2  503  501 -0.19894841055E+02 -0.21459753260E+02 -0.24905251234E+03  0.25076578637E+03  0.00000000000E+00 0. -1.
         21    1    1    2  504  502  0.19894841055E+02  0.21459753260E+02 -0.13064012399E+02  0.32046749141E+02  0.00000000000E+00 0.  1.
</event>
<event>
 4    1  0.3099057E+006  0.2181505E+02  0.7546771E-02  0.1507939E+00
         21   -1    0    0  503  501  0.00000000000E+00  0.00000000000E+00  0.17397057568E+03  0.17397057568E+03  0.00000000000E+00 0.  1.
         21   -1    0    0  501  502 -0.00000000000E+00 -0.00000000000E+00 -0.40564736718E+01  0.40564736718E+01  0.00000000000E+00 0.  1.
         21    1    1    2  503  504  0.21412192280E+02  0.41730406912E+01  0.13575299044E+03  0.13749462048E+03  0.00000000000E+00 0.  1.
         21    1    1    2  504  502 -0.21412192280E+02 -0.41730406912E+01  0.34161111567E+02  0.40532428873E+02  0.00000000000E+00 0.  1.
</event>
<event>
 4    1  0.3099057E+006  0.2052594E+02  0.7546771E-02  0.1526142E+00
         21   -1    0    0  504  501  0.00000000000E+00  0.00000000000E+00  0.23320714603E+03  0.23320714603E+03  0.00000000000E+00 0.  1.
         21   -1    0    0  501  502 -0.00000000000E+00 -0.00000000000E+00 -0.73743547227E+02  0.73743547227E+02  0.00000000000E+00 0. -1.
         21    1    1    2  503  502  0.20514998714E+02  0.66996258959E+00 -0.71851929693E+02  0.74726259259E+02  0.00000000000E+00 0. -1.
         21    1    1    2  504  503 -0.20514998714E+02 -0.66996258959E+00  0.23131552850E+03  0.23222443400E+03  0.00000000000E+00 0.  1.
</event>
<event>
 4    1  0.3099057E+006  0.3257465E+02  0.7546771E-02  0.1398466E+00
         21   -1    0    0  504  501  0.00000000000E+00  0.00000000000E+00  0.15216341836E+02  0.15216341836E+02  0.00000000000E+00 0. -1.
         21   -1    0    0  503  502 -0.00000000000E+00 -0.00000000000E+00 -0.85558324072E+02  0.85558324072E+02  0.00000000000E+00 0.  1.
         21    1    1    2  503  501 -0.22482187217E+02  0.23572423039E+02 -0.56840170281E+02  0.65512692111E+02  0.00000000000E+00 0.  1.
         21    1    1    2  504  502  0.22482187217E+02 -0.23572423039E+02 -0.13501811955E+02  0.35261973797E+02  0.00000000000E+00 0. -1.
</event>
<event>
 4    1  0.3099057E+006  0.3073689E+02  0.7546771E-02  0.1413299E+00
         21   -1    0    0  504  501  0.00000000000E+00  0.00000000000E+00  0.96712095166E+01  0.96712095166E+01  0.00000000000E+00 0.  1.
         21   -1    0    0  503  502 -0.00000000000E+00 -0.00000000000E+00 -0.11125053564E+03  0.11125053564E+03  0.00000000000E+00 0.  1.
         21    1    1    2  503  501  0.29678850293E+02  0.79951239849E+01 -0.71900332299E+02  0.78194718153E+02  0.00000000000E+00 0.  1.
         21    1    1    2  504  502 -0.29678850293E+02 -0.79951239849E+01 -0.29678993828E+02  0.42727027007E+02  0.00000000000E+00 0.  1.
</event>
<event>
 4    1  0.3099057E+006  0.2676735E+02  0.7546771E-02  0.1449959E+00
         21   -1    0    0  503  501  0.00000000000E+00  0.00000000000E+00  0.28805363980E+01  0.28805363980E+01  0.00000000000E+00 0.  1.
         21   -1    0    0  504  502 -0.00000000000E+00 -0.00000000000E+00 -0.27493595938E+03  0.27493595938E+03  0.00000000000E+00 0.  1.
         21    1    1    2  503  502  0.39633263668E+01  0.26472311778E+02 -0.17890900784E+03  0.18090031601E+03  0.00000000000E+00 0.  1.
         21    1    1    2  504  501 -0.39633263668E+01 -0.26472311778E+02 -0.93146415147E+02  0.96916179771E+02  0.00000000000E+00 0.  1.
</event>
<event>
 4    1  0.3099057E+006  0.2564266E+02  0.7546771E-02  0.1461741E+00
         21   -1    0    0  504  501  0.00000000000E+00  0.00000000000E+00  0.25663541997E+03  0.25663541997E+03  0.00000000000E+00 0. -1.
         21   -1    0    0  503  502 -0.00000000000E+00 -0.00000000000E+00 -0.14201548996E+03  0.14201548996E+03  0.00000000000E+00 0. -1.
         21    1    1    2  503  501 -0.36206465209E+01  0.25385759636E+02 -0.14020923632E+03  0.14253482319E+03  0.00000000000E+00 0. -1.
         21    1    1    2  504  502  0.36206465209E+01 -0.25385759636E+02  0.25482916633E+03  0.25611608674E+03  0.00000000000E+00 0. -1.
</event>
<event>
 4    1  0.3099057E+006  0.2170044E+02  0.7546771E-02  0.1509495E+00
         21   -1    0    0  503  501  0.00000000000E+00  0.00000000000E+00  0.13844793138E+03  0.13844793138E+03  0.00000000000E+00 0.  1.
         21   -1    0    0  504  502 -0.00000000000E+00 -0.00000000000E+00 -0.41567372400E+01  0.41567372400E+01  0.00000000000E+00 0.  1.
         21    1    1    2  503  502 -0.94389498487E+01  0.19540095609E+02  0.36749777089E+02  0.42678510128E+02  0.00000000000E+00 0.  1.
         21    1    1    2  504  501  0.94389498487E+01 -0.19540095609E+02  0.97541417054E+02  0.99926158495E+02  0.00000000000E+00 0.  1.
</event>
<event>
 4    1  0.3099057E+006  0.3265978E+02  0.7546771E-02  0.1397807E+00
         21   -1    0    0  504  501  0.00000000000E+00  0.00000000000E+00  0.63201264973E+01  0.63201264973E+01  0.00000000000E+00 0. -1.
         21   -1    0    0  503  502 -0.00000000000E+00 -0.00000000000E+00 -0.66535572530E+03  0.66535572530E+03  0.00000000000E+00 0.  1.
         21    1    1    2  503  501 -0.26201596169E+02 -0.19497117231E+02 -0.39383567014E+02  0.51163723212E+02  0.00000000000E+00 0. -1.
         21    1    1    2  504  502  0.26201596169E+02  0.19497117231E+02 -0.61965203179E+03  0.62051212858E+03  0.00000000000E+00 0.  1.
</event>
<event>
 4    1  0.3099057E+006  0.2330342E+02  0.7546771E-02  0.1488723E+00
         21   -1    0    0  503  501  0.00000000000E+00  0.00000000000E+00  0.82977978351E+02  0.82977978351E+02  0.00000000000E+00 0.  1.
         21   -1    0    0  504  502 -0.00000000000E+00 -0.00000000000E+00 -0.10706281199E+02  0.10706281199E+02  0.00000000000E+00 0.  1.
         21    1    1    2  503  502 -0.21424107827E+02  0.91682534320E+01  0.65340834584E+02  0.69371996737E+02  0.00000000000E+00 0.  1.
         21    1    1    2  504  501  0.21424107827E+02 -0.91682534320E+01  0.69308625680E+01  0.24312262813E+02  0.00000000000E+00 0.  1.
</event>
<event>
 4    1  0.3099057E+006  0.2752765E+02  0.7546771E-02  0.1442379E+00
         21   -1    0    0  504  501  0.00000000000E+00  0.00000000000E+00  0.19807746314E+03  0.19807746314E+03  0.00000000000E+00 0.  1.
         21   -1    0    0  503  502 -0.00000000000E+00 -0.00000000000E+00 -0.38437060432E+01  0.38437060432E+01  0.00000000000E+00 0.  1.
         21    1    1    2  503  501 -0.89427544092E+01 -0.26034569302E+02  0.10403987157E+03  0.10762000991E+03  0.00000000000E+00 0.  1.
         21    1    1    2  504  502  0.89427544092E+01  0.26034569302E+02  0.90193885519E+02  0.94301159272E+02  0.00000000000E+00 0.  1.
</event>
<event>
 4    1  0.3099057E+006  0.2600286E+02  0.7546771E-02  0.1457890E+00
         21   -1    0    0  504  501  0.00000000000E+00  0.00000000000E+00  0.42134863006E+03  0.42134863006E+03  0.00000000000E+00 0. -1.
         21   -1    0    0  501  502 -0.00000000000E+00 -0.00000000000E+00 -0.99918381339E+01  0.99918381339E+01  0.00000000000E+00 0. -1.
         21    1    1    2  503  502  0.24839723877E+02 -0.76900479944E+01  0.80843914287E+01  0.27230609711E+02  0.00000000000E+00 0. -1.
         21    1    1    2  504  503 -0.24839723877E+02  0.76900479944E+01  0.40327240050E+03  0.40410985849E+03  0.00000000000E+00 0. -1.
</event>
<event>
 4    1  0.3099057E+006  0.2316487E+02  0.7546771E-02  0.1490438E+00
         21   -1    0    0  504  501  0.00000000000E+00  0.00000000000E+00  0.11961190822E+03  0.11961190822E+03  0.00000000000E+00 0. -1.
         21   -1    0    0  503  502 -0.00000000000E+00 -0.00000000000E+00 -0.53566665286E+01  0.53566665286E+01  0.00000000000E+00 0. -1.
         21    1    1    2  503  501  0.52050826905E+01 -0.22572514963E+02  0.82314948197E+02  0.85512350068E+02  0.00000000000E+00 0. -1.
         21    1    1    2  504  502 -0.52050826905E+01  0.22572514963E+02  0.31940293498E+02  0.39456224684E+02  0.00000000000E+00 0. -1.
</event>
<event>
 4    1  0.3099057E+006  0.2074292E+02  0.7546771E-02  0.1522967E+00
         21   -1    0    0  502  501  0.00000000000E+00  0.00000000000E+00  0.32985719403E+01  0.32985719403E+01  0.00000000000E+00 0.  1.
         21   -1    0    0  503  502 -0.00000000000E+00 -0.00000000000E+00 -0.43110207816E+03  0.43110207816E+03  0.00000000000E+00 0.  1.
         21    1    1    2  503  504 -0.13452616955E+02 -0.15789104036E+02 -0.39528997624E+03  0.39583384648E+03  0.00000000000E+00 0.  1.
         21    1    1    2  504  501  0.13452616955E+02  0.15789104036E+02 -0.32513529981E+02  0.38566803614E+02  0.00000000000E+00 0.  1.
</event>
<event>
 4    1  0.3099057E+006  0.2290271E+02  0.7546771E-02  0.1493723E+00
         21   -1    0    0  503  501  0.00000000000E+00  0.00000000000E+00  0.71263685743E+02  0.71263685743E+02  0.00000000000E+00 0.  1.
         21   -1    0    0  504  502 -0.00000000000E+00 -0.00000000000E+00 -0.20658207763E+02  0.20658207763E+02  0.00000000000E+00 0.  1.
         21    1    1    2  503  502  0.22832927398E+02  0.17864606540E+01 -0.11572222464E+02  0.25660287371E+02  0.00000000000E+00 0.  1.
         21    1    1    2  504  501 -0.22832927398E+02 -0.17864606540E+01  0.62177700443E+02  0.66261606135E+02  0.00000000000E+00 0.  1.
</event>
<event>
 4    1  0.3099057E+006  0.4013414E+02  0.7546771E-02  0.1347702E+00
         21   -1    0    0  502  501  0.00000000000E+00  0.00000000000E+00  0.41763623004E+02  0.41763623004E+02  0.00000000000E+00 0. -1.
         21   -1    0    0  503  502 -0.00000000000E+00 -0.00000000000E+00 -0.38779309353E+02  0.38779309353E+02  0.00000000000E+00 0. -1.
         21    1    1    2  503  504 -0.31514309441E+02 -0.24851515359E+02 -0.14788799533E+01  0.40161381962E+02  0.00000000000E+00 0. -1.
         21    1    1    2  504  501  0.31514309441E+02  0.24851515359E+02  0.44631936039E+01  0.40381550395E+02  0.00000000000E+00 0. -1.
</event>
<event>
 4    1  0.3099057E+006  0.2476702E+02  0.7546771E-02  0.1471427E+00
         21   -1    0    0  504  501  0.00000000000E+00  0.00000000000E+00  0.80697937031E+02  0.80697937031E+02  0.00000000000E+00 0.  1.
         21   -1    0    0  503  502 -0.00000000000E+00 -0.00000000000E+00 -0.76632991003E+01  0.76632991003E+01  0.00000000000E+00 0.  1.
         21    1    1    2  503  501 -0.17150762322E+02 -0.17867752422E+02  0.32541832311E+02  0.40894694950E+02  0.00000000000E+00 0.  1.
         21    1    1    2  504  502  0.17150762322E+02  0.17867752422E+02  0.40492805619E+02  0.47466541181E+02  0.00000000000E+00 0.  1.
</event>
<event>
 4    1  0.3099057E+006  0.2600357E+02  0.7546771E-02  0.1457883E+00
         21   -1    0    0  504  501  0.00000000000E+00  0.00000000000E+00  0.80162549188E+02  0.80162549188E+02  0.00000000000E+00 0.  1.
         21   -1    0    0  503  502 -0.00000000000E+00 -0.00000000000E+00 -0.98002321822E+02  0.98002321822E+02  0.00000000000E+00 0.  1.
         21    1    1    2  503  501 -0.25603316390E+02 -0.45448866619E+01 -0.94082356365E+02  0.97609812950E+02  0.00000000000E+00 0.  1.
         21    1    1    2  504  502  0.25603316390E+02  0.45448866619E+01  0.76242583732E+02  0.80555058060E+02  0.00000000000E+00 0.  1.
</event>
<event>
 4    1  0.3099057E+006  0.6421010E+02  0.7546771E-02  0.1246162E+00
         21   -1    0    0  503  501  0.00000000000E+00  0.00000000000E+00  0.60442330481E+03  0.60442330481E+03  0.00000000000E+00 0. -1.
         21   -1    0    0  504  502 -0.00000000000E+00 -0.00000000000E+00 -0.57803687119E+02  0.57803687119E+02  0.00000000000E+00 0. -1.
         21    1    1    2  503  502  0.59982790399E+02  0.22912916876E+02  0.58427323043E+03  0.58779090219E+03  0.00000000000E+00 0. -1.
         21    1    1    2  504  501 -0.59982790399E+02 -0.22912916876E+02 -0.37653612734E+02  0.74436089740E+02  0.00000000000E+00 0. -1.
</event>
<event>
 4    1  0.3099057E+006  0.2290434E+02  0.7546771E-02  0.1493703E+00
         21   -1    0    0  502  501  0.00000000000E+00  0.00000000000E+00  0.28218829352E+02  0.28218829352E+02  0.00000000000E+00 0.  1.
         21   -1    0    0  504  502 -0.00000000000E+00 -0.00000000000E+00 -0.24355230243E+03  0.24355230243E+03  0.00000000000E+00 0.  1.
         21    1    1    2  503  501  0.15251661355E+02  0.17087883503E+02  0.22929711991E+02  0.32409576188E+02  0.00000000000E+00 0.  1.
         21    1    1    2  504  503 -0.15251661355E+02 -0.17087883503E+02 -0.23826318507E+03  0.23936155559E+03  0.00000000000E+00 0.  1.
</event>
<event>
 4    1  0.3099057E+006  0.2413293E+02  0.7546771E-02  0.1478742E+00
         21   -1    0    0  503  501  0.00000000000E+00  0.00000000000E+00  0.13107959202E+03  0.13107959202E+03  0.00000000000E+00 0. -1.
         21   -1    0    0  501  502 -0.00000000000E+00 -0.00000000000E+00 -0.29421001844E+02  0.29421001844E+02  0.00000000000E+00 0.  1.
         21    1    1    2  503  504  0.13599008674E+02  0.19936536793E+02  0.12477210942E+03  0.12708453024E+03  0.00000000000E+00 0. -1.
         21    1    1    2  504  502 -0.13599008674E+02 -0.19936536793E+02 -0.23113519246E+02  0.33416063625E+02  0.00000000000E+00 0.  1.
</event>
<event>
 4    1  0.3099057E+006  0.2049770E+02  0.7546771E-02  0.1526559E+00
         21   -1    0    0  504  501  0.00000000000E+00  0.00000000000E+00  0.13737279824E+02  0.13737279824E+02  0.00000000000E+00 0. -1.
         21   -1    0    0  503  502 -0.00000000000E+00 -0.00000000000E+00 -0.46680783347E+02  0.46680783347E+02  0.00000000000E+00 0. -1.
         21    1    1    2  503  501 -0.92455587112E+01 -0.18294131344E+02 -0.34210497814E+02  0.39881245695E+02  0.00000000000E+00 0. -1.
         21    1    1    2  504  502  0.92455587112E+01  0.18294131344E+02  0.12669942910E+01  0.20536817476E+02  0.00000000000E+00 0. -1.
</event>
<event>
 4    1  0.3099057E+006  0.3104670E+02  0.7546771E-02  0.1410713E+00
         21   -1    0    0  503  501  0.00000000000E+00  0.00000000000E+00  0.31747113905E+03  0.31747113905E+03  0.00000000000E+00 0.  1.
         21   -1    0    0  501  502 -0.00000000000E+00 -0.00000000000E+00 -0.32978744288E+01  0.32978744288E+01  0.00000000000E+00 0.  1.
         21    1    1    2  503  504  0.24365490967E+02  0.19241106107E+02  0.20226685492E+03  0.20463572004E+03  0.00000000000E+00 0.  1.
         21    1    1    2  504  502 -0.24365490967E+02 -0.19241106107E+02  0.11190640970E+03  0.11613329344E+03  0.00000000000E+00 0.  1.
</event>
<event>
 4    1  0.3099057E+006  0.2736881E+02  0.7546771E-02  0.1443938E+00
         21   -1    0    0  504  501  0.00000000000E+00  0.00000000000E+00  0.83863213688E+02  0.83863213688E+02  0.00000000000E+00 0. -1.
         21   -1    0    0  503  502 -0.00000000000E+00 -0.00000000000E+00 -0.53526470800E+02  0.53526470800E+02  0.00000000000E+00 0. -1.
         21    1    1    2  503  501  0.70974040511E+01  0.26432531477E+02 -0.47533595790E+02  0.54849745608E+02  0.00000000000E+00 0. -1.
         21    1    1    2  504  502 -0.70974040511E+01 -0.26432531477E+02  0.77870338678E+02  0.82539938880E+02  0.00000000000E+00 0. -1.
</event>
<event>
 4    1  0.3099057E+006  0.2312825E+02  0.7546771E-02  0.1490894E+00
         21   -1    0    0  502  501  0.00000000000E+00  0.00000000000E+00  0.18343920135E+04  0.18343920135E+04  0.00000000000E+00 0.  1.
         21   -1    0    0  503  502 -0.00000000000E+00 -0.00000000000E+00 -0.90759169238E+00  0.90759169238E+00  0.00000000000E+00 0.  1.
         21    1    1    2  503  504 -0.14562196527E+02  0.17968262108E+02  0.16074926305E+03  0.16240456146E+03  0.00000000000E+00 0.  1.
         21    1    1    2  504  501  0.14562196527E+02 -0.17968262108E+02  0.16727351587E+04  0.16728950437E+04  0.00000000000E+00 0.  1.
</event>
<event>
 4    1  0.3099057E+006  0.2393659E+02  0.7546771E-02  0.1481061E+00
         21   -1    0    0  503  501  0.00000000000E+00  0.00000000000E+00  0.10905010125E+02  0.10905010125E+02  0.00000000000E+00 0. -1.
         21   -1    0    0  504  502 -0.00000000000E+00 -0.00000000000E+00 -0.54925549677E+02  0.54925549677E+02  0.00000000000E+00 0. -1.
         21    1    1    2  503  502  0.23828983359E+02 -0.22671348385E+01 -0.28868495405E+02  0.37501338313E+02  0.00000000000E+00 0. -1.
         21    1    1    2  504  501 -0.23828983359E+02  0.22671348385E+01 -0.15152044147E+02  0.28329221488E+02  0.00000000000E+00 0. -1.
</event>
<event>
 4    1  0.3099057E+006  0.3518524E+02  0.7546771E-02  0.1379266E+00
         21   -1    0    0  504  501  0.00000000000E+00  0.00000000000E+00  0.75143385979E+03  0.75143385979E+03  0.00000000000E+00 0. -1.
         21   -1    0    0  503  502 -0.00000000000E+00 -0.00000000000E+00 -0.48962165957E+02  0.48962165957E+02  0.00000000000E+00 0.  1.
         21    1    1    2  503  501  0.12011024473E+02 -0.33071685007E+02  0.74464315394E+03  0.74547396183E+03  0.00000000000E+00 0. -1.
         21    1    1    2  504  502 -0.12011024473E+02  0.33071685007E+02 -0.42171460102E+02  0.54922063920E+02  0.00000000000E+00 0.  1.
</event>
<event>
 4    1  0.3099057E+006  0.5762337E+02  0.7546771E-02  0.1268129E+00
         21   -1    0    0  503  501  0.00000000000E+00  0.00000000000E+00  0.25823847366E+02  0.25823847366E+02  0.00000000000E+00 0.  1.
         21   -1    0    0  504  502 -0.00000000000E+00 -0.00000000000E+00 -0.29774635851E+03  0.29774635851E+03  0.00000000000E+00 0.  1.
         21    1    1    2  503  502 -0.33485009154E+02  0.46895703911E+02 -0.14014239569E+02  0.59303050462E+02  0.00000000000E+00 0.  1.
         21    1    1    2  504  501  0.33485009154E+02 -0.46895703911E+02 -0.25790827158E+03  0.26426715542E+03  0.00000000000E+00 0.  1.
</event>
<event>
 4    1  0.3099057E+006  0.2130820E+02  0.7546771E-02  0.1514910E+00
         21   -1    0    0  504  501  0.00000000000E+00  0.00000000000E+00  0.93067464489E+02  0.93067464489E+02  0.00000000000E+00 0.  1.
         21   -1    0    0  503  502 -0.00000000000E+00 -0.00000000000E+00 -0.33901259041E+02  0.33901259041E+02  0.00000000000E+00 0. -1.
         21    1    1    2  503  501 -0.12353752932E+02  0.17361575393E+02 -0.29156012066E+02  0.36112498546E+02  0.00000000000E+00 0. -1.
         21    1    1    2  504  502  0.12353752932E+02 -0.17361575393E+02  0.88322217515E+02  0.90856224984E+02  0.00000000000E+00 0.  1.
</event>
<event>
 4    1  0.3099057E+006  0.2414127E+02  0.7546771E-02  0.1478644E+00
         21   -1    0    0  503  501  0.00000000000E+00  0.00000000000E+00  0.28884790022E+03  0.28884790022E+03  0.00000000000E+00 0. -1.
         21   -1    0    0  504  502 -0.00000000000E+00 -0.00000000000E+00 -0.34062582176E+01  0.34062582176E+01  0.00000000000E+00 0. -1.
         21    1    1    2  503  502  0.76768985740E+01 -0.22888117324E+02  0.49421572172E+02  0.55002658866E+02  0.00000000000E+00 0. -1.
         21    1    1    2  504  501 -0.76768985740E+01  0.22888117324E+02  0.23602006983E+03  0.23725149957E+03  0.00000000000E+00 0. -1.
</event>
<event>
 4    1  0.3099057E+006  0.4927892E+02  0.7546771E-02  0.1301329E+00
         21   -1    0    0  502  501  0.00000000000E+00  0.00000000000E+00  0.12563384451E+03  0.12563384451E+03  0.00000000000E+00 0. -1.
         21   -1    0    0  503  502 -0.00000000000E+00 -0.00000000000E+00 -0.30973729711E+02  0.30973729711E+02  0.00000000000E+00 0. -1.
         21    1    1    2  503  504 -0.41209580774E+02 -0.27021893184E+02 -0.68145925831E+00  0.49283634662E+02  0.00000000000E+00 0. -1.
         21    1    1    2  504  501  0.41209580774E+02  0.27021893184E+02  0.95341574059E+02  0.10732393956E+03  0.00000000000E+00 0. -1.
</event>
<event>
 4    1  0.3099057E+006  0.2639610E+02  0.7546771E-02  0.1453770E+00
         21   -1    0    0  504  501  0.00000000000E+00  0.00000000000E+00  0.41155147332E+03  0.41155147332E+03  0.00000000000E+00 0. -1.
         21   -1    0    0  503  502 -0.00000000000E+00 -0.00000000000E+00 -0.24685319615E+01  0.24685319615E+01  0.00000000000E+00 0. -1.
         21    1    1    2  503  501 -0.54093607037E+01  0.25835887683E+02  0.88510636227E+02  0.92362800959E+02  0.00000000000E+00 0. -1.
         21    1    1    2  504  502  0.54093607037E+01 -0.25835887683E+02  0.32057230513E+03  0.32165720432E+03  0.00000000000E+00 0. -1.
</event>
<event>
 4    1  0.3099057E+006  0.2239385E+02  0.7546771E-02  0.1500253E+00
         21   -1    0    0  503  501  0.00000000000E+00  0.00000000000E+00  0.84260361414E+02  0.84260361414E+02  0.00000000000E+00 0. -1.
         21   -1    0    0  504  502 -0.00000000000E+00 -0.00000000000E+00 -0.12166633821E+02  0.12166633821E+02  0.00000000000E+00 0. -1.
         21    1    1    2  503  502  0.99242976910E+01 -0.20074684820E+02  0.15876882631E+01  0.22450064795E+02  0.00000000000E+00 0. -1.
         21    1    1    2  504  501 -0.99242976910E+01  0.20074684820E+02  0.70506039330E+02  0.73976930440E+02  0.00000000000E+00 0. -1.
</event>
<event>
 4    1  0.3099057E+006  0.2106116E+02  0.7546771E-02  0.1518393E+00
         21   -1    0    0  502  501  0.00000000000E+00  0.00000000000E+00  0.97984172862E+02  0.97984172862E+02  0.00000000000E+00 0.  1.
         21   -1    0    0  503  502 -0.00000000000E+00 -0.00000000000E+00 -0.45270124817E+01  0.45270124817E+01  0.00000000000E+00 0.  1.
         21    1    1    2  503  504 -0.19479737259E+02 -0.80070202302E+01  0.46594466311E+02  0.51133324041E+02  0.00000000000E+00 0.  1.
         21    1    1    2  504  501  0.19479737259E+02  0.80070202302E+01  0.46862694069E+02  0.51377861303E+02  0.00000000000E+00 0.  1.
</event>
<event>
 4    1  0.3099057E+006  0.2122530E+02  0.7546771E-02  0.1516072E+00
         21   -1    0    0  503  501  0.00000000000E+00  0.00000000000E+00  0.41625558536E+03  0.41625558536E+03  0.00000000000E+00 0. -1.
         21   -1    0    0  504  502 -0.00000000000E+00 -0.00000000000E+00 -0.25813555675E+01  0.25813555675E+01  0.00000000000E+00 0.  1.
         21    1    1    2  503  502 -0.19172301497E+02 -0.91069366532E+01  0.36642500282E+03  0.36703922969E+03  0.00000000000E+00 0. -1.
         21    1    1    2  504  501  0.19172301497E+02  0.91069366532E+01  0.47249226970E+02  0.51797711235E+02  0.00000000000E+00 0.  1.
</event>
<event>
 4    1  0.3099057E+006  0.3501933E+02  0.7546771E-02  0.1380427E+00
         21   -1    0    0  503  501  0.00000000000E+00  0.00000000000E+00  0.90751284845E+02  0.90751284845E+02  0.00000000000E+00 0.  1.
         21   -1    0    0  504  502 -0.00000000000E+00 -0.00000000000E+00 -0.40589439648E+02  0.40589439648E+02  0.00000000000E+00 0.  1.
         21    1    1    2  503  502  0.23218513050E+02 -0.26215533908E+02 -0.28555015761E+02  0.45185644750E+02  0.00000000000E+00 0.  1.
         21    1    1    2  504  501 -0.23218513050E+02  0.26215533908E+02  0.78716860958E+02  0.86155079743E+02  0.00000000000E+00 0.  1.
</event>
<event>
 4    1  0.3099057E+006  0.2839413E+02  0.7546771E-02  0.1434085E+00
         21   -1    0    0  503  501  0.00000000000E+00  0.00000000000E+00  0.69939045236E+01  0.69939045236E+01  0.00000000000E+00 0. -1.
         21   -1    0    0  501  502 -0.00000000000E+00 -0.00000000000E+00 -0.25771660553E+03  0.25771660553E+03  0.00000000000E+00 0. -1.
         21    1    1    2  503  504 -0.10495967086E+02 -0.26382973794E+02 -0.26963075832E+02  0.39156533166E+02  0.00000000000E+00 0. -1.
         21    1    1    2  504  502  0.10495967086E+02  0.26382973794E+02 -0.22375962518E+03  0.22555397689E+03  0.00000000000E+00 0. -1.
</event>
<event>
 4    1  0.3099057E+006  0.2391874E+02  0.7546771E-02  0.1481273E+00
         21   -1    0    0  502  501  0.00000000000E+00  0.00000000000E+00  0.21699414160E+02  0.21699414160E+02  0.00000000000E+00 0.  1.
         21   -1    0    0  503  502 -0.00000000000E+00 -0.00000000000E+00 -0.41153858126E+02  0.41153858126E+02  0.00000000000E+00 0.  1.
         21    1    1    2  503  504  0.23918041253E+02 -0.18224684017E+00 -0.28566287684E+02  0.37257733470E+02  0.00000000000E+00 0.  1.
         21    1    1    2  504  501 -0.23918041253E+02  0.18224684017E+00  0.91118437176E+01  0.25595538815E+02  0.00000000000E+00 0.  1.
</event>
<event>
 4    1  0.3099057E+006  0.2943319E+02  0.7546771E-02  0.1424587E+00
         21   -1    0    0  504  501  0.00000000000E+00  0.00000000000E+00  0.30161596963E+02  0.30161596963E+02  0.00000000000E+00 0.  1.
         21   -1    0    0  501  502 -0.00000000000E+00 -0.00000000000E+00 -0.44432881290E+03  0.44432881290E+03  0.00000000000E+00 0. -1.
         21    1    1    2  503  502  0.23238436376E+01  0.29341307626E+02 -0.43653269841E+03  0.43752383862E+03  0.00000000000E+00 0. -1.
         21    1    1    2  504  503 -0.23238436376E+01 -0.29341307626E+02  0.22365482477E+02  0.36966571235E+02  0.00000000000E+00 0.  1.
</event>
<event>
 4    1  0.3099057E+006  0.3105692E+02  0.7546771E-02  0.1410629E+00
         21   -1    0    0  504  501  0.00000000000E+00  0.00000000000E+00  0.10870308325E+03  0.10870308325E+03  0.00000000000E+00 0.  1.
         21   -1    0    0  503  502 -0.00000000000E+00 -0.00000000000E+00 -0.24686954063E+02  0.24686954063E+02  0.00000000000E+00 0.  1.
         21    1    1    2  503  501  0.16112228361E+02  0.26550488376E+02  0.95388072351E+02  0.10031658229E+03  0.00000000000E+00 0.  1.
         21    1    1    2  504  502 -0.16112228361E+02 -0.26550488376E+02 -0.11371943163E+02  0.33073455022E+02  0.00000000000E+00 0.  1.
</event>
<event>
 4    1  0.3099057E+006  0.2001584E+02  0.7546771E-02  0.1533794E+00
         21   -1    0    0  504  501  0.00000000000E+00  0.00000000000E+00  0.57949008215E+01  0.57949008215E+01  0.00000000000E+00 0. -1.
         21   -1    0    0  503  502 -0.00000000000E+00 -0.00000000000E+00 -0.13034409521E+03  0.13034409521E+03  0.00000000000E+00 0. -1.
         21    1    1    2  503  501 -0.14764606158E+02 -0.13514452681E+02 -0.10892041040E+03  0.11074425415E+03  0.00000000000E+00 0. -1.
         21    1    1    2  504  502  0.14764606158E+02  0.13514452681E+02 -0.15628783997E+02  0.25394741887E+02  0.00000000000E+00 0. -1.
</event>
<event>
 4    1  0.3099057E+006  0.2003062E+02  0.7546771E-02  0.1533568E+00
         21   -1    0    0  503  501  0.00000000000E+00  0.00000000000E+00  0.30405023726E+02  0.30405023726E+02  0.00000000000E+00 0.  1.
         21   -1    0    0  501  502 -0.00000000000E+00 -0.00000000000E+00 -0.33052306671E+02  0.33052306671E+02  0.00000000000E+00 0.  1.
         21    1    1    2  503  504  0.84138560766E+01  0.18177813452E+02  0.23268691228E+02  0.30702733875E+02  0.00000000000E+00 0.  1.
         21    1    1    2  504  502 -0.84138560766E+01 -0.18177813452E+02 -0.25915974173E+02  0.32754596521E+02  0.00000000000E+00 0.  1.
</event>
<event>
 4    1  0.3099057E+006  0.2033777E+02  0.7546771E-02  0.1528933E+00
         21   -1    0    0  503  501  0.00000000000E+00  0.00000000000E+00  0.27827496412E+03  0.27827496412E+03  0.00000000000E+00 0.  1.
         21   -1    0    0  504  502 -0.00000000000E+00 -0.00000000000E+00 -0.17418800852E+01  0.17418800852E+01  0.00000000000E+00 0.  1.
         21    1    1    2  503  502 -0.89789745569E+00  0.20317937145E+02  0.84645767776E+02  0.87054757435E+02  0.00000000000E+00 0.  1.
         21    1    1    2  504  501  0.89789745569E+00 -0.20317937145E+02  0.19188731626E+03  0.19296208677E+03  0.00000000000E+00 0.  1.
</event>
<event>
 4    1  0.3099057E+006  0.2395708E+02  0.7546771E-02  0.1480817E+00
         21   -1    0    0  503  501  0.00000000000E+00  0.00000000000E+00  0.16047237446E+03  0.16047237446E+03  0.00000000000E+00 0.  1.
         21   -1    0    0  501  502 -0.00000000000E+00 -0.00000000000E+00 -0.55039929861E+01  0.55039929861E+01  0.00000000000E+00 0.  1.
         21    1    1    2  503  504 -0.15923576476E+02  0.17899198052E+02  0.12659365655E+03  0.12884058156E+03  0.00000000000E+00 0.  1.
         21    1    1    2  504  502  0.15923576476E+02 -0.17899198052E+02  0.28374724926E+02  0.37135785885E+02  0.00000000000E+00 0.  1.
</event>
<event>
 4    1  0.3099057E+006  0.2144127E+02  0.7546771E-02  0.1513057E+00
         21   -1    0    0  504  501  0.00000000000E+00  0.00000000000E+00  0.78989071399E+03  0.78989071399E+03  0.00000000000E+00 0.  1.
         21   -1    0    0  503  502 -0.00000000000E+00 -0.00000000000E+00 -0.59683098384E+00  0.59683098384E+00  0.00000000000E+00 0.  1.
         21    1    1    2  503  501 -0.19783792948E+02  0.82661652087E+01  0.45692141210E+03  0.45742420660E+03  0.00000000000E+00 0.  1.
         21    1    1    2  504  502  0.19783792948E+02 -0.82661652087E+01  0.33237247091E+03  0.33306333837E+03  0.00000000000E+00 0.  1.
</event>
<event>
 4    1  0.3099057E+006  0.3455689E+02  0.7546771E-02  0.1383705E+00
         21   -1    0    0  504  501  0.00000000000E+00  0.00000000000E+00  0.11791998653E+03  0.11791998653E+03  0.00000000000E+00 0. -1.
         21   -1    0    0  503  502 -0.00000000000E+00 -0.00000000000E+00 -0.49676669562E+02  0.49676669562E+02  0.00000000000E+00 0. -1.
         21    1    1    2  503  501 -0.15138228991E+02  0.31064652530E+02 -0.40648863366E+02  0.53352682283E+02  0.00000000000E+00 0. -1.
         21    1    1    2  504  502  0.15138228991E+02 -0.31064652530E+02  0.10889218033E+03  0.11424397381E+03  0.00000000000E+00 0. -1.
</event>
<event>
 4    1  0.3099057E+006  0.2257167E+02  0.7546771E-02  0.1497948E+00
         21   -1    0    0  504  501  0.00000000000E+00  0.00000000000E+00  0.59297740463E+01  0.59297740463E+01  0.00000000000E+00 0. -1.
         21   -1    0    0  503  502 -0.00000000000E+00 -0.00000000000E+00 -0.42332659007E+03  0.42332659007E+03  0.00000000000E+00 0.  1.
         21    1    1    2  503  501  0.18715276930E+01 -0.22493947888E+02 -0.17084781152E+02  0.28308480258E+02  0.00000000000E+00 0. -1.
         21    1    1    2  504  502 -0.18715276930E+01  0.22493947888E+02 -0.40031203487E+03  0.40094788386E+03  0.00000000000E+00 0.  1.
</event>
<event>
 4    1  0.3099057E+006  0.2170455E+02  0.7546771E-02  0.1509439E+00
         21   -1    0    0  503  501  0.00000000000E+00  0.00000000000E+00  0.44809479820E+03  0.44809479820E+03  0.00000000000E+00 0.  1.
         21   -1    0    0  504  502 -0.00000000000E+00 -0.00000000000E+00 -0.13663836995E+01  0.13663836995E+01  0.00000000000E+00 0.  1.
         21    1    1    2  503  502  0.16895606231E+02  0.13624462131E+02  0.11544953547E+03  0.11747205080E+03  0.00000000000E+00 0.  1.
         21    1    1    2  504  501 -0.16895606231E+02 -0.13624462131E+02  0.33127887903E+03  0.33198913110E+03  0.00000000000E+00 0.  1.
</event>
<event>
 4    1  0.3099057E+006  0.2023719E+02  0.7546771E-02  0.1530440E+00
         21   -1    0    0  504  501  0.00000000000E+00  0.00000000000E+00  0.72741815762E+01  0.72741815762E+01  0.00000000000E+00 0.  1.
         21   -1    0    0  503  502 -0.00000000000E+00 -0.00000000000E+00 -0.61571290804E+02  0.61571290804E+02  0.00000000000E+00 0. -1.
         21    1    1    2  503  501 -0.78399321453E+01 -0.18656887066E+02 -0.17077568517E+02  0.26479941795E+02  0.00000000000E+00 0.  1.
         21    1    1    2  504  502  0.78399321453E+01  0.18656887066E+02 -0.37219540710E+02  0.42365530585E+02  0.00000000000E+00 0. -1.
</event>
<event>
 4    1  0.3099057E+006  0.2191950E+02  0.7546771E-02  0.1506531E+00
         21   -1    0    0  503  501  0.00000000000E+00  0.00000000000E+00  0.19865256495E+01  0.19865256495E+01  0.00000000000E+00 0. -1.
         21   -1    0    0  504  502 -0.00000000000E+00 -0.00000000000E+00 -0.48483293238E+03  0.48483293238E+03  0.00000000000E+00 0. -1.
         21    1    1    2  503  502  0.20597307830E+02 -0.74976977161E+01 -0.69109718903E+02  0.72502536560E+02  0.00000000000E+00 0. -1.
         21    1    1    2  504  501 -0.20597307830E+02  0.74976977161E+01 -0.41373668783E+03  0.41431692147E+03  0.00000000000E+00 0. -1.
</event>
<event>
 4    1  0.3099057E+006  0.2175657E+02  0.7546771E-02  0.1508731E+00
         21   -1    0    0  502  501  0.00000000000E+00  0.00000000000E+00  0.22393225822E+02  0.22393225822E+02  0.00000000000E+00 0.  1.
         21   -1    0    0  503  502 -0.00000000000E+00 -0.00000000000E+00 -0.21622918748E+02  0.21622918748E+02  0.00000000000E+00 0.  1.
         21    1    1    2  503  504 -0.51314053225E+01  0.21142775917E+02 -0.29105914585E+01  0.21950394910E+02  0.00000000000E+00 0.  1.
         21    1    1    2  504  501  0.51314053225E+01 -0.21142775917E+02  0.36808985318E+01  0.22065749660E+02  0.00000000000E+00 0.  1.
</event>
<event>
 4    1  0.3099057E+006  0.2680310E+02  0.7546771E-02  0.1449596E+00
         21   -1    0    0  503  501  0.00000000000E+00  0.00000000000E+00  0.50470738246E+03  0.50470738246E+03  0.00000000000E+00 0.  1.
         21   -1    0    0  504  502 -0.00000000000E+00 -0.00000000000E+00 -0.25649651637E+01  0.25649651637E+01  0.00000000000E+00 0.  1.
         21    1    1    2  503  502 -0.24097521526E+02  0.11735222039E+02  0.81864046657E+02  0.86140165516E+02  0.00000000000E+00 0.  1.
         21    1    1    2  504  501  0.24097521526E+02 -0.11735222039E+02  0.42027837064E+03  0.42113218211E+03  0.00000000000E+00 0.  1.
</event>
<event>
 4    1  0.3099057E+006  0.2241544E+02  0.7546771E-02  0.1499972E+00
         21   -1    0    0  502  501  0.00000000000E+00  0.00000000000E+00  0.87166477791E+02  0.87166477791E+02  0.00000000000E+00 0.  1.
         21   -1    0    0  503  502 -0.00000000000E+00 -0.00000000000E+00 -0.10338412307E+02  0.10338412307E+02  0.00000000000E+00 0. -1.
         21    1    1    2  503  504  0.16733681949E+02  0.14914285452E+02  0.59857599201E+01  0.23200891016E+02  0.00000000000E+00 0. -1.
         21    1    1    2  504  501 -0.16733681949E+02 -0.14914285452E+02  0.70842305564E+02  0.74303999083E+02  0.00000000000E+00 0.  1.
</event>
<event>
 4    1  0.3099057E+006  0.2179039E+02  0.7546771E-02  0.1508273E+00
         21   -1    0    0  504  501  0.00000000000E+00  0.00000000000E+00  0.56530788492E+03  0.56530788492E+03  0.00000000000E+00 0. -1.
         21   -1    0    0  503  502 -0.00000000000E+00 -0.00000000000E+00 -0.66193951451E+02  0.66193951451E+02  0.00000000000E+00 0. -1.
         21    1    1    2  503  501 -0.12779420974E+02 -0.17649578308E+02  0.56329821061E+03  0.56371951828E+03  0.00000000000E+00 0. -1.
         21    1    1    2  504  502  0.12779420974E+02  0.17649578308E+02 -0.64184277136E+02  0.67782318095E+02  0.00000000000E+00 0. -1.
</event>
<event>
 4    1  0.3099057E+006  0.3216061E+02  0.7546771E-02  0.1401705E+00
         21   -1    0    0  504  501  0.00000000000E+00  0.00000000000E+00  0.23744037654E+03  0.23744037654E+03  0.00000000000E+00 0.  1.
         21   -1    0    0  503  502 -0.00000000000E+00 -0.00000000000E+00 -0.49622884738E+01  0.49622884738E+01  0.00000000000E+00 0.  1.
         21    1    1    2  503  501  0.27658495202E+02  0.16410734376E+02  0.15860182931E+03  0.16182967842E+03  0.00000000000E+00 0.  1.
         21    1    1    2  504  502 -0.27658495202E+02 -0.16410734376E+02  0.73876258759E+02  0.80572986589E+02  0.00000000000E+00 0.  1.
</event>
<event>
 4    1  0.3099057E+006  0.2210821E+02  0.7546771E-02  0.1504011E+00
         21   -1    0    0  504  501  0.00000000000E+00  0.00000000000E+00  0.96976118042E+02  0.96976118042E+02  0.00000000000E+00 0. -1.
         21   -1    0    0  503  502 -0.00000000000E+00 -0.00000000000E+00 -0.84198818417E+02  0.84198818417E+02  0.00000000000E+00 0. -1.
         21    1    1    2  503  501 -0.65146592674E+01  0.21126575911E+02 -0.81445701270E+02  0.84392981050E+02  0.00000000000E+00 0. -1.
         21    1    1    2  504  502  0.65146592674E+01 -0.21126575911E+02  0.94223000895E+02  0.96781955409E+02  0.00000000000E+00 0. -1.
</event>
<event>
 4    1  0.3099057E+006  0.2361674E+02  0.7546771E-02  0.1484896E+00
         21   -1    0    0  502  501  0.00000000000E+00  0.00000000000E+00  0.78304532159E+02  0.78304532159E+02  0.00000000000E+00 0.  1.
         21   -1    0    0  503  502 -0.00000000000E+00 -0.00000000000E+00 -0.61974522745E+02  0.61974522745E+02  0.00000000000E+00 0.  1.
         21    1    1    2  503  504 -0.20992184121E+02  0.10820281046E+02 -0.57820909328E+02  0.62458048573E+02  0.00000000000E+00 0.  1.
         21    1    1    2  504  501  0.20992184121E+02 -0.10820281046E+02  0.74150918742E+02  0.77821006331E+02  0.00000000000E+00 0.  1.
</event>
<event>
 4    1  0.3099057E+006  0.2483943E+02  0.7546771E-02  0.1470608E+00
         21   -1    0    0  503  501  0.00000000000E+00  0.00000000000E+00  0.28063299550E+03  0.28063299550E+03  0.00000000000E+00 0. -1.
         21   -1    0    0  504  502 -0.00000000000E+00 -0.00000000000E+00 -0.23399712004E+01  0.23399712004E+01  0.00000000000E+00 0. -1.
         21    1    1    2  503  502 -0.11862078962E+02  0.21824037284E+02  0.17392431317E+03  0.17568911245E+03  0.00000000000E+00 0. -1.
         21    1    1    2  504  501  0.11862078962E+02 -0.21824037284E+02  0.10436871113E+03  0.10728385425E+03  0.00000000000E+00 0. -1.
</event>
<event>
 4    1  0.3099057E+006  0.2179366E+02  0.7546771E-02  0.1508228E+00
         21   -1    0    0  502  501  0.00000000000E+00  0.00000000000E+00  0.50238811367E+02  0.50238811367E+02  0.00000000000E+00 0.  1.
         21   -1    0    0  503  502 -0.00000000000E+00 -0.00000000000E+00 -0.18668064578E+02  0.18668064578E+02  0.00000000000E+00 0. -1.
         21    1    1    2  503  504  0.20509097951E+02 -0.73715950741E+01 -0.84196678735E+01  0.23363525415E+02  0.00000000000E+00 0. -1.
         21    1    1    2  504  501 -0.20509097951E+02  0.73715950741E+01  0.39990414662E+02  0.45543350531E+02  0.00000000000E+00 0.  1.
</event>
<event>
 4    1  0.3099057E+006  0.2513924E+02  0.7546771E-02  0.1467252E+00
         21   -1    0    0  502  501  0.00000000000E+00  0.00000000000E+00  0.16739263260E+02  0.16739263260E+02  0.00000000000E+00 0.  1.
         21   -1    0    0  504  502 -0.00000000000E+00 -0.00000000000E+00 -0.10427442277E+03  0.10427442277E+03  0.00000000000E+00 0. -1.
         21    1    1    2  503  501  0.21205425047E+02 -0.13502264131E+02  0.45596302655E+01  0.25549391700E+02  0.00000000000E+00 0.  1.
         21    1    1    2  504  503 -0.21205425047E+02  0.13502264131E+02 -0.92094789773E+02  0.95464294327E+02  0.00000000000E+00 0. -1.
</event>
<event>
 4    1  0.3099057E+006  0.2726353E+02  0.7546771E-02  0.1444979E+00
         21   -1    0    0  502  501  0.00000000000E+00  0.00000000000E+00  0.48120304018E+01  0.48120304018E+01  0.00000000000E+00 0.  1.
         21   -1    0    0  504  502 -0.00000000000E+00 -0.00000000000E+00 -0.70694812921E+03  0.70694812921E+03  0.00000000000E+00 0.  1.
         21    1    1    2  503  501 -0.13342899194E+02 -0.23775346950E+02 -0.36460880918E+02  0.45526870295E+02  0.00000000000E+00 0.  1.
         21    1    1    2  504  503  0.13342899194E+02  0.23775346950E+02 -0.66567521789E+03  0.66623328932E+03  0.00000000000E+00 0.  1.
</event>
<event>
 4    1  0.3099057E+006  0.2406814E+02  0.7546771E-02  0.1479504E+00
         21   -1    0    0  504  501  0.00000000000E+00  0.00000000000E+00  0.46589915250E+02  0.46589915250E+02  0.00000000000E+00 0.  1.
         21   -1    0    0  503  502 -0.00000000000E+00 -0.00000000000E+00 -0.45367553348E+02  0.45367553348E+02  0.00000000000E+00 0.  1.
         21    1    1    2  503  501 -0.10055760969E+02  0.21866803391E+02  0.39785997033E+02  0.46499472890E+02  0.00000000000E+00 0.  1.
         21    1    1    2  504  502  0.10055760969E+02 -0.21866803391E+02 -0.38563635131E+02  0.45457995707E+02  0.00000000000E+00 0.  1.
</event>
<event>
 4    1  0.3099057E+006  0.2123807E+02  0.7546771E-02  0.1515893E+00
         21   -1    0    0  503  501  0.00000000000E+00  0.00000000000E+00  0.11969844504E+02  0.11969844504E+02  0.00000000000E+00 0. -1.
         21   -1    0    0  504  502 -0.00000000000E+00 -0.00000000000E+00 -0.44922948978E+02  0.44922948978E+02  0.00000000000E+00 0. -1.
         21    1    1    2  503  502 -0.10006745300E+02 -0.18732872137E+02 -0.27896691803E+02  0.35061101859E+02  0.00000000000E+00 0. -1.
         21    1    1    2  504  501  0.10006745300E+02  0.18732872137E+02 -0.50564126699E+01  0.21831691622E+02  0.00000000000E+00 0. -1.
</event>
<event>
 4    1  0.3099057E+006  0.2385446E+02  0.7546771E-02  0.1482039E+00
         21   -1    0    0  502  501  0.00000000000E+00  0.00000000000E+00  0.19055139686E+02  0.19055139686E+02  0.00000000000E+00 0. -1.
         21   -1    0    0  503  502 -0.00000000000E+00 -0.00000000000E+00 -0.38256545868E+02  0.38256545868E+02  0.00000000000E+00 0. -1.
         21    1    1    2  503  504 -0.20411953034E+02 -0.12344535802E+02 -0.23023537625E+02  0.33152958775E+02  0.00000000000E+00 0. -1.
         21    1    1    2  504  501  0.20411953034E+02  0.12344535802E+02  0.38221314427E+01  0.24158726779E+02  0.00000000000E+00 0. -1.
</event>
<event>
 4    1  0.3099057E+006  0.2330865E+02  0.7546771E-02  0.1488658E+00
         21   -1    0    0  503  501  0.00000000000E+00  0.00000000000E+00  0.77908210987E+02  0.77908210987E+02  0.00000000000E+00 0. -1.
         21   -1    0    0  501  502 -0.00000000000E+00 -0.00000000000E+00 -0.99071443853E+02  0.99071443853E+02  0.00000000000E+00 0.  1.
         21    1    1    2  503  504 -0.23246744247E+02  0.16976998804E+01  0.74737049720E+02  0.78287418554E+02  0.00000000000E+00 0. -1.
         21    1    1    2  504  502  0.23246744247E+02 -0.16976998804E+01 -0.95900282586E+02  0.98692236286E+02  0.00000000000E+00 0.  1.
</event>
<event>
 4    1  0.3099057E+006  0.2244848E+02  0.7546771E-02  0.1499542E+00
         21   -1    0    0  504  501  0.00000000000E+00  0.00000000000E+00  0.17176785814E+03  0.17176785814E+03  0.00000000000E+00 0.  1.
         21   -1    0    0  503  502 -0.00000000000E+00 -0.00000000000E+00 -0.21396518844E+02  0.21396518844E+02  0.00000000000E+00 0. -1.
         21    1    1    2  503  501  0.80239950711E+01 -0.20965439147E+02 -0.14531011747E+02  0.26741062768E+02  0.00000000000E+00 0. -1.
         21    1    1    2  504  502 -0.80239950711E+01  0.20965439147E+02  0.16490235105E+03  0.16642331422E+03  0.00000000000E+00 0.  1.
</event>
<event>
 4    1  0.3099057E+006  0.2696171E+02  0.7546771E-02  0.1447993E+00
         21   -1    0    0  503  501  0.00000000000E+00  0.00000000000E+00  0.21653747544E+03  0.21653747544E+03  0.00000000000E+00 0.  1.
         21   -1    0    0  504  502 -0.00000000000E+00 -0.00000000000E+00 -0.16252899189E+02  0.16252899189E+02  0.00000000000E+00 0.  1.
         21    1    1    2  503  502  0.68733710466E+01 -0.26070880735E+02  0.20382206108E+03  0.20559758421E+03  0.00000000000E+00 0.  1.
         21    1    1    2  504  501 -0.68733710466E+01  0.26070880735E+02 -0.35374848246E+01  0.27192790419E+02  0.00000000000E+00 0.  1.
</event>
<event>
 4    1  0.3099057E+006  0.2035190E+02  0.7546771E-02  0.1528723E+00
         21   -1    0    0  503  501  0.00000000000E+00  0.00000000000E+00  0.42014074196E+01  0.42014074196E+01  0.00000000000E+00 0.  1.
         21   -1    0    0  504  502 -0.00000000000E+00 -0.00000000000E+00 -0.11003058869E+03  0.11003058869E+03  0.00000000000E+00 0. -1.
         21    1    1    2  503  502 -0.16145724035E+02  0.12390132534E+02 -0.71335110508E+02  0.74181519127E+02  0.00000000000E+00 0. -1.
         21    1    1    2  504  501  0.16145724035E+02 -0.12390132534E+02 -0.34494070767E+02  0.40050476987E+02  0.00000000000E+00 0.  1.
</event>
<event>
 4    1  0.3099057E+006  0.2037216E+02  0.7546771E-02  0.1528421E+00
         21   -1    0    0  504  501  0.00000000000E+00  0.00000000000E+00  0.44656952948E+03  0.44656952948E+03  0.00000000000E+00 0. -1.
         21   -1    0    0  503  502 -0.00000000000E+00 -0.00000000000E+00 -0.15325715730E+01  0.15325715730E+01  0.00000000000E+00 0.  1.
         21    1    1    2  503  501  0.14813167187E+02 -0.13985530810E+02  0.36308131736E+03  0.36365239998E+03  0.00000000000E+00 0. -1.
         21    1    1    2  504  502 -0.14813167187E+02  0.13985530810E+02  0.81955640549E+02  0.84449701077E+02  0.00000000000E+00 0.  1.
</event>
<event>
 4    1  0.3099057E+006  0.2512171E+02  0.7546771E-02  0.1467446E+00
         21   -1    0    0  502  501  0.00000000000E+00  0.00000000000E+00  0.32138422240E+03  0.32138422240E+03  0.00000000000E+00 0. -1.
         21   -1    0    0  503  502 -0.00000000000E+00 -0.00000000000E+00 -0.24986436765E+01  0.24986436765E+01  0.00000000000E+00 0. -1.
         21    1    1    2  503  504 -0.12090372868E+02  0.22020968320E+02  0.84511636474E+02  0.88166415723E+02  0.00000000000E+00 0. -1.
         21    1    1    2  504  501  0.12090372868E+02 -0.22020968320E+02  0.23437394225E+03  0.23571645035E+03  0.00000000000E+00 0. -1.
</event>
<event>
 4    1  0.3099057E+006  0.2143935E+02  0.7546771E-02  0.1513084E+00
         21   -1    0    0  503  501  0.00000000000E+00  0.00000000000E+00  0.98132281977E+02  0.98132281977E+02  0.00000000000E+00 0.  1.
         21   -1    0    0  504  502 -0.00000000000E+00 -0.00000000000E+00 -0.95725943680E+01  0.95725943680E+01  0.00000000000E+00 0.  1.
         21    1    1    2  503  502 -0.20959120396E+02 -0.45123235138E+01  0.57954032707E+01  0.22208838113E+02  0.00000000000E+00 0.  1.
         21    1    1    2  504  501  0.20959120396E+02  0.45123235138E+01  0.82764284338E+02  0.85496038231E+02  0.00000000000E+00 0.  1.
</event>
<event>
 4    1  0.3099057E+006  0.2955101E+02  0.7546771E-02  0.1423539E+00
         21   -1    0    0  502  501  0.00000000000E+00  0.00000000000E+00  0.45126935862E+02  0.45126935862E+02  0.00000000000E+00 0.  1.
         21   -1    0    0  503  502 -0.00000000000E+00 -0.00000000000E+00 -0.27543511774E+03  0.27543511774E+03  0.00000000000E+00 0.  1.
         21    1    1    2  503  504 -0.16672890802E+01  0.29503939455E+02 -0.26970215756E+03  0.27131626580E+03  0.00000000000E+00 0.  1.
         21    1    1    2  504  501  0.16672890802E+01 -0.29503939455E+02  0.39393975680E+02  0.49245787801E+02  0.00000000000E+00 0.  1.
</event>
<event>
 4    1  0.3099057E+006  0.2492583E+02  0.7546771E-02  0.1469635E+00
         21   -1    0    0  503  501  0.00000000000E+00  0.00000000000E+00  0.51408521521E+01  0.51408521521E+01  0.00000000000E+00 0. -1.
         21   -1    0    0  504  502 -0.00000000000E+00 -0.00000000000E+00 -0.12607768169E+03  0.12607768169E+03  0.00000000000E+00 0. -1.
         21    1    1    2  503  502  0.20820784168E+02 -0.13703725160E+02 -0.47114847248E+02  0.53302025926E+02  0.00000000000E+00 0. -1.
         21    1    1    2  504  501 -0.20820784168E+02  0.13703725160E+02 -0.73821982292E+02  0.77916507918E+02  0.00000000000E+00 0. -1.
</event>
<event>
 4    1  0.3099057E+006  0.2268696E+02  0.7546771E-02  0.1496467E+00
         21   -1    0    0  503  501  0.00000000000E+00  0.00000000000E+00  0.15500387695E+02  0.15500387695E+02  0.00000000000E+00 0. -1.
         21   -1    0    0  504  502 -0.00000000000E+00 -0.00000000000E+00 -0.34217021226E+03  0.34217021226E+03  0.00000000000E+00 0.  1.
         21    1    1    2  503  502  0.13736553924E+02 -0.18055620959E+02  0.66015516930E+01  0.23627925145E+02  0.00000000000E+00 0. -1.
         21    1    1    2  504  501 -0.13736553924E+02  0.18055620959E+02 -0.33327137626E+03  0.33404267481E+03  0.00000000000E+00 0.  1.
</event>
<event>
 4    1  0.3099057E+006  0.3811634E+02  0.7546771E-02  0.1359892E+00
         21   -1    0    0  504  501  0.00000000000E+00  0.00000000000E+00  0.31827708741E+02  0.31827708741E+02  0.00000000000E+00 0. -1.
         21   -1    0    0  503  502 -0.00000000000E+00 -0.00000000000E+00 -0.73718771754E+02  0.73718771754E+02  0.00000000000E+00 0.  1.
         21    1    1    2  503  501 -0.36056006051E+02 -0.12362040599E+02  0.11619813982E+02  0.39848158014E+02  0.00000000000E+00 0. -1.
         21    1    1    2  504  502  0.36056006051E+02  0.12362040599E+02 -0.53510876995E+02  0.65698322482E+02  0.00000000000E+00 0.  1.
</event>
<event>
 4    1  0.3099057E+006  0.2425722E+02  0.7546771E-02  0.1477287E+00
         21   -1    0    0  503  501  0.00000000000E+00  0.00000000000E+00  0.17425274432E+03  0.17425274432E+03  0.00000000000E+00 0. -1.
         21   -1    0    0  501  502 -0.00000000000E+00 -0.00000000000E+00 -0.45850211875E+01  0.45850211875E+01  0.00000000000E+00 0. -1.
         21    1    1    2  503  504 -0.11081964020E+02  0.21577830953E+02  0.13073631148E+03  0.13296764965E+03  0.00000000000E+00 0. -1.
         21    1    1    2  504  502  0.11081964020E+02 -0.21577830953E+02  0.38931411655E+02  0.45870115856E+02  0.00000000000E+00 0. -1.
</event>
<event>
 4    1  0.3099057E+006  0.2878586E+02  0.7546771E-02  0.1430449E+00
         21   -1    0    0  504  501  0.00000000000E+00  0.00000000000E+00  0.27950240012E+02  0.27950240012E+02  0.00000000000E+00 0. -1.
         21   -1    0    0  503  502 -0.00000000000E+00 -0.00000000000E+00 -0.54140985192E+02  0.54140985192E+02  0.00000000000E+00 0. -1.
         21    1    1    2  503  501  0.10705673731E+02 -0.26721042510E+02  0.14512835024E+02  0.32237368740E+02  0.00000000000E+00 0. -1.
         21    1    1    2  504  502 -0.10705673731E+02  0.26721042510E+02 -0.40703580204E+02  0.49853856464E+02  0.00000000000E+00 0. -1.
</event>
<event>
 4    1  0.3099057E+006  0.2403590E+02  0.7546771E-02  0.1479884E+00
         21   -1    0    0  504  501  0.00000000000E+00  0.00000000000E+00  0.57464948798E+03  0.57464948798E+03  0.00000000000E+00 0.  1.
         21   -1    0    0  503  502 -0.00000000000E+00 -0.00000000000E+00 -0.34177257710E+02  0.34177257710E+02  0.00000000000E+00 0. -1.
         21    1    1    2  503  501 -0.23913643632E+02 -0.24212091887E+01  0.57013878785E+03  0.57064521554E+03  0.00000000000E+00 0.  1.
         21    1    1    2  504  502  0.23913643632E+02  0.24212091887E+01 -0.29666557583E+02  0.38181530149E+02  0.00000000000E+00 0. -1.
</event>
<event>
 4    1  0.3099057E+006  0.4614954E+02  0.7546771E-02  0.1315789E+00
         21   -1    0    0  504  501  0.00000000000E+00  0.00000000000E+00  0.51317808323E+03  0.51317808323E+03  0.00000000000E+00 0. -1.
         21   -1    0    0  503  502 -0.00000000000E+00 -0.00000000000E+00 -0.42504173668E+02  0.42504173668E+02  0.00000000000E+00 0. -1.
         21    1    1    2  503  501 -0.43914135368E+02  0.14189036382E+02 -0.28591403800E+02  0.54288566106E+02  0.00000000000E+00 0. -1.
         21    1    1    2  504  502  0.43914135368E+02 -0.14189036382E+02  0.49926531337E+03  0.50139369080E+03  0.00000000000E+00 0. -1.
</event>
<event>
 4    1  0.3099057E+006  0.2178591E+02  0.7546771E-02  0.1508333E+00
         21   -1    0    0  502  501  0.00000000000E+00  0.00000000000E+00  0.10376168714E+01  0.10376168714E+01  0.00000000000E+00 0.  1.
         21   -1    0    0  503  502 -0.00000000000E+00 -0.00000000000E+00 -0.52230230968E+03  0.52230230968E+03  0.00000000000E+00 0. -1.
         21    1    1    2  503  504 -0.55787221659E+01  0.21059528340E+02 -0.35285948665E+03  0.35353138926E+03  0.00000000000E+00 0. -1.
         21    1    1    2  504  501  0.55787221659E+01 -0.21059528340E+02 -0.16840520616E+03  0.16980853730E+03  0.00000000000E+00 0.  1.
</event>
<event>
 4    1  0.3099057E+006  0.2051242E+02  0.7546771E-02  0.1526341E+00
         21   -1    0    0  503  501  0.00000000000E+00  0.00000000000E+00  0.37177794380E+02  0.37177794380E+02  0.00000000000E+00 0. -1.
         21   -1    0    0  504  502 -0.00000000000E+00 -0.00000000000E+00 -0.13314133687E+02  0.13314133687E+02  0.00000000000E+00 0. -1.
         21    1    1    2  503  502  0.19375115551E+02  0.67353025336E+01  0.21552824230E+01  0.20625339880E+02  0.00000000000E+00 0. -1.
         21    1    1    2  504  501 -0.19375115551E+02 -0.67353025336E+01  0.21708378269E+02  0.29866588187E+02  0.00000000000E+00 0. -1.
</event>
<event>
 4    1  0.3099057E+006  0.3313547E+02  0.7546771E-02  0.1394167E+00
         21   -1    0    0  502  501  0.00000000000E+00  0.00000000000E+00  0.63238987874E+02  0.63238987874E+02  0.00000000000E+00 0.  1.
         21   -1    0    0  504  502 -0.00000000000E+00 -0.00000000000E+00 -0.11199500579E+03  0.11199500579E+03  0.00000000000E+00 0.  1.
         21    1    1    2  503  501 -0.30051496296E+02  0.13959477779E+02  0.56161727084E+02  0.65208120955E+02  0.00000000000E+00 0.  1.
         21    1    1    2  504  503  0.30051496296E+02 -0.13959477779E+02 -0.10491774500E+03  0.11002587270E+03  0.00000000000E+00 0.  1.
</event>
<event>
 4    1  0.3099057E+006  0.2413046E+02  0.7546771E-02  0.1478771E+00
         21   -1    0    0  502  501  0.00000000000E+00  0.00000000000E+00  0.76139480942E+02  0.76139480942E+02  0.00000000000E+00 0.  1.
         21   -1    0    0  504  502 -0.00000000000E+00 -0.00000000000E+00 -0.89282658508E+01  0.89282658508E+01  0.00000000000E+00 0. -1.
         21    1    1    2  503  501 -0.98630129425E+01  0.22022711865E+02  0.49715082607E+02  0.55261815938E+02  0.00000000000E+00 0.  1.
         21    1    1    2  504  503  0.98630129425E+01 -0.22022711865E+02  0.17496132485E+02  0.29805930855E+02  0.00000000000E+00 0. -1.
</event>
<event>
 4    1  0.3099057E+006  0.2345153E+02  0.7546771E-02  0.1486905E+00
         21   -1    0    0  503  501  0.00000000000E+00  0.00000000000E+00  0.16699306568E+02  0.16699306568E+02  0.00000000000E+00 0.  1.
         21   -1    0    0  504  502 -0.00000000000E+00 -0.00000000000E+00 -0.63124176690E+02  0.63124176690E+02  0.00000000000E+00 0.  1.
         21    1    1    2  503  502 -0.22850627826E+02  0.52747751737E+01 -0.50814137289E+02  0.55964729907E+02  0.00000000000E+00 0.  1.
         21    1    1    2  504  501  0.22850627826E+02 -0.52747751737E+01  0.43892671662E+01  0.23858753351E+02  0.00000000000E+00 0.  1.
</event>
<event>
 4    1  0.3099057E+006  0.2183023E+02  0.7546771E-02  0.1507734E+00
         21   -1    0    0  502  501  0.00000000000E+00  0.00000000000E+00  0.51539021230E+02  0.51539021230E+02  0.00000000000E+00 0.  1.
         21   -1    0    0  504  502 -0.00000000000E+00 -0.00000000000E+00 -0.20081411266E+02  0.20081411266E+02  0.00000000000E+00 0.  1.
         21    1    1    2  503  501  0.61153375692E+01 -0.20956181946E+02  0.42032769072E+02  0.47363620968E+02  0.00000000000E+00 0.  1.
         21    1    1    2  504  503 -0.61153375692E+01  0.20956181946E+02 -0.10575159108E+02  0.24256811528E+02  0.00000000000E+00 0.  1.
</event>
<event>
 4    1  0.3099057E+006  0.2379400E+02  0.7546771E-02  0.1482762E+00
         21   -1    0    0  504  501  0.00000000000E+00  0.00000000000E+00  0.14534805359E+03  0.14534805359E+03  0.00000000000E+00 0.  1.
         21   -1    0    0  503  502 -0.00000000000E+00 -0.00000000000E+00 -0.64554905652E+02  0.64554905652E+02  0.00000000000E+00 0. -1.
         21    1    1    2  503  501 -0.21275769455E+02  0.10653445179E+02  0.14213247236E+03  0.14411035341E+03  0.00000000000E+00 0.  1.
         21    1    1    2  504  502  0.21275769455E+02 -0.10653445179E+02 -0.61339324429E+02  0.65792605827E+02  0.00000000000E+00 0. -1.
</event>
<event>
 4    1  0.3099057E+006  0.3203134E+02  0.7546771E-02  0.1402728E+00
         21   -1    0    0  502  501  0.00000000000E+00  0.00000000000E+00  0.33452876285E+02  0.33452876285E+02  0.00000000000E+00 0. -1.
         21   -1    0    0  503  502 -0.00000000000E+00 -0.00000000000E+00 -0.41143023150E+03  0.41143023150E+03  0.00000000000E+00 0.  1.
         21    1    1    2  503  504 -0.13757611667E+02 -0.28926366913E+02 -0.40297868525E+03  0.40424970915E+03  0.00000000000E+00 0.  1.
         21    1    1    2  504  501  0.13757611667E+02  0.28926366913E+02  0.25001330033E+02  0.40633398639E+02  0.00000000000E+00 0. -1.
</event>
<event>
 4    1  0.3099057E+006  0.2656006E+02  0.7546771E-02  0.1452078E+00
         21   -1    0    0  504  501  0.00000000000E+00  0.00000000000E+00  0.15315375492E+02  0.15315375492E+02  0.00000000000E+00 0. -1.
         21   -1    0    0  503  502 -0.00000000000E+00 -0.00000000000E+00 -0.70113413049E+02  0.70113413049E+02  0.00000000000E+00 0. -1.
         21    1    1    2  503  501  0.54222928403E+00 -0.26554526084E+02 -0.23808360071E+01  0.26666556738E+02  0.00000000000E+00 0. -1.
         21    1    1    2  504  502 -0.54222928403E+00  0.26554526084E+02 -0.52417201550E+02  0.58762231803E+02  0.00000000000E+00 0. -1.
</event>
<event>
 4    1  0.3099057E+006  0.2648544E+02  0.7546771E-02  0.1452847E+00
         21   -1    0    0  504  501  0.00000000000E+00  0.00000000000E+00  0.47201100354E+02  0.47201100354E+02  0.00000000000E+00 0.  1.
         21   -1    0    0  503  502 -0.00000000000E+00 -0.00000000000E+00 -0.15480135155E+02  0.15480135155E+02  0.00000000000E+00 0.  1.
         21    1    1    2  503  501 -0.28133542372E+01 -0.26335593392E+02  0.22125795539E+02  0.34511291915E+02  0.00000000000E+00 0.  1.
         21    1    1    2  504  502  0.28133542372E+01  0.26335593392E+02  0.95951696598E+01  0.28169943595E+02  0.00000000000E+00 0.  1.
</event>
<event>
 4    1  0.3099057E+006  0.2987327E+02  0.7546771E-02  0.1420701E+00
         21   -1    0    0  503  501  0.00000000000E+00  0.00000000000E+00  0.11646535882E+03  0.11646535882E+03  0.00000000000E+00 0. -1.
         21   -1    0    0  504  502 -0.00000000000E+00 -0.00000000000E+00 -0.77913036917E+01  0.77913036917E+01  0.00000000000E+00 0. -1.
         21    1    1    2  503  502 -0.91957102007E+01 -0.28422718351E+02  0.46347816680E+02  0.55141020262E+02  0.00000000000E+00 0. -1.
         21    1    1    2  504  501  0.91957102007E+01  0.28422718351E+02  0.62326238453E+02  0.69115642254E+02  0.00000000000E+00 0. -1.
</event>
<event>
 4    1  0.3099057E+006  0.2189141E+02  0.7546771E-02  0.1506909E+00
         21   -1    0    0  502  501  0.00000000000E+00  0.00000000000E+00  0.42585724501E+02  0.42585724501E+02  0.00000000000E+00 0. -1.
         21   -1    0    0  503  502 -0.00000000000E+00 -0.00000000000E+00 -0.75700856686E+03  0.75700856686E+03  0.00000000000E+00 0.  1.
         21    1    1    2  503  504 -0.20736100522E+02  0.70176747251E+01 -0.75402582805E+03  0.75434354441E+03  0.00000000000E+00 0.  1.
         21    1    1    2  504  501  0.20736100522E+02 -0.70176747251E+01  0.39602985696E+02  0.45250746949E+02  0.00000000000E+00 0. -1.
</event>
<event>
 4    1  0.3099057E+006  0.2182767E+02  0.7546771E-02  0.1507768E+00
         21   -1    0    0  503  501  0.00000000000E+00  0.00000000000E+00  0.95787869528E+01  0.95787869528E+01  0.00000000000E+00 0. -1.
         21   -1    0    0  504  502 -0.00000000000E+00 -0.00000000000E+00 -0.77024458876E+02  0.77024458876E+02  0.00000000000E+00 0.  1.
         21    1    1    2  503  502 -0.10393406004E+02  0.19194380709E+02 -0.79507868350E+01  0.23230629575E+02  0.00000000000E+00 0. -1.
         21    1    1    2  504  501  0.10393406004E+02 -0.19194380709E+02 -0.59494885089E+02  0.63372616254E+02  0.00000000000E+00 0.  1.
</event>
<event>
 4    1  0.3099057E+006  0.2598011E+02  0.7546771E-02  0.1458131E+00
         21   -1    0    0  504  501  0.00000000000E+00  0.00000000000E+00  0.22769679645E+02  0.22769679645E+02  0.00000000000E+00 0. -1.
         21   -1    0    0  501  502 -0.00000000000E+00 -0.00000000000E+00 -0.27393934884E+03  0.27393934884E+03  0.00000000000E+00 0.  1.
         21    1    1    2  503  502 -0.28903430966E+01  0.25818834995E+02 -0.26568281045E+03  0.26695003669E+03  0.00000000000E+00 0.  1.
         21    1    1    2  504  503  0.28903430966E+01 -0.25818834995E+02  0.14513141248E+02  0.29758991794E+02  0.00000000000E+00 0. -1.
</event>
<event>
 4    1  0.3099057E+006  0.2119198E+02  0.7546771E-02  0.1516541E+00
         21   -1    0    0  504  501  0.00000000000E+00  0.00000000000E+00  0.38690473730E+03  0.38690473730E+03  0.00000000000E+00 0.  1.
         21   -1    0    0  501  502 -0.00000000000E+00 -0.00000000000E+00 -0.13664250713E+01  0.13664250713E+01  0.00000000000E+00 0.  1.
         21    1    1    2  503  502 -0.19610050946E+02 -0.80340461535E+01  0.11745056647E+03  0.11934712213E+03  0.00000000000E+00 0.  1.
         21    1    1    2  504  503  0.19610050946E+02  0.80340461535E+01  0.26808774576E+03  0.26892404024E+03  0.00000000000E+00 0.  1.
</event>
<event>
 4    1  0.3099057E+006  0.2465973E+02  0.7546771E-02  0.1472646E+00
         21   -1    0    0  503  501  0.00000000000E+00  0.00000000000E+00  0.11177789391E+02  0.11177789391E+02  0.00000000000E+00 0. -1.
         21   -1    0    0  504  502 -0.00000000000E+00 -0.00000000000E+00 -0.57831377240E+02  0.57831377240E+02  0.00000000000E+00 0. -1.
         21    1    1    2  503  502  0.12478020500E+02 -0.21269721871E+02 -0.31728307279E+02  0.40184419205E+02  0.00000000000E+00 0. -1.
         21    1    1    2  504  501 -0.12478020500E+02  0.21269721871E+02 -0.14925280571E+02  0.28824747426E+02  0.00000000000E+00 0. -1.
</event>
<event>
 4    1  0.3099057E+006  0.2005615E+02  0.7546771E-02  0.1533179E+00
         21   -1    0    0  504  501  0.00000000000E+00  0.00000000000E+00  0.90850794785E+02  0.90850794785E+02  0.00000000000E+00 0. -1.
         21   -1    0    0  503  502 -0.00000000000E+00 -0.00000000000E+00 -0.61127782795E+02  0.61127782795E+02  0.00000000000E+00 0.  1.
         21    1    1    2  503  501  0.19080250050E+02 -0.61800788369E+01 -0.58324046818E+02  0.61676119800E+02  0.00000000000E+00 0.  1.
         21    1    1    2  504  502 -0.19080250050E+02  0.61800788369E+01  0.88047058808E+02  0.90302457780E+02  0.00000000000E+00 0. -1.
</event>
<event>
 4    1  0.3099057E+006  0.2173156E+02  0.7546771E-02  0.1509071E+00
         21   -1    0    0  503  501  0.00000000000E+00  0.00000000000E+00  0.58878110707E+02  0.58878110707E+02  0.00000000000E+00 0. -1.
         21   -1    0    0  504  502 -0.00000000000E+00 -0.00000000000E+00 -0.17014287256E+03  0.17014287256E+03  0.00000000000E+00 0. -1.
         21    1    1    2  503  502 -0.21920907217E+01  0.21620722094E+02  0.56146360284E+02  0.60205271022E+02  0.00000000000E+00 0. -1.
         21    1    1    2  504  501  0.21920907217E+01 -0.21620722094E+02 -0.16741112214E+03  0.16881571225E+03  0.00000000000E+00 0. -1.
</event>
<event>
 4    1  0.3099057E+006  0.2402352E+02  0.7546771E-02  0.1480031E+00
         21   -1    0    0  503  501  0.00000000000E+00  0.00000000000E+00  0.37788634547E+02  0.37788634547E+02  0.00000000000E+00 0.  1.
         21   -1    0    0  504  502 -0.00000000000E+00 -0.00000000000E+00 -0.10174827670E+03  0.10174827670E+03  0.00000000000E+00 0.  1.
         21    1    1    2  503  502 -0.18772212146E+02 -0.14991123552E+02 -0.96299316269E+02  0.99250632482E+02  0.00000000000E+00 0.  1.
         21    1    1    2  504  501  0.18772212146E+02  0.14991123552E+02  0.32339674120E+02  0.40286278761E+02  0.00000000000E+00 0.  1.
</event>
<event>
 4    1  0.3099057E+006  0.2307162E+02  0.7546771E-02  0.1491601E+00
         21   -1    0    0  503  501  0.00000000000E+00  0.00000000000E+00  0.13689956804E+03  0.13689956804E+03  0.00000000000E+00 0. -1.
         21   -1    0    0  504  502 -0.00000000000E+00 -0.00000000000E+00 -0.96374171804E+02  0.96374171804E+02  0.00000000000E+00 0.  1.
         21    1    1    2  503  502  0.22641307638E+02  0.44351908366E+01 -0.93997070938E+02  0.96787132793E+02  0.00000000000E+00 0.  1.
         21    1    1    2  504  501 -0.22641307638E+02 -0.44351908366E+01  0.13452246717E+03  0.13648660705E+03  0.00000000000E+00 0. -1.
</event>
<event>
 4    1  0.3099057E+006  0.2253697E+02  0.7546771E-02  0.1498396E+00
         21   -1    0    0  504  501  0.00000000000E+00  0.00000000000E+00  0.17010931882E+03  0.17010931882E+03  0.00000000000E+00 0. -1.
         21   -1    0    0  503  502 -0.00000000000E+00 -0.00000000000E+00 -0.32055909367E+01  0.32055909367E+01  0.00000000000E+00 0. -1.
         21    1    1    2  503  501 -0.12671605204E+02 -0.18637202438E+02  0.10614227233E+03  0.10850851058E+03  0.00000000000E+00 0. -1.
         21    1    1    2  504  502  0.12671605204E+02  0.18637202438E+02  0.60761455556E+02  0.64806399178E+02  0.00000000000E+00 0. -1.
</event>
<event>
 4    1  0.3099057E+006  0.2381995E+02  0.7546771E-02  0.1482451E+00
         21   -1    0    0  503  501  0.00000000000E+00  0.00000000000E+00  0.91315612162E+02  0.91315612162E+02  0.00000000000E+00 0. -1.
         21   -1    0    0  504  502 -0.00000000000E+00 -0.00000000000E+00 -0.12705385298E+02  0.12705385298E+02  0.00000000000E+00 0. -1.
         21    1    1    2  503  502  0.21994427297E+02  0.91452288938E+01  0.21274288318E+01  0.23914765252E+02  0.00000000000E+00 0. -1.
         21    1    1    2  504  501 -0.21994427297E+02 -0.91452288938E+01  0.76482798032E+02  0.80106232207E+02  0.00000000000E+00 0. -1.
</event>
<event>
 4    1  0.3099057E+006  0.3863208E+02  0.7546771E-02  0.1356694E+00
         21   -1    0    0  504  501  0.00000000000E+00  0.00000000000E+00  0.36310648267E+03  0.36310648267E+03  0.00000000000E+00 0. -1.
         21   -1    0    0  503  502 -0.00000000000E+00 -0.00000000000E+00 -0.18921697089E+02  0.18921697089E+02  0.00000000000E+00 0. -1.
         21    1    1    2  503  501  0.29751537778E+02 -0.24643128001E+02  0.34109170638E+03  0.34327247183E+03  0.00000000000E+00 0. -1.
         21    1    1    2  504  502 -0.29751537778E+02  0.24643128001E+02  0.30930792018E+01  0.38755707925E+02  0.00000000000E+00 0. -1.
</event>
<event>
 4    1  0.3099057E+006  0.2047089E+02  0.7546771E-02  0.1526955E+00
         21   -1    0    0  504  501  0.00000000000E+00  0.00000000000E+00  0.87338610285E+02  0.87338610285E+02  0.00000000000E+00 0. -1.
         21   -1    0    0  503  502 -0.00000000000E+00 -0.00000000000E+00 -0.59514202846E+01  0.59514202846E+01  0.00000000000E+00 0.  1.
         21    1    1    2  503  501 -0.45969602412E+00  0.20465723489E+02  0.20159541148E+02  0.28730893785E+02  0.00000000000E+00 0.  1.
         21    1    1    2  504  502  0.45969602412E+00 -0.20465723489E+02  0.61227648853E+02  0.64559136785E+02  0.00000000000E+00 0. -1.
</event>
<event>
 4    1  0.3099057E+006  0.2129325E+02  0.7546771E-02  0.1515119E+00
         21   -1    0    0  504  501  0.00000000000E+00  0.00000000000E+00  0.49161123696E+03  0.49161123696E+03  0.00000000000E+00 0. -1.
         21   -1    0    0  503  502 -0.00000000000E+00 -0.00000000000E+00 -0.33036424924E+01  0.33036424924E+01  0.00000000000E+00 0.  1.
         21    1    1    2  503  501  0.11315836294E+02  0.18037581726E+02  0.45424935943E+03  0.45474815343E+03  0.00000000000E+00 0. -1.
         21    1    1    2  504  502 -0.11315836294E+02 -0.18037581726E+02  0.34058235043E+02  0.40166726028E+02  0.00000000000E+00 0.  1.
</event>
<event>
 4    1  0.3099057E+006  0.2110935E+02  0.7546771E-02  0.1517709E+00
         21   -1    0    0  503  501  0.00000000000E+00  0.00000000000E+00  0.99505485396E+03  0.99505485396E+03  0.00000000000E+00 0.  1.
         21   -1    0    0  504  502 -0.00000000000E+00 -0.00000000000E+00 -0.44968248962E+00  0.44968248962E+00  0.00000000000E+00 0.  1.
         21    1    1    2  503  502  0.21096710679E+02 -0.73024686684E+00  0.52934495705E+03  0.52976569162E+03  0.00000000000E+00 0.  1.
         21    1    1    2  504  501 -0.21096710679E+02  0.73024686684E+00  0.46526021441E+03  0.46573884482E+03  0.00000000000E+00 0.  1.
</event>
<event>
 4    1  0.3099057E+006  0.2944032E+02  0.7546771E-02  0.1424523E+00
         21   -1    0    0  504  501  0.00000000000E+00  0.00000000000E+00  0.53255902921E+02  0.53255902921E+02  0.00000000000E+00 0. -1.
         21   -1    0    0  503  502 -0.00000000000E+00 -0.00000000000E+00 -0.65238775895E+02  0.65238775895E+02  0.00000000000E+00 0. -1.
         21    1    1    2  503  501  0.12113892720E+02 -0.26832552513E+02  0.45336526615E+02  0.54056756439E+02  0.00000000000E+00 0. -1.
         21    1    1    2  504  502 -0.12113892720E+02  0.26832552513E+02 -0.57319399588E+02  0.64437922378E+02  0.00000000000E+00 0. -1.
</event>
<event>
 4    1  0.3099057E+006  0.2511505E+02  0.7546771E-02  0.1467520E+00
         21   -1    0    0  504  501  0.00000000000E+00  0.00000000000E+00  0.54232518271E+03  0.54232518271E+03  0.00000000000E+00 0.  1.
         21   -1    0    0  503  502 -0.00000000000E+00 -0.00000000000E+00 -0.12476947394E+01  0.12476947394E+01  0.00000000000E+00 0.  1.
         21    1    1    2  503  501 -0.20178365111E+02  0.14953241493E+02  0.34131780201E+03  0.34224057010E+03  0.00000000000E+00 0.  1.
         21    1    1    2  504  502  0.20178365111E+02 -0.14953241493E+02  0.19975968596E+03  0.20133230735E+03  0.00000000000E+00 0.  1.
</event>
<event>
 4    1  0.3099057E+006  0.2510541E+02  0.7546771E-02  0.1467628E+00
         21   -1    0    0  504  501  0.00000000000E+00  0.00000000000E+00  0.11895660699E+04  0.11895660699E+04  0.00000000000E+00 0. -1.
         21   -1    0    0  503  502 -0.00000000000E+00 -0.00000000000E+00 -0.11639470040E+02  0.11639470040E+02  0.00000000000E+00 0. -1.
         21    1    1    2  503  501  0.49163788932E+01  0.24619321780E+02  0.11757367991E+04  0.11760048055E+04  0.00000000000E+00 0. -1.
         21    1    1    2  504  502 -0.49163788932E+01 -0.24619321780E+02  0.21898006973E+01  0.25200734383E+02  0.00000000000E+00 0. -1.
</event>
<event>
 4    1  0.3099057E+006  0.2133477E+02  0.7546771E-02  0.1514539E+00
         21   -1    0    0  504  501  0.00000000000E+00  0.00000000000E+00  0.22548228143E+02  0.22548228143E+02  0.00000000000E+00 0. -1.
         21   -1    0    0  501  502 -0.00000000000E+00 -0.00000000000E+00 -0.14652653727E+03  0.14652653727E+03  0.00000000000E+00 0. -1.
         21    1    1    2  503  502  0.14765340826E+02 -0.15399900997E+02 -0.14048758434E+03  0.14209832368E+03  0.00000000000E+00 0. -1.
         21    1    1    2  504  503 -0.14765340826E+02  0.15399900997E+02  0.16509275211E+02  0.26976441730E+02  0.00000000000E+00 0. -1.
</event>
<event>
 4    1  0.3099057E+006  0.2115284E+02  0.7546771E-02  0.1517094E+00
         21   -1    0    0  504  501  0.00000000000E+00  0.00000000000E+00  0.12799719629E+02  0.12799719629E+02  0.00000000000E+00 0.  1.
         21   -1    0    0  501  502 -0.00000000000E+00 -0.00000000000E+00 -0.35523152174E+02  0.35523152174E+02  0.00000000000E+00 0.  1.
         21    1    1    2  503  502 -0.17269021393E+02 -0.12215706532E+02 -0.14411366671E+02  0.25595508889E+02  0.00000000000E+00 0.  1.
         21    1    1    2  504  503  0.17269021393E+02  0.12215706532E+02 -0.83120658739E+01  0.22727362914E+02  0.00000000000E+00 0.  1.
</event>
<event>
 4    1  0.3099057E+006  0.3255912E+02  0.7546771E-02  0.1398586E+00
         21   -1    0    0  504  501  0.00000000000E+00  0.00000000000E+00  0.11501240699E+03  0.11501240699E+03  0.00000000000E+00 0. -1.
         21   -1    0    0  503  502 -0.00000000000E+00 -0.00000000000E+00 -0.56681465168E+02  0.56681465168E+02  0.00000000000E+00 0. -1.
         21    1    1    2  503  501  0.32556092775E+02 -0.44407079980E+00 -0.49391998797E+02  0.59157974279E+02  0.00000000000E+00 0. -1.
         21    1    1    2  504  502 -0.32556092775E+02  0.44407079980E+00  0.10772294061E+03  0.11253589787E+03  0.00000000000E+00 0. -1.
</event>
<event>
 4    1  0.3099057E+006  0.2038827E+02  0.7546771E-02  0.1528181E+00
         21   -1    0    0  502  501  0.00000000000E+00  0.00000000000E+00  0.33215155454E+03  0.33215155454E+03  0.00000000000E+00 0. -1.
         21   -1    0    0  504  502 -0.00000000000E+00 -0.00000000000E+00 -0.13923770474E+02  0.13923770474E+02  0.00000000000E+00 0.  1.
         21    1    1    2  503  501  0.37569861433E+01 -0.20039127129E+02  0.32419209940E+03  0.32483257053E+03  0.00000000000E+00 0. -1.
         21    1    1    2  504  503 -0.37569861433E+01  0.20039127129E+02 -0.59643153320E+01  0.21242754491E+02  0.00000000000E+00 0.  1.
</event>
<event>
 4    1  0.3099057E+006  0.2917128E+02  0.7546771E-02  0.1426937E+00
         21   -1    0    0  503  501  0.00000000000E+00  0.00000000000E+00  0.32041013209E+01  0.32041013209E+01  0.00000000000E+00 0. -1.
         21   -1    0    0  501  502 -0.00000000000E+00 -0.00000000000E+00 -0.57859450694E+03  0.57859450694E+03  0.00000000000E+00 0. -1.
         21    1    1    2  503  504 -0.17124483799E+02  0.23616008512E+02 -0.73734635641E+02  0.79295398962E+02  0.00000000000E+00 0. -1.
         21    1    1    2  504  502  0.17124483799E+02 -0.23616008512E+02 -0.50165576998E+03  0.50250320930E+03  0.00000000000E+00 0. -1.
</event>
<event>
 4    1  0.3099057E+006  0.4433709E+02  0.7546771E-02  0.1324788E+00
         21   -1    0    0  504  501  0.00000000000E+00  0.00000000000E+00  0.12103070470E+02  0.12103070470E+02  0.00000000000E+00 0.  1.
         21   -1    0    0  503  502 -0.00000000000E+00 -0.00000000000E+00 -0.22530756512E+03  0.22530756512E+03  0.00000000000E+00 0.  1.
         21    1    1    2  503  501 -0.36713634525E+02  0.24857324263E+02 -0.43888091015E+02  0.62385431492E+02  0.00000000000E+00 0.  1.
         21    1    1    2  504  502  0.36713634525E+02 -0.24857324263E+02 -0.16931640364E+03  0.17502520410E+03  0.00000000000E+00 0.  1.
</event>
<event>
 4    1  0.3099057E+006  0.2061525E+02  0.7546771E-02  0.1524830E+00
         21   -1    0    0  503  501  0.00000000000E+00  0.00000000000E+00  0.22540065627E+02  0.22540065627E+02  0.00000000000E+00 0.  1.
         21   -1    0    0  504  502 -0.00000000000E+00 -0.00000000000E+00 -0.19460310429E+02  0.19460310429E+02  0.00000000000E+00 0.  1.
         21    1    1    2  503  502 -0.13883807545E+02 -0.15239036698E+02 -0.21644582582E+01  0.20728560755E+02  0.00000000000E+00 0.  1.
         21    1    1    2  504  501  0.13883807545E+02  0.15239036698E+02  0.52442134555E+01  0.21271815301E+02  0.00000000000E+00 0.  1.
</event>
<event>
 4    1  0.3099057E+006  0.2520565E+02  0.7546771E-02  0.1466516E+00
         21   -1    0    0  502  501  0.00000000000E+00  0.00000000000E+00  0.55330125154E+03  0.55330125154E+03  0.00000000000E+00 0. -1.
         21   -1    0    0  503  502 -0.00000000000E+00 -0.00000000000E+00 -0.15354245328E+01  0.15354245328E+01  0.00000000000E+00 0. -1.
         21    1    1    2  503  504  0.17334041600E+02  0.18299059462E+02  0.13657430475E+03  0.13888075927E+03  0.00000000000E+00 0. -1.
         21    1    1    2  504  501 -0.17334041600E+02 -0.18299059462E+02  0.41519152225E+03  0.41595591680E+03  0.00000000000E+00 0. -1.
</event>
<event>
 4    1  0.3099057E+006  0.3268789E+02  0.7546771E-02  0.1397590E+00
         21   -1    0    0  504  501  0.00000000000E+00  0.00000000000E+00  0.72072754453E+03  0.72072754453E+03  0.00000000000E+00 0. -1.
         21   -1    0    0  503  502 -0.00000000000E+00 -0.00000000000E+00 -0.15583695656E+01  0.15583695656E+01  0.00000000000E+00 0. -1.
         21    1    1    2  503  501 -0.32651053423E+02  0.15514145992E+01  0.27991365459E+03  0.28181581255E+03  0.00000000000E+00 0. -1.
         21    1    1    2  504  502  0.32651053423E+02 -0.15514145992E+01  0.43925552038E+03  0.44047010155E+03  0.00000000000E+00 0. -1.
</event>
<event>
 4    1  0.3099057E+006  0.2694549E+02  0.7546771E-02  0.1448156E+00
         21   -1    0    0  502  501  0.00000000000E+00  0.00000000000E+00  0.21773439495E+03  0.21773439495E+03  0.00000000000E+00 0.  1.
         21   -1    0    0  503  502 -0.00000000000E+00 -0.00000000000E+00 -0.31109780408E+02  0.31109780408E+02  0.00000000000E+00 0.  1.
         21    1    1    2  503  504 -0.24447657280E+02 -0.11330120579E+02 -0.24252508333E+02  0.36252499766E+02  0.00000000000E+00 0.  1.
         21    1    1    2  504  501  0.24447657280E+02  0.11330120579E+02  0.21087712288E+03  0.21259167559E+03  0.00000000000E+00 0.  1.
</event>
<event>
 4    1  0.3099057E+006  0.3483534E+02  0.7546771E-02  0.1381724E+00
         21   -1    0    0  504  501  0.00000000000E+00  0.00000000000E+00  0.13008779695E+02  0.13008779695E+02  0.00000000000E+00 0. -1.
         21   -1    0    0  503  502 -0.00000000000E+00 -0.00000000000E+00 -0.11475536369E+03  0.11475536369E+03  0.00000000000E+00 0. -1.
         21    1    1    2  503  501  0.29866406257E+02  0.17930386857E+02 -0.78506422664E+02  0.85888063170E+02  0.00000000000E+00 0. -1.
         21    1    1    2  504  502 -0.29866406257E+02 -0.17930386857E+02 -0.23240161331E+02  0.41876080216E+02  0.00000000000E+00 0. -1.
</event>
<event>
 4    1  0.3099057E+006  0.2896921E+02  0.7546771E-02  0.1428770E+00
         21   -1    0    0  504  501  0.00000000000E+00  0.00000000000E+00  0.14052492755E+03  0.14052492755E+03  0.00000000000E+00 0.  1.
         21   -1    0    0  503  502 -0.00000000000E+00 -0.00000000000E+00 -0.35723843805E+02  0.35723843805E+02  0.00000000000E+00 0. -1.
         21    1    1    2  503  501 -0.17284553607E+02  0.23247786582E+02  0.13282236755E+03  0.13594482960E+03  0.00000000000E+00 0.  1.
         21    1    1    2  504  502  0.17284553607E+02 -0.23247786582E+02 -0.28021283806E+02  0.40303941749E+02  0.00000000000E+00 0. -1.
</event>
<event>
 4    1  0.3099057E+006  0.2003134E+02  0.7546771E-02  0.1533557E+00
         21   -1    0    0  503  501  0.00000000000E+00  0.00000000000E+00  0.65284884692E+03  0.65284884692E+03  0.00000000000E+00 0.  1.
         21   -1    0    0  501  502 -0.00000000000E+00 -0.00000000000E+00 -0.18292768836E+01  0.18292768836E+01  0.00000000000E+00 0. -1.
         21    1    1    2  503  504 -0.16185841326E+02  0.11801406539E+02  0.59224768472E+03  0.59258634367E+03  0.00000000000E+00 0.  1.
         21    1    1    2  504  502  0.16185841326E+02 -0.11801406539E+02  0.58771885321E+02  0.62091780131E+02  0.00000000000E+00 0. -1.
</event>
<event>
 4    1  0.3099057E+006  0.2748044E+02  0.7546771E-02  0.1442841E+00
         21   -1    0    0  502  501  0.00000000000E+00  0.00000000000E+00  0.15028536179E+02  0.15028536179E+02  0.00000000000E+00 0. -1.
         21   -1    0    0  503  502 -0.00000000000E+00 -0.00000000000E+00 -0.75317596380E+02  0.75317596380E+02  0.00000000000E+00 0.  1.
         21    1    1    2  503  504  0.19878079996E+02  0.18974629739E+02 -0.56205648835E+02  0.62563964061E+02  0.00000000000E+00 0.  1.
         21    1    1    2  504  501 -0.19878079996E+02 -0.18974629739E+02 -0.40834113654E+01  0.27782168498E+02  0.00000000000E+00 0. -1.
</event>
<event>
 4    1  0.3099057E+006  0.3037277E+02  0.7546771E-02  0.1416384E+00
         21   -1    0    0  503  501  0.00000000000E+00  0.00000000000E+00  0.58502312219E+02  0.58502312219E+02  0.00000000000E+00 0.  1.
         21   -1    0    0  504  502 -0.00000000000E+00 -0.00000000000E+00 -0.10637624708E+03  0.10637624708E+03  0.00000000000E+00 0. -1.
         21    1    1    2  503  502 -0.28178096326E+02 -0.11335789394E+02 -0.10002109235E+03  0.10453097220E+03  0.00000000000E+00 0. -1.
         21    1    1    2  504  501  0.28178096326E+02  0.11335789394E+02  0.52147157494E+02  0.60347587097E+02  0.00000000000E+00 0.  1.
</event>
<event>
 4    1  0.3099057E+006  0.2216490E+02  0.7546771E-02  0.1503259E+00
         21   -1    0    0  504  501  0.00000000000E+00  0.00000000000E+00  0.43986963015E+01  0.43986963015E+01  0.00000000000E+00 0. -1.
         21   -1    0    0  503  502 -0.00000000000E+00 -0.00000000000E+00 -0.13830779772E+03  0.13830779772E+03  0.00000000000E+00 0. -1.
         21    1    1    2  503  501  0.12644529027E+02 -0.18204355091E+02 -0.35651201477E+02  0.41979647752E+02  0.00000000000E+00 0. -1.
         21    1    1    2  504  502 -0.12644529027E+02  0.18204355091E+02 -0.98257899941E+02  0.10072684627E+03  0.00000000000E+00 0. -1.
</event>
<event>
 4    1  0.3099057E+006  0.2184088E+02  0.7546771E-02  0.1507590E+00
         21   -1    0    0  504  501  0.00000000000E+00  0.00000000000E+00  0.69039828574E+03  0.69039828574E+03  0.00000000000E+00 0. -1.
         21   -1    0    0  501  502 -0.00000000000E+00 -0.00000000000E+00 -0.12185982257E+01  0.12185982257E+01  0.00000000000E+00 0. -1.
         21    1    1    2  503  502 -0.19316502368E+02  0.10192973491E+02  0.11703736583E+03  0.11905783877E+03  0.00000000000E+00 0. -1.
         21    1    1    2  504  503  0.19316502368E+02 -0.10192973491E+02  0.57214232169E+03  0.57255904520E+03  0.00000000000E+00 0. -1.
</event>
<event>
 4    1  0.3099057E+006  0.3010815E+02  0.7546771E-02  0.1418659E+00
         21   -1    0    0  503  501  0.00000000000E+00  0.00000000000E+00  0.32063382138E+03  0.32063382138E+03  0.00000000000E+00 0.  1.
         21   -1    0    0  501  502 -0.00000000000E+00 -0.00000000000E+00 -0.23474209846E+03  0.23474209846E+03  0.00000000000E+00 0.  1.
         21    1    1    2  503  504  0.12818064115E+02 -0.27243311842E+02  0.31895652993E+03  0.32037441969E+03  0.00000000000E+00 0.  1.
         21    1    1    2  504  502 -0.12818064115E+02  0.27243311842E+02 -0.23306480701E+03  0.23500150015E+03  0.00000000000E+00 0.  1.
</event>
<event>
 4    1  0.3099057E+006  0.3490595E+02  0.7546771E-02  0.1381226E+00
         21   -1    0    0  504  501  0.00000000000E+00  0.00000000000E+00  0.22400707297E+03  0.22400707297E+03  0.00000000000E+00 0. -1.
         21   -1    0    0  503  502 -0.00000000000E+00 -0.00000000000E+00 -0.30598754065E+02  0.30598754065E+02  0.00000000000E+00 0. -1.
         21    1    1    2  503  501  0.11361290525E+02 -0.33005244333E+02 -0.18730896485E+02  0.39614032350E+02  0.00000000000E+00 0. -1.
         21    1    1    2  504  502 -0.11361290525E+02  0.33005244333E+02  0.21213921539E+03  0.21499179468E+03  0.00000000000E+00 0. -1.
</event>
<event>
 4    1  0.3099057E+006  0.3783215E+02  0.7546771E-02  0.1361680E+00
         21   -1    0    0  504  501  0.00000000000E+00  0.00000000000E+00  0.41742867483E+02  0.41742867483E+02  0.00000000000E+00 0.  1.
         21   -1    0    0  503  502 -0.00000000000E+00 -0.00000000000E+00 -0.48383851347E+02  0.48383851347E+02  0.00000000000E+00 0. -1.
         21    1    1    2  503  501  0.24508485327E+02 -0.28820237296E+02 -0.27643751472E+02  0.46855617873E+02  0.00000000000E+00 0. -1.
         21    1    1    2  504  502 -0.24508485327E+02  0.28820237296E+02  0.21002767608E+02  0.43271100957E+02  0.00000000000E+00 0.  1.
</event>
<event>
 4    1  0.3099057E+006  0.2426076E+02  0.7546771E-02  0.1477246E+00
         21   -1    0    0  504  501  0.00000000000E+00  0.00000000000E+00  0.56648444772E+03  0.56648444772E+03  0.00000000000E+00 0. -1.
         21   -1    0    0  501  502 -0.00000000000E+00 -0.00000000000E+00 -0.25191852497E+01  0.25191852497E+01  0.00000000000E+00 0. -1.
         21    1    1    2  503  502  0.12683816413E+02  0.20681040459E+02  0.63904991145E+02  0.68355193852E+02  0.00000000000E+00 0. -1.
         21    1    1    2  504  503 -0.12683816413E+02 -0.20681040459E+02  0.50006027132E+03  0.50064843912E+03  0.00000000000E+00 0. -1.
</event>
<event>
 4    1  0.3099057E+006  0.6043626E+02  0.7546771E-02  0.1258357E+00
         21   -1    0    0  503  501  0.00000000000E+00  0.00000000000E+00  0.13275593929E+03  0.13275593929E+03  0.00000000000E+00 0. -1.
         21   -1    0    0  504  502 -0.00000000000E+00 -0.00000000000E+00 -0.58905267309E+02  0.58905267309E+02  0.00000000000E+00 0. -1.
         21    1    1    2  503  502  0.30847374400E+02  0.51970965819E+02  0.10688328337E+03  0.12278671777E+03  0.00000000000E+00 0. -1.
         21    1    1    2  504  501 -0.30847374400E+02 -0.51970965819E+02 -0.33032611397E+02  0.68874488827E+02  0.00000000000E+00 0. -1.
</event>
<event>
 4    1  0.3099057E+006  0.2170761E+02  0.7546771E-02  0.1509397E+00
         21   -1    0    0  504  501  0.00000000000E+00  0.00000000000E+00  0.13821972615E+03  0.13821972615E+03  0.00000000000E+00 0.  1.
         21   -1    0    0  503  502 -0.00000000000E+00 -0.00000000000E+00 -0.14016286306E+02  0.14016286306E+02  0.00000000000E+00 0.  1.
         21    1    1    2  503  501  0.19165764898E+02  0.10192836129E+02  0.12831860002E+03  0.13014178254E+03  0.00000000000E+00 0.  1.
         21    1    1    2  504  502 -0.19165764898E+02 -0.10192836129E+02 -0.41151601695E+01  0.22094229919E+02  0.00000000000E+00 0.  1.
</event>
<event>
 4    1  0.3099057E+006  0.4826438E+02  0.7546771E-02  0.1305878E+00
         21   -1    0    0  502  501  0.00000000000E+00  0.00000000000E+00  0.61976731575E+01  0.61976731575E+01  0.00000000000E+00 0.  1.
         21   -1    0    0  504  502 -0.00000000000E+00 -0.00000000000E+00 -0.72723018339E+03  0.72723018339E+03  0.00000000000E+00 0.  1.
         21    1    1    2  503  501 -0.28376775608E+02 -0.39041113343E+02 -0.10561342417E+03  0.11611909959E+03  0.00000000000E+00 0.  1.
         21    1    1    2  504  503  0.28376775608E+02  0.39041113343E+02 -0.61541908606E+03  0.61730875696E+03  0.00000000000E+00 0.  1.
</event>
<event>
 4    1  0.3099057E+006  0.2431673E+02  0.7546771E-02  0.1476594E+00
         21   -1    0    0  503  501  0.00000000000E+00  0.00000000000E+00  0.39829139118E+02  0.39829139118E+02  0.00000000000E+00 0.  1.
         21   -1    0    0  501  502 -0.00000000000E+00 -0.00000000000E+00 -0.49332279788E+02  0.49332279788E+02  0.00000000000E+00 0.  1.
         21    1    1    2  503  504  0.24117845151E+02  0.31036587677E+01  0.32522309024E+02  0.40607927018E+02  0.00000000000E+00 0.  1.
         21    1    1    2  504  502 -0.24117845151E+02 -0.31036587677E+01 -0.42025449694E+02  0.48553491887E+02  0.00000000000E+00 0.  1.
</event>
<event>
 4    1  0.3099057E+006  0.2019070E+02  0.7546771E-02  0.1531140E+00
         21   -1    0    0  504  501  0.00000000000E+00  0.00000000000E+00  0.43783342589E+01  0.43783342589E+01  0.00000000000E+00 0. -1.
         21   -1    0    0  503  502 -0.00000000000E+00 -0.00000000000E+00 -0.93976032722E+02  0.93976032722E+02  0.00000000000E+00 0. -1.
         21    1    1    2  503  501  0.94627540225E+01  0.17835931927E+02 -0.40076407590E+02  0.44875189434E+02  0.00000000000E+00 0. -1.
         21    1    1    2  504  502 -0.94627540225E+01 -0.17835931927E+02 -0.49521290873E+02  0.53479177547E+02  0.00000000000E+00 0. -1.
</event>
<event>
 4    1  0.3099057E+006  0.3601463E+02  0.7546771E-02  0.1373567E+00
         21   -1    0    0  503  501  0.00000000000E+00  0.00000000000E+00  0.46990376944E+03  0.46990376944E+03  0.00000000000E+00 0.  1.
         21   -1    0    0  504  502 -0.00000000000E+00 -0.00000000000E+00 -0.29182254300E+01  0.29182254300E+01  0.00000000000E+00 0.  1.
         21    1    1    2  503  502  0.33819441430E+02 -0.12381406183E+02  0.28849715554E+03  0.29073641429E+03  0.00000000000E+00 0.  1.
         21    1    1    2  504  501 -0.33819441430E+02  0.12381406183E+02  0.17848838847E+03  0.18208558059E+03  0.00000000000E+00 0.  1.
</event>
<event>
 4    1  0.3099057E+006  0.2041887E+02  0.7546771E-02  0.1527726E+00
         21   -1    0    0  504  501  0.00000000000E+00  0.00000000000E+00  0.16403119387E+03  0.16403119387E+03  0.00000000000E+00 0. -1.
         21   -1    0    0  503  502 -0.00000000000E+00 -0.00000000000E+00 -0.13350501251E+02  0.13350501251E+02  0.00000000000E+00 0. -1.
         21    1    1    2  503  501 -0.17840841778E+02 -0.99315029217E+01 -0.44622973058E+01  0.20900777088E+02  0.00000000000E+00 0. -1.
         21    1    1    2  504  502  0.17840841778E+02  0.99315029217E+01  0.15514298993E+03  0.15648091803E+03  0.00000000000E+00 0. -1.
</event>
<event>
 4    1  0.3099057E+006  0.2668427E+02  0.7546771E-02  0.1450806E+00
         21   -1    0    0  503  501  0.00000000000E+00  0.00000000000E+00  0.29281513012E+02  0.29281513012E+02  0.00000000000E+00 0. -1.
         21   -1    0    0  504  502 -0.00000000000E+00 -0.00000000000E+00 -0.72118096490E+02  0.72118096490E+02  0.00000000000E+00 0.  1.
         21    1    1    2  503  502 -0.23889527623E+02 -0.11888678260E+02  0.19858057788E+02  0.33262481266E+02  0.00000000000E+00 0. -1.
         21    1    1    2  504  501  0.23889527623E+02  0.11888678260E+02 -0.62694641266E+02  0.68137128236E+02  0.00000000000E+00 0.  1.
</event>
<event>
 4    1  0.3099057E+006  0.3774594E+02  0.7546771E-02  0.1362226E+00
         21   -1    0    0  503  501  0.00000000000E+00  0.00000000000E+00  0.34457132731E+02  0.34457132731E+02  0.00000000000E+00 0. -1.
         21   -1    0    0  504  502 -0.00000000000E+00 -0.00000000000E+00 -0.48953853349E+02  0.48953853349E+02  0.00000000000E+00 0. -1.
         21    1    1    2  503  502  0.24730690291E+02  0.28515773028E+02  0.91898629893E+01  0.38848551265E+02  0.00000000000E+00 0. -1.
         21    1    1    2  504  501 -0.24730690291E+02 -0.28515773028E+02 -0.23686583607E+02  0.44562434815E+02  0.00000000000E+00 0. -1.
</event>
<event>
 4    1  0.3099057E+006  0.2093471E+02  0.7546771E-02  0.1520199E+00
         21   -1    0    0  503  501  0.00000000000E+00  0.00000000000E+00  0.11939321093E+03  0.11939321093E+03  0.00000000000E+00 0.  1.
         21   -1    0    0  504  502 -0.00000000000E+00 -0.00000000000E+00 -0.14876170731E+02  0.14876170731E+02  0.00000000000E+00 0. -1.
         21    1    1    2  503  502 -0.13071330586E+02  0.16352438097E+02  0.11052457530E+03  0.11248974914E+03  0.00000000000E+00 0.  1.
         21    1    1    2  504  501  0.13071330586E+02 -0.16352438097E+02 -0.60075351004E+01  0.21779632527E+02  0.00000000000E+00 0. -1.
</event>
<event>
 4    1  0.3099057E+006  0.2282876E+02  0.7546771E-02  0.1494660E+00
         21   -1    0    0  503  501  0.00000000000E+00  0.00000000000E+00  0.51087804489E+01  0.51087804489E+01  0.00000000000E+00 0.  1.
         21   -1    0    0  504  502 -0.00000000000E+00 -0.00000000000E+00 -0.10298549643E+03  0.10298549643E+03  0.00000000000E+00 0.  1.
         21    1    1    2  503  502  0.29657035581E+01 -0.22635297232E+02 -0.43681058028E+02  0.49286782293E+02  0.00000000000E+00 0.  1.
         21    1    1    2  504  501 -0.29657035581E+01  0.22635297232E+02 -0.54195657949E+02  0.58807494581E+02  0.00000000000E+00 0.  1.
</event>
<event>
 4    1  0.3099057E+006  0.2181761E+02  0.7546771E-02  0.1507904E+00
         21   -1    0    0  504  501  0.00000000000E+00  0.00000000000E+00  0.73286553344E+03  0.73286553344E+03  0.00000000000E+00 0. -1.
         21   -1    0    0  501  502 -0.00000000000E+00 -0.00000000000E+00 -0.13157514534E+02  0.13157514534E+02  0.00000000000E+00 0. -1.
         21    1    1    2  503  502 -0.89321000852E+01  0.19905417539E+02 -0.38342043480E+01  0.22151956625E+02  0.00000000000E+00 0. -1.
         21    1    1    2  504  503  0.89321000852E+01 -0.19905417539E+02  0.72354222326E+03  0.72387109135E+03  0.00000000000E+00 0. -1.
</event>
<event>
 4    1  0.3099057E+006  0.2589144E+02  0.7546771E-02  0.1459073E+00
         21   -1    0    0  504  501  0.00000000000E+00  0.00000000000E+00  0.20939797661E+02  0.20939797661E+02  0.00000000000E+00 0.  1.
         21   -1    0    0  503  502 -0.00000000000E+00 -0.00000000000E+00 -0.13825163422E+03  0.13825163422E+03  0.00000000000E+00 0. -1.
         21    1    1    2  503  501  0.10258909081E+02  0.23772282811E+02 -0.12842993993E+03  0.13101380124E+03  0.00000000000E+00 0. -1.
         21    1    1    2  504  502 -0.10258909081E+02 -0.23772282811E+02  0.11118103375E+02  0.28177630635E+02  0.00000000000E+00 0.  1.
</event>
<event>
 4    1  0.3099057E+006  0.2007955E+02  0.7546771E-02  0.1532823E+00
         21   -1    0    0  502  501  0.00000000000E+00  0.00000000000E+00  0.10094433568E+03  0.10094433568E+03  0.00000000000E+00 0.  1.
         21   -1    0    0  504  502 -0.00000000000E+00 -0.00000000000E+00 -0.40018190066E+01  0.40018190066E+01  0.00000000000E+00 0.  1.
         21    1    1    2  503  501  0.19659196534E+02  0.40870673560E+01  0.46176115499E+02  0.50352971814E+02  0.00000000000E+00 0.  1.
         21    1    1    2  504  503 -0.19659196534E+02 -0.40870673560E+01  0.50766401171E+02  0.54593182869E+02  0.00000000000E+00 0.  1.
</event>
<event>
 4    1  0.3099057E+006  0.7446723E+02  0.7546771E-02  0.1217309E+00
         21   -1    0    0  504  501  0.00000000000E+00  0.00000000000E+00  0.77019902244E+03  0.77019902244E+03  0.00000000000E+00 0. -1.
         21   -1    0    0  501  502 -0.00000000000E+00 -0.00000000000E+00 -0.27096071007E+02  0.27096071007E+02  0.00000000000E+00 0. -1.
         21    1    1    2  503  502 -0.67602728989E+02 -0.31228823861E+02  0.29949392273E+02  0.80264154540E+02  0.00000000000E+00 0. -1.
         21    1    1    2  504  503  0.67602728989E+02  0.31228823861E+02  0.71315355916E+03  0.71703093891E+03  0.00000000000E+00 0. -1.
</event>
<event>
 4    1  0.3099057E+006  0.2371013E+02  0.7546771E-02  0.1483768E+00
         21   -1    0    0  503  501  0.00000000000E+00  0.00000000000E+00  0.11974620948E+03  0.11974620948E+03  0.00000000000E+00 0.  1.
         21   -1    0    0  504  502 -0.00000000000E+00 -0.00000000000E+00 -0.10637048674E+02  0.10637048674E+02  0.00000000000E+00 0.  1.
         21    1    1    2  503  502  0.12619404774E+02 -0.20072894780E+02  0.58285590781E+01  0.24416031263E+02  0.00000000000E+00 0.  1.
         21    1    1    2  504  501 -0.12619404774E+02  0.20072894780E+02  0.10328060173E+03  0.10596722689E+03  0.00000000000E+00 0.  1.
</event>
<event>
 4    1  0.3099057E+006  0.2523862E+02  0.7546771E-02  0.1466152E+00
         21   -1    0    0  504  501  0.00000000000E+00  0.00000000000E+00  0.18744916408E+03  0.18744916408E+03  0.00000000000E+00 0.  1.
         21   -1    0    0  503  502 -0.00000000000E+00 -0.00000000000E+00 -0.69041976555E+02  0.69041976555E+02  0.00000000000E+00 0. -1.
         21    1    1    2  503  501  0.49168293271E+01  0.24755057350E+02  0.18425327069E+03  0.18597380416E+03  0.00000000000E+00 0.  1.
         21    1    1    2  504  502 -0.49168293271E+01 -0.24755057350E+02 -0.65846083164E+02  0.70517336472E+02  0.00000000000E+00 0. -1.
</event>
<event>
 4    1  0.3099057E+006  0.2123551E+02  0.7546771E-02  0.1515929E+00
         21   -1    0    0  504  501  0.00000000000E+00  0.00000000000E+00  0.85959991712E+01  0.85959991712E+01  0.00000000000E+00 0.  1.
         21   -1    0    0  501  502 -0.00000000000E+00 -0.00000000000E+00 -0.14462131770E+03  0.14462131770E+03  0.00000000000E+00 0. -1.
         21    1    1    2  503  502 -0.21005113090E+02  0.31196556344E+01 -0.12916819684E+03  0.13090213941E+03  0.00000000000E+00 0. -1.
         21    1    1    2  504  503  0.21005113090E+02 -0.31196556344E+01 -0.68571216862E+01  0.22315177459E+02  0.00000000000E+00 0.  1.
</event>
<event>
 4    1  0.3099057E+006  0.2091695E+02  0.7546771E-02  0.1520454E+00
         21   -1    0    0  503  501  0.00000000000E+00  0.00000000000E+00  0.73718304764E+01  0.73718304764E+01  0.00000000000E+00 0.  1.
         21   -1    0    0  504  502 -0.00000000000E+00 -0.00000000000E+00 -0.69130998293E+02  0.69130998293E+02  0.00000000000E+00 0.  1.
         21    1    1    2  503  502 -0.33697732220E+01  0.20643722402E+02 -0.45267607708E+02  0.49866571506E+02  0.00000000000E+00 0.  1.
         21    1    1    2  504  501  0.33697732220E+01 -0.20643722402E+02 -0.16491560108E+02  0.26636257263E+02  0.00000000000E+00 0.  1.
</event>
<event>
 4    1  0.3099057E+006  0.2860864E+02  0.7546771E-02  0.1432085E+00
         21   -1    0    0  504  501  0.00000000000E+00  0.00000000000E+00  0.38723416843E+02  0.38723416843E+02  0.00000000000E+00 0. -1.
         21   -1    0    0  503  502 -0.00000000000E+00 -0.00000000000E+00 -0.76725772457E+02  0.76725772457E+02  0.00000000000E+00 0.  1.
         21    1    1    2  503  501  0.25932600609E+02 -0.12081159247E+02  0.30133499069E+02  0.41550956057E+02  0.00000000000E+00 0. -1.
         21    1    1    2  504  502 -0.25932600609E+02  0.12081159247E+02 -0.68135854683E+02  0.73898233244E+02  0.00000000000E+00 0.  1.
</event>
<event>
 4    1  0.3099057E+006  0.3881838E+02  0.7546771E-02  0.1355553E+00
         21   -1    0    0  503  501  0.00000000000E+00  0.00000000000E+00  0.26085580969E+02  0.26085580969E+02  0.00000000000E+00 0.  1.
         21   -1    0    0  504  502 -0.00000000000E+00 -0.00000000000E+00 -0.15540675136E+03  0.15540675136E+03  0.00000000000E+00 0.  1.
         21    1    1    2  503  502 -0.21447641622E+02 -0.32355300159E+02  0.72691224793E+01  0.39493124986E+02  0.00000000000E+00 0.  1.
         21    1    1    2  504  501  0.21447641622E+02  0.32355300159E+02 -0.13659029287E+03  0.14199920734E+03  0.00000000000E+00 0.  1.
</event>
<event>
 4    1  0.3099057E+006  0.3286341E+02  0.7546771E-02  0.1396240E+00
         21   -1    0    0  502  501  0.00000000000E+00  0.00000000000E+00  0.15334991689E+02  0.15334991689E+02  0.00000000000E+00 0. -1.
         21   -1    0    0  504  502 -0.00000000000E+00 -0.00000000000E+00 -0.27319531566E+03  0.27319531566E+03  0.00000000000E+00 0.  1.
         21    1    1    2  503  501  0.20482490729E+02  0.25699637788E+02 -0.46435292658E+01  0.33189850450E+02  0.00000000000E+00 0. -1.
         21    1    1    2  504  503 -0.20482490729E+02 -0.25699637788E+02 -0.25321679470E+03  0.25534045690E+03  0.00000000000E+00 0.  1.
</event>
<event>
 4    1  0.3099057E+006  0.2474578E+02  0.7546771E-02  0.1471667E+00
         21   -1    0    0  504  501  0.00000000000E+00  0.00000000000E+00  0.68226563956E+03  0.68226563956E+03  0.00000000000E+00 0. -1.
         21   -1    0    0  503  502 -0.00000000000E+00 -0.00000000000E+00 -0.35871370260E+01  0.35871370260E+01  0.00000000000E+00 0. -1.
         21    1    1    2  503  501 -0.19258442432E+02 -0.15539178823E+02  0.63628106755E+03  0.63676208321E+03  0.00000000000E+00 0. -1.
         21    1    1    2  504  502  0.19258442432E+02  0.15539178823E+02  0.42397434975E+02  0.49090693373E+02  0.00000000000E+00 0. -1.
</event>
<event>
 4    1  0.3099057E+006  0.2249227E+02  0.7546771E-02  0.1498974E+00
         21   -1    0    0  504  501  0.00000000000E+00  0.00000000000E+00  0.11169265925E+03  0.11169265925E+03  0.00000000000E+00 0.  1.
         21   -1    0    0  503  502 -0.00000000000E+00 -0.00000000000E+00 -0.23290429194E+03  0.23290429194E+03  0.00000000000E+00 0.  1.
         21    1    1    2  503  501 -0.18013035957E+01  0.22420027592E+02 -0.23122067590E+03  0.23231208168E+03  0.00000000000E+00 0.  1.
         21    1    1    2  504  502  0.18013035957E+01 -0.22420027592E+02  0.11000904321E+03  0.11228486951E+03  0.00000000000E+00 0.  1.
</event>
<event>
 4    1  0.3099057E+006  0.2005358E+02  0.7546771E-02  0.1533218E+00
         21   -1    0    0  502  501  0.00000000000E+00  0.00000000000E+00  0.15497432315E+02  0.15497432315E+02  0.00000000000E+00 0.  1.
         21   -1    0    0  504  502 -0.00000000000E+00 -0.00000000000E+00 -0.27567052336E+03  0.27567052336E+03  0.00000000000E+00 0.  1.
         21    1    1    2  503  501  0.16400242896E+02  0.11540282405E+02  0.84761182108E+01  0.21771326670E+02  0.00000000000E+00 0.  1.
         21    1    1    2  504  503 -0.16400242896E+02 -0.11540282405E+02 -0.26864920926E+03  0.26939662901E+03  0.00000000000E+00 0.  1.
</event>
<event>
 4    1  0.3099057E+006  0.2107737E+02  0.7546771E-02  0.1518163E+00
         21   -1    0    0  502  501  0.00000000000E+00  0.00000000000E+00  0.14274112286E+01  0.14274112286E+01  0.00000000000E+00 0.  1.
         21   -1    0    0  504  502 -0.00000000000E+00 -0.00000000000E+00 -0.31130254915E+03  0.31130254915E+03  0.00000000000E+00 0.  1.
         21    1    1    2  503  501 -0.14942884241E+02  0.14864910886E+02 -0.15729951070E+03  0.15870536043E+03  0.00000000000E+00 0.  1.
         21    1    1    2  504  503  0.14942884241E+02 -0.14864910886E+02 -0.15257562723E+03  0.15402459995E+03  0.00000000000E+00 0.  1.
</event>
<event>
 4    1  0.3099057E+006  0.2185887E+02  0.7546771E-02  0.1507347E+00
         21   -1    0    0  503  501  0.00000000000E+00  0.00000000000E+00  0.11120912335E+03  0.11120912335E+03  0.00000000000E+00 0. -1.
         21   -1    0    0  504  502 -0.00000000000E+00 -0.00000000000E+00 -0.96873682903E+01  0.96873682903E+01  0.00000000000E+00 0. -1.
         21    1    1    2  503  502 -0.18524452314E+02 -0.11604082733E+02  0.95853981592E+02  0.98314779441E+02  0.00000000000E+00 0. -1.
         21    1    1    2  504  501  0.18524452314E+02  0.11604082733E+02  0.56677734638E+01  0.22581712195E+02  0.00000000000E+00 0. -1.
</event>
<event>
 4    1  0.3099057E+006  0.2710203E+02  0.7546771E-02  0.1446586E+00
         21   -1    0    0  504  501  0.00000000000E+00  0.00000000000E+00  0.11542559768E+04  0.11542559768E+04  0.00000000000E+00 0. -1.
         21   -1    0    0  503  502 -0.00000000000E+00 -0.00000000000E+00 -0.11249081882E+01  0.11249081882E+01  0.00000000000E+00 0.  1.
         21    1    1    2  503  501  0.24302269155E+02 -0.11996651830E+02  0.19585817843E+03  0.19772441933E+03  0.00000000000E+00 0.  1.
         21    1    1    2  504  502 -0.24302269155E+02  0.11996651830E+02  0.95727289018E+03  0.95765646566E+03  0.00000000000E+00 0. -1.
</event>
<event>
 4    1  0.3099057E+006  0.2264689E+02  0.7546771E-02  0.1496980E+00
         21   -1    0    0  504  501  0.00000000000E+00  0.00000000000E+00  0.23001355626E+03  0.23001355626E+03  0.00000000000E+00 0.  1.
         21   -1    0    0  503  502 -0.00000000000E+00 -0.00000000000E+00 -0.40274766073E+01  0.40274766073E+01  0.00000000000E+00 0.  1.
         21    1    1    2  503  501 -0.18271007810E+02  0.13381025719E+02  0.19117430126E+03  0.19251102576E+03  0.00000000000E+00 0.  1.
         21    1    1    2  504  502  0.18271007810E+02 -0.13381025719E+02  0.34811778387E+02  0.41530007105E+02  0.00000000000E+00 0.  1.
</event>
<event>
 4    1  0.3099057E+006  0.3534227E+02  0.7546771E-02  0.1378173E+00
         21   -1    0    0  502  501  0.00000000000E+00  0.00000000000E+00  0.12854352552E+02  0.12854352552E+02  0.00000000000E+00 0.  1.
         21   -1    0    0  503  502 -0.00000000000E+00 -0.00000000000E+00 -0.15244632753E+03  0.15244632753E+03  0.00000000000E+00 0.  1.
         21    1    1    2  503  504  0.24697817668E+02  0.25280307145E+02 -0.11956397055E+03  0.12467806214E+03  0.00000000000E+00 0.  1.
         21    1    1    2  504  501 -0.24697817668E+02 -0.25280307145E+02 -0.20028004436E+02  0.40622617944E+02  0.00000000000E+00 0.  1.
</event>
<event>
 4    1  0.3099057E+006  0.2353388E+02  0.7546771E-02  0.1485901E+00
         21   -1    0    0  502  501  0.00000000000E+00  0.00000000000E+00  0.47579607755E+03  0.47579607755E+03  0.00000000000E+00 0.  1.
         21   -1    0    0  504  502 -0.00000000000E+00 -0.00000000000E+00 -0.10868184602E+02  0.10868184602E+02  0.00000000000E+00 0. -1.
         21    1    1    2  503  501 -0.23474872197E+02 -0.16654279617E+01  0.46239609555E+03  0.46299459225E+03  0.00000000000E+00 0.  1.
         21    1    1    2  504  503  0.23474872197E+02  0.16654279617E+01  0.25317973950E+01  0.23669669897E+02  0.00000000000E+00 0. -1.
</event>
<event>
 4    1  0.3099057E+006  0.3434467E+02  0.7546771E-02  0.1385230E+00
         21   -1    0    0  504  501  0.00000000000E+00  0.00000000000E+00  0.31179548649E+02  0.31179548649E+02  0.00000000000E+00 0.  1.
         21   -1    0    0  501  502 -0.00000000000E+00 -0.00000000000E+00 -0.69422610463E+02  0.69422610463E+02  0.00000000000E+00 0.  1.
         21    1    1    2  503  502 -0.31520962862E+02 -0.13637653770E+02 -0.53053730612E+02  0.63200118923E+02  0.00000000000E+00 0.  1.
         21    1    1    2  504  503  0.31520962862E+02  0.13637653770E+02  0.14810668797E+02  0.37402040189E+02  0.00000000000E+00 0.  1.
</event>
<event>
 4    1  0.3099057E+006  0.2171076E+02  0.7546771E-02  0.1509354E+00
         21   -1    0    0  503  501  0.00000000000E+00  0.00000000000E+00  0.67719288399E+02  0.67719288399E+02  0.00000000000E+00 0. -1.
         21   -1    0    0  501  502 -0.00000000000E+00 -0.00000000000E+00 -0.11449323285E+02  0.11449323285E+02  0.00000000000E+00 0. -1.
         21    1    1    2  503  504 -0.11746626726E+02 -0.18258530064E+02  0.52920699404E+02  0.57201027831E+02  0.00000000000E+00 0. -1.
         21    1    1    2  504  502  0.11746626726E+02  0.18258530064E+02  0.33492657104E+01  0.21967583853E+02  0.00000000000E+00 0. -1.
</event>
<event>
 4    1  0.3099057E+006  0.2801124E+02  0.7546771E-02  0.1437706E+00
         21   -1    0    0  502  501  0.00000000000E+00  0.00000000000E+00  0.10819891381E+03  0.10819891381E+03  0.00000000000E+00 0. -1.
         21   -1    0    0  504  502 -0.00000000000E+00 -0.00000000000E+00 -0.21540763287E+03  0.21540763287E+03  0.00000000000E+00 0. -1.
         21    1    1    2  503  501  0.19680562007E+02  0.19932506738E+02  0.10545203158E+03  0.10910893781E+03  0.00000000000E+00 0. -1.
         21    1    1    2  504  503 -0.19680562007E+02 -0.19932506738E+02 -0.21266075064E+03  0.21449760887E+03  0.00000000000E+00 0. -1.
</event>
<event>
 4    1  0.3099057E+006  0.3627021E+02  0.7546771E-02  0.1371847E+00
         21   -1    0    0  504  501  0.00000000000E+00  0.00000000000E+00  0.32925086626E+01  0.32925086626E+01  0.00000000000E+00 0. -1.
         21   -1    0    0  503  502 -0.00000000000E+00 -0.00000000000E+00 -0.39973804819E+03  0.39973804819E+03  0.00000000000E+00 0. -1.
         21    1    1    2  503  501 -0.36124759895E+02 -0.32449795431E+01 -0.20257109548E+03  0.20579255791E+03  0.00000000000E+00 0. -1.
         21    1    1    2  504  502  0.36124759895E+02  0.32449795431E+01 -0.19387444405E+03  0.19723799894E+03  0.00000000000E+00 0. -1.
</event>
<event>
 4    1  0.3099057E+006  0.2634514E+02  0.7546771E-02  0.1454300E+00
         21   -1    0    0  504  501  0.00000000000E+00  0.00000000000E+00  0.20704343170E+03  0.20704343170E+03  0.00000000000E+00 0. -1.
         21   -1    0    0  503  502 -0.00000000000E+00 -0.00000000000E+00 -0.50731496023E+01  0.50731496023E+01  0.00000000000E+00 0.  1.
         21    1    1    2  503  501  0.21998931337E+02  0.14495291616E+02  0.16275554455E+03  0.16487399352E+03  0.00000000000E+00 0. -1.
         21    1    1    2  504  502 -0.21998931337E+02 -0.14495291616E+02  0.39214737549E+02  0.47242587779E+02  0.00000000000E+00 0.  1.
</event>
<event>
 4    1  0.3099057E+006  0.2740052E+02  0.7546771E-02  0.1443626E+00
         21   -1    0    0  503  501  0.00000000000E+00  0.00000000000E+00  0.14344976293E+03  0.14344976293E+03  0.00000000000E+00 0. -1.
         21   -1    0    0  501  502 -0.00000000000E+00 -0.00000000000E+00 -0.80372798898E+01  0.80372798898E+01  0.00000000000E+00 0. -1.
         21    1    1    2  503  504 -0.24632053926E+02  0.12002097972E+02  0.11244038149E+03  0.11573084216E+03  0.00000000000E+00 0. -1.
         21    1    1    2  504  502  0.24632053926E+02 -0.12002097972E+02  0.22972101552E+02  0.35756200666E+02  0.00000000000E+00 0. -1.
</event>
<event>
 4    1  0.3099057E+006  0.2178992E+02  0.7546771E-02  0.1508279E+00
         21   -1    0    0  504  501  0.00000000000E+00  0.00000000000E+00  0.55771817841E+03  0.55771817841E+03  0.00000000000E+00 0.  1.
         21   -1    0    0  503  502 -0.00000000000E+00 -0.00000000000E+00 -0.87756354940E+00  0.87756354940E+00  0.00000000000E+00 0. -1.
         21    1    1    2  503  501  0.21259596115E+02 -0.47781039156E+01  0.23012784882E+03  0.23115714894E+03  0.00000000000E+00 0. -1.
         21    1    1    2  504  502 -0.21259596115E+02  0.47781039156E+01  0.32671276604E+03  0.32743859302E+03  0.00000000000E+00 0.  1.
</event>
<event>
 4    1  0.3099057E+006  0.2762280E+02  0.7546771E-02  0.1441450E+00
         21   -1    0    0  504  501  0.00000000000E+00  0.00000000000E+00  0.66542970379E+03  0.66542970379E+03  0.00000000000E+00 0. -1.
         21   -1    0    0  503  502 -0.00000000000E+00 -0.00000000000E+00 -0.28727301076E+03  0.28727301076E+03  0.00000000000E+00 0.  1.
         21    1    1    2  503  501 -0.15866300586E+01 -0.27577193155E+02 -0.28632137717E+03  0.28765074309E+03  0.00000000000E+00 0.  1.
         21    1    1    2  504  502  0.15866300586E+01  0.27577193155E+02  0.66447807020E+03  0.66505197147E+03  0.00000000000E+00 0. -1.
</event>
<event>
 4    1  0.3099057E+006  0.3236578E+02  0.7546771E-02  0.1400093E+00
         21   -1    0    0  503  501  0.00000000000E+00  0.00000000000E+00  0.52374666082E+03  0.52374666082E+03  0.00000000000E+00 0.  1.
         21   -1    0    0  504  502 -0.00000000000E+00 -0.00000000000E+00 -0.30736124588E+01  0.30736124588E+01  0.00000000000E+00 0.  1.
         21    1    1    2  503  502 -0.31480757082E+02 -0.75170131542E+01  0.10466388012E+03  0.10955396549E+03  0.00000000000E+00 0.  1.
         21    1    1    2  504  501  0.31480757082E+02  0.75170131542E+01  0.41600916824E+03  0.41726630778E+03  0.00000000000E+00 0.  1.
</event>
<event>
 4    1  0.3099057E+006  0.2022617E+02  0.7546771E-02  0.1530606E+00
         21   -1    0    0  504  501  0.00000000000E+00  0.00000000000E+00  0.52336761134E+02  0.52336761134E+02  0.00000000000E+00 0. -1.
         21   -1    0    0  501  502 -0.00000000000E+00 -0.00000000000E+00 -0.39222715840E+02  0.39222715840E+02  0.00000000000E+00 0.  1.
         21    1    1    2  503  502 -0.93221357527E+01  0.17949815148E+02 -0.34407816481E+02  0.39912352898E+02  0.00000000000E+00 0.  1.
         21    1    1    2  504  503  0.93221357527E+01 -0.17949815148E+02  0.47521861775E+02  0.51647124077E+02  0.00000000000E+00 0. -1.
</event>
<event>
 4    1  0.3099057E+006  0.2125502E+02  0.7546771E-02  0.1515655E+00
         21   -1    0    0  504  501  0.00000000000E+00  0.00000000000E+00  0.24209535562E+02  0.24209535562E+02  0.00000000000E+00 0. -1.
         21   -1    0    0  503  502 -0.00000000000E+00 -0.00000000000E+00 -0.18970709748E+02  0.18970709748E+02  0.00000000000E+00 0. -1.
         21    1    1    2  503  501 -0.19118766009E+02  0.92870253819E+01 -0.13884838781E+00  0.21255477718E+02  0.00000000000E+00 0. -1.
         21    1    1    2  504  502  0.19118766009E+02 -0.92870253819E+01  0.53776742019E+01  0.21924767592E+02  0.00000000000E+00 0. -1.
</event>
<event>
 4    1  0.3099057E+006  0.3754752E+02  0.7546771E-02  0.1363489E+00
         21   -1    0    0  503  501  0.00000000000E+00  0.00000000000E+00  0.10384129177E+02  0.10384129177E+02  0.00000000000E+00 0. -1.
         21   -1    0    0  501  502 -0.00000000000E+00 -0.00000000000E+00 -0.14977357759E+03  0.14977357759E+03  0.00000000000E+00 0. -1.
         21    1    1    2  503  504  0.25786589598E+02 -0.27292268609E+02 -0.45205494577E+02  0.58765235206E+02  0.00000000000E+00 0. -1.
         21    1    1    2  504  502 -0.25786589598E+02  0.27292268609E+02 -0.94183953838E+02  0.10139247156E+03  0.00000000000E+00 0. -1.
</event>
<event>
 4    1  0.3099057E+006  0.2125159E+02  0.7546771E-02  0.1515703E+00
         21   -1    0    0  504  501  0.00000000000E+00  0.00000000000E+00  0.41052229187E+01  0.41052229187E+01  0.00000000000E+00 0. -1.
         21   -1    0    0  501  502 -0.00000000000E+00 -0.00000000000E+00 -0.91179084054E+03  0.91179084054E+03  0.00000000000E+00 0.  1.
         21    1    1    2  503  502 -0.20745736734E+02  0.46091953766E+01 -0.88327584477E+03  0.88353146420E+03  0.00000000000E+00 0.  1.
         21    1    1    2  504  503  0.20745736734E+02 -0.46091953766E+01 -0.24409772853E+02  0.32364599262E+02  0.00000000000E+00 0. -1.
</event>
<event>
 4    1  0.3099057E+006  0.2230977E+02  0.7546771E-02  0.1501352E+00
         21   -1    0    0  502  501  0.00000000000E+00  0.00000000000E+00  0.77244931981E+01  0.77244931981E+01  0.00000000000E+00 0.  1.
         21   -1    0    0  504  502 -0.00000000000E+00 -0.00000000000E+00 -0.42444917709E+03  0.42444917709E+03  0.00000000000E+00 0. -1.
         21    1    1    2  503  501  0.54452330601E+01  0.21635047490E+02 -0.93521085844E+01  0.24190654765E+02  0.00000000000E+00 0.  1.
         21    1    1    2  504  503 -0.54452330601E+01 -0.21635047490E+02 -0.40737257530E+03  0.40798301552E+03  0.00000000000E+00 0. -1.
</event>
<event>
 4    1  0.3099057E+006  0.2365143E+02  0.7546771E-02  0.1484476E+00
         21   -1    0    0  503  501  0.00000000000E+00  0.00000000000E+00  0.14145903291E+02  0.14145903291E+02  0.00000000000E+00 0.  1.
         21   -1    0    0  504  502 -0.00000000000E+00 -0.00000000000E+00 -0.81812335454E+02  0.81812335454E+02  0.00000000000E+00 0.  1.
         21    1    1    2  503  502 -0.23472257229E+02 -0.29057004047E+01  0.65326391445E+00  0.23660446065E+02  0.00000000000E+00 0.  1.
         21    1    1    2  504  501  0.23472257229E+02  0.29057004047E+01 -0.68319696078E+02  0.72297792680E+02  0.00000000000E+00 0.  1.
</event>
<event>
 4    1  0.3099057E+006  0.2068749E+02  0.7546771E-02  0.1523774E+00
         21   -1    0    0  504  501  0.00000000000E+00  0.00000000000E+00  0.69918182093E+03  0.69918182093E+03  0.00000000000E+00 0.  1.
         21   -1    0    0  503  502 -0.00000000000E+00 -0.00000000000E+00 -0.60977553188E+01  0.60977553188E+01  0.00000000000E+00 0. -1.
         21    1    1    2  503  501 -0.12326850482E+02 -0.16613880741E+02  0.12069546526E+02  0.23950912915E+02  0.00000000000E+00 0. -1.
         21    1    1    2  504  502  0.12326850482E+02  0.16613880741E+02  0.68101451909E+03  0.68132866334E+03  0.00000000000E+00 0.  1.
</event>
<event>
 4    1  0.3099057E+006  0.2277266E+02  0.7546771E-02  0.1495373E+00
         21   -1    0    0  503  501  0.00000000000E+00  0.00000000000E+00  0.27114172474E+02  0.27114172474E+02  0.00000000000E+00 0. -1.
         21   -1    0    0  504  502 -0.00000000000E+00 -0.00000000000E+00 -0.38379373460E+02  0.38379373460E+02  0.00000000000E+00 0. -1.
         21    1    1    2  503  502 -0.10477053551E+02  0.20219426654E+02  0.17561074866E+02  0.28757350639E+02  0.00000000000E+00 0. -1.
         21    1    1    2  504  501  0.10477053551E+02 -0.20219426654E+02 -0.28826275851E+02  0.36736195295E+02  0.00000000000E+00 0. -1.
</event>
<event>
 4    1  0.3099057E+006  0.3944046E+02  0.7546771E-02  0.1351796E+00
         21   -1    0    0  504  501  0.00000000000E+00  0.00000000000E+00  0.16963039249E+04  0.16963039249E+04  0.00000000000E+00 0. -1.
         21   -1    0    0  503  502 -0.00000000000E+00 -0.00000000000E+00 -0.37292489285E+01  0.37292489285E+01  0.00000000000E+00 0.  1.
         21    1    1    2  503  501  0.20098248652E+02 -0.33935379360E+02  0.15844325791E+04  0.15849233885E+04  0.00000000000E+00 0. -1.
         21    1    1    2  504  502 -0.20098248652E+02  0.33935379360E+02  0.10814209681E+03  0.11510978531E+03  0.00000000000E+00 0.  1.
</event>
<event>
 4    1  0.3099057E+006  0.3935884E+02  0.7546771E-02  0.1352284E+00
         21   -1    0    0  503  501  0.00000000000E+00  0.00000000000E+00  0.14801186538E+02  0.14801186538E+02  0.00000000000E+00 0. -1.
         21   -1    0    0  501  502 -0.00000000000E+00 -0.00000000000E+00 -0.61618292435E+03  0.61618292435E+03  0.00000000000E+00 0. -1.
         21    1    1    2  503  504  0.20334112788E+02 -0.33699294604E+02 -0.13238831439E+02  0.41525718026E+02  0.00000000000E+00 0. -1.
         21    1    1    2  504  502 -0.20334112788E+02  0.33699294604E+02 -0.58814290637E+03  0.58945839286E+03  0.00000000000E+00 0. -1.
</event>
<event>
 4    1  0.3099057E+006  0.3788891E+02  0.7546771E-02  0.1361321E+00
         21   -1    0    0  504  501  0.00000000000E+00  0.00000000000E+00  0.12871689006E+03  0.12871689006E+03  0.00000000000E+00 0. -1.
         21   -1    0    0  503  502 -0.00000000000E+00 -0.00000000000E+00 -0.43347870531E+02  0.43347870531E+02  0.00000000000E+00 0. -1.
         21    1    1    2  503  501 -0.23744501700E+02  0.29525717520E+02 -0.31458792782E+02  0.49246573479E+02  0.00000000000E+00 0. -1.
         21    1    1    2  504  502  0.23744501700E+02 -0.29525717520E+02  0.11682781231E+03  0.12281818711E+03  0.00000000000E+00 0. -1.
</event>
<event>
 4    1  0.3099057E+006  0.2280694E+02  0.7546771E-02  0.1494937E+00
         21   -1    0    0  504  501  0.00000000000E+00  0.00000000000E+00  0.78786395022E+02  0.78786395022E+02  0.00000000000E+00 0.  1.
         21   -1    0    0  501  502 -0.00000000000E+00 -0.00000000000E+00 -0.35164503913E+02  0.35164503913E+02  0.00000000000E+00 0.  1.
         21    1    1    2  503  502  0.10299518291E+02  0.20348870685E+02 -0.29538149984E+02  0.37318345618E+02  0.00000000000E+00 0.  1.
         21    1    1    2  504  503 -0.10299518291E+02 -0.20348870685E+02  0.73160041093E+02  0.76632553317E+02  0.00000000000E+00 0.  1.
</event>
<event>
 4    1  0.3099057E+006  0.6083325E+02  0.7546771E-02  0.1257027E+00
         21   -1    0    0  503  501  0.00000000000E+00  0.00000000000E+00  0.42976569449E+03  0.42976569449E+03  0.00000000000E+00 0.  1.
         21   -1    0    0  504  502 -0.00000000000E+00 -0.00000000000E+00 -0.12615923781E+03  0.12615923781E+03  0.00000000000E+00 0.  1.
         21    1    1    2  503  502 -0.79608866257E+01 -0.60310107314E+02  0.42011196115E+03  0.42449351545E+03  0.00000000000E+00 0.  1.
         21    1    1    2  504  501  0.79608866257E+01  0.60310107314E+02 -0.11650550448E+03  0.13143141684E+03  0.00000000000E+00 0.  1.
</event>
<event>
 4    1  0.3099057E+006  0.2389075E+02  0.7546771E-02  0.1481606E+00
         21   -1    0    0  503  501  0.00000000000E+00  0.00000000000E+00  0.23685078098E+01  0.23685078098E+01  0.00000000000E+00 0.  1.
         21   -1    0    0  501  502 -0.00000000000E+00 -0.00000000000E+00 -0.40870092990E+03  0.40870092990E+03  0.00000000000E+00 0.  1.
         21    1    1    2  503  504  0.23864952901E+02  0.11100080878E+01 -0.71500335121E+02  0.75386112895E+02  0.00000000000E+00 0.  1.
         21    1    1    2  504  502 -0.23864952901E+02 -0.11100080878E+01 -0.33483208697E+03  0.33568332482E+03  0.00000000000E+00 0.  1.
</event>
<event>
 4    1  0.3099057E+006  0.2329196E+02  0.7546771E-02  0.1488864E+00
         21   -1    0    0  503  501  0.00000000000E+00  0.00000000000E+00  0.10339929417E+02  0.10339929417E+02  0.00000000000E+00 0. -1.
         21   -1    0    0  501  502 -0.00000000000E+00 -0.00000000000E+00 -0.36770259470E+03  0.36770259470E+03  0.00000000000E+00 0.  1.
         21    1    1    2  503  504  0.20035208240E+02  0.11878800218E+02 -0.36647320233E+01  0.23578501322E+02  0.00000000000E+00 0. -1.
         21    1    1    2  504  502 -0.20035208240E+02 -0.11878800218E+02 -0.35369793326E+03  0.35446402279E+03  0.00000000000E+00 0.  1.
</event>
<event>
 4    1  0.3099057E+006  0.2301343E+02  0.7546771E-02  0.1492330E+00
         21   -1    0    0  502  501  0.00000000000E+00  0.00000000000E+00  0.13458456720E+02  0.13458456720E+02  0.00000000000E+00 0. -1.
         21   -1    0    0  504  502 -0.00000000000E+00 -0.00000000000E+00 -0.46496833142E+02  0.46496833142E+02  0.00000000000E+00 0. -1.
         21    1    1    2  503  501  0.17413381836E+02 -0.15046324557E+02 -0.47680319014E+01  0.23502167514E+02  0.00000000000E+00 0. -1.
         21    1    1    2  504  503 -0.17413381836E+02  0.15046324557E+02 -0.28270344520E+02  0.36453122348E+02  0.00000000000E+00 0. -1.
</event>
<event>
 4    1  0.3099057E+006  0.2658448E+02  0.7546771E-02  0.1451827E+00
         21   -1    0    0  502  501  0.00000000000E+00  0.00000000000E+00  0.17823381436E+03  0.17823381436E+03  0.00000000000E+00 0.  1.
         21   -1    0    0  504  502 -0.00000000000E+00 -0.00000000000E+00 -0.52057165917E+01  0.52057165917E+01  0.00000000000E+00 0.  1.
         21    1    1    2  503  501 -0.15594837728E+02 -0.21529883289E+02  0.13128763540E+03  0.13395214835E+03  0.00000000000E+00 0.  1.
         21    1    1    2  504  503  0.15594837728E+02  0.21529883289E+02  0.41740462366E+02  0.49487382601E+02  0.00000000000E+00 0.  1.
</event>
<event>
 4    1  0.3099057E+006  0.2931734E+02  0.7546771E-02  0.1425623E+00
         21   -1    0    0  503  501  0.00000000000E+00  0.00000000000E+00  0.21414236210E+02  0.21414236210E+02  0.00000000000E+00 0.  1.
         21   -1    0    0  504  502 -0.00000000000E+00 -0.00000000000E+00 -0.65882269130E+02  0.65882269130E+02  0.00000000000E+00 0.  1.
         21    1    1    2  503  502  0.22264606185E+02 -0.19073378769E+02  0.50513643457E+01  0.29749331892E+02  0.00000000000E+00 0.  1.
         21    1    1    2  504  501 -0.22264606185E+02  0.19073378769E+02 -0.49519397266E+02  0.57547173448E+02  0.00000000000E+00 0.  1.
</event>
<event>
 4    1  0.3099057E+006  0.2484569E+02  0.7546771E-02  0.1470537E+00
         21   -1    0    0  503  501  0.00000000000E+00  0.00000000000E+00  0.61702787218E+01  0.61702787218E+01  0.00000000000E+00 0.  1.
         21   -1    0    0  501  502 -0.00000000000E+00 -0.00000000000E+00 -0.13506994540E+03  0.13506994540E+03  0.00000000000E+00 0.  1.
         21    1    1    2  503  504 -0.10072295378E+02 -0.22712486796E+02 -0.28488556361E+02  0.37800873458E+02  0.00000000000E+00 0.  1.
         21    1    1    2  504  502  0.10072295378E+02  0.22712486796E+02 -0.10041111032E+03  0.10343935067E+03  0.00000000000E+00 0.  1.
</event>
<event>
 4    1  0.3099057E+006  0.3032605E+02  0.7546771E-02  0.1416784E+00
         21   -1    0    0  504  501  0.00000000000E+00  0.00000000000E+00  0.56495878067E+02  0.56495878067E+02  0.00000000000E+00 0.  1.
         21   -1    0    0  503  502 -0.00000000000E+00 -0.00000000000E+00 -0.18201862352E+02  0.18201862352E+02  0.00000000000E+00 0. -1.
         21    1    1    2  503  501  0.29936411941E+02 -0.48456658562E+01  0.31287825632E+02  0.43572896051E+02  0.00000000000E+00 0.  1.
         21    1    1    2  504  502 -0.29936411941E+02  0.48456658562E+01  0.70061900824E+01  0.31124844368E+02  0.00000000000E+00 0. -1.
</event>
<event>
 4    1  0.3099057E+006  0.2457142E+02  0.7546771E-02  0.1473655E+00
         21   -1    0    0  502  501  0.00000000000E+00  0.00000000000E+00  0.83124490207E+01  0.83124490207E+01  0.00000000000E+00 0.  1.
         21   -1    0    0  503  502 -0.00000000000E+00 -0.00000000000E+00 -0.11670167963E+03  0.11670167963E+03  0.00000000000E+00 0.  1.
         21    1    1    2  503  504 -0.22307712764E+02  0.10301493004E+02 -0.92605784453E+02  0.95810156669E+02  0.00000000000E+00 0.  1.
         21    1    1    2  504  501  0.22307712764E+02 -0.10301493004E+02 -0.15783446155E+02  0.29203971979E+02  0.00000000000E+00 0.  1.
</event>
<event>
 4    1  0.3099057E+006  0.2195299E+02  0.7546771E-02  0.1506081E+00
         21   -1    0    0  502  501  0.00000000000E+00  0.00000000000E+00  0.26661917187E+02  0.26661917187E+02  0.00000000000E+00 0.  1.
         21   -1    0    0  503  502 -0.00000000000E+00 -0.00000000000E+00 -0.78796049157E+02  0.78796049157E+02  0.00000000000E+00 0.  1.
         21    1    1    2  503  504  0.14691410928E+02 -0.16312453617E+02 -0.72354615228E+02  0.75611666050E+02  0.00000000000E+00 0.  1.
         21    1    1    2  504  501 -0.14691410928E+02  0.16312453617E+02  0.20220483258E+02  0.29846300294E+02  0.00000000000E+00 0.  1.
</event>
<event>
 4    1  0.3099057E+006  0.2176158E+02  0.7546771E-02  0.1508663E+00
         21   -1    0    0  502  501  0.00000000000E+00  0.00000000000E+00  0.18825493693E+02  0.18825493693E+02  0.00000000000E+00 0.  1.
         21   -1    0    0  504  502 -0.00000000000E+00 -0.00000000000E+00 -0.19643046526E+03  0.19643046526E+03  0.00000000000E+00 0.  1.
         21    1    1    2  503  501 -0.21783064010E+01 -0.21652279162E+02  0.11697871866E+02  0.24706404390E+02  0.00000000000E+00 0.  1.
         21    1    1    2  504  503  0.21783064010E+01  0.21652279162E+02 -0.18930284343E+03  0.19054955456E+03  0.00000000000E+00 0.  1.
</event>
<event>
 4    1  0.3099057E+006  0.2971387E+02  0.7546771E-02  0.1422099E+00
         21   -1    0    0  502  501  0.00000000000E+00  0.00000000000E+00  0.29016477720E+02  0.29016477720E+02  0.00000000000E+00 0. -1.
         21   -1    0    0  503  502 -0.00000000000E+00 -0.00000000000E+00 -0.81275185159E+02  0.81275185159E+02  0.00000000000E+00 0.  1.
         21    1    1    2  503  504  0.19437180865E+02  0.22474654560E+02 -0.69747485290E+02  0.75813097825E+02  0.00000000000E+00 0.  1.
         21    1    1    2  504  501 -0.19437180865E+02 -0.22474654560E+02  0.17488777851E+02  0.34478565055E+02  0.00000000000E+00 0. -1.
</event>
<event>
 4    1  0.3099057E+006  0.2027222E+02  0.7546771E-02  0.1529914E+00
         21   -1    0    0  502  501  0.00000000000E+00  0.00000000000E+00  0.24769438277E+02  0.24769438277E+02  0.00000000000E+00 0. -1.
         21   -1    0    0  503  502 -0.00000000000E+00 -0.00000000000E+00 -0.21183192376E+03  0.21183192376E+03  0.00000000000E+00 0. -1.
         21    1    1    2  503  504 -0.14535702899E+02 -0.14130682796E+02 -0.20710457757E+03  0.20809437500E+03  0.00000000000E+00 0. -1.
         21    1    1    2  504  501  0.14535702899E+02  0.14130682796E+02  0.20042092085E+02  0.28506987042E+02  0.00000000000E+00 0. -1.
</event>
<event>
 4    1  0.3099057E+006  0.2400183E+02  0.7546771E-02  0.1480287E+00
         21   -1    0    0  503  501  0.00000000000E+00  0.00000000000E+00  0.86315506705E+01  0.86315506705E+01  0.00000000000E+00 0. -1.
         21   -1    0    0  501  502 -0.00000000000E+00 -0.00000000000E+00 -0.17144236033E+03  0.17144236033E+03  0.00000000000E+00 0. -1.
         21    1    1    2  503  504  0.86932376842E+01 -0.22372200103E+02 -0.11043816050E+02  0.26420703849E+02  0.00000000000E+00 0. -1.
         21    1    1    2  504  502 -0.86932376842E+01  0.22372200103E+02 -0.15176699361E+03  0.15365320715E+03  0.00000000000E+00 0. -1.
</event>
<event>
 4    1  0.3099057E+006  0.2757551E+02  0.7546771E-02  0.1441911E+00
         21   -1    0    0  502  501  0.00000000000E+00  0.00000000000E+00  0.97888894187E+03  0.97888894187E+03  0.00000000000E+00 0.  1.
         21   -1    0    0  503  502 -0.00000000000E+00 -0.00000000000E+00 -0.55378796469E+01  0.55378796469E+01  0.00000000000E+00 0.  1.
         21    1    1    2  503  504 -0.11061056533E+02  0.25259886876E+02  0.30287717202E+02  0.40960403684E+02  0.00000000000E+00 0.  1.
         21    1    1    2  504  501  0.11061056533E+02 -0.25259886876E+02  0.94306334503E+03  0.94346641784E+03  0.00000000000E+00 0.  1.
</event>
<event>
 4    1  0.3099057E+006  0.2754447E+02  0.7546771E-02  0.1442214E+00
         21   -1    0    0  503  501  0.00000000000E+00  0.00000000000E+00  0.11679240632E+02  0.11679240632E+02  0.00000000000E+00 0. -1.
         21   -1    0    0  504  502 -0.00000000000E+00 -0.00000000000E+00 -0.84204489636E+02  0.84204489636E+02  0.00000000000E+00 0. -1.
         21    1    1    2  503  502 -0.26763769879E+02  0.65114201660E+01 -0.13344108543E+02  0.30606587584E+02  0.00000000000E+00 0. -1.
         21    1    1    2  504  501  0.26763769879E+02 -0.65114201660E+01 -0.59181140461E+02  0.65277142684E+02  0.00000000000E+00 0. -1.
</event>
<event>
 4    1  0.3099057E+006  0.2601852E+02  0.7546771E-02  0.1457724E+00
         21   -1    0    0  503  501  0.00000000000E+00  0.00000000000E+00  0.20527515069E+03  0.20527515069E+03  0.00000000000E+00 0. -1.
         21   -1    0    0  504  502 -0.00000000000E+00 -0.00000000000E+00 -0.62942534891E+02  0.62942534891E+02  0.00000000000E+00 0.  1.
         21    1    1    2  503  502 -0.24382383099E+02  0.90809106660E+01 -0.59381994812E+02  0.64831973994E+02  0.00000000000E+00 0.  1.
         21    1    1    2  504  501  0.24382383099E+02 -0.90809106660E+01  0.20171461061E+03  0.20338571158E+03  0.00000000000E+00 0. -1.
</event>
<event>
 4    1  0.3099057E+006  0.2718985E+02  0.7546771E-02  0.1445710E+00
         21   -1    0    0  504  501  0.00000000000E+00  0.00000000000E+00  0.50066535573E+02  0.50066535573E+02  0.00000000000E+00 0.  1.
         21   -1    0    0  503  502 -0.00000000000E+00 -0.00000000000E+00 -0.22178049305E+02  0.22178049305E+02  0.00000000000E+00 0. -1.
         21    1    1    2  503  501  0.79290096484E+01 -0.26008050691E+02  0.34826604364E+02  0.44183484090E+02  0.00000000000E+00 0.  1.
         21    1    1    2  504  502 -0.79290096484E+01  0.26008050691E+02 -0.69381180967E+01  0.28061100789E+02  0.00000000000E+00 0. -1.
</event>
<event>
 4    1  0.3099057E+006  0.2107605E+02  0.7546771E-02  0.1518182E+00
         21   -1    0    0  503  501  0.00000000000E+00  0.00000000000E+00  0.35521706146E+02  0.35521706146E+02  0.00000000000E+00 0.  1.
         21   -1    0    0  504  502 -0.00000000000E+00 -0.00000000000E+00 -0.13428256634E+02  0.13428256634E+02  0.00000000000E+00 0.  1.
         21    1    1    2  503  502  0.18251993651E+02 -0.10538725628E+02  0.17464236264E+02  0.27371509976E+02  0.00000000000E+00 0.  1.
         21    1    1    2  504  501 -0.18251993651E+02  0.10538725628E+02  0.46292132480E+01  0.21578452804E+02  0.00000000000E+00 0.  1.
</event>
<event>
 4    1  0.3099057E+006  0.2667458E+02  0.7546771E-02  0.1450905E+00
         21   -1    0    0  503  501  0.00000000000E+00  0.00000000000E+00  0.40704829709E+01  0.40704829709E+01  0.00000000000E+00 0.  1.
         21   -1    0    0  504  502 -0.00000000000E+00 -0.00000000000E+00 -0.23524229083E+03  0.23524229083E+03  0.00000000000E+00 0.  1.
         21    1    1    2  503  502 -0.26404116603E+02 -0.37888920298E+01 -0.54934972466E+02  0.61068684907E+02  0.00000000000E+00 0.  1.
         21    1    1    2  504  501  0.26404116603E+02  0.37888920298E+01 -0.17623683540E+03  0.17824408890E+03  0.00000000000E+00 0.  1.
</event>
<event>
 4    1  0.3099057E+006  0.4725209E+02  0.7546771E-02  0.1310547E+00
         21   -1    0    0  502  501  0.00000000000E+00  0.00000000000E+00  0.79453867521E+03  0.79453867521E+03  0.00000000000E+00 0. -1.
         21   -1    0    0  504  502 -0.00000000000E+00 -0.00000000000E+00 -0.62887171977E+02  0.62887171977E+02  0.00000000000E+00 0. -1.
         21    1    1    2  503  501  0.45306492184E+02 -0.13419455237E+02  0.78485062134E+03  0.78627174554E+03  0.00000000000E+00 0. -1.
         21    1    1    2  504  503 -0.45306492184E+02  0.13419455237E+02 -0.53199118113E+02  0.71154101645E+02  0.00000000000E+00 0. -1.
</event>
<event>
 4    1  0.3099057E+006  0.5235489E+02  0.7546771E-02  0.1288273E+00
         21   -1    0    0  503  501  0.00000000000E+00  0.00000000000E+00  0.87985272016E+01  0.87985272016E+01  0.00000000000E+00 0. -1.
         21   -1    0    0  504  502 -0.00000000000E+00 -0.00000000000E+00 -0.38813204399E+03  0.38813204399E+03  0.00000000000E+00 0.  1.
         21    1    1    2  503  502 -0.35300267579E+02 -0.38664271969E+02 -0.27783363047E+03  0.28272347097E+03  0.00000000000E+00 0.  1.
         21    1    1    2  504  501  0.35300267579E+02  0.38664271969E+02 -0.10149988632E+03  0.11420710022E+03  0.00000000000E+00 0. -1.
</event>
<event>
 4    1  0.3099057E+006  0.2685583E+02  0.7546771E-02  0.1449062E+00
         21   -1    0    0  504  501  0.00000000000E+00  0.00000000000E+00  0.45390437685E+02  0.45390437685E+02  0.00000000000E+00 0. -1.
         21   -1    0    0  503  502 -0.00000000000E+00 -0.00000000000E+00 -0.25041468241E+02  0.25041468241E+02  0.00000000000E+00 0. -1.
         21    1    1    2  503  501 -0.18603231926E+02 -0.19368932758E+02  0.31463936822E+02  0.41366835927E+02  0.00000000000E+00 0. -1.
         21    1    1    2  504  502  0.18603231926E+02  0.19368932758E+02 -0.11114967378E+02  0.29065070000E+02  0.00000000000E+00 0. -1.
</event>
<event>
 4    1  0.3099057E+006  0.2054660E+02  0.7546771E-02  0.1525838E+00
         21   -1    0    0  502  501  0.00000000000E+00  0.00000000000E+00  0.24837731821E+02  0.24837731821E+02  0.00000000000E+00 0. -1.
         21   -1    0    0  504  502 -0.00000000000E+00 -0.00000000000E+00 -0.85291792060E+02  0.85291792060E+02  0.00000000000E+00 0.  1.
         21    1    1    2  503  501 -0.20461687247E+02  0.18660678428E+01  0.19046588903E+02  0.28016698646E+02  0.00000000000E+00 0. -1.
         21    1    1    2  504  503  0.20461687247E+02 -0.18660678428E+01 -0.79500649142E+02  0.82112825235E+02  0.00000000000E+00 0.  1.
</event>
<event>
 4    1  0.3099057E+006  0.2709818E+02  0.7546771E-02  0.1446624E+00
         21   -1    0    0  503  501  0.00000000000E+00  0.00000000000E+00  0.44093574859E+01  0.44093574859E+01  0.00000000000E+00 0. -1.
         21   -1    0    0  504  502 -0.00000000000E+00 -0.00000000000E+00 -0.17745645404E+03  0.17745645404E+03  0.00000000000E+00 0. -1.
         21    1    1    2  503  502 -0.19079251168E+02  0.19243015791E+02 -0.63964575998E+02  0.69467823231E+02  0.00000000000E+00 0. -1.
         21    1    1    2  504  501  0.19079251168E+02 -0.19243015791E+02 -0.10908252055E+03  0.11239798829E+03  0.00000000000E+00 0. -1.
</event>
<event>
 4    1  0.3099057E+006  0.2088092E+02  0.7546771E-02  0.1520972E+00
         21   -1    0    0  503  501  0.00000000000E+00  0.00000000000E+00  0.11624152638E+02  0.11624152638E+02  0.00000000000E+00 0. -1.
         21   -1    0    0  504  502 -0.00000000000E+00 -0.00000000000E+00 -0.74323416275E+02  0.74323416275E+02  0.00000000000E+00 0. -1.
         21    1    1    2  503  502  0.69568185641E+00 -0.20869324411E+02 -0.11049831010E+01  0.20910133005E+02  0.00000000000E+00 0. -1.
         21    1    1    2  504  501 -0.69568185641E+00  0.20869324411E+02 -0.61594280536E+02  0.65037435908E+02  0.00000000000E+00 0. -1.
</event>
<event>
 4    1  0.3099057E+006  0.2403164E+02  0.7546771E-02  0.1479935E+00
         21   -1    0    0  502  501  0.00000000000E+00  0.00000000000E+00  0.10779703917E+02  0.10779703917E+02  0.00000000000E+00 0.  1.
         21   -1    0    0  504  502 -0.00000000000E+00 -0.00000000000E+00 -0.11663916443E+03  0.11663916443E+03  0.00000000000E+00 0.  1.
         21    1    1    2  503  501  0.20681377504E+02  0.12239288294E+02 -0.60835854958E+01  0.24789706854E+02  0.00000000000E+00 0.  1.
         21    1    1    2  504  503 -0.20681377504E+02 -0.12239288294E+02 -0.99775875016E+02  0.10262916149E+03  0.00000000000E+00 0.  1.
</event>
<event>
 4    1  0.3099057E+006  0.2333433E+02  0.7546771E-02  0.1488342E+00
         21   -1    0    0  503  501  0.00000000000E+00  0.00000000000E+00  0.12132718289E+03  0.12132718289E+03  0.00000000000E+00 0. -1.
         21   -1    0    0  501  502 -0.00000000000E+00 -0.00000000000E+00 -0.14977838324E+02  0.14977838324E+02  0.00000000000E+00 0. -1.
         21    1    1    2  503  504  0.25548532687E+01  0.23194042670E+02  0.11021027549E+03  0.11265343188E+03  0.00000000000E+00 0. -1.
         21    1    1    2  504  502 -0.25548532687E+01 -0.23194042670E+02 -0.38609309215E+01  0.23651589337E+02  0.00000000000E+00 0. -1.
</event>
<event>
 4    1  0.3099057E+006  0.2112204E+02  0.7546771E-02  0.1517529E+00
         21   -1    0    0  502  501  0.00000000000E+00  0.00000000000E+00  0.14584820056E+03  0.14584820056E+03  0.00000000000E+00 0. -1.
         21   -1    0    0  504  502 -0.00000000000E+00 -0.00000000000E+00 -0.18440629384E+03  0.18440629384E+03  0.00000000000E+00 0. -1.
         21    1    1    2  503  501 -0.50184007196E+01 -0.20517219593E+02  0.14447290496E+03  0.14600876999E+03  0.00000000000E+00 0. -1.
         21    1    1    2  504  503  0.50184007196E+01  0.20517219593E+02 -0.18303099824E+03  0.18424572441E+03  0.00000000000E+00 0. -1.
</event>
<event>
 4    1  0.3099057E+006  0.2489926E+02  0.7546771E-02  0.1469934E+00
         21   -1    0    0  502  501  0.00000000000E+00  0.00000000000E+00  0.90826713407E+01  0.90826713407E+01  0.00000000000E+00 0.  1.
         21   -1    0    0  504  502 -0.00000000000E+00 -0.00000000000E+00 -0.10283127669E+03  0.10283127669E+03  0.00000000000E+00 0. -1.
         21    1    1    2  503  501  0.24808303316E+02  0.21263698877E+01 -0.14428682348E+02  0.28777773309E+02  0.00000000000E+00 0.  1.
         21    1    1    2  504  503 -0.24808303316E+02 -0.21263698877E+01 -0.79319923002E+02  0.83136174721E+02  0.00000000000E+00 0. -1.
</event>
<event>
 4    1  0.3099057E+006  0.2019290E+02  0.7546771E-02  0.1531107E+00
         21   -1    0    0  503  501  0.00000000000E+00  0.00000000000E+00  0.15516727297E+03  0.15516727297E+03  0.00000000000E+00 0.  1.
         21   -1    0    0  504  502 -0.00000000000E+00 -0.00000000000E+00 -0.21052672142E+02  0.21052672142E+02  0.00000000000E+00 0. -1.
         21    1    1    2  503  502 -0.19715650923E+02  0.43642103481E+01 -0.15370429535E+02  0.25377220640E+02  0.00000000000E+00 0. -1.
         21    1    1    2  504  501  0.19715650923E+02 -0.43642103481E+01  0.14948503036E+03  0.15084272447E+03  0.00000000000E+00 0.  1.
</event>
<event>
 4    1  0.3099057E+006  0.2815750E+02  0.7546771E-02  0.1436315E+00
         21   -1    0    0  504  501  0.00000000000E+00  0.00000000000E+00  0.17372703125E+02  0.17372703125E+02  0.00000000000E+00 0.  1.
         21   -1    0    0  503  502 -0.00000000000E+00 -0.00000000000E+00 -0.16815520842E+03  0.16815520842E+03  0.00000000000E+00 0. -1.
         21    1    1    2  503  501  0.27850546128E+02  0.41463098659E+01  0.37902479897E+01  0.28411455171E+02  0.00000000000E+00 0.  1.
         21    1    1    2  504  502 -0.27850546128E+02 -0.41463098659E+01 -0.15457275329E+03  0.15711645638E+03  0.00000000000E+00 0. -1.
</event>
<event>
 4    1  0.3099057E+006  0.2833867E+02  0.7546771E-02  0.1434605E+00
         21   -1    0    0  503  501  0.00000000000E+00  0.00000000000E+00  0.29050038374E+02  0.29050038374E+02  0.00000000000E+00 0.  1.
         21   -1    0    0  504  502 -0.00000000000E+00 -0.00000000000E+00 -0.19067329724E+03  0.19067329724E+03  0.00000000000E+00 0. -1.
         21    1    1    2  503  502 -0.24274287887E+02 -0.14623242834E+02  0.20774195984E+02  0.35137551170E+02  0.00000000000E+00 0.  1.
         21    1    1    2  504  501  0.24274287887E+02  0.14623242834E+02 -0.18239745485E+03  0.18458578444E+03  0.00000000000E+00 0. -1.
</event>
<event>
 4    1  0.3099057E+006  0.3097990E+02  0.7546771E-02  0.1411268E+00
         21   -1    0    0  504  501  0.00000000000E+00  0.00000000000E+00  0.14338977773E+02  0.14338977773E+02  0.00000000000E+00 0.  1.
         21   -1    0    0  503  502 -0.00000000000E+00 -0.00000000000E+00 -0.72762779242E+02  0.72762779242E+02  0.00000000000E+00 0.  1.
         21    1    1    2  503  501  0.25743641883E+02  0.17234242919E+02 -0.16884842931E+02  0.35282462318E+02  0.00000000000E+00 0.  1.
         21    1    1    2  504  502 -0.25743641883E+02 -0.17234242919E+02 -0.41538958539E+02  0.51819294697E+02  0.00000000000E+00 0.  1.
</event>
<event>
 4    1  0.3099057E+006  0.2672982E+02  0.7546771E-02  0.1450341E+00
         21   -1    0    0  504  501  0.00000000000E+00  0.00000000000E+00  0.89006695047E+02  0.89006695047E+02  0.00000000000E+00 0. -1.
         21   -1    0    0  503  502 -0.00000000000E+00 -0.00000000000E+00 -0.64747994332E+02  0.64747994332E+02  0.00000000000E+00 0.  1.
         21    1    1    2  503  501  0.15451182690E+02  0.21811564812E+02  0.84083523257E+02  0.88229939870E+02  0.00000000000E+00 0. -1.
         21    1    1    2  504  502 -0.15451182690E+02 -0.21811564812E+02 -0.59824822542E+02  0.65524749509E+02  0.00000000000E+00 0.  1.
</event>
<event>
 4    1  0.3099057E+006  0.2511140E+02  0.7546771E-02  0.1467561E+00
         21   -1    0    0  504  501  0.00000000000E+00  0.00000000000E+00  0.58009794815E+02  0.58009794815E+02  0.00000000000E+00 0.  1.
         21   -1    0    0  501  502 -0.00000000000E+00 -0.00000000000E+00 -0.48240271405E+02  0.48240271405E+02  0.00000000000E+00 0. -1.
         21    1    1    2  503  502 -0.24665390007E+02  0.47117703852E+01 -0.41873234172E+02  0.48825710280E+02  0.00000000000E+00 0. -1.
         21    1    1    2  504  503  0.24665390007E+02 -0.47117703852E+01  0.51642757583E+02  0.57424355940E+02  0.00000000000E+00 0.  1.
</event>
<event>
 4    1  0.3099057E+006  0.2077376E+02  0.7546771E-02  0.1522520E+00
         21   -1    0    0  504  501  0.00000000000E+00  0.00000000000E+00  0.61169345182E+01  0.61169345182E+01  0.00000000000E+00 0. -1.
         21   -1    0    0  503  502 -0.00000000000E+00 -0.00000000000E+00 -0.76992310522E+02  0.76992310522E+02  0.00000000000E+00 0. -1.
         21    1    1    2  503  501  0.19908840265E+02 -0.59318684064E+01 -0.47458134704E+02  0.51805632252E+02  0.00000000000E+00 0. -1.
         21    1    1    2  504  502 -0.19908840265E+02  0.59318684064E+01 -0.23417241300E+02  0.31303612788E+02  0.00000000000E+00 0. -1.
</event>
<event>
 4    1  0.3099057E+006  0.2240515E+02  0.7546771E-02  0.1500106E+00
         21   -1    0    0  502  501  0.00000000000E+00  0.00000000000E+00  0.96570102283E+02  0.96570102283E+02  0.00000000000E+00 0.  1.
         21   -1    0    0  504  502 -0.00000000000E+00 -0.00000000000E+00 -0.12256122706E+03  0.12256122706E+03  0.00000000000E+00 0. -1.
         21    1    1    2  503  501 -0.17702011735E+02  0.13734247814E+02  0.94221419346E+02  0.96848679114E+02  0.00000000000E+00 0.  1.
         21    1    1    2  504  503  0.17702011735E+02 -0.13734247814E+02 -0.12021254412E+03  0.12228265023E+03  0.00000000000E+00 0. -1.
</event>
<event>
 4    1  0.3099057E+006  0.2937370E+02  0.7546771E-02  0.1425118E+00
         21   -1    0    0  503  501  0.00000000000E+00  0.00000000000E+00  0.33577733693E+02  0.33577733693E+02  0.00000000000E+00 0. -1.
         21   -1    0    0  501  502 -0.00000000000E+00 -0.00000000000E+00 -0.27330224341E+02  0.27330224341E+02  0.00000000000E+00 0. -1.
         21    1    1    2  503  504 -0.29373611547E+02 -0.71832308639E-01  0.10570649762E+02  0.31217829066E+02  0.00000000000E+00 0. -1.
         21    1    1    2  504  502  0.29373611547E+02  0.71832308639E-01 -0.43231404100E+01  0.29690128969E+02  0.00000000000E+00 0. -1.
</event>
<event>
 4    1  0.3099057E+006  0.2651401E+02  0.7546771E-02  0.1452552E+00
         21   -1    0    0  503  501  0.00000000000E+00  0.00000000000E+00  0.71977828992E+01  0.71977828992E+01  0.00000000000E+00 0.  1.
         21   -1    0    0  504  502 -0.00000000000E+00 -0.00000000000E+00 -0.12865422473E+03  0.12865422473E+03  0.00000000000E+00 0.  1.
         21    1    1    2  503  502  0.18395853149E+02 -0.19094118009E+02 -0.94063851046E+02  0.97729221982E+02  0.00000000000E+00 0.  1.
         21    1    1    2  504  501 -0.18395853149E+02  0.19094118009E+02 -0.27392590785E+02  0.38122785647E+02  0.00000000000E+00 0.  1.
</event>
<event>
 4    1  0.3099057E+006  0.3477111E+02  0.7546771E-02  0.1382180E+00
         21   -1    0    0  504  501  0.00000000000E+00  0.00000000000E+00  0.66726284233E+02  0.66726284233E+02  0.00000000000E+00 0. -1.
         21   -1    0    0  503  502 -0.00000000000E+00 -0.00000000000E+00 -0.72337358946E+02  0.72337358946E+02  0.00000000000E+00 0.  1.
         21    1    1    2  503  501  0.10736774997E+02  0.33071917634E+02  0.57391410921E+02  0.67102936753E+02  0.00000000000E+00 0. -1.
         21    1    1    2  504  502 -0.10736774997E+02 -0.33071917634E+02 -0.63002485634E+02  0.71960706427E+02  0.00000000000E+00 0.  1.
</event>
<event>
 4    1  0.3099057E+006  0.2283747E+02  0.7546771E-02  0.1494549E+00
         21   -1    0    0  502  501  0.00000000000E+00  0.00000000000E+00  0.34287452115E+02  0.34287452115E+02  0.00000000000E+00 0.  1.
         21   -1    0    0  504  502 -0.00000000000E+00 -0.00000000000E+00 -0.25416579029E+02  0.25416579029E+02  0.00000000000E+00 0.  1.
         21    1    1    2  503  501 -0.20579251567E+02  0.99017283392E+01  0.23351546769E+02  0.32662586481E+02  0.00000000000E+00 0.  1.
         21    1    1    2  504  503  0.20579251567E+02 -0.99017283392E+01 -0.14480673682E+02  0.27041444663E+02  0.00000000000E+00 0.  1.
</event>
<event>
 4    1  0.3099057E+006  0.2286759E+02  0.7546771E-02  0.1494168E+00
         21   -1    0    0  504  501  0.00000000000E+00  0.00000000000E+00  0.11067328969E+03  0.11067328969E+03  0.00000000000E+00 0. -1.
         21   -1    0    0  501  502 -0.00000000000E+00 -0.00000000000E+00 -0.31403617604E+02  0.31403617604E+02  0.00000000000E+00 0. -1.
         21    1    1    2  503  502  0.40793851306E+01  0.22500786224E+02 -0.25841693629E+02  0.34506809376E+02  0.00000000000E+00 0. -1.
         21    1    1    2  504  503 -0.40793851306E+01 -0.22500786224E+02  0.10511136572E+03  0.10757009792E+03  0.00000000000E+00 0. -1.
</event>
<event>
 4    1  0.3099057E+006  0.2426759E+02  0.7546771E-02  0.1477166E+00
         21   -1    0    0  502  501  0.00000000000E+00  0.00000000000E+00  0.11949005715E+04  0.11949005715E+04  0.00000000000E+00 0.  1.
         21   -1    0    0  503  502 -0.00000000000E+00 -0.00000000000E+00 -0.98751274695E+02  0.98751274695E+02  0.00000000000E+00 0.  1.
         21    1    1    2  503  504  0.23669588129E+02  0.53541021188E+01 -0.97135134417E+02  0.10012067793E+03  0.00000000000E+00 0.  1.
         21    1    1    2  504  501 -0.23669588129E+02 -0.53541021188E+01  0.11932844312E+04  0.11935311682E+04  0.00000000000E+00 0.  1.
</event>
<event>
 4    1  0.3099057E+006  0.2523498E+02  0.7546771E-02  0.1466192E+00
         21   -1    0    0  503  501  0.00000000000E+00  0.00000000000E+00  0.13376661233E+03  0.13376661233E+03  0.00000000000E+00 0. -1.
         21   -1    0    0  501  502 -0.00000000000E+00 -0.00000000000E+00 -0.16063435875E+02  0.16063435875E+02  0.00000000000E+00 0. -1.
         21    1    1    2  503  504 -0.17458057618E+02  0.18221422679E+02  0.12169274567E+03  0.12428164937E+03  0.00000000000E+00 0. -1.
         21    1    1    2  504  502  0.17458057618E+02 -0.18221422679E+02 -0.39895692243E+01  0.25548398831E+02  0.00000000000E+00 0. -1.
</event>
<event>
 4    1  0.3099057E+006  0.4255887E+02  0.7546771E-02  0.1334110E+00
         21   -1    0    0  504  501  0.00000000000E+00  0.00000000000E+00  0.53100117296E+01  0.53100117296E+01  0.00000000000E+00 0.  1.
         21   -1    0    0  503  502 -0.00000000000E+00 -0.00000000000E+00 -0.53526817105E+03  0.53526817105E+03  0.00000000000E+00 0.  1.
         21    1    1    2  503  501  0.68504906894E+01  0.42003910606E+02 -0.42776961370E+03  0.42988149545E+03  0.00000000000E+00 0.  1.
         21    1    1    2  504  502 -0.68504906894E+01 -0.42003910606E+02 -0.10218854562E+03  0.11069668733E+03  0.00000000000E+00 0.  1.
</event>
<event>
 4    1  0.3099057E+006  0.3256994E+02  0.7546771E-02  0.1398502E+00
         21   -1    0    0  504  501  0.00000000000E+00  0.00000000000E+00  0.61317772949E+03  0.61317772949E+03  0.00000000000E+00 0. -1.
         21   -1    0    0  501  502 -0.00000000000E+00 -0.00000000000E+00 -0.21800550760E+02  0.21800550760E+02  0.00000000000E+00 0.  1.
         21    1    1    2  503  502  0.31741922806E+02 -0.72973699480E+01 -0.89428481753E+01  0.33775372759E+02  0.00000000000E+00 0.  1.
         21    1    1    2  504  503 -0.31741922806E+02  0.72973699480E+01  0.60032002691E+03  0.60120290749E+03  0.00000000000E+00 0. -1.
</event>
<event>
 4    1  0.3099057E+006  0.3069522E+02  0.7546771E-02  0.1413649E+00
         21   -1    0    0  504  501  0.00000000000E+00  0.00000000000E+00  0.19810201689E+02  0.19810201689E+02  0.00000000000E+00 0.  1.
         21   -1    0    0  501  502 -0.00000000000E+00 -0.00000000000E+00 -0.59358705089E+02  0.59358705089E+02  0.00000000000E+00 0. -1.
         21    1    1    2  503  502 -0.14542543619E+02 -0.27031670990E+02 -0.37421527460E+02  0.48400077777E+02  0.00000000000E+00 0. -1.
         21    1    1    2  504  503  0.14542543619E+02  0.27031670990E+02 -0.21269759403E+01  0.30768829000E+02  0.00000000000E+00 0.  1.
</event>
<event>
 4    1  0.3099057E+006  0.2078187E+02  0.7546771E-02  0.1522402E+00
         21   -1    0    0  504  501  0.00000000000E+00  0.00000000000E+00  0.70747253702E+02  0.70747253702E+02  0.00000000000E+00 0. -1.
         21   -1    0    0  503  502 -0.00000000000E+00 -0.00000000000E+00 -0.49691830754E+02  0.49691830754E+02  0.00000000000E+00 0.  1.
         21    1    1    2  503  501  0.20731601989E+02 -0.14445444331E+01  0.66927103817E+02  0.70079406782E+02  0.00000000000E+00 0. -1.
         21    1    1    2  504  502 -0.20731601989E+02  0.14445444331E+01 -0.45871680869E+02  0.50359677674E+02  0.00000000000E+00 0.  1.
</event>
<event>
 4    1  0.3099057E+006  0.2113280E+02  0.7546771E-02  0.1517377E+00
         21   -1    0    0  503  501  0.00000000000E+00  0.00000000000E+00  0.76022825060E+01  0.76022825060E+01  0.00000000000E+00 0. -1.
         21   -1    0    0  504  502 -0.00000000000E+00 -0.00000000000E+00 -0.66475051634E+02  0.66475051634E+02  0.00000000000E+00 0. -1.
         21    1    1    2  503  502 -0.15208036525E+02  0.14673472374E+02 -0.16805882854E+02  0.27000608603E+02  0.00000000000E+00 0. -1.
         21    1    1    2  504  501  0.15208036525E+02 -0.14673472374E+02 -0.42066886274E+02  0.47076725537E+02  0.00000000000E+00 0. -1.
</event>
<event>
 4    1  0.3099057E+006  0.3773219E+02  0.7546771E-02  0.1362313E+00
         21   -1    0    0  504  501  0.00000000000E+00  0.00000000000E+00  0.12699166258E+02  0.12699166258E+02  0.00000000000E+00 0. -1.
         21   -1    0    0  501  502 -0.00000000000E+00 -0.00000000000E+00 -0.66937830329E+03  0.66937830329E+03  0.00000000000E+00 0. -1.
         21    1    1    2  503  502  0.14143844566E+02 -0.34980994414E+02 -0.63951092284E+03  0.64062308633E+03  0.00000000000E+00 0. -1.
         21    1    1    2  504  503 -0.14143844566E+02  0.34980994414E+02 -0.17168214192E+02  0.41454383216E+02  0.00000000000E+00 0. -1.
</event>
<event>
 4    1  0.3099057E+006  0.4186286E+02  0.7546771E-02  0.1337902E+00
         21   -1    0    0  502  501  0.00000000000E+00  0.00000000000E+00  0.22474863353E+03  0.22474863353E+03  0.00000000000E+00 0.  1.
         21   -1    0    0  503  502 -0.00000000000E+00 -0.00000000000E+00 -0.10718312017E+02  0.10718312017E+02  0.00000000000E+00 0. -1.
         21    1    1    2  503  504  0.38720686179E+01 -0.41683403107E+02  0.45556734554E+02  0.61870146865E+02  0.00000000000E+00 0. -1.
         21    1    1    2  504  501 -0.38720686179E+01  0.41683403107E+02  0.16847358696E+03  0.17359679868E+03  0.00000000000E+00 0.  1.
</event>
<event>
 4    1  0.3099057E+006  0.2964005E+02  0.7546771E-02  0.1422751E+00
         21   -1    0    0  503  501  0.00000000000E+00  0.00000000000E+00  0.14581545370E+03  0.14581545370E+03  0.00000000000E+00 0.  1.
         21   -1    0    0  504  502 -0.00000000000E+00 -0.00000000000E+00 -0.10577398321E+02  0.10577398321E+02  0.00000000000E+00 0.  1.
         21    1    1    2  503  502 -0.23191738434E+02  0.18457401522E+02  0.11891927610E+03  0.12255744217E+03  0.00000000000E+00 0.  1.
         21    1    1    2  504  501  0.23191738434E+02 -0.18457401522E+02  0.16318779274E+02  0.33835409848E+02  0.00000000000E+00 0.  1.
</event>
<event>
 4    1  0.3099057E+006  0.3385933E+02  0.7546771E-02  0.1388765E+00
         21   -1    0    0  504  501  0.00000000000E+00  0.00000000000E+00  0.11510541430E+02  0.11510541430E+02  0.00000000000E+00 0. -1.
         21   -1    0    0  503  502 -0.00000000000E+00 -0.00000000000E+00 -0.11784935035E+03  0.11784935035E+03  0.00000000000E+00 0.  1.
         21    1    1    2  503  501 -0.31793355204E+02  0.11646321662E+02 -0.27717206446E+02  0.43757259701E+02  0.00000000000E+00 0. -1.
         21    1    1    2  504  502  0.31793355204E+02 -0.11646321662E+02 -0.78621602473E+02  0.85602632079E+02  0.00000000000E+00 0.  1.
</event>
<event>
 4    1  0.3099057E+006  0.2286950E+02  0.7546771E-02  0.1494143E+00
         21   -1    0    0  503  501  0.00000000000E+00  0.00000000000E+00  0.62623155620E+03  0.62623155620E+03  0.00000000000E+00 0.  1.
         21   -1    0    0  501  502 -0.00000000000E+00 -0.00000000000E+00 -0.94273207970E+01  0.94273207970E+01  0.00000000000E+00 0. -1.
         21    1    1    2  503  504  0.75198049557E+01 -0.21597834540E+02  0.61182669598E+03  0.61225396678E+03  0.00000000000E+00 0.  1.
         21    1    1    2  504  502 -0.75198049557E+01  0.21597834540E+02  0.49775394174E+01  0.23404910212E+02  0.00000000000E+00 0. -1.
</event>
<event>
 4    1  0.3099057E+006  0.2141724E+02  0.7546771E-02  0.1513390E+00
         21   -1    0    0  503  501  0.00000000000E+00  0.00000000000E+00  0.44570126368E+02  0.44570126368E+02  0.00000000000E+00 0. -1.
         21   -1    0    0  504  502 -0.00000000000E+00 -0.00000000000E+00 -0.26783073184E+02  0.26783073184E+02  0.00000000000E+00 0. -1.
         21    1    1    2  503  502 -0.18073687772E+02  0.11490869836E+02  0.36888681217E+02  0.42655281984E+02  0.00000000000E+00 0. -1.
         21    1    1    2  504  501  0.18073687772E+02 -0.11490869836E+02 -0.19101628032E+02  0.28697917568E+02  0.00000000000E+00 0. -1.
</event>
<event>
 4    1  0.3099057E+006  0.2191970E+02  0.7546771E-02  0.1506528E+00
         21   -1    0    0  503  501  0.00000000000E+00  0.00000000000E+00  0.42540334025E+01  0.42540334025E+01  0.00000000000E+00 0.  1.
         21   -1    0    0  504  502 -0.00000000000E+00 -0.00000000000E+00 -0.17556136122E+03  0.17556136122E+03  0.00000000000E+00 0.  1.
         21    1    1    2  503  502  0.19515696434E+02  0.99805132517E+01 -0.31959720641E+02  0.38754313250E+02  0.00000000000E+00 0.  1.
         21    1    1    2  504  501 -0.19515696434E+02 -0.99805132517E+01 -0.13934760718E+03  0.14106108137E+03  0.00000000000E+00 0.  1.
</event>
<event>
 4    1  0.3099057E+006  0.4047474E+02  0.7546771E-02  0.1345726E+00
         21   -1    0    0  503  501  0.00000000000E+00  0.00000000000E+00  0.26211232183E+01  0.26211232183E+01  0.00000000000E+00 0.  1.
         21   -1    0    0  504  502 -0.00000000000E+00 -0.00000000000E+00 -0.66036797400E+03  0.66036797400E+03  0.00000000000E+00 0.  1.
         21    1    1    2  503  502  0.39335845049E+02 -0.95339240732E+01 -0.25215797253E+03  0.25538568387E+03  0.00000000000E+00 0.  1.
         21    1    1    2  504  501 -0.39335845049E+02  0.95339240732E+01 -0.40558887825E+03  0.40760341335E+03  0.00000000000E+00 0.  1.
</event>
<event>
 4    1  0.3099057E+006  0.3111130E+02  0.7546771E-02  0.1410179E+00
         21   -1    0    0  503  501  0.00000000000E+00  0.00000000000E+00  0.36211277376E+02  0.36211277376E+02  0.00000000000E+00 0.  1.
         21   -1    0    0  504  502 -0.00000000000E+00 -0.00000000000E+00 -0.28749504399E+02  0.28749504399E+02  0.00000000000E+00 0.  1.
         21    1    1    2  503  502  0.12685503460E+01 -0.31085428769E+02  0.12340250132E+02  0.33469312437E+02  0.00000000000E+00 0.  1.
         21    1    1    2  504  501 -0.12685503460E+01  0.31085428769E+02 -0.48784771547E+01  0.31491469338E+02  0.00000000000E+00 0.  1.
</event>
<event>
 4    1  0.3099057E+006  0.2399099E+02  0.7546771E-02  0.1480416E+00
         21   -1    0    0  503  501  0.00000000000E+00  0.00000000000E+00  0.16573098555E+03  0.16573098555E+03  0.00000000000E+00 0. -1.
         21   -1    0    0  504  502 -0.00000000000E+00 -0.00000000000E+00 -0.22434666303E+02  0.22434666303E+02  0.00000000000E+00 0. -1.
         21    1    1    2  503  502  0.12353614982E+02  0.20565883711E+02 -0.14846625703E+02  0.28213288902E+02  0.00000000000E+00 0. -1.
         21    1    1    2  504  501 -0.12353614982E+02 -0.20565883711E+02  0.15814294496E+03  0.15995236296E+03  0.00000000000E+00 0. -1.
</event>
<event>
 4    1  0.3099057E+006  0.2680200E+02  0.7546771E-02  0.1449607E+00
         21   -1    0    0  502  501  0.00000000000E+00  0.00000000000E+00  0.20354936807E+02  0.20354936807E+02  0.00000000000E+00 0. -1.
         21   -1    0    0  504  502 -0.00000000000E+00 -0.00000000000E+00 -0.63310704385E+02  0.63310704385E+02  0.00000000000E+00 0. -1.
         21    1    1    2  503  501 -0.25160754036E+02  0.92349055867E+01  0.63519099887E+01  0.27544396624E+02  0.00000000000E+00 0. -1.
         21    1    1    2  504  503  0.25160754036E+02 -0.92349055867E+01 -0.49307677567E+02  0.56121244568E+02  0.00000000000E+00 0. -1.
</event>
<event>
 4    1  0.3099057E+006  0.2098015E+02  0.7546771E-02  0.1519548E+00
         21   -1    0    0  503  501  0.00000000000E+00  0.00000000000E+00  0.24480818490E+03  0.24480818490E+03  0.00000000000E+00 0. -1.
         21   -1    0    0  504  502 -0.00000000000E+00 -0.00000000000E+00 -0.19770311217E+01  0.19770311217E+01  0.00000000000E+00 0.  1.
         21    1    1    2  503  502 -0.15935824974E+02 -0.13646112389E+02  0.15854667690E+03  0.15992878308E+03  0.00000000000E+00 0. -1.
         21    1    1    2  504  501  0.15935824974E+02  0.13646112389E+02  0.84284476877E+02  0.86856432942E+02  0.00000000000E+00 0.  1.
</event>
<event>
 4    1  0.3099057E+006  0.2006774E+02  0.7546771E-02  0.1533003E+00
         21   -1    0    0  503  501  0.00000000000E+00  0.00000000000E+00  0.37295438818E+02  0.37295438818E+02  0.00000000000E+00 0. -1.
         21   -1    0    0  504  502 -0.00000000000E+00 -0.00000000000E+00 -0.67332938044E+03  0.67332938044E+03  0.00000000000E+00 0. -1.
         21    1    1    2  503  502 -0.15218970900E+02 -0.13080411376E+02 -0.67046885510E+03  0.67076911072E+03  0.00000000000E+00 0. -1.
         21    1    1    2  504  501  0.15218970900E+02  0.13080411376E+02  0.34434913477E+02  0.39855708540E+02  0.00000000000E+00 0. -1.
</event>
<event>
 4    1  0.3099057E+006  0.2207481E+02  0.7546771E-02  0.1504454E+00
         21   -1    0    0  504  501  0.00000000000E+00  0.00000000000E+00  0.36278623383E+02  0.36278623383E+02  0.00000000000E+00 0.  1.
         21   -1    0    0  503  502 -0.00000000000E+00 -0.00000000000E+00 -0.18852386998E+02  0.18852386998E+02  0.00000000000E+00 0.  1.
         21    1    1    2  503  501  0.99012980783E+01 -0.19729708580E+02  0.23493818819E+02  0.32237503423E+02  0.00000000000E+00 0.  1.
         21    1    1    2  504  502 -0.99012980783E+01  0.19729708580E+02 -0.60675824332E+01  0.22893506958E+02  0.00000000000E+00 0.  1.
</event>
<event>
 4    1  0.3099057E+006  0.2115876E+02  0.7546771E-02  0.1517010E+00
         21   -1    0    0  504  501  0.00000000000E+00  0.00000000000E+00  0.50535864863E+03  0.50535864863E+03  0.00000000000E+00 0. -1.
         21   -1    0    0  501  502 -0.00000000000E+00 -0.00000000000E+00 -0.42108369800E+01  0.42108369800E+01  0.00000000000E+00 0.  1.
         21    1    1    2  503  502  0.61475723766E+00  0.21149825124E+02  0.24171282277E+02  0.32123883890E+02  0.00000000000E+00 0.  1.
         21    1    1    2  504  503 -0.61475723766E+00 -0.21149825124E+02  0.47697652937E+03  0.47744560172E+03  0.00000000000E+00 0. -1.
</event>
<event>
 4    1  0.3099057E+006  0.2572666E+02  0.7546771E-02  0.1460836E+00
         21   -1    0    0  503  501  0.00000000000E+00  0.00000000000E+00  0.39327663334E+03  0.39327663334E+03  0.00000000000E+00 0. -1.
         21   -1    0    0  504  502 -0.00000000000E+00 -0.00000000000E+00 -0.74548568405E+01  0.74548568405E+01  0.00000000000E+00 0. -1.
         21    1    1    2  503  502  0.23445434097E+02 -0.10591164027E+02  0.36921556766E+03  0.37011078954E+03  0.00000000000E+00 0. -1.
         21    1    1    2  504  501 -0.23445434097E+02  0.10591164027E+02  0.16606208842E+02  0.30620700638E+02  0.00000000000E+00 0. -1.
</event>
<event>
 4    1  0.3099057E+006  0.2125254E+02  0.7546771E-02  0.1515690E+00
         21   -1    0    0  503  501  0.00000000000E+00  0.00000000000E+00  0.53438485792E+03  0.53438485792E+03  0.00000000000E+00 0. -1.
         21   -1    0    0  501  502 -0.00000000000E+00 -0.00000000000E+00 -0.32671226750E+01  0.32671226750E+01  0.00000000000E+00 0. -1.
         21    1    1    2  503  504  0.12134343006E+02  0.17447875408E+02  0.49701422348E+03  0.49746839998E+03  0.00000000000E+00 0. -1.
         21    1    1    2  504  502 -0.12134343006E+02 -0.17447875408E+02  0.34103511768E+02  0.40183580618E+02  0.00000000000E+00 0. -1.
</event>
<event>
 4    1  0.3099057E+006  0.2262226E+02  0.7546771E-02  0.1497297E+00
         21   -1    0    0  502  501  0.00000000000E+00  0.00000000000E+00  0.26576092255E+03  0.26576092255E+03  0.00000000000E+00 0. -1.
         21   -1    0    0  503  502 -0.00000000000E+00 -0.00000000000E+00 -0.42270046833E+01  0.42270046833E+01  0.00000000000E+00 0.  1.
         21    1    1    2  503  504  0.17568056504E+02  0.14252372619E+02  0.31160324337E+02  0.38506266339E+02  0.00000000000E+00 0.  1.
         21    1    1    2  504  501 -0.17568056504E+02 -0.14252372619E+02  0.23037359353E+03  0.23148166090E+03  0.00000000000E+00 0. -1.
</event>
<event>
 4    1  0.3099057E+006  0.2196324E+02  0.7546771E-02  0.1505944E+00
         21   -1    0    0  503  501  0.00000000000E+00  0.00000000000E+00  0.47518226866E+01  0.47518226866E+01  0.00000000000E+00 0.  1.
         21   -1    0    0  504  502 -0.00000000000E+00 -0.00000000000E+00 -0.11430542843E+03  0.11430542843E+03  0.00000000000E+00 0.  1.
         21    1    1    2  503  502 -0.20464252546E+02 -0.79748570535E+01 -0.74689282120E+02  0.77851607825E+02  0.00000000000E+00 0.  1.
         21    1    1    2  504  501  0.20464252546E+02  0.79748570535E+01 -0.34864323619E+02  0.41205643287E+02  0.00000000000E+00 0.  1.
</event>
<event>
 4    1  0.3099057E+006  0.2045941E+02  0.7546771E-02  0.1527125E+00
         21   -1    0    0  503  501  0.00000000000E+00  0.00000000000E+00  0.63782901073E+01  0.63782901073E+01  0.00000000000E+00 0. -1.
         21   -1    0    0  501  502 -0.00000000000E+00 -0.00000000000E+00 -0.13165058475E+03  0.13165058475E+03  0.00000000000E+00 0. -1.
         21    1    1    2  503  504  0.17375750932E+02  0.10801414495E+02 -0.13762077720E+02  0.24657292202E+02  0.00000000000E+00 0. -1.
         21    1    1    2  504  502 -0.17375750932E+02 -0.10801414495E+02 -0.11151021692E+03  0.11337158265E+03  0.00000000000E+00 0. -1.
</event>
<event>
 4    1  0.3099057E+006  0.2084170E+02  0.7546771E-02  0.1521537E+00
         21   -1    0    0  504  501  0.00000000000E+00  0.00000000000E+00  0.17045805126E+02  0.17045805126E+02  0.00000000000E+00 0. -1.
         21   -1    0    0  501  502 -0.00000000000E+00 -0.00000000000E+00 -0.38717287532E+03  0.38717287532E+03  0.00000000000E+00 0. -1.
         21    1    1    2  503  502 -0.19378447138E+02 -0.76715124479E+01 -0.38040847525E+03  0.38097898152E+03  0.00000000000E+00 0. -1.
         21    1    1    2  504  503  0.19378447138E+02  0.76715124479E+01  0.10281405050E+02  0.23239698934E+02  0.00000000000E+00 0. -1.
</event>
<event>
 4    1  0.3099057E+006  0.2253597E+02  0.7546771E-02  0.1498409E+00
         21   -1    0    0  503  501  0.00000000000E+00  0.00000000000E+00  0.85741541250E+01  0.85741541250E+01  0.00000000000E+00 0. -1.
         21   -1    0    0  504  502 -0.00000000000E+00 -0.00000000000E+00 -0.89202662160E+02  0.89202662160E+02  0.00000000000E+00 0. -1.
         21    1    1    2  503  502 -0.80226821876E+01  0.21059595495E+02 -0.68651676521E+02  0.72255952565E+02  0.00000000000E+00 0. -1.
         21    1    1    2  504  501  0.80226821876E+01 -0.21059595495E+02 -0.11976831514E+02  0.25520863720E+02  0.00000000000E+00 0. -1.
</event>
<event>
 4    1  0.3099057E+006  0.2215800E+02  0.7546771E-02  0.1503351E+00
         21   -1    0    0  504  501  0.00000000000E+00  0.00000000000E+00  0.10308103484E+04  0.10308103484E+04  0.00000000000E+00 0.  1.
         21   -1    0    0  503  502 -0.00000000000E+00 -0.00000000000E+00 -0.49756367065E+00  0.49756367065E+00  0.00000000000E+00 0.  1.
         21    1    1    2  503  501 -0.22141170725E+02 -0.86333686145E+00  0.62175096270E+03  0.62214567138E+03  0.00000000000E+00 0.  1.
         21    1    1    2  504  502  0.22141170725E+02  0.86333686145E+00  0.40856182204E+03  0.40916224071E+03  0.00000000000E+00 0.  1.
</event>
<event>
 4    1  0.3099057E+006  0.2318858E+02  0.7546771E-02  0.1490144E+00
         21   -1    0    0  504  501  0.00000000000E+00  0.00000000000E+00  0.15201763585E+02  0.15201763585E+02  0.00000000000E+00 0.  1.
         21   -1    0    0  503  502 -0.00000000000E+00 -0.00000000000E+00 -0.39882775357E+02  0.39882775357E+02  0.00000000000E+00 0.  1.
         21    1    1    2  503  501 -0.18402499129E+02  0.14108794966E+02 -0.30774584030E+01  0.23391896456E+02  0.00000000000E+00 0.  1.
         21    1    1    2  504  502  0.18402499129E+02 -0.14108794966E+02 -0.21603553369E+02  0.31692642486E+02  0.00000000000E+00 0.  1.
</event>
<event>
 4    1  0.3099057E+006  0.2076043E+02  0.7546771E-02  0.1522713E+00
         21   -1    0    0  502  501  0.00000000000E+00  0.00000000000E+00  0.13357035413E+02  0.13357035413E+02  0.00000000000E+00 0.  1.
         21   -1    0    0  503  502 -0.00000000000E+00 -0.00000000000E+00 -0.47559172483E+02  0.47559172483E+02  0.00000000000E+00 0. -1.
         21    1    1    2  503  504 -0.56081683466E+01 -0.19988594143E+02 -0.34372012527E+02  0.40155083031E+02  0.00000000000E+00 0. -1.
         21    1    1    2  504  501  0.56081683466E+01  0.19988594143E+02  0.16987545756E+00  0.20761124866E+02  0.00000000000E+00 0.  1.
</event>
<event>
 4    1  0.3099057E+006  0.3217953E+02  0.7546771E-02  0.1401556E+00
         21   -1    0    0  503  501  0.00000000000E+00  0.00000000000E+00  0.31303306672E+01  0.31303306672E+01  0.00000000000E+00 0.  1.
         21   -1    0    0  504  502 -0.00000000000E+00 -0.00000000000E+00 -0.52994035778E+03  0.52994035778E+03  0.00000000000E+00 0.  1.
         21    1    1    2  503  502 -0.30140542565E+00 -0.32178121750E+02 -0.42679213576E+03  0.42800356249E+03  0.00000000000E+00 0.  1.
         21    1    1    2  504  501  0.30140542565E+00  0.32178121750E+02 -0.10001789136E+03  0.10506712596E+03  0.00000000000E+00 0.  1.
</event>
<event>
 4    1  0.3099057E+006  0.2033629E+02  0.7546771E-02  0.1528956E+00
         21   -1    0    0  504  501  0.00000000000E+00  0.00000000000E+00  0.57591652145E+01  0.57591652145E+01  0.00000000000E+00 0. -1.
         21   -1    0    0  503  502 -0.00000000000E+00 -0.00000000000E+00 -0.61551902714E+03  0.61551902714E+03  0.00000000000E+00 0.  1.
         21    1    1    2  503  501  0.16577552196E+02 -0.11779191173E+02 -0.12923047646E+02  0.24095014878E+02  0.00000000000E+00 0. -1.
         21    1    1    2  504  502 -0.16577552196E+02  0.11779191173E+02 -0.59683681428E+03  0.59718317748E+03  0.00000000000E+00 0.  1.
</event>
<event>
 4    1  0.3099057E+006  0.2228794E+02  0.7546771E-02  0.1501638E+00
         21   -1    0    0  503  501  0.00000000000E+00  0.00000000000E+00  0.31788588535E+02  0.31788588535E+02  0.00000000000E+00 0.  1.
         21   -1    0    0  504  502 -0.00000000000E+00 -0.00000000000E+00 -0.22291140989E+02  0.22291140989E+02  0.00000000000E+00 0.  1.
         21    1    1    2  503  502 -0.52276349679E+01 -0.21666196283E+02  0.19533634266E+02  0.29636381297E+02  0.00000000000E+00 0.  1.
         21    1    1    2  504  501  0.52276349679E+01  0.21666196283E+02 -0.10036186719E+02  0.24443348228E+02  0.00000000000E+00 0.  1.
</event>
<event>
 4    1  0.3099057E+006  0.4634849E+02  0.7546771E-02  0.1314831E+00
         21   -1    0    0  503  501  0.00000000000E+00  0.00000000000E+00  0.23347359344E+01  0.23347359344E+01  0.00000000000E+00 0. -1.
         21   -1    0    0  504  502 -0.00000000000E+00 -0.00000000000E+00 -0.93311127584E+03  0.93311127584E+03  0.00000000000E+00 0. -1.
         21    1    1    2  503  502 -0.20724358242E+01  0.46302136977E+02 -0.52062610679E+03  0.52268511166E+03  0.00000000000E+00 0. -1.
         21    1    1    2  504  501  0.20724358242E+01 -0.46302136977E+02 -0.41015043311E+03  0.41276090011E+03  0.00000000000E+00 0. -1.
</event>
<event>
 4    1  0.3099057E+006  0.2408614E+02  0.7546771E-02  0.1479292E+00
         21   -1    0    0  504  501  0.00000000000E+00  0.00000000000E+00  0.82940730861E+02  0.82940730861E+02  0.00000000000E+00 0. -1.
         21   -1    0    0  503  502 -0.00000000000E+00 -0.00000000000E+00 -0.12197755230E+04  0.12197755230E+04  0.00000000000E+00 0.  1.
         21    1    1    2  503  501 -0.23530242067E+02  0.51448992799E+01  0.81070477121E+02  0.84572835715E+02  0.00000000000E+00 0. -1.
         21    1    1    2  504  502  0.23530242067E+02 -0.51448992799E+01 -0.12179052692E+04  0.12181434181E+04  0.00000000000E+00 0.  1.
</event>
<event>
 4    1  0.3099057E+006  0.2733765E+02  0.7546771E-02  0.1444246E+00
         21   -1    0    0  502  501  0.00000000000E+00  0.00000000000E+00  0.18970971864E+01  0.18970971864E+01  0.00000000000E+00 0.  1.
         21   -1    0    0  504  502 -0.00000000000E+00 -0.00000000000E+00 -0.13680381069E+04  0.13680381069E+04  0.00000000000E+00 0. -1.
         21    1    1    2  503  501 -0.26853419130E+02 -0.51225973310E+01 -0.10507862713E+03  0.10857653984E+03  0.00000000000E+00 0.  1.
         21    1    1    2  504  503  0.26853419130E+02  0.51225973310E+01 -0.12610623825E+04  0.12613586642E+04  0.00000000000E+00 0. -1.
</event>
<event>
 4    1  0.3099057E+006  0.2258726E+02  0.7546771E-02  0.1497747E+00
         21   -1    0    0  503  501  0.00000000000E+00  0.00000000000E+00  0.38592412426E+02  0.38592412426E+02  0.00000000000E+00 0.  1.
         21   -1    0    0  501  502 -0.00000000000E+00 -0.00000000000E+00 -0.25680839857E+02  0.25680839857E+02  0.00000000000E+00 0.  1.
         21    1    1    2  503  504 -0.10037393496E+02 -0.20234502732E+02  0.28841587003E+02  0.36633611750E+02  0.00000000000E+00 0.  1.
         21    1    1    2  504  502  0.10037393496E+02  0.20234502732E+02 -0.15930014433E+02  0.27639640533E+02  0.00000000000E+00 0.  1.
</event>
<event>
 4    1  0.3099057E+006  0.3051210E+02  0.7546771E-02  0.1415198E+00
         21   -1    0    0  502  501  0.00000000000E+00  0.00000000000E+00  0.11534568015E+03  0.11534568015E+03  0.00000000000E+00 0. -1.
         21   -1    0    0  504  502 -0.00000000000E+00 -0.00000000000E+00 -0.19689238687E+02  0.19689238687E+02  0.00000000000E+00 0.  1.
         21    1    1    2  503  501  0.40481837318E+01 -0.30242359361E+02  0.99692269003E+02  0.10425706974E+03  0.00000000000E+00 0. -1.
         21    1    1    2  504  503 -0.40481837318E+01  0.30242359361E+02 -0.40358275396E+01  0.30777849099E+02  0.00000000000E+00 0.  1.
</event>
<event>
 4    1  0.3099057E+006  0.3764953E+02  0.7546771E-02  0.1362839E+00
         21   -1    0    0  504  501  0.00000000000E+00  0.00000000000E+00  0.13862712024E+02  0.13862712024E+02  0.00000000000E+00 0. -1.
         21   -1    0    0  501  502 -0.00000000000E+00 -0.00000000000E+00 -0.10980401993E+03  0.10980401993E+03  0.00000000000E+00 0. -1.
         21    1    1    2  503  502 -0.31737192553E+02  0.20254329890E+02 -0.64186927283E+02  0.74414037012E+02  0.00000000000E+00 0. -1.
         21    1    1    2  504  503  0.31737192553E+02 -0.20254329890E+02 -0.31754380625E+02  0.49252694944E+02  0.00000000000E+00 0. -1.
</event>
<event>
 4    1  0.3099057E+006  0.2667539E+02  0.7546771E-02  0.1450896E+00
         21   -1    0    0  504  501  0.00000000000E+00  0.00000000000E+00  0.13039380410E+02  0.13039380410E+02  0.00000000000E+00 0.  1.
         21   -1    0    0  503  502 -0.00000000000E+00 -0.00000000000E+00 -0.17412686641E+04  0.17412686641E+04  0.00000000000E+00 0. -1.
         21    1    1    2  503  501 -0.16601744004E+02  0.20879618926E+02 -0.17274142536E+04  0.17276202071E+04  0.00000000000E+00 0. -1.
         21    1    1    2  504  502  0.16601744004E+02 -0.20879618926E+02 -0.81503005417E+00  0.26687837388E+02  0.00000000000E+00 0.  1.
</event>
<event>
 4    1  0.3099057E+006  0.2231356E+02  0.7546771E-02  0.1501302E+00
         21   -1    0    0  503  501  0.00000000000E+00  0.00000000000E+00  0.24417842460E+02  0.24417842460E+02  0.00000000000E+00 0. -1.
         21   -1    0    0  504  502 -0.00000000000E+00 -0.00000000000E+00 -0.76930307962E+03  0.76930307962E+03  0.00000000000E+00 0. -1.
         21    1    1    2  503  502 -0.88442809242E+01  0.20485941837E+02  0.19123064435E+02  0.29386845891E+02  0.00000000000E+00 0. -1.
         21    1    1    2  504  501  0.88442809242E+01 -0.20485941837E+02 -0.76400830160E+03  0.76433407619E+03  0.00000000000E+00 0. -1.
</event>
<event>
 4    1  0.3099057E+006  0.2416174E+02  0.7546771E-02  0.1478404E+00
         21   -1    0    0  503  501  0.00000000000E+00  0.00000000000E+00  0.81951688369E+01  0.81951688369E+01  0.00000000000E+00 0.  1.
         21   -1    0    0  504  502 -0.00000000000E+00 -0.00000000000E+00 -0.85174962288E+03  0.85174962288E+03  0.00000000000E+00 0. -1.
         21    1    1    2  503  502  0.97976895275E+00  0.24141863799E+02 -0.83337678053E+03  0.83372696242E+03  0.00000000000E+00 0. -1.
         21    1    1    2  504  501 -0.97976895275E+00 -0.24141863799E+02 -0.10177673508E+02  0.26217829294E+02  0.00000000000E+00 0.  1.
</event>
<event>
 4    1  0.3099057E+006  0.2275949E+02  0.7546771E-02  0.1495540E+00
         21   -1    0    0  504  501  0.00000000000E+00  0.00000000000E+00  0.25397674157E+02  0.25397674157E+02  0.00000000000E+00 0.  1.
         21   -1    0    0  503  502 -0.00000000000E+00 -0.00000000000E+00 -0.64667424998E+02  0.64667424998E+02  0.00000000000E+00 0. -1.
         21    1    1    2  503  501  0.18630561590E+02 -0.13072747723E+02 -0.56895374728E+02  0.61278693064E+02  0.00000000000E+00 0. -1.
         21    1    1    2  504  502 -0.18630561590E+02  0.13072747723E+02  0.17625623887E+02  0.28786406090E+02  0.00000000000E+00 0.  1.
</event>
<event>
 4    1  0.3099057E+006  0.2278075E+02  0.7546771E-02  0.1495270E+00
         21   -1    0    0  503  501  0.00000000000E+00  0.00000000000E+00  0.37019936806E+03  0.37019936806E+03  0.00000000000E+00 0. -1.
         21   -1    0    0  504  502 -0.00000000000E+00 -0.00000000000E+00 -0.40866040044E+03  0.40866040044E+03  0.00000000000E+00 0. -1.
         21    1    1    2  503  502  0.10469509082E+02  0.20232442835E+02  0.36953085509E+03  0.37023238004E+03  0.00000000000E+00 0. -1.
         21    1    1    2  504  501 -0.10469509082E+02 -0.20232442835E+02 -0.40799188747E+03  0.40862738847E+03  0.00000000000E+00 0. -1.
</event>
<event>
 4    1  0.3099057E+006  0.3092215E+02  0.7546771E-02  0.1411748E+00
         21   -1    0    0  504  501  0.00000000000E+00  0.00000000000E+00  0.78546887594E+03  0.78546887594E+03  0.00000000000E+00 0. -1.
         21   -1    0    0  503  502 -0.00000000000E+00 -0.00000000000E+00 -0.46874177837E+01  0.46874177837E+01  0.00000000000E+00 0.  1.
         21    1    1    2  503  501 -0.40817891419E+01  0.30651561252E+02  0.50463418821E+02  0.59183915457E+02  0.00000000000E+00 0.  1.
         21    1    1    2  504  502  0.40817891419E+01 -0.30651561252E+02  0.73031803934E+03  0.73097237827E+03  0.00000000000E+00 0. -1.
</event>
<event>
 4    1  0.3099057E+006  0.2079825E+02  0.7546771E-02  0.1522165E+00
         21   -1    0    0  504  501  0.00000000000E+00  0.00000000000E+00  0.32453010766E+01  0.32453010766E+01  0.00000000000E+00 0. -1.
         21   -1    0    0  503  502 -0.00000000000E+00 -0.00000000000E+00 -0.27523337760E+03  0.27523337760E+03  0.00000000000E+00 0. -1.
         21    1    1    2  503  501 -0.15568118072E+02 -0.13791328664E+02 -0.23598679999E+03  0.23690153401E+03  0.00000000000E+00 0. -1.
         21    1    1    2  504  502  0.15568118072E+02  0.13791328664E+02 -0.36001276532E+02  0.41577144666E+02  0.00000000000E+00 0. -1.
</event>
<event>
 4    1  0.3099057E+006  0.2190882E+02  0.7546771E-02  0.1506674E+00
         21   -1    0    0  502  501  0.00000000000E+00  0.00000000000E+00  0.66296203032E+02  0.66296203032E+02  0.00000000000E+00 0.  1.
         21   -1    0    0  504  502 -0.00000000000E+00 -0.00000000000E+00 -0.72407838219E+01  0.72407838219E+01  0.00000000000E+00 0.  1.
         21    1    1    2  503  501  0.21795262146E+02  0.22277756490E+01  0.29863505158E+02  0.37038161086E+02  0.00000000000E+00 0.  1.
         21    1    1    2  504  503 -0.21795262146E+02 -0.22277756490E+01  0.29191914053E+02  0.36498825768E+02  0.00000000000E+00 0.  1.
</event>
<event>
 4    1  0.3099057E+006  0.2388338E+02  0.7546771E-02  0.1481694E+00
         21   -1    0    0  504  501  0.00000000000E+00  0.00000000000E+00  0.19066229697E+01  0.19066229697E+01  0.00000000000E+00 0. -1.
         21   -1    0    0  503  502 -0.00000000000E+00 -0.00000000000E+00 -0.29950849887E+03  0.29950849887E+03  0.00000000000E+00 0. -1.
         21    1    1    2  503  501 -0.22609982122E+02 -0.76944626585E+01 -0.14378037542E+03  0.14575051424E+03  0.00000000000E+00 0. -1.
         21    1    1    2  504  502  0.22609982122E+02  0.76944626585E+01 -0.15382150048E+03  0.15566460760E+03  0.00000000000E+00 0. -1.
</event>
<event>
 4    1  0.3099057E+006  0.2153477E+02  0.7546771E-02  0.1511765E+00
         21   -1    0    0  504  501  0.00000000000E+00  0.00000000000E+00  0.22615890268E+02  0.22615890268E+02  0.00000000000E+00 0. -1.
         21   -1    0    0  503  502 -0.00000000000E+00 -0.00000000000E+00 -0.63352693315E+02  0.63352693315E+02  0.00000000000E+00 0.  1.
         21    1    1    2  503  501  0.21027498488E+02  0.46465725544E+01  0.14981587011E+02  0.26233457236E+02  0.00000000000E+00 0. -1.
         21    1    1    2  504  502 -0.21027498488E+02 -0.46465725544E+01 -0.55718390058E+02  0.59735126348E+02  0.00000000000E+00 0.  1.
</event>
<event>
 4    1  0.3099057E+006  0.3599692E+02  0.7546771E-02  0.1373687E+00
         21   -1    0    0  504  501  0.00000000000E+00  0.00000000000E+00  0.13355460176E+03  0.13355460176E+03  0.00000000000E+00 0.  1.
         21   -1    0    0  501  502 -0.00000000000E+00 -0.00000000000E+00 -0.31896415882E+03  0.31896415882E+03  0.00000000000E+00 0. -1.
         21    1    1    2  503  502  0.35457971517E+02 -0.62056685209E+01 -0.31549641195E+03  0.31754332621E+03  0.00000000000E+00 0. -1.
         21    1    1    2  504  503 -0.35457971517E+02  0.62056685209E+01  0.13008685489E+03  0.13497543436E+03  0.00000000000E+00 0.  1.
</event>
<event>
 4    1  0.3099057E+006  0.2480455E+02  0.7546771E-02  0.1471002E+00
         21   -1    0    0  504  501  0.00000000000E+00  0.00000000000E+00  0.66612838901E+02  0.66612838901E+02  0.00000000000E+00 0.  1.
         21   -1    0    0  501  502 -0.00000000000E+00 -0.00000000000E+00 -0.59713546768E+02  0.59713546768E+02  0.00000000000E+00 0.  1.
         21    1    1    2  503  502  0.20680177379E+02  0.13696575008E+02 -0.54623431463E+02  0.59991542472E+02  0.00000000000E+00 0.  1.
         21    1    1    2  504  503 -0.20680177379E+02 -0.13696575008E+02  0.61522723596E+02  0.66334843197E+02  0.00000000000E+00 0.  1.
</event>
<event>
 4    1  0.3099057E+006  0.2022738E+02  0.7546771E-02  0.1530588E+00
         21   -1    0    0  504  501  0.00000000000E+00  0.00000000000E+00  0.33444572122E+01  0.33444572122E+01  0.00000000000E+00 0.  1.
         21   -1    0    0  501  502 -0.00000000000E+00 -0.00000000000E+00 -0.12600221417E+03  0.12600221417E+03  0.00000000000E+00 0.  1.
         21    1    1    2  503  502  0.15902677954E+02 -0.12500067752E+02 -0.72360941515E+02  0.75134896798E+02  0.00000000000E+00 0.  1.
         21    1    1    2  504  503 -0.15902677954E+02  0.12500067752E+02 -0.50296815446E+02  0.54211774588E+02  0.00000000000E+00 0.  1.
</event>
<event>
 4    1  0.3099057E+006  0.3608516E+02  0.7546771E-02  0.1373091E+00
         21   -1    0    0  502  501  0.00000000000E+00  0.00000000000E+00  0.37484648394E+02  0.37484648394E+02  0.00000000000E+00 0.  1.
         21   -1    0    0  504  502 -0.00000000000E+00 -0.00000000000E+00 -0.41939181368E+02  0.41939181368E+02  0.00000000000E+00 0.  1.
         21    1    1    2  503  501 -0.34985891436E+02 -0.88389080163E+01  0.14228381884E+02  0.38788990004E+02  0.00000000000E+00 0.  1.
         21    1    1    2  504  503  0.34985891436E+02  0.88389080163E+01 -0.18682914858E+02  0.40634839757E+02  0.00000000000E+00 0.  1.
</event>
<event>
 4    1  0.3099057E+006  0.4946203E+02  0.7546771E-02  0.1300522E+00
         21   -1    0    0  503  501  0.00000000000E+00  0.00000000000E+00  0.30308677515E+03  0.30308677515E+03  0.00000000000E+00 0. -1.
         21   -1    0    0  504  502 -0.00000000000E+00 -0.00000000000E+00 -0.11667638251E+02  0.11667638251E+02  0.00000000000E+00 0. -1.
         21    1    1    2  503  502 -0.13008519949E+02  0.47720758651E+02  0.58343429445E+02  0.76488222341E+02  0.00000000000E+00 0. -1.
         21    1    1    2  504  501  0.13008519949E+02 -0.47720758651E+02  0.23307570745E+03  0.23826619106E+03  0.00000000000E+00 0. -1.
</event>
<event>
 4    1  0.3099057E+006  0.2249031E+02  0.7546771E-02  0.1498999E+00
         21   -1    0    0  503  501  0.00000000000E+00  0.00000000000E+00  0.30095263664E+02  0.30095263664E+02  0.00000000000E+00 0. -1.
         21   -1    0    0  504  502 -0.00000000000E+00 -0.00000000000E+00 -0.46489838141E+03  0.46489838141E+03  0.00000000000E+00 0. -1.
         21    1    1    2  503  502  0.15128234720E+02  0.16641836433E+02  0.25580303193E+02  0.34061211327E+02  0.00000000000E+00 0. -1.
         21    1    1    2  504  501 -0.15128234720E+02 -0.16641836433E+02 -0.46038342094E+03  0.46093243375E+03  0.00000000000E+00 0. -1.
</event>
<event>
 4    1  0.3099057E+006  0.2053761E+02  0.7546771E-02  0.1525970E+00
         21   -1    0    0  504  501  0.00000000000E+00  0.00000000000E+00  0.50563202023E+03  0.50563202023E+03  0.00000000000E+00 0. -1.
         21   -1    0    0  501  502 -0.00000000000E+00 -0.00000000000E+00 -0.90720054527E+00  0.90720054527E+00  0.00000000000E+00 0. -1.
         21    1    1    2  503  502  0.96601302164E+01  0.18123887896E+02  0.18051307746E+03  0.18167763914E+03  0.00000000000E+00 0. -1.
         21    1    1    2  504  503 -0.96601302164E+01 -0.18123887896E+02  0.32421174222E+03  0.32486158164E+03  0.00000000000E+00 0. -1.
</event>
<event>
 4    1  0.3099057E+006  0.2166144E+02  0.7546771E-02  0.1510027E+00
         21   -1    0    0  503  501  0.00000000000E+00  0.00000000000E+00  0.17045566517E+01  0.17045566517E+01  0.00000000000E+00 0.  1.
         21   -1    0    0  504  502 -0.00000000000E+00 -0.00000000000E+00 -0.64397982595E+03  0.64397982595E+03  0.00000000000E+00 0.  1.
         21    1    1    2  503  502  0.20948920828E+02 -0.55100687774E+01 -0.56542153268E+03  0.56583630827E+03  0.00000000000E+00 0.  1.
         21    1    1    2  504  501 -0.20948920828E+02  0.55100687774E+01 -0.76853736616E+02  0.79848074326E+02  0.00000000000E+00 0.  1.
</event>
<event>
 4    1  0.3099057E+006  0.3057019E+02  0.7546771E-02  0.1414705E+00
         21   -1    0    0  503  501  0.00000000000E+00  0.00000000000E+00  0.21745149244E+02  0.21745149244E+02  0.00000000000E+00 0. -1.
         21   -1    0    0  504  502 -0.00000000000E+00 -0.00000000000E+00 -0.46009750133E+02  0.46009750133E+02  0.00000000000E+00 0.  1.
         21    1    1    2  503  502  0.14885544557E+02 -0.26701259591E+02 -0.34343052742E+01  0.30762495887E+02  0.00000000000E+00 0. -1.
         21    1    1    2  504  501 -0.14885544557E+02  0.26701259591E+02 -0.20830295616E+02  0.36992403490E+02  0.00000000000E+00 0.  1.
</event>
<event>
 4    1  0.3099057E+006  0.2209524E+02  0.7546771E-02  0.1504183E+00
         21   -1    0    0  504  501  0.00000000000E+00  0.00000000000E+00  0.35025612910E+02  0.35025612910E+02  0.00000000000E+00 0.  1.
         21   -1    0    0  503  502 -0.00000000000E+00 -0.00000000000E+00 -0.15010625657E+02  0.15010625657E+02  0.00000000000E+00 0. -1.
         21    1    1    2  503  501  0.13290000158E+02  0.17651507072E+02  0.33208946208E+01  0.22343413955E+02  0.00000000000E+00 0. -1.
         21    1    1    2  504  502 -0.13290000158E+02 -0.17651507072E+02  0.16694092632E+02  0.27692824611E+02  0.00000000000E+00 0.  1.
</event>
<event>
 4    1  0.3099057E+006  0.2314149E+02  0.7546771E-02  0.1490729E+00
         21   -1    0    0  504  501  0.00000000000E+00  0.00000000000E+00  0.85880294401E+01  0.85880294401E+01  0.00000000000E+00 0. -1.
         21   -1    0    0  501  502 -0.00000000000E+00 -0.00000000000E+00 -0.11605231034E+04  0.11605231034E+04  0.00000000000E+00 0. -1.
         21    1    1    2  503  502 -0.23012646087E+02  0.24386240851E+01 -0.11446015149E+04  0.11448354278E+04  0.00000000000E+00 0. -1.
         21    1    1    2  504  503  0.23012646087E+02 -0.24386240851E+01 -0.73335590369E+01  0.24275705046E+02  0.00000000000E+00 0. -1.
</event>
<event>
 4    1  0.3099057E+006  0.4853280E+02  0.7546771E-02  0.1304662E+00
         21   -1    0    0  503  501  0.00000000000E+00  0.00000000000E+00  0.22551395422E+02  0.22551395422E+02  0.00000000000E+00 0. -1.
         21   -1    0    0  504  502 -0.00000000000E+00 -0.00000000000E+00 -0.22114780118E+03  0.22114780118E+03  0.00000000000E+00 0. -1.
         21    1    1    2  503  502  0.40593380068E+02  0.26600937672E+02 -0.10782739487E+02  0.49716193149E+02  0.00000000000E+00 0. -1.
         21    1    1    2  504  501 -0.40593380068E+02 -0.26600937672E+02 -0.18781366627E+03  0.19398300345E+03  0.00000000000E+00 0. -1.
</event>
<event>
 4    1  0.3099057E+006  0.2248406E+02  0.7546771E-02  0.1499080E+00
         21   -1    0    0  502  501  0.00000000000E+00  0.00000000000E+00  0.20503529137E+02  0.20503529137E+02  0.00000000000E+00 0.  1.
         21   -1    0    0  504  502 -0.00000000000E+00 -0.00000000000E+00 -0.26991468862E+02  0.26991468862E+02  0.00000000000E+00 0.  1.
         21    1    1    2  503  501  0.61553144839E+01  0.21625100496E+02  0.37415928010E+01  0.22793253049E+02  0.00000000000E+00 0.  1.
         21    1    1    2  504  503 -0.61553144839E+01 -0.21625100496E+02 -0.10229532526E+02  0.24701744950E+02  0.00000000000E+00 0.  1.
</event>
<event>
 4    1  0.3099057E+006  0.3605596E+02  0.7546771E-02  0.1373288E+00
         21   -1    0    0  503  501  0.00000000000E+00  0.00000000000E+00  0.13225036588E+03  0.13225036588E+03  0.00000000000E+00 0.  1.
         21   -1    0    0  504  502 -0.00000000000E+00 -0.00000000000E+00 -0.10825715763E+02  0.10825715763E+02  0.00000000000E+00 0.  1.
         21    1    1    2  503  502 -0.64743549867E+01 -0.35469911793E+02  0.82407271522E+02  0.89949932267E+02  0.00000000000E+00 0.  1.
         21    1    1    2  504  501  0.64743549867E+01  0.35469911793E+02  0.39017378596E+02  0.53126149377E+02  0.00000000000E+00 0.  1.
</event>
<event>
 4    1  0.3099057E+006  0.2041441E+02  0.7546771E-02  0.1527792E+00
         21   -1    0    0  503  501  0.00000000000E+00  0.00000000000E+00  0.67242780000E+01  0.67242780000E+01  0.00000000000E+00 0. -1.
         21   -1    0    0  504  502 -0.00000000000E+00 -0.00000000000E+00 -0.64639223310E+02  0.64639223310E+02  0.00000000000E+00 0. -1.
         21    1    1    2  503  502 -0.20334788037E+02  0.18012058641E+01 -0.21715577441E+02  0.29804601166E+02  0.00000000000E+00 0. -1.
         21    1    1    2  504  501  0.20334788037E+02 -0.18012058641E+01 -0.36199367870E+02  0.41558900145E+02  0.00000000000E+00 0. -1.
</event>
<event>
 4    1  0.3099057E+006  0.2296007E+02  0.7546771E-02  0.1493000E+00
         21   -1    0    0  502  501  0.00000000000E+00  0.00000000000E+00  0.21848459393E+02  0.21848459393E+02  0.00000000000E+00 0. -1.
         21   -1    0    0  503  502 -0.00000000000E+00 -0.00000000000E+00 -0.72168540002E+02  0.72168540002E+02  0.00000000000E+00 0. -1.
         21    1    1    2  503  504 -0.13798713735E+02  0.18351024130E+02 -0.63513570594E+02  0.67536199456E+02  0.00000000000E+00 0. -1.
         21    1    1    2  504  501  0.13798713735E+02 -0.18351024130E+02  0.13193489985E+02  0.26480799938E+02  0.00000000000E+00 0. -1.
</event>
<event>
 4    1  0.3099057E+006  0.2606259E+02  0.7546771E-02  0.1457259E+00
         21   -1    0    0  503  501  0.00000000000E+00  0.00000000000E+00  0.40727759829E+01  0.40727759829E+01  0.00000000000E+00 0. -1.
         21   -1    0    0  504  502 -0.00000000000E+00 -0.00000000000E+00 -0.27412048225E+03  0.27412048225E+03  0.00000000000E+00 0. -1.
         21    1    1    2  503  502 -0.23630551315E+02  0.10993439163E+02 -0.22206549922E+03  0.22358967911E+03  0.00000000000E+00 0. -1.
         21    1    1    2  504  501  0.23630551315E+02 -0.10993439163E+02 -0.47982207048E+02  0.54603579125E+02  0.00000000000E+00 0. -1.
</event>
<event>
 4    1  0.3099057E+006  0.3342023E+02  0.7546771E-02  0.1392023E+00
         21   -1    0    0  504  501  0.00000000000E+00  0.00000000000E+00  0.29017513506E+01  0.29017513506E+01  0.00000000000E+00 0.  1.
         21   -1    0    0  503  502 -0.00000000000E+00 -0.00000000000E+00 -0.43180071045E+03  0.43180071045E+03  0.00000000000E+00 0.  1.
         21    1    1    2  503  501  0.32791679224E+02 -0.64511666457E+01 -0.14282426027E+03  0.14668224534E+03  0.00000000000E+00 0.  1.
         21    1    1    2  504  502 -0.32791679224E+02  0.64511666457E+01 -0.28607469884E+03  0.28802021646E+03  0.00000000000E+00 0.  1.
</event>
<event>
 4    1  0.3099057E+006  0.2055181E+02  0.7546771E-02  0.1525761E+00
         21   -1    0    0  504  501  0.00000000000E+00  0.00000000000E+00  0.67157325354E+01  0.67157325354E+01  0.00000000000E+00 0.  1.
         21   -1    0    0  503  502 -0.00000000000E+00 -0.00000000000E+00 -0.64522357873E+02  0.64522357873E+02  0.00000000000E+00 0.  1.
         21    1    1    2  503  501 -0.14048619248E+02  0.15000442573E+02 -0.23244207143E+02  0.31026926143E+02  0.00000000000E+00 0.  1.
         21    1    1    2  504  502  0.14048619248E+02 -0.15000442573E+02 -0.34562418194E+02  0.40211164266E+02  0.00000000000E+00 0.  1.
</event>
<event>
 4    1  0.3099057E+006  0.2054206E+02  0.7546771E-02  0.1525905E+00
         21   -1    0    0  504  501  0.00000000000E+00  0.00000000000E+00  0.17280811961E+03  0.17280811961E+03  0.00000000000E+00 0. -1.
         21   -1    0    0  501  502 -0.00000000000E+00 -0.00000000000E+00 -0.39011425421E+03  0.39011425421E+03  0.00000000000E+00 0. -1.
         21    1    1    2  503  502 -0.19221628069E+02  0.72460503803E+01 -0.38923198373E+03  0.38977366944E+03  0.00000000000E+00 0. -1.
         21    1    1    2  504  503  0.19221628069E+02 -0.72460503803E+01  0.17192584913E+03  0.17314870439E+03  0.00000000000E+00 0. -1.
</event>
<event>
 4    1  0.3099057E+006  0.2029599E+02  0.7546771E-02  0.1529558E+00
         21   -1    0    0  504  501  0.00000000000E+00  0.00000000000E+00  0.95736354806E+00  0.95736354806E+00  0.00000000000E+00 0.  1.
         21   -1    0    0  503  502 -0.00000000000E+00 -0.00000000000E+00 -0.93277350483E+03  0.93277350483E+03  0.00000000000E+00 0. -1.
         21    1    1    2  503  501 -0.19622196259E+02  0.51861798433E+01 -0.80857497361E+03  0.80882965759E+03  0.00000000000E+00 0. -1.
         21    1    1    2  504  502  0.19622196259E+02 -0.51861798433E+01 -0.12324116767E+03  0.12490121079E+03  0.00000000000E+00 0.  1.
</event>
<event>
 4    1  0.3099057E+006  0.3398884E+02  0.7546771E-02  0.1387815E+00
         21   -1    0    0  502  501  0.00000000000E+00  0.00000000000E+00  0.69688518743E+02  0.69688518743E+02  0.00000000000E+00 0. -1.
         21   -1    0    0  503  502 -0.00000000000E+00 -0.00000000000E+00 -0.28544584993E+02  0.28544584993E+02  0.00000000000E+00 0. -1.
         21    1    1    2  503  504  0.31043845435E+02 -0.13839111320E+02  0.52374771362E+02  0.62436832213E+02  0.00000000000E+00 0. -1.
         21    1    1    2  504  501 -0.31043845435E+02  0.13839111320E+02 -0.11230837613E+02  0.35796271524E+02  0.00000000000E+00 0. -1.
</event>
<event>
 4    1  0.3099057E+006  0.2159215E+02  0.7546771E-02  0.1510976E+00
         21   -1    0    0  503  501  0.00000000000E+00  0.00000000000E+00  0.94849851252E+02  0.94849851252E+02  0.00000000000E+00 0.  1.
         21   -1    0    0  504  502 -0.00000000000E+00 -0.00000000000E+00 -0.37335995550E+03  0.37335995550E+03  0.00000000000E+00 0. -1.
         21    1    1    2  503  502 -0.21592098945E+02  0.48308342070E-01  0.93303726531E+02  0.95769548684E+02  0.00000000000E+00 0.  1.
         21    1    1    2  504  501  0.21592098945E+02 -0.48308342070E-01 -0.37181383078E+03  0.37244025806E+03  0.00000000000E+00 0. -1.
</event>
<event>
 4    1  0.3099057E+006  0.2275072E+02  0.7546771E-02  0.1495652E+00
         21   -1    0    0  504  501  0.00000000000E+00  0.00000000000E+00  0.47405167898E+03  0.47405167898E+03  0.00000000000E+00 0.  1.
         21   -1    0    0  503  502 -0.00000000000E+00 -0.00000000000E+00 -0.36372741530E+01  0.36372741530E+01  0.00000000000E+00 0.  1.
         21    1    1    2  503  501 -0.20701227794E+02 -0.94368734879E+01  0.35401955428E+02  0.42081989752E+02  0.00000000000E+00 0.  1.
         21    1    1    2  504  502  0.20701227794E+02  0.94368734879E+01  0.43501244940E+03  0.43560696338E+03  0.00000000000E+00 0.  1.
</event>
<event>
 4    1  0.3099057E+006  0.2045128E+02  0.7546771E-02  0.1527245E+00
         21   -1    0    0  504  501  0.00000000000E+00  0.00000000000E+00  0.10820014110E+02  0.10820014110E+02  0.00000000000E+00 0. -1.
         21   -1    0    0  503  502 -0.00000000000E+00 -0.00000000000E+00 -0.41565982807E+02  0.41565982807E+02  0.00000000000E+00 0. -1.
         21    1    1    2  503  501  0.23341422766E+00  0.20449945748E+02 -0.22303841259E+02  0.30260801348E+02  0.00000000000E+00 0. -1.
         21    1    1    2  504  502 -0.23341422766E+00 -0.20449945748E+02 -0.84421274386E+01  0.22125195570E+02  0.00000000000E+00 0. -1.
</event>
<event>
 4    1  0.3099057E+006  0.2406741E+02  0.7546771E-02  0.1479513E+00
         21   -1    0    0  503  501  0.00000000000E+00  0.00000000000E+00  0.10927963998E+03  0.10927963998E+03  0.00000000000E+00 0. -1.
         21   -1    0    0  504  502 -0.00000000000E+00 -0.00000000000E+00 -0.66847607026E+01  0.66847607026E+01  0.00000000000E+00 0. -1.
         21    1    1    2  503  502  0.22837794232E+02  0.75944364941E+01  0.24912532716E+02  0.34639206073E+02  0.00000000000E+00 0. -1.
         21    1    1    2  504  501 -0.22837794232E+02 -0.75944364941E+01  0.77682346563E+02  0.81325194612E+02  0.00000000000E+00 0. -1.
</event>
<event>
 4    1  0.3099057E+006  0.3063688E+02  0.7546771E-02  0.1414141E+00
         21   -1    0    0  504  501  0.00000000000E+00  0.00000000000E+00  0.32000914783E+03  0.32000914783E+03  0.00000000000E+00 0.  1.
         21   -1    0    0  503  502 -0.00000000000E+00 -0.00000000000E+00 -0.48836726991E+01  0.48836726991E+01  0.00000000000E+00 0.  1.
         21    1    1    2  503  501  0.33702939573E+01  0.30450938526E+02  0.54898776548E+02  0.62868865147E+02  0.00000000000E+00 0.  1.
         21    1    1    2  504  502 -0.33702939573E+01 -0.30450938526E+02  0.26022669858E+03  0.26202395538E+03  0.00000000000E+00 0.  1.
</event>
<event>
 4    1  0.3099057E+006  0.2624784E+02  0.7546771E-02  0.1455314E+00
         21   -1    0    0  502  501  0.00000000000E+00  0.00000000000E+00  0.11162706548E+03  0.11162706548E+03  0.00000000000E+00 0.  1.
         21   -1    0    0  503  502 -0.00000000000E+00 -0.00000000000E+00 -0.17896060216E+02  0.17896060216E+02  0.00000000000E+00 0. -1.
         21    1    1    2  503  504  0.54377500682E+01  0.25678395204E+02 -0.55524199778E+01  0.26828687513E+02  0.00000000000E+00 0. -1.
         21    1    1    2  504  501 -0.54377500682E+01 -0.25678395204E+02  0.99283425246E+02  0.10269443819E+03  0.00000000000E+00 0.  1.
</event>
<event>
 4    1  0.3099057E+006  0.2360591E+02  0.7546771E-02  0.1485027E+00
         21   -1    0    0  503  501  0.00000000000E+00  0.00000000000E+00  0.55980850230E+00  0.55980850230E+00  0.00000000000E+00 0. -1.
         21   -1    0    0  504  502 -0.00000000000E+00 -0.00000000000E+00 -0.11008788416E+04  0.11008788416E+04  0.00000000000E+00 0. -1.
         21    1    1    2  503  502  0.20477407397E+02  0.11743704557E+02 -0.72061982521E+03  0.72100636009E+03  0.00000000000E+00 0. -1.
         21    1    1    2  504  501 -0.20477407397E+02 -0.11743704557E+02 -0.37969920792E+03  0.38043229004E+03  0.00000000000E+00 0. -1.
</event>
<event>
 4    1  0.3099057E+006  0.2094717E+02  0.7546771E-02  0.1520020E+00
         21   -1    0    0  504  501  0.00000000000E+00  0.00000000000E+00  0.14515175119E+01  0.14515175119E+01  0.00000000000E+00 0. -1.
         21   -1    0    0  503  502 -0.00000000000E+00 -0.00000000000E+00 -0.30323315206E+03  0.30323315206E+03  0.00000000000E+00 0. -1.
         21    1    1    2  503  501  0.10099115512E+02  0.18351886680E+02 -0.14240909053E+03  0.14394142192E+03  0.00000000000E+00 0. -1.
         21    1    1    2  504  502 -0.10099115512E+02 -0.18351886680E+02 -0.15937254402E+03  0.16074324766E+03  0.00000000000E+00 0. -1.
</event>
<event>
 4    1  0.3099057E+006  0.6163068E+02  0.7546771E-02  0.1254391E+00
         21   -1    0    0  504  501  0.00000000000E+00  0.00000000000E+00  0.66889569182E+01  0.66889569182E+01  0.00000000000E+00 0. -1.
         21   -1    0    0  503  502 -0.00000000000E+00 -0.00000000000E+00 -0.60786492171E+03  0.60786492171E+03  0.00000000000E+00 0. -1.
         21    1    1    2  503  501  0.37105477229E+01  0.61518874699E+02 -0.37942396680E+03  0.38439678288E+03  0.00000000000E+00 0. -1.
         21    1    1    2  504  502 -0.37105477229E+01 -0.61518874699E+02 -0.22175199800E+03  0.23015709575E+03  0.00000000000E+00 0. -1.
</event>
<event>
 4    1  0.3099057E+006  0.2019524E+02  0.7546771E-02  0.1531072E+00
         21   -1    0    0  504  501  0.00000000000E+00  0.00000000000E+00  0.73008360032E+02  0.73008360032E+02  0.00000000000E+00 0. -1.
         21   -1    0    0  501  502 -0.00000000000E+00 -0.00000000000E+00 -0.14980343884E+02  0.14980343884E+02  0.00000000000E+00 0. -1.
         21    1    1    2  503  502  0.15192754858E+02 -0.13305180724E+02 -0.58246965565E+01  0.21018437722E+02  0.00000000000E+00 0. -1.
         21    1    1    2  504  503 -0.15192754858E+02  0.13305180724E+02  0.63852712705E+02  0.66970266194E+02  0.00000000000E+00 0. -1.
</event>
<event>
 4    1  0.3099057E+006  0.2630855E+02  0.7546771E-02  0.1454680E+00
         21   -1    0    0  503  501  0.00000000000E+00  0.00000000000E+00  0.17214844058E+02  0.17214844058E+02  0.00000000000E+00 0. -1.
         21   -1    0    0  501  502 -0.00000000000E+00 -0.00000000000E+00 -0.31957786144E+03  0.31957786144E+03  0.00000000000E+00 0. -1.
         21    1    1    2  503  504 -0.18463567009E+02 -0.18741300770E+02  0.62659607411E+01  0.27044443519E+02  0.00000000000E+00 0. -1.
         21    1    1    2  504  502  0.18463567009E+02  0.18741300770E+02 -0.30862897812E+03  0.30974826197E+03  0.00000000000E+00 0. -1.
</event>
<event>
 4    1  0.3099057E+006  0.2743094E+02  0.7546771E-02  0.1443327E+00
         21   -1    0    0  504  501  0.00000000000E+00  0.00000000000E+00  0.98260635267E+02  0.98260635267E+02  0.00000000000E+00 0. -1.
         21   -1    0    0  503  502 -0.00000000000E+00 -0.00000000000E+00 -0.33561975195E+02  0.33561975195E+02  0.00000000000E+00 0.  1.
         21    1    1    2  503  501  0.17497199464E+02 -0.21125917380E+02 -0.25556377772E+02  0.37491129871E+02  0.00000000000E+00 0.  1.
         21    1    1    2  504  502 -0.17497199464E+02  0.21125917380E+02  0.90255037843E+02  0.94331480590E+02  0.00000000000E+00 0. -1.
</event>
<event>
 4    1  0.3099057E+006  0.2000971E+02  0.7546771E-02  0.1533887E+00
         21   -1    0    0  502  501  0.00000000000E+00  0.00000000000E+00  0.14090547002E+02  0.14090547002E+02  0.00000000000E+00 0. -1.
         21   -1    0    0  504  502 -0.00000000000E+00 -0.00000000000E+00 -0.10970437761E+03  0.10970437761E+03  0.00000000000E+00 0.  1.
         21    1    1    2  503  501 -0.19849885706E+02 -0.25239966140E+01  0.54746159201E+01  0.20745118484E+02  0.00000000000E+00 0. -1.
         21    1    1    2  504  503  0.19849885706E+02  0.25239966140E+01 -0.10108844652E+03  0.10304980612E+03  0.00000000000E+00 0.  1.
</event>
<event>
 4    1  0.3099057E+006  0.3267850E+02  0.7546771E-02  0.1397662E+00
         21   -1    0    0  503  501  0.00000000000E+00  0.00000000000E+00  0.13262729059E+03  0.13262729059E+03  0.00000000000E+00 0. -1.
         21   -1    0    0  504  502 -0.00000000000E+00 -0.00000000000E+00 -0.25354209420E+02  0.25354209420E+02  0.00000000000E+00 0.  1.
         21    1    1    2  503  502 -0.29068229939E+02 -0.14930574771E+02 -0.11617123945E+02  0.34682007201E+02  0.00000000000E+00 0.  1.
         21    1    1    2  504  501  0.29068229939E+02  0.14930574771E+02  0.11889020512E+03  0.12329949281E+03  0.00000000000E+00 0. -1.
</event>
<event>
 4    1  0.3099057E+006  0.4229995E+02  0.7546771E-02  0.1335511E+00
         21   -1    0    0  503  501  0.00000000000E+00  0.00000000000E+00  0.15639275684E+03  0.15639275684E+03  0.00000000000E+00 0.  1.
         21   -1    0    0  501  502 -0.00000000000E+00 -0.00000000000E+00 -0.18516034027E+02  0.18516034027E+02  0.00000000000E+00 0.  1.
         21    1    1    2  503  504 -0.13850124519E+02  0.39968231813E+02  0.12299794718E+03  0.13006836862E+03  0.00000000000E+00 0.  1.
         21    1    1    2  504  502  0.13850124519E+02 -0.39968231813E+02  0.14878775632E+02  0.44840422252E+02  0.00000000000E+00 0.  1.
</event>
<event>
 4    1  0.3099057E+006  0.2010882E+02  0.7546771E-02  0.1532379E+00
         21   -1    0    0  502  501  0.00000000000E+00  0.00000000000E+00  0.84914160555E+02  0.84914160555E+02  0.00000000000E+00 0.  1.
         21   -1    0    0  503  502 -0.00000000000E+00 -0.00000000000E+00 -0.13510569550E+02  0.13510569550E+02  0.00000000000E+00 0.  1.
         21    1    1    2  503  504 -0.15263353381E+02 -0.13091781869E+02 -0.38990917534E+01  0.20483349957E+02  0.00000000000E+00 0.  1.
         21    1    1    2  504  501  0.15263353381E+02  0.13091781869E+02  0.75302682758E+02  0.77941380149E+02  0.00000000000E+00 0.  1.
</event>
<event>
 4    1  0.3099057E+006  0.2518897E+02  0.7546771E-02  0.1466700E+00
         21   -1    0    0  502  501  0.00000000000E+00  0.00000000000E+00  0.95297525561E+02  0.95297525561E+02  0.00000000000E+00 0. -1.
         21   -1    0    0  504  502 -0.00000000000E+00 -0.00000000000E+00 -0.13616843632E+03  0.13616843632E+03  0.00000000000E+00 0.  1.
         21    1    1    2  503  501 -0.11412959358E+02  0.22455032448E+02  0.92432697355E+02  0.95803380232E+02  0.00000000000E+00 0. -1.
         21    1    1    2  504  503  0.11412959358E+02 -0.22455032448E+02 -0.13330360812E+03  0.13566258165E+03  0.00000000000E+00 0.  1.
</event>
<event>
 4    1  0.3099057E+006  0.2967980E+02  0.7546771E-02  0.1422400E+00
         21   -1    0    0  504  501  0.00000000000E+00  0.00000000000E+00  0.67450314457E+02  0.67450314457E+02  0.00000000000E+00 0. -1.
         21   -1    0    0  503  502 -0.00000000000E+00 -0.00000000000E+00 -0.13132804926E+02  0.13132804926E+02  0.00000000000E+00 0. -1.
         21    1    1    2  503  501 -0.20894503477E+02 -0.21078669525E+02  0.30161928819E+02  0.42315866227E+02  0.00000000000E+00 0. -1.
         21    1    1    2  504  502  0.20894503477E+02  0.21078669525E+02  0.24155580712E+02  0.38267253155E+02  0.00000000000E+00 0. -1.
</event>
<event>
 4    1  0.3099057E+006  0.2198582E+02  0.7546771E-02  0.1505642E+00
         21   -1    0    0  502  501  0.00000000000E+00  0.00000000000E+00  0.32519260244E+01  0.32519260244E+01  0.00000000000E+00 0. -1.
         21   -1    0    0  503  502 -0.00000000000E+00 -0.00000000000E+00 -0.35458687345E+03  0.35458687345E+03  0.00000000000E+00 0. -1.
         21    1    1    2  503  504  0.21959435897E+02  0.10768102769E+01 -0.31202227813E+03  0.31279590534E+03  0.00000000000E+00 0. -1.
         21    1    1    2  504  501 -0.21959435897E+02 -0.10768102769E+01 -0.39312669299E+02  0.45042894142E+02  0.00000000000E+00 0. -1.
</event>
<event>
 4    1  0.3099057E+006  0.2545663E+02  0.7546771E-02  0.1463759E+00
         21   -1    0    0  504  501  0.00000000000E+00  0.00000000000E+00  0.17297082441E+02  0.17297082441E+02  0.00000000000E+00 0. -1.
         21   -1    0    0  503  502 -0.00000000000E+00 -0.00000000000E+00 -0.44104402358E+02  0.44104402358E+02  0.00000000000E+00 0.  1.
         21    1    1    2  503  501 -0.18361985480E+02 -0.17631719483E+02 -0.14922483538E+01  0.25500330348E+02  0.00000000000E+00 0. -1.
         21    1    1    2  504  502  0.18361985480E+02  0.17631719483E+02 -0.25315071563E+02  0.35901154451E+02  0.00000000000E+00 0.  1.
</event>
<event>
 4    1  0.3099057E+006  0.2017279E+02  0.7546771E-02  0.1531411E+00
         21   -1    0    0  504  501  0.00000000000E+00  0.00000000000E+00  0.73014799001E+03  0.73014799001E+03  0.00000000000E+00 0.  1.
         21   -1    0    0  503  502 -0.00000000000E+00 -0.00000000000E+00 -0.64132540699E+01  0.64132540699E+01  0.00000000000E+00 0.  1.
         21    1    1    2  503  501 -0.57515332333E+01  0.19335491490E+02  0.99530327787E+01  0.22494537719E+02  0.00000000000E+00 0.  1.
         21    1    1    2  504  502  0.57515332333E+01 -0.19335491490E+02  0.71378170316E+03  0.71406670636E+03  0.00000000000E+00 0.  1.
</event>
<event>
 4    1  0.3099057E+006  0.2073901E+02  0.7546771E-02  0.1523024E+00
         21   -1    0    0  503  501  0.00000000000E+00  0.00000000000E+00  0.33655150305E+02  0.33655150305E+02  0.00000000000E+00 0.  1.
         21   -1    0    0  504  502 -0.00000000000E+00 -0.00000000000E+00 -0.28250126552E+03  0.28250126552E+03  0.00000000000E+00 0.  1.
         21    1    1    2  503  502  0.14083565522E+02  0.15223659069E+02  0.30038193354E+02  0.36502050261E+02  0.00000000000E+00 0.  1.
         21    1    1    2  504  501 -0.14083565522E+02 -0.15223659069E+02 -0.27888430857E+03  0.27965436556E+03  0.00000000000E+00 0.  1.
</event>
<event>
 4    1  0.3099057E+006  0.2451567E+02  0.7546771E-02  0.1474295E+00
         21   -1    0    0  503  501  0.00000000000E+00  0.00000000000E+00  0.44755045154E+02  0.44755045154E+02  0.00000000000E+00 0.  1.
         21   -1    0    0  501  502 -0.00000000000E+00 -0.00000000000E+00 -0.13839993335E+02  0.13839993335E+02  0.00000000000E+00 0.  1.
         21    1    1    2  503  504  0.24186191881E+02  0.40057642798E+01  0.20505888043E+02  0.31961061772E+02  0.00000000000E+00 0.  1.
         21    1    1    2  504  502 -0.24186191881E+02 -0.40057642798E+01  0.10409163776E+02  0.26633976716E+02  0.00000000000E+00 0.  1.
</event>
<event>
 4    1  0.3099057E+006  0.2012460E+02  0.7546771E-02  0.1532140E+00
         21   -1    0    0  502  501  0.00000000000E+00  0.00000000000E+00  0.35188434616E+03  0.35188434616E+03  0.00000000000E+00 0. -1.
         21   -1    0    0  503  502 -0.00000000000E+00 -0.00000000000E+00 -0.17807101642E+01  0.17807101642E+01  0.00000000000E+00 0.  1.
         21    1    1    2  503  504  0.55113688970E+01  0.19355212577E+02  0.69890761615E+02  0.72730447545E+02  0.00000000000E+00 0.  1.
         21    1    1    2  504  501 -0.55113688970E+01 -0.19355212577E+02  0.28021287438E+03  0.28093460878E+03  0.00000000000E+00 0. -1.
</event>
<event>
 4    1  0.3099057E+006  0.2057450E+02  0.7546771E-02  0.1525427E+00
         21   -1    0    0  503  501  0.00000000000E+00  0.00000000000E+00  0.16850932087E+02  0.16850932087E+02  0.00000000000E+00 0.  1.
         21   -1    0    0  504  502 -0.00000000000E+00 -0.00000000000E+00 -0.44185767344E+02  0.44185767344E+02  0.00000000000E+00 0.  1.
         21    1    1    2  503  502 -0.10990389642E+02  0.17393143892E+02  0.63790127503E+01  0.21540703856E+02  0.00000000000E+00 0.  1.
         21    1    1    2  504  501  0.10990389642E+02 -0.17393143892E+02 -0.33713848007E+02  0.39495995574E+02  0.00000000000E+00 0.  1.
</event>
<event>
 4    1  0.3099057E+006  0.3608894E+02  0.7546771E-02  0.1373065E+00
         21   -1    0    0  503  501  0.00000000000E+00  0.00000000000E+00  0.25065272479E+02  0.25065272479E+02  0.00000000000E+00 0.  1.
         21   -1    0    0  504  502 -0.00000000000E+00 -0.00000000000E+00 -0.90575935492E+02  0.90575935492E+02  0.00000000000E+00 0.  1.
         21    1    1    2  503  502  0.15385862788E+01  0.36056126256E+02  0.49979771490E+01  0.36433381175E+02  0.00000000000E+00 0.  1.
         21    1    1    2  504  501 -0.15385862788E+01 -0.36056126256E+02 -0.70508640162E+02  0.79207826796E+02  0.00000000000E+00 0.  1.
</event>
<event>
 4    1  0.3099057E+006  0.2202769E+02  0.7546771E-02  0.1505082E+00
         21   -1    0    0  504  501  0.00000000000E+00  0.00000000000E+00  0.76300129016E+00  0.76300129016E+00  0.00000000000E+00 0.  1.
         21   -1    0    0  503  502 -0.00000000000E+00 -0.00000000000E+00 -0.70957763112E+03  0.70957763112E+03  0.00000000000E+00 0.  1.
         21    1    1    2  503  501 -0.14633423226E+02 -0.16464570160E+02 -0.23998738965E+03  0.24099619569E+03  0.00000000000E+00 0.  1.
         21    1    1    2  504  502  0.14633423226E+02  0.16464570160E+02 -0.46882724017E+03  0.46934443671E+03  0.00000000000E+00 0.  1.
</event>
<event>
 4    1  0.3099057E+006  0.2279473E+02  0.7546771E-02  0.1495092E+00
         21   -1    0    0  504  501  0.00000000000E+00  0.00000000000E+00  0.39463785434E+03  0.39463785434E+03  0.00000000000E+00 0.  1.
         21   -1    0    0  503  502 -0.00000000000E+00 -0.00000000000E+00 -0.27189178334E+01  0.27189178334E+01  0.00000000000E+00 0.  1.
         21    1    1    2  503  501  0.17133460988E+02  0.15034764435E+02  0.53277797213E+02  0.57949316674E+02  0.00000000000E+00 0.  1.
         21    1    1    2  504  502 -0.17133460988E+02 -0.15034764435E+02  0.33864113929E+03  0.33940745550E+03  0.00000000000E+00 0.  1.
</event>
<event>
 4    1  0.3099057E+006  0.2617106E+02  0.7546771E-02  0.1456117E+00
         21   -1    0    0  504  501  0.00000000000E+00  0.00000000000E+00  0.46091988457E+01  0.46091988457E+01  0.00000000000E+00 0. -1.
         21   -1    0    0  503  502 -0.00000000000E+00 -0.00000000000E+00 -0.18508059398E+03  0.18508059398E+03  0.00000000000E+00 0. -1.
         21    1    1    2  503  501  0.24508662260E+02 -0.91787848822E+01 -0.48127419254E+02  0.54782963609E+02  0.00000000000E+00 0. -1.
         21    1    1    2  504  502 -0.24508662260E+02  0.91787848822E+01 -0.13234397588E+03  0.13490682922E+03  0.00000000000E+00 0. -1.
</event>
<event>
 4    1  0.3099057E+006  0.2674089E+02  0.7546771E-02  0.1450228E+00
         21   -1    0    0  503  501  0.00000000000E+00  0.00000000000E+00  0.36746403590E+02  0.36746403590E+02  0.00000000000E+00 0.  1.
         21   -1    0    0  504  502 -0.00000000000E+00 -0.00000000000E+00 -0.22749109449E+02  0.22749109449E+02  0.00000000000E+00 0.  1.
         21    1    1    2  503  502  0.25495318968E+02 -0.80662265301E+01 -0.43130725790E+01  0.27086489155E+02  0.00000000000E+00 0.  1.
         21    1    1    2  504  501 -0.25495318968E+02  0.80662265301E+01  0.18310366720E+02  0.32409023884E+02  0.00000000000E+00 0.  1.
</event>
<event>
 4    1  0.3099057E+006  0.2325434E+02  0.7546771E-02  0.1489329E+00
         21   -1    0    0  503  501  0.00000000000E+00  0.00000000000E+00  0.13691344065E+03  0.13691344065E+03  0.00000000000E+00 0.  1.
         21   -1    0    0  504  502 -0.00000000000E+00 -0.00000000000E+00 -0.70572945638E+03  0.70572945638E+03  0.00000000000E+00 0. -1.
         21    1    1    2  503  502  0.85923087444E+01 -0.21608718698E+02  0.13573280380E+03  0.13771041544E+03  0.00000000000E+00 0.  1.
         21    1    1    2  504  501 -0.85923087444E+01  0.21608718698E+02 -0.70454881953E+03  0.70493248159E+03  0.00000000000E+00 0. -1.
</event>
<event>
 4    1  0.3099057E+006  0.5660219E+02  0.7546771E-02  0.1271836E+00
         21   -1    0    0  504  501  0.00000000000E+00  0.00000000000E+00  0.49269897769E+02  0.49269897769E+02  0.00000000000E+00 0.  1.
         21   -1    0    0  503  502 -0.00000000000E+00 -0.00000000000E+00 -0.65661480282E+02  0.65661480282E+02  0.00000000000E+00 0.  1.
         21    1    1    2  503  501 -0.46588890544E+02 -0.32144715547E+02 -0.25409347761E+01  0.56659189981E+02  0.00000000000E+00 0.  1.
         21    1    1    2  504  502  0.46588890544E+02  0.32144715547E+02 -0.13850647737E+02  0.58272188070E+02  0.00000000000E+00 0.  1.
</event>
<event>
 4    1  0.3099057E+006  0.2131700E+02  0.7546771E-02  0.1514787E+00
         21   -1    0    0  502  501  0.00000000000E+00  0.00000000000E+00  0.14808806427E+01  0.14808806427E+01  0.00000000000E+00 0.  1.
         21   -1    0    0  503  502 -0.00000000000E+00 -0.00000000000E+00 -0.14283382059E+04  0.14283382059E+04  0.00000000000E+00 0. -1.
         21    1    1    2  503  504 -0.20199619375E+02  0.68110021872E+01 -0.13469075122E+04  0.13470761897E+04  0.00000000000E+00 0. -1.
         21    1    1    2  504  501  0.20199619375E+02 -0.68110021872E+01 -0.79949813031E+02  0.82742896839E+02  0.00000000000E+00 0.  1.
</event>
<event>
 4    1  0.3099057E+006  0.2529648E+02  0.7546771E-02  0.1465514E+00
         21   -1    0    0  503  501  0.00000000000E+00  0.00000000000E+00  0.10886514513E+02  0.10886514513E+02  0.00000000000E+00 0. -1.
         21   -1    0    0  504  502 -0.00000000000E+00 -0.00000000000E+00 -0.67608048219E+02  0.67608048219E+02  0.00000000000E+00 0. -1.
         21    1    1    2  503  502  0.22856328184E+02  0.10839748785E+02 -0.42542748662E+02  0.49495427622E+02  0.00000000000E+00 0. -1.
         21    1    1    2  504  501 -0.22856328184E+02 -0.10839748785E+02 -0.14178785045E+02  0.28999135110E+02  0.00000000000E+00 0. -1.
</event>
<event>
 4    1  0.3099057E+006  0.2455003E+02  0.7546771E-02  0.1473901E+00
         21   -1    0    0  502  501  0.00000000000E+00  0.00000000000E+00  0.31777883763E+03  0.31777883763E+03  0.00000000000E+00 0.  1.
         21   -1    0    0  504  502 -0.00000000000E+00 -0.00000000000E+00 -0.60055501704E+01  0.60055501704E+01  0.00000000000E+00 0. -1.
         21    1    1    2  503  501  0.19952508249E+02 -0.14303891222E+02  0.28979700757E+03  0.29083502108E+03  0.00000000000E+00 0.  1.
         21    1    1    2  504  503 -0.19952508249E+02  0.14303891222E+02  0.21976279887E+02  0.32949366719E+02  0.00000000000E+00 0. -1.
</event>
<event>
 4    1  0.3099057E+006  0.2117128E+02  0.7546771E-02  0.1516833E+00
         21   -1    0    0  503  501  0.00000000000E+00  0.00000000000E+00  0.69234316746E+01  0.69234316746E+01  0.00000000000E+00 0.  1.
         21   -1    0    0  504  502 -0.00000000000E+00 -0.00000000000E+00 -0.80822456069E+02  0.80822456069E+02  0.00000000000E+00 0.  1.
         21    1    1    2  503  502 -0.13574819976E+01 -0.21127717676E+02 -0.17378807509E+02  0.27390621790E+02  0.00000000000E+00 0.  1.
         21    1    1    2  504  501  0.13574819976E+01  0.21127717676E+02 -0.56520216885E+02  0.60355265954E+02  0.00000000000E+00 0.  1.
</event>
<event>
 4    1  0.3099057E+006  0.2060536E+02  0.7546771E-02  0.1524975E+00
         21   -1    0    0  502  501  0.00000000000E+00  0.00000000000E+00  0.34342333983E+01  0.34342333983E+01  0.00000000000E+00 0.  1.
         21   -1    0    0  503  502 -0.00000000000E+00 -0.00000000000E+00 -0.16185340062E+03  0.16185340062E+03  0.00000000000E+00 0.  1.
         21    1    1    2  503  504  0.29155924640E+01 -0.20398043134E+02 -0.11937046624E+03  0.12113582894E+03  0.00000000000E+00 0.  1.
         21    1    1    2  504  501 -0.29155924640E+01  0.20398043134E+02 -0.39048700982E+02  0.44151805077E+02  0.00000000000E+00 0.  1.
</event>
<event>
 4    1  0.3099057E+006  0.2073559E+02  0.7546771E-02  0.1523074E+00
         21   -1    0    0  502  501  0.00000000000E+00  0.00000000000E+00  0.22147271517E+03  0.22147271517E+03  0.00000000000E+00 0.  1.
         21   -1    0    0  503  502 -0.00000000000E+00 -0.00000000000E+00 -0.70892682344E+01  0.70892682344E+01  0.00000000000E+00 0.  1.
         21    1    1    2  503  504  0.71395910746E+01 -0.19467692649E+02  0.98077597387E+01  0.22938111712E+02  0.00000000000E+00 0.  1.
         21    1    1    2  504  501 -0.71395910746E+01  0.19467692649E+02  0.20457568720E+03  0.20562387169E+03  0.00000000000E+00 0.  1.
</event>
<event>
 4    1  0.3099057E+006  0.2268586E+02  0.7546771E-02  0.1496481E+00
         21   -1    0    0  504  501  0.00000000000E+00  0.00000000000E+00  0.22994500196E+03  0.22994500196E+03  0.00000000000E+00 0.  1.
         21   -1    0    0  503  502 -0.00000000000E+00 -0.00000000000E+00 -0.22865040113E+01  0.22865040113E+01  0.00000000000E+00 0.  1.
         21    1    1    2  503  501  0.20185456787E+02  0.10353533250E+02  0.13071738605E+03  0.13267133576E+03  0.00000000000E+00 0.  1.
         21    1    1    2  504  502 -0.20185456787E+02 -0.10353533250E+02  0.96941111901E+02  0.99560170214E+02  0.00000000000E+00 0.  1.
</event>
<event>
 4    1  0.3099057E+006  0.2043099E+02  0.7546771E-02  0.1527546E+00
         21   -1    0    0  503  501  0.00000000000E+00  0.00000000000E+00  0.18667081799E+01  0.18667081799E+01  0.00000000000E+00 0. -1.
         21   -1    0    0  504  502 -0.00000000000E+00 -0.00000000000E+00 -0.34031247679E+03  0.34031247679E+03  0.00000000000E+00 0. -1.
         21    1    1    2  503  502  0.23254911058E+01  0.20298214053E+02 -0.26941047677E+03  0.27018406762E+03  0.00000000000E+00 0. -1.
         21    1    1    2  504  501 -0.23254911058E+01 -0.20298214053E+02 -0.69035291834E+02  0.71995117343E+02  0.00000000000E+00 0. -1.
</event>
<event>
 4    1  0.3099057E+006  0.2117509E+02  0.7546771E-02  0.1516780E+00
         21   -1    0    0  504  501  0.00000000000E+00  0.00000000000E+00  0.49313214390E+02  0.49313214390E+02  0.00000000000E+00 0.  1.
         21   -1    0    0  503  502 -0.00000000000E+00 -0.00000000000E+00 -0.15164402311E+02  0.15164402311E+02  0.00000000000E+00 0.  1.
         21    1    1    2  503  501 -0.79584843137E+01 -0.19622616665E+02 -0.33253843893E+01  0.21434615432E+02  0.00000000000E+00 0.  1.
         21    1    1    2  504  502  0.79584843137E+01  0.19622616665E+02  0.37474196468E+02  0.43043001269E+02  0.00000000000E+00 0.  1.
</event>
<event>
 4    1  0.3099057E+006  0.3697442E+02  0.7546771E-02  0.1367190E+00
         21   -1    0    0  504  501  0.00000000000E+00  0.00000000000E+00  0.38044621484E+01  0.38044621484E+01  0.00000000000E+00 0. -1.
         21   -1    0    0  503  502 -0.00000000000E+00 -0.00000000000E+00 -0.52835579616E+03  0.52835579616E+03  0.00000000000E+00 0. -1.
         21    1    1    2  503  501 -0.21610999241E+02 -0.30001212553E+02 -0.11178533773E+03  0.11774153802E+03  0.00000000000E+00 0. -1.
         21    1    1    2  504  502  0.21610999241E+02  0.30001212553E+02 -0.41276599628E+03  0.41441872029E+03  0.00000000000E+00 0. -1.
</event>
<event>
 4    1  0.3099057E+006  0.2000427E+02  0.7546771E-02  0.1533970E+00
         21   -1    0    0  504  501  0.00000000000E+00  0.00000000000E+00  0.23449030525E+02  0.23449030525E+02  0.00000000000E+00 0.  1.
         21   -1    0    0  503  502 -0.00000000000E+00 -0.00000000000E+00 -0.21718394459E+03  0.21718394459E+03  0.00000000000E+00 0. -1.
         21    1    1    2  503  501 -0.20004043108E+02 -0.94491856908E-01 -0.21236022462E+03  0.21330034146E+03  0.00000000000E+00 0. -1.
         21    1    1    2  504  502  0.20004043108E+02  0.94491856908E-01  0.18625310549E+02  0.27332633653E+02  0.00000000000E+00 0.  1.
</event>
<event>
 4    1  0.3099057E+006  0.3861810E+02  0.7546771E-02  0.1356780E+00
         21   -1    0    0  504  501  0.00000000000E+00  0.00000000000E+00  0.27862765241E+03  0.27862765241E+03  0.00000000000E+00 0.  1.
         21   -1    0    0  501  502 -0.00000000000E+00 -0.00000000000E+00 -0.94856017651E+02  0.94856017651E+02  0.00000000000E+00 0.  1.
         21    1    1    2  503  502 -0.34866374836E+02  0.16604024028E+02 -0.89510807646E+02  0.97486113850E+02  0.00000000000E+00 0.  1.
         21    1    1    2  504  503  0.34866374836E+02 -0.16604024028E+02  0.27328244241E+03  0.27599755621E+03  0.00000000000E+00 0.  1.
</event>
<event>
 4    1  0.3099057E+006  0.2410811E+02  0.7546771E-02  0.1479033E+00
         21   -1    0    0  503  501  0.00000000000E+00  0.00000000000E+00  0.32452574734E+02  0.32452574734E+02  0.00000000000E+00 0.  1.
         21   -1    0    0  504  502 -0.00000000000E+00 -0.00000000000E+00 -0.31585909020E+02  0.31585909020E+02  0.00000000000E+00 0. -1.
         21    1    1    2  503  502  0.23225894965E+02  0.64620929997E+01 -0.20636183929E+02  0.31734097278E+02  0.00000000000E+00 0. -1.
         21    1    1    2  504  501 -0.23225894965E+02 -0.64620929997E+01  0.21502849642E+02  0.32304386476E+02  0.00000000000E+00 0.  1.
</event>
<event>
 4    1  0.3099057E+006  0.4617445E+02  0.7546771E-02  0.1315669E+00
         21   -1    0    0  504  501  0.00000000000E+00  0.00000000000E+00  0.69235645828E+03  0.69235645828E+03  0.00000000000E+00 0. -1.
         21   -1    0    0  503  502 -0.00000000000E+00 -0.00000000000E+00 -0.32556751795E+01  0.32556751795E+01  0.00000000000E+00 0. -1.
         21    1    1    2  503  501 -0.44398254907E+02  0.12683627665E+02  0.26363215495E+03  0.26764527377E+03  0.00000000000E+00 0. -1.
         21    1    1    2  504  502  0.44398254907E+02 -0.12683627665E+02  0.42546862815E+03  0.42796685968E+03  0.00000000000E+00 0. -1.
</event>
<event>
 4    1  0.3099057E+006  0.2297864E+02  0.7546771E-02  0.1492767E+00
         21   -1    0    0  504  501  0.00000000000E+00  0.00000000000E+00  0.67121329352E+01  0.67121329352E+01  0.00000000000E+00 0. -1.
         21   -1    0    0  501  502 -0.00000000000E+00 -0.00000000000E+00 -0.47432871653E+03  0.47432871653E+03  0.00000000000E+00 0.  1.
         21    1    1    2  503  502 -0.36645031011E+01  0.22684556186E+02 -0.45348030670E+03  0.45406211716E+03  0.00000000000E+00 0.  1.
         21    1    1    2  504  503  0.36645031011E+01 -0.22684556186E+02 -0.14136276888E+02  0.26978732301E+02  0.00000000000E+00 0. -1.
</event>
<event>
 4    1  0.3099057E+006  0.2440761E+02  0.7546771E-02  0.1475541E+00
         21   -1    0    0  504  501  0.00000000000E+00  0.00000000000E+00  0.44505732189E+01  0.44505732189E+01  0.00000000000E+00 0. -1.
         21   -1    0    0  503  502 -0.00000000000E+00 -0.00000000000E+00 -0.14072256854E+03  0.14072256854E+03  0.00000000000E+00 0. -1.
         21    1    1    2  503  501 -0.13728673447E+01 -0.24368971747E+02 -0.84171235401E+02  0.87638624006E+02  0.00000000000E+00 0. -1.
         21    1    1    2  504  502  0.13728673447E+01  0.24368971747E+02 -0.52100759917E+02  0.57534517749E+02  0.00000000000E+00 0. -1.
</event>
<event>
 4    1  0.3099057E+006  0.2604132E+02  0.7546771E-02  0.1457483E+00
         21   -1    0    0  504  501  0.00000000000E+00  0.00000000000E+00  0.17134145118E+01  0.17134145118E+01  0.00000000000E+00 0.  1.
         21   -1    0    0  503  502 -0.00000000000E+00 -0.00000000000E+00 -0.10226383304E+04  0.10226383304E+04  0.00000000000E+00 0. -1.
         21    1    1    2  503  501 -0.24187382998E+02 -0.96499197791E+01 -0.91145814319E+03  0.91183008134E+03  0.00000000000E+00 0. -1.
         21    1    1    2  504  502  0.24187382998E+02  0.96499197791E+01 -0.10946677268E+03  0.11252166356E+03  0.00000000000E+00 0.  1.
</event>
<event>
 4    1  0.3099057E+006  0.2567061E+02  0.7546771E-02  0.1461439E+00
         21   -1    0    0  503  501  0.00000000000E+00  0.00000000000E+00  0.14946817810E+03  0.14946817810E+03  0.00000000000E+00 0.  1.
         21   -1    0    0  504  502 -0.00000000000E+00 -0.00000000000E+00 -0.10622158988E+02  0.10622158988E+02  0.00000000000E+00 0.  1.
         21    1    1    2  503  502 -0.17686488364E+01  0.25609607179E+02  0.82033617550E+01  0.26949494293E+02  0.00000000000E+00 0.  1.
         21    1    1    2  504  501  0.17686488364E+01 -0.25609607179E+02  0.13064265736E+03  0.13314084279E+03  0.00000000000E+00 0.  1.
</event>
<event>
 4    1  0.3099057E+006  0.2707931E+02  0.7546771E-02  0.1446813E+00
         21   -1    0    0  504  501  0.00000000000E+00  0.00000000000E+00  0.15848701407E+03  0.15848701407E+03  0.00000000000E+00 0.  1.
         21   -1    0    0  503  502 -0.00000000000E+00 -0.00000000000E+00 -0.81218165861E+01  0.81218165861E+01  0.00000000000E+00 0. -1.
         21    1    1    2  503  501  0.84914666283E+01 -0.25713497544E+02  0.12982950302E+03  0.13262348515E+03  0.00000000000E+00 0.  1.
         21    1    1    2  504  502 -0.84914666283E+01  0.25713497544E+02  0.20535694466E+02  0.33985345499E+02  0.00000000000E+00 0. -1.
</event>
<event>
 4    1  0.3099057E+006  0.2193394E+02  0.7546771E-02  0.1506337E+00
         21   -1    0    0  503  501  0.00000000000E+00  0.00000000000E+00  0.11618658162E+01  0.11618658162E+01  0.00000000000E+00 0. -1.
         21   -1    0    0  504  502 -0.00000000000E+00 -0.00000000000E+00 -0.47112227945E+03  0.47112227945E+03  0.00000000000E+00 0. -1.
         21    1    1    2  503  502  0.89049365985E+01 -0.20044947478E+02 -0.15280707754E+03  0.15437325145E+03  0.00000000000E+00 0. -1.
         21    1    1    2  504  501 -0.89049365985E+01  0.20044947478E+02 -0.31715333609E+03  0.31791089382E+03  0.00000000000E+00 0. -1.
</event>
<event>
 4    1  0.3099057E+006  0.2321439E+02  0.7546771E-02  0.1489823E+00
         21   -1    0    0  503  501  0.00000000000E+00  0.00000000000E+00  0.32654046165E+02  0.32654046165E+02  0.00000000000E+00 0. -1.
         21   -1    0    0  501  502 -0.00000000000E+00 -0.00000000000E+00 -0.30324700286E+02  0.30324700286E+02  0.00000000000E+00 0. -1.
         21    1    1    2  503  504  0.19698681175E+02 -0.12282903939E+02  0.22423427176E+02  0.32275654223E+02  0.00000000000E+00 0. -1.
         21    1    1    2  504  502 -0.19698681175E+02  0.12282903939E+02 -0.20094081297E+02  0.30703092228E+02  0.00000000000E+00 0. -1.
</event>
<event>
 4    1  0.3099057E+006  0.2543329E+02  0.7546771E-02  0.1464014E+00
         21   -1    0    0  504  501  0.00000000000E+00  0.00000000000E+00  0.13878866786E+03  0.13878866786E+03  0.00000000000E+00 0. -1.
         21   -1    0    0  501  502 -0.00000000000E+00 -0.00000000000E+00 -0.38038338592E+02  0.38038338592E+02  0.00000000000E+00 0. -1.
         21    1    1    2  503  502 -0.25160449310E+02  0.37154061660E+01 -0.32444911988E+02  0.41225292799E+02  0.00000000000E+00 0. -1.
         21    1    1    2  504  503  0.25160449310E+02 -0.37154061660E+01  0.13319524126E+03  0.13560171365E+03  0.00000000000E+00 0. -1.
</event>
<event>
 4    1  0.3099057E+006  0.3096527E+02  0.7546771E-02  0.1411389E+00
         21   -1    0    0  504  501  0.00000000000E+00  0.00000000000E+00  0.80577230425E+02  0.80577230425E+02  0.00000000000E+00 0. -1.
         21   -1    0    0  503  502 -0.00000000000E+00 -0.00000000000E+00 -0.11929609086E+02  0.11929609086E+02  0.00000000000E+00 0. -1.
         21    1    1    2  503  501  0.70399080678E+01  0.30154401795E+02  0.36638150689E+02  0.47970848847E+02  0.00000000000E+00 0. -1.
         21    1    1    2  504  502 -0.70399080678E+01 -0.30154401795E+02  0.32009470650E+02  0.44535990665E+02  0.00000000000E+00 0. -1.
</event>
<event>
 4    1  0.3099057E+006  0.4292691E+02  0.7546771E-02  0.1332138E+00
         21   -1    0    0  503  501  0.00000000000E+00  0.00000000000E+00  0.42512440198E+03  0.42512440198E+03  0.00000000000E+00 0. -1.
         21   -1    0    0  504  502 -0.00000000000E+00 -0.00000000000E+00 -0.55407066436E+01  0.55407066436E+01  0.00000000000E+00 0. -1.
         21    1    1    2  503  502 -0.18631426962E+02  0.38672850686E+02  0.10932322154E+03  0.11744907926E+03  0.00000000000E+00 0. -1.
         21    1    1    2  504  501  0.18631426962E+02 -0.38672850686E+02  0.31026047379E+03  0.31321602936E+03  0.00000000000E+00 0. -1.
</event>
<event>
 4    1  0.3099057E+006  0.2439303E+02  0.7546771E-02  0.1475709E+00
         21   -1    0    0  502  501  0.00000000000E+00  0.00000000000E+00  0.29561030781E+03  0.29561030781E+03  0.00000000000E+00 0. -1.
         21   -1    0    0  504  502 -0.00000000000E+00 -0.00000000000E+00 -0.14099300877E+02  0.14099300877E+02  0.00000000000E+00 0.  1.
         21    1    1    2  503  501  0.24353759245E+02  0.13836435525E+01  0.28413110022E+03  0.28517626509E+03  0.00000000000E+00 0. -1.
         21    1    1    2  504  503 -0.24353759245E+02 -0.13836435525E+01 -0.26200932935E+01  0.24533343591E+02  0.00000000000E+00 0.  1.
</event>
<event>
 4    1  0.3099057E+006  0.3078225E+02  0.7546771E-02  0.1412918E+00
         21   -1    0    0  504  501  0.00000000000E+00  0.00000000000E+00  0.57269650394E+02  0.57269650394E+02  0.00000000000E+00 0. -1.
         21   -1    0    0  501  502 -0.00000000000E+00 -0.00000000000E+00 -0.17183812743E+02  0.17183812743E+02  0.00000000000E+00 0. -1.
         21    1    1    2  503  502 -0.23804121229E+02 -0.19516941812E+02  0.12867319173E+02  0.33363379743E+02  0.00000000000E+00 0. -1.
         21    1    1    2  504  503  0.23804121229E+02  0.19516941812E+02  0.27218518478E+02  0.41090083394E+02  0.00000000000E+00 0. -1.
</event>
<event>
 4    1  0.3099057E+006  0.2015922E+02  0.7546771E-02  0.1531616E+00
         21   -1    0    0  503  501  0.00000000000E+00  0.00000000000E+00  0.30806452407E+03  0.30806452407E+03  0.00000000000E+00 0.  1.
         21   -1    0    0  501  502 -0.00000000000E+00 -0.00000000000E+00 -0.47158536221E+02  0.47158536221E+02  0.00000000000E+00 0.  1.
         21    1    1    2  503  504  0.20146826826E+02 -0.70673269956E+00  0.30556270390E+03  0.30622697483E+03  0.00000000000E+00 0.  1.
         21    1    1    2  504  502 -0.20146826826E+02  0.70673269956E+00 -0.44656716047E+02  0.48996085460E+02  0.00000000000E+00 0.  1.
</event>
<event>
 4    1  0.3099057E+006  0.2277364E+02  0.7546771E-02  0.1495360E+00
         21   -1    0    0  503  501  0.00000000000E+00  0.00000000000E+00  0.71129547354E+03  0.71129547354E+03  0.00000000000E+00 0. -1.
         21   -1    0    0  504  502 -0.00000000000E+00 -0.00000000000E+00 -0.72937297048E+00  0.72937297048E+00  0.00000000000E+00 0. -1.
         21    1    1    2  503  502  0.10419575101E+02  0.20250217027E+02  0.34901422840E+03  0.34975644449E+03  0.00000000000E+00 0. -1.
         21    1    1    2  504  501 -0.10419575101E+02 -0.20250217027E+02  0.36155187216E+03  0.36226840202E+03  0.00000000000E+00 0. -1.
</event>
<event>
 4    1  0.3099057E+006  0.2942123E+02  0.7546771E-02  0.1424694E+00
         21   -1    0    0  502  501  0.00000000000E+00  0.00000000000E+00  0.45733253953E+03  0.45733253953E+03  0.00000000000E+00 0. -1.
         21   -1    0    0  504  502 -0.00000000000E+00 -0.00000000000E+00 -0.20880809908E+01  0.20880809908E+01  0.00000000000E+00 0. -1.
         21    1    1    2  503  501 -0.14980452522E+02 -0.25321822460E+02  0.29788263588E+03  0.29933204541E+03  0.00000000000E+00 0. -1.
         21    1    1    2  504  503  0.14980452522E+02  0.25321822460E+02  0.15736182266E+03  0.16008857511E+03  0.00000000000E+00 0. -1.
</event>
<event>
 4    1  0.3099057E+006  0.2061485E+02  0.7546771E-02  0.1524835E+00
         21   -1    0    0  504  501  0.00000000000E+00  0.00000000000E+00  0.35646095909E+02  0.35646095909E+02  0.00000000000E+00 0. -1.
         21   -1    0    0  503  502 -0.00000000000E+00 -0.00000000000E+00 -0.12077745267E+02  0.12077745267E+02  0.00000000000E+00 0. -1.
         21    1    1    2  503  501  0.59534149198E+01 -0.19736486515E+02  0.14494039437E+02  0.25200183102E+02  0.00000000000E+00 0. -1.
         21    1    1    2  504  502 -0.59534149198E+01  0.19736486515E+02  0.90743112047E+01  0.22523658073E+02  0.00000000000E+00 0. -1.
</event>
<event>
 4    1  0.3099057E+006  0.3075241E+02  0.7546771E-02  0.1413168E+00
         21   -1    0    0  504  501  0.00000000000E+00  0.00000000000E+00  0.24183568247E+02  0.24183568247E+02  0.00000000000E+00 0. -1.
         21   -1    0    0  503  502 -0.00000000000E+00 -0.00000000000E+00 -0.53150911506E+02  0.53150911506E+02  0.00000000000E+00 0.  1.
         21    1    1    2  503  501  0.25970396842E+02  0.16469646822E+02 -0.34360857004E+02  0.46112680172E+02  0.00000000000E+00 0.  1.
         21    1    1    2  504  502 -0.25970396842E+02 -0.16469646822E+02  0.53935137449E+01  0.31221799581E+02  0.00000000000E+00 0. -1.
</event>
<event>
 4    1  0.3099057E+006  0.2057855E+02  0.7546771E-02  0.1525368E+00
         21   -1    0    0  503  501  0.00000000000E+00  0.00000000000E+00  0.16637068261E+02  0.16637068261E+02  0.00000000000E+00 0.  1.
         21   -1    0    0  504  502 -0.00000000000E+00 -0.00000000000E+00 -0.41005652302E+02  0.41005652302E+02  0.00000000000E+00 0. -1.
         21    1    1    2  503  502  0.98714729629E+01  0.18056324697E+02 -0.29933683930E+02  0.36324953870E+02  0.00000000000E+00 0. -1.
         21    1    1    2  504  501 -0.98714729629E+01 -0.18056324697E+02  0.55650998889E+01  0.21317766694E+02  0.00000000000E+00 0.  1.
</event>
<event>
 4    1  0.3099057E+006  0.2002703E+02  0.7546771E-02  0.1533623E+00
         21   -1    0    0  504  501  0.00000000000E+00  0.00000000000E+00  0.46753289629E+02  0.46753289629E+02  0.00000000000E+00 0. -1.
         21   -1    0    0  503  502 -0.00000000000E+00 -0.00000000000E+00 -0.58299478400E+03  0.58299478400E+03  0.00000000000E+00 0.  1.
         21    1    1    2  503  501  0.19982044264E+02  0.13415470014E+01  0.44428040193E+02  0.48733280176E+02  0.00000000000E+00 0. -1.
         21    1    1    2  504  502 -0.19982044264E+02 -0.13415470014E+01 -0.58066953456E+03  0.58101479345E+03  0.00000000000E+00 0.  1.
</event>
<event>
 4    1  0.3099057E+006  0.2177411E+02  0.7546771E-02  0.1508493E+00
         21   -1    0    0  504  501  0.00000000000E+00  0.00000000000E+00  0.30170678451E+02  0.30170678451E+02  0.00000000000E+00 0.  1.
         21   -1    0    0  503  502 -0.00000000000E+00 -0.00000000000E+00 -0.23383765257E+02  0.23383765257E+02  0.00000000000E+00 0.  1.
         21    1    1    2  503  501  0.20667535785E+02  0.68530901225E+01 -0.11941766515E+02  0.24833800900E+02  0.00000000000E+00 0.  1.
         21    1    1    2  504  502 -0.20667535785E+02 -0.68530901225E+01  0.18728679708E+02  0.28720642808E+02  0.00000000000E+00 0.  1.
</event>
<event>
 4    1  0.3099057E+006  0.2729974E+02  0.7546771E-02  0.1444620E+00
         21   -1    0    0  504  501  0.00000000000E+00  0.00000000000E+00  0.40652344310E+03  0.40652344310E+03  0.00000000000E+00 0. -1.
         21   -1    0    0  501  502 -0.00000000000E+00 -0.00000000000E+00 -0.68167425211E+01  0.68167425211E+01  0.00000000000E+00 0.  1.
         21    1    1    2  503  502 -0.25922516053E+02  0.85614940964E+01  0.23146135613E+02  0.35791334335E+02  0.00000000000E+00 0.  1.
         21    1    1    2  504  503  0.25922516053E+02 -0.85614940964E+01  0.37656056497E+03  0.37754885129E+03  0.00000000000E+00 0. -1.
</event>
<event>
 4    1  0.3099057E+006  0.4746552E+02  0.7546771E-02  0.1309552E+00
         21   -1    0    0  503  501  0.00000000000E+00  0.00000000000E+00  0.69514708177E+02  0.69514708177E+02  0.00000000000E+00 0. -1.
         21   -1    0    0  504  502 -0.00000000000E+00 -0.00000000000E+00 -0.53692125600E+02  0.53692125600E+02  0.00000000000E+00 0. -1.
         21    1    1    2  503  502 -0.18498349954E+02  0.43712543195E+02 -0.30873053747E+02  0.56622617665E+02  0.00000000000E+00 0. -1.
         21    1    1    2  504  501  0.18498349954E+02 -0.43712543195E+02  0.46695636324E+02  0.66584216112E+02  0.00000000000E+00 0. -1.
</event>
<event>
 4    1  0.3099057E+006  0.2009011E+02  0.7546771E-02  0.1532663E+00
         21   -1    0    0  502  501  0.00000000000E+00  0.00000000000E+00  0.11326824390E+02  0.11326824390E+02  0.00000000000E+00 0.  1.
         21   -1    0    0  504  502 -0.00000000000E+00 -0.00000000000E+00 -0.73514601541E+02  0.73514601541E+02  0.00000000000E+00 0.  1.
         21    1    1    2  503  501 -0.10106530767E+02 -0.17362907826E+02 -0.64275930593E+00  0.20100389843E+02  0.00000000000E+00 0.  1.
         21    1    1    2  504  503  0.10106530767E+02  0.17362907826E+02 -0.61545017845E+02  0.64741036089E+02  0.00000000000E+00 0.  1.
</event>
<event>
 4    1  0.3099057E+006  0.2033286E+02  0.7546771E-02  0.1529007E+00
         21   -1    0    0  502  501  0.00000000000E+00  0.00000000000E+00  0.40071712908E+02  0.40071712908E+02  0.00000000000E+00 0.  1.
         21   -1    0    0  504  502 -0.00000000000E+00 -0.00000000000E+00 -0.21288064190E+02  0.21288064190E+02  0.00000000000E+00 0. -1.
         21    1    1    2  503  501  0.98451415366E+01  0.17790406286E+02  0.31416389923E+02  0.37422118106E+02  0.00000000000E+00 0.  1.
         21    1    1    2  504  503 -0.98451415366E+01 -0.17790406286E+02 -0.12632741205E+02  0.23937658993E+02  0.00000000000E+00 0. -1.
</event>
<event>
 4    1  0.3099057E+006  0.2163061E+02  0.7546771E-02  0.1510449E+00
         21   -1    0    0  504  501  0.00000000000E+00  0.00000000000E+00  0.13429652184E+03  0.13429652184E+03  0.00000000000E+00 0. -1.
         21   -1    0    0  503  502 -0.00000000000E+00 -0.00000000000E+00 -0.14916093042E+02  0.14916093042E+02  0.00000000000E+00 0. -1.
         21    1    1    2  503  501  0.11092822700E+02 -0.18569667707E+02  0.12500502930E+03  0.12686268413E+03  0.00000000000E+00 0. -1.
         21    1    1    2  504  502 -0.11092822700E+02  0.18569667707E+02 -0.56246004955E+01  0.22349930759E+02  0.00000000000E+00 0. -1.
</event>
<event>
 4    1  0.3099057E+006  0.2186661E+02  0.7546771E-02  0.1507243E+00
         21   -1    0    0  502  501  0.00000000000E+00  0.00000000000E+00  0.42261435220E+02  0.42261435220E+02  0.00000000000E+00 0. -1.
         21   -1    0    0  504  502 -0.00000000000E+00 -0.00000000000E+00 -0.19862557295E+03  0.19862557295E+03  0.00000000000E+00 0. -1.
         21    1    1    2  503  501  0.21503694504E+02  0.39673314316E+01  0.38780805200E+02  0.44520775464E+02  0.00000000000E+00 0. -1.
         21    1    1    2  504  503 -0.21503694504E+02 -0.39673314316E+01 -0.19514494293E+03  0.19636623271E+03  0.00000000000E+00 0. -1.
</event>
<event>
 4    1  0.3099057E+006  0.3369190E+02  0.7546771E-02  0.1390000E+00
         21   -1    0    0  503  501  0.00000000000E+00  0.00000000000E+00  0.36090223937E+01  0.36090223937E+01  0.00000000000E+00 0. -1.
         21   -1    0    0  501  502 -0.00000000000E+00 -0.00000000000E+00 -0.34159445706E+03  0.34159445706E+03  0.00000000000E+00 0. -1.
         21    1    1    2  503  504  0.27397907687E+01 -0.33580313785E+02 -0.12040867864E+03  0.12503357077E+03  0.00000000000E+00 0. -1.
         21    1    1    2  504  502 -0.27397907687E+01  0.33580313785E+02 -0.21757675603E+03  0.22016990869E+03  0.00000000000E+00 0. -1.
</event>
<event>
 4    1  0.3099057E+006  0.2789865E+02  0.7546771E-02  0.1438784E+00
         21   -1    0    0  504  501  0.00000000000E+00  0.00000000000E+00  0.95827329744E+02  0.95827329744E+02  0.00000000000E+00 0. -1.
         21   -1    0    0  501  502 -0.00000000000E+00 -0.00000000000E+00 -0.39561501304E+02  0.39561501304E+02  0.00000000000E+00 0. -1.
         21    1    1    2  503  502 -0.13211329268E+01  0.27867356319E+02 -0.32213637179E+02  0.42615177586E+02  0.00000000000E+00 0. -1.
         21    1    1    2  504  503  0.13211329268E+01 -0.27867356319E+02  0.88479465619E+02  0.92773653462E+02  0.00000000000E+00 0. -1.
</event>
<event>
 4    1  0.3099057E+006  0.2024810E+02  0.7546771E-02  0.1530276E+00
         21   -1    0    0  502  501  0.00000000000E+00  0.00000000000E+00  0.55735238502E+01  0.55735238502E+01  0.00000000000E+00 0. -1.
         21   -1    0    0  503  502 -0.00000000000E+00 -0.00000000000E+00 -0.55481006506E+03  0.55481006506E+03  0.00000000000E+00 0. -1.
         21    1    1    2  503  504 -0.38926248992E+01  0.19870410604E+02 -0.53557521811E+03  0.53595783416E+03  0.00000000000E+00 0. -1.
         21    1    1    2  504  501  0.38926248992E+01 -0.19870410604E+02 -0.13661323100E+02  0.24425754748E+02  0.00000000000E+00 0. -1.
</event>
<event>
 4    1  0.3099057E+006  0.3451437E+02  0.7546771E-02  0.1384010E+00
         21   -1    0    0  504  501  0.00000000000E+00  0.00000000000E+00  0.54648897945E+02  0.54648897945E+02  0.00000000000E+00 0. -1.
         21   -1    0    0  503  502 -0.00000000000E+00 -0.00000000000E+00 -0.99246528152E+02  0.99246528152E+02  0.00000000000E+00 0.  1.
         21    1    1    2  503  501  0.12578309364E+02  0.32140747139E+02  0.45675429890E+02  0.57249335269E+02  0.00000000000E+00 0. -1.
         21    1    1    2  504  502 -0.12578309364E+02 -0.32140747139E+02 -0.90273060097E+02  0.96646090828E+02  0.00000000000E+00 0.  1.
</event>
<event>
 4    1  0.3099057E+006  0.3652789E+02  0.7546771E-02  0.1370128E+00
         21   -1    0    0  504  501  0.00000000000E+00  0.00000000000E+00  0.27690265408E+03  0.27690265408E+03  0.00000000000E+00 0.  1.
         21   -1    0    0  503  502 -0.00000000000E+00 -0.00000000000E+00 -0.16432008584E+02  0.16432008584E+02  0.00000000000E+00 0.  1.
         21    1    1    2  503  501 -0.25823016461E+02 -0.25835215287E+02  0.69340139039E+01  0.37180197375E+02  0.00000000000E+00 0.  1.
         21    1    1    2  504  502  0.25823016461E+02  0.25835215287E+02  0.25353663160E+03  0.25615446529E+03  0.00000000000E+00 0.  1.
</event>
<event>
 4    1  0.3099057E+006  0.2103200E+02  0.7546771E-02  0.1518808E+00
         21   -1    0    0  503  501  0.00000000000E+00  0.00000000000E+00  0.15235544611E+02  0.15235544611E+02  0.00000000000E+00 0.  1.
         21   -1    0    0  504  502 -0.00000000000E+00 -0.00000000000E+00 -0.10212393177E+03  0.10212393177E+03  0.00000000000E+00 0. -1.
         21    1    1    2  503  502 -0.80325624311E+01  0.19437671952E+02  0.61983349992E+01  0.21926342762E+02  0.00000000000E+00 0.  1.
         21    1    1    2  504  501  0.80325624311E+01 -0.19437671952E+02 -0.93086722162E+02  0.95433133622E+02  0.00000000000E+00 0. -1.
</event>
<event>
 4    1  0.3099057E+006  0.2703769E+02  0.7546771E-02  0.1447230E+00
         21   -1    0    0  503  501  0.00000000000E+00  0.00000000000E+00  0.90052878702E+02  0.90052878702E+02  0.00000000000E+00 0. -1.
         21   -1    0    0  501  502 -0.00000000000E+00 -0.00000000000E+00 -0.73869382528E+03  0.73869382528E+03  0.00000000000E+00 0.  1.
         21    1    1    2  503  504 -0.87700624176E+01  0.25575826561E+02  0.87769714390E+02  0.91839858794E+02  0.00000000000E+00 0. -1.
         21    1    1    2  504  502  0.87700624176E+01 -0.25575826561E+02 -0.73641066097E+03  0.73690684519E+03  0.00000000000E+00 0.  1.
</event>
<event>
 4    1  0.3099057E+006  0.6179916E+02  0.7546771E-02  0.1253839E+00
         21   -1    0    0  504  501  0.00000000000E+00  0.00000000000E+00  0.80990159733E+03  0.80990159733E+03  0.00000000000E+00 0.  1.
         21   -1    0    0  501  502 -0.00000000000E+00 -0.00000000000E+00 -0.42734105905E+02  0.42734105905E+02  0.00000000000E+00 0.  1.
         21    1    1    2  503  502  0.70743920809E+01  0.61392911880E+02 -0.18525426418E+02  0.64516107108E+02  0.00000000000E+00 0.  1.
         21    1    1    2  504  503 -0.70743920809E+01 -0.61392911880E+02  0.78569291784E+03  0.78811959613E+03  0.00000000000E+00 0.  1.
</event>
<event>
 4    1  0.3099057E+006  0.3836646E+02  0.7546771E-02  0.1358334E+00
         21   -1    0    0  503  501  0.00000000000E+00  0.00000000000E+00  0.21901769844E+02  0.21901769844E+02  0.00000000000E+00 0.  1.
         21   -1    0    0  504  502 -0.00000000000E+00 -0.00000000000E+00 -0.15237240522E+03  0.15237240522E+03  0.00000000000E+00 0.  1.
         21    1    1    2  503  502  0.15520103747E+02  0.35087200551E+02 -0.90834454976E-01  0.38366567656E+02  0.00000000000E+00 0.  1.
         21    1    1    2  504  501 -0.15520103747E+02 -0.35087200551E+02 -0.13037980092E+03  0.13590760740E+03  0.00000000000E+00 0.  1.
</event>
<event>
 4    1  0.3099057E+006  0.3192378E+02  0.7546771E-02  0.1403584E+00
         21   -1    0    0  502  501  0.00000000000E+00  0.00000000000E+00  0.60920283650E+02  0.60920283650E+02  0.00000000000E+00 0. -1.
         21   -1    0    0  503  502 -0.00000000000E+00 -0.00000000000E+00 -0.17805994466E+03  0.17805994466E+03  0.00000000000E+00 0.  1.
         21    1    1    2  503  504  0.23725403905E+02  0.21359608719E+02 -0.17230842799E+03  0.17524075448E+03  0.00000000000E+00 0.  1.
         21    1    1    2  504  501 -0.23725403905E+02 -0.21359608719E+02  0.55168766974E+02  0.63739473833E+02  0.00000000000E+00 0. -1.
</event>
<event>
 4    1  0.3099057E+006  0.2949793E+02  0.7546771E-02  0.1424010E+00
         21   -1    0    0  503  501  0.00000000000E+00  0.00000000000E+00  0.12524630423E+02  0.12524630423E+02  0.00000000000E+00 0. -1.
         21   -1    0    0  504  502 -0.00000000000E+00 -0.00000000000E+00 -0.23773863499E+03  0.23773863499E+03  0.00000000000E+00 0. -1.
         21    1    1    2  503  502 -0.29415394892E+02 -0.22050917264E+01 -0.21787939806E+03  0.21986714167E+03  0.00000000000E+00 0. -1.
         21    1    1    2  504  501  0.29415394892E+02  0.22050917264E+01 -0.73346065091E+01  0.30396123747E+02  0.00000000000E+00 0. -1.
</event>
<event>
 4    1  0.3099057E+006  0.2048193E+02  0.7546771E-02  0.1526792E+00
         21   -1    0    0  503  501  0.00000000000E+00  0.00000000000E+00  0.29260410518E+01  0.29260410518E+01  0.00000000000E+00 0. -1.
         21   -1    0    0  504  502 -0.00000000000E+00 -0.00000000000E+00 -0.14848704867E+03  0.14848704867E+03  0.00000000000E+00 0. -1.
         21    1    1    2  503  502 -0.71096066575E+00 -0.20469584030E+02 -0.58727865525E+02  0.62197037908E+02  0.00000000000E+00 0. -1.
         21    1    1    2  504  501  0.71096066575E+00  0.20469584030E+02 -0.86833142091E+02  0.89216051812E+02  0.00000000000E+00 0. -1.
</event>
<event>
 4    1  0.3099057E+006  0.2488904E+02  0.7546771E-02  0.1470049E+00
         21   -1    0    0  504  501  0.00000000000E+00  0.00000000000E+00  0.43779485167E+02  0.43779485167E+02  0.00000000000E+00 0. -1.
         21   -1    0    0  503  502 -0.00000000000E+00 -0.00000000000E+00 -0.15285609632E+02  0.15285609632E+02  0.00000000000E+00 0. -1.
         21    1    1    2  503  501  0.13119847944E+02 -0.21150273511E+02  0.22297766635E+02  0.33416386348E+02  0.00000000000E+00 0. -1.
         21    1    1    2  504  502 -0.13119847944E+02  0.21150273511E+02  0.61961088995E+01  0.25648708450E+02  0.00000000000E+00 0. -1.
</event>
<event>
 4    1  0.3099057E+006  0.2072953E+02  0.7546771E-02  0.1523162E+00
         21   -1    0    0  504  501  0.00000000000E+00  0.00000000000E+00  0.24625091538E+03  0.24625091538E+03  0.00000000000E+00 0. -1.
         21   -1    0    0  503  502 -0.00000000000E+00 -0.00000000000E+00 -0.12437983797E+02  0.12437983797E+02  0.00000000000E+00 0. -1.
         21    1    1    2  503  501  0.16142331938E+02  0.13005319396E+02  0.23683480391E+03  0.23774027331E+03  0.00000000000E+00 0. -1.
         21    1    1    2  504  502 -0.16142331938E+02 -0.13005319396E+02 -0.30218723295E+01  0.20948625859E+02  0.00000000000E+00 0. -1.
</event>
<event>
 4    1  0.3099057E+006  0.2003726E+02  0.7546771E-02  0.1533467E+00
         21   -1    0    0  503  501  0.00000000000E+00  0.00000000000E+00  0.57472616916E+03  0.57472616916E+03  0.00000000000E+00 0.  1.
         21   -1    0    0  501  502 -0.00000000000E+00 -0.00000000000E+00 -0.15915068410E+01  0.15915068410E+01  0.00000000000E+00 0.  1.
         21    1    1    2  503  504 -0.70681799279E+00  0.20024794160E+02  0.50240921730E+03  0.50280862523E+03  0.00000000000E+00 0.  1.
         21    1    1    2  504  502  0.70681799279E+00 -0.20024794160E+02  0.70725445019E+02  0.73509050776E+02  0.00000000000E+00 0.  1.
</event>
<event>
 4    1  0.3099057E+006  0.2315491E+02  0.7546771E-02  0.1490562E+00
         21   -1    0    0  504  501  0.00000000000E+00  0.00000000000E+00  0.46267990221E+02  0.46267990221E+02  0.00000000000E+00 0.  1.
         21   -1    0    0  503  502 -0.00000000000E+00 -0.00000000000E+00 -0.53667452938E+02  0.53667452938E+02  0.00000000000E+00 0.  1.
         21    1    1    2  503  501  0.13539283525E+02 -0.18783969547E+02 -0.47945273091E+02  0.53243768857E+02  0.00000000000E+00 0.  1.
         21    1    1    2  504  502 -0.13539283525E+02  0.18783969547E+02  0.40545810374E+02  0.46691674303E+02  0.00000000000E+00 0.  1.
</event>
<event>
 4    1  0.3099057E+006  0.3181694E+02  0.7546771E-02  0.1404438E+00
         21   -1    0    0  503  501  0.00000000000E+00  0.00000000000E+00  0.37347764706E+02  0.37347764706E+02  0.00000000000E+00 0.  1.
         21   -1    0    0  504  502 -0.00000000000E+00 -0.00000000000E+00 -0.34882558923E+02  0.34882558923E+02  0.00000000000E+00 0. -1.
         21    1    1    2  503  502  0.31593115693E+02  0.37673343905E+01 -0.15820449013E+02  0.35533144732E+02  0.00000000000E+00 0. -1.
         21    1    1    2  504  501 -0.31593115693E+02 -0.37673343905E+01  0.18285654796E+02  0.36697178896E+02  0.00000000000E+00 0.  1.
</event>
<event>
 4    1  0.3099057E+006  0.3695179E+02  0.7546771E-02  0.1367338E+00
         21   -1    0    0  504  501  0.00000000000E+00  0.00000000000E+00  0.12174068106E+04  0.12174068106E+04  0.00000000000E+00 0.  1.
         21   -1    0    0  503  502 -0.00000000000E+00 -0.00000000000E+00 -0.12622081853E+03  0.12622081853E+03  0.00000000000E+00 0. -1.
         21    1    1    2  503  501 -0.35184857858E+02 -0.11289830895E+02  0.12144152962E+04  0.12149773439E+04  0.00000000000E+00 0.  1.
         21    1    1    2  504  502  0.35184857858E+02  0.11289830895E+02 -0.12322930412E+03  0.12865028526E+03  0.00000000000E+00 0. -1.
</event>
<event>
 4    1  0.3099057E+006  0.2594016E+02  0.7546771E-02  0.1458555E+00
         21   -1    0    0  504  501  0.00000000000E+00  0.00000000000E+00  0.79087394856E+03  0.79087394856E+03  0.00000000000E+00 0.  1.
         21   -1    0    0  503  502 -0.00000000000E+00 -0.00000000000E+00 -0.32461647855E+01  0.32461647855E+01  0.00000000000E+00 0.  1.
         21    1    1    2  503  501  0.15235710829E+01  0.25895382172E+02  0.73489279259E+03  0.73535046657E+03  0.00000000000E+00 0.  1.
         21    1    1    2  504  502 -0.15235710829E+01 -0.25895382172E+02  0.52734991184E+02  0.58769646773E+02  0.00000000000E+00 0.  1.
</event>
<event>
 4    1  0.3099057E+006  0.2276914E+02  0.7546771E-02  0.1495418E+00
         21   -1    0    0  502  501  0.00000000000E+00  0.00000000000E+00  0.46683639357E+02  0.46683639357E+02  0.00000000000E+00 0.  1.
         21   -1    0    0  503  502 -0.00000000000E+00 -0.00000000000E+00 -0.84484289541E+02  0.84484289541E+02  0.00000000000E+00 0.  1.
         21    1    1    2  503  504 -0.80051584176E+01  0.21315511564E+02 -0.80022062682E+02  0.83198341993E+02  0.00000000000E+00 0.  1.
         21    1    1    2  504  501  0.80051584176E+01 -0.21315511564E+02  0.42221412498E+02  0.47969586905E+02  0.00000000000E+00 0.  1.
</event>
<event>
 4    1  0.3099057E+006  0.3545956E+02  0.7546771E-02  0.1377361E+00
         21   -1    0    0  504  501  0.00000000000E+00  0.00000000000E+00  0.53831734355E+02  0.53831734355E+02  0.00000000000E+00 0.  1.
         21   -1    0    0  503  502 -0.00000000000E+00 -0.00000000000E+00 -0.16086979364E+03  0.16086979364E+03  0.00000000000E+00 0. -1.
         21    1    1    2  503  501  0.30602584101E+01  0.35327262835E+02 -0.15277084885E+03  0.15683211705E+03  0.00000000000E+00 0. -1.
         21    1    1    2  504  502 -0.30602584101E+01 -0.35327262835E+02  0.45732789567E+02  0.57869410940E+02  0.00000000000E+00 0.  1.
</event>
<event>
 4    1  0.3099057E+006  0.2811123E+02  0.7546771E-02  0.1436754E+00
         21   -1    0    0  504  501  0.00000000000E+00  0.00000000000E+00  0.35647644168E+02  0.35647644168E+02  0.00000000000E+00 0. -1.
         21   -1    0    0  503  502 -0.00000000000E+00 -0.00000000000E+00 -0.22294738251E+02  0.22294738251E+02  0.00000000000E+00 0. -1.
         21    1    1    2  503  501 -0.64197800467E+01  0.27368374277E+02  0.88596961719E+01  0.29474322769E+02  0.00000000000E+00 0. -1.
         21    1    1    2  504  502  0.64197800467E+01 -0.27368374277E+02  0.44932097451E+01  0.28468059650E+02  0.00000000000E+00 0. -1.
</event>
<event>
 4    1  0.3099057E+006  0.2281277E+02  0.7546771E-02  0.1494863E+00
         21   -1    0    0  504  501  0.00000000000E+00  0.00000000000E+00  0.66318466117E+02  0.66318466117E+02  0.00000000000E+00 0.  1.
         21   -1    0    0  501  502 -0.00000000000E+00 -0.00000000000E+00 -0.11354378314E+02  0.11354378314E+02  0.00000000000E+00 0. -1.
         21    1    1    2  503  502  0.22501019623E+02  0.37585355361E+01  0.58981997762E+01  0.23562920745E+02  0.00000000000E+00 0. -1.
         21    1    1    2  504  503 -0.22501019623E+02 -0.37585355361E+01  0.49065888027E+02  0.54109923686E+02  0.00000000000E+00 0.  1.
</event>
<event>
 4    1  0.3099057E+006  0.4260282E+02  0.7546771E-02  0.1333873E+00
         21   -1    0    0  502  501  0.00000000000E+00  0.00000000000E+00  0.25977252176E+03  0.25977252176E+03  0.00000000000E+00 0.  1.
         21   -1    0    0  503  502 -0.00000000000E+00 -0.00000000000E+00 -0.13564097200E+02  0.13564097200E+02  0.00000000000E+00 0.  1.
         21    1    1    2  503  504  0.18112249748E+02  0.38560946501E+02  0.27935679783E+02  0.50945091922E+02  0.00000000000E+00 0.  1.
         21    1    1    2  504  501 -0.18112249748E+02 -0.38560946501E+02  0.21827274478E+03  0.22239152704E+03  0.00000000000E+00 0.  1.
</event>
<event>
 4    1  0.3099057E+006  0.2676229E+02  0.7546771E-02  0.1450011E+00
         21   -1    0    0  502  501  0.00000000000E+00  0.00000000000E+00  0.19850008156E+03  0.19850008156E+03  0.00000000000E+00 0. -1.
         21   -1    0    0  503  502 -0.00000000000E+00 -0.00000000000E+00 -0.93039996987E+01  0.93039996987E+01  0.00000000000E+00 0. -1.
         21    1    1    2  503  504  0.40823496647E+01  0.26449097277E+02  0.13302250068E+02  0.29885952928E+02  0.00000000000E+00 0. -1.
         21    1    1    2  504  501 -0.40823496647E+01 -0.26449097277E+02  0.17589383179E+03  0.17791812833E+03  0.00000000000E+00 0. -1.
</event>
<event>
 4    1  0.3099057E+006  0.5132014E+02  0.7546771E-02  0.1292548E+00
         21   -1    0    0  504  501  0.00000000000E+00  0.00000000000E+00  0.28705983510E+03  0.28705983510E+03  0.00000000000E+00 0. -1.
         21   -1    0    0  503  502 -0.00000000000E+00 -0.00000000000E+00 -0.20952459735E+02  0.20952459735E+02  0.00000000000E+00 0.  1.
         21    1    1    2  503  501 -0.23381841389E+02 -0.45684200384E+02  0.24851792086E+03  0.25376152912E+03  0.00000000000E+00 0. -1.
         21    1    1    2  504  502  0.23381841389E+02  0.45684200384E+02  0.17589454508E+02  0.54250765721E+02  0.00000000000E+00 0.  1.
</event>
<event>
 4    1  0.3099057E+006  0.4085383E+02  0.7546771E-02  0.1343554E+00
         21   -1    0    0  504  501  0.00000000000E+00  0.00000000000E+00  0.21866203192E+02  0.21866203192E+02  0.00000000000E+00 0. -1.
         21   -1    0    0  503  502 -0.00000000000E+00 -0.00000000000E+00 -0.15557062887E+03  0.15557062887E+03  0.00000000000E+00 0. -1.
         21    1    1    2  503  501 -0.11257648561E+02 -0.39272137196E+02 -0.35344705121E+01  0.41006437213E+02  0.00000000000E+00 0. -1.
         21    1    1    2  504  502  0.11257648561E+02  0.39272137196E+02 -0.13016995516E+03  0.13643039485E+03  0.00000000000E+00 0. -1.
</event>
<event>
 4    1  0.3099057E+006  0.4587176E+02  0.7546771E-02  0.1317137E+00
         21   -1    0    0  503  501  0.00000000000E+00  0.00000000000E+00  0.18437389418E+02  0.18437389418E+02  0.00000000000E+00 0.  1.
         21   -1    0    0  504  502 -0.00000000000E+00 -0.00000000000E+00 -0.17704503711E+03  0.17704503711E+03  0.00000000000E+00 0.  1.
         21    1    1    2  503  502  0.12996498112E+02 -0.43992153817E+02 -0.21037087466E+02  0.50465608187E+02  0.00000000000E+00 0.  1.
         21    1    1    2  504  501 -0.12996498112E+02  0.43992153817E+02 -0.13757056023E+03  0.14501681835E+03  0.00000000000E+00 0.  1.
</event>
<event>
 4    1  0.3099057E+006  0.2111256E+02  0.7546771E-02  0.1517664E+00
         21   -1    0    0  503  501  0.00000000000E+00  0.00000000000E+00  0.42827339795E+02  0.42827339795E+02  0.00000000000E+00 0. -1.
         21   -1    0    0  501  502 -0.00000000000E+00 -0.00000000000E+00 -0.18572174060E+02  0.18572174060E+02  0.00000000000E+00 0. -1.
         21    1    1    2  503  504  0.14527076938E+02  0.15320059795E+02  0.32482244521E+02  0.38740629907E+02  0.00000000000E+00 0. -1.
         21    1    1    2  504  502 -0.14527076938E+02 -0.15320059795E+02 -0.82270787855E+01  0.22658883949E+02  0.00000000000E+00 0. -1.
</event>
<event>
 4    1  0.3099057E+006  0.2062976E+02  0.7546771E-02  0.1524617E+00
         21   -1    0    0  504  501  0.00000000000E+00  0.00000000000E+00  0.29281597237E+01  0.29281597237E+01  0.00000000000E+00 0. -1.
         21   -1    0    0  503  502 -0.00000000000E+00 -0.00000000000E+00 -0.14692128018E+03  0.14692128018E+03  0.00000000000E+00 0. -1.
         21    1    1    2  503  501  0.18319913702E+02  0.94851321828E+01 -0.79762617398E+02  0.82387269069E+02  0.00000000000E+00 0. -1.
         21    1    1    2  504  502 -0.18319913702E+02 -0.94851321828E+01 -0.64230503063E+02  0.67462170839E+02  0.00000000000E+00 0. -1.
</event>
<event>
 4    1  0.3099057E+006  0.2436241E+02  0.7546771E-02  0.1476064E+00
         21   -1    0    0  504  501  0.00000000000E+00  0.00000000000E+00  0.16532113716E+03  0.16532113716E+03  0.00000000000E+00 0. -1.
         21   -1    0    0  503  502 -0.00000000000E+00 -0.00000000000E+00 -0.10033717170E+02  0.10033717170E+02  0.00000000000E+00 0. -1.
         21    1    1    2  503  501  0.15010881943E+02  0.19188543520E+02  0.73817543597E+01  0.25456179536E+02  0.00000000000E+00 0. -1.
         21    1    1    2  504  502 -0.15010881943E+02 -0.19188543520E+02  0.14790566563E+03  0.14989867480E+03  0.00000000000E+00 0. -1.
</event>
<event>
 4    1  0.3099057E+006  0.2381355E+02  0.7546771E-02  0.1482527E+00
         21   -1    0    0  503  501  0.00000000000E+00  0.00000000000E+00  0.61215124709E+03  0.61215124709E+03  0.00000000000E+00 0.  1.
         21   -1    0    0  501  502 -0.00000000000E+00 -0.00000000000E+00 -0.16205537690E+03  0.16205537690E+03  0.00000000000E+00 0. -1.
         21    1    1    2  503  504 -0.17452911610E+02 -0.16201260143E+02  0.61104323418E+03  0.61150708826E+03  0.00000000000E+00 0.  1.
         21    1    1    2  504  502  0.17452911610E+02  0.16201260143E+02 -0.16094736399E+03  0.16269953574E+03  0.00000000000E+00 0. -1.
</event>
<event>
 4    1  0.3099057E+006  0.2156498E+02  0.7546771E-02  0.1511349E+00
         21   -1    0    0  504  501  0.00000000000E+00  0.00000000000E+00  0.43969075693E+01  0.43969075693E+01  0.00000000000E+00 0. -1.
         21   -1    0    0  503  502 -0.00000000000E+00 -0.00000000000E+00 -0.16382636176E+03  0.16382636176E+03  0.00000000000E+00 0. -1.
         21    1    1    2  503  501 -0.14508244583E+02  0.15954916847E+02 -0.12978726686E+03  0.13156664916E+03  0.00000000000E+00 0. -1.
         21    1    1    2  504  502  0.14508244583E+02 -0.15954916847E+02 -0.29642187333E+02  0.36656620171E+02  0.00000000000E+00 0. -1.
</event>
<event>
 4    1  0.3099057E+006  0.2263393E+02  0.7546771E-02  0.1497147E+00
         21   -1    0    0  504  501  0.00000000000E+00  0.00000000000E+00  0.10295104369E+04  0.10295104369E+04  0.00000000000E+00 0.  1.
         21   -1    0    0  503  502 -0.00000000000E+00 -0.00000000000E+00 -0.52473135123E+00  0.52473135123E+00  0.00000000000E+00 0.  1.
         21    1    1    2  503  501  0.22345144009E+02  0.36040407868E+01  0.63158024342E+03  0.63198567899E+03  0.00000000000E+00 0.  1.
         21    1    1    2  504  502 -0.22345144009E+02 -0.36040407868E+01  0.39740546209E+03  0.39804948922E+03  0.00000000000E+00 0.  1.
</event>
<event>
 4    1  0.3099057E+006  0.2433663E+02  0.7546771E-02  0.1476363E+00
         21   -1    0    0  502  501  0.00000000000E+00  0.00000000000E+00  0.26471693431E+02  0.26471693431E+02  0.00000000000E+00 0.  1.
         21   -1    0    0  503  502 -0.00000000000E+00 -0.00000000000E+00 -0.10132083946E+03  0.10132083946E+03  0.00000000000E+00 0.  1.
         21    1    1    2  503  504  0.18981050849E+02  0.15231253146E+02 -0.93826523372E+02  0.96931356391E+02  0.00000000000E+00 0.  1.
         21    1    1    2  504  501 -0.18981050849E+02 -0.15231253146E+02  0.18977377347E+02  0.30861176496E+02  0.00000000000E+00 0.  1.
</event>
<event>
 4    1  0.3099057E+006  0.2518552E+02  0.7546771E-02  0.1466739E+00
         21   -1    0    0  503  501  0.00000000000E+00  0.00000000000E+00  0.34669179933E+02  0.34669179933E+02  0.00000000000E+00 0. -1.
         21   -1    0    0  504  502 -0.00000000000E+00 -0.00000000000E+00 -0.34503132648E+02  0.34503132648E+02  0.00000000000E+00 0. -1.
         21    1    1    2  503  502 -0.77120683735E+01  0.23975704822E+02  0.23787203263E+02  0.34643057882E+02  0.00000000000E+00 0. -1.
         21    1    1    2  504  501  0.77120683735E+01 -0.23975704822E+02 -0.23621155978E+02  0.34529254699E+02  0.00000000000E+00 0. -1.
</event>
<event>
 4    1  0.3099057E+006  0.2211430E+02  0.7546771E-02  0.1503930E+00
         21   -1    0    0  504  501  0.00000000000E+00  0.00000000000E+00  0.13519955153E+02  0.13519955153E+02  0.00000000000E+00 0.  1.
         21   -1    0    0  503  502 -0.00000000000E+00 -0.00000000000E+00 -0.16711311522E+03  0.16711311522E+03  0.00000000000E+00 0.  1.
         21    1    1    2  503  501  0.20394595128E+02 -0.85500033438E+01  0.31500631538E+01  0.22337523710E+02  0.00000000000E+00 0.  1.
         21    1    1    2  504  502 -0.20394595128E+02  0.85500033438E+01 -0.15674322322E+03  0.15829554667E+03  0.00000000000E+00 0.  1.
</event>
<event>
 4    1  0.3099057E+006  0.2101851E+02  0.7546771E-02  0.1519001E+00
         21   -1    0    0  504  501  0.00000000000E+00  0.00000000000E+00  0.10230051290E+02  0.10230051290E+02  0.00000000000E+00 0.  1.
         21   -1    0    0  503  502 -0.00000000000E+00 -0.00000000000E+00 -0.46610304412E+03  0.46610304412E+03  0.00000000000E+00 0.  1.
         21    1    1    2  503  501  0.20867270602E+02  0.25168741786E+01 -0.45480189214E+03  0.45528731449E+03  0.00000000000E+00 0.  1.
         21    1    1    2  504  502 -0.20867270602E+02 -0.25168741786E+01 -0.10711006895E+01  0.21045780924E+02  0.00000000000E+00 0.  1.
</event>
<event>
 4    1  0.3099057E+006  0.2124517E+02  0.7546771E-02  0.1515793E+00
         21   -1    0    0  504  501  0.00000000000E+00  0.00000000000E+00  0.23096992388E+03  0.23096992388E+03  0.00000000000E+00 0.  1.
         21   -1    0    0  503  502 -0.00000000000E+00 -0.00000000000E+00 -0.54323156619E+01  0.54323156619E+01  0.00000000000E+00 0. -1.
         21    1    1    2  503  501  0.10849486186E+02  0.18265982245E+02  0.20734942794E+03  0.20843498441E+03  0.00000000000E+00 0.  1.
         21    1    1    2  504  502 -0.10849486186E+02 -0.18265982245E+02  0.18188180276E+02  0.27967255132E+02  0.00000000000E+00 0. -1.
</event>
<event>
 4    1  0.3099057E+006  0.2050406E+02  0.7546771E-02  0.1526465E+00
         21   -1    0    0  503  501  0.00000000000E+00  0.00000000000E+00  0.61626599044E+02  0.61626599044E+02  0.00000000000E+00 0.  1.
         21   -1    0    0  501  502 -0.00000000000E+00 -0.00000000000E+00 -0.16693693393E+02  0.16693693393E+02  0.00000000000E+00 0.  1.
         21    1    1    2  503  504  0.19939424590E+02  0.47786660959E+01  0.52580147622E+02  0.56436585887E+02  0.00000000000E+00 0.  1.
         21    1    1    2  504  502 -0.19939424590E+02 -0.47786660959E+01 -0.76472419708E+01  0.21883706550E+02  0.00000000000E+00 0.  1.
</event>
<event>
 4    1  0.3099057E+006  0.2111628E+02  0.7546771E-02  0.1517611E+00
         21   -1    0    0  503  501  0.00000000000E+00  0.00000000000E+00  0.39777019868E+02  0.39777019868E+02  0.00000000000E+00 0. -1.
         21   -1    0    0  504  502 -0.00000000000E+00 -0.00000000000E+00 -0.14904913244E+02  0.14904913244E+02  0.00000000000E+00 0. -1.
         21    1    1    2  503  502 -0.11460134857E+02  0.17735913108E+02 -0.11770086922E+01  0.21149057997E+02  0.00000000000E+00 0. -1.
         21    1    1    2  504  501  0.11460134857E+02 -0.17735913108E+02  0.26049115316E+02  0.33532875114E+02  0.00000000000E+00 0. -1.
</event>
<event>
 4    1  0.3099057E+006  0.3145500E+02  0.7546771E-02  0.1407360E+00
         21   -1    0    0  502  501  0.00000000000E+00  0.00000000000E+00  0.56271839534E+03  0.56271839534E+03  0.00000000000E+00 0. -1.
         21   -1    0    0  504  502 -0.00000000000E+00 -0.00000000000E+00 -0.27899467241E+01  0.27899467241E+01  0.00000000000E+00 0. -1.
         21    1    1    2  503  501 -0.26558909437E+02  0.16853517913E+02  0.45190571515E+03  0.45299910830E+03  0.00000000000E+00 0. -1.
         21    1    1    2  504  503  0.26558909437E+02 -0.16853517913E+02  0.10802273347E+03  0.11250923377E+03  0.00000000000E+00 0. -1.
</event>
<event>
 4    1  0.3099057E+006  0.2677638E+02  0.7546771E-02  0.1449867E+00
         21   -1    0    0  503  501  0.00000000000E+00  0.00000000000E+00  0.36749390381E+02  0.36749390381E+02  0.00000000000E+00 0. -1.
         21   -1    0    0  504  502 -0.00000000000E+00 -0.00000000000E+00 -0.43239211411E+02  0.43239211411E+02  0.00000000000E+00 0.  1.
         21    1    1    2  503  502  0.59816211803E+01 -0.26099709382E+02  0.26383091829E+02  0.37590452993E+02  0.00000000000E+00 0. -1.
         21    1    1    2  504  501 -0.59816211803E+01  0.26099709382E+02 -0.32872912859E+02  0.42398148799E+02  0.00000000000E+00 0.  1.
</event>
<event>
 4    1  0.3099057E+006  0.3542873E+02  0.7546771E-02  0.1377574E+00
         21   -1    0    0  504  501  0.00000000000E+00  0.00000000000E+00  0.35254009150E+02  0.35254009150E+02  0.00000000000E+00 0.  1.
         21   -1    0    0  501  502 -0.00000000000E+00 -0.00000000000E+00 -0.47523285739E+02  0.47523285739E+02  0.00000000000E+00 0. -1.
         21    1    1    2  503  502 -0.35369797364E+02 -0.20426052819E+01 -0.26862161219E+02  0.44460887388E+02  0.00000000000E+00 0. -1.
         21    1    1    2  504  503  0.35369797364E+02  0.20426052819E+01  0.14592884631E+02  0.38316407501E+02  0.00000000000E+00 0.  1.
</event>
<event>
 4    1  0.3099057E+006  0.3199520E+02  0.7546771E-02  0.1403015E+00
         21   -1    0    0  504  501  0.00000000000E+00  0.00000000000E+00  0.52223171804E+02  0.52223171804E+02  0.00000000000E+00 0. -1.
         21   -1    0    0  501  502 -0.00000000000E+00 -0.00000000000E+00 -0.25775012817E+02  0.25775012817E+02  0.00000000000E+00 0. -1.
         21    1    1    2  503  502 -0.80941150675E+01  0.30954451107E+02 -0.58610067392E+01  0.32527590474E+02  0.00000000000E+00 0. -1.
         21    1    1    2  504  503  0.80941150675E+01 -0.30954451107E+02  0.32309165726E+02  0.45470594146E+02  0.00000000000E+00 0. -1.
</event>
<event>
 4    1  0.3099057E+006  0.2085818E+02  0.7546771E-02  0.1521299E+00
         21   -1    0    0  504  501  0.00000000000E+00  0.00000000000E+00  0.28560441389E+03  0.28560441389E+03  0.00000000000E+00 0. -1.
         21   -1    0    0  501  502 -0.00000000000E+00 -0.00000000000E+00 -0.36950519534E+02  0.36950519534E+02  0.00000000000E+00 0.  1.
         21    1    1    2  503  502 -0.18637503043E+02  0.93652194843E+01 -0.33591147653E+02  0.39540220742E+02  0.00000000000E+00 0.  1.
         21    1    1    2  504  503  0.18637503043E+02 -0.93652194843E+01  0.28224504201E+03  0.28301471269E+03  0.00000000000E+00 0. -1.
</event>
<event>
 4    1  0.3099057E+006  0.2417415E+02  0.7546771E-02  0.1478258E+00
         21   -1    0    0  503  501  0.00000000000E+00  0.00000000000E+00  0.80413390285E+02  0.80413390285E+02  0.00000000000E+00 0. -1.
         21   -1    0    0  504  502 -0.00000000000E+00 -0.00000000000E+00 -0.23963274261E+02  0.23963274261E+02  0.00000000000E+00 0.  1.
         21    1    1    2  503  502  0.22253651315E+02 -0.94427072150E+01 -0.15336758631E+02  0.28628759695E+02  0.00000000000E+00 0.  1.
         21    1    1    2  504  501 -0.22253651315E+02  0.94427072150E+01  0.71786874656E+02  0.75747904851E+02  0.00000000000E+00 0. -1.
</event>
<event>
 4    1  0.3099057E+006  0.2854969E+02  0.7546771E-02  0.1432633E+00
         21   -1    0    0  503  501  0.00000000000E+00  0.00000000000E+00  0.21418647058E+03  0.21418647058E+03  0.00000000000E+00 0.  1.
         21   -1    0    0  504  502 -0.00000000000E+00 -0.00000000000E+00 -0.92953101634E+02  0.92953101634E+02  0.00000000000E+00 0.  1.
         21    1    1    2  503  502  0.13684356184E+02  0.25056403203E+02  0.21101005317E+03  0.21293268299E+03  0.00000000000E+00 0.  1.
         21    1    1    2  504  501 -0.13684356184E+02 -0.25056403203E+02 -0.89776684228E+02  0.94206889221E+02  0.00000000000E+00 0.  1.
</event>
<event>
 4    1  0.3099057E+006  0.2300859E+02  0.7546771E-02  0.1492390E+00
         21   -1    0    0  503  501  0.00000000000E+00  0.00000000000E+00  0.16029919333E+02  0.16029919333E+02  0.00000000000E+00 0. -1.
         21   -1    0    0  504  502 -0.00000000000E+00 -0.00000000000E+00 -0.11007794067E+03  0.11007794067E+03  0.00000000000E+00 0.  1.
         21    1    1    2  503  502 -0.12376274877E+01 -0.22975283281E+02 -0.99778004187E+02  0.10239651109E+03  0.00000000000E+00 0.  1.
         21    1    1    2  504  501  0.12376274877E+01  0.22975283281E+02  0.57299828532E+01  0.23711348910E+02  0.00000000000E+00 0. -1.
</event>
<event>
 4    1  0.3099057E+006  0.3854165E+02  0.7546771E-02  0.1357250E+00
         21   -1    0    0  504  501  0.00000000000E+00  0.00000000000E+00  0.15669846426E+01  0.15669846426E+01  0.00000000000E+00 0.  1.
         21   -1    0    0  501  502 -0.00000000000E+00 -0.00000000000E+00 -0.19661636809E+04  0.19661636809E+04  0.00000000000E+00 0.  1.
         21    1    1    2  503  502  0.87393405211E+00  0.38531742336E+02 -0.16903100084E+04  0.16907493555E+04  0.00000000000E+00 0.  1.
         21    1    1    2  504  503 -0.87393405211E+00 -0.38531742336E+02 -0.27428668795E+03  0.27698131004E+03  0.00000000000E+00 0.  1.
</event>
<event>
 4    1  0.3099057E+006  0.2274977E+02  0.7546771E-02  0.1495664E+00
         21   -1    0    0  504  501  0.00000000000E+00  0.00000000000E+00  0.32029651730E+02  0.32029651730E+02  0.00000000000E+00 0. -1.
         21   -1    0    0  501  502 -0.00000000000E+00 -0.00000000000E+00 -0.25587731679E+02  0.25587731679E+02  0.00000000000E+00 0. -1.
         21    1    1    2  503  502  0.20536130853E+02  0.97887256157E+01 -0.14267247480E+02  0.26853420085E+02  0.00000000000E+00 0. -1.
         21    1    1    2  504  503 -0.20536130853E+02 -0.97887256157E+01  0.20709167531E+02  0.30763963324E+02  0.00000000000E+00 0. -1.
</event>
<event>
 4    1  0.3099057E+006  0.2065249E+02  0.7546771E-02  0.1524285E+00
         21   -1    0    0  503  501  0.00000000000E+00  0.00000000000E+00  0.93533353318E+03  0.93533353318E+03  0.00000000000E+00 0.  1.
         21   -1    0    0  504  502 -0.00000000000E+00 -0.00000000000E+00 -0.27080732013E+01  0.27080732013E+01  0.00000000000E+00 0.  1.
         21    1    1    2  503  502  0.10018674409E+02  0.18059667941E+02  0.89402507089E+03  0.89426358129E+03  0.00000000000E+00 0.  1.
         21    1    1    2  504  501 -0.10018674409E+02 -0.18059667941E+02  0.38600389088E+02  0.43778025089E+02  0.00000000000E+00 0.  1.
</event>
<event>
 4    1  0.3099057E+006  0.2183464E+02  0.7546771E-02  0.1507674E+00
         21   -1    0    0  504  501  0.00000000000E+00  0.00000000000E+00  0.53810323873E+02  0.53810323873E+02  0.00000000000E+00 0. -1.
         21   -1    0    0  501  502 -0.00000000000E+00 -0.00000000000E+00 -0.15194996852E+03  0.15194996852E+03  0.00000000000E+00 0.  1.
         21    1    1    2  503  502 -0.16728341519E+02  0.14032602149E+02 -0.14890557329E+03  0.15049791058E+03  0.00000000000E+00 0.  1.
         21    1    1    2  504  503  0.16728341519E+02 -0.14032602149E+02  0.50765928640E+02  0.55262381814E+02  0.00000000000E+00 0. -1.
</event>
<event>
 4    1  0.3099057E+006  0.2229359E+02  0.7546771E-02  0.1501564E+00
         21   -1    0    0  502  501  0.00000000000E+00  0.00000000000E+00  0.73602097559E+03  0.73602097559E+03  0.00000000000E+00 0. -1.
         21   -1    0    0  503  502 -0.00000000000E+00 -0.00000000000E+00 -0.58717226843E+02  0.58717226843E+02  0.00000000000E+00 0. -1.
         21    1    1    2  503  504 -0.16409501675E+00  0.22292987798E+02 -0.56425712961E+02  0.60670135283E+02  0.00000000000E+00 0. -1.
         21    1    1    2  504  501  0.16409501675E+00 -0.22292987798E+02  0.73372946170E+03  0.73406806715E+03  0.00000000000E+00 0. -1.
</event>
<event>
 4    1  0.3099057E+006  0.2645503E+02  0.7546771E-02  0.1453161E+00
         21   -1    0    0  503  501  0.00000000000E+00  0.00000000000E+00  0.57448596699E+02  0.57448596699E+02  0.00000000000E+00 0.  1.
         21   -1    0    0  501  502 -0.00000000000E+00 -0.00000000000E+00 -0.15075077938E+02  0.15075077938E+02  0.00000000000E+00 0.  1.
         21    1    1    2  503  504  0.24057961093E+01  0.26345408967E+02  0.37070814367E+02  0.45542438520E+02  0.00000000000E+00 0.  1.
         21    1    1    2  504  502 -0.24057961093E+01 -0.26345408967E+02  0.53027043947E+01  0.26981236118E+02  0.00000000000E+00 0.  1.
</event>
<event>
 4    1  0.3099057E+006  0.2021343E+02  0.7546771E-02  0.1530798E+00
         21   -1    0    0  502  501  0.00000000000E+00  0.00000000000E+00  0.27676970756E+02  0.27676970756E+02  0.00000000000E+00 0. -1.
         21   -1    0    0  504  502 -0.00000000000E+00 -0.00000000000E+00 -0.24726979181E+02  0.24726979181E+02  0.00000000000E+00 0. -1.
         21    1    1    2  503  501  0.19779602842E+02  0.41653599944E+01  0.18108146135E+02  0.27138309987E+02  0.00000000000E+00 0. -1.
         21    1    1    2  504  503 -0.19779602842E+02 -0.41653599944E+01 -0.15158154560E+02  0.25265639951E+02  0.00000000000E+00 0. -1.
</event>
<event>
 4    1  0.3099057E+006  0.2529234E+02  0.7546771E-02  0.1465559E+00
         21   -1    0    0  503  501  0.00000000000E+00  0.00000000000E+00  0.22274885823E+02  0.22274885823E+02  0.00000000000E+00 0.  1.
         21   -1    0    0  504  502 -0.00000000000E+00 -0.00000000000E+00 -0.30601686743E+02  0.30601686743E+02  0.00000000000E+00 0.  1.
         21    1    1    2  503  502 -0.23008465926E+02  0.10502990539E+02 -0.10721863943E+02  0.27471088091E+02  0.00000000000E+00 0.  1.
         21    1    1    2  504  501  0.23008465926E+02 -0.10502990539E+02  0.23950630237E+01  0.25405484475E+02  0.00000000000E+00 0.  1.
</event>
<event>
 4    1  0.3099057E+006  0.6405972E+02  0.7546771E-02  0.1246630E+00
         21   -1    0    0  503  501  0.00000000000E+00  0.00000000000E+00  0.22962109641E+02  0.22962109641E+02  0.00000000000E+00 0. -1.
         21   -1    0    0  501  502 -0.00000000000E+00 -0.00000000000E+00 -0.18896107232E+03  0.18896107232E+03  0.00000000000E+00 0. -1.
         21    1    1    2  503  504  0.54172439321E+02 -0.34190565468E+02 -0.58324063348E+02  0.86633390298E+02  0.00000000000E+00 0. -1.
         21    1    1    2  504  502 -0.54172439321E+02  0.34190565468E+02 -0.10767489933E+03  0.12528979167E+03  0.00000000000E+00 0. -1.
</event>
<event>
 4    1  0.3099057E+006  0.2327251E+02  0.7546771E-02  0.1489104E+00
         21   -1    0    0  502  501  0.00000000000E+00  0.00000000000E+00  0.89401163607E+01  0.89401163607E+01  0.00000000000E+00 0. -1.
         21   -1    0    0  504  502 -0.00000000000E+00 -0.00000000000E+00 -0.68232387961E+02  0.68232387961E+02  0.00000000000E+00 0. -1.
         21    1    1    2  503  501 -0.23102701866E+02 -0.28061977030E+01 -0.16725592092E+02  0.28659291859E+02  0.00000000000E+00 0. -1.
         21    1    1    2  504  503  0.23102701866E+02  0.28061977030E+01 -0.42566679509E+02  0.48513212463E+02  0.00000000000E+00 0. -1.
</event>
<event>
 4    1  0.3099057E+006  0.2602271E+02  0.7546771E-02  0.1457680E+00
         21   -1    0    0  503  501  0.00000000000E+00  0.00000000000E+00  0.20385026664E+02  0.20385026664E+02  0.00000000000E+00 0.  1.
         21   -1    0    0  504  502 -0.00000000000E+00 -0.00000000000E+00 -0.50690899360E+02  0.50690899360E+02  0.00000000000E+00 0.  1.
         21    1    1    2  503  502 -0.24216773284E+02  0.95251900208E+01 -0.36016610576E+02  0.44433968882E+02  0.00000000000E+00 0.  1.
         21    1    1    2  504  501  0.24216773284E+02 -0.95251900208E+01  0.57107378792E+01  0.26641957142E+02  0.00000000000E+00 0.  1.
</event>
<event>
 4    1  0.3099057E+006  0.2667945E+02  0.7546771E-02  0.1450855E+00
         21   -1    0    0  503  501  0.00000000000E+00  0.00000000000E+00  0.30151258106E+02  0.30151258106E+02  0.00000000000E+00 0. -1.
         21   -1    0    0  501  502 -0.00000000000E+00 -0.00000000000E+00 -0.27821993086E+02  0.27821993086E+02  0.00000000000E+00 0. -1.
         21    1    1    2  503  504  0.20097956296E+02  0.17546089164E+02  0.12446497179E+02  0.29439911417E+02  0.00000000000E+00 0. -1.
         21    1    1    2  504  502 -0.20097956296E+02 -0.17546089164E+02 -0.10117232159E+02  0.28533339776E+02  0.00000000000E+00 0. -1.
</event>
<event>
 4    1  0.3099057E+006  0.2329653E+02  0.7546771E-02  0.1488808E+00
         21   -1    0    0  503  501  0.00000000000E+00  0.00000000000E+00  0.15972476160E+01  0.15972476160E+01  0.00000000000E+00 0. -1.
         21   -1    0    0  504  502 -0.00000000000E+00 -0.00000000000E+00 -0.34354584825E+03  0.34354584825E+03  0.00000000000E+00 0. -1.
         21    1    1    2  503  502 -0.23071770920E+02 -0.32282583734E+01 -0.15292962676E+03  0.15469388808E+03  0.00000000000E+00 0. -1.
         21    1    1    2  504  501  0.23071770920E+02  0.32282583734E+01 -0.18901897387E+03  0.19044920779E+03  0.00000000000E+00 0. -1.
</event>
<event>
 4    1  0.3099057E+006  0.3049748E+02  0.7546771E-02  0.1415322E+00
         21   -1    0    0  502  501  0.00000000000E+00  0.00000000000E+00  0.83140292077E+03  0.83140292077E+03  0.00000000000E+00 0.  1.
         21   -1    0    0  504  502 -0.00000000000E+00 -0.00000000000E+00 -0.40576425246E+02  0.40576425246E+02  0.00000000000E+00 0. -1.
         21    1    1    2  503  501  0.21563345560E+02  0.21566599089E+02  0.82535071714E+03  0.82591397999E+03  0.00000000000E+00 0.  1.
         21    1    1    2  504  503 -0.21563345560E+02 -0.21566599089E+02 -0.34524221619E+02  0.46065366018E+02  0.00000000000E+00 0. -1.
</event>
<event>
 4    1  0.3099057E+006  0.2791058E+02  0.7546771E-02  0.1438669E+00
         21   -1    0    0  504  501  0.00000000000E+00  0.00000000000E+00  0.30409748129E+02  0.30409748129E+02  0.00000000000E+00 0. -1.
         21   -1    0    0  503  502 -0.00000000000E+00 -0.00000000000E+00 -0.44374760404E+02  0.44374760404E+02  0.00000000000E+00 0.  1.
         21    1    1    2  503  501  0.14008694451E+02 -0.24140364530E+02  0.17328690549E+02  0.32852461643E+02  0.00000000000E+00 0. -1.
         21    1    1    2  504  502 -0.14008694451E+02  0.24140364530E+02 -0.31293702825E+02  0.41932046890E+02  0.00000000000E+00 0.  1.
</event>
<event>
 4    1  0.3099057E+006  0.2011583E+02  0.7546771E-02  0.1532272E+00
         21   -1    0    0  502  501  0.00000000000E+00  0.00000000000E+00  0.96449010765E+00  0.96449010765E+00  0.00000000000E+00 0. -1.
         21   -1    0    0  503  502 -0.00000000000E+00 -0.00000000000E+00 -0.66186546283E+03  0.66186546283E+03  0.00000000000E+00 0. -1.
         21    1    1    2  503  504  0.46320759968E+01 -0.19575253007E+02 -0.53098200128E+03  0.53136290079E+03  0.00000000000E+00 0. -1.
         21    1    1    2  504  501 -0.46320759968E+01  0.19575253007E+02 -0.12991897144E+03  0.13146705214E+03  0.00000000000E+00 0. -1.
</event>
<event>
 4    1  0.3099057E+006  0.2859990E+02  0.7546771E-02  0.1432166E+00
         21   -1    0    0  504  501  0.00000000000E+00  0.00000000000E+00  0.33643960527E+02  0.33643960527E+02  0.00000000000E+00 0.  1.
         21   -1    0    0  503  502 -0.00000000000E+00 -0.00000000000E+00 -0.10344096006E+03  0.10344096006E+03  0.00000000000E+00 0.  1.
         21    1    1    2  503  501 -0.28130238287E+02 -0.51617949117E+01 -0.94847362103E+02  0.99065516355E+02  0.00000000000E+00 0.  1.
         21    1    1    2  504  502  0.28130238287E+02  0.51617949117E+01  0.25050362574E+02  0.38019404228E+02  0.00000000000E+00 0.  1.
</event>
<event>
 4    1  0.3099057E+006  0.2306966E+02  0.7546771E-02  0.1491625E+00
         21   -1    0    0  502  501  0.00000000000E+00  0.00000000000E+00  0.37092517659E+03  0.37092517659E+03  0.00000000000E+00 0.  1.
         21   -1    0    0  504  502 -0.00000000000E+00 -0.00000000000E+00 -0.19007400735E+01  0.19007400735E+01  0.00000000000E+00 0.  1.
         21    1    1    2  503  501 -0.75263974984E+00 -0.23057380613E+02  0.27680600127E+03  0.27776567752E+03  0.00000000000E+00 0.  1.
         21    1    1    2  504  503  0.75263974984E+00  0.23057380613E+02  0.92218435247E+02  0.95060239147E+02  0.00000000000E+00 0.  1.
</event>
<event>
 4    1  0.3099057E+006  0.2091283E+02  0.7546771E-02  0.1520513E+00
         21   -1    0    0  503  501  0.00000000000E+00  0.00000000000E+00  0.30491564211E+02  0.30491564211E+02  0.00000000000E+00 0. -1.
         21   -1    0    0  504  502 -0.00000000000E+00 -0.00000000000E+00 -0.17112812296E+02  0.17112812296E+02  0.00000000000E+00 0. -1.
         21    1    1    2  503  502 -0.73608299196E+01 -0.19574586856E+02  0.16264988080E+02  0.26493321893E+02  0.00000000000E+00 0. -1.
         21    1    1    2  504  501  0.73608299196E+01  0.19574586856E+02 -0.28862361651E+01  0.21111054613E+02  0.00000000000E+00 0. -1.
</event>
<event>
 4    1  0.3099057E+006  0.3023845E+02  0.7546771E-02  0.1417535E+00
         21   -1    0    0  504  501  0.00000000000E+00  0.00000000000E+00  0.46087000152E+01  0.46087000152E+01  0.00000000000E+00 0. -1.
         21   -1    0    0  503  502 -0.00000000000E+00 -0.00000000000E+00 -0.20073802358E+03  0.20073802358E+03  0.00000000000E+00 0. -1.
         21    1    1    2  503  501 -0.28050636727E+02  0.11292712894E+02 -0.86982672318E+02  0.92088809684E+02  0.00000000000E+00 0. -1.
         21    1    1    2  504  502  0.28050636727E+02 -0.11292712894E+02 -0.10914665125E+03  0.11325791392E+03  0.00000000000E+00 0. -1.
</event>
<event>
 4    1  0.3099057E+006  0.2368681E+02  0.7546771E-02  0.1484049E+00
         21   -1    0    0  503  501  0.00000000000E+00  0.00000000000E+00  0.98783838727E+03  0.98783838727E+03  0.00000000000E+00 0. -1.
         21   -1    0    0  504  502 -0.00000000000E+00 -0.00000000000E+00 -0.28917005247E+02  0.28917005247E+02  0.00000000000E+00 0. -1.
         21    1    1    2  503  502 -0.19071843891E+02 -0.14047404509E+02 -0.23899605181E+02  0.33649010842E+02  0.00000000000E+00 0. -1.
         21    1    1    2  504  501  0.19071843891E+02  0.14047404509E+02  0.98282098720E+03  0.98310638167E+03  0.00000000000E+00 0. -1.
</event>
<event>
 4    1  0.3099057E+006  0.2009275E+02  0.7546771E-02  0.1532623E+00
         21   -1    0    0  502  501  0.00000000000E+00  0.00000000000E+00  0.59970532985E+02  0.59970532985E+02  0.00000000000E+00 0.  1.
         21   -1    0    0  503  502 -0.00000000000E+00 -0.00000000000E+00 -0.10836046311E+02  0.10836046311E+02  0.00000000000E+00 0. -1.
         21    1    1    2  503  504  0.15335283606E+01 -0.20034143704E+02  0.27792632588E+01  0.20284055991E+02  0.00000000000E+00 0. -1.
         21    1    1    2  504  501 -0.15335283606E+01  0.20034143704E+02  0.46355223416E+02  0.50522523305E+02  0.00000000000E+00 0.  1.
</event>
<event>
 4    1  0.3099057E+006  0.2309360E+02  0.7546771E-02  0.1491326E+00
         21   -1    0    0  504  501  0.00000000000E+00  0.00000000000E+00  0.31956626583E+01  0.31956626583E+01  0.00000000000E+00 0. -1.
         21   -1    0    0  501  502 -0.00000000000E+00 -0.00000000000E+00 -0.38490938377E+03  0.38490938377E+03  0.00000000000E+00 0.  1.
         21    1    1    2  503  502 -0.21832339963E+02  0.75275127208E+01 -0.33690317385E+03  0.33769374152E+03  0.00000000000E+00 0.  1.
         21    1    1    2  504  503  0.21832339963E+02 -0.75275127208E+01 -0.44810547266E+02  0.50411304906E+02  0.00000000000E+00 0. -1.
</event>
<event>
 4    1  0.3099057E+006  0.2631743E+02  0.7546771E-02  0.1454588E+00
         21   -1    0    0  503  501  0.00000000000E+00  0.00000000000E+00  0.16790516797E+02  0.16790516797E+02  0.00000000000E+00 0.  1.
         21   -1    0    0  504  502 -0.00000000000E+00 -0.00000000000E+00 -0.48144218543E+02  0.48144218543E+02  0.00000000000E+00 0.  1.
         21    1    1    2  503  502  0.46815228483E+01  0.25897697082E+02 -0.27963126296E+02  0.38399789096E+02  0.00000000000E+00 0.  1.
         21    1    1    2  504  501 -0.46815228483E+01 -0.25897697082E+02 -0.33905754499E+01  0.26534946245E+02  0.00000000000E+00 0.  1.
</event>
<event>
 4    1  0.3099057E+006  0.2079015E+02  0.7546771E-02  0.1522282E+00
         21   -1    0    0  504  501  0.00000000000E+00  0.00000000000E+00  0.86220760343E+01  0.86220760343E+01  0.00000000000E+00 0. -1.
         21   -1    0    0  501  502 -0.00000000000E+00 -0.00000000000E+00 -0.16518345730E+03  0.16518345730E+03  0.00000000000E+00 0. -1.
         21    1    1    2  503  502  0.73950114433E+01 -0.19430492414E+02 -0.15080756264E+03  0.15223387002E+03  0.00000000000E+00 0. -1.
         21    1    1    2  504  503 -0.73950114433E+01  0.19430492414E+02 -0.57538186269E+01  0.21571663322E+02  0.00000000000E+00 0. -1.
</event>
<event>
 4    1  0.3099057E+006  0.2103061E+02  0.7546771E-02  0.1518828E+00
         21   -1    0    0  503  501  0.00000000000E+00  0.00000000000E+00  0.98661905306E+00  0.98661905306E+00  0.00000000000E+00 0.  1.
         21   -1    0    0  501  502 -0.00000000000E+00 -0.00000000000E+00 -0.55333117272E+03  0.55333117272E+03  0.00000000000E+00 0.  1.
         21    1    1    2  503  504 -0.68927337768E+01  0.19868992877E+02 -0.15541144704E+03  0.15682794562E+03  0.00000000000E+00 0.  1.
         21    1    1    2  504  502  0.68927337768E+01 -0.19868992877E+02 -0.39693310664E+03  0.39748984616E+03  0.00000000000E+00 0.  1.
</event>
<event>
 4    1  0.3099057E+006  0.2305483E+02  0.7546771E-02  0.1491811E+00
         21   -1    0    0  503  501  0.00000000000E+00  0.00000000000E+00  0.55040338633E+02  0.55040338633E+02  0.00000000000E+00 0. -1.
         21   -1    0    0  504  502 -0.00000000000E+00 -0.00000000000E+00 -0.47287160598E+02  0.47287160598E+02  0.00000000000E+00 0. -1.
         21    1    1    2  503  502  0.14922694343E+02  0.17573797816E+02  0.49517963706E+02  0.54621917815E+02  0.00000000000E+00 0. -1.
         21    1    1    2  504  501 -0.14922694343E+02 -0.17573797816E+02 -0.41764785672E+02  0.47705581417E+02  0.00000000000E+00 0. -1.
</event>
<event>
 4    1  0.3099057E+006  0.2118020E+02  0.7546771E-02  0.1516708E+00
         21   -1    0    0  504  501  0.00000000000E+00  0.00000000000E+00  0.36585076792E+02  0.36585076792E+02  0.00000000000E+00 0.  1.
         21   -1    0    0  503  502 -0.00000000000E+00 -0.00000000000E+00 -0.12781427729E+02  0.12781427729E+02  0.00000000000E+00 0.  1.
         21    1    1    2  503  501  0.20707912992E+02  0.44478196037E+01  0.16878479722E+02  0.27082906739E+02  0.00000000000E+00 0.  1.
         21    1    1    2  504  502 -0.20707912992E+02 -0.44478196037E+01  0.69251693415E+01  0.22283597783E+02  0.00000000000E+00 0.  1.
</event>
<event>
 4    1  0.3099057E+006  0.2451265E+02  0.7546771E-02  0.1474330E+00
         21   -1    0    0  504  501  0.00000000000E+00  0.00000000000E+00  0.13785651778E+02  0.13785651778E+02  0.00000000000E+00 0.  1.
         21   -1    0    0  503  502 -0.00000000000E+00 -0.00000000000E+00 -0.16325592639E+03  0.16325592639E+03  0.00000000000E+00 0. -1.
         21    1    1    2  503  501 -0.21975256939E+02 -0.10860841888E+02 -0.15052344453E+03  0.15250631842E+03  0.00000000000E+00 0. -1.
         21    1    1    2  504  502  0.21975256939E+02  0.10860841888E+02  0.10531699200E+01  0.24535259749E+02  0.00000000000E+00 0.  1.
</event>
<event>
 4    1  0.3099057E+006  0.2039135E+02  0.7546771E-02  0.1528135E+00
         21   -1    0    0  504  501  0.00000000000E+00  0.00000000000E+00  0.57504889565E+01  0.57504889565E+01  0.00000000000E+00 0. -1.
         21   -1    0    0  503  502 -0.00000000000E+00 -0.00000000000E+00 -0.14976872400E+03  0.14976872400E+03  0.00000000000E+00 0.  1.
         21    1    1    2  503  501 -0.96793608522E+01  0.17947620724E+02 -0.16086963112E+02  0.25973014811E+02  0.00000000000E+00 0. -1.
         21    1    1    2  504  502  0.96793608522E+01 -0.17947620724E+02 -0.12793127193E+03  0.12954619815E+03  0.00000000000E+00 0.  1.
</event>
<event>
 4    1  0.3099057E+006  0.3394762E+02  0.7546771E-02  0.1388116E+00
         21   -1    0    0  502  501  0.00000000000E+00  0.00000000000E+00  0.12566427862E+02  0.12566427862E+02  0.00000000000E+00 0. -1.
         21   -1    0    0  504  502 -0.00000000000E+00 -0.00000000000E+00 -0.13900553881E+03  0.13900553881E+03  0.00000000000E+00 0.  1.
         21    1    1    2  503  501  0.33669628161E+02 -0.43355901938E+01 -0.19012418689E+02  0.38909038374E+02  0.00000000000E+00 0. -1.
         21    1    1    2  504  503 -0.33669628161E+02  0.43355901938E+01 -0.10742669226E+03  0.11266292830E+03  0.00000000000E+00 0.  1.
</event>
<event>
 4    1  0.3099057E+006  0.4399172E+02  0.7546771E-02  0.1326559E+00
         21   -1    0    0  503  501  0.00000000000E+00  0.00000000000E+00  0.67115418324E+01  0.67115418324E+01  0.00000000000E+00 0.  1.
         21   -1    0    0  504  502 -0.00000000000E+00 -0.00000000000E+00 -0.44435777383E+03  0.44435777383E+03  0.00000000000E+00 0.  1.
         21    1    1    2  503  502  0.42791196871E+02  0.10207111725E+02 -0.85188086444E+02  0.95876387768E+02  0.00000000000E+00 0.  1.
         21    1    1    2  504  501 -0.42791196871E+02 -0.10207111725E+02 -0.35245814555E+03  0.35519292790E+03  0.00000000000E+00 0.  1.
</event>
<event>
 4    1  0.3099057E+006  0.2375424E+02  0.7546771E-02  0.1483238E+00
         21   -1    0    0  504  501  0.00000000000E+00  0.00000000000E+00  0.78335742219E+01  0.78335742219E+01  0.00000000000E+00 0. -1.
         21   -1    0    0  503  502 -0.00000000000E+00 -0.00000000000E+00 -0.75071935143E+02  0.75071935143E+02  0.00000000000E+00 0. -1.
         21    1    1    2  503  501  0.18581531015E+02  0.14798333638E+02 -0.25276922177E+02  0.34686982689E+02  0.00000000000E+00 0. -1.
         21    1    1    2  504  502 -0.18581531015E+02 -0.14798333638E+02 -0.41961438744E+02  0.48218526676E+02  0.00000000000E+00 0. -1.
</event>
<event>
 4    1  0.3099057E+006  0.2543789E+02  0.7546771E-02  0.1463964E+00
         21   -1    0    0  503  501  0.00000000000E+00  0.00000000000E+00  0.12703547234E+03  0.12703547234E+03  0.00000000000E+00 0.  1.
         21   -1    0    0  504  502 -0.00000000000E+00 -0.00000000000E+00 -0.85549603897E+02  0.85549603897E+02  0.00000000000E+00 0. -1.
         21    1    1    2  503  502  0.25359132642E+02  0.20001602815E+01 -0.82336639727E+02  0.86176612205E+02  0.00000000000E+00 0. -1.
         21    1    1    2  504  501 -0.25359132642E+02 -0.20001602815E+01  0.12382250817E+03  0.12640846403E+03  0.00000000000E+00 0.  1.
</event>
<event>
 4    1  0.3099057E+006  0.5616812E+02  0.7546771E-02  0.1273439E+00
         21   -1    0    0  503  501  0.00000000000E+00  0.00000000000E+00  0.45324471774E+03  0.45324471774E+03  0.00000000000E+00 0.  1.
         21   -1    0    0  504  502 -0.00000000000E+00 -0.00000000000E+00 -0.77321939815E+02  0.77321939815E+02  0.00000000000E+00 0.  1.
         21    1    1    2  503  502 -0.15906191375E+00 -0.56167895096E+02 -0.65099844726E+02  0.85981669695E+02  0.00000000000E+00 0.  1.
         21    1    1    2  504  501  0.15906191375E+00  0.56167895096E+02  0.44102262265E+03  0.44458498786E+03  0.00000000000E+00 0.  1.
</event>
<event>
 4    1  0.3099057E+006  0.3685473E+02  0.7546771E-02  0.1367973E+00
         21   -1    0    0  503  501  0.00000000000E+00  0.00000000000E+00  0.49565889459E+02  0.49565889459E+02  0.00000000000E+00 0.  1.
         21   -1    0    0  504  502 -0.00000000000E+00 -0.00000000000E+00 -0.27403338756E+02  0.27403338756E+02  0.00000000000E+00 0.  1.
         21    1    1    2  503  502 -0.69276338284E+01  0.36197771635E+02  0.11090486342E+02  0.38487266324E+02  0.00000000000E+00 0.  1.
         21    1    1    2  504  501  0.69276338284E+01 -0.36197771635E+02  0.11072064361E+02  0.38481961891E+02  0.00000000000E+00 0.  1.
</event>
<event>
 4    1  0.3099057E+006  0.2434534E+02  0.7546771E-02  0.1476262E+00
         21   -1    0    0  503  501  0.00000000000E+00  0.00000000000E+00  0.46141185001E+01  0.46141185001E+01  0.00000000000E+00 0. -1.
         21   -1    0    0  501  502 -0.00000000000E+00 -0.00000000000E+00 -0.78341450256E+03  0.78341450256E+03  0.00000000000E+00 0. -1.
         21    1    1    2  503  504  0.58683753281E+01 -0.23627474955E+02 -0.29133410328E+02  0.37966445700E+02  0.00000000000E+00 0. -1.
         21    1    1    2  504  502 -0.58683753281E+01  0.23627474955E+02 -0.74966697373E+03  0.75006217536E+03  0.00000000000E+00 0. -1.
</event>
<event>
 4    1  0.3099057E+006  0.5937894E+02  0.7546771E-02  0.1261957E+00
         21   -1    0    0  502  501  0.00000000000E+00  0.00000000000E+00  0.18311542862E+03  0.18311542862E+03  0.00000000000E+00 0. -1.
         21   -1    0    0  503  502 -0.00000000000E+00 -0.00000000000E+00 -0.15471288891E+03  0.15471288891E+03  0.00000000000E+00 0. -1.
         21    1    1    2  503  504  0.59204026292E+02 -0.45543184041E+01 -0.14385262864E+03  0.15562595321E+03  0.00000000000E+00 0. -1.
         21    1    1    2  504  501 -0.59204026292E+02  0.45543184041E+01  0.17225516835E+03  0.18220236433E+03  0.00000000000E+00 0. -1.
</event>
<event>
 4    1  0.3099057E+006  0.2264912E+02  0.7546771E-02  0.1496952E+00
         21   -1    0    0  503  501  0.00000000000E+00  0.00000000000E+00  0.11023582381E+03  0.11023582381E+03  0.00000000000E+00 0.  1.
         21   -1    0    0  501  502 -0.00000000000E+00 -0.00000000000E+00 -0.15843507370E+03  0.15843507370E+03  0.00000000000E+00 0.  1.
         21    1    1    2  503  504  0.12293835876E+02 -0.19022200309E+02  0.10824829331E+03  0.11059238450E+03  0.00000000000E+00 0.  1.
         21    1    1    2  504  502 -0.12293835876E+02  0.19022200309E+02 -0.15644754319E+03  0.15807851301E+03  0.00000000000E+00 0.  1.
</event>
<event>
 4    1  0.3099057E+006  0.2075220E+02  0.7546771E-02  0.1522832E+00
         21   -1    0    0  503  501  0.00000000000E+00  0.00000000000E+00  0.63722112453E+03  0.63722112453E+03  0.00000000000E+00 0.  1.
         21   -1    0    0  504  502 -0.00000000000E+00 -0.00000000000E+00 -0.11700067745E+01  0.11700067745E+01  0.00000000000E+00 0. -1.
         21    1    1    2  503  502 -0.22154715958E+01 -0.20633605349E+02  0.52547069331E+03  0.52588031292E+03  0.00000000000E+00 0.  1.
         21    1    1    2  504  501  0.22154715958E+01  0.20633605349E+02  0.11058042445E+03  0.11251081839E+03  0.00000000000E+00 0. -1.
</event>
<event>
 4    1  0.3099057E+006  0.2378818E+02  0.7546771E-02  0.1482831E+00
         21   -1    0    0  503  501  0.00000000000E+00  0.00000000000E+00  0.24801970459E+00  0.24801970459E+00  0.00000000000E+00 0.  1.
         21   -1    0    0  501  502 -0.00000000000E+00 -0.00000000000E+00 -0.23749044271E+04  0.23749044271E+04  0.00000000000E+00 0.  1.
         21    1    1    2  503  504  0.86387375629E+01 -0.22164158250E+02 -0.95191671806E+03  0.95221390234E+03  0.00000000000E+00 0.  1.
         21    1    1    2  504  502 -0.86387375629E+01  0.22164158250E+02 -0.14227396894E+04  0.14229385445E+04  0.00000000000E+00 0.  1.
</event>
<event>
 4    1  0.3099057E+006  0.2821405E+02  0.7546771E-02  0.1435780E+00
         21   -1    0    0  504  501  0.00000000000E+00  0.00000000000E+00  0.86822880244E+03  0.86822880244E+03  0.00000000000E+00 0.  1.
         21   -1    0    0  503  502 -0.00000000000E+00 -0.00000000000E+00 -0.12426533604E+01  0.12426533604E+01  0.00000000000E+00 0. -1.
         21    1    1    2  503  501 -0.12271696398E+02 -0.25405475997E+02  0.65609570373E+03  0.65670206730E+03  0.00000000000E+00 0.  1.
         21    1    1    2  504  502  0.12271696398E+02  0.25405475997E+02  0.21089044536E+03  0.21276938851E+03  0.00000000000E+00 0. -1.
</event>
<event>
 4    1  0.3099057E+006  0.2386421E+02  0.7546771E-02  0.1481922E+00
         21   -1    0    0  502  501  0.00000000000E+00  0.00000000000E+00  0.27352491828E+02  0.27352491828E+02  0.00000000000E+00 0.  1.
         21   -1    0    0  503  502 -0.00000000000E+00 -0.00000000000E+00 -0.22514246145E+02  0.22514246145E+02  0.00000000000E+00 0.  1.
         21    1    1    2  503  504  0.14758928744E+02 -0.18752989098E+02 -0.44190302109E+01  0.24269907412E+02  0.00000000000E+00 0.  1.
         21    1    1    2  504  501 -0.14758928744E+02  0.18752989098E+02  0.92572758936E+01  0.25596830561E+02  0.00000000000E+00 0.  1.
</event>
<event>
 4    1  0.3099057E+006  0.2714724E+02  0.7546771E-02  0.1446135E+00
         21   -1    0    0  503  501  0.00000000000E+00  0.00000000000E+00  0.31018183449E+03  0.31018183449E+03  0.00000000000E+00 0.  1.
         21   -1    0    0  501  502 -0.00000000000E+00 -0.00000000000E+00 -0.26877207710E+01  0.26877207710E+01  0.00000000000E+00 0. -1.
         21    1    1    2  503  504 -0.27135144272E+02  0.81031675058E+00  0.20702747262E+03  0.20879977750E+03  0.00000000000E+00 0.  1.
         21    1    1    2  504  502  0.27135144272E+02 -0.81031675058E+00  0.10046664110E+03  0.10406977776E+03  0.00000000000E+00 0. -1.
</event>
<event>
 4    1  0.3099057E+006  0.2347927E+02  0.7546771E-02  0.1486566E+00
         21   -1    0    0  503  501  0.00000000000E+00  0.00000000000E+00  0.79869724953E+02  0.79869724953E+02  0.00000000000E+00 0. -1.
         21   -1    0    0  504  502 -0.00000000000E+00 -0.00000000000E+00 -0.70781375564E+01  0.70781375564E+01  0.00000000000E+00 0. -1.
         21    1    1    2  503  502  0.23476412851E+02 -0.36656810805E+00  0.43249983984E+02  0.49212167674E+02  0.00000000000E+00 0. -1.
         21    1    1    2  504  501 -0.23476412851E+02  0.36656810805E+00  0.29541603412E+02  0.37735694835E+02  0.00000000000E+00 0. -1.
</event>
<event>
 4    1  0.3099057E+006  0.2185175E+02  0.7546771E-02  0.1507443E+00
         21   -1    0    0  504  501  0.00000000000E+00  0.00000000000E+00  0.10047797111E+04  0.10047797111E+04  0.00000000000E+00 0.  1.
         21   -1    0    0  503  502 -0.00000000000E+00 -0.00000000000E+00 -0.27899709690E+01  0.27899709690E+01  0.00000000000E+00 0. -1.
         21    1    1    2  503  501 -0.70479692445E+01  0.20683934082E+02  0.42117455918E+02  0.47448699588E+02  0.00000000000E+00 0. -1.
         21    1    1    2  504  502  0.70479692445E+01 -0.20683934082E+02  0.95987228424E+03  0.96012098251E+03  0.00000000000E+00 0.  1.
</event>
<event>
 4    1  0.3099057E+006  0.2213682E+02  0.7546771E-02  0.1503631E+00
         21   -1    0    0  502  501  0.00000000000E+00  0.00000000000E+00  0.18237914750E+02  0.18237914750E+02  0.00000000000E+00 0.  1.
         21   -1    0    0  503  502 -0.00000000000E+00 -0.00000000000E+00 -0.58972162558E+03  0.58972162558E+03  0.00000000000E+00 0. -1.
         21    1    1    2  503  504  0.49632339863E+01  0.21573249999E+02 -0.58271584475E+03  0.58313617151E+03  0.00000000000E+00 0. -1.
         21    1    1    2  504  501 -0.49632339863E+01 -0.21573249999E+02  0.11232133917E+02  0.24823368818E+02  0.00000000000E+00 0.  1.
</event>
<event>
 4    1  0.3099057E+006  0.2018043E+02  0.7546771E-02  0.1531295E+00
         21   -1    0    0  503  501  0.00000000000E+00  0.00000000000E+00  0.79726198216E+02  0.79726198216E+02  0.00000000000E+00 0.  1.
         21   -1    0    0  501  502 -0.00000000000E+00 -0.00000000000E+00 -0.13368877068E+02  0.13368877068E+02  0.00000000000E+00 0.  1.
         21    1    1    2  503  504 -0.83644014165E+01 -0.18365364476E+02  0.69768420171E+02  0.72628384786E+02  0.00000000000E+00 0.  1.
         21    1    1    2  504  502  0.83644014165E+01  0.18365364476E+02 -0.34110990235E+01  0.20466690498E+02  0.00000000000E+00 0.  1.
</event>
<event>
 4    1  0.3099057E+006  0.3106676E+02  0.7546771E-02  0.1410547E+00
         21   -1    0    0  504  501  0.00000000000E+00  0.00000000000E+00  0.45143444108E+01  0.45143444108E+01  0.00000000000E+00 0.  1.
         21   -1    0    0  503  502 -0.00000000000E+00 -0.00000000000E+00 -0.22217397976E+03  0.22217397976E+03  0.00000000000E+00 0.  1.
         21    1    1    2  503  501 -0.55981650657E+01 -0.30558205897E+02 -0.13084149244E+03  0.13447914167E+03  0.00000000000E+00 0.  1.
         21    1    1    2  504  502  0.55981650657E+01  0.30558205897E+02 -0.86818142909E+02  0.92209182503E+02  0.00000000000E+00 0.  1.
</event>
<event>
 4    1  0.3099057E+006  0.2361296E+02  0.7546771E-02  0.1484941E+00
         21   -1    0    0  502  501  0.00000000000E+00  0.00000000000E+00  0.23627578236E+02  0.23627578236E+02  0.00000000000E+00 0. -1.
         21   -1    0    0  504  502 -0.00000000000E+00 -0.00000000000E+00 -0.29831106906E+02  0.29831106906E+02  0.00000000000E+00 0.  1.
         21    1    1    2  503  501 -0.19309363743E+02  0.13591183400E+02  0.91160574258E+01  0.25311544745E+02  0.00000000000E+00 0. -1.
         21    1    1    2  504  503  0.19309363743E+02 -0.13591183400E+02 -0.15319586096E+02  0.28147140397E+02  0.00000000000E+00 0.  1.
</event>
<event>
 4    1  0.3099057E+006  0.2131046E+02  0.7546771E-02  0.1514878E+00
         21   -1    0    0  504  501  0.00000000000E+00  0.00000000000E+00  0.11766791550E+03  0.11766791550E+03  0.00000000000E+00 0. -1.
         21   -1    0    0  503  502 -0.00000000000E+00 -0.00000000000E+00 -0.47504263316E+01  0.47504263316E+01  0.00000000000E+00 0.  1.
         21    1    1    2  503  501 -0.19285423512E+02 -0.90668775212E+01  0.29950660874E+02  0.36758372037E+02  0.00000000000E+00 0.  1.
         21    1    1    2  504  502  0.19285423512E+02  0.90668775212E+01  0.82966828295E+02  0.85659969795E+02  0.00000000000E+00 0. -1.
</event>
<event>
 4    1  0.3099057E+006  0.2752753E+02  0.7546771E-02  0.1442380E+00
         21   -1    0    0  502  501  0.00000000000E+00  0.00000000000E+00  0.20950210929E+03  0.20950210929E+03  0.00000000000E+00 0.  1.
         21   -1    0    0  504  502 -0.00000000000E+00 -0.00000000000E+00 -0.23371469032E+02  0.23371469032E+02  0.00000000000E+00 0.  1.
         21    1    1    2  503  501 -0.24453759927E+02  0.12640359288E+02  0.20011370263E+03  0.20199816592E+03  0.00000000000E+00 0.  1.
         21    1    1    2  504  503  0.24453759927E+02 -0.12640359288E+02 -0.13983062370E+02  0.30875412398E+02  0.00000000000E+00 0.  1.
</event>
<event>
 4    1  0.3099057E+006  0.3071279E+02  0.7546771E-02  0.1413501E+00
         21   -1    0    0  503  501  0.00000000000E+00  0.00000000000E+00  0.25582018612E+02  0.25582018612E+02  0.00000000000E+00 0. -1.
         21   -1    0    0  501  502 -0.00000000000E+00 -0.00000000000E+00 -0.16474257944E+03  0.16474257944E+03  0.00000000000E+00 0.  1.
         21    1    1    2  503  504  0.29272317430E+02  0.92955376837E+01  0.14258758127E+02  0.33861301982E+02  0.00000000000E+00 0. -1.
         21    1    1    2  504  502 -0.29272317430E+02 -0.92955376837E+01 -0.15341931896E+03  0.15646329607E+03  0.00000000000E+00 0.  1.
</event>
<event>
 4    1  0.3099057E+006  0.2541252E+02  0.7546771E-02  0.1464241E+00
         21   -1    0    0  503  501  0.00000000000E+00  0.00000000000E+00  0.19134061367E+02  0.19134061367E+02  0.00000000000E+00 0.  1.
         21   -1    0    0  501  502 -0.00000000000E+00 -0.00000000000E+00 -0.83990131495E+02  0.83990131495E+02  0.00000000000E+00 0.  1.
         21    1    1    2  503  504 -0.13977851818E+02 -0.21223002471E+02  0.74502927992E+01  0.26482126768E+02  0.00000000000E+00 0.  1.
         21    1    1    2  504  502  0.13977851818E+02  0.21223002471E+02 -0.72306362928E+02  0.76642066094E+02  0.00000000000E+00 0.  1.
</event>
<event>
 4    1  0.3099057E+006  0.3102827E+02  0.7546771E-02  0.1410866E+00
         21   -1    0    0  503  501  0.00000000000E+00  0.00000000000E+00  0.16674354240E+02  0.16674354240E+02  0.00000000000E+00 0. -1.
         21   -1    0    0  501  502 -0.00000000000E+00 -0.00000000000E+00 -0.12815309832E+03  0.12815309832E+03  0.00000000000E+00 0. -1.
         21    1    1    2  503  504 -0.31213865861E+01 -0.30870872380E+02 -0.20624758166E+01  0.31096746168E+02  0.00000000000E+00 0. -1.
         21    1    1    2  504  502  0.31213865861E+01  0.30870872380E+02 -0.10941626826E+03  0.11373070639E+03  0.00000000000E+00 0. -1.
</event>
<event>
 4    1  0.3099057E+006  0.2171968E+02  0.7546771E-02  0.1509233E+00
         21   -1    0    0  504  501  0.00000000000E+00  0.00000000000E+00  0.86880473918E+01  0.86880473918E+01  0.00000000000E+00 0. -1.
         21   -1    0    0  503  502 -0.00000000000E+00 -0.00000000000E+00 -0.67344136049E+02  0.67344136049E+02  0.00000000000E+00 0. -1.
         21    1    1    2  503  501 -0.95767150124E+01 -0.19494379786E+02 -0.12595686136E+02  0.25107680556E+02  0.00000000000E+00 0. -1.
         21    1    1    2  504  502  0.95767150124E+01  0.19494379786E+02 -0.46060402522E+02  0.50924502886E+02  0.00000000000E+00 0. -1.
</event>
<event>
 4    1  0.3099057E+006  0.3985991E+02  0.7546771E-02  0.1349309E+00
         21   -1    0    0  504  501  0.00000000000E+00  0.00000000000E+00  0.14957063180E+03  0.14957063180E+03  0.00000000000E+00 0. -1.
         21   -1    0    0  503  502 -0.00000000000E+00 -0.00000000000E+00 -0.11615246438E+02  0.11615246438E+02  0.00000000000E+00 0. -1.
         21    1    1    2  503  501 -0.32880688936E+02  0.22531601634E+02  0.92539239041E+02  0.10075873927E+03  0.00000000000E+00 0. -1.
         21    1    1    2  504  502  0.32880688936E+02 -0.22531601634E+02  0.45416146321E+02  0.60427138967E+02  0.00000000000E+00 0. -1.
</event>
<event>
 4    1  0.3099057E+006  0.2154895E+02  0.7546771E-02  0.1511570E+00
         21   -1    0    0  504  501  0.00000000000E+00  0.00000000000E+00  0.41120715623E+03  0.41120715623E+03  0.00000000000E+00 0.  1.
         21   -1    0    0  503  502 -0.00000000000E+00 -0.00000000000E+00 -0.23845910573E+01  0.23845910573E+01  0.00000000000E+00 0.  1.
         21    1    1    2  503  501  0.14494290893E+02  0.15945930027E+02  0.35445408280E+03  0.35510851013E+03  0.00000000000E+00 0.  1.
         21    1    1    2  504  502 -0.14494290893E+02 -0.15945930027E+02  0.54368482372E+02  0.58483237157E+02  0.00000000000E+00 0.  1.
</event>
<event>
 4    1  0.3099057E+006  0.4526101E+02  0.7546771E-02  0.1320139E+00
         21   -1    0    0  503  501  0.00000000000E+00  0.00000000000E+00  0.61662730058E+02  0.61662730058E+02  0.00000000000E+00 0. -1.
         21   -1    0    0  501  502 -0.00000000000E+00 -0.00000000000E+00 -0.16513207817E+03  0.16513207817E+03  0.00000000000E+00 0.  1.
         21    1    1    2  503  504  0.32308308322E+02 -0.31697510630E+02  0.49615940195E+02  0.67158770747E+02  0.00000000000E+00 0. -1.
         21    1    1    2  504  502 -0.32308308322E+02  0.31697510630E+02 -0.15308528831E+03  0.15963603748E+03  0.00000000000E+00 0.  1.
</event>
<event>
 4    1  0.3099057E+006  0.2317162E+02  0.7546771E-02  0.1490354E+00
         21   -1    0    0  504  501  0.00000000000E+00  0.00000000000E+00  0.35230185967E+01  0.35230185967E+01  0.00000000000E+00 0. -1.
         21   -1    0    0  503  502 -0.00000000000E+00 -0.00000000000E+00 -0.15242429589E+03  0.15242429589E+03  0.00000000000E+00 0. -1.
         21    1    1    2  503  501 -0.18810599532E+02  0.13530908514E+02 -0.75337634415E+02  0.78820576623E+02  0.00000000000E+00 0. -1.
         21    1    1    2  504  502  0.18810599532E+02 -0.13530908514E+02 -0.73563642882E+02  0.77126737868E+02  0.00000000000E+00 0. -1.
</event>
<event>
 4    1  0.3099057E+006  0.2602910E+02  0.7546771E-02  0.1457612E+00
         21   -1    0    0  504  501  0.00000000000E+00  0.00000000000E+00  0.12770170012E+01  0.12770170012E+01  0.00000000000E+00 0.  1.
         21   -1    0    0  503  502 -0.00000000000E+00 -0.00000000000E+00 -0.53961445142E+03  0.53961445142E+03  0.00000000000E+00 0. -1.
         21    1    1    2  503  501  0.22275308689E+01  0.25933614043E+02 -0.30423122633E+03  0.30534268176E+03  0.00000000000E+00 0. -1.
         21    1    1    2  504  502 -0.22275308689E+01 -0.25933614043E+02 -0.23410620809E+03  0.23554878666E+03  0.00000000000E+00 0.  1.
</event>
<event>
 4    1  0.3099057E+006  0.5615571E+02  0.7546771E-02  0.1273485E+00
         21   -1    0    0  503  501  0.00000000000E+00  0.00000000000E+00  0.14448449701E+02  0.14448449701E+02  0.00000000000E+00 0.  1.
         21   -1    0    0  504  502 -0.00000000000E+00 -0.00000000000E+00 -0.21835795170E+03  0.21835795170E+03  0.00000000000E+00 0. -1.
         21    1    1    2  503  502 -0.20314301082E+02  0.52352583280E+02 -0.99442055383E+02  0.11420239132E+03  0.00000000000E+00 0.  1.
         21    1    1    2  504  501  0.20314301082E+02 -0.52352583280E+02 -0.10446744661E+03  0.11860401008E+03  0.00000000000E+00 0. -1.
</event>
<event>
 4    1  0.3099057E+006  0.2431175E+02  0.7546771E-02  0.1476652E+00
         21   -1    0    0  502  501  0.00000000000E+00  0.00000000000E+00  0.78618792255E+01  0.78618792255E+01  0.00000000000E+00 0. -1.
         21   -1    0    0  504  502 -0.00000000000E+00 -0.00000000000E+00 -0.32720378940E+03  0.32720378940E+03  0.00000000000E+00 0. -1.
         21    1    1    2  503  501  0.38685801125E+01 -0.24001988104E+02 -0.12639259621E+02  0.27400953064E+02  0.00000000000E+00 0. -1.
         21    1    1    2  504  503 -0.38685801125E+01  0.24001988104E+02 -0.30670265056E+03  0.30766471557E+03  0.00000000000E+00 0. -1.
</event>
<event>
 4    1  0.3099057E+006  0.2864565E+02  0.7546771E-02  0.1431743E+00
         21   -1    0    0  504  501  0.00000000000E+00  0.00000000000E+00  0.47898531696E+02  0.47898531696E+02  0.00000000000E+00 0.  1.
         21   -1    0    0  503  502 -0.00000000000E+00 -0.00000000000E+00 -0.11211188609E+03  0.11211188609E+03  0.00000000000E+00 0. -1.
         21    1    1    2  503  501  0.18480523244E+02 -0.21887063418E+02  0.41532583373E+02  0.50453233455E+02  0.00000000000E+00 0.  1.
         21    1    1    2  504  502 -0.18480523244E+02  0.21887063418E+02 -0.10574593777E+03  0.10955718434E+03  0.00000000000E+00 0. -1.
</event>
<event>
 4    1  0.3099057E+006  0.2349919E+02  0.7546771E-02  0.1486323E+00
         21   -1    0    0  504  501  0.00000000000E+00  0.00000000000E+00  0.67271719269E+03  0.67271719269E+03  0.00000000000E+00 0.  1.
         21   -1    0    0  503  502 -0.00000000000E+00 -0.00000000000E+00 -0.45582375018E+02  0.45582375018E+02  0.00000000000E+00 0.  1.
         21    1    1    2  503  501  0.23192927507E+02  0.37815463115E+01 -0.42333817651E+02  0.48418633766E+02  0.00000000000E+00 0.  1.
         21    1    1    2  504  502 -0.23192927507E+02 -0.37815463115E+01  0.66946863532E+03  0.66988093394E+03  0.00000000000E+00 0.  1.
</event>
<event>
 4    1  0.3099057E+006  0.4519135E+02  0.7546771E-02  0.1320485E+00
         21   -1    0    0  504  501  0.00000000000E+00  0.00000000000E+00  0.21080168362E+02  0.21080168362E+02  0.00000000000E+00 0. -1.
         21   -1    0    0  501  502 -0.00000000000E+00 -0.00000000000E+00 -0.97389907874E+02  0.97389907874E+02  0.00000000000E+00 0. -1.
         21    1    1    2  503  502 -0.67937278090E+01 -0.44677769917E+02 -0.42438797717E+02  0.61994430508E+02  0.00000000000E+00 0. -1.
         21    1    1    2  504  503  0.67937278090E+01  0.44677769917E+02 -0.33870941795E+02  0.56475645728E+02  0.00000000000E+00 0. -1.
</event>
<event>
 4    1  0.3099057E+006  0.2317231E+02  0.7546771E-02  0.1490346E+00
         21   -1    0    0  502  501  0.00000000000E+00  0.00000000000E+00  0.28969738141E+02  0.28969738141E+02  0.00000000000E+00 0.  1.
         21   -1    0    0  504  502 -0.00000000000E+00 -0.00000000000E+00 -0.57242222358E+02  0.57242222358E+02  0.00000000000E+00 0. -1.
         21    1    1    2  503  501 -0.23019303617E+02 -0.26585037760E+01  0.21310385365E+02  0.31481558185E+02  0.00000000000E+00 0.  1.
         21    1    1    2  504  503  0.23019303617E+02  0.26585037760E+01 -0.49582869583E+02  0.54730402313E+02  0.00000000000E+00 0. -1.
</event>
<event>
 4    1  0.3099057E+006  0.2003218E+02  0.7546771E-02  0.1533544E+00
         21   -1    0    0  502  501  0.00000000000E+00  0.00000000000E+00  0.24267577968E+02  0.24267577968E+02  0.00000000000E+00 0.  1.
         21   -1    0    0  504  502 -0.00000000000E+00 -0.00000000000E+00 -0.18284620856E+02  0.18284620856E+02  0.00000000000E+00 0.  1.
         21    1    1    2  503  501 -0.33367267201E+01 -0.19752327873E+02  0.95710749112E+01  0.22201208899E+02  0.00000000000E+00 0.  1.
         21    1    1    2  504  503  0.33367267201E+01  0.19752327873E+02 -0.35881177995E+01  0.20350989925E+02  0.00000000000E+00 0.  1.
</event>
<event>
 4    1  0.3099057E+006  0.2394941E+02  0.7546771E-02  0.1480909E+00
         21   -1    0    0  503  501  0.00000000000E+00  0.00000000000E+00  0.81288833037E+01  0.81288833037E+01  0.00000000000E+00 0. -1.
         21   -1    0    0  504  502 -0.00000000000E+00 -0.00000000000E+00 -0.18947217017E+03  0.18947217017E+03  0.00000000000E+00 0.  1.
         21    1    1    2  503  502 -0.15320478938E+02  0.18408067688E+02 -0.16894242892E+03  0.17063152792E+03  0.00000000000E+00 0.  1.
         21    1    1    2  504  501  0.15320478938E+02 -0.18408067688E+02 -0.12400857949E+02  0.26969525557E+02  0.00000000000E+00 0. -1.
</event>
<event>
 4    1  0.3099057E+006  0.2647996E+02  0.7546771E-02  0.1452903E+00
         21   -1    0    0  504  501  0.00000000000E+00  0.00000000000E+00  0.12128825983E+04  0.12128825983E+04  0.00000000000E+00 0.  1.
         21   -1    0    0  503  502 -0.00000000000E+00 -0.00000000000E+00 -0.33979997729E+01  0.33979997729E+01  0.00000000000E+00 0. -1.
         21    1    1    2  503  501  0.24872460372E+02 -0.90856468908E+01  0.50745029920E+02  0.57238503876E+02  0.00000000000E+00 0. -1.
         21    1    1    2  504  502 -0.24872460372E+02  0.90856468908E+01  0.11587395687E+04  0.11590420942E+04  0.00000000000E+00 0.  1.
</event>
<event>
 4    1  0.3099057E+006  0.3014625E+02  0.7546771E-02  0.1418330E+00
         21   -1    0    0  504  501  0.00000000000E+00  0.00000000000E+00  0.73915075755E+03  0.73915075755E+03  0.00000000000E+00 0.  1.
         21   -1    0    0  503  502 -0.00000000000E+00 -0.00000000000E+00 -0.17344060164E+01  0.17344060164E+01  0.00000000000E+00 0.  1.
         21    1    1    2  503  501  0.58242278027E+01  0.29578283718E+02  0.56857678850E+03  0.56937541299E+03  0.00000000000E+00 0.  1.
         21    1    1    2  504  502 -0.58242278027E+01 -0.29578283718E+02  0.16883956304E+03  0.17150975058E+03  0.00000000000E+00 0.  1.
</event>
<event>
 4    1  0.3099057E+006  0.2864520E+02  0.7546771E-02  0.1431747E+00
         21   -1    0    0  502  501  0.00000000000E+00  0.00000000000E+00  0.11074220009E+02  0.11074220009E+02  0.00000000000E+00 0. -1.
         21   -1    0    0  503  502 -0.00000000000E+00 -0.00000000000E+00 -0.76779404033E+02  0.76779404033E+02  0.00000000000E+00 0. -1.
         21    1    1    2  503  504 -0.12752554033E+02 -0.25649951992E+02 -0.24639496753E+02  0.37784288690E+02  0.00000000000E+00 0. -1.
         21    1    1    2  504  501  0.12752554033E+02  0.25649951992E+02 -0.41065687271E+02  0.50069335352E+02  0.00000000000E+00 0. -1.
</event>
<event>
 4    1  0.3099057E+006  0.9654604E+02  0.7546771E-02  0.1169931E+00
         21   -1    0    0  503  501  0.00000000000E+00  0.00000000000E+00  0.74504046345E+03  0.74504046345E+03  0.00000000000E+00 0. -1.
         21   -1    0    0  504  502 -0.00000000000E+00 -0.00000000000E+00 -0.14074418814E+02  0.14074418814E+02  0.00000000000E+00 0. -1.
         21    1    1    2  503  502  0.36625917454E+02 -0.89329056824E+02  0.49198918695E+03  0.50137261423E+03  0.00000000000E+00 0. -1.
         21    1    1    2  504  501 -0.36625917454E+02  0.89329056824E+02  0.23897685768E+03  0.25774226803E+03  0.00000000000E+00 0. -1.
</event>
<event>
 4    1  0.3099057E+006  0.2260364E+02  0.7546771E-02  0.1497536E+00
         21   -1    0    0  502  501  0.00000000000E+00  0.00000000000E+00  0.12441859669E+03  0.12441859669E+03  0.00000000000E+00 0. -1.
         21   -1    0    0  504  502 -0.00000000000E+00 -0.00000000000E+00 -0.82742800284E+01  0.82742800284E+01  0.00000000000E+00 0.  1.
         21    1    1    2  503  501  0.69668820394E+01 -0.21503192563E+02  0.10515958947E+03  0.10756144287E+03  0.00000000000E+00 0. -1.
         21    1    1    2  504  503 -0.69668820394E+01  0.21503192563E+02  0.10984727197E+02  0.25131433850E+02  0.00000000000E+00 0.  1.
</event>
<event>
 4    1  0.3099057E+006  0.3742894E+02  0.7546771E-02  0.1364248E+00
         21   -1    0    0  504  501  0.00000000000E+00  0.00000000000E+00  0.54514119695E+03  0.54514119695E+03  0.00000000000E+00 0.  1.
         21   -1    0    0  503  502 -0.00000000000E+00 -0.00000000000E+00 -0.26160755539E+01  0.26160755539E+01  0.00000000000E+00 0.  1.
         21    1    1    2  503  501  0.21486454530E+02 -0.30647313609E+02  0.30767265942E+03  0.30994094746E+03  0.00000000000E+00 0.  1.
         21    1    1    2  504  502 -0.21486454530E+02  0.30647313609E+02  0.23485246198E+03  0.23781632504E+03  0.00000000000E+00 0.  1.
</event>
<event>
 4    1  0.3099057E+006  0.3261826E+02  0.7546771E-02  0.1398128E+00
         21   -1    0    0  503  501  0.00000000000E+00  0.00000000000E+00  0.92765152126E+02  0.92765152126E+02  0.00000000000E+00 0.  1.
         21   -1    0    0  504  502 -0.00000000000E+00 -0.00000000000E+00 -0.75095951452E+02  0.75095951452E+02  0.00000000000E+00 0.  1.
         21    1    1    2  503  502  0.26641215665E+02 -0.18820105567E+02  0.86090449903E+02  0.92062567367E+02  0.00000000000E+00 0.  1.
         21    1    1    2  504  501 -0.26641215665E+02  0.18820105567E+02 -0.68421249229E+02  0.75798536211E+02  0.00000000000E+00 0.  1.
</event>
<event>
 4    1  0.3099057E+006  0.2125571E+02  0.7546771E-02  0.1515645E+00
         21   -1    0    0  504  501  0.00000000000E+00  0.00000000000E+00  0.83245882076E+02  0.83245882076E+02  0.00000000000E+00 0.  1.
         21   -1    0    0  501  502 -0.00000000000E+00 -0.00000000000E+00 -0.56752460048E+01  0.56752460048E+01  0.00000000000E+00 0. -1.
         21    1    1    2  503  502  0.41243059570E+01  0.20851748420E+02  0.29493317116E+02  0.36354656735E+02  0.00000000000E+00 0. -1.
         21    1    1    2  504  503 -0.41243059570E+01 -0.20851748420E+02  0.48077318956E+02  0.52566471346E+02  0.00000000000E+00 0.  1.
</event>
<event>
 4    1  0.3099057E+006  0.3136067E+02  0.7546771E-02  0.1408130E+00
         21   -1    0    0  504  501  0.00000000000E+00  0.00000000000E+00  0.42627005177E+02  0.42627005177E+02  0.00000000000E+00 0.  1.
         21   -1    0    0  503  502 -0.00000000000E+00 -0.00000000000E+00 -0.23607962155E+02  0.23607962155E+02  0.00000000000E+00 0.  1.
         21    1    1    2  503  501  0.28313074848E+02  0.13485607775E+02  0.14499288969E+02  0.34550270694E+02  0.00000000000E+00 0.  1.
         21    1    1    2  504  502 -0.28313074848E+02 -0.13485607775E+02  0.45197540525E+01  0.31684696639E+02  0.00000000000E+00 0.  1.
</event>
<event>
 4    1  0.3099057E+006  0.2450293E+02  0.7546771E-02  0.1474442E+00
         21   -1    0    0  502  501  0.00000000000E+00  0.00000000000E+00  0.22470771404E+03  0.22470771404E+03  0.00000000000E+00 0. -1.
         21   -1    0    0  503  502 -0.00000000000E+00 -0.00000000000E+00 -0.18801291778E+02  0.18801291778E+02  0.00000000000E+00 0.  1.
         21    1    1    2  503  504 -0.41967530267E+00 -0.24499338874E+02 -0.98185469429E+01  0.26396924000E+02  0.00000000000E+00 0.  1.
         21    1    1    2  504  501  0.41967530267E+00  0.24499338874E+02  0.21572496920E+03  0.21711208181E+03  0.00000000000E+00 0. -1.
</event>
<event>
 4    1  0.3099057E+006  0.3084031E+02  0.7546771E-02  0.1412432E+00
         21   -1    0    0  503  501  0.00000000000E+00  0.00000000000E+00  0.16200967605E+02  0.16200967605E+02  0.00000000000E+00 0.  1.
         21   -1    0    0  504  502 -0.00000000000E+00 -0.00000000000E+00 -0.13862795723E+03  0.13862795723E+03  0.00000000000E+00 0.  1.
         21    1    1    2  503  502 -0.29335465402E+02  0.95160365683E+01 -0.11999282523E+03  0.12389270596E+03  0.00000000000E+00 0.  1.
         21    1    1    2  504  501  0.29335465402E+02 -0.95160365683E+01 -0.24341643955E+01  0.30936218881E+02  0.00000000000E+00 0.  1.
</event>
<event>
 4    1  0.3099057E+006  0.2758320E+02  0.7546771E-02  0.1441836E+00
         21   -1    0    0  504  501  0.00000000000E+00  0.00000000000E+00  0.31030258151E+02  0.31030258151E+02  0.00000000000E+00 0.  1.
         21   -1    0    0  503  502 -0.00000000000E+00 -0.00000000000E+00 -0.43946376734E+03  0.43946376734E+03  0.00000000000E+00 0.  1.
         21    1    1    2  503  501 -0.17095101894E+02 -0.21646948722E+02 -0.43280699930E+03  0.43368506031E+03  0.00000000000E+00 0.  1.
         21    1    1    2  504  502  0.17095101894E+02  0.21646948722E+02  0.24373490105E+02  0.36808965181E+02  0.00000000000E+00 0.  1.
</event>
<event>
 4    1  0.3099057E+006  0.2832935E+02  0.7546771E-02  0.1434693E+00
         21   -1    0    0  504  501  0.00000000000E+00  0.00000000000E+00  0.26530106170E+02  0.26530106170E+02  0.00000000000E+00 0.  1.
         21   -1    0    0  503  502 -0.00000000000E+00 -0.00000000000E+00 -0.30624022502E+02  0.30624022502E+02  0.00000000000E+00 0.  1.
         21    1    1    2  503  501  0.20479066985E+02 -0.19574469192E+02 -0.52025294200E+01  0.28803096033E+02  0.00000000000E+00 0.  1.
         21    1    1    2  504  502 -0.20479066985E+02  0.19574469192E+02  0.11086130884E+01  0.28351032639E+02  0.00000000000E+00 0.  1.
</event>
<event>
 4    1  0.3099057E+006  0.2149418E+02  0.7546771E-02  0.1512325E+00
         21   -1    0    0  502  501  0.00000000000E+00  0.00000000000E+00  0.44025343703E+02  0.44025343703E+02  0.00000000000E+00 0.  1.
         21   -1    0    0  504  502 -0.00000000000E+00 -0.00000000000E+00 -0.48823958741E+02  0.48823958741E+02  0.00000000000E+00 0.  1.
         21    1    1    2  503  501 -0.43644977597E+01 -0.21046397129E+02  0.38734756959E+02  0.44298770519E+02  0.00000000000E+00 0.  1.
         21    1    1    2  504  503  0.43644977597E+01  0.21046397129E+02 -0.43533371997E+02  0.48550531925E+02  0.00000000000E+00 0.  1.
</event>
<event>
 4    1  0.3099057E+006  0.4482990E+02  0.7546771E-02  0.1322292E+00
         21   -1    0    0  504  501  0.00000000000E+00  0.00000000000E+00  0.48408279946E+02  0.48408279946E+02  0.00000000000E+00 0.  1.
         21   -1    0    0  501  502 -0.00000000000E+00 -0.00000000000E+00 -0.23823019037E+03  0.23823019037E+03  0.00000000000E+00 0.  1.
         21    1    1    2  503  502 -0.18548894889E+01 -0.44791509848E+02 -0.22514480728E+03  0.22956459704E+03  0.00000000000E+00 0.  1.
         21    1    1    2  504  503  0.18548894889E+01  0.44791509848E+02  0.35322896849E+02  0.57073873281E+02  0.00000000000E+00 0.  1.
</event>
<event>
 4    1  0.3099057E+006  0.2615536E+02  0.7546771E-02  0.1456282E+00
         21   -1    0    0  503  501  0.00000000000E+00  0.00000000000E+00  0.11356727708E+03  0.11356727708E+03  0.00000000000E+00 0. -1.
         21   -1    0    0  504  502 -0.00000000000E+00 -0.00000000000E+00 -0.60261906296E+01  0.60261906296E+01  0.00000000000E+00 0. -1.
         21    1    1    2  503  502  0.25701265597E+02 -0.48525857607E+01  0.52570970810E+02  0.58718051855E+02  0.00000000000E+00 0. -1.
         21    1    1    2  504  501 -0.25701265597E+02  0.48525857607E+01  0.54970115640E+02  0.60875415853E+02  0.00000000000E+00 0. -1.
</event>
<event>
 4    1  0.3099057E+006  0.2262516E+02  0.7546771E-02  0.1497259E+00
         21   -1    0    0  502  501  0.00000000000E+00  0.00000000000E+00  0.10618273002E+04  0.10618273002E+04  0.00000000000E+00 0. -1.
         21   -1    0    0  503  502 -0.00000000000E+00 -0.00000000000E+00 -0.10433499069E+02  0.10433499069E+02  0.00000000000E+00 0.  1.
         21    1    1    2  503  504  0.14896008821E+02 -0.17029584922E+02  0.20992360330E+01  0.22722337761E+02  0.00000000000E+00 0.  1.
         21    1    1    2  504  501 -0.14896008821E+02  0.17029584922E+02  0.10492945651E+04  0.10495384615E+04  0.00000000000E+00 0. -1.
</event>
<event>
 4    1  0.3099057E+006  0.2053206E+02  0.7546771E-02  0.1526052E+00
         21   -1    0    0  504  501  0.00000000000E+00  0.00000000000E+00  0.76320720598E+01  0.76320720598E+01  0.00000000000E+00 0. -1.
         21   -1    0    0  501  502 -0.00000000000E+00 -0.00000000000E+00 -0.77470851227E+03  0.77470851227E+03  0.00000000000E+00 0.  1.
         21    1    1    2  503  502 -0.15676884737E+02  0.13258995494E+02 -0.76050560955E+03  0.76078272052E+03  0.00000000000E+00 0.  1.
         21    1    1    2  504  503  0.15676884737E+02 -0.13258995494E+02 -0.65708306551E+01  0.21557863810E+02  0.00000000000E+00 0. -1.
</event>
<event>
 4    1  0.3099057E+006  0.2238145E+02  0.7546771E-02  0.1500415E+00
         21   -1    0    0  502  501  0.00000000000E+00  0.00000000000E+00  0.14915199309E+02  0.14915199309E+02  0.00000000000E+00 0. -1.
         21   -1    0    0  503  502 -0.00000000000E+00 -0.00000000000E+00 -0.89697847183E+02  0.89697847183E+02  0.00000000000E+00 0. -1.
         21    1    1    2  503  504  0.22298919945E+02 -0.19202422795E+01 -0.78762267677E+02  0.81880546962E+02  0.00000000000E+00 0. -1.
         21    1    1    2  504  501 -0.22298919945E+02  0.19202422795E+01  0.39796198023E+01  0.22732499530E+02  0.00000000000E+00 0. -1.
</event>
<event>
 4    1  0.3099057E+006  0.2800063E+02  0.7546771E-02  0.1437807E+00
         21   -1    0    0  504  501  0.00000000000E+00  0.00000000000E+00  0.33491461193E+03  0.33491461193E+03  0.00000000000E+00 0.  1.
         21   -1    0    0  503  502 -0.00000000000E+00 -0.00000000000E+00 -0.24180004772E+01  0.24180004772E+01  0.00000000000E+00 0. -1.
         21    1    1    2  503  501 -0.10802766153E+02  0.25832836385E+02  0.19634689422E+03  0.19833340128E+03  0.00000000000E+00 0.  1.
         21    1    1    2  504  502  0.10802766153E+02 -0.25832836385E+02  0.13614971723E+03  0.13899921113E+03  0.00000000000E+00 0. -1.
</event>
<event>
 4    1  0.3099057E+006  0.2040533E+02  0.7546771E-02  0.1527927E+00
         21   -1    0    0  503  501  0.00000000000E+00  0.00000000000E+00  0.23417602007E+02  0.23417602007E+02  0.00000000000E+00 0.  1.
         21   -1    0    0  504  502 -0.00000000000E+00 -0.00000000000E+00 -0.17782092363E+02  0.17782092363E+02  0.00000000000E+00 0.  1.
         21    1    1    2  503  502  0.12230881851E+02  0.16333497268E+02  0.26252679781E+01  0.20573517828E+02  0.00000000000E+00 0.  1.
         21    1    1    2  504  501 -0.12230881851E+02 -0.16333497268E+02  0.30102416660E+01  0.20626176542E+02  0.00000000000E+00 0.  1.
</event>
<event>
 4    1  0.3099057E+006  0.2302330E+02  0.7546771E-02  0.1492206E+00
         21   -1    0    0  503  501  0.00000000000E+00  0.00000000000E+00  0.51650828685E+03  0.51650828685E+03  0.00000000000E+00 0.  1.
         21   -1    0    0  501  502 -0.00000000000E+00 -0.00000000000E+00 -0.13093666573E+01  0.13093666573E+01  0.00000000000E+00 0.  1.
         21    1    1    2  503  504 -0.22854890094E+02 -0.27796657948E+01  0.37798938601E+03  0.37868991071E+03  0.00000000000E+00 0.  1.
         21    1    1    2  504  502  0.22854890094E+02  0.27796657948E+01  0.13720953419E+03  0.13912774280E+03  0.00000000000E+00 0.  1.
</event>
<event>
 4    1  0.3099057E+006  0.2228565E+02  0.7546771E-02  0.1501668E+00
         21   -1    0    0  503  501  0.00000000000E+00  0.00000000000E+00  0.58257619715E+02  0.58257619715E+02  0.00000000000E+00 0.  1.
         21   -1    0    0  504  502 -0.00000000000E+00 -0.00000000000E+00 -0.11133382167E+02  0.11133382167E+02  0.00000000000E+00 0. -1.
         21    1    1    2  503  502  0.11582284009E+02 -0.19039455138E+02  0.67686823286E+01  0.23290882664E+02  0.00000000000E+00 0. -1.
         21    1    1    2  504  501 -0.11582284009E+02  0.19039455138E+02  0.40355555219E+02  0.46100119218E+02  0.00000000000E+00 0.  1.
</event>
<event>
 4    1  0.3099057E+006  0.2586307E+02  0.7546771E-02  0.1459376E+00
         21   -1    0    0  503  501  0.00000000000E+00  0.00000000000E+00  0.14789801670E+03  0.14789801670E+03  0.00000000000E+00 0.  1.
         21   -1    0    0  501  502 -0.00000000000E+00 -0.00000000000E+00 -0.24304221275E+02  0.24304221275E+02  0.00000000000E+00 0. -1.
         21    1    1    2  503  504  0.16556473247E+02  0.19869113746E+02  0.13947485113E+03  0.14185250293E+03  0.00000000000E+00 0.  1.
         21    1    1    2  504  502 -0.16556473247E+02 -0.19869113746E+02 -0.15881055706E+02  0.30349735053E+02  0.00000000000E+00 0. -1.
</event>
<event>
 4    1  0.3099057E+006  0.2153833E+02  0.7546771E-02  0.1511716E+00
         21   -1    0    0  502  501  0.00000000000E+00  0.00000000000E+00  0.92797151003E+01  0.92797151003E+01  0.00000000000E+00 0. -1.
         21   -1    0    0  504  502 -0.00000000000E+00 -0.00000000000E+00 -0.15071410941E+03  0.15071410941E+03  0.00000000000E+00 0. -1.
         21    1    1    2  503  501 -0.79824349091E+01 -0.20004511714E+02 -0.53196579029E+01  0.22185547462E+02  0.00000000000E+00 0. -1.
         21    1    1    2  504  503  0.79824349091E+01  0.20004511714E+02 -0.13611473641E+03  0.13780827705E+03  0.00000000000E+00 0. -1.
</event>
<event>
 4    1  0.3099057E+006  0.2074911E+02  0.7546771E-02  0.1522877E+00
         21   -1    0    0  502  501  0.00000000000E+00  0.00000000000E+00  0.21714162928E+02  0.21714162928E+02  0.00000000000E+00 0.  1.
         21   -1    0    0  503  502 -0.00000000000E+00 -0.00000000000E+00 -0.10398682844E+03  0.10398682844E+03  0.00000000000E+00 0.  1.
         21    1    1    2  503  504  0.24383270967E+01 -0.20605337429E+02 -0.97678457018E+02  0.99857930757E+02  0.00000000000E+00 0.  1.
         21    1    1    2  504  501 -0.24383270967E+01  0.20605337429E+02  0.15405791509E+02  0.25843060609E+02  0.00000000000E+00 0.  1.
</event>
<event>
 4    1  0.3099057E+006  0.3084289E+02  0.7546771E-02  0.1412410E+00
         21   -1    0    0  502  501  0.00000000000E+00  0.00000000000E+00  0.22053036413E+03  0.22053036413E+03  0.00000000000E+00 0.  1.
         21   -1    0    0  503  502 -0.00000000000E+00 -0.00000000000E+00 -0.25022871678E+03  0.25022871678E+03  0.00000000000E+00 0. -1.
         21    1    1    2  503  504  0.24134538678E+02 -0.19204365528E+02 -0.24819107860E+03  0.25010017015E+03  0.00000000000E+00 0. -1.
         21    1    1    2  504  501 -0.24134538678E+02  0.19204365528E+02  0.21849272594E+03  0.22065891077E+03  0.00000000000E+00 0.  1.
</event>
<event>
 4    1  0.3099057E+006  0.2479967E+02  0.7546771E-02  0.1471057E+00
         21   -1    0    0  503  501  0.00000000000E+00  0.00000000000E+00  0.14366875278E+02  0.14366875278E+02  0.00000000000E+00 0. -1.
         21   -1    0    0  504  502 -0.00000000000E+00 -0.00000000000E+00 -0.82254570143E+02  0.82254570143E+02  0.00000000000E+00 0. -1.
         21    1    1    2  503  502  0.24483513104E+02 -0.39472818284E+01 -0.67399210283E+02  0.71816968709E+02  0.00000000000E+00 0. -1.
         21    1    1    2  504  501 -0.24483513104E+02  0.39472818284E+01 -0.48848458263E+00  0.24804476712E+02  0.00000000000E+00 0. -1.
</event>
<event>
 4    1  0.3099057E+006  0.2127904E+02  0.7546771E-02  0.1515318E+00
         21   -1    0    0  503  501  0.00000000000E+00  0.00000000000E+00  0.24076110843E+03  0.24076110843E+03  0.00000000000E+00 0.  1.
         21   -1    0    0  501  502 -0.00000000000E+00 -0.00000000000E+00 -0.40079471385E+02  0.40079471385E+02  0.00000000000E+00 0. -1.
         21    1    1    2  503  504 -0.19683862480E+02  0.80835174189E+01  0.23742697835E+03  0.23837862267E+03  0.00000000000E+00 0.  1.
         21    1    1    2  504  502  0.19683862480E+02 -0.80835174189E+01 -0.36745341313E+02  0.42461957140E+02  0.00000000000E+00 0. -1.
</event>
<event>
 4    1  0.3099057E+006  0.2659025E+02  0.7546771E-02  0.1451768E+00
         21   -1    0    0  503  501  0.00000000000E+00  0.00000000000E+00  0.16879610772E+02  0.16879610772E+02  0.00000000000E+00 0.  1.
         21   -1    0    0  504  502 -0.00000000000E+00 -0.00000000000E+00 -0.42543174674E+02  0.42543174674E+02  0.00000000000E+00 0.  1.
         21    1    1    2  503  502  0.43913909156E+01  0.26225120422E+02 -0.91426875613E+01  0.28118143452E+02  0.00000000000E+00 0.  1.
         21    1    1    2  504  501 -0.43913909156E+01 -0.26225120422E+02 -0.16520876340E+02  0.31304641994E+02  0.00000000000E+00 0.  1.
</event>
<event>
 4    1  0.3099057E+006  0.2027821E+02  0.7546771E-02  0.1529824E+00
         21   -1    0    0  503  501  0.00000000000E+00  0.00000000000E+00  0.16935078602E+02  0.16935078602E+02  0.00000000000E+00 0.  1.
         21   -1    0    0  504  502 -0.00000000000E+00 -0.00000000000E+00 -0.35621940738E+02  0.35621940738E+02  0.00000000000E+00 0.  1.
         21    1    1    2  503  502 -0.16067090626E+02 -0.12371514873E+02 -0.24170683264E+02  0.31550399536E+02  0.00000000000E+00 0.  1.
         21    1    1    2  504  501  0.16067090626E+02  0.12371514873E+02  0.54838211277E+01  0.21006619804E+02  0.00000000000E+00 0.  1.
</event>
<event>
 4    1  0.3099057E+006  0.2126661E+02  0.7546771E-02  0.1515492E+00
         21   -1    0    0  503  501  0.00000000000E+00  0.00000000000E+00  0.25734477696E+03  0.25734477696E+03  0.00000000000E+00 0. -1.
         21   -1    0    0  501  502 -0.00000000000E+00 -0.00000000000E+00 -0.17210201643E+03  0.17210201643E+03  0.00000000000E+00 0.  1.
         21    1    1    2  503  504  0.21215355843E+02  0.14755683492E+01  0.25624562560E+03  0.25712660163E+03  0.00000000000E+00 0. -1.
         21    1    1    2  504  502 -0.21215355843E+02 -0.14755683492E+01 -0.17100286507E+03  0.17232019176E+03  0.00000000000E+00 0.  1.
</event>
<event>
 4    1  0.3099057E+006  0.2897613E+02  0.7546771E-02  0.1428707E+00
         21   -1    0    0  504  501  0.00000000000E+00  0.00000000000E+00  0.46523643320E+03  0.46523643320E+03  0.00000000000E+00 0.  1.
         21   -1    0    0  501  502 -0.00000000000E+00 -0.00000000000E+00 -0.11323414825E+03  0.11323414825E+03  0.00000000000E+00 0. -1.
         21    1    1    2  503  502  0.11040911230E+02 -0.26790188179E+02 -0.11091999737E+03  0.11464232080E+03  0.00000000000E+00 0. -1.
         21    1    1    2  504  503 -0.11040911230E+02  0.26790188179E+02  0.46292228232E+03  0.46382826064E+03  0.00000000000E+00 0.  1.
</event>
<event>
 4    1  0.3099057E+006  0.3497924E+02  0.7546771E-02  0.1380709E+00
         21   -1    0    0  504  501  0.00000000000E+00  0.00000000000E+00  0.21696007933E+01  0.21696007933E+01  0.00000000000E+00 0.  1.
         21   -1    0    0  503  502 -0.00000000000E+00 -0.00000000000E+00 -0.60707198996E+03  0.60707198996E+03  0.00000000000E+00 0.  1.
         21    1    1    2  503  501 -0.26646551851E+02  0.22660720148E+02 -0.22126401312E+03  0.22401185340E+03  0.00000000000E+00 0.  1.
         21    1    1    2  504  502  0.26646551851E+02 -0.22660720148E+02 -0.38363837605E+03  0.38522973735E+03  0.00000000000E+00 0.  1.
</event>
<event>
 4    1  0.3099057E+006  0.2111740E+02  0.7546771E-02  0.1517595E+00
         21   -1    0    0  502  501  0.00000000000E+00  0.00000000000E+00  0.11359933264E+03  0.11359933264E+03  0.00000000000E+00 0.  1.
         21   -1    0    0  504  502 -0.00000000000E+00 -0.00000000000E+00 -0.26732455632E+03  0.26732455632E+03  0.00000000000E+00 0.  1.
         21    1    1    2  503  501  0.13225392600E+02  0.16463093024E+02  0.11219571904E+03  0.11416577339E+03  0.00000000000E+00 0.  1.
         21    1    1    2  504  503 -0.13225392600E+02 -0.16463093024E+02 -0.26592094273E+03  0.26675811557E+03  0.00000000000E+00 0.  1.
</event>
<event>
 4    1  0.3099057E+006  0.2049831E+02  0.7546771E-02  0.1526550E+00
         21   -1    0    0  503  501  0.00000000000E+00  0.00000000000E+00  0.92494232068E+02  0.92494232068E+02  0.00000000000E+00 0. -1.
         21   -1    0    0  504  502 -0.00000000000E+00 -0.00000000000E+00 -0.12094831246E+02  0.12094831246E+02  0.00000000000E+00 0. -1.
         21    1    1    2  503  502  0.16388792889E+02 -0.12312114030E+02  0.81522422005E+02  0.84060014120E+02  0.00000000000E+00 0. -1.
         21    1    1    2  504  501 -0.16388792889E+02  0.12312114030E+02 -0.11230211824E+01  0.20529049194E+02  0.00000000000E+00 0. -1.
</event>
<event>
 4    1  0.3099057E+006  0.4517145E+02  0.7546771E-02  0.1320584E+00
         21   -1    0    0  503  501  0.00000000000E+00  0.00000000000E+00  0.12352221145E+03  0.12352221145E+03  0.00000000000E+00 0. -1.
         21   -1    0    0  504  502 -0.00000000000E+00 -0.00000000000E+00 -0.77262640253E+02  0.77262640253E+02  0.00000000000E+00 0.  1.
         21    1    1    2  503  502 -0.40337384284E+02  0.20331152437E+02  0.11214549814E+03  0.12090108802E+03  0.00000000000E+00 0. -1.
         21    1    1    2  504  501  0.40337384284E+02 -0.20331152437E+02 -0.65885926948E+02  0.79883763683E+02  0.00000000000E+00 0.  1.
</event>
<event>
 4    1  0.3099057E+006  0.2454817E+02  0.7546771E-02  0.1473922E+00
         21   -1    0    0  504  501  0.00000000000E+00  0.00000000000E+00  0.31758767568E+01  0.31758767568E+01  0.00000000000E+00 0.  1.
         21   -1    0    0  503  502 -0.00000000000E+00 -0.00000000000E+00 -0.34038586112E+03  0.34038586112E+03  0.00000000000E+00 0.  1.
         21    1    1    2  503  501 -0.90395478151E+01 -0.22823217693E+02 -0.54328281590E+02  0.59616900885E+02  0.00000000000E+00 0.  1.
         21    1    1    2  504  502  0.90395478151E+01  0.22823217693E+02 -0.28288170277E+03  0.28394483699E+03  0.00000000000E+00 0.  1.
</event>
<event>
 4    1  0.3099057E+006  0.2114682E+02  0.7546771E-02  0.1517179E+00
         21   -1    0    0  503  501  0.00000000000E+00  0.00000000000E+00  0.51871569119E+02  0.51871569119E+02  0.00000000000E+00 0.  1.
         21   -1    0    0  504  502 -0.00000000000E+00 -0.00000000000E+00 -0.23737661788E+02  0.23737661788E+02  0.00000000000E+00 0.  1.
         21    1    1    2  503  502 -0.18112708028E+01  0.21069108803E+02  0.44235397176E+02  0.49030178574E+02  0.00000000000E+00 0.  1.
         21    1    1    2  504  501  0.18112708028E+01 -0.21069108803E+02 -0.16101489845E+02  0.26579052333E+02  0.00000000000E+00 0.  1.
</event>
<event>
 4    1  0.3099057E+006  0.2099466E+02  0.7546771E-02  0.1519341E+00
         21   -1    0    0  503  501  0.00000000000E+00  0.00000000000E+00  0.24709017457E+03  0.24709017457E+03  0.00000000000E+00 0. -1.
         21   -1    0    0  501  502 -0.00000000000E+00 -0.00000000000E+00 -0.30652189397E+01  0.30652189397E+01  0.00000000000E+00 0.  1.
         21    1    1    2  503  504  0.19801408745E+02  0.69771052875E+01  0.20288174221E+03  0.20396513699E+03  0.00000000000E+00 0. -1.
         21    1    1    2  504  502 -0.19801408745E+02 -0.69771052875E+01  0.41143213419E+02  0.46190256515E+02  0.00000000000E+00 0.  1.
</event>
<event>
 4    1  0.3099057E+006  0.2066905E+02  0.7546771E-02  0.1524043E+00
         21   -1    0    0  503  501  0.00000000000E+00  0.00000000000E+00  0.39583704806E+03  0.39583704806E+03  0.00000000000E+00 0.  1.
         21   -1    0    0  504  502 -0.00000000000E+00 -0.00000000000E+00 -0.19400659077E+01  0.19400659077E+01  0.00000000000E+00 0.  1.
         21    1    1    2  503  502  0.11383361082E+02  0.17251923628E+02  0.64467059712E+02  0.67699420723E+02  0.00000000000E+00 0.  1.
         21    1    1    2  504  501 -0.11383361082E+02 -0.17251923628E+02  0.32942992244E+03  0.33007769324E+03  0.00000000000E+00 0.  1.
</event>
<event>
 4    1  0.3099057E+006  0.2441403E+02  0.7546771E-02  0.1475467E+00
         21   -1    0    0  503  501  0.00000000000E+00  0.00000000000E+00  0.49814214499E+01  0.49814214499E+01  0.00000000000E+00 0.  1.
         21   -1    0    0  504  502 -0.00000000000E+00 -0.00000000000E+00 -0.15716308674E+03  0.15716308674E+03  0.00000000000E+00 0.  1.
         21    1    1    2  503  502  0.24409294018E+02  0.48068015533E+00 -0.36484201138E+02  0.43899221184E+02  0.00000000000E+00 0.  1.
         21    1    1    2  504  501 -0.24409294018E+02 -0.48068015533E+00 -0.11569746415E+03  0.11824528700E+03  0.00000000000E+00 0.  1.
</event>
<event>
 4    1  0.3099057E+006  0.3059618E+02  0.7546771E-02  0.1414485E+00
         21   -1    0    0  502  501  0.00000000000E+00  0.00000000000E+00  0.29900647645E+02  0.29900647645E+02  0.00000000000E+00 0.  1.
         21   -1    0    0  503  502 -0.00000000000E+00 -0.00000000000E+00 -0.31463967127E+02  0.31463967127E+02  0.00000000000E+00 0.  1.
         21    1    1    2  503  504 -0.55235500762E+00  0.30591197907E+02 -0.29425715283E+01  0.30737358583E+02  0.00000000000E+00 0.  1.
         21    1    1    2  504  501  0.55235500762E+00 -0.30591197907E+02  0.13792520467E+01  0.30627256189E+02  0.00000000000E+00 0.  1.
</event>
<event>
 4    1  0.3099057E+006  0.2150383E+02  0.7546771E-02  0.1512192E+00
         21   -1    0    0  503  501  0.00000000000E+00  0.00000000000E+00  0.33875108273E+03  0.33875108273E+03  0.00000000000E+00 0.  1.
         21   -1    0    0  504  502 -0.00000000000E+00 -0.00000000000E+00 -0.20738822034E+01  0.20738822034E+01  0.00000000000E+00 0.  1.
         21    1    1    2  503  502  0.15864125356E+02  0.14517030105E+02  0.68711188898E+02  0.71997514653E+02  0.00000000000E+00 0.  1.
         21    1    1    2  504  501 -0.15864125356E+02 -0.14517030105E+02  0.26796601163E+03  0.26882745028E+03  0.00000000000E+00 0.  1.
</event>
<event>
 4    1  0.3099057E+006  0.2702499E+02  0.7546771E-02  0.1447357E+00
         21   -1    0    0  502  501  0.00000000000E+00  0.00000000000E+00  0.79053926407E+02  0.79053926407E+02  0.00000000000E+00 0. -1.
         21   -1    0    0  503  502 -0.00000000000E+00 -0.00000000000E+00 -0.92241124162E+02  0.92241124162E+02  0.00000000000E+00 0. -1.
         21    1    1    2  503  504  0.83841881662E+00  0.27011979608E+02 -0.87838870751E+02  0.91902215442E+02  0.00000000000E+00 0. -1.
         21    1    1    2  504  501 -0.83841881662E+00 -0.27011979608E+02  0.74651672995E+02  0.79392835126E+02  0.00000000000E+00 0. -1.
</event>
<event>
 4    1  0.3099057E+006  0.2069527E+02  0.7546771E-02  0.1523660E+00
         21   -1    0    0  504  501  0.00000000000E+00  0.00000000000E+00  0.27462901996E+02  0.27462901996E+02  0.00000000000E+00 0. -1.
         21   -1    0    0  503  502 -0.00000000000E+00 -0.00000000000E+00 -0.17051431976E+02  0.17051431976E+02  0.00000000000E+00 0. -1.
         21    1    1    2  503  501 -0.11889174140E+02  0.16939352081E+02 -0.12982484089E+01  0.20735948485E+02  0.00000000000E+00 0. -1.
         21    1    1    2  504  502  0.11889174140E+02 -0.16939352081E+02  0.11709718429E+02  0.23778385486E+02  0.00000000000E+00 0. -1.
</event>
<event>
 4    1  0.3099057E+006  0.2799693E+02  0.7546771E-02  0.1437843E+00
         21   -1    0    0  504  501  0.00000000000E+00  0.00000000000E+00  0.25084416588E+02  0.25084416588E+02  0.00000000000E+00 0. -1.
         21   -1    0    0  503  502 -0.00000000000E+00 -0.00000000000E+00 -0.18035823379E+03  0.18035823379E+03  0.00000000000E+00 0. -1.
         21    1    1    2  503  501 -0.27995108423E+02 -0.31963653676E+00  0.15763098398E+02  0.32129480765E+02  0.00000000000E+00 0. -1.
         21    1    1    2  504  502  0.27995108423E+02  0.31963653676E+00 -0.17103691560E+03  0.17331316961E+03  0.00000000000E+00 0. -1.
</event>
<event>
 4    1  0.3099057E+006  0.2091095E+02  0.7546771E-02  0.1520540E+00
         21   -1    0    0  504  501  0.00000000000E+00  0.00000000000E+00  0.15131938648E+02  0.15131938648E+02  0.00000000000E+00 0.  1.
         21   -1    0    0  503  502 -0.00000000000E+00 -0.00000000000E+00 -0.13966390865E+03  0.13966390865E+03  0.00000000000E+00 0.  1.
         21    1    1    2  503  501  0.22169861703E+01  0.20793096915E+02  0.66614624647E+01  0.21946366195E+02  0.00000000000E+00 0.  1.
         21    1    1    2  504  502 -0.22169861703E+01 -0.20793096915E+02 -0.13119343247E+03  0.13284948110E+03  0.00000000000E+00 0.  1.
</event>
<event>
 4    1  0.3099057E+006  0.2319618E+02  0.7546771E-02  0.1490049E+00
         21   -1    0    0  503  501  0.00000000000E+00  0.00000000000E+00  0.38775540681E+01  0.38775540681E+01  0.00000000000E+00 0. -1.
         21   -1    0    0  504  502 -0.00000000000E+00 -0.00000000000E+00 -0.13923773421E+03  0.13923773421E+03  0.00000000000E+00 0.  1.
         21    1    1    2  503  502  0.19547822106E+02  0.12487806775E+02 -0.63503611783E+02  0.67607480183E+02  0.00000000000E+00 0. -1.
         21    1    1    2  504  501 -0.19547822106E+02 -0.12487806775E+02 -0.71856568362E+02  0.75507808099E+02  0.00000000000E+00 0.  1.
</event>
<event>
 4    1  0.3099057E+006  0.3528105E+02  0.7546771E-02  0.1378598E+00
         21   -1    0    0  502  501  0.00000000000E+00  0.00000000000E+00  0.35823631113E+02  0.35823631113E+02  0.00000000000E+00 0.  1.
         21   -1    0    0  504  502 -0.00000000000E+00 -0.00000000000E+00 -0.83484973471E+02  0.83484973471E+02  0.00000000000E+00 0.  1.
         21    1    1    2  503  501 -0.16473309475E+01  0.35242571135E+02  0.21749162835E+02  0.41446092741E+02  0.00000000000E+00 0.  1.
         21    1    1    2  504  503  0.16473309475E+01 -0.35242571135E+02 -0.69410505193E+02  0.77862511844E+02  0.00000000000E+00 0.  1.
</event>
<event>
 4    1  0.3099057E+006  0.2234989E+02  0.7546771E-02  0.1500827E+00
         21   -1    0    0  504  501  0.00000000000E+00  0.00000000000E+00  0.47619040265E+01  0.47619040265E+01  0.00000000000E+00 0.  1.
         21   -1    0    0  503  502 -0.00000000000E+00 -0.00000000000E+00 -0.10697882738E+03  0.10697882738E+03  0.00000000000E+00 0.  1.
         21    1    1    2  503  501 -0.19022917452E+01 -0.22268786266E+02 -0.43317747667E+02  0.48743664395E+02  0.00000000000E+00 0.  1.
         21    1    1    2  504  502  0.19022917452E+01  0.22268786266E+02 -0.58899175691E+02  0.62997067017E+02  0.00000000000E+00 0.  1.
</event>
<event>
 4    1  0.3099057E+006  0.2480523E+02  0.7546771E-02  0.1470994E+00
         21   -1    0    0  504  501  0.00000000000E+00  0.00000000000E+00  0.41960833113E+03  0.41960833113E+03  0.00000000000E+00 0.  1.
         21   -1    0    0  503  502 -0.00000000000E+00 -0.00000000000E+00 -0.14967139547E+01  0.14967139547E+01  0.00000000000E+00 0. -1.
         21    1    1    2  503  501  0.10877877900E+02  0.22292846366E+02  0.23903766672E+03  0.24032125444E+03  0.00000000000E+00 0.  1.
         21    1    1    2  504  502 -0.10877877900E+02 -0.22292846366E+02  0.17907395046E+03  0.18078379065E+03  0.00000000000E+00 0. -1.
</event>
<event>
 4    1  0.3099057E+006  0.2724017E+02  0.7546771E-02  0.1445210E+00
         21   -1    0    0  503  501  0.00000000000E+00  0.00000000000E+00  0.13703646166E+02  0.13703646166E+02  0.00000000000E+00 0.  1.
         21   -1    0    0  504  502 -0.00000000000E+00 -0.00000000000E+00 -0.87819284048E+02  0.87819284048E+02  0.00000000000E+00 0.  1.
         21    1    1    2  503  502  0.26398699814E+02 -0.67183039706E+01 -0.68489538033E+02  0.73707827129E+02  0.00000000000E+00 0.  1.
         21    1    1    2  504  501 -0.26398699814E+02  0.67183039706E+01 -0.56260998484E+01  0.27815103085E+02  0.00000000000E+00 0.  1.
</event>
<event>
 4    1  0.3099057E+006  0.2317413E+02  0.7546771E-02  0.1490323E+00
         21   -1    0    0  503  501  0.00000000000E+00  0.00000000000E+00  0.33205644239E+02  0.33205644239E+02  0.00000000000E+00 0.  1.
         21   -1    0    0  504  502 -0.00000000000E+00 -0.00000000000E+00 -0.12627830300E+04  0.12627830300E+04  0.00000000000E+00 0.  1.
         21    1    1    2  503  502 -0.48521508741E+01 -0.22660469629E+02  0.29042660694E+02  0.37155300996E+02  0.00000000000E+00 0.  1.
         21    1    1    2  504  501  0.48521508741E+01  0.22660469629E+02 -0.12586200465E+04  0.12588333732E+04  0.00000000000E+00 0.  1.
</event>
<event>
 4    1  0.3099057E+006  0.3709592E+02  0.7546771E-02  0.1366399E+00
         21   -1    0    0  502  501  0.00000000000E+00  0.00000000000E+00  0.14043278556E+02  0.14043278556E+02  0.00000000000E+00 0. -1.
         21   -1    0    0  504  502 -0.00000000000E+00 -0.00000000000E+00 -0.11733709970E+03  0.11733709970E+03  0.00000000000E+00 0.  1.
         21    1    1    2  503  501  0.11300287973E+02 -0.35332861430E+02 -0.24973080134E+02  0.44718702312E+02  0.00000000000E+00 0. -1.
         21    1    1    2  504  503 -0.11300287973E+02  0.35332861430E+02 -0.78320741011E+02  0.86661675945E+02  0.00000000000E+00 0.  1.
</event>
<event>
 4    1  0.3099057E+006  0.3629615E+02  0.7546771E-02  0.1371673E+00
         21   -1    0    0  502  501  0.00000000000E+00  0.00000000000E+00  0.13601248654E+03  0.13601248654E+03  0.00000000000E+00 0.  1.
         21   -1    0    0  504  502 -0.00000000000E+00 -0.00000000000E+00 -0.94521467844E+02  0.94521467844E+02  0.00000000000E+00 0.  1.
         21    1    1    2  503  501  0.70141975885E+01 -0.35611960884E+02  0.12994698880E+03  0.13492083095E+03  0.00000000000E+00 0.  1.
         21    1    1    2  504  503 -0.70141975885E+01  0.35611960884E+02 -0.88455970104E+02  0.95613123435E+02  0.00000000000E+00 0.  1.
</event>
<event>
 4    1  0.3099057E+006  0.2062304E+02  0.7546771E-02  0.1524716E+00
         21   -1    0    0  503  501  0.00000000000E+00  0.00000000000E+00  0.17779856603E+03  0.17779856603E+03  0.00000000000E+00 0. -1.
         21   -1    0    0  501  502 -0.00000000000E+00 -0.00000000000E+00 -0.67157125959E+01  0.67157125959E+01  0.00000000000E+00 0.  1.
         21    1    1    2  503  504  0.17782067165E+02  0.10445467001E+02  0.15956634848E+03  0.16089353393E+03  0.00000000000E+00 0. -1.
         21    1    1    2  504  502 -0.17782067165E+02 -0.10445467001E+02  0.11516504951E+02  0.23620744692E+02  0.00000000000E+00 0.  1.
</event>
<event>
 4    1  0.3099057E+006  0.2626517E+02  0.7546771E-02  0.1455133E+00
         21   -1    0    0  502  501  0.00000000000E+00  0.00000000000E+00  0.41728483800E+01  0.41728483800E+01  0.00000000000E+00 0. -1.
         21   -1    0    0  503  502 -0.00000000000E+00 -0.00000000000E+00 -0.75091480383E+03  0.75091480383E+03  0.00000000000E+00 0. -1.
         21    1    1    2  503  504 -0.21153634600E+02 -0.15568655222E+02 -0.70677458350E+03  0.70726244857E+03  0.00000000000E+00 0. -1.
         21    1    1    2  504  501  0.21153634600E+02  0.15568655222E+02 -0.39967371952E+02  0.47825203637E+02  0.00000000000E+00 0. -1.
</event>
<event>
 4    1  0.3099057E+006  0.2157625E+02  0.7546771E-02  0.1511194E+00
         21   -1    0    0  503  501  0.00000000000E+00  0.00000000000E+00  0.12093473449E+02  0.12093473449E+02  0.00000000000E+00 0. -1.
         21   -1    0    0  504  502 -0.00000000000E+00 -0.00000000000E+00 -0.10718469806E+03  0.10718469806E+03  0.00000000000E+00 0.  1.
         21    1    1    2  503  502  0.17658550145E+02  0.12397982348E+02  0.19757470719E+00  0.21577149842E+02  0.00000000000E+00 0. -1.
         21    1    1    2  504  501 -0.17658550145E+02 -0.12397982348E+02 -0.95288799317E+02  0.97701021667E+02  0.00000000000E+00 0.  1.
</event>
<event>
 4    1  0.3099057E+006  0.2768734E+02  0.7546771E-02  0.1440823E+00
         21   -1    0    0  504  501  0.00000000000E+00  0.00000000000E+00  0.10596348586E+03  0.10596348586E+03  0.00000000000E+00 0.  1.
         21   -1    0    0  503  502 -0.00000000000E+00 -0.00000000000E+00 -0.17913725860E+02  0.17913725860E+02  0.00000000000E+00 0. -1.
         21    1    1    2  503  501 -0.22547805774E+02  0.16068139541E+02 -0.37983772745E+01  0.27946669273E+02  0.00000000000E+00 0. -1.
         21    1    1    2  504  502  0.22547805774E+02 -0.16068139541E+02  0.91848137270E+02  0.95930542443E+02  0.00000000000E+00 0.  1.
</event>
<event>
 4    1  0.3099057E+006  0.2688659E+02  0.7546771E-02  0.1448751E+00
         21   -1    0    0  504  501  0.00000000000E+00  0.00000000000E+00  0.31636988951E+03  0.31636988951E+03  0.00000000000E+00 0. -1.
         21   -1    0    0  503  502 -0.00000000000E+00 -0.00000000000E+00 -0.23899869320E+01  0.23899869320E+01  0.00000000000E+00 0. -1.
         21    1    1    2  503  501 -0.11214536198E+02  0.24436097357E+02  0.19040264566E+03  0.19229159147E+03  0.00000000000E+00 0. -1.
         21    1    1    2  504  502  0.11214536198E+02 -0.24436097357E+02  0.12357725692E+03  0.12646828497E+03  0.00000000000E+00 0. -1.
</event>
<event>
 4    1  0.3099057E+006  0.2116306E+02  0.7546771E-02  0.1516949E+00
         21   -1    0    0  503  501  0.00000000000E+00  0.00000000000E+00  0.59133334335E+01  0.59133334335E+01  0.00000000000E+00 0.  1.
         21   -1    0    0  504  502 -0.00000000000E+00 -0.00000000000E+00 -0.23412689357E+03  0.23412689357E+03  0.00000000000E+00 0.  1.
         21    1    1    2  503  502 -0.10392793436E+02 -0.18435427799E+02 -0.21282292101E+03  0.21387255752E+03  0.00000000000E+00 0.  1.
         21    1    1    2  504  501  0.10392793436E+02  0.18435427799E+02 -0.15390639133E+02  0.26167669489E+02  0.00000000000E+00 0.  1.
</event>
<event>
 4    1  0.3099057E+006  0.2375228E+02  0.7546771E-02  0.1483262E+00
         21   -1    0    0  503  501  0.00000000000E+00  0.00000000000E+00  0.21174821539E+01  0.21174821539E+01  0.00000000000E+00 0.  1.
         21   -1    0    0  504  502 -0.00000000000E+00 -0.00000000000E+00 -0.34509260931E+03  0.34509260931E+03  0.00000000000E+00 0.  1.
         21    1    1    2  503  502 -0.73176893530E+01  0.22596949714E+02 -0.25437061373E+03  0.25547716110E+03  0.00000000000E+00 0.  1.
         21    1    1    2  504  501  0.73176893530E+01 -0.22596949714E+02 -0.88604513424E+02  0.91732930363E+02  0.00000000000E+00 0.  1.
</event>
<event>
 4    1  0.3099057E+006  0.2168303E+02  0.7546771E-02  0.1509732E+00
         21   -1    0    0  503  501  0.00000000000E+00  0.00000000000E+00  0.24037884019E+03  0.24037884019E+03  0.00000000000E+00 0. -1.
         21   -1    0    0  504  502 -0.00000000000E+00 -0.00000000000E+00 -0.19100261249E+03  0.19100261249E+03  0.00000000000E+00 0.  1.
         21    1    1    2  503  502 -0.93499841759E+01 -0.19563531666E+02  0.23927165021E+03  0.24025211043E+03  0.00000000000E+00 0. -1.
         21    1    1    2  504  501  0.93499841759E+01  0.19563531666E+02 -0.18989542251E+03  0.19112934224E+03  0.00000000000E+00 0.  1.
</event>
<event>
 4    1  0.3099057E+006  0.2604398E+02  0.7546771E-02  0.1457455E+00
         21   -1    0    0  504  501  0.00000000000E+00  0.00000000000E+00  0.25734776731E+02  0.25734776731E+02  0.00000000000E+00 0. -1.
         21   -1    0    0  501  502 -0.00000000000E+00 -0.00000000000E+00 -0.48719634312E+02  0.48719634312E+02  0.00000000000E+00 0. -1.
         21    1    1    2  503  502 -0.23558237981E+02  0.11103977170E+02 -0.36713928003E+02  0.45013346856E+02  0.00000000000E+00 0. -1.
         21    1    1    2  504  503  0.23558237981E+02 -0.11103977170E+02  0.13729070421E+02  0.29441064186E+02  0.00000000000E+00 0. -1.
</event>
<event>
 4    1  0.3099057E+006  0.2043819E+02  0.7546771E-02  0.1527439E+00
         21   -1    0    0  504  501  0.00000000000E+00  0.00000000000E+00  0.11733350093E+04  0.11733350093E+04  0.00000000000E+00 0.  1.
         21   -1    0    0  501  502 -0.00000000000E+00 -0.00000000000E+00 -0.12801512023E+02  0.12801512023E+02  0.00000000000E+00 0.  1.
         21    1    1    2  503  502 -0.19696726668E+02  0.54551601259E+01 -0.44967367094E+01  0.20927026890E+02  0.00000000000E+00 0.  1.
         21    1    1    2  504  503  0.19696726668E+02 -0.54551601259E+01  0.11650302340E+04  0.11652094944E+04  0.00000000000E+00 0.  1.
</event>
<event>
 4    1  0.3099057E+006  0.3131137E+02  0.7546771E-02  0.1408533E+00
         21   -1    0    0  502  501  0.00000000000E+00  0.00000000000E+00  0.21554766480E+03  0.21554766480E+03  0.00000000000E+00 0.  1.
         21   -1    0    0  504  502 -0.00000000000E+00 -0.00000000000E+00 -0.14010591985E+02  0.14010591985E+02  0.00000000000E+00 0.  1.
         21    1    1    2  503  501  0.61763201392E+01 -0.30696166957E+02  0.19509424315E+03  0.19759090390E+03  0.00000000000E+00 0.  1.
         21    1    1    2  504  503 -0.61763201392E+01  0.30696166957E+02  0.64428296729E+01  0.31967352886E+02  0.00000000000E+00 0.  1.
</event>
<event>
 4    1  0.3099057E+006  0.2039894E+02  0.7546771E-02  0.1528022E+00
         21   -1    0    0  503  501  0.00000000000E+00  0.00000000000E+00  0.21779791392E+03  0.21779791392E+03  0.00000000000E+00 0. -1.
         21   -1    0    0  501  502 -0.00000000000E+00 -0.00000000000E+00 -0.86314624253E+01  0.86314624253E+01  0.00000000000E+00 0.  1.
         21    1    1    2  503  504 -0.41175031602E+01  0.19979065334E+02  0.20448523984E+03  0.20550019513E+03  0.00000000000E+00 0. -1.
         21    1    1    2  504  502  0.41175031602E+01 -0.19979065334E+02  0.46812116520E+01  0.20929181218E+02  0.00000000000E+00 0.  1.
</event>
<event>
 4    1  0.3099057E+006  0.2063769E+02  0.7546771E-02  0.1524501E+00
         21   -1    0    0  502  501  0.00000000000E+00  0.00000000000E+00  0.17920492817E+02  0.17920492817E+02  0.00000000000E+00 0.  1.
         21   -1    0    0  504  502 -0.00000000000E+00 -0.00000000000E+00 -0.56552984789E+02  0.56552984789E+02  0.00000000000E+00 0. -1.
         21    1    1    2  503  501 -0.20023114305E+02  0.49989301682E+01  0.90360809105E+01  0.22529206988E+02  0.00000000000E+00 0.  1.
         21    1    1    2  504  503  0.20023114305E+02 -0.49989301682E+01 -0.47668572883E+02  0.51944270618E+02  0.00000000000E+00 0. -1.
</event>
<event>
 4    1  0.3099057E+006  0.2084971E+02  0.7546771E-02  0.1521421E+00
         21   -1    0    0  503  501  0.00000000000E+00  0.00000000000E+00  0.71917208969E+02  0.71917208969E+02  0.00000000000E+00 0.  1.
         21   -1    0    0  504  502 -0.00000000000E+00 -0.00000000000E+00 -0.45841934910E+02  0.45841934910E+02  0.00000000000E+00 0.  1.
         21    1    1    2  503  502 -0.56602151548E+01  0.20066698540E+02 -0.41822917643E+02  0.46731861359E+02  0.00000000000E+00 0.  1.
         21    1    1    2  504  501  0.56602151548E+01 -0.20066698540E+02  0.67898191701E+02  0.71027282520E+02  0.00000000000E+00 0.  1.
</event>
<event>
 4    1  0.3099057E+006  0.2269748E+02  0.7546771E-02  0.1496332E+00
         21   -1    0    0  503  501  0.00000000000E+00  0.00000000000E+00  0.37693890578E+02  0.37693890578E+02  0.00000000000E+00 0.  1.
         21   -1    0    0  504  502 -0.00000000000E+00 -0.00000000000E+00 -0.14004829661E+02  0.14004829661E+02  0.00000000000E+00 0.  1.
         21    1    1    2  503  502 -0.21247717004E+02 -0.79818522210E+01  0.15857235976E+02  0.27688036686E+02  0.00000000000E+00 0.  1.
         21    1    1    2  504  501  0.21247717004E+02  0.79818522210E+01  0.78318249412E+01  0.24010683552E+02  0.00000000000E+00 0.  1.
</event>
<event>
 4    1  0.3099057E+006  0.2032777E+02  0.7546771E-02  0.1529083E+00
         21   -1    0    0  503  501  0.00000000000E+00  0.00000000000E+00  0.52215977474E+03  0.52215977474E+03  0.00000000000E+00 0.  1.
         21   -1    0    0  504  502 -0.00000000000E+00 -0.00000000000E+00 -0.81708291950E+00  0.81708291950E+00  0.00000000000E+00 0. -1.
         21    1    1    2  503  502 -0.36712324233E+01  0.19993507028E+02  0.21427875429E+03  0.21524080192E+03  0.00000000000E+00 0. -1.
         21    1    1    2  504  501  0.36712324233E+01 -0.19993507028E+02  0.30706393753E+03  0.30773605574E+03  0.00000000000E+00 0.  1.
</event>
<event>
 4    1  0.3099057E+006  0.4008472E+02  0.7546771E-02  0.1347990E+00
         21   -1    0    0  504  501  0.00000000000E+00  0.00000000000E+00  0.78273584031E+02  0.78273584031E+02  0.00000000000E+00 0. -1.
         21   -1    0    0  503  502 -0.00000000000E+00 -0.00000000000E+00 -0.25535062442E+02  0.25535062442E+02  0.00000000000E+00 0. -1.
         21    1    1    2  503  501 -0.30513816404E+02 -0.25994069254E+02  0.49353766315E+02  0.63581277727E+02  0.00000000000E+00 0. -1.
         21    1    1    2  504  502  0.30513816404E+02  0.25994069254E+02  0.33847552743E+01  0.40227368746E+02  0.00000000000E+00 0. -1.
</event>
<event>
 4    1  0.3099057E+006  0.2115763E+02  0.7546771E-02  0.1517026E+00
         21   -1    0    0  503  501  0.00000000000E+00  0.00000000000E+00  0.15507889889E+02  0.15507889889E+02  0.00000000000E+00 0.  1.
         21   -1    0    0  504  502 -0.00000000000E+00 -0.00000000000E+00 -0.30529746978E+02  0.30529746978E+02  0.00000000000E+00 0.  1.
         21    1    1    2  503  502  0.19612615912E+02  0.79366529297E+01 -0.21367501335E+01  0.21265250146E+02  0.00000000000E+00 0.  1.
         21    1    1    2  504  501 -0.19612615912E+02 -0.79366529297E+01 -0.12885106955E+02  0.24772386721E+02  0.00000000000E+00 0.  1.
</event>
<event>
 4    1  0.3099057E+006  0.2233207E+02  0.7546771E-02  0.1501060E+00
         21   -1    0    0  504  501  0.00000000000E+00  0.00000000000E+00  0.12642743089E+01  0.12642743089E+01  0.00000000000E+00 0.  1.
         21   -1    0    0  501  502 -0.00000000000E+00 -0.00000000000E+00 -0.10328473260E+04  0.10328473260E+04  0.00000000000E+00 0.  1.
         21    1    1    2  503  502  0.13701225963E+02  0.17635132323E+02 -0.92228840498E+03  0.92255873713E+03  0.00000000000E+00 0.  1.
         21    1    1    2  504  503 -0.13701225963E+02 -0.17635132323E+02 -0.10929464674E+03  0.11155286321E+03  0.00000000000E+00 0.  1.
</event>
<event>
 4    1  0.3099057E+006  0.2384690E+02  0.7546771E-02  0.1482129E+00
         21   -1    0    0  504  501  0.00000000000E+00  0.00000000000E+00  0.96471891028E+01  0.96471891028E+01  0.00000000000E+00 0.  1.
         21   -1    0    0  501  502 -0.00000000000E+00 -0.00000000000E+00 -0.10099442795E+03  0.10099442795E+03  0.00000000000E+00 0. -1.
         21    1    1    2  503  502  0.18130491082E+02  0.15490636170E+02 -0.81368722555E+02  0.84791175992E+02  0.00000000000E+00 0. -1.
         21    1    1    2  504  503 -0.18130491082E+02 -0.15490636170E+02 -0.99785162965E+01  0.25850441066E+02  0.00000000000E+00 0.  1.
</event>
<event>
 4    1  0.3099057E+006  0.2077216E+02  0.7546771E-02  0.1522543E+00
         21   -1    0    0  502  501  0.00000000000E+00  0.00000000000E+00  0.58070726508E+03  0.58070726508E+03  0.00000000000E+00 0.  1.
         21   -1    0    0  504  502 -0.00000000000E+00 -0.00000000000E+00 -0.12054366440E+01  0.12054366440E+01  0.00000000000E+00 0.  1.
         21    1    1    2  503  501 -0.35437663523E+01 -0.20467636656E+02  0.46995642784E+03  0.47041527026E+03  0.00000000000E+00 0.  1.
         21    1    1    2  504  503  0.35437663523E+01  0.20467636656E+02  0.10954540059E+03  0.11149743146E+03  0.00000000000E+00 0.  1.
</event>
<event>
 4    1  0.3099057E+006  0.2017526E+02  0.7546771E-02  0.1531373E+00
         21   -1    0    0  504  501  0.00000000000E+00  0.00000000000E+00  0.49967663762E+01  0.49967663762E+01  0.00000000000E+00 0. -1.
         21   -1    0    0  501  502 -0.00000000000E+00 -0.00000000000E+00 -0.12565369798E+03  0.12565369798E+03  0.00000000000E+00 0. -1.
         21    1    1    2  503  502  0.18173336057E+02  0.87619120662E+01 -0.99069295401E+02  0.10110275237E+03  0.00000000000E+00 0. -1.
         21    1    1    2  504  503 -0.18173336057E+02 -0.87619120662E+01 -0.21587636201E+02  0.29547711980E+02  0.00000000000E+00 0. -1.
</event>
<event>
 4    1  0.3099057E+006  0.2822300E+02  0.7546771E-02  0.1435695E+00
         21   -1    0    0  504  501  0.00000000000E+00  0.00000000000E+00  0.12195703300E+03  0.12195703300E+03  0.00000000000E+00 0.  1.
         21   -1    0    0  503  502 -0.00000000000E+00 -0.00000000000E+00 -0.68989274006E+01  0.68989274006E+01  0.00000000000E+00 0.  1.
         21    1    1    2  503  501  0.27433796610E+02  0.66275572166E+01  0.42656383612E+02  0.51147871646E+02  0.00000000000E+00 0.  1.
         21    1    1    2  504  502 -0.27433796610E+02 -0.66275572166E+01  0.72401721984E+02  0.77708088751E+02  0.00000000000E+00 0.  1.
</event>
<event>
 4    1  0.3099057E+006  0.3941079E+02  0.7546771E-02  0.1351974E+00
         21   -1    0    0  502  501  0.00000000000E+00  0.00000000000E+00  0.11097045464E+03  0.11097045464E+03  0.00000000000E+00 0. -1.
         21   -1    0    0  503  502 -0.00000000000E+00 -0.00000000000E+00 -0.13205030314E+03  0.13205030314E+03  0.00000000000E+00 0.  1.
         21    1    1    2  503  504 -0.31333573782E+02 -0.23904347835E+02 -0.12543024825E+03  0.13147607337E+03  0.00000000000E+00 0.  1.
         21    1    1    2  504  501  0.31333573782E+02  0.23904347835E+02  0.10435039976E+03  0.11154468441E+03  0.00000000000E+00 0. -1.
</event>
<event>
 4    1  0.3099057E+006  0.2011836E+02  0.7546771E-02  0.1532234E+00
         21   -1    0    0  504  501  0.00000000000E+00  0.00000000000E+00  0.86480694667E+01  0.86480694667E+01  0.00000000000E+00 0.  1.
         21   -1    0    0  501  502 -0.00000000000E+00 -0.00000000000E+00 -0.62704285151E+02  0.62704285151E+02  0.00000000000E+00 0.  1.
         21    1    1    2  503  502  0.38506085200E+01 -0.19746420272E+02 -0.44994353603E+02  0.49287322464E+02  0.00000000000E+00 0.  1.
         21    1    1    2  504  503 -0.38506085200E+01  0.19746420272E+02 -0.90618620811E+01  0.22065032153E+02  0.00000000000E+00 0.  1.
</event>
<event>
 4    1  0.3099057E+006  0.2178413E+02  0.7546771E-02  0.1508357E+00
         21   -1    0    0  504  501  0.00000000000E+00  0.00000000000E+00  0.34686757403E+02  0.34686757403E+02  0.00000000000E+00 0.  1.
         21   -1    0    0  503  502 -0.00000000000E+00 -0.00000000000E+00 -0.13885396943E+02  0.13885396943E+02  0.00000000000E+00 0.  1.
         21    1    1    2  503  501 -0.15806881475E+02  0.14989694302E+02  0.13347467776E+02  0.25548059285E+02  0.00000000000E+00 0.  1.
         21    1    1    2  504  502  0.15806881475E+02 -0.14989694302E+02  0.74538926841E+01  0.23024095061E+02  0.00000000000E+00 0.  1.
</event>
<event>
 4    1  0.3099057E+006  0.2162226E+02  0.7546771E-02  0.1510563E+00
         21   -1    0    0  504  501  0.00000000000E+00  0.00000000000E+00  0.14686260124E+02  0.14686260124E+02  0.00000000000E+00 0.  1.
         21   -1    0    0  501  502 -0.00000000000E+00 -0.00000000000E+00 -0.36366584633E+02  0.36366584633E+02  0.00000000000E+00 0. -1.
         21    1    1    2  503  502  0.44863105270E+01  0.21151715384E+02 -0.19851988819E+02  0.29353424092E+02  0.00000000000E+00 0. -1.
         21    1    1    2  504  503 -0.44863105270E+01 -0.21151715384E+02 -0.18283356896E+01  0.21699420665E+02  0.00000000000E+00 0.  1.
</event>
<event>
 4    1  0.3099057E+006  0.2422201E+02  0.7546771E-02  0.1477698E+00
         21   -1    0    0  504  501  0.00000000000E+00  0.00000000000E+00  0.61792876720E+02  0.61792876720E+02  0.00000000000E+00 0.  1.
         21   -1    0    0  503  502 -0.00000000000E+00 -0.00000000000E+00 -0.32071592325E+02  0.32071592325E+02  0.00000000000E+00 0.  1.
         21    1    1    2  503  501  0.12811003252E+01  0.24188106834E+02 -0.24516383677E+02  0.34463876724E+02  0.00000000000E+00 0.  1.
         21    1    1    2  504  502 -0.12811003252E+01 -0.24188106834E+02  0.54237668072E+02  0.59400592322E+02  0.00000000000E+00 0.  1.
</event>
<event>
 4    1  0.3099057E+006  0.2750021E+02  0.7546771E-02  0.1442647E+00
         21   -1    0    0  504  501  0.00000000000E+00  0.00000000000E+00  0.55765326722E+01  0.55765326722E+01  0.00000000000E+00 0.  1.
         21   -1    0    0  501  502 -0.00000000000E+00 -0.00000000000E+00 -0.42522703315E+03  0.42522703315E+03  0.00000000000E+00 0. -1.
         21    1    1    2  503  502 -0.26857859580E+02  0.59090366043E+01 -0.38759062841E+03  0.38856499658E+03  0.00000000000E+00 0. -1.
         21    1    1    2  504  503  0.26857859580E+02 -0.59090366043E+01 -0.32059872070E+02  0.42238569246E+02  0.00000000000E+00 0.  1.
</event>
<event>
 4    1  0.3099057E+006  0.2468762E+02  0.7546771E-02  0.1472328E+00
         21   -1    0    0  503  501  0.00000000000E+00  0.00000000000E+00  0.90740899901E+02  0.90740899901E+02  0.00000000000E+00 0. -1.
         21   -1    0    0  501  502 -0.00000000000E+00 -0.00000000000E+00 -0.27354059213E+03  0.27354059213E+03  0.00000000000E+00 0.  1.
         21    1    1    2  503  504 -0.48642902475E+01  0.24203665818E+02  0.88490800517E+02  0.91870019782E+02  0.00000000000E+00 0. -1.
         21    1    1    2  504  502  0.48642902475E+01 -0.24203665818E+02 -0.27129049275E+03  0.27241147225E+03  0.00000000000E+00 0.  1.
</event>
<event>
 4    1  0.3099057E+006  0.2147283E+02  0.7546771E-02  0.1512620E+00
         21   -1    0    0  503  501  0.00000000000E+00  0.00000000000E+00  0.28092759727E+02  0.28092759727E+02  0.00000000000E+00 0. -1.
         21   -1    0    0  504  502 -0.00000000000E+00 -0.00000000000E+00 -0.17183581907E+02  0.17183581907E+02  0.00000000000E+00 0. -1.
         21    1    1    2  503  502 -0.15886384719E+02 -0.14446631176E+02  0.10248996439E+02  0.23793366718E+02  0.00000000000E+00 0. -1.
         21    1    1    2  504  501  0.15886384719E+02  0.14446631176E+02  0.66018138088E+00  0.21482974916E+02  0.00000000000E+00 0. -1.
</event>
<event>
 4    1  0.3099057E+006  0.3018641E+02  0.7546771E-02  0.1417983E+00
         21   -1    0    0  503  501  0.00000000000E+00  0.00000000000E+00  0.15793310661E+04  0.15793310661E+04  0.00000000000E+00 0.  1.
         21   -1    0    0  504  502 -0.00000000000E+00 -0.00000000000E+00 -0.52407518231E+01  0.52407518231E+01  0.00000000000E+00 0. -1.
         21    1    1    2  503  502 -0.26670949280E+02 -0.14137895331E+02  0.39642814536E+02  0.49827425823E+02  0.00000000000E+00 0. -1.
         21    1    1    2  504  501  0.26670949280E+02  0.14137895331E+02  0.15344474998E+04  0.15347443921E+04  0.00000000000E+00 0.  1.
</event>
<event>
 4    1  0.3099057E+006  0.2559316E+02  0.7546771E-02  0.1462276E+00
         21   -1    0    0  502  501  0.00000000000E+00  0.00000000000E+00  0.73653641228E+02  0.73653641228E+02  0.00000000000E+00 0. -1.
         21   -1    0    0  504  502 -0.00000000000E+00 -0.00000000000E+00 -0.42284703519E+02  0.42284703519E+02  0.00000000000E+00 0.  1.
         21    1    1    2  503  501  0.20999491064E+02  0.14629806213E+02  0.67198321875E+02  0.71907053323E+02  0.00000000000E+00 0. -1.
         21    1    1    2  504  503 -0.20999491064E+02 -0.14629806213E+02 -0.35829384166E+02  0.44031291425E+02  0.00000000000E+00 0.  1.
</event>
<event>
 4    1  0.3099057E+006  0.2117302E+02  0.7546771E-02  0.1516809E+00
         21   -1    0    0  503  501  0.00000000000E+00  0.00000000000E+00  0.62469843417E+03  0.62469843417E+03  0.00000000000E+00 0. -1.
         21   -1    0    0  501  502 -0.00000000000E+00 -0.00000000000E+00 -0.22759372436E+02  0.22759372436E+02  0.00000000000E+00 0. -1.
         21    1    1    2  503  504  0.80401575492E+01 -0.19587054490E+02  0.61955384060E+03  0.61991552508E+03  0.00000000000E+00 0. -1.
         21    1    1    2  504  502 -0.80401575492E+01  0.19587054490E+02 -0.17614778865E+02  0.27542281523E+02  0.00000000000E+00 0. -1.
</event>
<event>
 4    1  0.3099057E+006  0.4805763E+02  0.7546771E-02  0.1306821E+00
         21   -1    0    0  503  501  0.00000000000E+00  0.00000000000E+00  0.41956984424E+03  0.41956984424E+03  0.00000000000E+00 0. -1.
         21   -1    0    0  501  502 -0.00000000000E+00 -0.00000000000E+00 -0.63714248286E+01  0.63714248286E+01  0.00000000000E+00 0.  1.
         21    1    1    2  503  504 -0.94505433030E+01 -0.47119244022E+02  0.28515604400E+03  0.28917729053E+03  0.00000000000E+00 0. -1.
         21    1    1    2  504  502  0.94505433030E+01  0.47119244022E+02  0.12804237541E+03  0.13676397854E+03  0.00000000000E+00 0.  1.
</event>
<event>
 4    1  0.3099057E+006  0.2144260E+02  0.7546771E-02  0.1513039E+00
         21   -1    0    0  503  501  0.00000000000E+00  0.00000000000E+00  0.26226628490E+03  0.26226628490E+03  0.00000000000E+00 0. -1.
         21   -1    0    0  504  502 -0.00000000000E+00 -0.00000000000E+00 -0.29907115222E+02  0.29907115222E+02  0.00000000000E+00 0.  1.
         21    1    1    2  503  502  0.20503863904E+02 -0.62750796071E+01  0.25791990521E+03  0.25880970338E+03  0.00000000000E+00 0. -1.
         21    1    1    2  504  501 -0.20503863904E+02  0.62750796071E+01 -0.25560735536E+02  0.33363696741E+02  0.00000000000E+00 0.  1.
</event>
<event>
 4    1  0.3099057E+006  0.2590657E+02  0.7546771E-02  0.1458912E+00
         21   -1    0    0  504  501  0.00000000000E+00  0.00000000000E+00  0.17367572106E+03  0.17367572106E+03  0.00000000000E+00 0.  1.
         21   -1    0    0  503  502 -0.00000000000E+00 -0.00000000000E+00 -0.44820985545E+01  0.44820985545E+01  0.00000000000E+00 0.  1.
         21    1    1    2  503  501  0.25873241829E+02 -0.13135787930E+01  0.11766627785E+03  0.12048445159E+03  0.00000000000E+00 0.  1.
         21    1    1    2  504  502 -0.25873241829E+02  0.13135787930E+01  0.51527344656E+02  0.57673368024E+02  0.00000000000E+00 0.  1.
</event>
<event>
 4    1  0.3099057E+006  0.2118794E+02  0.7546771E-02  0.1516598E+00
         21   -1    0    0  502  501  0.00000000000E+00  0.00000000000E+00  0.26315997180E+02  0.26315997180E+02  0.00000000000E+00 0.  1.
         21   -1    0    0  503  502 -0.00000000000E+00 -0.00000000000E+00 -0.21184355240E+02  0.21184355240E+02  0.00000000000E+00 0.  1.
         21    1    1    2  503  504  0.17703846311E+02  0.11640567104E+02 -0.79146578423E+01  0.22617930618E+02  0.00000000000E+00 0.  1.
         21    1    1    2  504  501 -0.17703846311E+02 -0.11640567104E+02  0.13046299783E+02  0.24882421802E+02  0.00000000000E+00 0.  1.
</event>
<event>
 4    1  0.3099057E+006  0.4392496E+02  0.7546771E-02  0.1326903E+00
         21   -1    0    0  503  501  0.00000000000E+00  0.00000000000E+00  0.90052800094E+03  0.90052800094E+03  0.00000000000E+00 0.  1.
         21   -1    0    0  504  502 -0.00000000000E+00 -0.00000000000E+00 -0.43026874281E+01  0.43026874281E+01  0.00000000000E+00 0.  1.
         21    1    1    2  503  502  0.19916153019E+02  0.39150342120E+02  0.76867372617E+03  0.76992772371E+03  0.00000000000E+00 0.  1.
         21    1    1    2  504  501 -0.19916153019E+02 -0.39150342120E+02  0.12755158735E+03  0.13490296466E+03  0.00000000000E+00 0.  1.
</event>
<event>
 4    1  0.3099057E+006  0.2353336E+02  0.7546771E-02  0.1485907E+00
         21   -1    0    0  503  501  0.00000000000E+00  0.00000000000E+00  0.13600975379E+04  0.13600975379E+04  0.00000000000E+00 0.  1.
         21   -1    0    0  504  502 -0.00000000000E+00 -0.00000000000E+00 -0.14018925401E+01  0.14018925401E+01  0.00000000000E+00 0. -1.
         21    1    1    2  503  502  0.15386033313E+02 -0.17806991276E+02  0.10592287431E+03  0.10850564162E+03  0.00000000000E+00 0. -1.
         21    1    1    2  504  501 -0.15386033313E+02  0.17806991276E+02  0.12527727710E+04  0.12529937888E+04  0.00000000000E+00 0.  1.
</event>
<event>
 4    1  0.3099057E+006  0.4504844E+02  0.7546771E-02  0.1321197E+00
         21   -1    0    0  503  501  0.00000000000E+00  0.00000000000E+00  0.20608606503E+03  0.20608606503E+03  0.00000000000E+00 0. -1.
         21   -1    0    0  501  502 -0.00000000000E+00 -0.00000000000E+00 -0.39827546257E+03  0.39827546257E+03  0.00000000000E+00 0. -1.
         21    1    1    2  503  504 -0.42740432105E+02 -0.14234384428E+02  0.20232705158E+03  0.20728144644E+03  0.00000000000E+00 0. -1.
         21    1    1    2  504  502  0.42740432105E+02  0.14234384428E+02 -0.39451644912E+03  0.39708008117E+03  0.00000000000E+00 0. -1.
</event>
<event>
 4    1  0.3099057E+006  0.2489226E+02  0.7546771E-02  0.1470012E+00
         21   -1    0    0  503  501  0.00000000000E+00  0.00000000000E+00  0.12125817462E+02  0.12125817462E+02  0.00000000000E+00 0. -1.
         21   -1    0    0  504  502 -0.00000000000E+00 -0.00000000000E+00 -0.74246917813E+02  0.74246917813E+02  0.00000000000E+00 0. -1.
         21    1    1    2  503  502  0.24071828221E+02  0.63381195626E+01 -0.55173903258E+02  0.60529201830E+02  0.00000000000E+00 0. -1.
         21    1    1    2  504  501 -0.24071828221E+02 -0.63381195626E+01 -0.69471970929E+01  0.25843533445E+02  0.00000000000E+00 0. -1.
</event>
<event>
 4    1  0.3099057E+006  0.2577412E+02  0.7546771E-02  0.1460327E+00
         21   -1    0    0  502  501  0.00000000000E+00  0.00000000000E+00  0.42755427199E+03  0.42755427199E+03  0.00000000000E+00 0. -1.
         21   -1    0    0  503  502 -0.00000000000E+00 -0.00000000000E+00 -0.21029571567E+01  0.21029571567E+01  0.00000000000E+00 0. -1.
         21    1    1    2  503  504 -0.44383790368E+01  0.25389094035E+02  0.10293848065E+03  0.10611614440E+03  0.00000000000E+00 0. -1.
         21    1    1    2  504  501  0.44383790368E+01 -0.25389094035E+02  0.32251283418E+03  0.32354108474E+03  0.00000000000E+00 0. -1.
</event>
<event>
 4    1  0.3099057E+006  0.3425089E+02  0.7546771E-02  0.1385907E+00
         21   -1    0    0  503  501  0.00000000000E+00  0.00000000000E+00  0.43001177971E+01  0.43001177971E+01  0.00000000000E+00 0. -1.
         21   -1    0    0  504  502 -0.00000000000E+00 -0.00000000000E+00 -0.46345129685E+03  0.46345129685E+03  0.00000000000E+00 0. -1.
         21    1    1    2  503  502 -0.33141856197E+02 -0.86452866545E+01 -0.79576262911E+02  0.86634319022E+02  0.00000000000E+00 0. -1.
         21    1    1    2  504  501  0.33141856197E+02  0.86452866545E+01 -0.37957491614E+03  0.38111709562E+03  0.00000000000E+00 0. -1.
</event>
<event>
 4    1  0.3099057E+006  0.4620695E+02  0.7546771E-02  0.1315512E+00
         21   -1    0    0  503  501  0.00000000000E+00  0.00000000000E+00  0.21594779119E+03  0.21594779119E+03  0.00000000000E+00 0. -1.
         21   -1    0    0  504  502 -0.00000000000E+00 -0.00000000000E+00 -0.13083703067E+03  0.13083703067E+03  0.00000000000E+00 0.  1.
         21    1    1    2  503  502  0.13423054870E+02  0.44214297747E+02 -0.12415693434E+03  0.13247651441E+03  0.00000000000E+00 0.  1.
         21    1    1    2  504  501 -0.13423054870E+02 -0.44214297747E+02  0.20926769486E+03  0.21430830745E+03  0.00000000000E+00 0. -1.
</event>
<event>
 4    1  0.3099057E+006  0.2246493E+02  0.7546771E-02  0.1499329E+00
         21   -1    0    0  502  501  0.00000000000E+00  0.00000000000E+00  0.41681114462E+02  0.41681114462E+02  0.00000000000E+00 0. -1.
         21   -1    0    0  504  502 -0.00000000000E+00 -0.00000000000E+00 -0.17748258258E+02  0.17748258258E+02  0.00000000000E+00 0. -1.
         21    1    1    2  503  501  0.17511163229E+00  0.22464245877E+02  0.28717575332E+02  0.36460555945E+02  0.00000000000E+00 0. -1.
         21    1    1    2  504  503 -0.17511163229E+00 -0.22464245877E+02 -0.47847191279E+01  0.22968816775E+02  0.00000000000E+00 0. -1.
</event>
<event>
 4    1  0.3099057E+006  0.3211955E+02  0.7546771E-02  0.1402029E+00
         21   -1    0    0  502  501  0.00000000000E+00  0.00000000000E+00  0.40117088926E+01  0.40117088926E+01  0.00000000000E+00 0. -1.
         21   -1    0    0  504  502 -0.00000000000E+00 -0.00000000000E+00 -0.53692511124E+03  0.53692511124E+03  0.00000000000E+00 0. -1.
         21    1    1    2  503  501  0.14248471864E+02 -0.28786220705E+02 -0.71223496943E+02  0.78130992376E+02  0.00000000000E+00 0. -1.
         21    1    1    2  504  503 -0.14248471864E+02  0.28786220705E+02 -0.46168990541E+03  0.46280582776E+03  0.00000000000E+00 0. -1.
</event>
<event>
 4    1  0.3099057E+006  0.3197399E+02  0.7546771E-02  0.1403184E+00
         21   -1    0    0  503  501  0.00000000000E+00  0.00000000000E+00  0.70396485859E+03  0.70396485859E+03  0.00000000000E+00 0. -1.
         21   -1    0    0  504  502 -0.00000000000E+00 -0.00000000000E+00 -0.30546205351E+01  0.30546205351E+01  0.00000000000E+00 0.  1.
         21    1    1    2  503  502  0.31331289912E+02  0.63785706560E+01  0.60649266862E+03  0.60733491007E+03  0.00000000000E+00 0. -1.
         21    1    1    2  504  501 -0.31331289912E+02 -0.63785706560E+01  0.94417569436E+02  0.99684569063E+02  0.00000000000E+00 0.  1.
</event>
<event>
 4    1  0.3099057E+006  0.2304916E+02  0.7546771E-02  0.1491882E+00
         21   -1    0    0  504  501  0.00000000000E+00  0.00000000000E+00  0.22905891619E+03  0.22905891619E+03  0.00000000000E+00 0.  1.
         21   -1    0    0  503  502 -0.00000000000E+00 -0.00000000000E+00 -0.54316806494E+02  0.54316806494E+02  0.00000000000E+00 0. -1.
         21    1    1    2  503  501 -0.20846329187E+02 -0.98333255073E+01  0.22600087354E+03  0.22717319070E+03  0.00000000000E+00 0.  1.
         21    1    1    2  504  502  0.20846329187E+02  0.98333255073E+01 -0.51258763843E+02  0.56202531987E+02  0.00000000000E+00 0. -1.
</event>
<event>
 4    1  0.3099057E+006  0.2593962E+02  0.7546771E-02  0.1458561E+00
         21   -1    0    0  502  501  0.00000000000E+00  0.00000000000E+00  0.21071987439E+02  0.21071987439E+02  0.00000000000E+00 0. -1.
         21   -1    0    0  504  502 -0.00000000000E+00 -0.00000000000E+00 -0.17621455608E+03  0.17621455608E+03  0.00000000000E+00 0. -1.
         21    1    1    2  503  501 -0.14244252818E+02  0.21678684130E+02  0.11688116007E+02  0.28451294166E+02  0.00000000000E+00 0. -1.
         21    1    1    2  504  503  0.14244252818E+02 -0.21678684130E+02 -0.16683068465E+03  0.16883524935E+03  0.00000000000E+00 0. -1.
</event>
<event>
 4    1  0.3099057E+006  0.2323583E+02  0.7546771E-02  0.1489558E+00
         21   -1    0    0  502  501  0.00000000000E+00  0.00000000000E+00  0.22200441911E+01  0.22200441911E+01  0.00000000000E+00 0.  1.
         21   -1    0    0  504  502 -0.00000000000E+00 -0.00000000000E+00 -0.24341167673E+03  0.24341167673E+03  0.00000000000E+00 0.  1.
         21    1    1    2  503  501  0.19959854150E+02  0.11895705625E+02 -0.11693130856E+03  0.11921759313E+03  0.00000000000E+00 0.  1.
         21    1    1    2  504  503 -0.19959854150E+02 -0.11895705625E+02 -0.12426032398E+03  0.12641412779E+03  0.00000000000E+00 0.  1.
</event>
<event>
 4    1  0.3099057E+006  0.2356059E+02  0.7546771E-02  0.1485576E+00
         21   -1    0    0  502  501  0.00000000000E+00  0.00000000000E+00  0.28402898126E+01  0.28402898126E+01  0.00000000000E+00 0. -1.
         21   -1    0    0  503  502 -0.00000000000E+00 -0.00000000000E+00 -0.24127489704E+03  0.24127489704E+03  0.00000000000E+00 0. -1.
         21    1    1    2  503  504 -0.20508241356E+02 -0.11598002276E+02 -0.17241766354E+03  0.17401997679E+03  0.00000000000E+00 0. -1.
         21    1    1    2  504  501  0.20508241356E+02  0.11598002276E+02 -0.66016943686E+02  0.70095210065E+02  0.00000000000E+00 0. -1.
</event>
<event>
 4    1  0.3099057E+006  0.4716537E+02  0.7546771E-02  0.1310953E+00
         21   -1    0    0  504  501  0.00000000000E+00  0.00000000000E+00  0.13436477191E+02  0.13436477191E+02  0.00000000000E+00 0. -1.
         21   -1    0    0  503  502 -0.00000000000E+00 -0.00000000000E+00 -0.37098690490E+03  0.37098690490E+03  0.00000000000E+00 0. -1.
         21    1    1    2  503  501 -0.43765098449E+02  0.17583759061E+02 -0.35745302688E+02  0.59180225491E+02  0.00000000000E+00 0. -1.
         21    1    1    2  504  502  0.43765098449E+02 -0.17583759061E+02 -0.32180512502E+03  0.32524315660E+03  0.00000000000E+00 0. -1.
</event>
<event>
 4    1  0.3099057E+006  0.2144508E+02  0.7546771E-02  0.1513004E+00
         21   -1    0    0  504  501  0.00000000000E+00  0.00000000000E+00  0.14041567330E+03  0.14041567330E+03  0.00000000000E+00 0.  1.
         21   -1    0    0  501  502 -0.00000000000E+00 -0.00000000000E+00 -0.31303640567E+02  0.31303640567E+02  0.00000000000E+00 0. -1.
         21    1    1    2  503  502 -0.71881549419E+01 -0.20204505808E+02 -0.26687941129E+02  0.34236498479E+02  0.00000000000E+00 0. -1.
         21    1    1    2  504  503  0.71881549419E+01  0.20204505808E+02  0.13579997386E+03  0.13748281539E+03  0.00000000000E+00 0.  1.
</event>
<event>
 4    1  0.3099057E+006  0.2760094E+02  0.7546771E-02  0.1441663E+00
         21   -1    0    0  504  501  0.00000000000E+00  0.00000000000E+00  0.38786517472E+03  0.38786517472E+03  0.00000000000E+00 0.  1.
         21   -1    0    0  503  502 -0.00000000000E+00 -0.00000000000E+00 -0.61274156737E+02  0.61274156737E+02  0.00000000000E+00 0. -1.
         21    1    1    2  503  501  0.25479078481E+02 -0.10612664605E+02 -0.57645601809E+02  0.63912655227E+02  0.00000000000E+00 0. -1.
         21    1    1    2  504  502 -0.25479078481E+02  0.10612664605E+02  0.38423661980E+03  0.38522667623E+03  0.00000000000E+00 0.  1.
</event>
<event>
 4    1  0.3099057E+006  0.2223034E+02  0.7546771E-02  0.1502396E+00
         21   -1    0    0  502  501  0.00000000000E+00  0.00000000000E+00  0.33807664386E+03  0.33807664386E+03  0.00000000000E+00 0. -1.
         21   -1    0    0  504  502 -0.00000000000E+00 -0.00000000000E+00 -0.16897611834E+01  0.16897611834E+01  0.00000000000E+00 0.  1.
         21    1    1    2  503  501 -0.20989096554E+02  0.73243418700E+01  0.23059606124E+03  0.23166512819E+03  0.00000000000E+00 0. -1.
         21    1    1    2  504  503  0.20989096554E+02 -0.73243418700E+01  0.10579082143E+03  0.10810127685E+03  0.00000000000E+00 0.  1.
</event>
<event>
 4    1  0.3099057E+006  0.3284967E+02  0.7546771E-02  0.1396345E+00
         21   -1    0    0  502  501  0.00000000000E+00  0.00000000000E+00  0.12704410567E+03  0.12704410567E+03  0.00000000000E+00 0. -1.
         21   -1    0    0  503  502 -0.00000000000E+00 -0.00000000000E+00 -0.10170871990E+02  0.10170871990E+02  0.00000000000E+00 0. -1.
         21    1    1    2  503  504 -0.18232427621E+02 -0.27325438903E+02  0.30578342325E+02  0.44879127081E+02  0.00000000000E+00 0. -1.
         21    1    1    2  504  501  0.18232427621E+02  0.27325438903E+02  0.86294891359E+02  0.92335850583E+02  0.00000000000E+00 0. -1.
</event>
<event>
 4    1  0.3099057E+006  0.2352587E+02  0.7546771E-02  0.1485998E+00
         21   -1    0    0  502  501  0.00000000000E+00  0.00000000000E+00  0.10849123999E+01  0.10849123999E+01  0.00000000000E+00 0. -1.
         21   -1    0    0  504  502 -0.00000000000E+00 -0.00000000000E+00 -0.75321024615E+03  0.75321024615E+03  0.00000000000E+00 0. -1.
         21    1    1    2  503  501  0.19035035363E+00 -0.23525096471E+02 -0.16181724446E+03  0.16351846074E+03  0.00000000000E+00 0. -1.
         21    1    1    2  504  503 -0.19035035363E+00  0.23525096471E+02 -0.59030808928E+03  0.59077669781E+03  0.00000000000E+00 0. -1.
</event>
<event>
 4    1  0.3099057E+006  0.2435986E+02  0.7546771E-02  0.1476094E+00
         21   -1    0    0  503  501  0.00000000000E+00  0.00000000000E+00  0.44167420657E+02  0.44167420657E+02  0.00000000000E+00 0. -1.
         21   -1    0    0  504  502 -0.00000000000E+00 -0.00000000000E+00 -0.14032343210E+02  0.14032343210E+02  0.00000000000E+00 0.  1.
         21    1    1    2  503  502  0.11101684031E+02 -0.21683072116E+02  0.21069942942E+02  0.32207848426E+02  0.00000000000E+00 0. -1.
         21    1    1    2  504  501 -0.11101684031E+02  0.21683072116E+02  0.90651345048E+01  0.25991915441E+02  0.00000000000E+00 0.  1.
</event>
<event>
 4    1  0.3099057E+006  0.3355154E+02  0.7546771E-02  0.1391042E+00
         21   -1    0    0  504  501  0.00000000000E+00  0.00000000000E+00  0.33634750722E+02  0.33634750722E+02  0.00000000000E+00 0.  1.
         21   -1    0    0  503  502 -0.00000000000E+00 -0.00000000000E+00 -0.86982544223E+02  0.86982544223E+02  0.00000000000E+00 0.  1.
         21    1    1    2  503  501 -0.11755581459E+02  0.31424703194E+02 -0.73977835106E+02  0.81230694650E+02  0.00000000000E+00 0.  1.
         21    1    1    2  504  502  0.11755581459E+02 -0.31424703194E+02  0.20630041605E+02  0.39386600296E+02  0.00000000000E+00 0.  1.
</event>
<event>
 4    1  0.3099057E+006  0.3212128E+02  0.7546771E-02  0.1402016E+00
         21   -1    0    0  504  501  0.00000000000E+00  0.00000000000E+00  0.28040965834E+02  0.28040965834E+02  0.00000000000E+00 0. -1.
         21   -1    0    0  503  502 -0.00000000000E+00 -0.00000000000E+00 -0.39958809046E+02  0.39958809046E+02  0.00000000000E+00 0. -1.
         21    1    1    2  503  501  0.29019177411E+02 -0.13771853568E+02 -0.15525434277E+02  0.35676542963E+02  0.00000000000E+00 0. -1.
         21    1    1    2  504  502 -0.29019177411E+02  0.13771853568E+02  0.36075910652E+01  0.32323231917E+02  0.00000000000E+00 0. -1.
</event>
<event>
 4    1  0.3099057E+006  0.2600242E+02  0.7546771E-02  0.1457895E+00
         21   -1    0    0  504  501  0.00000000000E+00  0.00000000000E+00  0.43032314825E+03  0.43032314825E+03  0.00000000000E+00 0. -1.
         21   -1    0    0  503  502 -0.00000000000E+00 -0.00000000000E+00 -0.10667349039E+02  0.10667349039E+02  0.00000000000E+00 0. -1.
         21    1    1    2  503  501  0.13093980779E+02  0.22464941944E+02  0.62176466736E+01  0.26735464824E+02  0.00000000000E+00 0. -1.
         21    1    1    2  504  502 -0.13093980779E+02 -0.22464941944E+02  0.41343815254E+03  0.41425503247E+03  0.00000000000E+00 0. -1.
</event>
<event>
 4    1  0.3099057E+006  0.2431986E+02  0.7546771E-02  0.1476558E+00
         21   -1    0    0  502  501  0.00000000000E+00  0.00000000000E+00  0.91645734877E+02  0.91645734877E+02  0.00000000000E+00 0. -1.
         21   -1    0    0  503  502 -0.00000000000E+00 -0.00000000000E+00 -0.81359291505E+01  0.81359291505E+01  0.00000000000E+00 0. -1.
         21    1    1    2  503  504  0.16447150160E+02  0.17914993728E+02  0.19068930779E+02  0.30904366515E+02  0.00000000000E+00 0. -1.
         21    1    1    2  504  501 -0.16447150160E+02 -0.17914993728E+02  0.64440874947E+02  0.68877297512E+02  0.00000000000E+00 0. -1.
</event>
<event>
 4    1  0.3099057E+006  0.2549261E+02  0.7546771E-02  0.1463367E+00
         21   -1    0    0  504  501  0.00000000000E+00  0.00000000000E+00  0.70409946005E+02  0.70409946005E+02  0.00000000000E+00 0. -1.
         21   -1    0    0  501  502 -0.00000000000E+00 -0.00000000000E+00 -0.59218627942E+02  0.59218627942E+02  0.00000000000E+00 0. -1.
         21    1    1    2  503  502 -0.25317961200E+02 -0.29789364880E+01 -0.53953802435E+02  0.59673159956E+02  0.00000000000E+00 0. -1.
         21    1    1    2  504  503  0.25317961200E+02  0.29789364880E+01  0.65145120498E+02  0.69955413991E+02  0.00000000000E+00 0. -1.
</event>
<event>
 4    1  0.3099057E+006  0.2137434E+02  0.7546771E-02  0.1513987E+00
         21   -1    0    0  502  501  0.00000000000E+00  0.00000000000E+00  0.14499593931E+03  0.14499593931E+03  0.00000000000E+00 0.  1.
         21   -1    0    0  504  502 -0.00000000000E+00 -0.00000000000E+00 -0.63032584959E+01  0.63032584959E+01  0.00000000000E+00 0. -1.
         21    1    1    2  503  501 -0.58215355223E+01  0.20566287598E+02  0.12284518003E+03  0.12469082051E+03  0.00000000000E+00 0.  1.
         21    1    1    2  504  503  0.58215355223E+01 -0.20566287598E+02  0.15847500777E+02  0.26608377295E+02  0.00000000000E+00 0. -1.
</event>
<event>
 4    1  0.3099057E+006  0.2383740E+02  0.7546771E-02  0.1482242E+00
         21   -1    0    0  504  501  0.00000000000E+00  0.00000000000E+00  0.15237331310E+03  0.15237331310E+03  0.00000000000E+00 0.  1.
         21   -1    0    0  501  502 -0.00000000000E+00 -0.00000000000E+00 -0.29260339038E+03  0.29260339038E+03  0.00000000000E+00 0. -1.
         21    1    1    2  503  502 -0.12058549150E+02  0.20562422078E+02 -0.29118107039E+03  0.29215516008E+03  0.00000000000E+00 0. -1.
         21    1    1    2  504  503  0.12058549150E+02 -0.20562422078E+02  0.15095099311E+03  0.15282154341E+03  0.00000000000E+00 0.  1.
</event>
<event>
 4    1  0.3099057E+006  0.2851011E+02  0.7546771E-02  0.1433001E+00
         21   -1    0    0  504  501  0.00000000000E+00  0.00000000000E+00  0.15995143075E+03  0.15995143075E+03  0.00000000000E+00 0. -1.
         21   -1    0    0  503  502 -0.00000000000E+00 -0.00000000000E+00 -0.74464343917E+01  0.74464343917E+01  0.00000000000E+00 0. -1.
         21    1    1    2  503  501  0.13985614955E+02 -0.24844090840E+02  0.29085711095E+02  0.40728428220E+02  0.00000000000E+00 0. -1.
         21    1    1    2  504  502 -0.13985614955E+02  0.24844090840E+02  0.12341928527E+03  0.12666943692E+03  0.00000000000E+00 0. -1.
</event>
<event>
 4    1  0.3099057E+006  0.2269229E+02  0.7546771E-02  0.1496399E+00
         21   -1    0    0  503  501  0.00000000000E+00  0.00000000000E+00  0.59678175503E+03  0.59678175503E+03  0.00000000000E+00 0.  1.
         21   -1    0    0  504  502 -0.00000000000E+00 -0.00000000000E+00 -0.86610662802E+00  0.86610662802E+00  0.00000000000E+00 0.  1.
         21    1    1    2  503  502 -0.21762302334E+02 -0.64298014006E+01  0.31624846609E+03  0.31706155940E+03  0.00000000000E+00 0.  1.
         21    1    1    2  504  501  0.21762302334E+02  0.64298014006E+01  0.27966718232E+03  0.28058630225E+03  0.00000000000E+00 0.  1.
</event>
<event>
 4    1  0.3099057E+006  0.2094946E+02  0.7546771E-02  0.1519988E+00
         21   -1    0    0  503  501  0.00000000000E+00  0.00000000000E+00  0.80863857033E+01  0.80863857033E+01  0.00000000000E+00 0. -1.
         21   -1    0    0  504  502 -0.00000000000E+00 -0.00000000000E+00 -0.74334440332E+02  0.74334440332E+02  0.00000000000E+00 0. -1.
         21    1    1    2  503  502  0.12333990997E+02  0.16933770455E+02 -0.11715690002E+02  0.24002860412E+02  0.00000000000E+00 0. -1.
         21    1    1    2  504  501 -0.12333990997E+02 -0.16933770455E+02 -0.54532364627E+02  0.58417965624E+02  0.00000000000E+00 0. -1.
</event>
<event>
 4    1  0.3099057E+006  0.2305682E+02  0.7546771E-02  0.1491786E+00
         21   -1    0    0  502  501  0.00000000000E+00  0.00000000000E+00  0.60780489085E+02  0.60780489085E+02  0.00000000000E+00 0.  1.
         21   -1    0    0  503  502 -0.00000000000E+00 -0.00000000000E+00 -0.44749824976E+03  0.44749824976E+03  0.00000000000E+00 0. -1.
         21    1    1    2  503  504 -0.58860694753E+00 -0.23049305542E+02 -0.44500237339E+03  0.44559929227E+03  0.00000000000E+00 0. -1.
         21    1    1    2  504  501  0.58860694753E+00  0.23049305542E+02  0.58284612715E+02  0.62679446579E+02  0.00000000000E+00 0.  1.
</event>
<event>
 4    1  0.3099057E+006  0.2984101E+02  0.7546771E-02  0.1420983E+00
         21   -1    0    0  504  501  0.00000000000E+00  0.00000000000E+00  0.27863773387E+01  0.27863773387E+01  0.00000000000E+00 0.  1.
         21   -1    0    0  503  502 -0.00000000000E+00 -0.00000000000E+00 -0.32146420676E+03  0.32146420676E+03  0.00000000000E+00 0.  1.
         21    1    1    2  503  501 -0.29606063400E+02  0.37372364988E+01 -0.17173282915E+03  0.17430619764E+03  0.00000000000E+00 0.  1.
         21    1    1    2  504  502  0.29606063400E+02 -0.37372364988E+01 -0.14694500026E+03  0.14994438646E+03  0.00000000000E+00 0.  1.
</event>
<event>
 4    1  0.3099057E+006  0.2698658E+02  0.7546771E-02  0.1447743E+00
         21   -1    0    0  504  501  0.00000000000E+00  0.00000000000E+00  0.25952084755E+03  0.25952084755E+03  0.00000000000E+00 0.  1.
         21   -1    0    0  503  502 -0.00000000000E+00 -0.00000000000E+00 -0.55199892233E+01  0.55199892233E+01  0.00000000000E+00 0.  1.
         21    1    1    2  503  501 -0.16942999886E+01  0.26933344607E+02  0.21991828522E+03  0.22156788549E+03  0.00000000000E+00 0.  1.
         21    1    1    2  504  502  0.16942999886E+01 -0.26933344607E+02  0.34082573107E+02  0.43472951289E+02  0.00000000000E+00 0.  1.
</event>
<event>
 4    1  0.3099057E+006  0.2117282E+02  0.7546771E-02  0.1516812E+00
         21   -1    0    0  503  501  0.00000000000E+00  0.00000000000E+00  0.56001468079E+03  0.56001468079E+03  0.00000000000E+00 0.  1.
         21   -1    0    0  504  502 -0.00000000000E+00 -0.00000000000E+00 -0.11846495079E+01  0.11846495079E+01  0.00000000000E+00 0.  1.
         21    1    1    2  503  502 -0.21164952850E+02  0.57706270623E+00  0.11962637421E+03  0.12148562728E+03  0.00000000000E+00 0.  1.
         21    1    1    2  504  501  0.21164952850E+02 -0.57706270623E+00  0.43920365708E+03  0.43971370302E+03  0.00000000000E+00 0.  1.
</event>
<event>
 4    1  0.3099057E+006  0.2047974E+02  0.7546771E-02  0.1526824E+00
         21   -1    0    0  503  501  0.00000000000E+00  0.00000000000E+00  0.92278124973E+01  0.92278124973E+01  0.00000000000E+00 0. -1.
         21   -1    0    0  501  502 -0.00000000000E+00 -0.00000000000E+00 -0.48939957847E+02  0.48939957847E+02  0.00000000000E+00 0. -1.
         21    1    1    2  503  504  0.19493611400E+01  0.20386754871E+02 -0.12091370613E+02  0.23782788447E+02  0.00000000000E+00 0. -1.
         21    1    1    2  504  502 -0.19493611400E+01 -0.20386754871E+02 -0.27620774737E+02  0.34384981898E+02  0.00000000000E+00 0. -1.
</event>
<event>
 4    1  0.3099057E+006  0.2628434E+02  0.7546771E-02  0.1454933E+00
         21   -1    0    0  504  501  0.00000000000E+00  0.00000000000E+00  0.10956877914E+02  0.10956877914E+02  0.00000000000E+00 0.  1.
         21   -1    0    0  503  502 -0.00000000000E+00 -0.00000000000E+00 -0.73999678385E+02  0.73999678385E+02  0.00000000000E+00 0. -1.
         21    1    1    2  503  501  0.40418789821E+01  0.25971707916E+02 -0.15183777309E+02  0.30354793545E+02  0.00000000000E+00 0.  1.
         21    1    1    2  504  502 -0.40418789821E+01 -0.25971707916E+02 -0.47859023163E+02  0.54601762754E+02  0.00000000000E+00 0. -1.
</event>
<event>
 4    1  0.3099057E+006  0.2240511E+02  0.7546771E-02  0.1500106E+00
         21   -1    0    0  503  501  0.00000000000E+00  0.00000000000E+00  0.70085460653E+01  0.70085460653E+01  0.00000000000E+00 0.  1.
         21   -1    0    0  504  502 -0.00000000000E+00 -0.00000000000E+00 -0.81740678654E+02  0.81740678654E+02  0.00000000000E+00 0.  1.
         21    1    1    2  503  502 -0.21058671603E+02  0.76499110912E+01 -0.52976243280E+02  0.57519311030E+02  0.00000000000E+00 0.  1.
         21    1    1    2  504  501  0.21058671603E+02 -0.76499110912E+01 -0.21755889309E+02  0.31229913689E+02  0.00000000000E+00 0.  1.
</event>
<event>
 4    1  0.3099057E+006  0.2414143E+02  0.7546771E-02  0.1478642E+00
         21   -1    0    0  502  501  0.00000000000E+00  0.00000000000E+00  0.12280234376E+03  0.12280234376E+03  0.00000000000E+00 0. -1.
         21   -1    0    0  504  502 -0.00000000000E+00 -0.00000000000E+00 -0.59239929174E+02  0.59239929174E+02  0.00000000000E+00 0.  1.
         21    1    1    2  503  501 -0.42844170469E+01  0.23758204548E+02  0.11908023768E+03  0.12150272227E+03  0.00000000000E+00 0. -1.
         21    1    1    2  504  503  0.42844170469E+01 -0.23758204548E+02 -0.55517823098E+02  0.60539550662E+02  0.00000000000E+00 0.  1.
</event>
<event>
 4    1  0.3099057E+006  0.2002595E+02  0.7546771E-02  0.1533639E+00
         21   -1    0    0  503  501  0.00000000000E+00  0.00000000000E+00  0.43130682910E+01  0.43130682910E+01  0.00000000000E+00 0. -1.
         21   -1    0    0  504  502 -0.00000000000E+00 -0.00000000000E+00 -0.10106101633E+03  0.10106101633E+03  0.00000000000E+00 0. -1.
         21    1    1    2  503  502 -0.69070213779E+00 -0.20014039946E+02 -0.33477479753E+02  0.39010005320E+02  0.00000000000E+00 0. -1.
         21    1    1    2  504  501  0.69070213779E+00  0.20014039946E+02 -0.63270468286E+02  0.66364079302E+02  0.00000000000E+00 0. -1.
</event>
<event>
 4    1  0.3099057E+006  0.2199284E+02  0.7546771E-02  0.1505548E+00
         21   -1    0    0  504  501  0.00000000000E+00  0.00000000000E+00  0.43947449882E+02  0.43947449882E+02  0.00000000000E+00 0.  1.
         21   -1    0    0  501  502 -0.00000000000E+00 -0.00000000000E+00 -0.31306395306E+02  0.31306395306E+02  0.00000000000E+00 0.  1.
         21    1    1    2  503  502 -0.16671731720E+02 -0.14343585491E+02 -0.23978909021E+02  0.32537258046E+02  0.00000000000E+00 0.  1.
         21    1    1    2  504  503  0.16671731720E+02  0.14343585491E+02  0.36619963597E+02  0.42716587142E+02  0.00000000000E+00 0.  1.
</event>
<event>
 4    1  0.3099057E+006  0.2269821E+02  0.7546771E-02  0.1496323E+00
         21   -1    0    0  504  501  0.00000000000E+00  0.00000000000E+00  0.56747590696E+02  0.56747590696E+02  0.00000000000E+00 0.  1.
         21   -1    0    0  503  502 -0.00000000000E+00 -0.00000000000E+00 -0.46852597894E+02  0.46852597894E+02  0.00000000000E+00 0. -1.
         21    1    1    2  503  501 -0.19365650453E+02  0.11839769258E+02 -0.41563771042E+02  0.47357740832E+02  0.00000000000E+00 0. -1.
         21    1    1    2  504  502  0.19365650453E+02 -0.11839769258E+02  0.51458763843E+02  0.56242447758E+02  0.00000000000E+00 0.  1.
</event>
<event>
 4    1  0.3099057E+006  0.2164471E+02  0.7546771E-02  0.1510256E+00
         21   -1    0    0  504  501  0.00000000000E+00  0.00000000000E+00  0.55806069227E+03  0.55806069227E+03  0.00000000000E+00 0.  1.
         21   -1    0    0  503  502 -0.00000000000E+00 -0.00000000000E+00 -0.12919052347E+01  0.12919052347E+01  0.00000000000E+00 0. -1.
         21    1    1    2  503  501 -0.13056993739E+02 -0.17262914203E+02  0.44388629651E+03  0.44441370087E+03  0.00000000000E+00 0.  1.
         21    1    1    2  504  502  0.13056993739E+02  0.17262914203E+02  0.11288249053E+03  0.11493889664E+03  0.00000000000E+00 0. -1.
</event>
<event>
 4    1  0.3099057E+006  0.2219949E+02  0.7546771E-02  0.1502802E+00
         21   -1    0    0  504  501  0.00000000000E+00  0.00000000000E+00  0.10087969191E+01  0.10087969191E+01  0.00000000000E+00 0.  1.
         21   -1    0    0  503  502 -0.00000000000E+00 -0.00000000000E+00 -0.78257394544E+03  0.78257394544E+03  0.00000000000E+00 0. -1.
         21    1    1    2  503  501 -0.22023742034E+02 -0.27878667074E+01 -0.63094536509E+03  0.63133578319E+03  0.00000000000E+00 0. -1.
         21    1    1    2  504  502  0.22023742034E+02  0.27878667074E+01 -0.15061978344E+03  0.15224695917E+03  0.00000000000E+00 0.  1.
</event>
<event>
 4    1  0.3099057E+006  0.2363887E+02  0.7546771E-02  0.1484628E+00
         21   -1    0    0  502  501  0.00000000000E+00  0.00000000000E+00  0.95023002564E+02  0.95023002564E+02  0.00000000000E+00 0. -1.
         21   -1    0    0  504  502 -0.00000000000E+00 -0.00000000000E+00 -0.18876567712E+02  0.18876567712E+02  0.00000000000E+00 0. -1.
         21    1    1    2  503  501  0.22042990130E+02 -0.85383214274E+01  0.85326737877E+02  0.88540660396E+02  0.00000000000E+00 0. -1.
         21    1    1    2  504  503 -0.22042990130E+02  0.85383214274E+01 -0.91803030247E+01  0.25358909879E+02  0.00000000000E+00 0. -1.
</event>
<event>
 4    1  0.3099057E+006  0.2609536E+02  0.7546771E-02  0.1456913E+00
         21   -1    0    0  504  501  0.00000000000E+00  0.00000000000E+00  0.31357560608E+03  0.31357560608E+03  0.00000000000E+00 0.  1.
         21   -1    0    0  501  502 -0.00000000000E+00 -0.00000000000E+00 -0.45592455095E+01  0.45592455095E+01  0.00000000000E+00 0.  1.
         21    1    1    2  503  502 -0.18413685265E+02  0.18490645077E+02  0.39396958189E+02  0.47255561313E+02  0.00000000000E+00 0.  1.
         21    1    1    2  504  503  0.18413685265E+02 -0.18490645077E+02  0.26961940238E+03  0.27087929028E+03  0.00000000000E+00 0.  1.
</event>
<event>
 4    1  0.3099057E+006  0.3228803E+02  0.7546771E-02  0.1400702E+00
         21   -1    0    0  502  501  0.00000000000E+00  0.00000000000E+00  0.75167931481E+02  0.75167931481E+02  0.00000000000E+00 0.  1.
         21   -1    0    0  504  502 -0.00000000000E+00 -0.00000000000E+00 -0.32910605344E+03  0.32910605344E+03  0.00000000000E+00 0. -1.
         21    1    1    2  503  501  0.27747329024E+02 -0.16510672710E+02  0.70862865053E+02  0.77872088869E+02  0.00000000000E+00 0.  1.
         21    1    1    2  504  503 -0.27747329024E+02  0.16510672710E+02 -0.32480098702E+03  0.32640189605E+03  0.00000000000E+00 0. -1.
</event>
<event>
 4    1  0.3099057E+006  0.4145920E+02  0.7546771E-02  0.1340141E+00
         21   -1    0    0  502  501  0.00000000000E+00  0.00000000000E+00  0.42165985508E+01  0.42165985508E+01  0.00000000000E+00 0.  1.
         21   -1    0    0  504  502 -0.00000000000E+00 -0.00000000000E+00 -0.44612509294E+03  0.44612509294E+03  0.00000000000E+00 0.  1.
         21    1    1    2  503  501  0.27773138026E+02 -0.30781782145E+02 -0.15482169500E+03  0.16027670620E+03  0.00000000000E+00 0.  1.
         21    1    1    2  504  503 -0.27773138026E+02  0.30781782145E+02 -0.28708679939E+03  0.29006498529E+03  0.00000000000E+00 0.  1.
</event>
<event>
 4    1  0.3099057E+006  0.2080961E+02  0.7546771E-02  0.1522001E+00
         21   -1    0    0  503  501  0.00000000000E+00  0.00000000000E+00  0.80121445385E+02  0.80121445385E+02  0.00000000000E+00 0. -1.
         21   -1    0    0  504  502 -0.00000000000E+00 -0.00000000000E+00 -0.70147828534E+01  0.70147828534E+01  0.00000000000E+00 0. -1.
         21    1    1    2  503  502  0.14697871195E+02  0.14731346903E+02  0.15680905481E+02  0.26056300504E+02  0.00000000000E+00 0. -1.
         21    1    1    2  504  501 -0.14697871195E+02 -0.14731346903E+02  0.57425757050E+02  0.61079927734E+02  0.00000000000E+00 0. -1.
</event>
<event>
 4    1  0.3099057E+006  0.4123442E+02  0.7546771E-02  0.1341400E+00
         21   -1    0    0  504  501  0.00000000000E+00  0.00000000000E+00  0.18750905115E+03  0.18750905115E+03  0.00000000000E+00 0.  1.
         21   -1    0    0  503  502 -0.00000000000E+00 -0.00000000000E+00 -0.19224688623E+02  0.19224688623E+02  0.00000000000E+00 0.  1.
         21    1    1    2  503  501 -0.41159031623E+02 -0.24922880701E+01  0.15927574921E+03  0.16452672024E+03  0.00000000000E+00 0.  1.
         21    1    1    2  504  502  0.41159031623E+02  0.24922880701E+01  0.90086133086E+01  0.42207019532E+02  0.00000000000E+00 0.  1.
</event>
<event>
 4    1  0.3099057E+006  0.2517394E+02  0.7546771E-02  0.1466867E+00
         21   -1    0    0  503  501  0.00000000000E+00  0.00000000000E+00  0.35164576429E+03  0.35164576429E+03  0.00000000000E+00 0.  1.
         21   -1    0    0  504  502 -0.00000000000E+00 -0.00000000000E+00 -0.20838612027E+01  0.20838612027E+01  0.00000000000E+00 0. -1.
         21    1    1    2  503  502 -0.97911399007E+01  0.23191826164E+02  0.23980736430E+03  0.24112506961E+03  0.00000000000E+00 0.  1.
         21    1    1    2  504  501  0.97911399007E+01 -0.23191826164E+02  0.10975453879E+03  0.11260455588E+03  0.00000000000E+00 0. -1.
</event>
<event>
 4    1  0.3099057E+006  0.2236304E+02  0.7546771E-02  0.1500655E+00
         21   -1    0    0  503  501  0.00000000000E+00  0.00000000000E+00  0.35957550824E+03  0.35957550824E+03  0.00000000000E+00 0. -1.
         21   -1    0    0  504  502 -0.00000000000E+00 -0.00000000000E+00 -0.21673368668E+01  0.21673368668E+01  0.00000000000E+00 0. -1.
         21    1    1    2  503  502  0.83615646839E+01 -0.20741017644E+02  0.28696746879E+03  0.28783751271E+03  0.00000000000E+00 0. -1.
         21    1    1    2  504  501 -0.83615646839E+01  0.20741017644E+02  0.70440702577E+02  0.73905332395E+02  0.00000000000E+00 0. -1.
</event>
<event>
 4    1  0.3099057E+006  0.3736877E+02  0.7546771E-02  0.1364635E+00
         21   -1    0    0  504  501  0.00000000000E+00  0.00000000000E+00  0.19410734410E+02  0.19410734410E+02  0.00000000000E+00 0.  1.
         21   -1    0    0  503  502 -0.00000000000E+00 -0.00000000000E+00 -0.11486629297E+03  0.11486629297E+03  0.00000000000E+00 0.  1.
         21    1    1    2  503  501  0.37155736432E+02 -0.39844920003E+01 -0.66853780069E+01  0.37962075883E+02  0.00000000000E+00 0.  1.
         21    1    1    2  504  502 -0.37155736432E+02  0.39844920003E+01 -0.88770180552E+02  0.96314951495E+02  0.00000000000E+00 0.  1.
</event>
<event>
 4    1  0.3099057E+006  0.2571508E+02  0.7546771E-02  0.1460961E+00
         21   -1    0    0  504  501  0.00000000000E+00  0.00000000000E+00  0.10891130570E+03  0.10891130570E+03  0.00000000000E+00 0. -1.
         21   -1    0    0  503  502 -0.00000000000E+00 -0.00000000000E+00 -0.25181478264E+02  0.25181478264E+02  0.00000000000E+00 0.  1.
         21    1    1    2  503  501  0.13805505199E+02 -0.21695003234E+02 -0.16541943607E+02  0.30576151449E+02  0.00000000000E+00 0.  1.
         21    1    1    2  504  502 -0.13805505199E+02  0.21695003234E+02  0.10027177105E+03  0.10351663252E+03  0.00000000000E+00 0. -1.
</event>
<event>
 4    1  0.3099057E+006  0.2043733E+02  0.7546771E-02  0.1527452E+00
         21   -1    0    0  503  501  0.00000000000E+00  0.00000000000E+00  0.65456907794E+02  0.65456907794E+02  0.00000000000E+00 0. -1.
         21   -1    0    0  501  502 -0.00000000000E+00 -0.00000000000E+00 -0.48364992863E+02  0.48364992863E+02  0.00000000000E+00 0. -1.
         21    1    1    2  503  504 -0.10743997284E+02 -0.17385364237E+02  0.61569878526E+02  0.64873217194E+02  0.00000000000E+00 0. -1.
         21    1    1    2  504  502  0.10743997284E+02  0.17385364237E+02 -0.44477963595E+02  0.48948683464E+02  0.00000000000E+00 0. -1.
</event>
<event>
 4    1  0.3099057E+006  0.2981475E+02  0.7546771E-02  0.1421213E+00
         21   -1    0    0  504  501  0.00000000000E+00  0.00000000000E+00  0.87101711765E+01  0.87101711765E+01  0.00000000000E+00 0.  1.
         21   -1    0    0  503  502 -0.00000000000E+00 -0.00000000000E+00 -0.17533581434E+03  0.17533581434E+03  0.00000000000E+00 0. -1.
         21    1    1    2  503  501 -0.24860242386E+02 -0.16458668693E+02 -0.23821284463E+02  0.38162455635E+02  0.00000000000E+00 0.  1.
         21    1    1    2  504  502  0.24860242386E+02  0.16458668693E+02 -0.14280435870E+03  0.14588352988E+03  0.00000000000E+00 0. -1.
</event>
<event>
 4    1  0.3099057E+006  0.2820999E+02  0.7546771E-02  0.1435818E+00
         21   -1    0    0  502  501  0.00000000000E+00  0.00000000000E+00  0.68080222151E+02  0.68080222151E+02  0.00000000000E+00 0.  1.
         21   -1    0    0  503  502 -0.00000000000E+00 -0.00000000000E+00 -0.45268551999E+02  0.45268551999E+02  0.00000000000E+00 0. -1.
         21    1    1    2  503  504 -0.92436992363E+01  0.26652533324E+02 -0.37405947640E+02  0.46850917035E+02  0.00000000000E+00 0. -1.
         21    1    1    2  504  501  0.92436992363E+01 -0.26652533324E+02  0.60217617793E+02  0.66497857115E+02  0.00000000000E+00 0.  1.
</event>
<event>
 4    1  0.3099057E+006  0.2016978E+02  0.7546771E-02  0.1531456E+00
         21   -1    0    0  503  501  0.00000000000E+00  0.00000000000E+00  0.38373071664E+03  0.38373071664E+03  0.00000000000E+00 0. -1.
         21   -1    0    0  501  502 -0.00000000000E+00 -0.00000000000E+00 -0.40287369630E+01  0.40287369630E+01  0.00000000000E+00 0. -1.
         21    1    1    2  503  504  0.89435801640E+01 -0.18078506178E+02  0.35627704761E+03  0.35684752299E+03  0.00000000000E+00 0. -1.
         21    1    1    2  504  502 -0.89435801640E+01  0.18078506178E+02  0.23424932069E+02  0.30911930613E+02  0.00000000000E+00 0. -1.
</event>
<event>
 4    1  0.3099057E+006  0.2221877E+02  0.7546771E-02  0.1502548E+00
         21   -1    0    0  503  501  0.00000000000E+00  0.00000000000E+00  0.99688031278E+02  0.99688031278E+02  0.00000000000E+00 0. -1.
         21   -1    0    0  504  502 -0.00000000000E+00 -0.00000000000E+00 -0.55206092010E+01  0.55206092010E+01  0.00000000000E+00 0.  1.
         21    1    1    2  503  502 -0.20021373498E+02 -0.96342232768E+01  0.63963378143E+02  0.67712535016E+02  0.00000000000E+00 0. -1.
         21    1    1    2  504  501  0.20021373498E+02  0.96342232768E+01  0.30204043934E+02  0.37496105463E+02  0.00000000000E+00 0.  1.
</event>
<event>
 4    1  0.3099057E+006  0.2058171E+02  0.7546771E-02  0.1525322E+00
         21   -1    0    0  504  501  0.00000000000E+00  0.00000000000E+00  0.19798795524E+03  0.19798795524E+03  0.00000000000E+00 0.  1.
         21   -1    0    0  503  502 -0.00000000000E+00 -0.00000000000E+00 -0.22216927624E+01  0.22216927624E+01  0.00000000000E+00 0. -1.
         21    1    1    2  503  501 -0.11220349733E+02  0.17254289998E+02  0.11713069359E+03  0.11892521243E+03  0.00000000000E+00 0.  1.
         21    1    1    2  504  502  0.11220349733E+02 -0.17254289998E+02  0.78635568888E+02  0.81284435569E+02  0.00000000000E+00 0. -1.
</event>
<event>
 4    1  0.3099057E+006  0.3082445E+02  0.7546771E-02  0.1412564E+00
         21   -1    0    0  503  501  0.00000000000E+00  0.00000000000E+00  0.16686953345E+03  0.16686953345E+03  0.00000000000E+00 0. -1.
         21   -1    0    0  504  502 -0.00000000000E+00 -0.00000000000E+00 -0.10507370464E+03  0.10507370464E+03  0.00000000000E+00 0.  1.
         21    1    1    2  503  502 -0.29877600513E+02 -0.75812892240E+01 -0.10133823796E+03  0.10592254449E+03  0.00000000000E+00 0.  1.
         21    1    1    2  504  501  0.29877600513E+02  0.75812892240E+01  0.16313406678E+03  0.16602069359E+03  0.00000000000E+00 0. -1.
</event>
<event>
 4    1  0.3099057E+006  0.2805060E+02  0.7546771E-02  0.1437331E+00
         21   -1    0    0  503  501  0.00000000000E+00  0.00000000000E+00  0.37710724629E+01  0.37710724629E+01  0.00000000000E+00 0. -1.
         21   -1    0    0  504  502 -0.00000000000E+00 -0.00000000000E+00 -0.28009206141E+03  0.28009206141E+03  0.00000000000E+00 0. -1.
         21    1    1    2  503  502 -0.26374904573E+02 -0.95499072313E+01 -0.66479514532E+02  0.72155125749E+02  0.00000000000E+00 0. -1.
         21    1    1    2  504  501  0.26374904573E+02  0.95499072313E+01 -0.20984147442E+03  0.21170800813E+03  0.00000000000E+00 0. -1.
</event>
<event>
 4    1  0.3099057E+006  0.2533431E+02  0.7546771E-02  0.1465098E+00
         21   -1    0    0  502  501  0.00000000000E+00  0.00000000000E+00  0.13810446520E+03  0.13810446520E+03  0.00000000000E+00 0. -1.
         21   -1    0    0  503  502 -0.00000000000E+00 -0.00000000000E+00 -0.90572756345E+01  0.90572756345E+01  0.00000000000E+00 0. -1.
         21    1    1    2  503  504  0.17175252492E+02 -0.18623582970E+02  0.13180843251E+02  0.28558042118E+02  0.00000000000E+00 0. -1.
         21    1    1    2  504  501 -0.17175252492E+02  0.18623582970E+02  0.11586634631E+03  0.11860369871E+03  0.00000000000E+00 0. -1.
</event>
<event>
 4    1  0.3099057E+006  0.2240471E+02  0.7546771E-02  0.1500112E+00
         21   -1    0    0  503  501  0.00000000000E+00  0.00000000000E+00  0.71550340722E+02  0.71550340722E+02  0.00000000000E+00 0. -1.
         21   -1    0    0  501  502 -0.00000000000E+00 -0.00000000000E+00 -0.53202534289E+02  0.53202534289E+02  0.00000000000E+00 0.  1.
         21    1    1    2  503  504  0.21099000109E+02  0.75367795837E+01  0.67292326744E+02  0.70924100916E+02  0.00000000000E+00 0. -1.
         21    1    1    2  504  502 -0.21099000109E+02 -0.75367795837E+01 -0.48944520312E+02  0.53828774095E+02  0.00000000000E+00 0.  1.
</event>
<event>
 4    1  0.3099057E+006  0.2530765E+02  0.7546771E-02  0.1465391E+00
         21   -1    0    0  504  501  0.00000000000E+00  0.00000000000E+00  0.11765337300E+03  0.11765337300E+03  0.00000000000E+00 0.  1.
         21   -1    0    0  503  502 -0.00000000000E+00 -0.00000000000E+00 -0.10808395292E+02  0.10808395292E+02  0.00000000000E+00 0.  1.
         21    1    1    2  503  501 -0.25276600355E+02  0.12531696849E+01  0.81709543406E+01  0.26594011631E+02  0.00000000000E+00 0.  1.
         21    1    1    2  504  502  0.25276600355E+02 -0.12531696849E+01  0.98674023366E+02  0.10186775666E+03  0.00000000000E+00 0.  1.
</event>
<event>
 4    1  0.3099057E+006  0.5012066E+02  0.7546771E-02  0.1297650E+00
         21   -1    0    0  504  501  0.00000000000E+00  0.00000000000E+00  0.52583536640E+03  0.52583536640E+03  0.00000000000E+00 0. -1.
         21   -1    0    0  503  502 -0.00000000000E+00 -0.00000000000E+00 -0.17287990676E+02  0.17287990676E+02  0.00000000000E+00 0.  1.
         21    1    1    2  503  501 -0.33661698194E+02 -0.37134492446E+02  0.48528680035E+03  0.48786817794E+03  0.00000000000E+00 0. -1.
         21    1    1    2  504  502  0.33661698194E+02  0.37134492446E+02  0.23260575375E+02  0.55255179135E+02  0.00000000000E+00 0.  1.
</event>
<event>
 4    1  0.3099057E+006  0.3002464E+02  0.7546771E-02  0.1419382E+00
         21   -1    0    0  502  501  0.00000000000E+00  0.00000000000E+00  0.66290599710E+02  0.66290599710E+02  0.00000000000E+00 0.  1.
         21   -1    0    0  503  502 -0.00000000000E+00 -0.00000000000E+00 -0.37981901552E+02  0.37981901552E+02  0.00000000000E+00 0. -1.
         21    1    1    2  503  504  0.23378468316E+02  0.18839487149E+02 -0.27618591781E+02  0.40795412350E+02  0.00000000000E+00 0. -1.
         21    1    1    2  504  501 -0.23378468316E+02 -0.18839487149E+02  0.55927289939E+02  0.63477088912E+02  0.00000000000E+00 0.  1.
</event>
<event>
 4    1  0.3099057E+006  0.2607599E+02  0.7546771E-02  0.1457117E+00
         21   -1    0    0  503  501  0.00000000000E+00  0.00000000000E+00  0.81845865558E+01  0.81845865558E+01  0.00000000000E+00 0.  1.
         21   -1    0    0  504  502 -0.00000000000E+00 -0.00000000000E+00 -0.20818791662E+03  0.20818791662E+03  0.00000000000E+00 0. -1.
         21    1    1    2  503  502 -0.24646199934E+02 -0.85159868475E+01 -0.16134767053E+02  0.30664114385E+02  0.00000000000E+00 0.  1.
         21    1    1    2  504  501  0.24646199934E+02  0.85159868475E+01 -0.18386856301E+03  0.18570838879E+03  0.00000000000E+00 0. -1.
</event>
<event>
 4    1  0.3099057E+006  0.3026515E+02  0.7546771E-02  0.1417306E+00
         21   -1    0    0  504  501  0.00000000000E+00  0.00000000000E+00  0.54328580459E+01  0.54328580459E+01  0.00000000000E+00 0.  1.
         21   -1    0    0  503  502 -0.00000000000E+00 -0.00000000000E+00 -0.19265812582E+03  0.19265812582E+03  0.00000000000E+00 0.  1.
         21    1    1    2  503  501 -0.40821221377E+01  0.29988587235E+02 -0.12861305271E+03  0.13212606258E+03  0.00000000000E+00 0.  1.
         21    1    1    2  504  502  0.40821221377E+01 -0.29988587235E+02 -0.58612215062E+02  0.65964921283E+02  0.00000000000E+00 0.  1.
</event>
<event>
 4    1  0.3099057E+006  0.5879576E+02  0.7546771E-02  0.1263980E+00
         21   -1    0    0  504  501  0.00000000000E+00  0.00000000000E+00  0.29644419254E+03  0.29644419254E+03  0.00000000000E+00 0. -1.
         21   -1    0    0  503  502 -0.00000000000E+00 -0.00000000000E+00 -0.33292840416E+02  0.33292840416E+02  0.00000000000E+00 0. -1.
         21    1    1    2  503  501  0.57658132052E+02  0.11510060533E+02  0.26446970031E+03  0.27092649200E+03  0.00000000000E+00 0. -1.
         21    1    1    2  504  502 -0.57658132052E+02 -0.11510060533E+02 -0.13183481902E+01  0.58810540953E+02  0.00000000000E+00 0. -1.
</event>
<event>
 4    1  0.3099057E+006  0.2415210E+02  0.7546771E-02  0.1478517E+00
         21   -1    0    0  503  501  0.00000000000E+00  0.00000000000E+00  0.35393965989E+01  0.35393965989E+01  0.00000000000E+00 0.  1.
         21   -1    0    0  504  502 -0.00000000000E+00 -0.00000000000E+00 -0.30348293399E+03  0.30348293399E+03  0.00000000000E+00 0.  1.
         21    1    1    2  503  502  0.20151539884E+02 -0.13313134890E+02 -0.46202112133E+02  0.52134051117E+02  0.00000000000E+00 0.  1.
         21    1    1    2  504  501 -0.20151539884E+02  0.13313134890E+02 -0.25374142526E+03  0.25488827947E+03  0.00000000000E+00 0.  1.
</event>
<event>
 4    1  0.3099057E+006  0.2175177E+02  0.7546771E-02  0.1508797E+00
         21   -1    0    0  502  501  0.00000000000E+00  0.00000000000E+00  0.15906189349E+02  0.15906189349E+02  0.00000000000E+00 0.  1.
         21   -1    0    0  503  502 -0.00000000000E+00 -0.00000000000E+00 -0.10404454178E+03  0.10404454178E+03  0.00000000000E+00 0. -1.
         21    1    1    2  503  504  0.12495805968E+00  0.21751407936E+02 -0.94751267565E+02  0.97215955825E+02  0.00000000000E+00 0. -1.
         21    1    1    2  504  501 -0.12495805968E+00 -0.21751407936E+02  0.66129151321E+01  0.22734775307E+02  0.00000000000E+00 0.  1.
</event>
<event>
 4    1  0.3099057E+006  0.2314023E+02  0.7546771E-02  0.1490745E+00
         21   -1    0    0  503  501  0.00000000000E+00  0.00000000000E+00  0.10485187285E+04  0.10485187285E+04  0.00000000000E+00 0. -1.
         21   -1    0    0  504  502 -0.00000000000E+00 -0.00000000000E+00 -0.52422249197E+00  0.52422249197E+00  0.00000000000E+00 0. -1.
         21    1    1    2  503  502  0.18224527936E+02  0.14259621035E+02  0.43972958874E+03  0.44033803086E+03  0.00000000000E+00 0. -1.
         21    1    1    2  504  501 -0.18224527936E+02 -0.14259621035E+02  0.60826491730E+03  0.60870492016E+03  0.00000000000E+00 0. -1.
</event>
<event>
 4    1  0.3099057E+006  0.2231101E+02  0.7546771E-02  0.1501336E+00
         21   -1    0    0  504  501  0.00000000000E+00  0.00000000000E+00  0.33218970401E+02  0.33218970401E+02  0.00000000000E+00 0. -1.
         21   -1    0    0  503  502 -0.00000000000E+00 -0.00000000000E+00 -0.20194883294E+02  0.20194883294E+02  0.00000000000E+00 0. -1.
         21    1    1    2  503  501 -0.22120781208E+02 -0.29072699100E+01 -0.70530761059E+01  0.23399296189E+02  0.00000000000E+00 0. -1.
         21    1    1    2  504  502  0.22120781208E+02  0.29072699100E+01  0.20077163213E+02  0.30014557505E+02  0.00000000000E+00 0. -1.
</event>
<event>
 4    1  0.3099057E+006  0.2011265E+02  0.7546771E-02  0.1532321E+00
         21   -1    0    0  504  501  0.00000000000E+00  0.00000000000E+00  0.45424677775E+01  0.45424677775E+01  0.00000000000E+00 0.  1.
         21   -1    0    0  501  502 -0.00000000000E+00 -0.00000000000E+00 -0.89060079356E+02  0.89060079356E+02  0.00000000000E+00 0.  1.
         21    1    1    2  503  502  0.97100309278E+01 -0.17613464549E+02 -0.42686002852E+02  0.47187007466E+02  0.00000000000E+00 0.  1.
         21    1    1    2  504  503 -0.97100309278E+01  0.17613464549E+02 -0.41831608726E+02  0.46415539668E+02  0.00000000000E+00 0.  1.
</event>
<event>
 4    1  0.3099057E+006  0.3452670E+02  0.7546771E-02  0.1383921E+00
         21   -1    0    0  504  501  0.00000000000E+00  0.00000000000E+00  0.63541791553E+02  0.63541791553E+02  0.00000000000E+00 0. -1.
         21   -1    0    0  503  502 -0.00000000000E+00 -0.00000000000E+00 -0.18844069928E+02  0.18844069928E+02  0.00000000000E+00 0. -1.
         21    1    1    2  503  501 -0.20433217433E+02 -0.27831220088E+02  0.25087579428E+02  0.42678798341E+02  0.00000000000E+00 0. -1.
         21    1    1    2  504  502  0.20433217433E+02  0.27831220088E+02  0.19610142197E+02  0.39707063140E+02  0.00000000000E+00 0. -1.
</event>
<event>
 4    1  0.3099057E+006  0.2010405E+02  0.7546771E-02  0.1532451E+00
         21   -1    0    0  503  501  0.00000000000E+00  0.00000000000E+00  0.16608534152E+03  0.16608534152E+03  0.00000000000E+00 0. -1.
         21   -1    0    0  501  502 -0.00000000000E+00 -0.00000000000E+00 -0.54116542689E+01  0.54116542689E+01  0.00000000000E+00 0. -1.
         21    1    1    2  503  504 -0.18739401278E+02  0.72806480195E+01  0.14394798663E+03  0.14534509228E+03  0.00000000000E+00 0. -1.
         21    1    1    2  504  502  0.18739401278E+02 -0.72806480195E+01  0.16725700628E+02  0.26151903513E+02  0.00000000000E+00 0. -1.
</event>
<event>
 4    1  0.3099057E+006  0.2165990E+02  0.7546771E-02  0.1510048E+00
         21   -1    0    0  502  501  0.00000000000E+00  0.00000000000E+00  0.27718142888E+03  0.27718142888E+03  0.00000000000E+00 0. -1.
         21   -1    0    0  504  502 -0.00000000000E+00 -0.00000000000E+00 -0.39806019212E+02  0.39806019212E+02  0.00000000000E+00 0.  1.
         21    1    1    2  503  501 -0.16167628223E+02  0.14413842672E+02  0.27377519924E+03  0.27463068070E+03  0.00000000000E+00 0. -1.
         21    1    1    2  504  503  0.16167628223E+02 -0.14413842672E+02 -0.36399789572E+02  0.42356767391E+02  0.00000000000E+00 0.  1.
</event>
<event>
 4    1  0.3099057E+006  0.2666397E+02  0.7546771E-02  0.1451013E+00
         21   -1    0    0  502  501  0.00000000000E+00  0.00000000000E+00  0.27539796316E+02  0.27539796316E+02  0.00000000000E+00 0.  1.
         21   -1    0    0  503  502 -0.00000000000E+00 -0.00000000000E+00 -0.21300883694E+03  0.21300883694E+03  0.00000000000E+00 0.  1.
         21    1    1    2  503  504  0.80907582046E+01 -0.25406824001E+02 -0.20548508186E+03  0.20720783272E+03  0.00000000000E+00 0.  1.
         21    1    1    2  504  501 -0.80907582046E+01  0.25406824001E+02  0.20016041229E+02  0.33340800540E+02  0.00000000000E+00 0.  1.
</event>
<event>
 4    1  0.3099057E+006  0.2294569E+02  0.7546771E-02  0.1493181E+00
         21   -1    0    0  503  501  0.00000000000E+00  0.00000000000E+00  0.78407582181E+02  0.78407582181E+02  0.00000000000E+00 0.  1.
         21   -1    0    0  504  502 -0.00000000000E+00 -0.00000000000E+00 -0.68285911731E+01  0.68285911731E+01  0.00000000000E+00 0.  1.
         21    1    1    2  503  502  0.10106212273E+02 -0.20600224308E+02  0.41286840682E+02  0.47234605762E+02  0.00000000000E+00 0.  1.
         21    1    1    2  504  501 -0.10106212273E+02  0.20600224308E+02  0.30292150326E+02  0.38001567592E+02  0.00000000000E+00 0.  1.
</event>
<event>
 4    1  0.3099057E+006  0.2312987E+02  0.7546771E-02  0.1490874E+00
         21   -1    0    0  504  501  0.00000000000E+00  0.00000000000E+00  0.51710972145E+02  0.51710972145E+02  0.00000000000E+00 0.  1.
         21   -1    0    0  501  502 -0.00000000000E+00 -0.00000000000E+00 -0.27411428680E+02  0.27411428680E+02  0.00000000000E+00 0. -1.
         21    1    1    2  503  502 -0.19160203175E+02  0.12956746153E+02 -0.19065343904E+02  0.29974622512E+02  0.00000000000E+00 0. -1.
         21    1    1    2  504  503  0.19160203175E+02 -0.12956746153E+02  0.43364887369E+02  0.49147778313E+02  0.00000000000E+00 0.  1.
</event>
<event>
 4    1  0.3099057E+006  0.3057647E+02  0.7546771E-02  0.1414652E+00
         21   -1    0    0  503  501  0.00000000000E+00  0.00000000000E+00  0.12208309335E+03  0.12208309335E+03  0.00000000000E+00 0.  1.
         21   -1    0    0  501  502 -0.00000000000E+00 -0.00000000000E+00 -0.14586573523E+02  0.14586573523E+02  0.00000000000E+00 0.  1.
         21    1    1    2  503  504  0.10997604587E+02 -0.28530219431E+02  0.10084439368E+03  0.10537795056E+03  0.00000000000E+00 0.  1.
         21    1    1    2  504  502 -0.10997604587E+02  0.28530219431E+02  0.66521261438E+01  0.31291716311E+02  0.00000000000E+00 0.  1.
</event>
<event>
 4    1  0.3099057E+006  0.2615149E+02  0.7546771E-02  0.1456323E+00
         21   -1    0    0  503  501  0.00000000000E+00  0.00000000000E+00  0.13596425852E+02  0.13596425852E+02  0.00000000000E+00 0.  1.
         21   -1    0    0  501  502 -0.00000000000E+00 -0.00000000000E+00 -0.79768848754E+02  0.79768848754E+02  0.00000000000E+00 0. -1.
         21    1    1    2  503  504 -0.73290135683E+01 -0.25103505945E+02 -0.47122364863E+01  0.26572648030E+02  0.00000000000E+00 0.  1.
         21    1    1    2  504  502  0.73290135683E+01  0.25103505945E+02 -0.61460186416E+02  0.66792626576E+02  0.00000000000E+00 0. -1.
</event>
<event>
 4    1  0.3099057E+006  0.2590508E+02  0.7546771E-02  0.1458928E+00
         21   -1    0    0  502  501  0.00000000000E+00  0.00000000000E+00  0.31228601353E+01  0.31228601353E+01  0.00000000000E+00 0. -1.
         21   -1    0    0  503  502 -0.00000000000E+00 -0.00000000000E+00 -0.33406087867E+03  0.33406087867E+03  0.00000000000E+00 0.  1.
         21    1    1    2  503  504  0.92214156290E+01  0.24208236335E+02 -0.26616399351E+03  0.26742166078E+03  0.00000000000E+00 0.  1.
         21    1    1    2  504  501 -0.92214156290E+01 -0.24208236335E+02 -0.64774025025E+02  0.69762078026E+02  0.00000000000E+00 0. -1.
</event>
<event>
 4    1  0.3099057E+006  0.3084462E+02  0.7546771E-02  0.1412396E+00
         21   -1    0    0  504  501  0.00000000000E+00  0.00000000000E+00  0.17685554318E+02  0.17685554318E+02  0.00000000000E+00 0. -1.
         21   -1    0    0  503  502 -0.00000000000E+00 -0.00000000000E+00 -0.75766176300E+02  0.75766176300E+02  0.00000000000E+00 0. -1.
         21    1    1    2  503  501  0.11792137864E+02  0.28501510014E+02 -0.54202501667E+02  0.62364266815E+02  0.00000000000E+00 0. -1.
         21    1    1    2  504  502 -0.11792137864E+02 -0.28501510014E+02 -0.38781203150E+01  0.31087463802E+02  0.00000000000E+00 0. -1.
</event>
<event>
 4    1  0.3099057E+006  0.2250777E+02  0.7546771E-02  0.1498773E+00
         21   -1    0    0  504  501  0.00000000000E+00  0.00000000000E+00  0.78051831672E+01  0.78051831672E+01  0.00000000000E+00 0.  1.
         21   -1    0    0  501  502 -0.00000000000E+00 -0.00000000000E+00 -0.72589737521E+02  0.72589737521E+02  0.00000000000E+00 0.  1.
         21    1    1    2  503  502 -0.21891511951E+02 -0.52307926100E+01 -0.45470862631E+02  0.50736563100E+02  0.00000000000E+00 0.  1.
         21    1    1    2  504  503  0.21891511951E+02  0.52307926100E+01 -0.19313691723E+02  0.29658357588E+02  0.00000000000E+00 0.  1.
</event>
<event>
 4    1  0.3099057E+006  0.2792632E+02  0.7546771E-02  0.1438519E+00
         21   -1    0    0  504  501  0.00000000000E+00  0.00000000000E+00  0.39149095667E+02  0.39149095667E+02  0.00000000000E+00 0.  1.
         21   -1    0    0  503  502 -0.00000000000E+00 -0.00000000000E+00 -0.18109892873E+03  0.18109892873E+03  0.00000000000E+00 0.  1.
         21    1    1    2  503  501 -0.24438158583E+02  0.13515019453E+02 -0.17486574447E+03  0.17708164200E+03  0.00000000000E+00 0.  1.
         21    1    1    2  504  502  0.24438158583E+02 -0.13515019453E+02  0.32915911403E+02  0.43166382397E+02  0.00000000000E+00 0.  1.
</event>
<event>
 4    1  0.3099057E+006  0.2473578E+02  0.7546771E-02  0.1471781E+00
         21   -1    0    0  504  501  0.00000000000E+00  0.00000000000E+00  0.16607527308E+03  0.16607527308E+03  0.00000000000E+00 0.  1.
         21   -1    0    0  503  502 -0.00000000000E+00 -0.00000000000E+00 -0.31885068418E+03  0.31885068418E+03  0.00000000000E+00 0. -1.
         21    1    1    2  503  501 -0.65220351183E+01 -0.23860461900E+02  0.16467040943E+03  0.16651787390E+03  0.00000000000E+00 0.  1.
         21    1    1    2  504  502  0.65220351183E+01  0.23860461900E+02 -0.31744582052E+03  0.31840808337E+03  0.00000000000E+00 0. -1.
</event>
<event>
 4    1  0.3099057E+006  0.3101101E+02  0.7546771E-02  0.1411009E+00
         21   -1    0    0  504  501  0.00000000000E+00  0.00000000000E+00  0.17969231186E+01  0.17969231186E+01  0.00000000000E+00 0. -1.
         21   -1    0    0  503  502 -0.00000000000E+00 -0.00000000000E+00 -0.63467259394E+03  0.63467259394E+03  0.00000000000E+00 0. -1.
         21    1    1    2  503  501  0.17502108932E+02 -0.25599978660E+02 -0.19044044620E+03  0.19294881776E+03  0.00000000000E+00 0. -1.
         21    1    1    2  504  502 -0.17502108932E+02  0.25599978660E+02 -0.44243522462E+03  0.44352069930E+03  0.00000000000E+00 0. -1.
</event>
<event>
 4    1  0.3099057E+006  0.3916351E+02  0.7546771E-02  0.1353459E+00
         21   -1    0    0  504  501  0.00000000000E+00  0.00000000000E+00  0.10702733909E+03  0.10702733909E+03  0.00000000000E+00 0. -1.
         21   -1    0    0  503  502 -0.00000000000E+00 -0.00000000000E+00 -0.29058906196E+02  0.29058906196E+02  0.00000000000E+00 0.  1.
         21    1    1    2  503  501  0.26638255969E+02 -0.28708599212E+02 -0.94574447683E+01  0.40289249327E+02  0.00000000000E+00 0.  1.
         21    1    1    2  504  502 -0.26638255969E+02  0.28708599212E+02  0.87425877665E+02  0.95796995962E+02  0.00000000000E+00 0. -1.
</event>
<event>
 4    1  0.3099057E+006  0.2125543E+02  0.7546771E-02  0.1515649E+00
         21   -1    0    0  502  501  0.00000000000E+00  0.00000000000E+00  0.62720589106E+02  0.62720589106E+02  0.00000000000E+00 0.  1.
         21   -1    0    0  503  502 -0.00000000000E+00 -0.00000000000E+00 -0.86746248401E+01  0.86746248401E+01  0.00000000000E+00 0.  1.
         21    1    1    2  503  504  0.17552365482E+02 -0.11987815522E+02  0.12321109395E+02  0.24568333108E+02  0.00000000000E+00 0.  1.
         21    1    1    2  504  501 -0.17552365482E+02  0.11987815522E+02  0.41724854872E+02  0.46826880838E+02  0.00000000000E+00 0.  1.
</event>
<event>
 4    1  0.3099057E+006  0.4046163E+02  0.7546771E-02  0.1345802E+00
         21   -1    0    0  502  501  0.00000000000E+00  0.00000000000E+00  0.97278272530E+02  0.97278272530E+02  0.00000000000E+00 0.  1.
         21   -1    0    0  504  502 -0.00000000000E+00 -0.00000000000E+00 -0.21462276694E+03  0.21462276694E+03  0.00000000000E+00 0. -1.
         21    1    1    2  503  501  0.15626512557E+02 -0.37322315804E+02  0.91039093947E+02  0.99625598007E+02  0.00000000000E+00 0.  1.
         21    1    1    2  504  503 -0.15626512557E+02  0.37322315804E+02 -0.20838358836E+03  0.21227544146E+03  0.00000000000E+00 0. -1.
</event>
<event>
 4    1  0.3099057E+006  0.2333432E+02  0.7546771E-02  0.1488342E+00
         21   -1    0    0  503  501  0.00000000000E+00  0.00000000000E+00  0.61060423600E+02  0.61060423600E+02  0.00000000000E+00 0.  1.
         21   -1    0    0  501  502 -0.00000000000E+00 -0.00000000000E+00 -0.70225530252E+02  0.70225530252E+02  0.00000000000E+00 0. -1.
         21    1    1    2  503  504 -0.62605603076E+01 -0.22478791791E+02  0.56751313079E+02  0.61361243728E+02  0.00000000000E+00 0.  1.
         21    1    1    2  504  502  0.62605603076E+01  0.22478791791E+02 -0.65916419731E+02  0.69924710124E+02  0.00000000000E+00 0. -1.
</event>
<event>
 4    1  0.3099057E+006  0.3079432E+02  0.7546771E-02  0.1412817E+00
         21   -1    0    0  504  501  0.00000000000E+00  0.00000000000E+00  0.45208478274E+03  0.45208478274E+03  0.00000000000E+00 0. -1.
         21   -1    0    0  501  502 -0.00000000000E+00 -0.00000000000E+00 -0.29881824972E+03  0.29881824972E+03  0.00000000000E+00 0. -1.
         21    1    1    2  503  502  0.22063478503E+01  0.30715179423E+02 -0.29749816352E+03  0.29908769201E+03  0.00000000000E+00 0. -1.
         21    1    1    2  504  503 -0.22063478503E+01 -0.30715179423E+02  0.45076469654E+03  0.45181534045E+03  0.00000000000E+00 0. -1.
</event>
<event>
 4    1  0.3099057E+006  0.6848722E+02  0.7546771E-02  0.1233437E+00
         21   -1    0    0  504  501  0.00000000000E+00  0.00000000000E+00  0.22320096374E+02  0.22320096374E+02  0.00000000000E+00 0.  1.
         21   -1    0    0  503  502 -0.00000000000E+00 -0.00000000000E+00 -0.28762937198E+03  0.28762937198E+03  0.00000000000E+00 0.  1.
         21    1    1    2  503  501 -0.65319975576E+02  0.20586405600E+02 -0.21308980833E+03  0.22382530178E+03  0.00000000000E+00 0.  1.
         21    1    1    2  504  502  0.65319975576E+02 -0.20586405600E+02 -0.52219467276E+02  0.86124166570E+02  0.00000000000E+00 0.  1.
</event>
<event>
 4    1  0.3099057E+006  0.2677670E+02  0.7546771E-02  0.1449864E+00
         21   -1    0    0  503  501  0.00000000000E+00  0.00000000000E+00  0.82628982360E+03  0.82628982360E+03  0.00000000000E+00 0.  1.
         21   -1    0    0  504  502 -0.00000000000E+00 -0.00000000000E+00 -0.12796274871E+02  0.12796274871E+02  0.00000000000E+00 0. -1.
         21    1    1    2  503  502 -0.10778974405E+02  0.24511332205E+02  0.16781644770E+01  0.26829236510E+02  0.00000000000E+00 0. -1.
         21    1    1    2  504  501  0.10778974405E+02 -0.24511332205E+02  0.81181538426E+03  0.81225686197E+03  0.00000000000E+00 0.  1.
</event>
<event>
 4    1  0.3099057E+006  0.2790061E+02  0.7546771E-02  0.1438765E+00
         21   -1    0    0  502  501  0.00000000000E+00  0.00000000000E+00  0.37944703668E+02  0.37944703668E+02  0.00000000000E+00 0. -1.
         21   -1    0    0  504  502 -0.00000000000E+00 -0.00000000000E+00 -0.28223955818E+02  0.28223955818E+02  0.00000000000E+00 0. -1.
         21    1    1    2  503  501  0.91977415483E+00  0.27885444770E+02  0.22150769426E+02  0.35624438251E+02  0.00000000000E+00 0. -1.
         21    1    1    2  504  503 -0.91977415483E+00 -0.27885444770E+02 -0.12430021576E+02  0.30544221236E+02  0.00000000000E+00 0. -1.
</event>
<event>
 4    1  0.3099057E+006  0.2383603E+02  0.7546771E-02  0.1482259E+00
         21   -1    0    0  504  501  0.00000000000E+00  0.00000000000E+00  0.88179460557E+02  0.88179460557E+02  0.00000000000E+00 0.  1.
         21   -1    0    0  501  502 -0.00000000000E+00 -0.00000000000E+00 -0.16062620888E+02  0.16062620888E+02  0.00000000000E+00 0.  1.
         21    1    1    2  503  502  0.96910525310E+01  0.21777048606E+02 -0.42763642058E+01  0.24216598357E+02  0.00000000000E+00 0.  1.
         21    1    1    2  504  503 -0.96910525310E+01 -0.21777048606E+02  0.76393203875E+02  0.80025483088E+02  0.00000000000E+00 0.  1.
</event>
<event>
 4    1  0.3099057E+006  0.2027494E+02  0.7546771E-02  0.1529873E+00
         21   -1    0    0  503  501  0.00000000000E+00  0.00000000000E+00  0.11581333414E+02  0.11581333414E+02  0.00000000000E+00 0. -1.
         21   -1    0    0  504  502 -0.00000000000E+00 -0.00000000000E+00 -0.65478787469E+02  0.65478787469E+02  0.00000000000E+00 0. -1.
         21    1    1    2  503  502  0.11781417135E+02  0.16500647644E+02 -0.87539468271E+00  0.20293828575E+02  0.00000000000E+00 0. -1.
         21    1    1    2  504  501 -0.11781417135E+02 -0.16500647644E+02 -0.53022059372E+02  0.56766292308E+02  0.00000000000E+00 0. -1.
</event>
<event>
 4    1  0.3099057E+006  0.3412624E+02  0.7546771E-02  0.1386812E+00
         21   -1    0    0  502  501  0.00000000000E+00  0.00000000000E+00  0.25576323741E+03  0.25576323741E+03  0.00000000000E+00 0.  1.
         21   -1    0    0  503  502 -0.00000000000E+00 -0.00000000000E+00 -0.13130487550E+02  0.13130487550E+02  0.00000000000E+00 0.  1.
         21    1    1    2  503  504 -0.56698999851E+01  0.33651932458E+02  0.12653954296E+02  0.36396742757E+02  0.00000000000E+00 0.  1.
         21    1    1    2  504  501  0.56698999851E+01 -0.33651932458E+02  0.22997879557E+03  0.23249698220E+03  0.00000000000E+00 0.  1.
</event>
<event>
 4    1  0.3099057E+006  0.2209295E+02  0.7546771E-02  0.1504213E+00
         21   -1    0    0  504  501  0.00000000000E+00  0.00000000000E+00  0.21925507246E+03  0.21925507246E+03  0.00000000000E+00 0. -1.
         21   -1    0    0  503  502 -0.00000000000E+00 -0.00000000000E+00 -0.13449769703E+02  0.13449769703E+02  0.00000000000E+00 0.  1.
         21    1    1    2  503  501 -0.79106829191E+01  0.20628123866E+02  0.20919062903E+03  0.21035402937E+03  0.00000000000E+00 0. -1.
         21    1    1    2  504  502  0.79106829191E+01 -0.20628123866E+02 -0.33853262743E+01  0.22350812792E+02  0.00000000000E+00 0.  1.
</event>
<event>
 4    1  0.3099057E+006  0.3452599E+02  0.7546771E-02  0.1383927E+00
         21   -1    0    0  503  501  0.00000000000E+00  0.00000000000E+00  0.42082514083E+02  0.42082514083E+02  0.00000000000E+00 0.  1.
         21   -1    0    0  504  502 -0.00000000000E+00 -0.00000000000E+00 -0.32347408723E+02  0.32347408723E+02  0.00000000000E+00 0.  1.
         21    1    1    2  503  502 -0.45981627717E+01  0.34218428018E+02 -0.82534845715E+01  0.35498787648E+02  0.00000000000E+00 0.  1.
         21    1    1    2  504  501  0.45981627717E+01 -0.34218428018E+02  0.17988589932E+02  0.38931135158E+02  0.00000000000E+00 0.  1.
</event>
<event>
 4    1  0.3099057E+006  0.2010286E+02  0.7546771E-02  0.1532469E+00
         21   -1    0    0  504  501  0.00000000000E+00  0.00000000000E+00  0.92630584293E+01  0.92630584293E+01  0.00000000000E+00 0.  1.
         21   -1    0    0  503  502 -0.00000000000E+00 -0.00000000000E+00 -0.66384644510E+02  0.66384644510E+02  0.00000000000E+00 0. -1.
         21    1    1    2  503  501  0.10871502293E+01 -0.20073444128E+02 -0.50706513503E+02  0.54546086628E+02  0.00000000000E+00 0. -1.
         21    1    1    2  504  502 -0.10871502293E+01  0.20073444128E+02 -0.64150725772E+01  0.21101616311E+02  0.00000000000E+00 0.  1.
</event>
<event>
 4    1  0.3099057E+006  0.2685973E+02  0.7546771E-02  0.1449022E+00
         21   -1    0    0  503  501  0.00000000000E+00  0.00000000000E+00  0.26175003064E+03  0.26175003064E+03  0.00000000000E+00 0.  1.
         21   -1    0    0  501  502 -0.00000000000E+00 -0.00000000000E+00 -0.27273223851E+02  0.27273223851E+02  0.00000000000E+00 0. -1.
         21    1    1    2  503  504  0.65288819496E+01 -0.26054154417E+02  0.25425339708E+03  0.25566821310E+03  0.00000000000E+00 0.  1.
         21    1    1    2  504  502 -0.65288819496E+01  0.26054154417E+02 -0.19776590299E+02  0.33355041385E+02  0.00000000000E+00 0. -1.
</event>
<event>
 4    1  0.3099057E+006  0.2555861E+02  0.7546771E-02  0.1462650E+00
         21   -1    0    0  502  501  0.00000000000E+00  0.00000000000E+00  0.32821116986E+01  0.32821116986E+01  0.00000000000E+00 0.  1.
         21   -1    0    0  504  502 -0.00000000000E+00 -0.00000000000E+00 -0.29384633822E+03  0.29384633822E+03  0.00000000000E+00 0.  1.
         21    1    1    2  503  501 -0.20122536169E+02 -0.15758363086E+02 -0.60891711667E+02  0.66038193636E+02  0.00000000000E+00 0.  1.
         21    1    1    2  504  503  0.20122536169E+02  0.15758363086E+02 -0.22967251485E+03  0.23109025628E+03  0.00000000000E+00 0.  1.
</event>
<event>
 4    1  0.3099057E+006  0.3461532E+02  0.7546771E-02  0.1383288E+00
         21   -1    0    0  502  501  0.00000000000E+00  0.00000000000E+00  0.66828870047E+02  0.66828870047E+02  0.00000000000E+00 0. -1.
         21   -1    0    0  503  502 -0.00000000000E+00 -0.00000000000E+00 -0.39580262149E+02  0.39580262149E+02  0.00000000000E+00 0.  1.
         21    1    1    2  503  504  0.33537763709E+02  0.85696369558E+01 -0.25725661838E+02  0.43128064519E+02  0.00000000000E+00 0.  1.
         21    1    1    2  504  501 -0.33537763709E+02 -0.85696369558E+01  0.52974269736E+02  0.63281067676E+02  0.00000000000E+00 0. -1.
</event>
<event>
 4    1  0.3099057E+006  0.2245977E+02  0.7546771E-02  0.1499396E+00
         21   -1    0    0  502  501  0.00000000000E+00  0.00000000000E+00  0.41897747687E+03  0.41897747687E+03  0.00000000000E+00 0.  1.
         21   -1    0    0  504  502 -0.00000000000E+00 -0.00000000000E+00 -0.30373850109E+01  0.30373850109E+01  0.00000000000E+00 0.  1.
         21    1    1    2  503  501 -0.17919731667E+01 -0.22388168846E+02  0.37190698300E+03  0.37258454782E+03  0.00000000000E+00 0.  1.
         21    1    1    2  504  503  0.17919731667E+01  0.22388168846E+02  0.44033108859E+02  0.49430314058E+02  0.00000000000E+00 0.  1.
</event>
<event>
 4    1  0.3099057E+006  0.3859504E+02  0.7546771E-02  0.1356921E+00
         21   -1    0    0  502  501  0.00000000000E+00  0.00000000000E+00  0.31861411401E+02  0.31861411401E+02  0.00000000000E+00 0.  1.
         21   -1    0    0  503  502 -0.00000000000E+00 -0.00000000000E+00 -0.12849206923E+03  0.12849206923E+03  0.00000000000E+00 0. -1.
         21    1    1    2  503  504 -0.38038932226E+02  0.65281622314E+01 -0.11226353337E+03  0.11871258650E+03  0.00000000000E+00 0. -1.
         21    1    1    2  504  501  0.38038932226E+02 -0.65281622314E+01  0.15632875542E+02  0.41640894139E+02  0.00000000000E+00 0.  1.
</event>
<event>
 4    1  0.3099057E+006  0.2014458E+02  0.7546771E-02  0.1531837E+00
         21   -1    0    0  502  501  0.00000000000E+00  0.00000000000E+00  0.16390838102E+03  0.16390838102E+03  0.00000000000E+00 0. -1.
         21   -1    0    0  504  502 -0.00000000000E+00 -0.00000000000E+00 -0.64530081045E+01  0.64530081045E+01  0.00000000000E+00 0. -1.
         21    1    1    2  503  501  0.19938178604E+02  0.28763272251E+01  0.14560045108E+03  0.14698739939E+03  0.00000000000E+00 0. -1.
         21    1    1    2  504  503 -0.19938178604E+02 -0.28763272251E+01  0.11854921831E+02  0.23373989731E+02  0.00000000000E+00 0. -1.
</event>
<event>
 4    1  0.3099057E+006  0.2197265E+02  0.7546771E-02  0.1505818E+00
         21   -1    0    0  503  501  0.00000000000E+00  0.00000000000E+00  0.31719128670E+03  0.31719128670E+03  0.00000000000E+00 0. -1.
         21   -1    0    0  501  502 -0.00000000000E+00 -0.00000000000E+00 -0.22636632136E+02  0.22636632136E+02  0.00000000000E+00 0.  1.
         21    1    1    2  503  504 -0.16736567524E+02 -0.14236741457E+02  0.31137932348E+03  0.31215361697E+03  0.00000000000E+00 0. -1.
         21    1    1    2  504  502  0.16736567524E+02  0.14236741457E+02 -0.16824668911E+02  0.27674301866E+02  0.00000000000E+00 0.  1.
</event>
<event>
 4    1  0.3099057E+006  0.2051766E+02  0.7546771E-02  0.1526264E+00
         21   -1    0    0  502  501  0.00000000000E+00  0.00000000000E+00  0.66092327262E+03  0.66092327262E+03  0.00000000000E+00 0. -1.
         21   -1    0    0  504  502 -0.00000000000E+00 -0.00000000000E+00 -0.93415985914E+01  0.93415985914E+01  0.00000000000E+00 0.  1.
         21    1    1    2  503  501  0.20423992869E+02  0.19583195843E+01  0.64929621544E+03  0.64962031209E+03  0.00000000000E+00 0. -1.
         21    1    1    2  504  503 -0.20423992869E+02 -0.19583195843E+01  0.22854585921E+01  0.20644559121E+02  0.00000000000E+00 0.  1.
</event>
<event>
 4    1  0.3099057E+006  0.3132376E+02  0.7546771E-02  0.1408431E+00
         21   -1    0    0  502  501  0.00000000000E+00  0.00000000000E+00  0.15315860849E+03  0.15315860849E+03  0.00000000000E+00 0.  1.
         21   -1    0    0  503  502 -0.00000000000E+00 -0.00000000000E+00 -0.20734878628E+02  0.20734878628E+02  0.00000000000E+00 0. -1.
         21    1    1    2  503  504 -0.29328329121E+02 -0.11001215401E+02 -0.60658413159E+01  0.31905674421E+02  0.00000000000E+00 0. -1.
         21    1    1    2  504  501  0.29328329121E+02  0.11001215401E+02  0.13848957118E+03  0.14198781270E+03  0.00000000000E+00 0.  1.
</event>
<event>
 4    1  0.3099057E+006  0.2144869E+02  0.7546771E-02  0.1512954E+00
         21   -1    0    0  504  501  0.00000000000E+00  0.00000000000E+00  0.55125544851E+01  0.55125544851E+01  0.00000000000E+00 0. -1.
         21   -1    0    0  501  502 -0.00000000000E+00 -0.00000000000E+00 -0.92825273479E+02  0.92825273479E+02  0.00000000000E+00 0.  1.
         21    1    1    2  503  502 -0.17996599694E+02 -0.11669136041E+02 -0.59278840915E+02  0.63039886712E+02  0.00000000000E+00 0.  1.
         21    1    1    2  504  503  0.17996599694E+02  0.11669136041E+02 -0.28033878080E+02  0.35297941252E+02  0.00000000000E+00 0. -1.
</event>
<event>
 4    1  0.3099057E+006  0.2212981E+02  0.7546771E-02  0.1503724E+00
         21   -1    0    0  503  501  0.00000000000E+00  0.00000000000E+00  0.14056320359E+03  0.14056320359E+03  0.00000000000E+00 0. -1.
         21   -1    0    0  501  502 -0.00000000000E+00 -0.00000000000E+00 -0.62281137091E+01  0.62281137091E+01  0.00000000000E+00 0. -1.
         21    1    1    2  503  504  0.12177212618E+01 -0.22096281653E+02  0.11588556243E+03  0.11797962573E+03  0.00000000000E+00 0. -1.
         21    1    1    2  504  502 -0.12177212618E+01  0.22096281653E+02  0.18449527457E+02  0.28811691574E+02  0.00000000000E+00 0. -1.
</event>
<event>
 4    1  0.3099057E+006  0.1045359E+03  0.7546771E-02  0.1156172E+00
         21   -1    0    0  504  501  0.00000000000E+00  0.00000000000E+00  0.59521767913E+03  0.59521767913E+03  0.00000000000E+00 0.  1.
         21   -1    0    0  503  502 -0.00000000000E+00 -0.00000000000E+00 -0.88974564276E+02  0.88974564276E+02  0.00000000000E+00 0. -1.
         21    1    1    2  503  501  0.70360266904E+02  0.77312203730E+02  0.55788628076E+03  0.56759567146E+03  0.00000000000E+00 0.  1.
         21    1    1    2  504  502 -0.70360266904E+02 -0.77312203730E+02 -0.51643165904E+02  0.11659657194E+03  0.00000000000E+00 0. -1.
</event>
<event>
 4    1  0.3099057E+006  0.2040213E+02  0.7546771E-02  0.1527975E+00
         21   -1    0    0  504  501  0.00000000000E+00  0.00000000000E+00  0.70750738061E+02  0.70750738061E+02  0.00000000000E+00 0. -1.
         21   -1    0    0  503  502 -0.00000000000E+00 -0.00000000000E+00 -0.10128804461E+03  0.10128804461E+03  0.00000000000E+00 0. -1.
         21    1    1    2  503  501 -0.16994362924E+02 -0.11288865541E+02 -0.98752468701E+02  0.10083797366E+03  0.00000000000E+00 0. -1.
         21    1    1    2  504  502  0.16994362924E+02  0.11288865541E+02  0.68215162154E+02  0.71200809013E+02  0.00000000000E+00 0. -1.
</event>
<event>
 4    1  0.3099057E+006  0.2316716E+02  0.7546771E-02  0.1490410E+00
         21   -1    0    0  502  501  0.00000000000E+00  0.00000000000E+00  0.66855733855E+01  0.66855733855E+01  0.00000000000E+00 0. -1.
         21   -1    0    0  504  502 -0.00000000000E+00 -0.00000000000E+00 -0.21792148343E+03  0.21792148343E+03  0.00000000000E+00 0.  1.
         21    1    1    2  503  501 -0.23131975765E+02  0.12763683787E+01 -0.16365915789E+02  0.28364777783E+02  0.00000000000E+00 0. -1.
         21    1    1    2  504  503  0.23131975765E+02 -0.12763683787E+01 -0.19486999426E+03  0.19624227904E+03  0.00000000000E+00 0.  1.
</event>
<event>
 4    1  0.3099057E+006  0.2774847E+02  0.7546771E-02  0.1440231E+00
         21   -1    0    0  504  501  0.00000000000E+00  0.00000000000E+00  0.12568201115E+03  0.12568201115E+03  0.00000000000E+00 0. -1.
         21   -1    0    0  503  502 -0.00000000000E+00 -0.00000000000E+00 -0.85945978751E+01  0.85945978751E+01  0.00000000000E+00 0. -1.
         21    1    1    2  503  501 -0.16518326689E+02 -0.22296238594E+02  0.22564779701E+02  0.35765159793E+02  0.00000000000E+00 0. -1.
         21    1    1    2  504  502  0.16518326689E+02  0.22296238594E+02  0.94522633572E+02  0.98511449230E+02  0.00000000000E+00 0. -1.
</event>
<event>
 4    1  0.3099057E+006  0.3621262E+02  0.7546771E-02  0.1372233E+00
         21   -1    0    0  502  501  0.00000000000E+00  0.00000000000E+00  0.61110555749E+01  0.61110555749E+01  0.00000000000E+00 0. -1.
         21   -1    0    0  504  502 -0.00000000000E+00 -0.00000000000E+00 -0.31788108087E+03  0.31788108087E+03  0.00000000000E+00 0. -1.
         21    1    1    2  503  501  0.34980651083E+02 -0.93652385807E+01 -0.63540805222E+02  0.73135405736E+02  0.00000000000E+00 0. -1.
         21    1    1    2  504  503 -0.34980651083E+02  0.93652385807E+01 -0.24822922007E+03  0.25085673071E+03  0.00000000000E+00 0. -1.
</event>
<event>
 4    1  0.3099057E+006  0.2502277E+02  0.7546771E-02  0.1468549E+00
         21   -1    0    0  504  501  0.00000000000E+00  0.00000000000E+00  0.17938401751E+01  0.17938401751E+01  0.00000000000E+00 0.  1.
         21   -1    0    0  501  502 -0.00000000000E+00 -0.00000000000E+00 -0.36607689490E+03  0.36607689490E+03  0.00000000000E+00 0. -1.
         21    1    1    2  503  502 -0.21725700705E+02  0.12415033924E+02 -0.22181062485E+03  0.22321758989E+03  0.00000000000E+00 0. -1.
         21    1    1    2  504  503  0.21725700705E+02 -0.12415033924E+02 -0.14247242988E+03  0.14465314519E+03  0.00000000000E+00 0.  1.
</event>
<event>
 4    1  0.3099057E+006  0.2178043E+02  0.7546771E-02  0.1508408E+00
         21   -1    0    0  503  501  0.00000000000E+00  0.00000000000E+00  0.16965837843E+02  0.16965837843E+02  0.00000000000E+00 0. -1.
         21   -1    0    0  501  502 -0.00000000000E+00 -0.00000000000E+00 -0.44958640294E+02  0.44958640294E+02  0.00000000000E+00 0. -1.
         21    1    1    2  503  504  0.11797805396E+02  0.18308439148E+02  0.50413677995E+01  0.22356264122E+02  0.00000000000E+00 0. -1.
         21    1    1    2  504  502 -0.11797805396E+02 -0.18308439148E+02 -0.33034170251E+02  0.39568214015E+02  0.00000000000E+00 0. -1.
</event>
<event>
 4    1  0.3099057E+006  0.2065196E+02  0.7546771E-02  0.1524292E+00
         21   -1    0    0  503  501  0.00000000000E+00  0.00000000000E+00  0.23128753621E+02  0.23128753621E+02  0.00000000000E+00 0.  1.
         21   -1    0    0  504  502 -0.00000000000E+00 -0.00000000000E+00 -0.24258457612E+02  0.24258457612E+02  0.00000000000E+00 0.  1.
         21    1    1    2  503  502  0.77609148357E+00 -0.20637374349E+02  0.11038633382E+02  0.23416980270E+02  0.00000000000E+00 0.  1.
         21    1    1    2  504  501 -0.77609148357E+00  0.20637374349E+02 -0.12168337372E+02  0.23970230963E+02  0.00000000000E+00 0.  1.
</event>
<event>
 4    1  0.3099057E+006  0.2041621E+02  0.7546771E-02  0.1527765E+00
         21   -1    0    0  503  501  0.00000000000E+00  0.00000000000E+00  0.26564257435E+01  0.26564257435E+01  0.00000000000E+00 0. -1.
         21   -1    0    0  504  502 -0.00000000000E+00 -0.00000000000E+00 -0.47267342281E+03  0.47267342281E+03  0.00000000000E+00 0. -1.
         21    1    1    2  503  502  0.18775254790E+02 -0.80194308875E+01 -0.42926026176E+03  0.42974549886E+03  0.00000000000E+00 0. -1.
         21    1    1    2  504  501 -0.18775254790E+02  0.80194308875E+01 -0.40756735314E+02  0.45584349700E+02  0.00000000000E+00 0. -1.
</event>
<event>
 4    1  0.3099057E+006  0.2237757E+02  0.7546771E-02  0.1500465E+00
         21   -1    0    0  504  501  0.00000000000E+00  0.00000000000E+00  0.11245540461E+03  0.11245540461E+03  0.00000000000E+00 0.  1.
         21   -1    0    0  503  502 -0.00000000000E+00 -0.00000000000E+00 -0.44958207293E+01  0.44958207293E+01  0.00000000000E+00 0.  1.
         21    1    1    2  503  501  0.13493547162E+02 -0.17851609841E+02  0.59691467449E+02  0.63748153503E+02  0.00000000000E+00 0.  1.
         21    1    1    2  504  502 -0.13493547162E+02  0.17851609841E+02  0.48268116433E+02  0.53203071837E+02  0.00000000000E+00 0.  1.
</event>
<event>
 4    1  0.3099057E+006  0.2245009E+02  0.7546771E-02  0.1499521E+00
         21   -1    0    0  503  501  0.00000000000E+00  0.00000000000E+00  0.25358828134E+02  0.25358828134E+02  0.00000000000E+00 0. -1.
         21   -1    0    0  504  502 -0.00000000000E+00 -0.00000000000E+00 -0.56593791382E+02  0.56593791382E+02  0.00000000000E+00 0. -1.
         21    1    1    2  503  502 -0.61056811356E+01  0.21603867370E+02  0.17388503831E+02  0.28396592981E+02  0.00000000000E+00 0. -1.
         21    1    1    2  504  501  0.61056811356E+01 -0.21603867370E+02 -0.48623467078E+02  0.53556026535E+02  0.00000000000E+00 0. -1.
</event>
<event>
 4    1  0.3099057E+006  0.3865070E+02  0.7546771E-02  0.1356579E+00
         21   -1    0    0  503  501  0.00000000000E+00  0.00000000000E+00  0.35616776723E+03  0.35616776723E+03  0.00000000000E+00 0.  1.
         21   -1    0    0  504  502 -0.00000000000E+00 -0.00000000000E+00 -0.89754360409E+01  0.89754360409E+01  0.00000000000E+00 0. -1.
         21    1    1    2  503  502  0.38550719026E+02  0.27782984344E+01  0.30684723098E+03  0.30927188693E+03  0.00000000000E+00 0.  1.
         21    1    1    2  504  501 -0.38550719026E+02 -0.27782984344E+01  0.40345100204E+02  0.55871316345E+02  0.00000000000E+00 0. -1.
</event>
<event>
 4    1  0.3099057E+006  0.3234822E+02  0.7546771E-02  0.1400230E+00
         21   -1    0    0  502  501  0.00000000000E+00  0.00000000000E+00  0.27065215166E+02  0.27065215166E+02  0.00000000000E+00 0. -1.
         21   -1    0    0  503  502 -0.00000000000E+00 -0.00000000000E+00 -0.71652344605E+02  0.71652344605E+02  0.00000000000E+00 0.  1.
         21    1    1    2  503  504  0.12760013230E+02  0.29725229972E+02 -0.55785461816E+02  0.64485851042E+02  0.00000000000E+00 0.  1.
         21    1    1    2  504  501 -0.12760013230E+02 -0.29725229972E+02  0.11198332378E+02  0.34231708730E+02  0.00000000000E+00 0. -1.
</event>
<event>
 4    1  0.3099057E+006  0.2557000E+02  0.7546771E-02  0.1462527E+00
         21   -1    0    0  503  501  0.00000000000E+00  0.00000000000E+00  0.11310723436E+02  0.11310723436E+02  0.00000000000E+00 0. -1.
         21   -1    0    0  504  502 -0.00000000000E+00 -0.00000000000E+00 -0.94742295834E+03  0.94742295834E+03  0.00000000000E+00 0.  1.
         21    1    1    2  503  502  0.24477436212E+02 -0.73946004617E+01 -0.35433862351E+01  0.25814348442E+02  0.00000000000E+00 0. -1.
         21    1    1    2  504  501 -0.24477436212E+02  0.73946004617E+01 -0.93256884867E+03  0.93291933334E+03  0.00000000000E+00 0.  1.
</event>
<event>
 4    1  0.3099057E+006  0.2351755E+02  0.7546771E-02  0.1486099E+00
         21   -1    0    0  503  501  0.00000000000E+00  0.00000000000E+00  0.27481321046E+03  0.27481321046E+03  0.00000000000E+00 0.  1.
         21   -1    0    0  501  502 -0.00000000000E+00 -0.00000000000E+00 -0.17637674801E+02  0.17637674801E+02  0.00000000000E+00 0. -1.
         21    1    1    2  503  504 -0.23304645725E+02 -0.31573361611E+01  0.26621805904E+03  0.26725480396E+03  0.00000000000E+00 0.  1.
         21    1    1    2  504  502  0.23304645725E+02  0.31573361611E+01 -0.90425233730E+01  0.25196081302E+02  0.00000000000E+00 0. -1.
</event>
<event>
 4    1  0.3099057E+006  0.2612349E+02  0.7546771E-02  0.1456617E+00
         21   -1    0    0  504  501  0.00000000000E+00  0.00000000000E+00  0.26249591807E+02  0.26249591807E+02  0.00000000000E+00 0. -1.
         21   -1    0    0  503  502 -0.00000000000E+00 -0.00000000000E+00 -0.71130416070E+02  0.71130416070E+02  0.00000000000E+00 0. -1.
         21    1    1    2  503  501  0.25692825649E+02  0.47239389453E+01 -0.61224754019E+02  0.66565061359E+02  0.00000000000E+00 0. -1.
         21    1    1    2  504  502 -0.25692825649E+02 -0.47239389453E+01  0.16343929757E+02  0.30814946518E+02  0.00000000000E+00 0. -1.
</event>
<event>
 4    1  0.3099057E+006  0.3592257E+02  0.7546771E-02  0.1374191E+00
         21   -1    0    0  504  501  0.00000000000E+00  0.00000000000E+00  0.16719680655E+03  0.16719680655E+03  0.00000000000E+00 0.  1.
         21   -1    0    0  503  502 -0.00000000000E+00 -0.00000000000E+00 -0.17124589657E+02  0.17124589657E+02  0.00000000000E+00 0. -1.
         21    1    1    2  503  501  0.18668868643E+02  0.30690463857E+02  0.67313590650E+01  0.36547810099E+02  0.00000000000E+00 0. -1.
         21    1    1    2  504  502 -0.18668868643E+02 -0.30690463857E+02  0.14334085783E+03  0.14777358611E+03  0.00000000000E+00 0.  1.
</event>
<event>
 4    1  0.3099057E+006  0.2257058E+02  0.7546771E-02  0.1497962E+00
         21   -1    0    0  503  501  0.00000000000E+00  0.00000000000E+00  0.48387630091E+01  0.48387630091E+01  0.00000000000E+00 0.  1.
         21   -1    0    0  504  502 -0.00000000000E+00 -0.00000000000E+00 -0.16304988373E+03  0.16304988373E+03  0.00000000000E+00 0.  1.
         21    1    1    2  503  502 -0.20250809687E+02  0.99667402328E+01 -0.12907183721E+03  0.13103041771E+03  0.00000000000E+00 0.  1.
         21    1    1    2  504  501  0.20250809687E+02 -0.99667402328E+01 -0.29139283512E+02  0.36858229032E+02  0.00000000000E+00 0.  1.
</event>
<event>
 4    1  0.3099057E+006  0.2150443E+02  0.7546771E-02  0.1512183E+00
         21   -1    0    0  504  501  0.00000000000E+00  0.00000000000E+00  0.20736437245E+03  0.20736437245E+03  0.00000000000E+00 0. -1.
         21   -1    0    0  503  502 -0.00000000000E+00 -0.00000000000E+00 -0.24634502055E+01  0.24634502055E+01  0.00000000000E+00 0. -1.
         21    1    1    2  503  501 -0.20936001239E+02  0.49116737178E+01  0.13474112302E+03  0.13644636646E+03  0.00000000000E+00 0. -1.
         21    1    1    2  504  502  0.20936001239E+02 -0.49116737178E+01  0.70159799219E+02  0.73381456193E+02  0.00000000000E+00 0. -1.
</event>
<event>
 4    1  0.3099057E+006  0.2340998E+02  0.7546771E-02  0.1487413E+00
         21   -1    0    0  503  501  0.00000000000E+00  0.00000000000E+00  0.30885465838E+03  0.30885465838E+03  0.00000000000E+00 0.  1.
         21   -1    0    0  501  502 -0.00000000000E+00 -0.00000000000E+00 -0.21991510926E+01  0.21991510926E+01  0.00000000000E+00 0. -1.
         21    1    1    2  503  504  0.17331483264E+02  0.15736795474E+02  0.22168002697E+03  0.22291267663E+03  0.00000000000E+00 0.  1.
         21    1    1    2  504  502 -0.17331483264E+02 -0.15736795474E+02  0.84975480310E+02  0.88141132837E+02  0.00000000000E+00 0. -1.
</event>
<event>
 4    1  0.3099057E+006  0.2072274E+02  0.7546771E-02  0.1523260E+00
         21   -1    0    0  503  501  0.00000000000E+00  0.00000000000E+00  0.52378796876E+02  0.52378796876E+02  0.00000000000E+00 0. -1.
         21   -1    0    0  504  502 -0.00000000000E+00 -0.00000000000E+00 -0.11420646301E+02  0.11420646301E+02  0.00000000000E+00 0. -1.
         21    1    1    2  503  502  0.10575427450E+02  0.17821117071E+02  0.37422789985E+02  0.42777296428E+02  0.00000000000E+00 0. -1.
         21    1    1    2  504  501 -0.10575427450E+02 -0.17821117071E+02  0.35353605903E+01  0.21022146749E+02  0.00000000000E+00 0. -1.
</event>
<event>
 4    1  0.3099057E+006  0.3874445E+02  0.7546771E-02  0.1356005E+00
         21   -1    0    0  504  501  0.00000000000E+00  0.00000000000E+00  0.77482610568E+01  0.77482610568E+01  0.00000000000E+00 0. -1.
         21   -1    0    0  503  502 -0.00000000000E+00 -0.00000000000E+00 -0.36476153434E+03  0.36476153434E+03  0.00000000000E+00 0. -1.
         21    1    1    2  503  501 -0.35904702311E+02 -0.14559689660E+02 -0.30604216543E+03  0.30848490924E+03  0.00000000000E+00 0. -1.
         21    1    1    2  504  502  0.35904702311E+02  0.14559689660E+02 -0.50971107857E+02  0.64024886155E+02  0.00000000000E+00 0. -1.
</event>
<event>
 4    1  0.3099057E+006  0.2379171E+02  0.7546771E-02  0.1482789E+00
         21   -1    0    0  504  501  0.00000000000E+00  0.00000000000E+00  0.10106226856E+03  0.10106226856E+03  0.00000000000E+00 0. -1.
         21   -1    0    0  503  502 -0.00000000000E+00 -0.00000000000E+00 -0.57101422416E+01  0.57101422416E+01  0.00000000000E+00 0.  1.
         21    1    1    2  503  501 -0.88604343854E+01 -0.22080268684E+02  0.55058245393E+02  0.59978795823E+02  0.00000000000E+00 0. -1.
         21    1    1    2  504  502  0.88604343854E+01  0.22080268684E+02  0.40293880921E+02  0.46793614974E+02  0.00000000000E+00 0.  1.
</event>
<event>
 4    1  0.3099057E+006  0.2058349E+02  0.7546771E-02  0.1525295E+00
         21   -1    0    0  503  501  0.00000000000E+00  0.00000000000E+00  0.44263666924E+03  0.44263666924E+03  0.00000000000E+00 0. -1.
         21   -1    0    0  504  502 -0.00000000000E+00 -0.00000000000E+00 -0.27988945941E+03  0.27988945941E+03  0.00000000000E+00 0. -1.
         21    1    1    2  503  502 -0.14718821587E+02  0.14388762561E+02 -0.27927120164E+03  0.28002872043E+03  0.00000000000E+00 0. -1.
         21    1    1    2  504  501  0.14718821587E+02 -0.14388762561E+02  0.44201841147E+03  0.44249740822E+03  0.00000000000E+00 0. -1.
</event>
<event>
 4    1  0.3099057E+006  0.2217546E+02  0.7546771E-02  0.1503120E+00
         21   -1    0    0  503  501  0.00000000000E+00  0.00000000000E+00  0.13723480930E+02  0.13723480930E+02  0.00000000000E+00 0. -1.
         21   -1    0    0  501  502 -0.00000000000E+00 -0.00000000000E+00 -0.46223535713E+02  0.46223535713E+02  0.00000000000E+00 0. -1.
         21    1    1    2  503  504 -0.22157959514E+02  0.88082828194E+00 -0.20388938813E+01  0.22268994512E+02  0.00000000000E+00 0. -1.
         21    1    1    2  504  502  0.22157959514E+02 -0.88082828194E+00 -0.30461160901E+02  0.37678022132E+02  0.00000000000E+00 0. -1.
</event>
<event>
 4    1  0.3099057E+006  0.2070255E+02  0.7546771E-02  0.1523554E+00
         21   -1    0    0  503  501  0.00000000000E+00  0.00000000000E+00  0.55434612362E+01  0.55434612362E+01  0.00000000000E+00 0.  1.
         21   -1    0    0  504  502 -0.00000000000E+00 -0.00000000000E+00 -0.22114332511E+03  0.22114332511E+03  0.00000000000E+00 0.  1.
         21    1    1    2  503  502  0.52783991833E+01  0.20018342273E+02 -0.19920720142E+03  0.20028006546E+03  0.00000000000E+00 0.  1.
         21    1    1    2  504  501 -0.52783991833E+01 -0.20018342273E+02 -0.16392662451E+02  0.26406720878E+02  0.00000000000E+00 0.  1.
</event>
<event>
 4    1  0.3099057E+006  0.2015111E+02  0.7546771E-02  0.1531738E+00
         21   -1    0    0  503  501  0.00000000000E+00  0.00000000000E+00  0.56418655106E+01  0.56418655106E+01  0.00000000000E+00 0. -1.
         21   -1    0    0  504  502 -0.00000000000E+00 -0.00000000000E+00 -0.75235807073E+02  0.75235807073E+02  0.00000000000E+00 0. -1.
         21    1    1    2  503  502 -0.20081560668E+02 -0.16727171315E+01 -0.43217166381E+02  0.47684279711E+02  0.00000000000E+00 0. -1.
         21    1    1    2  504  501  0.20081560668E+02  0.16727171315E+01 -0.26376775181E+02  0.33193392873E+02  0.00000000000E+00 0. -1.
</event>
<event>
 4    1  0.3099057E+006  0.2074344E+02  0.7546771E-02  0.1522960E+00
         21   -1    0    0  502  501  0.00000000000E+00  0.00000000000E+00  0.11120895685E+03  0.11120895685E+03  0.00000000000E+00 0.  1.
         21   -1    0    0  503  502 -0.00000000000E+00 -0.00000000000E+00 -0.74047307436E+01  0.74047307436E+01  0.00000000000E+00 0.  1.
         21    1    1    2  503  504  0.53763662304E+01  0.20034593279E+02  0.10921619522E+02  0.23442952345E+02  0.00000000000E+00 0.  1.
         21    1    1    2  504  501 -0.53763662304E+01 -0.20034593279E+02  0.92882606582E+02  0.95170735245E+02  0.00000000000E+00 0.  1.
</event>
<event>
 4    1  0.3099057E+006  0.3235142E+02  0.7546771E-02  0.1400205E+00
         21   -1    0    0  504  501  0.00000000000E+00  0.00000000000E+00  0.82632312521E+03  0.82632312521E+03  0.00000000000E+00 0.  1.
         21   -1    0    0  503  502 -0.00000000000E+00 -0.00000000000E+00 -0.63276513452E+01  0.63276513452E+01  0.00000000000E+00 0. -1.
         21    1    1    2  503  501 -0.24330304600E+02  0.21322535752E+02  0.78233143199E+03  0.78300005346E+03  0.00000000000E+00 0.  1.
         21    1    1    2  504  502  0.24330304600E+02 -0.21322535752E+02  0.37664041881E+02  0.49650723093E+02  0.00000000000E+00 0. -1.
</event>
<event>
 4    1  0.3099057E+006  0.3938782E+02  0.7546771E-02  0.1352111E+00
         21   -1    0    0  503  501  0.00000000000E+00  0.00000000000E+00  0.67597111686E+02  0.67597111686E+02  0.00000000000E+00 0.  1.
         21   -1    0    0  504  502 -0.00000000000E+00 -0.00000000000E+00 -0.14189322488E+04  0.14189322488E+04  0.00000000000E+00 0.  1.
         21    1    1    2  503  502 -0.22991350396E+02 -0.31981219934E+02 -0.14128967308E+04  0.14134456383E+04  0.00000000000E+00 0.  1.
         21    1    1    2  504  501  0.22991350396E+02  0.31981219934E+02  0.61561593704E+02  0.73083722134E+02  0.00000000000E+00 0.  1.
</event>
<event>
 4    1  0.3099057E+006  0.2232984E+02  0.7546771E-02  0.1501089E+00
         21   -1    0    0  502  501  0.00000000000E+00  0.00000000000E+00  0.63979340495E+03  0.63979340495E+03  0.00000000000E+00 0.  1.
         21   -1    0    0  504  502 -0.00000000000E+00 -0.00000000000E+00 -0.95754348260E+00  0.95754348260E+00  0.00000000000E+00 0.  1.
         21    1    1    2  503  501 -0.19536106689E+02 -0.10814904694E+02  0.45762444441E+03  0.45816891399E+03  0.00000000000E+00 0.  1.
         21    1    1    2  504  503  0.19536106689E+02  0.10814904694E+02  0.18121141706E+03  0.18258203445E+03  0.00000000000E+00 0.  1.
</event>
<event>
 4    1  0.3099057E+006  0.4789640E+02  0.7546771E-02  0.1307560E+00
         21   -1    0    0  502  501  0.00000000000E+00  0.00000000000E+00  0.90078831600E+01  0.90078831600E+01  0.00000000000E+00 0. -1.
         21   -1    0    0  504  502 -0.00000000000E+00 -0.00000000000E+00 -0.26332500531E+03  0.26332500531E+03  0.00000000000E+00 0. -1.
         21    1    1    2  503  501 -0.46437683893E+02  0.11730591738E+02 -0.10247654380E+03  0.11311722812E+03  0.00000000000E+00 0. -1.
         21    1    1    2  504  503  0.46437683893E+02 -0.11730591738E+02 -0.15184057835E+03  0.15921566035E+03  0.00000000000E+00 0. -1.
</event>
<event>
 4    1  0.3099057E+006  0.4435164E+02  0.7546771E-02  0.1324713E+00
         21   -1    0    0  503  501  0.00000000000E+00  0.00000000000E+00  0.47888778690E+01  0.47888778690E+01  0.00000000000E+00 0. -1.
         21   -1    0    0  504  502 -0.00000000000E+00 -0.00000000000E+00 -0.77659537783E+03  0.77659537783E+03  0.00000000000E+00 0. -1.
         21    1    1    2  503  502 -0.11913273070E+02  0.42721678384E+02 -0.11775093684E+03  0.12582667049E+03  0.00000000000E+00 0. -1.
         21    1    1    2  504  501  0.11913273070E+02 -0.42721678384E+02 -0.65405556312E+03  0.65555758522E+03  0.00000000000E+00 0. -1.
</event>
<event>
 4    1  0.3099057E+006  0.4331353E+02  0.7546771E-02  0.1330091E+00
         21   -1    0    0  502  501  0.00000000000E+00  0.00000000000E+00  0.62146877793E+02  0.62146877793E+02  0.00000000000E+00 0.  1.
         21   -1    0    0  503  502 -0.00000000000E+00 -0.00000000000E+00 -0.87819407053E+02  0.87819407053E+02  0.00000000000E+00 0.  1.
         21    1    1    2  503  504 -0.50827506491E+01  0.43014270328E+02 -0.73579749569E+02  0.85381738988E+02  0.00000000000E+00 0.  1.
         21    1    1    2  504  501  0.50827506491E+01 -0.43014270328E+02  0.47907220309E+02  0.64584545858E+02  0.00000000000E+00 0.  1.
</event>
<event>
 4    1  0.3099057E+006  0.2171034E+02  0.7546771E-02  0.1509360E+00
         21   -1    0    0  503  501  0.00000000000E+00  0.00000000000E+00  0.41182123636E+02  0.41182123636E+02  0.00000000000E+00 0.  1.
         21   -1    0    0  504  502 -0.00000000000E+00 -0.00000000000E+00 -0.19181643519E+03  0.19181643519E+03  0.00000000000E+00 0. -1.
         21    1    1    2  503  502  0.12231231036E+02  0.17936997491E+02  0.37653053802E+02  0.43463678541E+02  0.00000000000E+00 0.  1.
         21    1    1    2  504  501 -0.12231231036E+02 -0.17936997491E+02 -0.18828736536E+03  0.18953488029E+03  0.00000000000E+00 0. -1.
</event>
<event>
 4    1  0.3099057E+006  0.2351046E+02  0.7546771E-02  0.1486186E+00
         21   -1    0    0  503  501  0.00000000000E+00  0.00000000000E+00  0.48089530832E+02  0.48089530832E+02  0.00000000000E+00 0. -1.
         21   -1    0    0  504  502 -0.00000000000E+00 -0.00000000000E+00 -0.50844767220E+02  0.50844767220E+02  0.00000000000E+00 0. -1.
         21    1    1    2  503  502 -0.19846948185E+02  0.12603197070E+02 -0.44895750948E+02  0.50679092157E+02  0.00000000000E+00 0. -1.
         21    1    1    2  504  501  0.19846948185E+02 -0.12603197070E+02  0.42140514559E+02  0.48255205895E+02  0.00000000000E+00 0. -1.
</event>
<event>
 4    1  0.3099057E+006  0.2469648E+02  0.7546771E-02  0.1472228E+00
         21   -1    0    0  503  501  0.00000000000E+00  0.00000000000E+00  0.12948958704E+02  0.12948958704E+02  0.00000000000E+00 0.  1.
         21   -1    0    0  501  502 -0.00000000000E+00 -0.00000000000E+00 -0.28381933164E+03  0.28381933164E+03  0.00000000000E+00 0.  1.
         21    1    1    2  503  504 -0.80744154401E+01  0.23339233533E+02  0.78124080906E-01  0.24696601183E+02  0.00000000000E+00 0.  1.
         21    1    1    2  504  502  0.80744154401E+01 -0.23339233533E+02 -0.27094849702E+03  0.27207168916E+03  0.00000000000E+00 0.  1.
</event>
<event>
 4    1  0.3099057E+006  0.2281262E+02  0.7546771E-02  0.1494865E+00
         21   -1    0    0  503  501  0.00000000000E+00  0.00000000000E+00  0.38461099317E+02  0.38461099317E+02  0.00000000000E+00 0. -1.
         21   -1    0    0  504  502 -0.00000000000E+00 -0.00000000000E+00 -0.28858435823E+02  0.28858435823E+02  0.00000000000E+00 0. -1.
         21    1    1    2  503  502  0.32234900514E+01  0.22583731654E+02  0.29332032522E+02  0.37158901429E+02  0.00000000000E+00 0. -1.
         21    1    1    2  504  501 -0.32234900514E+01 -0.22583731654E+02 -0.19729369028E+02  0.30160633710E+02  0.00000000000E+00 0. -1.
</event>
<event>
 4    1  0.3099057E+006  0.2100240E+02  0.7546771E-02  0.1519230E+00
         21   -1    0    0  504  501  0.00000000000E+00  0.00000000000E+00  0.17622054685E+03  0.17622054685E+03  0.00000000000E+00 0.  1.
         21   -1    0    0  503  502 -0.00000000000E+00 -0.00000000000E+00 -0.25088562435E+01  0.25088562435E+01  0.00000000000E+00 0.  1.
         21    1    1    2  503  501 -0.48461148587E+01 -0.20435655765E+02  0.91129609167E+02  0.93518482252E+02  0.00000000000E+00 0.  1.
         21    1    1    2  504  502  0.48461148587E+01  0.20435655765E+02  0.82582081441E+02  0.85210920843E+02  0.00000000000E+00 0.  1.
</event>
<event>
 4    1  0.3099057E+006  0.2388005E+02  0.7546771E-02  0.1481733E+00
         21   -1    0    0  504  501  0.00000000000E+00  0.00000000000E+00  0.63823658373E+02  0.63823658373E+02  0.00000000000E+00 0. -1.
         21   -1    0    0  503  502 -0.00000000000E+00 -0.00000000000E+00 -0.10740174272E+03  0.10740174272E+03  0.00000000000E+00 0.  1.
         21    1    1    2  503  501 -0.17225570357E+02  0.16538938765E+02  0.60185232276E+02  0.64749663734E+02  0.00000000000E+00 0. -1.
         21    1    1    2  504  502  0.17225570357E+02 -0.16538938765E+02 -0.10376331662E+03  0.10647573736E+03  0.00000000000E+00 0.  1.
</event>
<event>
 4    1  0.3099057E+006  0.2001527E+02  0.7546771E-02  0.1533802E+00
         21   -1    0    0  504  501  0.00000000000E+00  0.00000000000E+00  0.14006213213E+02  0.14006213213E+02  0.00000000000E+00 0. -1.
         21   -1    0    0  503  502 -0.00000000000E+00 -0.00000000000E+00 -0.28616984231E+02  0.28616984231E+02  0.00000000000E+00 0. -1.
         21    1    1    2  503  501 -0.57126067261E+01  0.19182732859E+02 -0.68240416186E+01  0.21146599243E+02  0.00000000000E+00 0. -1.
         21    1    1    2  504  502  0.57126067261E+01 -0.19182732859E+02 -0.77867293995E+01  0.21476598201E+02  0.00000000000E+00 0. -1.
</event>
<event>
 4    1  0.3099057E+006  0.2182377E+02  0.7546771E-02  0.1507821E+00
         21   -1    0    0  504  501  0.00000000000E+00  0.00000000000E+00  0.12141668967E+02  0.12141668967E+02  0.00000000000E+00 0. -1.
         21   -1    0    0  503  502 -0.00000000000E+00 -0.00000000000E+00 -0.53204313415E+02  0.53204313415E+02  0.00000000000E+00 0. -1.
         21    1    1    2  503  501  0.18109072706E+02 -0.12179419842E+02 -0.37278168775E+02  0.43196512002E+02  0.00000000000E+00 0. -1.
         21    1    1    2  504  502 -0.18109072706E+02  0.12179419842E+02 -0.37844756729E+01  0.22149470379E+02  0.00000000000E+00 0. -1.
</event>
<event>
 4    1  0.3099057E+006  0.2023228E+02  0.7546771E-02  0.1530514E+00
         21   -1    0    0  503  501  0.00000000000E+00  0.00000000000E+00  0.70533490948E+01  0.70533490948E+01  0.00000000000E+00 0. -1.
         21   -1    0    0  504  502 -0.00000000000E+00 -0.00000000000E+00 -0.35635817749E+03  0.35635817749E+03  0.00000000000E+00 0.  1.
         21    1    1    2  503  502 -0.18941830377E+02 -0.71100048583E+01 -0.34090500574E+03  0.34150485802E+03  0.00000000000E+00 0.  1.
         21    1    1    2  504  501  0.18941830377E+02  0.71100048583E+01 -0.83998226480E+01  0.21906668566E+02  0.00000000000E+00 0. -1.
</event>
<event>
 4    1  0.3099057E+006  0.2839422E+02  0.7546771E-02  0.1434084E+00
         21   -1    0    0  502  501  0.00000000000E+00  0.00000000000E+00  0.41573538897E+02  0.41573538897E+02  0.00000000000E+00 0. -1.
         21   -1    0    0  503  502 -0.00000000000E+00 -0.00000000000E+00 -0.22546349108E+02  0.22546349108E+02  0.00000000000E+00 0.  1.
         21    1    1    2  503  504 -0.10044406427E+02 -0.26558273206E+02 -0.24763376944E+01  0.28502003869E+02  0.00000000000E+00 0.  1.
         21    1    1    2  504  501  0.10044406427E+02  0.26558273206E+02  0.21503527483E+02  0.35617884136E+02  0.00000000000E+00 0. -1.
</event>
<event>
 4    1  0.3099057E+006  0.2081201E+02  0.7546771E-02  0.1521966E+00
         21   -1    0    0  503  501  0.00000000000E+00  0.00000000000E+00  0.28085171338E+03  0.28085171338E+03  0.00000000000E+00 0.  1.
         21   -1    0    0  501  502 -0.00000000000E+00 -0.00000000000E+00 -0.26214630448E+01  0.26214630448E+01  0.00000000000E+00 0.  1.
         21    1    1    2  503  504  0.20778515508E+02 -0.11802839341E+01  0.23005752374E+03  0.23099697835E+03  0.00000000000E+00 0.  1.
         21    1    1    2  504  502 -0.20778515508E+02  0.11802839341E+01  0.48172726596E+02  0.52476198077E+02  0.00000000000E+00 0.  1.
</event>
<event>
 4    1  0.3099057E+006  0.2986954E+02  0.7546771E-02  0.1420734E+00
         21   -1    0    0  502  501  0.00000000000E+00  0.00000000000E+00  0.96898404798E+02  0.96898404798E+02  0.00000000000E+00 0. -1.
         21   -1    0    0  503  502 -0.00000000000E+00 -0.00000000000E+00 -0.97728101714E+01  0.97728101714E+01  0.00000000000E+00 0. -1.
         21    1    1    2  503  504  0.26213775024E+02  0.14318768554E+02  0.30734691840E+02  0.42858026278E+02  0.00000000000E+00 0. -1.
         21    1    1    2  504  501 -0.26213775024E+02 -0.14318768554E+02  0.56390902787E+02  0.63813188692E+02  0.00000000000E+00 0. -1.
</event>
<event>
 4    1  0.3099057E+006  0.2419145E+02  0.7546771E-02  0.1478055E+00
         21   -1    0    0  503  501  0.00000000000E+00  0.00000000000E+00  0.29572805166E+03  0.29572805166E+03  0.00000000000E+00 0. -1.
         21   -1    0    0  504  502 -0.00000000000E+00 -0.00000000000E+00 -0.42126680929E+01  0.42126680929E+01  0.00000000000E+00 0.  1.
         21    1    1    2  503  502  0.14618476210E+02 -0.19275020388E+02  0.36552682275E+02  0.43832919583E+02  0.00000000000E+00 0.  1.
         21    1    1    2  504  501 -0.14618476210E+02  0.19275020388E+02  0.25496270129E+03  0.25610780017E+03  0.00000000000E+00 0. -1.
</event>
<event>
 4    1  0.3099057E+006  0.2523952E+02  0.7546771E-02  0.1466142E+00
         21   -1    0    0  504  501  0.00000000000E+00  0.00000000000E+00  0.17082092007E+03  0.17082092007E+03  0.00000000000E+00 0. -1.
         21   -1    0    0  501  502 -0.00000000000E+00 -0.00000000000E+00 -0.23607646852E+02  0.23607646852E+02  0.00000000000E+00 0.  1.
         21    1    1    2  503  502  0.35832693066E+01  0.24983864031E+02 -0.15599441939E+02  0.29671128554E+02  0.00000000000E+00 0.  1.
         21    1    1    2  504  503 -0.35832693066E+01 -0.24983864031E+02  0.16281271516E+03  0.16475743837E+03  0.00000000000E+00 0. -1.
</event>
<event>
 4    1  0.3099057E+006  0.2044668E+02  0.7546771E-02  0.1527313E+00
         21   -1    0    0  503  501  0.00000000000E+00  0.00000000000E+00  0.60875592450E+02  0.60875592450E+02  0.00000000000E+00 0.  1.
         21   -1    0    0  504  502 -0.00000000000E+00 -0.00000000000E+00 -0.55076173648E+02  0.55076173648E+02  0.00000000000E+00 0.  1.
         21    1    1    2  503  502 -0.20341684582E+02 -0.20693998963E+01  0.57140727261E+02  0.60688790229E+02  0.00000000000E+00 0.  1.
         21    1    1    2  504  501  0.20341684582E+02  0.20693998963E+01 -0.51341308459E+02  0.55262975868E+02  0.00000000000E+00 0.  1.
</event>
<event>
 4    1  0.3099057E+006  0.2227468E+02  0.7546771E-02  0.1501812E+00
         21   -1    0    0  504  501  0.00000000000E+00  0.00000000000E+00  0.14128049980E+02  0.14128049980E+02  0.00000000000E+00 0.  1.
         21   -1    0    0  501  502 -0.00000000000E+00 -0.00000000000E+00 -0.61284051562E+02  0.61284051562E+02  0.00000000000E+00 0. -1.
         21    1    1    2  503  502  0.14021311623E+02 -0.17307925940E+02 -0.48215634611E+02  0.53112229298E+02  0.00000000000E+00 0. -1.
         21    1    1    2  504  503 -0.14021311623E+02  0.17307925940E+02  0.10596330297E+01  0.22299872245E+02  0.00000000000E+00 0.  1.
</event>
<event>
 4    1  0.3099057E+006  0.2659348E+02  0.7546771E-02  0.1451735E+00
         21   -1    0    0  503  501  0.00000000000E+00  0.00000000000E+00  0.41266432431E+01  0.41266432431E+01  0.00000000000E+00 0.  1.
         21   -1    0    0  504  502 -0.00000000000E+00 -0.00000000000E+00 -0.29516917728E+03  0.29516917728E+03  0.00000000000E+00 0.  1.
         21    1    1    2  503  502  0.89355942978E+00  0.26578466330E+02 -0.48608480154E+02  0.55407559627E+02  0.00000000000E+00 0.  1.
         21    1    1    2  504  501 -0.89355942978E+00 -0.26578466330E+02 -0.24243405389E+03  0.24388826090E+03  0.00000000000E+00 0.  1.
</event>
<event>
 4    1  0.3099057E+006  0.2199763E+02  0.7546771E-02  0.1505484E+00
         21   -1    0    0  502  501  0.00000000000E+00  0.00000000000E+00  0.15477073263E+02  0.15477073263E+02  0.00000000000E+00 0. -1.
         21   -1    0    0  503  502 -0.00000000000E+00 -0.00000000000E+00 -0.20926544974E+03  0.20926544974E+03  0.00000000000E+00 0.  1.
         21    1    1    2  503  504 -0.18377368914E+02  0.12089999221E+02 -0.20053161964E+03  0.20173454401E+03  0.00000000000E+00 0.  1.
         21    1    1    2  504  501  0.18377368914E+02 -0.12089999221E+02  0.67432431610E+01  0.23007979001E+02  0.00000000000E+00 0. -1.
</event>
<event>
 4    1  0.3099057E+006  0.3550502E+02  0.7546771E-02  0.1377047E+00
         21   -1    0    0  504  501  0.00000000000E+00  0.00000000000E+00  0.14633778388E+03  0.14633778388E+03  0.00000000000E+00 0. -1.
         21   -1    0    0  503  502 -0.00000000000E+00 -0.00000000000E+00 -0.86679718325E+01  0.86679718325E+01  0.00000000000E+00 0. -1.
         21    1    1    2  503  501 -0.34776042488E+02  0.71577278566E+01  0.62739626370E+02  0.72089298209E+02  0.00000000000E+00 0. -1.
         21    1    1    2  504  502  0.34776042488E+02 -0.71577278566E+01  0.74930185673E+02  0.82916457499E+02  0.00000000000E+00 0. -1.
</event>
<event>
 4    1  0.3099057E+006  0.2117417E+02  0.7546771E-02  0.1516793E+00
         21   -1    0    0  504  501  0.00000000000E+00  0.00000000000E+00  0.62181877402E+02  0.62181877402E+02  0.00000000000E+00 0.  1.
         21   -1    0    0  501  502 -0.00000000000E+00 -0.00000000000E+00 -0.83480609998E+02  0.83480609998E+02  0.00000000000E+00 0. -1.
         21    1    1    2  503  502 -0.20118969745E+02  0.66009505559E+01 -0.80264374892E+02  0.83010332903E+02  0.00000000000E+00 0. -1.
         21    1    1    2  504  503  0.20118969745E+02 -0.66009505559E+01  0.58965642296E+02  0.62652154498E+02  0.00000000000E+00 0.  1.
</event>
<event>
 4    1  0.3099057E+006  0.2322185E+02  0.7546771E-02  0.1489731E+00
         21   -1    0    0  503  501  0.00000000000E+00  0.00000000000E+00  0.50577941522E+03  0.50577941522E+03  0.00000000000E+00 0. -1.
         21   -1    0    0  504  502 -0.00000000000E+00 -0.00000000000E+00 -0.24224793433E+01  0.24224793433E+01  0.00000000000E+00 0.  1.
         21    1    1    2  503  502  0.18881982459E+02 -0.13517582196E+02  0.44180961183E+03  0.44241946996E+03  0.00000000000E+00 0. -1.
         21    1    1    2  504  501 -0.18881982459E+02  0.13517582196E+02  0.61547324046E+02  0.65782424607E+02  0.00000000000E+00 0.  1.
</event>
<event>
 4    1  0.3099057E+006  0.3763415E+02  0.7546771E-02  0.1362936E+00
         21   -1    0    0  504  501  0.00000000000E+00  0.00000000000E+00  0.36384386616E+03  0.36384386616E+03  0.00000000000E+00 0. -1.
         21   -1    0    0  503  502 -0.00000000000E+00 -0.00000000000E+00 -0.58138811926E+02  0.58138811926E+02  0.00000000000E+00 0.  1.
         21    1    1    2  503  501 -0.36852548580E+02 -0.76301423172E+01 -0.50952983055E+02  0.63344580595E+02  0.00000000000E+00 0.  1.
         21    1    1    2  504  502  0.36852548580E+02  0.76301423172E+01  0.35665803729E+03  0.35863809749E+03  0.00000000000E+00 0. -1.
</event>
<event>
 4    1  0.3099057E+006  0.2940977E+02  0.7546771E-02  0.1424796E+00
         21   -1    0    0  503  501  0.00000000000E+00  0.00000000000E+00  0.48063446318E+02  0.48063446318E+02  0.00000000000E+00 0.  1.
         21   -1    0    0  504  502 -0.00000000000E+00 -0.00000000000E+00 -0.17996997278E+02  0.17996997278E+02  0.00000000000E+00 0.  1.
         21    1    1    2  503  502  0.27450759765E+02 -0.10554153880E+02  0.14750585646E+02  0.32901582829E+02  0.00000000000E+00 0.  1.
         21    1    1    2  504  501 -0.27450759765E+02  0.10554153880E+02  0.15315863395E+02  0.33158860766E+02  0.00000000000E+00 0.  1.
</event>
<event>
 4    1  0.3099057E+006  0.2211690E+02  0.7546771E-02  0.1503895E+00
         21   -1    0    0  503  501  0.00000000000E+00  0.00000000000E+00  0.62120771449E+02  0.62120771449E+02  0.00000000000E+00 0.  1.
         21   -1    0    0  504  502 -0.00000000000E+00 -0.00000000000E+00 -0.97603087805E+01  0.97603087805E+01  0.00000000000E+00 0. -1.
         21    1    1    2  503  502  0.21197067508E+02  0.63120075523E+01  0.10381378047E+02  0.24432153414E+02  0.00000000000E+00 0. -1.
         21    1    1    2  504  501 -0.21197067508E+02 -0.63120075523E+01  0.41979084622E+02  0.47448926816E+02  0.00000000000E+00 0.  1.
</event>
<event>
 4    1  0.3099057E+006  0.3986960E+02  0.7546771E-02  0.1349252E+00
         21   -1    0    0  503  501  0.00000000000E+00  0.00000000000E+00  0.64996862881E+02  0.64996862881E+02  0.00000000000E+00 0.  1.
         21   -1    0    0  504  502 -0.00000000000E+00 -0.00000000000E+00 -0.52817805441E+02  0.52817805441E+02  0.00000000000E+00 0. -1.
         21    1    1    2  503  502 -0.33951841965E+02 -0.20901135491E+02 -0.37076646238E+02  0.54445043245E+02  0.00000000000E+00 0. -1.
         21    1    1    2  504  501  0.33951841965E+02  0.20901135491E+02  0.49255703677E+02  0.63369625077E+02  0.00000000000E+00 0.  1.
</event>
<event>
 4    1  0.3099057E+006  0.2034030E+02  0.7546771E-02  0.1528896E+00
         21   -1    0    0  503  501  0.00000000000E+00  0.00000000000E+00  0.60421116141E+03  0.60421116141E+03  0.00000000000E+00 0. -1.
         21   -1    0    0  504  502 -0.00000000000E+00 -0.00000000000E+00 -0.44899809771E+01  0.44899809771E+01  0.00000000000E+00 0.  1.
         21    1    1    2  503  502 -0.20306715831E+02  0.11684238978E+01  0.19676856761E+02  0.28300293536E+02  0.00000000000E+00 0.  1.
         21    1    1    2  504  501  0.20306715831E+02 -0.11684238978E+01  0.58004432367E+03  0.58040084885E+03  0.00000000000E+00 0. -1.
</event>
<event>
 4    1  0.3099057E+006  0.4780215E+02  0.7546771E-02  0.1307993E+00
         21   -1    0    0  504  501  0.00000000000E+00  0.00000000000E+00  0.92514552486E+01  0.92514552486E+01  0.00000000000E+00 0. -1.
         21   -1    0    0  503  502 -0.00000000000E+00 -0.00000000000E+00 -0.26290621071E+03  0.26290621071E+03  0.00000000000E+00 0. -1.
         21    1    1    2  503  501 -0.30143068896E+02  0.37100417088E+02 -0.93348739453E+02  0.10487627333E+03  0.00000000000E+00 0. -1.
         21    1    1    2  504  502  0.30143068896E+02 -0.37100417088E+02 -0.16030601601E+03  0.16728139263E+03  0.00000000000E+00 0. -1.
</event>
<event>
 4    1  0.3099057E+006  0.3007647E+02  0.7546771E-02  0.1418933E+00
         21   -1    0    0  502  501  0.00000000000E+00  0.00000000000E+00  0.34651455994E+00  0.34651455994E+00  0.00000000000E+00 0.  1.
         21   -1    0    0  504  502 -0.00000000000E+00 -0.00000000000E+00 -0.28539001533E+04  0.28539001533E+04  0.00000000000E+00 0.  1.
         21    1    1    2  503  501  0.30062776279E+02 -0.90747012756E+00 -0.10100448570E+04  0.10104925567E+04  0.00000000000E+00 0.  1.
         21    1    1    2  504  503 -0.30062776279E+02  0.90747012756E+00 -0.18435087817E+04  0.18437541111E+04  0.00000000000E+00 0.  1.
</event>
<event>
 4    1  0.3099057E+006  0.6315420E+02  0.7546771E-02  0.1249476E+00
         21   -1    0    0  503  501  0.00000000000E+00  0.00000000000E+00  0.34885624383E+03  0.34885624383E+03  0.00000000000E+00 0. -1.
         21   -1    0    0  504  502 -0.00000000000E+00 -0.00000000000E+00 -0.14882516792E+02  0.14882516792E+02  0.00000000000E+00 0. -1.
         21    1    1    2  503  502 -0.41945711421E+02  0.47212399728E+02  0.25454653922E+03  0.26226397775E+03  0.00000000000E+00 0. -1.
         21    1    1    2  504  501  0.41945711421E+02 -0.47212399728E+02  0.79427187816E+02  0.10147478287E+03  0.00000000000E+00 0. -1.
</event>
<event>
 4    1  0.3099057E+006  0.2068078E+02  0.7546771E-02  0.1523872E+00
         21   -1    0    0  504  501  0.00000000000E+00  0.00000000000E+00  0.13659048022E+03  0.13659048022E+03  0.00000000000E+00 0.  1.
         21   -1    0    0  503  502 -0.00000000000E+00 -0.00000000000E+00 -0.64129580067E+01  0.64129580067E+01  0.00000000000E+00 0.  1.
         21    1    1    2  503  501 -0.20453802186E+02  0.30555640071E+01  0.11623802732E+03  0.11806342994E+03  0.00000000000E+00 0.  1.
         21    1    1    2  504  502  0.20453802186E+02 -0.30555640071E+01  0.13939494897E+02  0.24940008284E+02  0.00000000000E+00 0.  1.
</event>
<event>
 4    1  0.3099057E+006  0.2014341E+02  0.7546771E-02  0.1531855E+00
         21   -1    0    0  503  501  0.00000000000E+00  0.00000000000E+00  0.40806462096E+02  0.40806462096E+02  0.00000000000E+00 0. -1.
         21   -1    0    0  501  502 -0.00000000000E+00 -0.00000000000E+00 -0.25522494049E+02  0.25522494049E+02  0.00000000000E+00 0. -1.
         21    1    1    2  503  504 -0.55341918850E+01 -0.19368260564E+02  0.33552859585E+02  0.39135037798E+02  0.00000000000E+00 0. -1.
         21    1    1    2  504  502  0.55341918850E+01  0.19368260564E+02 -0.18268891538E+02  0.27193918348E+02  0.00000000000E+00 0. -1.
</event>
<event>
 4    1  0.3099057E+006  0.2633970E+02  0.7546771E-02  0.1454356E+00
         21   -1    0    0  502  501  0.00000000000E+00  0.00000000000E+00  0.30816353350E+02  0.30816353350E+02  0.00000000000E+00 0.  1.
         21   -1    0    0  503  502 -0.00000000000E+00 -0.00000000000E+00 -0.11162564897E+03  0.11162564897E+03  0.00000000000E+00 0. -1.
         21    1    1    2  503  504 -0.13708578940E+01 -0.26303997943E+02 -0.10403947708E+03  0.10732190993E+03  0.00000000000E+00 0. -1.
         21    1    1    2  504  501  0.13708578940E+01  0.26303997943E+02  0.23230181459E+02  0.35120092394E+02  0.00000000000E+00 0.  1.
</event>
<event>
 4    1  0.3099057E+006  0.2987556E+02  0.7546771E-02  0.1420681E+00
         21   -1    0    0  502  501  0.00000000000E+00  0.00000000000E+00  0.28783604114E+03  0.28783604114E+03  0.00000000000E+00 0.  1.
         21   -1    0    0  504  502 -0.00000000000E+00 -0.00000000000E+00 -0.14508804042E+02  0.14508804042E+02  0.00000000000E+00 0.  1.
         21    1    1    2  503  501  0.27750928729E+02  0.11065044327E+02  0.27071145108E+03  0.27235498710E+03  0.00000000000E+00 0.  1.
         21    1    1    2  504  503 -0.27750928729E+02 -0.11065044327E+02  0.26157860156E+01  0.29989858082E+02  0.00000000000E+00 0.  1.
</event>
<event>
 4    1  0.3099057E+006  0.2147290E+02  0.7546771E-02  0.1512619E+00
         21   -1    0    0  502  501  0.00000000000E+00  0.00000000000E+00  0.25598897053E+02  0.25598897053E+02  0.00000000000E+00 0.  1.
         21   -1    0    0  504  502 -0.00000000000E+00 -0.00000000000E+00 -0.11774573167E+03  0.11774573167E+03  0.00000000000E+00 0.  1.
         21    1    1    2  503  501  0.14626169938E+01 -0.21423028192E+02  0.19889528493E+02  0.29269074618E+02  0.00000000000E+00 0.  1.
         21    1    1    2  504  503 -0.14626169938E+01  0.21423028192E+02 -0.11203636311E+03  0.11407555410E+03  0.00000000000E+00 0.  1.
</event>
<event>
 4    1  0.3099057E+006  0.2200053E+02  0.7546771E-02  0.1505445E+00
         21   -1    0    0  504  501  0.00000000000E+00  0.00000000000E+00  0.44189300141E+02  0.44189300141E+02  0.00000000000E+00 0. -1.
         21   -1    0    0  503  502 -0.00000000000E+00 -0.00000000000E+00 -0.26525361905E+02  0.26525361905E+02  0.00000000000E+00 0. -1.
         21    1    1    2  503  501  0.15855340198E+02 -0.15252261552E+02 -0.18258742544E+02  0.28590295111E+02  0.00000000000E+00 0. -1.
         21    1    1    2  504  502 -0.15855340198E+02  0.15252261552E+02  0.35922680780E+02  0.42124366935E+02  0.00000000000E+00 0. -1.
</event>
<event>
 4    1  0.3099057E+006  0.2774501E+02  0.7546771E-02  0.1440265E+00
         21   -1    0    0  503  501  0.00000000000E+00  0.00000000000E+00  0.23192034987E+03  0.23192034987E+03  0.00000000000E+00 0.  1.
         21   -1    0    0  504  502 -0.00000000000E+00 -0.00000000000E+00 -0.40329259347E+01  0.40329259347E+01  0.00000000000E+00 0.  1.
         21    1    1    2  503  502  0.25445339953E+02 -0.11059847309E+02  0.64312200073E+02  0.70041734887E+02  0.00000000000E+00 0.  1.
         21    1    1    2  504  501 -0.25445339953E+02  0.11059847309E+02  0.16357522386E+03  0.16591154092E+03  0.00000000000E+00 0.  1.
</event>
<event>
 4    1  0.3099057E+006  0.2099064E+02  0.7546771E-02  0.1519398E+00
         21   -1    0    0  502  501  0.00000000000E+00  0.00000000000E+00  0.24252172561E+02  0.24252172561E+02  0.00000000000E+00 0. -1.
         21   -1    0    0  503  502 -0.00000000000E+00 -0.00000000000E+00 -0.48486898663E+03  0.48486898663E+03  0.00000000000E+00 0.  1.
         21    1    1    2  503  504  0.10730481722E+02 -0.18040617828E+02 -0.48005434255E+03  0.48051303721E+03  0.00000000000E+00 0.  1.
         21    1    1    2  504  501 -0.10730481722E+02  0.18040617828E+02  0.19437528482E+02  0.28608121978E+02  0.00000000000E+00 0. -1.
</event>
<event>
 4    1  0.3099057E+006  0.2246944E+02  0.7546771E-02  0.1499270E+00
         21   -1    0    0  504  501  0.00000000000E+00  0.00000000000E+00  0.22801775389E+01  0.22801775389E+01  0.00000000000E+00 0.  1.
         21   -1    0    0  503  502 -0.00000000000E+00 -0.00000000000E+00 -0.22639165334E+03  0.22639165334E+03  0.00000000000E+00 0.  1.
         21    1    1    2  503  501 -0.17175628753E+02  0.14487005459E+02 -0.12900024517E+03  0.13094250191E+03  0.00000000000E+00 0.  1.
         21    1    1    2  504  502  0.17175628753E+02 -0.14487005459E+02 -0.95111230628E+02  0.97729328974E+02  0.00000000000E+00 0.  1.
</event>
<event>
 4    1  0.3099057E+006  0.2254176E+02  0.7546771E-02  0.1498334E+00
         21   -1    0    0  503  501  0.00000000000E+00  0.00000000000E+00  0.11210413092E+02  0.11210413092E+02  0.00000000000E+00 0. -1.
         21   -1    0    0  501  502 -0.00000000000E+00 -0.00000000000E+00 -0.45329760066E+02  0.45329760066E+02  0.00000000000E+00 0. -1.
         21    1    1    2  503  504 -0.92400907733E+01 -0.20560922531E+02 -0.16826661573E+02  0.28129474800E+02  0.00000000000E+00 0. -1.
         21    1    1    2  504  502  0.92400907733E+01  0.20560922531E+02 -0.17292685400E+02  0.28410698358E+02  0.00000000000E+00 0. -1.
</event>
<event>
 4    1  0.3099057E+006  0.2455906E+02  0.7546771E-02  0.1473797E+00
         21   -1    0    0  504  501  0.00000000000E+00  0.00000000000E+00  0.23917141851E+03  0.23917141851E+03  0.00000000000E+00 0. -1.
         21   -1    0    0  503  502 -0.00000000000E+00 -0.00000000000E+00 -0.32739274173E+02  0.32739274173E+02  0.00000000000E+00 0. -1.
         21    1    1    2  503  501 -0.86268785539E+00 -0.24543899219E+02 -0.27398221019E+02  0.36794153533E+02  0.00000000000E+00 0. -1.
         21    1    1    2  504  502  0.86268785539E+00  0.24543899219E+02  0.23383036536E+03  0.23511653915E+03  0.00000000000E+00 0. -1.
</event>
<event>
 4    1  0.3099057E+006  0.2015957E+02  0.7546771E-02  0.1531610E+00
         21   -1    0    0  502  501  0.00000000000E+00  0.00000000000E+00  0.35587409759E+03  0.35587409759E+03  0.00000000000E+00 0. -1.
         21   -1    0    0  504  502 -0.00000000000E+00 -0.00000000000E+00 -0.47874285204E+01  0.47874285204E+01  0.00000000000E+00 0. -1.
         21    1    1    2  503  501  0.45145417748E+01 -0.19647578372E+02  0.33290282056E+03  0.33351266297E+03  0.00000000000E+00 0. -1.
         21    1    1    2  504  503 -0.45145417748E+01  0.19647578372E+02  0.18183848511E+02  0.27148863143E+02  0.00000000000E+00 0. -1.
</event>
<event>
 4    1  0.3099057E+006  0.2261526E+02  0.7546771E-02  0.1497387E+00
         21   -1    0    0  503  501  0.00000000000E+00  0.00000000000E+00  0.21661985265E+02  0.21661985265E+02  0.00000000000E+00 0.  1.
         21   -1    0    0  504  502 -0.00000000000E+00 -0.00000000000E+00 -0.25681681436E+02  0.25681681436E+02  0.00000000000E+00 0.  1.
         21    1    1    2  503  502  0.27647294516E+01 -0.22445633785E+02 -0.87323311183E+01  0.24242603237E+02  0.00000000000E+00 0.  1.
         21    1    1    2  504  501 -0.27647294516E+01  0.22445633785E+02  0.47126349473E+01  0.23101063463E+02  0.00000000000E+00 0.  1.
</event>
<event>
 4    1  0.3099057E+006  0.4745242E+02  0.7546771E-02  0.1309612E+00
         21   -1    0    0  503  501  0.00000000000E+00  0.00000000000E+00  0.17640531900E+03  0.17640531900E+03  0.00000000000E+00 0. -1.
         21   -1    0    0  504  502 -0.00000000000E+00 -0.00000000000E+00 -0.14020007375E+02  0.14020007375E+02  0.00000000000E+00 0.  1.
         21    1    1    2  503  502  0.47039693623E+02 -0.62449383186E+01  0.10968472651E+03  0.11950929362E+03  0.00000000000E+00 0. -1.
         21    1    1    2  504  501 -0.47039693623E+02  0.62449383186E+01  0.52700585110E+02  0.70916032755E+02  0.00000000000E+00 0.  1.
</event>
<event>
 4    1  0.3099057E+006  0.2127006E+02  0.7546771E-02  0.1515444E+00
         21   -1    0    0  503  501  0.00000000000E+00  0.00000000000E+00  0.56592283549E+03  0.56592283549E+03  0.00000000000E+00 0.  1.
         21   -1    0    0  504  502 -0.00000000000E+00 -0.00000000000E+00 -0.80396427876E+00  0.80396427876E+00  0.00000000000E+00 0. -1.
         21    1    1    2  503  502 -0.19889192289E+02 -0.75389315421E+01  0.30384078975E+03  0.30458437414E+03  0.00000000000E+00 0.  1.
         21    1    1    2  504  501  0.19889192289E+02  0.75389315421E+01  0.26127808146E+03  0.26214242562E+03  0.00000000000E+00 0. -1.
</event>
<event>
 4    1  0.3099057E+006  0.2282889E+02  0.7546771E-02  0.1494658E+00
         21   -1    0    0  503  501  0.00000000000E+00  0.00000000000E+00  0.24488816151E+02  0.24488816151E+02  0.00000000000E+00 0.  1.
         21   -1    0    0  501  502 -0.00000000000E+00 -0.00000000000E+00 -0.17756020658E+03  0.17756020658E+03  0.00000000000E+00 0.  1.
         21    1    1    2  503  504 -0.92905200117E+01  0.20852924137E+02  0.18241504324E+02  0.29221750241E+02  0.00000000000E+00 0.  1.
         21    1    1    2  504  502  0.92905200117E+01 -0.20852924137E+02 -0.17131289475E+03  0.17282727249E+03  0.00000000000E+00 0.  1.
</event>
<event>
 4    1  0.3099057E+006  0.2030200E+02  0.7546771E-02  0.1529468E+00
         21   -1    0    0  502  501  0.00000000000E+00  0.00000000000E+00  0.15542067746E+03  0.15542067746E+03  0.00000000000E+00 0. -1.
         21   -1    0    0  504  502 -0.00000000000E+00 -0.00000000000E+00 -0.33667631258E+01  0.33667631258E+01  0.00000000000E+00 0. -1.
         21    1    1    2  503  501  0.19061673216E+02 -0.69873964298E+01  0.11260915717E+03  0.11442461874E+03  0.00000000000E+00 0. -1.
         21    1    1    2  504  503 -0.19061673216E+02  0.69873964298E+01  0.39444757168E+02  0.44362821852E+02  0.00000000000E+00 0. -1.
</event>
<event>
 4    1  0.3099057E+006  0.2544898E+02  0.7546771E-02  0.1463843E+00
         21   -1    0    0  504  501  0.00000000000E+00  0.00000000000E+00  0.21723117757E+02  0.21723117757E+02  0.00000000000E+00 0.  1.
         21   -1    0    0  503  502 -0.00000000000E+00 -0.00000000000E+00 -0.32058210168E+02  0.32058210168E+02  0.00000000000E+00 0. -1.
         21    1    1    2  503  501  0.19759730115E+01  0.25372155253E+02 -0.12282529795E+02  0.28257941710E+02  0.00000000000E+00 0. -1.
         21    1    1    2  504  502 -0.19759730115E+01 -0.25372155253E+02  0.19474373848E+01  0.25523386215E+02  0.00000000000E+00 0.  1.
</event>
<event>
 4    1  0.3099057E+006  0.2103263E+02  0.7546771E-02  0.1518799E+00
         21   -1    0    0  504  501  0.00000000000E+00  0.00000000000E+00  0.41125549756E+02  0.41125549756E+02  0.00000000000E+00 0. -1.
         21   -1    0    0  503  502 -0.00000000000E+00 -0.00000000000E+00 -0.10767911332E+02  0.10767911332E+02  0.00000000000E+00 0. -1.
         21    1    1    2  503  501 -0.16200202680E+02  0.13413613435E+02  0.14338317673E+02  0.25455037732E+02  0.00000000000E+00 0. -1.
         21    1    1    2  504  502  0.16200202680E+02 -0.13413613435E+02  0.16019320751E+02  0.26438423356E+02  0.00000000000E+00 0. -1.
</event>
<event>
 4    1  0.3099057E+006  0.3384571E+02  0.7546771E-02  0.1388865E+00
         21   -1    0    0  504  501  0.00000000000E+00  0.00000000000E+00  0.11189915582E+03  0.11189915582E+03  0.00000000000E+00 0.  1.
         21   -1    0    0  503  502 -0.00000000000E+00 -0.00000000000E+00 -0.14988159016E+02  0.14988159016E+02  0.00000000000E+00 0.  1.
         21    1    1    2  503  501  0.25884716852E+02 -0.21806274244E+02  0.84175006806E+02  0.90724660008E+02  0.00000000000E+00 0.  1.
         21    1    1    2  504  502 -0.25884716852E+02  0.21806274244E+02  0.12735989997E+02  0.36162654827E+02  0.00000000000E+00 0.  1.
</event>
<event>
 4    1  0.3099057E+006  0.2317421E+02  0.7546771E-02  0.1490322E+00
         21   -1    0    0  504  501  0.00000000000E+00  0.00000000000E+00  0.59213655334E+02  0.59213655334E+02  0.00000000000E+00 0. -1.
         21   -1    0    0  501  502 -0.00000000000E+00 -0.00000000000E+00 -0.54553934020E+02  0.54553934020E+02  0.00000000000E+00 0.  1.
         21    1    1    2  503  502 -0.40285018310E+01  0.22821371827E+02 -0.49610680453E+02  0.54756401033E+02  0.00000000000E+00 0.  1.
         21    1    1    2  504  503  0.40285018310E+01 -0.22821371827E+02  0.54270401767E+02  0.59011188321E+02  0.00000000000E+00 0. -1.
</event>
<event>
 4    1  0.3099057E+006  0.2669956E+02  0.7546771E-02  0.1450650E+00
         21   -1    0    0  504  501  0.00000000000E+00  0.00000000000E+00  0.54863513950E+02  0.54863513950E+02  0.00000000000E+00 0.  1.
         21   -1    0    0  503  502 -0.00000000000E+00 -0.00000000000E+00 -0.13738179226E+02  0.13738179226E+02  0.00000000000E+00 0. -1.
         21    1    1    2  503  501 -0.20982655668E+02 -0.16510444480E+02  0.28548825496E+02  0.39088387700E+02  0.00000000000E+00 0.  1.
         21    1    1    2  504  502  0.20982655668E+02  0.16510444480E+02  0.12576509228E+02  0.29513305477E+02  0.00000000000E+00 0. -1.
</event>
<event>
 4    1  0.3099057E+006  0.2282480E+02  0.7546771E-02  0.1494710E+00
         21   -1    0    0  504  501  0.00000000000E+00  0.00000000000E+00  0.77260756250E+01  0.77260756250E+01  0.00000000000E+00 0.  1.
         21   -1    0    0  503  502 -0.00000000000E+00 -0.00000000000E+00 -0.15962242927E+04  0.15962242927E+04  0.00000000000E+00 0.  1.
         21    1    1    2  503  501 -0.14418238985E+01  0.22779213193E+02 -0.93958618401E+01  0.24683063618E+02  0.00000000000E+00 0.  1.
         21    1    1    2  504  502  0.14418238985E+01 -0.22779213193E+02 -0.15791023552E+04  0.15792673047E+04  0.00000000000E+00 0.  1.
</event>
<event>
 4    1  0.3099057E+006  0.2414554E+02  0.7546771E-02  0.1478594E+00
         21   -1    0    0  504  501  0.00000000000E+00  0.00000000000E+00  0.17883887948E+03  0.17883887948E+03  0.00000000000E+00 0. -1.
         21   -1    0    0  503  502 -0.00000000000E+00 -0.00000000000E+00 -0.21364886605E+02  0.21364886605E+02  0.00000000000E+00 0.  1.
         21    1    1    2  503  501 -0.15324105938E+01  0.24096861734E+02  0.17088594270E+03  0.17258334926E+03  0.00000000000E+00 0. -1.
         21    1    1    2  504  502  0.15324105938E+01 -0.24096861734E+02 -0.13411949826E+02  0.27620416829E+02  0.00000000000E+00 0.  1.
</event>
<event>
 4    1  0.3099057E+006  0.4393866E+02  0.7546771E-02  0.1326832E+00
         21   -1    0    0  503  501  0.00000000000E+00  0.00000000000E+00  0.38162459202E+03  0.38162459202E+03  0.00000000000E+00 0.  1.
         21   -1    0    0  504  502 -0.00000000000E+00 -0.00000000000E+00 -0.30600951241E+02  0.30600951241E+02  0.00000000000E+00 0. -1.
         21    1    1    2  503  502 -0.41022524531E+02  0.15740339484E+02 -0.12794636077E+02  0.45763615661E+02  0.00000000000E+00 0. -1.
         21    1    1    2  504  501  0.41022524531E+02 -0.15740339484E+02  0.36381827686E+03  0.36646192760E+03  0.00000000000E+00 0.  1.
</event>
<event>
 4    1  0.3099057E+006  0.2014646E+02  0.7546771E-02  0.1531809E+00
         21   -1    0    0  504  501  0.00000000000E+00  0.00000000000E+00  0.85749943518E+02  0.85749943518E+02  0.00000000000E+00 0. -1.
         21   -1    0    0  503  502 -0.00000000000E+00 -0.00000000000E+00 -0.95305911576E+01  0.95305911576E+01  0.00000000000E+00 0.  1.
         21    1    1    2  503  501  0.14412824536E+02 -0.14076582500E+02  0.43099965209E+01  0.20602324043E+02  0.00000000000E+00 0.  1.
         21    1    1    2  504  502 -0.14412824536E+02  0.14076582500E+02  0.71909355839E+02  0.74678210632E+02  0.00000000000E+00 0. -1.
</event>
<event>
 4    1  0.3099057E+006  0.2006424E+02  0.7546771E-02  0.1533056E+00
         21   -1    0    0  504  501  0.00000000000E+00  0.00000000000E+00  0.22993405247E+03  0.22993405247E+03  0.00000000000E+00 0. -1.
         21   -1    0    0  503  502 -0.00000000000E+00 -0.00000000000E+00 -0.27669827585E+02  0.27669827585E+02  0.00000000000E+00 0. -1.
         21    1    1    2  503  501  0.12227639103E+02 -0.15907810038E+02  0.22579246371E+03  0.22668217894E+03  0.00000000000E+00 0. -1.
         21    1    1    2  504  502 -0.12227639103E+02  0.15907810038E+02 -0.23528238823E+02  0.30921701123E+02  0.00000000000E+00 0. -1.
</event>
<event>
 4    1  0.3099057E+006  0.2276120E+02  0.7546771E-02  0.1495519E+00
         21   -1    0    0  502  501  0.00000000000E+00  0.00000000000E+00  0.75520320270E+03  0.75520320270E+03  0.00000000000E+00 0. -1.
         21   -1    0    0  504  502 -0.00000000000E+00 -0.00000000000E+00 -0.14063820291E+01  0.14063820291E+01  0.00000000000E+00 0.  1.
         21    1    1    2  503  501 -0.37279255476E+01  0.22453841230E+02  0.64764962856E+03  0.64804946863E+03  0.00000000000E+00 0. -1.
         21    1    1    2  504  503  0.37279255476E+01 -0.22453841230E+02  0.10614719211E+03  0.10856011610E+03  0.00000000000E+00 0.  1.
</event>
<event>
 4    1  0.3099057E+006  0.2648841E+02  0.7546771E-02  0.1452816E+00
         21   -1    0    0  503  501  0.00000000000E+00  0.00000000000E+00  0.26657957089E+02  0.26657957089E+02  0.00000000000E+00 0. -1.
         21   -1    0    0  504  502 -0.00000000000E+00 -0.00000000000E+00 -0.12837443402E+03  0.12837443402E+03  0.00000000000E+00 0. -1.
         21    1    1    2  503  502 -0.16093158218E+01  0.26439472608E+02  0.18256276310E+02  0.32170284952E+02  0.00000000000E+00 0. -1.
         21    1    1    2  504  501  0.16093158218E+01 -0.26439472608E+02 -0.11997275324E+03  0.12286210616E+03  0.00000000000E+00 0. -1.
</event>
<event>
 4    1  0.3099057E+006  0.2028462E+02  0.7546771E-02  0.1529728E+00
         21   -1    0    0  502  501  0.00000000000E+00  0.00000000000E+00  0.31333697040E+03  0.31333697040E+03  0.00000000000E+00 0. -1.
         21   -1    0    0  503  502 -0.00000000000E+00 -0.00000000000E+00 -0.21173802707E+01  0.21173802707E+01  0.00000000000E+00 0. -1.
         21    1    1    2  503  504  0.10127641817E+02  0.17575461884E+02  0.58404303785E+02  0.61826601797E+02  0.00000000000E+00 0. -1.
         21    1    1    2  504  501 -0.10127641817E+02 -0.17575461884E+02  0.25281528634E+03  0.25362774887E+03  0.00000000000E+00 0. -1.
</event>
<event>
 4    1  0.3099057E+006  0.2251232E+02  0.7546771E-02  0.1498714E+00
         21   -1    0    0  504  501  0.00000000000E+00  0.00000000000E+00  0.73252505364E+01  0.73252505364E+01  0.00000000000E+00 0. -1.
         21   -1    0    0  503  502 -0.00000000000E+00 -0.00000000000E+00 -0.27531808785E+03  0.27531808785E+03  0.00000000000E+00 0.  1.
         21    1    1    2  503  501 -0.19225875823E+02  0.11711970331E+02 -0.25627889378E+03  0.25726576909E+03  0.00000000000E+00 0.  1.
         21    1    1    2  504  502  0.19225875823E+02 -0.11711970331E+02 -0.11713943538E+02  0.25377569297E+02  0.00000000000E+00 0. -1.
</event>
<event>
 4    1  0.3099057E+006  0.2251765E+02  0.7546771E-02  0.1498645E+00
         21   -1    0    0  504  501  0.00000000000E+00  0.00000000000E+00  0.10443790317E+02  0.10443790317E+02  0.00000000000E+00 0.  1.
         21   -1    0    0  503  502 -0.00000000000E+00 -0.00000000000E+00 -0.49507305631E+02  0.49507305631E+02  0.00000000000E+00 0.  1.
         21    1    1    2  503  501  0.51092805482E+01  0.21930342457E+02 -0.15363187149E+02  0.27259350458E+02  0.00000000000E+00 0.  1.
         21    1    1    2  504  502 -0.51092805482E+01 -0.21930342457E+02 -0.23700328166E+02  0.32691745490E+02  0.00000000000E+00 0.  1.
</event>
<event>
 4    1  0.3099057E+006  0.2425236E+02  0.7546771E-02  0.1477344E+00
         21   -1    0    0  504  501  0.00000000000E+00  0.00000000000E+00  0.10346818994E+03  0.10346818994E+03  0.00000000000E+00 0.  1.
         21   -1    0    0  503  502 -0.00000000000E+00 -0.00000000000E+00 -0.77986571714E+01  0.77986571714E+01  0.00000000000E+00 0. -1.
         21    1    1    2  503  501 -0.13058383264E+02  0.20436619845E+02  0.18869153968E+02  0.30728191870E+02  0.00000000000E+00 0. -1.
         21    1    1    2  504  502  0.13058383264E+02 -0.20436619845E+02  0.76800378802E+02  0.80538655242E+02  0.00000000000E+00 0.  1.
</event>
<event>
 4    1  0.3099057E+006  0.4327054E+02  0.7546771E-02  0.1330317E+00
         21   -1    0    0  503  501  0.00000000000E+00  0.00000000000E+00  0.20715076150E+03  0.20715076150E+03  0.00000000000E+00 0.  1.
         21   -1    0    0  504  502 -0.00000000000E+00 -0.00000000000E+00 -0.20199192144E+03  0.20199192144E+03  0.00000000000E+00 0.  1.
         21    1    1    2  503  502 -0.14111081879E+02  0.40904978224E+02  0.20252140200E+03  0.20709239036E+03  0.00000000000E+00 0.  1.
         21    1    1    2  504  501  0.14111081879E+02 -0.40904978224E+02 -0.19736256194E+03  0.20205029258E+03  0.00000000000E+00 0.  1.
</event>
<event>
 4    1  0.3099057E+006  0.2193925E+02  0.7546771E-02  0.1506265E+00
         21   -1    0    0  503  501  0.00000000000E+00  0.00000000000E+00  0.79003350467E+02  0.79003350467E+02  0.00000000000E+00 0.  1.
         21   -1    0    0  504  502 -0.00000000000E+00 -0.00000000000E+00 -0.45798157420E+02  0.45798157420E+02  0.00000000000E+00 0.  1.
         21    1    1    2  503  502  0.15818130075E+02 -0.15202553757E+02 -0.41499502795E+02  0.46941874824E+02  0.00000000000E+00 0.  1.
         21    1    1    2  504  501 -0.15818130075E+02  0.15202553757E+02  0.74704695841E+02  0.77859633062E+02  0.00000000000E+00 0.  1.
</event>
<event>
 4    1  0.3099057E+006  0.2025956E+02  0.7546771E-02  0.1530104E+00
         21   -1    0    0  504  501  0.00000000000E+00  0.00000000000E+00  0.17444228905E+03  0.17444228905E+03  0.00000000000E+00 0. -1.
         21   -1    0    0  503  502 -0.00000000000E+00 -0.00000000000E+00 -0.87419077825E+01  0.87419077825E+01  0.00000000000E+00 0. -1.
         21    1    1    2  503  501  0.17471747168E+02  0.10256119696E+02  0.16115180131E+03  0.16242029739E+03  0.00000000000E+00 0. -1.
         21    1    1    2  504  502 -0.17471747168E+02 -0.10256119696E+02  0.45485799607E+01  0.20763899441E+02  0.00000000000E+00 0. -1.
</event>
<event>
 4    1  0.3099057E+006  0.2402729E+02  0.7546771E-02  0.1479986E+00
         21   -1    0    0  504  501  0.00000000000E+00  0.00000000000E+00  0.16296857991E+02  0.16296857991E+02  0.00000000000E+00 0.  1.
         21   -1    0    0  501  502 -0.00000000000E+00 -0.00000000000E+00 -0.86891688723E+02  0.86891688723E+02  0.00000000000E+00 0. -1.
         21    1    1    2  503  502 -0.22492894143E+02  0.84486808331E+01 -0.75005320053E+02  0.78759815458E+02  0.00000000000E+00 0. -1.
         21    1    1    2  504  503  0.22492894143E+02 -0.84486808331E+01  0.44104893207E+01  0.24428731256E+02  0.00000000000E+00 0.  1.
</event>
<event>
 4    1  0.3099057E+006  0.2051112E+02  0.7546771E-02  0.1526361E+00
         21   -1    0    0  504  501  0.00000000000E+00  0.00000000000E+00  0.51189532661E+03  0.51189532661E+03  0.00000000000E+00 0. -1.
         21   -1    0    0  501  502 -0.00000000000E+00 -0.00000000000E+00 -0.55129661310E+01  0.55129661310E+01  0.00000000000E+00 0. -1.
         21    1    1    2  503  502  0.16641255313E+02  0.11990603559E+02  0.14548352036E+02  0.25146779099E+02  0.00000000000E+00 0. -1.
         21    1    1    2  504  503 -0.16641255313E+02 -0.11990603559E+02  0.49183400844E+03  0.49226151364E+03  0.00000000000E+00 0. -1.
</event>
<event>
 4    1  0.3099057E+006  0.2249645E+02  0.7546771E-02  0.1498920E+00
         21   -1    0    0  502  501  0.00000000000E+00  0.00000000000E+00  0.11616594710E+01  0.11616594710E+01  0.00000000000E+00 0.  1.
         21   -1    0    0  504  502 -0.00000000000E+00 -0.00000000000E+00 -0.55933279800E+03  0.55933279800E+03  0.00000000000E+00 0.  1.
         21    1    1    2  503  501 -0.21236364522E+02 -0.74234255732E+01 -0.14730831167E+03  0.14901620419E+03  0.00000000000E+00 0.  1.
         21    1    1    2  504  503  0.21236364522E+02  0.74234255732E+01 -0.41086282686E+03  0.41147825328E+03  0.00000000000E+00 0.  1.
</event>
<event>
 4    1  0.3099057E+006  0.2799169E+02  0.7546771E-02  0.1437893E+00
         21   -1    0    0  504  501  0.00000000000E+00  0.00000000000E+00  0.52484055323E+03  0.52484055323E+03  0.00000000000E+00 0.  1.
         21   -1    0    0  503  502 -0.00000000000E+00 -0.00000000000E+00 -0.12771973818E+02  0.12771973818E+02  0.00000000000E+00 0.  1.
         21    1    1    2  503  501  0.25641778010E+02  0.11226478994E+02  0.34262966899E+01  0.28200604943E+02  0.00000000000E+00 0.  1.
         21    1    1    2  504  502 -0.25641778010E+02 -0.11226478994E+02  0.50864228272E+03  0.50941192210E+03  0.00000000000E+00 0.  1.
</event>
<event>
 4    1  0.3099057E+006  0.2325492E+02  0.7546771E-02  0.1489322E+00
         21   -1    0    0  504  501  0.00000000000E+00  0.00000000000E+00  0.18009770951E+02  0.18009770951E+02  0.00000000000E+00 0.  1.
         21   -1    0    0  503  502 -0.00000000000E+00 -0.00000000000E+00 -0.13169299900E+03  0.13169299900E+03  0.00000000000E+00 0.  1.
         21    1    1    2  503  501 -0.72416730194E+01  0.22098628252E+02  0.89249212167E+01  0.24908741788E+02  0.00000000000E+00 0.  1.
         21    1    1    2  504  502  0.72416730194E+01 -0.22098628252E+02 -0.12260814927E+03  0.12479402817E+03  0.00000000000E+00 0.  1.
</event>
<event>
 4    1  0.3099057E+006  0.2636580E+02  0.7546771E-02  0.1454085E+00
         21   -1    0    0  504  501  0.00000000000E+00  0.00000000000E+00  0.70957134242E+02  0.70957134242E+02  0.00000000000E+00 0. -1.
         21   -1    0    0  503  502 -0.00000000000E+00 -0.00000000000E+00 -0.12533352544E+03  0.12533352544E+03  0.00000000000E+00 0.  1.
         21    1    1    2  503  501 -0.18566440353E+02  0.18720119919E+02  0.67043274278E+02  0.72041350786E+02  0.00000000000E+00 0. -1.
         21    1    1    2  504  502  0.18566440353E+02 -0.18720119919E+02 -0.12141966547E+03  0.12424930890E+03  0.00000000000E+00 0.  1.
</event>
<event>
 4    1  0.3099057E+006  0.2720523E+02  0.7546771E-02  0.1445557E+00
         21   -1    0    0  502  501  0.00000000000E+00  0.00000000000E+00  0.28042677776E+02  0.28042677776E+02  0.00000000000E+00 0. -1.
         21   -1    0    0  503  502 -0.00000000000E+00 -0.00000000000E+00 -0.25557485354E+03  0.25557485354E+03  0.00000000000E+00 0.  1.
         21    1    1    2  503  504 -0.22703294903E+02  0.14989491277E+02 -0.24805319904E+03  0.24954060592E+03  0.00000000000E+00 0.  1.
         21    1    1    2  504  501  0.22703294903E+02 -0.14989491277E+02  0.20521023276E+02  0.34076925397E+02  0.00000000000E+00 0. -1.
</event>
<event>
 4    1  0.3099057E+006  0.2010163E+02  0.7546771E-02  0.1532488E+00
         21   -1    0    0  503  501  0.00000000000E+00  0.00000000000E+00  0.15322052783E+02  0.15322052783E+02  0.00000000000E+00 0. -1.
         21   -1    0    0  504  502 -0.00000000000E+00 -0.00000000000E+00 -0.10811576999E+03  0.10811576999E+03  0.00000000000E+00 0. -1.
         21    1    1    2  503  502 -0.18932366106E+02  0.67558180219E+01  0.72693175899E+01  0.21375653013E+02  0.00000000000E+00 0. -1.
         21    1    1    2  504  501  0.18932366106E+02 -0.67558180219E+01 -0.10006303480E+03  0.10206216976E+03  0.00000000000E+00 0. -1.
</event>
<event>
 4    1  0.3099057E+006  0.4801280E+02  0.7546771E-02  0.1307026E+00
         21   -1    0    0  503  501  0.00000000000E+00  0.00000000000E+00  0.31739372851E+03  0.31739372851E+03  0.00000000000E+00 0.  1.
         21   -1    0    0  504  502 -0.00000000000E+00 -0.00000000000E+00 -0.72779813536E+01  0.72779813536E+01  0.00000000000E+00 0.  1.
         21    1    1    2  503  502  0.33937688354E+02  0.33962657679E+02  0.14769124710E+03  0.15529949542E+03  0.00000000000E+00 0.  1.
         21    1    1    2  504  501 -0.33937688354E+02 -0.33962657679E+02  0.16242450006E+03  0.16937221445E+03  0.00000000000E+00 0.  1.
</event>
<event>
 4    1  0.3099057E+006  0.2320609E+02  0.7546771E-02  0.1489926E+00
         21   -1    0    0  502  501  0.00000000000E+00  0.00000000000E+00  0.30894746356E+01  0.30894746356E+01  0.00000000000E+00 0.  1.
         21   -1    0    0  504  502 -0.00000000000E+00 -0.00000000000E+00 -0.20082103167E+03  0.20082103167E+03  0.00000000000E+00 0.  1.
         21    1    1    2  503  501  0.15451215415E+02 -0.17314225798E+02 -0.61820869359E+02  0.66032888480E+02  0.00000000000E+00 0.  1.
         21    1    1    2  504  503 -0.15451215415E+02  0.17314225798E+02 -0.13591068768E+03  0.13787761783E+03  0.00000000000E+00 0.  1.
</event>
<event>
 4    1  0.3099057E+006  0.2062142E+02  0.7546771E-02  0.1524739E+00
         21   -1    0    0  503  501  0.00000000000E+00  0.00000000000E+00  0.58499076828E+02  0.58499076828E+02  0.00000000000E+00 0.  1.
         21   -1    0    0  504  502 -0.00000000000E+00 -0.00000000000E+00 -0.12125450192E+04  0.12125450192E+04  0.00000000000E+00 0. -1.
         21    1    1    2  503  502 -0.74458568686E+01  0.19230236009E+02 -0.12106371744E+04  0.12108127893E+04  0.00000000000E+00 0. -1.
         21    1    1    2  504  501  0.74458568686E+01 -0.19230236009E+02  0.56591232040E+02  0.60231306688E+02  0.00000000000E+00 0.  1.
</event>
<event>
 4    1  0.3099057E+006  0.2428408E+02  0.7546771E-02  0.1476974E+00
         21   -1    0    0  504  501  0.00000000000E+00  0.00000000000E+00  0.72451507029E+02  0.72451507029E+02  0.00000000000E+00 0.  1.
         21   -1    0    0  501  502 -0.00000000000E+00 -0.00000000000E+00 -0.70016560410E+02  0.70016560410E+02  0.00000000000E+00 0.  1.
         21    1    1    2  503  502  0.14067751296E+02 -0.19794314926E+02 -0.65748179966E+02  0.70089512045E+02  0.00000000000E+00 0.  1.
         21    1    1    2  504  503 -0.14067751296E+02  0.19794314926E+02  0.68183126585E+02  0.72378555393E+02  0.00000000000E+00 0.  1.
</event>
<event>
 4    1  0.3099057E+006  0.3147764E+02  0.7546771E-02  0.1407176E+00
         21   -1    0    0  504  501  0.00000000000E+00  0.00000000000E+00  0.18324811541E+03  0.18324811541E+03  0.00000000000E+00 0. -1.
         21   -1    0    0  503  502 -0.00000000000E+00 -0.00000000000E+00 -0.54077876613E+01  0.54077876613E+01  0.00000000000E+00 0.  1.
         21    1    1    2  503  501  0.26240577841E+02  0.17386021239E+02  0.89980584233E+02  0.95327578375E+02  0.00000000000E+00 0. -1.
         21    1    1    2  504  502 -0.26240577841E+02 -0.17386021239E+02  0.87859743518E+02  0.93328324698E+02  0.00000000000E+00 0.  1.
</event>
<event>
 4    1  0.3099057E+006  0.2326328E+02  0.7546771E-02  0.1489218E+00
         21   -1    0    0  503  501  0.00000000000E+00  0.00000000000E+00  0.20134027710E+02  0.20134027710E+02  0.00000000000E+00 0.  1.
         21   -1    0    0  504  502 -0.00000000000E+00 -0.00000000000E+00 -0.19042622628E+03  0.19042622628E+03  0.00000000000E+00 0.  1.
         21    1    1    2  503  502  0.19820897250E+02  0.12178355883E+02  0.12421306330E+02  0.26371749483E+02  0.00000000000E+00 0.  1.
         21    1    1    2  504  501 -0.19820897250E+02 -0.12178355883E+02 -0.18271350490E+03  0.18418850451E+03  0.00000000000E+00 0.  1.
</event>
<event>
 4    1  0.3099057E+006  0.2240907E+02  0.7546771E-02  0.1500055E+00
         21   -1    0    0  504  501  0.00000000000E+00  0.00000000000E+00  0.24680640214E+01  0.24680640214E+01  0.00000000000E+00 0.  1.
         21   -1    0    0  503  502 -0.00000000000E+00 -0.00000000000E+00 -0.20465770909E+03  0.20465770909E+03  0.00000000000E+00 0.  1.
         21    1    1    2  503  501 -0.86176537366E-01 -0.22408904401E+02 -0.93191198885E+02  0.95847618502E+02  0.00000000000E+00 0.  1.
         21    1    1    2  504  502  0.86176537366E-01  0.22408904401E+02 -0.10899844618E+03  0.11127815461E+03  0.00000000000E+00 0.  1.
</event>
<event>
 4    1  0.3099057E+006  0.3494484E+02  0.7546771E-02  0.1380951E+00
         21   -1    0    0  503  501  0.00000000000E+00  0.00000000000E+00  0.16310450278E+03  0.16310450278E+03  0.00000000000E+00 0.  1.
         21   -1    0    0  504  502 -0.00000000000E+00 -0.00000000000E+00 -0.13893305205E+02  0.13893305205E+02  0.00000000000E+00 0. -1.
         21    1    1    2  503  502  0.29978607723E+02  0.17956194622E+02  0.14509898762E+02  0.37837534386E+02  0.00000000000E+00 0. -1.
         21    1    1    2  504  501 -0.29978607723E+02 -0.17956194622E+02  0.13470129881E+03  0.13916027360E+03  0.00000000000E+00 0.  1.
</event>
<event>
 4    1  0.3099057E+006  0.2125496E+02  0.7546771E-02  0.1515656E+00
         21   -1    0    0  503  501  0.00000000000E+00  0.00000000000E+00  0.16768903145E+01  0.16768903145E+01  0.00000000000E+00 0.  1.
         21   -1    0    0  504  502 -0.00000000000E+00 -0.00000000000E+00 -0.42525410421E+03  0.42525410421E+03  0.00000000000E+00 0.  1.
         21    1    1    2  503  502 -0.12098633161E+02  0.17475595546E+02 -0.34101364626E+03  0.34167540195E+03  0.00000000000E+00 0.  1.
         21    1    1    2  504  501  0.12098633161E+02 -0.17475595546E+02 -0.82563567637E+02  0.85255592573E+02  0.00000000000E+00 0.  1.
</event>
<event>
 4    1  0.3099057E+006  0.2511589E+02  0.7546771E-02  0.1467511E+00
         21   -1    0    0  502  501  0.00000000000E+00  0.00000000000E+00  0.53955400739E+02  0.53955400739E+02  0.00000000000E+00 0.  1.
         21   -1    0    0  504  502 -0.00000000000E+00 -0.00000000000E+00 -0.13216362906E+02  0.13216362906E+02  0.00000000000E+00 0.  1.
         21    1    1    2  503  501  0.19608809395E+02  0.15694028942E+02  0.31778499405E+02  0.40505320326E+02  0.00000000000E+00 0.  1.
         21    1    1    2  504  503 -0.19608809395E+02 -0.15694028942E+02  0.89605384282E+01  0.26666443318E+02  0.00000000000E+00 0.  1.
</event>
<event>
 4    1  0.3099057E+006  0.4960514E+02  0.7546771E-02  0.1299894E+00
         21   -1    0    0  504  501  0.00000000000E+00  0.00000000000E+00  0.22615038168E+03  0.22615038168E+03  0.00000000000E+00 0. -1.
         21   -1    0    0  503  502 -0.00000000000E+00 -0.00000000000E+00 -0.10907134948E+04  0.10907134948E+04  0.00000000000E+00 0. -1.
         21    1    1    2  503  501 -0.49532945665E+02 -0.26753659657E+01 -0.10874210880E+04  0.10885519248E+04  0.00000000000E+00 0. -1.
         21    1    1    2  504  502  0.49532945665E+02  0.26753659657E+01  0.22285797492E+03  0.22831195167E+03  0.00000000000E+00 0. -1.
</event>
<event>
 4    1  0.3099057E+006  0.4387775E+02  0.7546771E-02  0.1327147E+00
         21   -1    0    0  503  501  0.00000000000E+00  0.00000000000E+00  0.82258526103E+02  0.82258526103E+02  0.00000000000E+00 0. -1.
         21   -1    0    0  504  502 -0.00000000000E+00 -0.00000000000E+00 -0.46294997191E+02  0.46294997191E+02  0.00000000000E+00 0. -1.
         21    1    1    2  503  502  0.40636754223E+02  0.16550261715E+02  0.63178833305E+02  0.76920881004E+02  0.00000000000E+00 0. -1.
         21    1    1    2  504  501 -0.40636754223E+02 -0.16550261715E+02 -0.27215304394E+02  0.51632642290E+02  0.00000000000E+00 0. -1.
</event>
<event>
 4    1  0.3099057E+006  0.2164804E+02  0.7546771E-02  0.1510210E+00
         21   -1    0    0  502  501  0.00000000000E+00  0.00000000000E+00  0.63050981744E+01  0.63050981744E+01  0.00000000000E+00 0. -1.
         21   -1    0    0  503  502 -0.00000000000E+00 -0.00000000000E+00 -0.14243969315E+03  0.14243969315E+03  0.00000000000E+00 0. -1.
         21    1    1    2  503  504  0.16857290019E+01 -0.21582302997E+02 -0.11949665097E+03  0.12144170239E+03  0.00000000000E+00 0. -1.
         21    1    1    2  504  501 -0.16857290019E+01  0.21582302997E+02 -0.16637944004E+02  0.27303088939E+02  0.00000000000E+00 0. -1.
</event>
<event>
 4    1  0.3099057E+006  0.2119870E+02  0.7546771E-02  0.1516447E+00
         21   -1    0    0  502  501  0.00000000000E+00  0.00000000000E+00  0.42091316769E+02  0.42091316769E+02  0.00000000000E+00 0.  1.
         21   -1    0    0  503  502 -0.00000000000E+00 -0.00000000000E+00 -0.18142484804E+02  0.18142484804E+02  0.00000000000E+00 0.  1.
         21    1    1    2  503  504  0.19608536872E+02  0.80554352748E+01 -0.73456074042E+01  0.22435300396E+02  0.00000000000E+00 0.  1.
         21    1    1    2  504  501 -0.19608536872E+02 -0.80554352748E+01  0.31294439369E+02  0.37798501176E+02  0.00000000000E+00 0.  1.
</event>
