<event>
 4    1  0.3283867E+006  0.2143118E+02  0.7546771E-02  0.1513197E+00
         21   -1    0    0  504  501  0.00000000000E+00  0.00000000000E+00  0.10891714952E+02  0.10891714952E+02  0.00000000000E+00 0.  1.
         21   -1    0    0  503  502 -0.00000000000E+00 -0.00000000000E+00 -0.42683187164E+03  0.42683187164E+03  0.00000000000E+00 0. -1.
         21    1    1    2  503  501 -0.21109318459E+02  0.37002682875E+01 -0.20070313554E+00  0.21432115923E+02  0.00000000000E+00 0.  1.
         21    1    1    2  504  502  0.21109318459E+02 -0.37002682875E+01 -0.41573945356E+03  0.41629147067E+03  0.00000000000E+00 0. -1.
</event>
<event>
 4    1  0.3283867E+006  0.2442960E+02  0.7546771E-02  0.1475287E+00
         21   -1    0    0  502  501  0.00000000000E+00  0.00000000000E+00  0.13297205808E+02  0.13297205808E+02  0.00000000000E+00 0.  1.
         21   -1    0    0  504  502 -0.00000000000E+00 -0.00000000000E+00 -0.17509350387E+03  0.17509350387E+03  0.00000000000E+00 0. -1.
         21    1    1    2  503  501  0.15175261379E+02  0.19144625389E+02  0.33235368762E+00  0.24431858263E+02  0.00000000000E+00 0.  1.
         21    1    1    2  504  503 -0.15175261379E+02 -0.19144625389E+02 -0.16212865175E+03  0.16395885141E+03  0.00000000000E+00 0. -1.
</event>
<event>
 4    1  0.3283867E+006  0.2118326E+02  0.7546771E-02  0.1516664E+00
         21   -1    0    0  503  501  0.00000000000E+00  0.00000000000E+00  0.29536705819E+02  0.29536705819E+02  0.00000000000E+00 0.  1.
         21   -1    0    0  504  502 -0.00000000000E+00 -0.00000000000E+00 -0.28194644536E+02  0.28194644536E+02  0.00000000000E+00 0.  1.
         21    1    1    2  503  502 -0.18128298408E+02 -0.10958792621E+02  0.20273434480E+02  0.29321365666E+02  0.00000000000E+00 0.  1.
         21    1    1    2  504  501  0.18128298408E+02  0.10958792621E+02 -0.18931373198E+02  0.28409984689E+02  0.00000000000E+00 0.  1.
</event>
<event>
 4    1  0.3283867E+006  0.2631500E+02  0.7546771E-02  0.1454613E+00
         21   -1    0    0  502  501  0.00000000000E+00  0.00000000000E+00  0.19569547040E+03  0.19569547040E+03  0.00000000000E+00 0.  1.
         21   -1    0    0  504  502 -0.00000000000E+00 -0.00000000000E+00 -0.32059335395E+03  0.32059335395E+03  0.00000000000E+00 0.  1.
         21    1    1    2  503  501  0.26292380089E+02  0.10908079563E+01  0.19426688076E+03  0.19604106731E+03  0.00000000000E+00 0.  1.
         21    1    1    2  504  503 -0.26292380089E+02 -0.10908079563E+01 -0.31916476431E+03  0.32024775704E+03  0.00000000000E+00 0.  1.
</event>
<event>
 4    1  0.3283867E+006  0.2113015E+02  0.7546771E-02  0.1517415E+00
         21   -1    0    0  502  501  0.00000000000E+00  0.00000000000E+00  0.19610393939E+01  0.19610393939E+01  0.00000000000E+00 0.  1.
         21   -1    0    0  504  502 -0.00000000000E+00 -0.00000000000E+00 -0.47945308087E+03  0.47945308087E+03  0.00000000000E+00 0. -1.
         21    1    1    2  503  501  0.13669824340E+02 -0.16112700746E+02 -0.64315226875E+02  0.67697353204E+02  0.00000000000E+00 0.  1.
         21    1    1    2  504  503 -0.13669824340E+02  0.16112700746E+02 -0.41317681460E+03  0.41371676706E+03  0.00000000000E+00 0. -1.
</event>
<event>
 4    1  0.3283867E+006  0.2237258E+02  0.7546771E-02  0.1500531E+00
         21   -1    0    0  502  501  0.00000000000E+00  0.00000000000E+00  0.15924327290E+01  0.15924327290E+01  0.00000000000E+00 0.  1.
         21   -1    0    0  503  502 -0.00000000000E+00 -0.00000000000E+00 -0.42802841077E+03  0.42802841077E+03  0.00000000000E+00 0.  1.
         21    1    1    2  503  504 -0.15262889061E+02  0.16357771058E+02 -0.32393555820E+03  0.32470721938E+03  0.00000000000E+00 0.  1.
         21    1    1    2  504  501  0.15262889061E+02 -0.16357771058E+02 -0.10250041985E+03  0.10491362412E+03  0.00000000000E+00 0.  1.
</event>
<event>
 4    1  0.3283867E+006  0.4260850E+02  0.7546771E-02  0.1333843E+00
         21   -1    0    0  504  501  0.00000000000E+00  0.00000000000E+00  0.12861424942E+04  0.12861424942E+04  0.00000000000E+00 0.  1.
         21   -1    0    0  501  502 -0.00000000000E+00 -0.00000000000E+00 -0.27406022795E+01  0.27406022795E+01  0.00000000000E+00 0. -1.
         21    1    1    2  503  502 -0.19846797659E+02  0.37703958565E+02  0.19292681090E+03  0.19757590499E+03  0.00000000000E+00 0. -1.
         21    1    1    2  504  503  0.19846797659E+02 -0.37703958565E+02  0.10904750810E+04  0.10913071915E+04  0.00000000000E+00 0.  1.
</event>
<event>
 4    1  0.3283867E+006  0.2126631E+02  0.7546771E-02  0.1515496E+00
         21   -1    0    0  502  501  0.00000000000E+00  0.00000000000E+00  0.67146877499E+02  0.67146877499E+02  0.00000000000E+00 0. -1.
         21   -1    0    0  504  502 -0.00000000000E+00 -0.00000000000E+00 -0.22921682560E+02  0.22921682560E+02  0.00000000000E+00 0.  1.
         21    1    1    2  503  501  0.84550117082E+01 -0.19513294303E+02  0.59956383214E+02  0.63616222504E+02  0.00000000000E+00 0. -1.
         21    1    1    2  504  503 -0.84550117082E+01  0.19513294303E+02 -0.15731188275E+02  0.26452337554E+02  0.00000000000E+00 0.  1.
</event>
<event>
 4    1  0.3283867E+006  0.2308391E+02  0.7546771E-02  0.1491447E+00
         21   -1    0    0  504  501  0.00000000000E+00  0.00000000000E+00  0.30733648352E+02  0.30733648352E+02  0.00000000000E+00 0. -1.
         21   -1    0    0  501  502 -0.00000000000E+00 -0.00000000000E+00 -0.58072586186E+02  0.58072586186E+02  0.00000000000E+00 0.  1.
         21    1    1    2  503  502 -0.76404274684E+01  0.21782811839E+02 -0.50857938998E+02  0.55851562043E+02  0.00000000000E+00 0.  1.
         21    1    1    2  504  503  0.76404274684E+01 -0.21782811839E+02  0.23519001164E+02  0.32954672496E+02  0.00000000000E+00 0. -1.
</event>
<event>
 4    1  0.3283867E+006  0.2467764E+02  0.7546771E-02  0.1472442E+00
         21   -1    0    0  503  501  0.00000000000E+00  0.00000000000E+00  0.42202216259E+01  0.42202216259E+01  0.00000000000E+00 0.  1.
         21   -1    0    0  501  502 -0.00000000000E+00 -0.00000000000E+00 -0.81170052151E+03  0.81170052151E+03  0.00000000000E+00 0.  1.
         21    1    1    2  503  504  0.23950682750E+02  0.59456643590E+01 -0.33815979298E+02  0.41862950024E+02  0.00000000000E+00 0.  1.
         21    1    1    2  504  502 -0.23950682750E+02 -0.59456643590E+01 -0.77366432059E+03  0.77405779312E+03  0.00000000000E+00 0.  1.
</event>
<event>
 4    1  0.3283867E+006  0.2196395E+02  0.7546771E-02  0.1505934E+00
         21   -1    0    0  504  501  0.00000000000E+00  0.00000000000E+00  0.24308679857E+02  0.24308679857E+02  0.00000000000E+00 0.  1.
         21   -1    0    0  503  502 -0.00000000000E+00 -0.00000000000E+00 -0.20598964279E+02  0.20598964279E+02  0.00000000000E+00 0.  1.
         21    1    1    2  503  501 -0.51481737536E+01 -0.21352081693E+02 -0.24398374912E+01  0.22099047323E+02  0.00000000000E+00 0.  1.
         21    1    1    2  504  502  0.51481737536E+01  0.21352081693E+02  0.61495530701E+01  0.22808596813E+02  0.00000000000E+00 0.  1.
</event>
<event>
 4    1  0.3283867E+006  0.5731292E+02  0.7546771E-02  0.1269246E+00
         21   -1    0    0  503  501  0.00000000000E+00  0.00000000000E+00  0.42766996438E+03  0.42766996438E+03  0.00000000000E+00 0.  1.
         21   -1    0    0  504  502 -0.00000000000E+00 -0.00000000000E+00 -0.19085793310E+02  0.19085793310E+02  0.00000000000E+00 0. -1.
         21    1    1    2  503  502  0.12959145870E+02 -0.55828590265E+02  0.37696967527E+03  0.38130159588E+03  0.00000000000E+00 0.  1.
         21    1    1    2  504  501 -0.12959145870E+02  0.55828590265E+02  0.31614495800E+02  0.65454161803E+02  0.00000000000E+00 0. -1.
</event>
<event>
 4    1  0.3283867E+006  0.2011613E+02  0.7546771E-02  0.1532268E+00
         21   -1    0    0  503  501  0.00000000000E+00  0.00000000000E+00  0.28218155111E+03  0.28218155111E+03  0.00000000000E+00 0. -1.
         21   -1    0    0  501  502 -0.00000000000E+00 -0.00000000000E+00 -0.95115565904E+01  0.95115565904E+01  0.00000000000E+00 0. -1.
         21    1    1    2  503  504  0.16519855608E+02 -0.11478365547E+02  0.27073813582E+03  0.27148443176E+03  0.00000000000E+00 0. -1.
         21    1    1    2  504  502 -0.16519855608E+02  0.11478365547E+02  0.19318586999E+01  0.20208675933E+02  0.00000000000E+00 0. -1.
</event>
<event>
 4    1  0.3283867E+006  0.2062071E+02  0.7546771E-02  0.1524750E+00
         21   -1    0    0  504  501  0.00000000000E+00  0.00000000000E+00  0.13090139406E+03  0.13090139406E+03  0.00000000000E+00 0. -1.
         21   -1    0    0  503  502 -0.00000000000E+00 -0.00000000000E+00 -0.19664813664E+02  0.19664813664E+02  0.00000000000E+00 0. -1.
         21    1    1    2  503  501  0.66072316622E+01  0.19533509591E+02 -0.13166498446E+02  0.24465694114E+02  0.00000000000E+00 0. -1.
         21    1    1    2  504  502 -0.66072316622E+01 -0.19533509591E+02  0.12440307884E+03  0.12610051361E+03  0.00000000000E+00 0. -1.
</event>
<event>
 4    1  0.3283867E+006  0.3022416E+02  0.7546771E-02  0.1417658E+00
         21   -1    0    0  503  501  0.00000000000E+00  0.00000000000E+00  0.58266781821E+02  0.58266781821E+02  0.00000000000E+00 0.  1.
         21   -1    0    0  504  502 -0.00000000000E+00 -0.00000000000E+00 -0.16014724074E+02  0.16014724074E+02  0.00000000000E+00 0.  1.
         21    1    1    2  503  502  0.10611821942E+02 -0.28299988399E+02  0.15739612108E+02  0.34076905635E+02  0.00000000000E+00 0.  1.
         21    1    1    2  504  501 -0.10611821942E+02  0.28299988399E+02  0.26512445638E+02  0.40204600260E+02  0.00000000000E+00 0.  1.
</event>
<event>
 4    1  0.3283867E+006  0.2098108E+02  0.7546771E-02  0.1519535E+00
         21   -1    0    0  503  501  0.00000000000E+00  0.00000000000E+00  0.36574051688E+02  0.36574051688E+02  0.00000000000E+00 0.  1.
         21   -1    0    0  501  502 -0.00000000000E+00 -0.00000000000E+00 -0.36990716778E+02  0.36990716778E+02  0.00000000000E+00 0. -1.
         21    1    1    2  503  504  0.50504500270E+01  0.20364155718E+02  0.30002986261E+02  0.36611269688E+02  0.00000000000E+00 0.  1.
         21    1    1    2  504  502 -0.50504500270E+01 -0.20364155718E+02 -0.30419651352E+02  0.36953498778E+02  0.00000000000E+00 0. -1.
</event>
<event>
 4    1  0.3283867E+006  0.4661400E+02  0.7546771E-02  0.1313560E+00
         21   -1    0    0  504  501  0.00000000000E+00  0.00000000000E+00  0.13961999533E+04  0.13961999533E+04  0.00000000000E+00 0. -1.
         21   -1    0    0  503  502 -0.00000000000E+00 -0.00000000000E+00 -0.15638162498E+01  0.15638162498E+01  0.00000000000E+00 0.  1.
         21    1    1    2  503  501  0.17150851221E+02  0.43344127242E+02  0.64877170873E+03  0.65044415218E+03  0.00000000000E+00 0. -1.
         21    1    1    2  504  502 -0.17150851221E+02 -0.43344127242E+02  0.74586442836E+03  0.74731961741E+03  0.00000000000E+00 0.  1.
</event>
<event>
 4    1  0.3283867E+006  0.2382478E+02  0.7546771E-02  0.1482393E+00
         21   -1    0    0  503  501  0.00000000000E+00  0.00000000000E+00  0.31457482517E+01  0.31457482517E+01  0.00000000000E+00 0. -1.
         21   -1    0    0  504  502 -0.00000000000E+00 -0.00000000000E+00 -0.61950002581E+03  0.61950002581E+03  0.00000000000E+00 0. -1.
         21    1    1    2  503  502 -0.92908357198E+00 -0.23806662523E+02 -0.57026812707E+03  0.57076558860E+03  0.00000000000E+00 0. -1.
         21    1    1    2  504  501  0.92908357198E+00  0.23806662523E+02 -0.46086150484E+02  0.51880185459E+02  0.00000000000E+00 0. -1.
</event>
<event>
 4    1  0.3283867E+006  0.2635229E+02  0.7546771E-02  0.1454225E+00
         21   -1    0    0  503  501  0.00000000000E+00  0.00000000000E+00  0.12693427868E+03  0.12693427868E+03  0.00000000000E+00 0.  1.
         21   -1    0    0  504  502 -0.00000000000E+00 -0.00000000000E+00 -0.15728566030E+02  0.15728566030E+02  0.00000000000E+00 0.  1.
         21    1    1    2  503  502 -0.22672076449E+02  0.13432065206E+02 -0.20022279862E+01  0.26428248960E+02  0.00000000000E+00 0.  1.
         21    1    1    2  504  501  0.22672076449E+02 -0.13432065206E+02  0.11320794064E+03  0.11623459575E+03  0.00000000000E+00 0.  1.
</event>
<event>
 4    1  0.3283867E+006  0.3799298E+02  0.7546771E-02  0.1360666E+00
         21   -1    0    0  503  501  0.00000000000E+00  0.00000000000E+00  0.11242379956E+03  0.11242379956E+03  0.00000000000E+00 0.  1.
         21   -1    0    0  501  502 -0.00000000000E+00 -0.00000000000E+00 -0.16198099480E+02  0.16198099480E+02  0.00000000000E+00 0.  1.
         21    1    1    2  503  504 -0.26155158280E+02 -0.27556746989E+02  0.77396910102E+02  0.86219187554E+02  0.00000000000E+00 0.  1.
         21    1    1    2  504  502  0.26155158280E+02  0.27556746989E+02  0.18828789979E+02  0.42402711486E+02  0.00000000000E+00 0.  1.
</event>
<event>
 4    1  0.3283867E+006  0.2108466E+02  0.7546771E-02  0.1518059E+00
         21   -1    0    0  504  501  0.00000000000E+00  0.00000000000E+00  0.51234346779E+03  0.51234346779E+03  0.00000000000E+00 0. -1.
         21   -1    0    0  503  502 -0.00000000000E+00 -0.00000000000E+00 -0.10423165031E+02  0.10423165031E+02  0.00000000000E+00 0. -1.
         21    1    1    2  503  501  0.21071192757E+02 -0.75340744362E+00  0.69299098825E+00  0.21096042840E+02  0.00000000000E+00 0. -1.
         21    1    1    2  504  502 -0.21071192757E+02  0.75340744362E+00  0.50122731177E+03  0.50167058998E+03  0.00000000000E+00 0. -1.
</event>
<event>
 4    1  0.3283867E+006  0.2933123E+02  0.7546771E-02  0.1425498E+00
         21   -1    0    0  504  501  0.00000000000E+00  0.00000000000E+00  0.12781979144E+03  0.12781979144E+03  0.00000000000E+00 0. -1.
         21   -1    0    0  503  502 -0.00000000000E+00 -0.00000000000E+00 -0.48884381101E+02  0.48884381101E+02  0.00000000000E+00 0.  1.
         21    1    1    2  503  501 -0.28352114754E+02 -0.75152095578E+01  0.12151217924E+03  0.12500212194E+03  0.00000000000E+00 0. -1.
         21    1    1    2  504  502  0.28352114754E+02  0.75152095578E+01 -0.42576768904E+02  0.51702050598E+02  0.00000000000E+00 0.  1.
</event>
<event>
 4    1  0.3283867E+006  0.2249880E+02  0.7546771E-02  0.1498889E+00
         21   -1    0    0  502  501  0.00000000000E+00  0.00000000000E+00  0.70677603879E+02  0.70677603879E+02  0.00000000000E+00 0.  1.
         21   -1    0    0  503  502 -0.00000000000E+00 -0.00000000000E+00 -0.53379545143E+02  0.53379545143E+02  0.00000000000E+00 0.  1.
         21    1    1    2  503  504  0.22460851413E+02 -0.13061864595E+01 -0.49068483162E+02  0.53980663288E+02  0.00000000000E+00 0.  1.
         21    1    1    2  504  501 -0.22460851413E+02  0.13061864595E+01  0.66366541898E+02  0.70076485734E+02  0.00000000000E+00 0.  1.
</event>
<event>
 4    1  0.3283867E+006  0.2009940E+02  0.7546771E-02  0.1532522E+00
         21   -1    0    0  504  501  0.00000000000E+00  0.00000000000E+00  0.88157516288E+02  0.88157516288E+02  0.00000000000E+00 0.  1.
         21   -1    0    0  503  502 -0.00000000000E+00 -0.00000000000E+00 -0.94995541861E+01  0.94995541861E+01  0.00000000000E+00 0.  1.
         21    1    1    2  503  501  0.16517827417E+01  0.20031407925E+02  0.74458535539E+02  0.77123661767E+02  0.00000000000E+00 0.  1.
         21    1    1    2  504  502 -0.16517827417E+01 -0.20031407925E+02  0.41994265631E+01  0.20533408708E+02  0.00000000000E+00 0.  1.
</event>
<event>
 4    1  0.3283867E+006  0.2247436E+02  0.7546771E-02  0.1499206E+00
         21   -1    0    0  504  501  0.00000000000E+00  0.00000000000E+00  0.18154501254E+02  0.18154501254E+02  0.00000000000E+00 0.  1.
         21   -1    0    0  503  502 -0.00000000000E+00 -0.00000000000E+00 -0.30462900835E+02  0.30462900835E+02  0.00000000000E+00 0. -1.
         21    1    1    2  503  501  0.25915094502E+01 -0.22324444344E+02 -0.13311383996E+02  0.26120675344E+02  0.00000000000E+00 0. -1.
         21    1    1    2  504  502 -0.25915094502E+01  0.22324444344E+02  0.10029844156E+01  0.22496726745E+02  0.00000000000E+00 0.  1.
</event>
<event>
 4    1  0.3283867E+006  0.2557634E+02  0.7546771E-02  0.1462458E+00
         21   -1    0    0  504  501  0.00000000000E+00  0.00000000000E+00  0.26981411554E+03  0.26981411554E+03  0.00000000000E+00 0. -1.
         21   -1    0    0  503  502 -0.00000000000E+00 -0.00000000000E+00 -0.32893488930E+01  0.32893488930E+01  0.00000000000E+00 0. -1.
         21    1    1    2  503  501 -0.34020286543E+01 -0.25349069756E+02  0.20328309044E+03  0.20488573400E+03  0.00000000000E+00 0. -1.
         21    1    1    2  504  502  0.34020286543E+01  0.25349069756E+02  0.63241676210E+02  0.68217730439E+02  0.00000000000E+00 0. -1.
</event>
<event>
 4    1  0.3283867E+006  0.2274989E+02  0.7546771E-02  0.1495663E+00
         21   -1    0    0  503  501  0.00000000000E+00  0.00000000000E+00  0.60924327132E+02  0.60924327132E+02  0.00000000000E+00 0. -1.
         21   -1    0    0  501  502 -0.00000000000E+00 -0.00000000000E+00 -0.29380840112E+03  0.29380840112E+03  0.00000000000E+00 0.  1.
         21    1    1    2  503  504 -0.22749530237E+02 -0.12709560312E+00  0.58341361685E+02  0.62620058787E+02  0.00000000000E+00 0. -1.
         21    1    1    2  504  502  0.22749530237E+02  0.12709560312E+00 -0.29122543567E+03  0.29211266947E+03  0.00000000000E+00 0.  1.
</event>
<event>
 4    1  0.3283867E+006  0.2313916E+02  0.7546771E-02  0.1490758E+00
         21   -1    0    0  503  501  0.00000000000E+00  0.00000000000E+00  0.19646228857E+02  0.19646228857E+02  0.00000000000E+00 0.  1.
         21   -1    0    0  504  502 -0.00000000000E+00 -0.00000000000E+00 -0.27343664239E+02  0.27343664239E+02  0.00000000000E+00 0.  1.
         21    1    1    2  503  502 -0.19079156326E+02 -0.13092235345E+02 -0.24966421866E+01  0.23273462455E+02  0.00000000000E+00 0.  1.
         21    1    1    2  504  501  0.19079156326E+02  0.13092235345E+02 -0.52007931951E+01  0.23716430640E+02  0.00000000000E+00 0.  1.
</event>
<event>
 4    1  0.3283867E+006  0.2077448E+02  0.7546771E-02  0.1522509E+00
         21   -1    0    0  503  501  0.00000000000E+00  0.00000000000E+00  0.38960777356E+02  0.38960777356E+02  0.00000000000E+00 0.  1.
         21   -1    0    0  501  502 -0.00000000000E+00 -0.00000000000E+00 -0.17355100420E+02  0.17355100420E+02  0.00000000000E+00 0.  1.
         21    1    1    2  503  504 -0.89971686076E+01 -0.18725117423E+02  0.27738106443E+02  0.34655181640E+02  0.00000000000E+00 0.  1.
         21    1    1    2  504  502  0.89971686076E+01  0.18725117423E+02 -0.61324295069E+01  0.21660696136E+02  0.00000000000E+00 0.  1.
</event>
<event>
 4    1  0.3283867E+006  0.3870371E+02  0.7546771E-02  0.1356254E+00
         21   -1    0    0  504  501  0.00000000000E+00  0.00000000000E+00  0.43515621055E+01  0.43515621055E+01  0.00000000000E+00 0. -1.
         21   -1    0    0  503  502 -0.00000000000E+00 -0.00000000000E+00 -0.41130783888E+03  0.41130783888E+03  0.00000000000E+00 0. -1.
         21    1    1    2  503  501  0.35568142519E+02  0.15260560348E+02 -0.28740180604E+03  0.28999616476E+03  0.00000000000E+00 0. -1.
         21    1    1    2  504  502 -0.35568142519E+02 -0.15260560348E+02 -0.11955447074E+03  0.12566323622E+03  0.00000000000E+00 0. -1.
</event>
<event>
 4    1  0.3283867E+006  0.2110054E+02  0.7546771E-02  0.1517834E+00
         21   -1    0    0  502  501  0.00000000000E+00  0.00000000000E+00  0.17184807834E+03  0.17184807834E+03  0.00000000000E+00 0.  1.
         21   -1    0    0  504  502 -0.00000000000E+00 -0.00000000000E+00 -0.81343772409E+01  0.81343772409E+01  0.00000000000E+00 0.  1.
         21    1    1    2  503  501  0.13337949009E+02 -0.16350283162E+02  0.15614697812E+03  0.15756621281E+03  0.00000000000E+00 0.  1.
         21    1    1    2  504  503 -0.13337949009E+02  0.16350283162E+02  0.75667229767E+01  0.22416242769E+02  0.00000000000E+00 0.  1.
</event>
<event>
 4    1  0.3283867E+006  0.3775490E+02  0.7546771E-02  0.1362169E+00
         21   -1    0    0  502  501  0.00000000000E+00  0.00000000000E+00  0.96847705670E+01  0.96847705670E+01  0.00000000000E+00 0.  1.
         21   -1    0    0  503  502 -0.00000000000E+00 -0.00000000000E+00 -0.23609052225E+03  0.23609052225E+03  0.00000000000E+00 0.  1.
         21    1    1    2  503  504  0.24812805235E+02  0.28456238873E+02 -0.18861451717E+03  0.19235609926E+03  0.00000000000E+00 0.  1.
         21    1    1    2  504  501 -0.24812805235E+02 -0.28456238873E+02 -0.37791234511E+02  0.53419193557E+02  0.00000000000E+00 0.  1.
</event>
<event>
 4    1  0.3283867E+006  0.2012205E+02  0.7546771E-02  0.1532178E+00
         21   -1    0    0  503  501  0.00000000000E+00  0.00000000000E+00  0.19668820385E+02  0.19668820385E+02  0.00000000000E+00 0.  1.
         21   -1    0    0  501  502 -0.00000000000E+00 -0.00000000000E+00 -0.48332170856E+02  0.48332170856E+02  0.00000000000E+00 0.  1.
         21    1    1    2  503  504  0.24336200879E+01 -0.19974344548E+02  0.11429802371E+02  0.23141679479E+02  0.00000000000E+00 0.  1.
         21    1    1    2  504  502 -0.24336200879E+01  0.19974344548E+02 -0.40093152843E+02  0.44859311762E+02  0.00000000000E+00 0.  1.
</event>
<event>
 4    1  0.3283867E+006  0.2197527E+02  0.7546771E-02  0.1505783E+00
         21   -1    0    0  503  501  0.00000000000E+00  0.00000000000E+00  0.10893130795E+03  0.10893130795E+03  0.00000000000E+00 0.  1.
         21   -1    0    0  504  502 -0.00000000000E+00 -0.00000000000E+00 -0.44513784014E+01  0.44513784014E+01  0.00000000000E+00 0.  1.
         21    1    1    2  503  502  0.10994095245E+02  0.19027413862E+02  0.55864313164E+02  0.60031109383E+02  0.00000000000E+00 0.  1.
         21    1    1    2  504  501 -0.10994095245E+02 -0.19027413862E+02  0.48615616385E+02  0.53351576968E+02  0.00000000000E+00 0.  1.
</event>
<event>
 4    1  0.3283867E+006  0.2495242E+02  0.7546771E-02  0.1469336E+00
         21   -1    0    0  503  501  0.00000000000E+00  0.00000000000E+00  0.10996330620E+03  0.10996330620E+03  0.00000000000E+00 0. -1.
         21   -1    0    0  504  502 -0.00000000000E+00 -0.00000000000E+00 -0.78184492033E+01  0.78184492033E+01  0.00000000000E+00 0.  1.
         21    1    1    2  503  502  0.24647951324E+02  0.38861083391E+01  0.20144761085E+02  0.32069217977E+02  0.00000000000E+00 0.  1.
         21    1    1    2  504  501 -0.24647951324E+02 -0.38861083391E+01  0.82000095908E+02  0.85712537423E+02  0.00000000000E+00 0. -1.
</event>
<event>
 4    1  0.3283867E+006  0.2053977E+02  0.7546771E-02  0.1525938E+00
         21   -1    0    0  504  501  0.00000000000E+00  0.00000000000E+00  0.55758550807E+01  0.55758550807E+01  0.00000000000E+00 0. -1.
         21   -1    0    0  501  502 -0.00000000000E+00 -0.00000000000E+00 -0.96838610603E+02  0.96838610603E+02  0.00000000000E+00 0. -1.
         21    1    1    2  503  502  0.18340906758E+02 -0.92462677267E+01 -0.69577302670E+02  0.72545732985E+02  0.00000000000E+00 0. -1.
         21    1    1    2  504  503 -0.18340906758E+02  0.92462677267E+01 -0.21685452852E+02  0.29868732698E+02  0.00000000000E+00 0. -1.
</event>
<event>
 4    1  0.3283867E+006  0.2860364E+02  0.7546771E-02  0.1432132E+00
         21   -1    0    0  504  501  0.00000000000E+00  0.00000000000E+00  0.12797376549E+01  0.12797376549E+01  0.00000000000E+00 0.  1.
         21   -1    0    0  503  502 -0.00000000000E+00 -0.00000000000E+00 -0.99181367363E+03  0.99181367363E+03  0.00000000000E+00 0.  1.
         21    1    1    2  503  501 -0.22671894165E+02  0.17439998892E+02 -0.19924931653E+03  0.20129197323E+03  0.00000000000E+00 0.  1.
         21    1    1    2  504  502  0.22671894165E+02 -0.17439998892E+02 -0.79128461944E+03  0.79180143806E+03  0.00000000000E+00 0.  1.
</event>
<event>
 4    1  0.3283867E+006  0.2203698E+02  0.7546771E-02  0.1504958E+00
         21   -1    0    0  503  501  0.00000000000E+00  0.00000000000E+00  0.79958830002E+02  0.79958830002E+02  0.00000000000E+00 0.  1.
         21   -1    0    0  504  502 -0.00000000000E+00 -0.00000000000E+00 -0.51419991196E+03  0.51419991196E+03  0.00000000000E+00 0.  1.
         21    1    1    2  503  502 -0.15254075945E+02  0.15904137277E+02  0.78199139463E+02  0.81244900321E+02  0.00000000000E+00 0.  1.
         21    1    1    2  504  501  0.15254075945E+02 -0.15904137277E+02 -0.51244022142E+03  0.51291384164E+03  0.00000000000E+00 0.  1.
</event>
<event>
 4    1  0.3283867E+006  0.5239956E+02  0.7546771E-02  0.1288091E+00
         21   -1    0    0  502  501  0.00000000000E+00  0.00000000000E+00  0.24420472087E+03  0.24420472087E+03  0.00000000000E+00 0.  1.
         21   -1    0    0  504  502 -0.00000000000E+00 -0.00000000000E+00 -0.14200718641E+02  0.14200718641E+02  0.00000000000E+00 0.  1.
         21    1    1    2  503  501  0.52274581325E+02  0.36169383700E+01  0.17396216989E+03  0.18168255461E+03  0.00000000000E+00 0.  1.
         21    1    1    2  504  503 -0.52274581325E+02 -0.36169383700E+01  0.56041832332E+02  0.76722884898E+02  0.00000000000E+00 0.  1.
</event>
<event>
 4    1  0.3283867E+006  0.2249771E+02  0.7546771E-02  0.1498904E+00
         21   -1    0    0  504  501  0.00000000000E+00  0.00000000000E+00  0.48066987220E+03  0.48066987220E+03  0.00000000000E+00 0. -1.
         21   -1    0    0  501  502 -0.00000000000E+00 -0.00000000000E+00 -0.51180919849E+02  0.51180919849E+02  0.00000000000E+00 0. -1.
         21    1    1    2  503  502  0.20871761015E+02  0.83974093602E+01 -0.48431110103E+02  0.53401491717E+02  0.00000000000E+00 0. -1.
         21    1    1    2  504  503 -0.20871761015E+02 -0.83974093602E+01  0.47792006246E+03  0.47844930034E+03  0.00000000000E+00 0. -1.
</event>
<event>
 4    1  0.3283867E+006  0.2073964E+02  0.7546771E-02  0.1523015E+00
         21   -1    0    0  503  501  0.00000000000E+00  0.00000000000E+00  0.10367144817E+02  0.10367144817E+02  0.00000000000E+00 0. -1.
         21   -1    0    0  504  502 -0.00000000000E+00 -0.00000000000E+00 -0.63869194691E+02  0.63869194691E+02  0.00000000000E+00 0.  1.
         21    1    1    2  503  502  0.20313826633E+02  0.41810503416E+01 -0.47793503571E+01  0.21283207565E+02  0.00000000000E+00 0. -1.
         21    1    1    2  504  501 -0.20313826633E+02 -0.41810503416E+01 -0.48722699516E+02  0.52953131943E+02  0.00000000000E+00 0.  1.
</event>
<event>
 4    1  0.3283867E+006  0.2152649E+02  0.7546771E-02  0.1511879E+00
         21   -1    0    0  504  501  0.00000000000E+00  0.00000000000E+00  0.24120676700E+02  0.24120676700E+02  0.00000000000E+00 0. -1.
         21   -1    0    0  503  502 -0.00000000000E+00 -0.00000000000E+00 -0.26243918798E+03  0.26243918798E+03  0.00000000000E+00 0. -1.
         21    1    1    2  503  501  0.19355792906E+02  0.94203537494E+01 -0.25709527892E+03  0.25799490736E+03  0.00000000000E+00 0. -1.
         21    1    1    2  504  502 -0.19355792906E+02 -0.94203537494E+01  0.18776767636E+02  0.28564957319E+02  0.00000000000E+00 0. -1.
</event>
<event>
 4    1  0.3283867E+006  0.3394284E+02  0.7546771E-02  0.1388152E+00
         21   -1    0    0  503  501  0.00000000000E+00  0.00000000000E+00  0.37248083462E+02  0.37248083462E+02  0.00000000000E+00 0.  1.
         21   -1    0    0  501  502 -0.00000000000E+00 -0.00000000000E+00 -0.96588228664E+03  0.96588228664E+03  0.00000000000E+00 0.  1.
         21    1    1    2  503  504  0.25465948167E+02 -0.22441072126E+02  0.29151813795E+02  0.44743094235E+02  0.00000000000E+00 0.  1.
         21    1    1    2  504  502 -0.25465948167E+02  0.22441072126E+02 -0.95778601698E+03  0.95838727587E+03  0.00000000000E+00 0.  1.
</event>
<event>
 4    1  0.3283867E+006  0.6039331E+02  0.7546771E-02  0.1258502E+00
         21   -1    0    0  504  501  0.00000000000E+00  0.00000000000E+00  0.30457574865E+01  0.30457574865E+01  0.00000000000E+00 0. -1.
         21   -1    0    0  503  502 -0.00000000000E+00 -0.00000000000E+00 -0.11985353848E+04  0.11985353848E+04  0.00000000000E+00 0. -1.
         21    1    1    2  503  501 -0.53651586712E+02 -0.27728313040E+02 -0.61524134328E+03  0.61819840066E+03  0.00000000000E+00 0. -1.
         21    1    1    2  504  502  0.53651586712E+02  0.27728313040E+02 -0.58024828401E+03  0.58338274160E+03  0.00000000000E+00 0. -1.
</event>
<event>
 4    1  0.3283867E+006  0.2793663E+02  0.7546771E-02  0.1438420E+00
         21   -1    0    0  503  501  0.00000000000E+00  0.00000000000E+00  0.77798677606E+01  0.77798677606E+01  0.00000000000E+00 0.  1.
         21   -1    0    0  504  502 -0.00000000000E+00 -0.00000000000E+00 -0.37059742680E+03  0.37059742680E+03  0.00000000000E+00 0. -1.
         21    1    1    2  503  502 -0.14731935160E+01 -0.27897760194E+02 -0.19842423592E+02  0.34266267626E+02  0.00000000000E+00 0.  1.
         21    1    1    2  504  501  0.14731935160E+01  0.27897760194E+02 -0.34297513545E+03  0.34411102694E+03  0.00000000000E+00 0. -1.
</event>
<event>
 4    1  0.3283867E+006  0.2551650E+02  0.7546771E-02  0.1463107E+00
         21   -1    0    0  502  501  0.00000000000E+00  0.00000000000E+00  0.41618746612E+02  0.41618746612E+02  0.00000000000E+00 0. -1.
         21   -1    0    0  503  502 -0.00000000000E+00 -0.00000000000E+00 -0.22831405481E+02  0.22831405481E+02  0.00000000000E+00 0.  1.
         21    1    1    2  503  504  0.71105863825E+01  0.24505744288E+02 -0.86867154007E+01  0.26954609369E+02  0.00000000000E+00 0.  1.
         21    1    1    2  504  501 -0.71105863825E+01 -0.24505744288E+02  0.27474056532E+02  0.37495542724E+02  0.00000000000E+00 0. -1.
</event>
<event>
 4    1  0.3283867E+006  0.2921730E+02  0.7546771E-02  0.1426522E+00
         21   -1    0    0  504  501  0.00000000000E+00  0.00000000000E+00  0.55044565349E+01  0.55044565349E+01  0.00000000000E+00 0. -1.
         21   -1    0    0  503  502 -0.00000000000E+00 -0.00000000000E+00 -0.29542679278E+03  0.29542679278E+03  0.00000000000E+00 0. -1.
         21    1    1    2  503  501  0.11928607781E+02  0.26671308838E+02 -0.24866819400E+03  0.25037875530E+03  0.00000000000E+00 0. -1.
         21    1    1    2  504  502 -0.11928607781E+02 -0.26671308838E+02 -0.41254142247E+02  0.50552494016E+02  0.00000000000E+00 0. -1.
</event>
<event>
 4    1  0.3283867E+006  0.2400590E+02  0.7546771E-02  0.1480239E+00
         21   -1    0    0  502  501  0.00000000000E+00  0.00000000000E+00  0.19557747770E+01  0.19557747770E+01  0.00000000000E+00 0. -1.
         21   -1    0    0  504  502 -0.00000000000E+00 -0.00000000000E+00 -0.80274921609E+03  0.80274921609E+03  0.00000000000E+00 0.  1.
         21    1    1    2  503  501  0.23852380182E+01  0.23887104712E+02 -0.80295052949E+02  0.83806793639E+02  0.00000000000E+00 0. -1.
         21    1    1    2  504  503 -0.23852380182E+01 -0.23887104712E+02 -0.72049838837E+03  0.72089819723E+03  0.00000000000E+00 0.  1.
</event>
<event>
 4    1  0.3283867E+006  0.2136859E+02  0.7546771E-02  0.1514067E+00
         21   -1    0    0  503  501  0.00000000000E+00  0.00000000000E+00  0.12450000891E+02  0.12450000891E+02  0.00000000000E+00 0. -1.
         21   -1    0    0  504  502 -0.00000000000E+00 -0.00000000000E+00 -0.11609501916E+03  0.11609501916E+03  0.00000000000E+00 0.  1.
         21    1    1    2  503  502  0.75606289887E+01 -0.19986338388E+02 -0.10498197329E+03  0.10713464215E+03  0.00000000000E+00 0.  1.
         21    1    1    2  504  501 -0.75606289887E+01  0.19986338388E+02  0.13369550259E+01  0.21410377895E+02  0.00000000000E+00 0. -1.
</event>
<event>
 4    1  0.3283867E+006  0.2802879E+02  0.7546771E-02  0.1437539E+00
         21   -1    0    0  503  501  0.00000000000E+00  0.00000000000E+00  0.20267638036E+02  0.20267638036E+02  0.00000000000E+00 0.  1.
         21   -1    0    0  504  502 -0.00000000000E+00 -0.00000000000E+00 -0.90553662047E+02  0.90553662047E+02  0.00000000000E+00 0.  1.
         21    1    1    2  503  502 -0.28021598299E+02 -0.63485515960E+00 -0.77048451788E+02  0.81988273157E+02  0.00000000000E+00 0.  1.
         21    1    1    2  504  501  0.28021598299E+02  0.63485515960E+00  0.67624277773E+01  0.28833026927E+02  0.00000000000E+00 0.  1.
</event>
<event>
 4    1  0.3283867E+006  0.3862478E+02  0.7546771E-02  0.1356739E+00
         21   -1    0    0  504  501  0.00000000000E+00  0.00000000000E+00  0.18715912261E+03  0.18715912261E+03  0.00000000000E+00 0.  1.
         21   -1    0    0  503  502 -0.00000000000E+00 -0.00000000000E+00 -0.85375021037E+01  0.85375021037E+01  0.00000000000E+00 0.  1.
         21    1    1    2  503  501  0.29044357620E+02 -0.25461711206E+02  0.11451258773E+03  0.12085117374E+03  0.00000000000E+00 0.  1.
         21    1    1    2  504  502 -0.29044357620E+02  0.25461711206E+02  0.64109032776E+02  0.74845450968E+02  0.00000000000E+00 0.  1.
</event>
<event>
 4    1  0.3283867E+006  0.3519424E+02  0.7546771E-02  0.1379203E+00
         21   -1    0    0  504  501  0.00000000000E+00  0.00000000000E+00  0.45227138103E+03  0.45227138103E+03  0.00000000000E+00 0.  1.
         21   -1    0    0  503  502 -0.00000000000E+00 -0.00000000000E+00 -0.19982668209E+02  0.19982668209E+02  0.00000000000E+00 0. -1.
         21    1    1    2  503  501  0.28610120261E+02 -0.20496229437E+02  0.43549433531E+03  0.43691412256E+03  0.00000000000E+00 0.  1.
         21    1    1    2  504  502 -0.28610120261E+02  0.20496229437E+02 -0.32056224863E+01  0.35339926684E+02  0.00000000000E+00 0. -1.
</event>
<event>
 4    1  0.3283867E+006  0.3600683E+02  0.7546771E-02  0.1373620E+00
         21   -1    0    0  502  501  0.00000000000E+00  0.00000000000E+00  0.28334729368E+02  0.28334729368E+02  0.00000000000E+00 0.  1.
         21   -1    0    0  503  502 -0.00000000000E+00 -0.00000000000E+00 -0.40798503156E+03  0.40798503156E+03  0.00000000000E+00 0.  1.
         21    1    1    2  503  504  0.37171270198E+01  0.35814452515E+02 -0.39538781011E+03  0.39702394439E+03  0.00000000000E+00 0.  1.
         21    1    1    2  504  501 -0.37171270198E+01 -0.35814452515E+02  0.15737507909E+02  0.39295816539E+02  0.00000000000E+00 0.  1.
</event>
<event>
 4    1  0.3283867E+006  0.2061206E+02  0.7546771E-02  0.1524876E+00
         21   -1    0    0  504  501  0.00000000000E+00  0.00000000000E+00  0.67666755314E+02  0.67666755314E+02  0.00000000000E+00 0. -1.
         21   -1    0    0  501  502 -0.00000000000E+00 -0.00000000000E+00 -0.10397844618E+02  0.10397844618E+02  0.00000000000E+00 0. -1.
         21    1    1    2  503  502 -0.12188968247E+02 -0.16621858867E+02  0.40671428226E+01  0.21009492851E+02  0.00000000000E+00 0. -1.
         21    1    1    2  504  503  0.12188968247E+02  0.16621858867E+02  0.53201767874E+02  0.57055107081E+02  0.00000000000E+00 0. -1.
</event>
<event>
 4    1  0.3283867E+006  0.2597442E+02  0.7546771E-02  0.1458191E+00
         21   -1    0    0  503  501  0.00000000000E+00  0.00000000000E+00  0.13954472469E+03  0.13954472469E+03  0.00000000000E+00 0.  1.
         21   -1    0    0  504  502 -0.00000000000E+00 -0.00000000000E+00 -0.53279423858E+01  0.53279423858E+01  0.00000000000E+00 0.  1.
         21    1    1    2  503  502  0.98662786594E+01  0.24027629601E+02  0.45070800301E+02  0.52019683569E+02  0.00000000000E+00 0.  1.
         21    1    1    2  504  501 -0.98662786594E+01 -0.24027629601E+02  0.89145982007E+02  0.92852983510E+02  0.00000000000E+00 0.  1.
</event>
<event>
 4    1  0.3283867E+006  0.2837433E+02  0.7546771E-02  0.1434271E+00
         21   -1    0    0  503  501  0.00000000000E+00  0.00000000000E+00  0.50814484950E+02  0.50814484950E+02  0.00000000000E+00 0. -1.
         21   -1    0    0  504  502 -0.00000000000E+00 -0.00000000000E+00 -0.16314869390E+02  0.16314869390E+02  0.00000000000E+00 0. -1.
         21    1    1    2  503  502  0.26315382552E+02  0.10611464610E+02  0.22952244839E+02  0.36495315908E+02  0.00000000000E+00 0. -1.
         21    1    1    2  504  501 -0.26315382552E+02 -0.10611464610E+02  0.11547370721E+02  0.30634038431E+02  0.00000000000E+00 0. -1.
</event>
<event>
 4    1  0.3283867E+006  0.2588852E+02  0.7546771E-02  0.1459104E+00
         21   -1    0    0  502  501  0.00000000000E+00  0.00000000000E+00  0.14681420180E+03  0.14681420180E+03  0.00000000000E+00 0. -1.
         21   -1    0    0  503  502 -0.00000000000E+00 -0.00000000000E+00 -0.25782270088E+02  0.25782270088E+02  0.00000000000E+00 0.  1.
         21    1    1    2  503  504  0.23855797231E+02 -0.10055666677E+02 -0.17770284067E+02  0.31400612887E+02  0.00000000000E+00 0.  1.
         21    1    1    2  504  501 -0.23855797231E+02  0.10055666677E+02  0.13880221577E+03  0.14119585900E+03  0.00000000000E+00 0. -1.
</event>
<event>
 4    1  0.3283867E+006  0.2423597E+02  0.7546771E-02  0.1477535E+00
         21   -1    0    0  504  501  0.00000000000E+00  0.00000000000E+00  0.13113665645E+03  0.13113665645E+03  0.00000000000E+00 0.  1.
         21   -1    0    0  501  502 -0.00000000000E+00 -0.00000000000E+00 -0.60247007098E+01  0.60247007098E+01  0.00000000000E+00 0.  1.
         21    1    1    2  503  502 -0.24014714597E+02 -0.32673386000E+01  0.27820417090E+02  0.36896580137E+02  0.00000000000E+00 0.  1.
         21    1    1    2  504  503  0.24014714597E+02  0.32673386000E+01  0.97291538654E+02  0.10026477703E+03  0.00000000000E+00 0.  1.
</event>
<event>
 4    1  0.3283867E+006  0.3363713E+02  0.7546771E-02  0.1390406E+00
         21   -1    0    0  504  501  0.00000000000E+00  0.00000000000E+00  0.15784124592E+02  0.15784124592E+02  0.00000000000E+00 0. -1.
         21   -1    0    0  503  502 -0.00000000000E+00 -0.00000000000E+00 -0.10312391669E+03  0.10312391669E+03  0.00000000000E+00 0. -1.
         21    1    1    2  503  501 -0.30008094996E+02 -0.15197723557E+02 -0.10841645029E+02  0.35341163444E+02  0.00000000000E+00 0. -1.
         21    1    1    2  504  502  0.30008094996E+02  0.15197723557E+02 -0.76498147073E+02  0.83566877842E+02  0.00000000000E+00 0. -1.
</event>
<event>
 4    1  0.3283867E+006  0.3111761E+02  0.7546771E-02  0.1410127E+00
         21   -1    0    0  503  501  0.00000000000E+00  0.00000000000E+00  0.13933697740E+02  0.13933697740E+02  0.00000000000E+00 0.  1.
         21   -1    0    0  504  502 -0.00000000000E+00 -0.00000000000E+00 -0.70230766753E+02  0.70230766753E+02  0.00000000000E+00 0.  1.
         21    1    1    2  503  502  0.23514538310E+02 -0.20380681073E+02 -0.23837737679E+02  0.39198767972E+02  0.00000000000E+00 0.  1.
         21    1    1    2  504  501 -0.23514538310E+02  0.20380681073E+02 -0.32459331334E+02  0.44965696520E+02  0.00000000000E+00 0.  1.
</event>
<event>
 4    1  0.3283867E+006  0.3009129E+02  0.7546771E-02  0.1418805E+00
         21   -1    0    0  503  501  0.00000000000E+00  0.00000000000E+00  0.22127695840E+03  0.22127695840E+03  0.00000000000E+00 0. -1.
         21   -1    0    0  501  502 -0.00000000000E+00 -0.00000000000E+00 -0.51557823950E+03  0.51557823950E+03  0.00000000000E+00 0.  1.
         21    1    1    2  503  504  0.15131159378E+02 -0.26010261694E+02  0.21981195950E+03  0.22186208157E+03  0.00000000000E+00 0. -1.
         21    1    1    2  504  502 -0.15131159378E+02  0.26010261694E+02 -0.51411324061E+03  0.51499311633E+03  0.00000000000E+00 0.  1.
</event>
<event>
 4    1  0.3283867E+006  0.2105409E+02  0.7546771E-02  0.1518494E+00
         21   -1    0    0  504  501  0.00000000000E+00  0.00000000000E+00  0.24511038386E+02  0.24511038386E+02  0.00000000000E+00 0.  1.
         21   -1    0    0  503  502 -0.00000000000E+00 -0.00000000000E+00 -0.28605165574E+02  0.28605165574E+02  0.00000000000E+00 0.  1.
         21    1    1    2  503  501 -0.16610429025E+02 -0.12937099819E+02 -0.18153229676E+02  0.27799544093E+02  0.00000000000E+00 0.  1.
         21    1    1    2  504  502  0.16610429025E+02  0.12937099819E+02  0.14059102488E+02  0.25316659868E+02  0.00000000000E+00 0.  1.
</event>
<event>
 4    1  0.3283867E+006  0.2146340E+02  0.7546771E-02  0.1512750E+00
         21   -1    0    0  504  501  0.00000000000E+00  0.00000000000E+00  0.14097994065E+02  0.14097994065E+02  0.00000000000E+00 0.  1.
         21   -1    0    0  501  502 -0.00000000000E+00 -0.00000000000E+00 -0.28632800152E+03  0.28632800152E+03  0.00000000000E+00 0.  1.
         21    1    1    2  503  502  0.15046264600E+02 -0.15306450144E+02 -0.27749698209E+03  0.27832580291E+03  0.00000000000E+00 0.  1.
         21    1    1    2  504  503 -0.15046264600E+02  0.15306450144E+02  0.52669746385E+01  0.22100192675E+02  0.00000000000E+00 0.  1.
</event>
<event>
 4    1  0.3283867E+006  0.2178804E+02  0.7546771E-02  0.1508304E+00
         21   -1    0    0  504  501  0.00000000000E+00  0.00000000000E+00  0.16922369248E+02  0.16922369248E+02  0.00000000000E+00 0. -1.
         21   -1    0    0  503  502 -0.00000000000E+00 -0.00000000000E+00 -0.19632794713E+03  0.19632794713E+03  0.00000000000E+00 0. -1.
         21    1    1    2  503  501  0.54279210429E+01 -0.21101102817E+02  0.90111972114E+01  0.23577967302E+02  0.00000000000E+00 0. -1.
         21    1    1    2  504  502 -0.54279210429E+01  0.21101102817E+02 -0.18841677510E+03  0.18967234908E+03  0.00000000000E+00 0. -1.
</event>
<event>
 4    1  0.3283867E+006  0.2024581E+02  0.7546771E-02  0.1530311E+00
         21   -1    0    0  502  501  0.00000000000E+00  0.00000000000E+00  0.76651603739E+03  0.76651603739E+03  0.00000000000E+00 0. -1.
         21   -1    0    0  503  502 -0.00000000000E+00 -0.00000000000E+00 -0.62454107265E+00  0.62454107265E+00  0.00000000000E+00 0. -1.
         21    1    1    2  503  504  0.18759787240E+02 -0.76133486615E+01  0.23750484018E+03  0.23836619266E+03  0.00000000000E+00 0. -1.
         21    1    1    2  504  501 -0.18759787240E+02  0.76133486615E+01  0.52838665614E+03  0.52877438580E+03  0.00000000000E+00 0. -1.
</event>
<event>
 4    1  0.3283867E+006  0.2170608E+02  0.7546771E-02  0.1509418E+00
         21   -1    0    0  503  501  0.00000000000E+00  0.00000000000E+00  0.62826385656E+02  0.62826385656E+02  0.00000000000E+00 0.  1.
         21   -1    0    0  504  502 -0.00000000000E+00 -0.00000000000E+00 -0.79868141240E+01  0.79868141240E+01  0.00000000000E+00 0.  1.
         21    1    1    2  503  502 -0.18791567245E+02 -0.10864208639E+02  0.18672159474E+02  0.28632212075E+02  0.00000000000E+00 0.  1.
         21    1    1    2  504  501  0.18791567245E+02  0.10864208639E+02  0.36167412058E+02  0.42180987705E+02  0.00000000000E+00 0.  1.
</event>
<event>
 4    1  0.3283867E+006  0.2838169E+02  0.7546771E-02  0.1434202E+00
         21   -1    0    0  503  501  0.00000000000E+00  0.00000000000E+00  0.29293351714E+02  0.29293351714E+02  0.00000000000E+00 0. -1.
         21   -1    0    0  504  502 -0.00000000000E+00 -0.00000000000E+00 -0.34738519563E+03  0.34738519563E+03  0.00000000000E+00 0. -1.
         21    1    1    2  503  502  0.25907421763E+02 -0.11589891895E+02  0.21685389327E+02  0.35718009558E+02  0.00000000000E+00 0. -1.
         21    1    1    2  504  501 -0.25907421763E+02  0.11589891895E+02 -0.33977723324E+03  0.34096053779E+03  0.00000000000E+00 0. -1.
</event>
<event>
 4    1  0.3283867E+006  0.2333236E+02  0.7546771E-02  0.1488366E+00
         21   -1    0    0  504  501  0.00000000000E+00  0.00000000000E+00  0.34653758935E+03  0.34653758935E+03  0.00000000000E+00 0. -1.
         21   -1    0    0  503  502 -0.00000000000E+00 -0.00000000000E+00 -0.15780297997E+01  0.15780297997E+01  0.00000000000E+00 0. -1.
         21    1    1    2  503  501 -0.18767561369E+02 -0.13862815861E+02  0.18412459717E+03  0.18559705360E+03  0.00000000000E+00 0. -1.
         21    1    1    2  504  502  0.18767561369E+02  0.13862815861E+02  0.16083496239E+03  0.16251856555E+03  0.00000000000E+00 0. -1.
</event>
<event>
 4    1  0.3283867E+006  0.3448772E+02  0.7546771E-02  0.1384201E+00
         21   -1    0    0  504  501  0.00000000000E+00  0.00000000000E+00  0.68670150063E+01  0.68670150063E+01  0.00000000000E+00 0. -1.
         21   -1    0    0  503  502 -0.00000000000E+00 -0.00000000000E+00 -0.27610450943E+03  0.27610450943E+03  0.00000000000E+00 0. -1.
         21    1    1    2  503  501  0.34043299623E+02 -0.55187323952E+01 -0.22099258858E+03  0.22366744704E+03  0.00000000000E+00 0. -1.
         21    1    1    2  504  502 -0.34043299623E+02  0.55187323952E+01 -0.48244905848E+02  0.59304077404E+02  0.00000000000E+00 0. -1.
</event>
<event>
 4    1  0.3283867E+006  0.4163626E+02  0.7546771E-02  0.1339155E+00
         21   -1    0    0  502  501  0.00000000000E+00  0.00000000000E+00  0.13981234675E+02  0.13981234675E+02  0.00000000000E+00 0. -1.
         21   -1    0    0  504  502 -0.00000000000E+00 -0.00000000000E+00 -0.10157252314E+04  0.10157252314E+04  0.00000000000E+00 0. -1.
         21    1    1    2  503  501 -0.15616950358E+02 -0.38596489203E+02 -0.18466214964E+02  0.45547548917E+02  0.00000000000E+00 0. -1.
         21    1    1    2  504  503  0.15616950358E+02  0.38596489203E+02 -0.98327778181E+03  0.98415891720E+03  0.00000000000E+00 0. -1.
</event>
<event>
 4    1  0.3283867E+006  0.2174293E+02  0.7546771E-02  0.1508917E+00
         21   -1    0    0  504  501  0.00000000000E+00  0.00000000000E+00  0.40849724767E+01  0.40849724767E+01  0.00000000000E+00 0.  1.
         21   -1    0    0  503  502 -0.00000000000E+00 -0.00000000000E+00 -0.13177967351E+03  0.13177967351E+03  0.00000000000E+00 0.  1.
         21    1    1    2  503  501 -0.46858108138E+01  0.21232011809E+02 -0.40140104774E+02  0.45650664396E+02  0.00000000000E+00 0.  1.
         21    1    1    2  504  502  0.46858108138E+01 -0.21232011809E+02 -0.87554596257E+02  0.90213981589E+02  0.00000000000E+00 0.  1.
</event>
<event>
 4    1  0.3283867E+006  0.3215383E+02  0.7546771E-02  0.1401759E+00
         21   -1    0    0  503  501  0.00000000000E+00  0.00000000000E+00  0.16831457070E+03  0.16831457070E+03  0.00000000000E+00 0.  1.
         21   -1    0    0  504  502 -0.00000000000E+00 -0.00000000000E+00 -0.77639676788E+01  0.77639676788E+01  0.00000000000E+00 0. -1.
         21    1    1    2  503  502 -0.93584117100E+01  0.30761809085E+02  0.12050914188E+03  0.12472498565E+03  0.00000000000E+00 0.  1.
         21    1    1    2  504  501  0.93584117100E+01 -0.30761809085E+02  0.40041461144E+02  0.51353552735E+02  0.00000000000E+00 0. -1.
</event>
<event>
 4    1  0.3283867E+006  0.2047874E+02  0.7546771E-02  0.1526839E+00
         21   -1    0    0  504  501  0.00000000000E+00  0.00000000000E+00  0.39274083564E+02  0.39274083564E+02  0.00000000000E+00 0.  1.
         21   -1    0    0  501  502 -0.00000000000E+00 -0.00000000000E+00 -0.26661125126E+02  0.26661125126E+02  0.00000000000E+00 0.  1.
         21    1    1    2  503  502 -0.88269838533E+01  0.18478721043E+02 -0.19219094069E+02  0.28084735216E+02  0.00000000000E+00 0.  1.
         21    1    1    2  504  503  0.88269838533E+01 -0.18478721043E+02  0.31832052507E+02  0.37850473473E+02  0.00000000000E+00 0.  1.
</event>
<event>
 4    1  0.3283867E+006  0.2183320E+02  0.7546771E-02  0.1507694E+00
         21   -1    0    0  503  501  0.00000000000E+00  0.00000000000E+00  0.10930019578E+03  0.10930019578E+03  0.00000000000E+00 0. -1.
         21   -1    0    0  501  502 -0.00000000000E+00 -0.00000000000E+00 -0.17345316806E+03  0.17345316806E+03  0.00000000000E+00 0.  1.
         21    1    1    2  503  504  0.15151416749E+02 -0.15720147403E+02  0.10751150480E+03  0.10970602594E+03  0.00000000000E+00 0. -1.
         21    1    1    2  504  502 -0.15151416749E+02  0.15720147403E+02 -0.17166447708E+03  0.17304733790E+03  0.00000000000E+00 0.  1.
</event>
<event>
 4    1  0.3283867E+006  0.2264474E+02  0.7546771E-02  0.1497008E+00
         21   -1    0    0  502  501  0.00000000000E+00  0.00000000000E+00  0.27155500504E+02  0.27155500504E+02  0.00000000000E+00 0.  1.
         21   -1    0    0  504  502 -0.00000000000E+00 -0.00000000000E+00 -0.64663190697E+02  0.64663190697E+02  0.00000000000E+00 0.  1.
         21    1    1    2  503  501 -0.19806998900E+02  0.10975741087E+02  0.19874860105E+02  0.30129622667E+02  0.00000000000E+00 0.  1.
         21    1    1    2  504  503  0.19806998900E+02 -0.10975741087E+02 -0.57382550299E+02  0.61689068534E+02  0.00000000000E+00 0.  1.
</event>
<event>
 4    1  0.3283867E+006  0.2046192E+02  0.7546771E-02  0.1527088E+00
         21   -1    0    0  502  501  0.00000000000E+00  0.00000000000E+00  0.26422266665E+03  0.26422266665E+03  0.00000000000E+00 0. -1.
         21   -1    0    0  504  502 -0.00000000000E+00 -0.00000000000E+00 -0.27455564877E+01  0.27455564877E+01  0.00000000000E+00 0. -1.
         21    1    1    2  503  501  0.10229305764E+01  0.20436339267E+02  0.21753864038E+03  0.21849885677E+03  0.00000000000E+00 0. -1.
         21    1    1    2  504  503 -0.10229305764E+01 -0.20436339267E+02  0.43938469775E+02  0.48469366365E+02  0.00000000000E+00 0. -1.
</event>
<event>
 4    1  0.3283867E+006  0.2828665E+02  0.7546771E-02  0.1435095E+00
         21   -1    0    0  502  501  0.00000000000E+00  0.00000000000E+00  0.14635626844E+03  0.14635626844E+03  0.00000000000E+00 0. -1.
         21   -1    0    0  503  502 -0.00000000000E+00 -0.00000000000E+00 -0.19531688824E+02  0.19531688824E+02  0.00000000000E+00 0. -1.
         21    1    1    2  503  504 -0.16165396032E+02 -0.23212384662E+02 -0.69726089407E+01  0.29133350408E+02  0.00000000000E+00 0. -1.
         21    1    1    2  504  501  0.16165396032E+02  0.23212384662E+02  0.13379718855E+03  0.13675460685E+03  0.00000000000E+00 0. -1.
</event>
<event>
 4    1  0.3283867E+006  0.2124367E+02  0.7546771E-02  0.1515814E+00
         21   -1    0    0  504  501  0.00000000000E+00  0.00000000000E+00  0.27381890091E+01  0.27381890091E+01  0.00000000000E+00 0. -1.
         21   -1    0    0  503  502 -0.00000000000E+00 -0.00000000000E+00 -0.17034186143E+03  0.17034186143E+03  0.00000000000E+00 0. -1.
         21    1    1    2  503  501 -0.18523026295E+02  0.10401497659E+02 -0.68213152159E+02  0.71444578409E+02  0.00000000000E+00 0. -1.
         21    1    1    2  504  502  0.18523026295E+02 -0.10401497659E+02 -0.99390520265E+02  0.10163547203E+03  0.00000000000E+00 0. -1.
</event>
<event>
 4    1  0.3283867E+006  0.2452299E+02  0.7546771E-02  0.1474211E+00
         21   -1    0    0  504  501  0.00000000000E+00  0.00000000000E+00  0.19009079300E+01  0.19009079300E+01  0.00000000000E+00 0.  1.
         21   -1    0    0  503  502 -0.00000000000E+00 -0.00000000000E+00 -0.50132339264E+03  0.50132339264E+03  0.00000000000E+00 0.  1.
         21    1    1    2  503  501 -0.10683964910E+02 -0.22073279946E+02 -0.40254246276E+03  0.40328874410E+03  0.00000000000E+00 0.  1.
         21    1    1    2  504  502  0.10683964910E+02  0.22073279946E+02 -0.96880021957E+02  0.99935556476E+02  0.00000000000E+00 0.  1.
</event>
<event>
 4    1  0.3283867E+006  0.6017914E+02  0.7546771E-02  0.1259225E+00
         21   -1    0    0  503  501  0.00000000000E+00  0.00000000000E+00  0.11229229747E+03  0.11229229747E+03  0.00000000000E+00 0.  1.
         21   -1    0    0  501  502 -0.00000000000E+00 -0.00000000000E+00 -0.69859230056E+02  0.69859230056E+02  0.00000000000E+00 0. -1.
         21    1    1    2  503  504 -0.40305205087E+02 -0.44688023659E+02  0.88040596959E+02  0.10664274813E+03  0.00000000000E+00 0.  1.
         21    1    1    2  504  502  0.40305205087E+02  0.44688023659E+02 -0.45607529541E+02  0.75508779400E+02  0.00000000000E+00 0. -1.
</event>
<event>
 4    1  0.3283867E+006  0.2471924E+02  0.7546771E-02  0.1471969E+00
         21   -1    0    0  502  501  0.00000000000E+00  0.00000000000E+00  0.42524635478E+03  0.42524635478E+03  0.00000000000E+00 0.  1.
         21   -1    0    0  503  502 -0.00000000000E+00 -0.00000000000E+00 -0.10700787483E+02  0.10700787483E+02  0.00000000000E+00 0.  1.
         21    1    1    2  503  504  0.18599818112E+02  0.16281505180E+02  0.44613773262E+01  0.25118609284E+02  0.00000000000E+00 0.  1.
         21    1    1    2  504  501 -0.18599818112E+02 -0.16281505180E+02  0.41008418997E+03  0.41082853298E+03  0.00000000000E+00 0.  1.
</event>
<event>
 4    1  0.3283867E+006  0.3155872E+02  0.7546771E-02  0.1406518E+00
         21   -1    0    0  504  501  0.00000000000E+00  0.00000000000E+00  0.98660942763E+01  0.98660942763E+01  0.00000000000E+00 0. -1.
         21   -1    0    0  503  502 -0.00000000000E+00 -0.00000000000E+00 -0.14779739369E+03  0.14779739369E+03  0.00000000000E+00 0. -1.
         21    1    1    2  503  501 -0.18081914043E+02 -0.25864974503E+02 -0.11334944280E+03  0.11766073561E+03  0.00000000000E+00 0. -1.
         21    1    1    2  504  502  0.18081914043E+02  0.25864974503E+02 -0.24581856617E+02  0.40002752358E+02  0.00000000000E+00 0. -1.
</event>
<event>
 4    1  0.3283867E+006  0.2546307E+02  0.7546771E-02  0.1463689E+00
         21   -1    0    0  502  501  0.00000000000E+00  0.00000000000E+00  0.64803308356E+03  0.64803308356E+03  0.00000000000E+00 0. -1.
         21   -1    0    0  504  502 -0.00000000000E+00 -0.00000000000E+00 -0.42028412790E+01  0.42028412790E+01  0.00000000000E+00 0. -1.
         21    1    1    2  503  501  0.25462904302E+02  0.92950280710E-01  0.60658130391E+03  0.60711551322E+03  0.00000000000E+00 0. -1.
         21    1    1    2  504  503 -0.25462904302E+02 -0.92950280710E-01  0.37248938373E+02  0.45120411624E+02  0.00000000000E+00 0. -1.
</event>
<event>
 4    1  0.3283867E+006  0.5840765E+02  0.7546771E-02  0.1265341E+00
         21   -1    0    0  504  501  0.00000000000E+00  0.00000000000E+00  0.13386702398E+04  0.13386702398E+04  0.00000000000E+00 0.  1.
         21   -1    0    0  503  502 -0.00000000000E+00 -0.00000000000E+00 -0.44302646658E+01  0.44302646658E+01  0.00000000000E+00 0. -1.
         21    1    1    2  503  501 -0.42325339665E+02  0.40249464690E+02  0.11048023382E+04  0.11063451814E+04  0.00000000000E+00 0.  1.
         21    1    1    2  504  502  0.42325339665E+02 -0.40249464690E+02  0.22943763693E+03  0.23675532312E+03  0.00000000000E+00 0. -1.
</event>
<event>
 4    1  0.3283867E+006  0.2360523E+02  0.7546771E-02  0.1485035E+00
         21   -1    0    0  502  501  0.00000000000E+00  0.00000000000E+00  0.49262101811E+02  0.49262101811E+02  0.00000000000E+00 0.  1.
         21   -1    0    0  503  502 -0.00000000000E+00 -0.00000000000E+00 -0.70332668660E+02  0.70332668660E+02  0.00000000000E+00 0. -1.
         21    1    1    2  503  504  0.22423890605E+02 -0.73740024824E+01 -0.65313659398E+02  0.69448404492E+02  0.00000000000E+00 0. -1.
         21    1    1    2  504  501 -0.22423890605E+02  0.73740024824E+01  0.44243092549E+02  0.50146365978E+02  0.00000000000E+00 0.  1.
</event>
<event>
 4    1  0.3283867E+006  0.2899940E+02  0.7546771E-02  0.1428495E+00
         21   -1    0    0  504  501  0.00000000000E+00  0.00000000000E+00  0.34081166722E+01  0.34081166722E+01  0.00000000000E+00 0.  1.
         21   -1    0    0  503  502 -0.00000000000E+00 -0.00000000000E+00 -0.34802405419E+03  0.34802405419E+03  0.00000000000E+00 0.  1.
         21    1    1    2  503  501  0.24688708555E+01 -0.28894112491E+02 -0.77521080457E+02  0.82767644495E+02  0.00000000000E+00 0.  1.
         21    1    1    2  504  502 -0.24688708555E+01  0.28894112491E+02 -0.26709485706E+03  0.26866452637E+03  0.00000000000E+00 0.  1.
</event>
<event>
 4    1  0.3283867E+006  0.3854182E+02  0.7546771E-02  0.1357249E+00
         21   -1    0    0  502  501  0.00000000000E+00  0.00000000000E+00  0.10366286296E+03  0.10366286296E+03  0.00000000000E+00 0.  1.
         21   -1    0    0  504  502 -0.00000000000E+00 -0.00000000000E+00 -0.38800921295E+02  0.38800921295E+02  0.00000000000E+00 0. -1.
         21    1    1    2  503  501 -0.33504564085E+02  0.19050351514E+02  0.89000177380E+02  0.96987129460E+02  0.00000000000E+00 0.  1.
         21    1    1    2  504  503  0.33504564085E+02 -0.19050351514E+02 -0.24138235719E+02  0.45476654791E+02  0.00000000000E+00 0. -1.
</event>
<event>
 4    1  0.3283867E+006  0.2607464E+02  0.7546771E-02  0.1457132E+00
         21   -1    0    0  503  501  0.00000000000E+00  0.00000000000E+00  0.88647977138E+01  0.88647977138E+01  0.00000000000E+00 0. -1.
         21   -1    0    0  504  502 -0.00000000000E+00 -0.00000000000E+00 -0.94164316320E+02  0.94164316320E+02  0.00000000000E+00 0. -1.
         21    1    1    2  503  502  0.22452379695E+02 -0.13258103249E+02 -0.20461494009E+02  0.33144522818E+02  0.00000000000E+00 0. -1.
         21    1    1    2  504  501 -0.22452379695E+02  0.13258103249E+02 -0.64838024597E+02  0.69884591216E+02  0.00000000000E+00 0. -1.
</event>
<event>
 4    1  0.3283867E+006  0.2488475E+02  0.7546771E-02  0.1470097E+00
         21   -1    0    0  503  501  0.00000000000E+00  0.00000000000E+00  0.24714016981E+03  0.24714016981E+03  0.00000000000E+00 0. -1.
         21   -1    0    0  504  502 -0.00000000000E+00 -0.00000000000E+00 -0.67910346465E+01  0.67910346465E+01  0.00000000000E+00 0.  1.
         21    1    1    2  503  502  0.18365518978E+02 -0.16791620982E+02  0.19316143749E+02  0.31501813151E+02  0.00000000000E+00 0.  1.
         21    1    1    2  504  501 -0.18365518978E+02  0.16791620982E+02  0.22103299142E+03  0.22242939131E+03  0.00000000000E+00 0. -1.
</event>
<event>
 4    1  0.3283867E+006  0.2105854E+02  0.7546771E-02  0.1518431E+00
         21   -1    0    0  503  501  0.00000000000E+00  0.00000000000E+00  0.12695776994E+03  0.12695776994E+03  0.00000000000E+00 0.  1.
         21   -1    0    0  504  502 -0.00000000000E+00 -0.00000000000E+00 -0.74879223256E+01  0.74879223256E+01  0.00000000000E+00 0. -1.
         21    1    1    2  503  502 -0.55630579612E+01 -0.20310454366E+02  0.10883599486E+03  0.11085457117E+03  0.00000000000E+00 0.  1.
         21    1    1    2  504  501  0.55630579612E+01  0.20310454366E+02  0.10633852751E+02  0.23591121100E+02  0.00000000000E+00 0. -1.
</event>
<event>
 4    1  0.3283867E+006  0.2440004E+02  0.7546771E-02  0.1475628E+00
         21   -1    0    0  503  501  0.00000000000E+00  0.00000000000E+00  0.49028324747E+03  0.49028324747E+03  0.00000000000E+00 0. -1.
         21   -1    0    0  501  502 -0.00000000000E+00 -0.00000000000E+00 -0.27087544462E+01  0.27087544462E+01  0.00000000000E+00 0.  1.
         21    1    1    2  503  504 -0.99933460344E+01  0.22259716509E+02  0.42687662102E+03  0.42757339898E+03  0.00000000000E+00 0. -1.
         21    1    1    2  504  502  0.99933460344E+01 -0.22259716509E+02  0.60697872005E+02  0.65418602935E+02  0.00000000000E+00 0.  1.
</event>
<event>
 4    1  0.3283867E+006  0.2362404E+02  0.7546771E-02  0.1484807E+00
         21   -1    0    0  502  501  0.00000000000E+00  0.00000000000E+00  0.22869660056E+02  0.22869660056E+02  0.00000000000E+00 0.  1.
         21   -1    0    0  504  502 -0.00000000000E+00 -0.00000000000E+00 -0.25236286574E+03  0.25236286574E+03  0.00000000000E+00 0.  1.
         21    1    1    2  503  501  0.27596762727E+01 -0.23462294156E+02  0.16046833462E+02  0.28558640100E+02  0.00000000000E+00 0.  1.
         21    1    1    2  504  503 -0.27596762727E+01  0.23462294156E+02 -0.24554003914E+03  0.24667388569E+03  0.00000000000E+00 0.  1.
</event>
<event>
 4    1  0.3283867E+006  0.2275980E+02  0.7546771E-02  0.1495537E+00
         21   -1    0    0  504  501  0.00000000000E+00  0.00000000000E+00  0.42237492342E+01  0.42237492342E+01  0.00000000000E+00 0.  1.
         21   -1    0    0  503  502 -0.00000000000E+00 -0.00000000000E+00 -0.13967591693E+03  0.13967591693E+03  0.00000000000E+00 0. -1.
         21    1    1    2  503  501  0.89170335698E+01  0.20940270626E+02 -0.42599803845E+02  0.48298568397E+02  0.00000000000E+00 0.  1.
         21    1    1    2  504  502 -0.89170335698E+01 -0.20940270626E+02 -0.92852363852E+02  0.95601097768E+02  0.00000000000E+00 0. -1.
</event>
<event>
 4    1  0.3283867E+006  0.2205603E+02  0.7546771E-02  0.1504704E+00
         21   -1    0    0  504  501  0.00000000000E+00  0.00000000000E+00  0.15338697639E+01  0.15338697639E+01  0.00000000000E+00 0.  1.
         21   -1    0    0  503  502 -0.00000000000E+00 -0.00000000000E+00 -0.35359268360E+03  0.35359268360E+03  0.00000000000E+00 0.  1.
         21    1    1    2  503  501  0.21768230510E+02  0.35513917442E+01 -0.23303284741E+03  0.23407429635E+03  0.00000000000E+00 0.  1.
         21    1    1    2  504  502 -0.21768230510E+02 -0.35513917442E+01 -0.11902596643E+03  0.12105225701E+03  0.00000000000E+00 0.  1.
</event>
<event>
 4    1  0.3283867E+006  0.2421837E+02  0.7546771E-02  0.1477741E+00
         21   -1    0    0  504  501  0.00000000000E+00  0.00000000000E+00  0.64337824333E+02  0.64337824333E+02  0.00000000000E+00 0. -1.
         21   -1    0    0  503  502 -0.00000000000E+00 -0.00000000000E+00 -0.13897414123E+02  0.13897414123E+02  0.00000000000E+00 0. -1.
         21    1    1    2  503  501 -0.13998970402E+02 -0.19762545580E+02  0.22764022866E+01  0.24325118448E+02  0.00000000000E+00 0. -1.
         21    1    1    2  504  502  0.13998970402E+02  0.19762545580E+02  0.48164007923E+02  0.53910120009E+02  0.00000000000E+00 0. -1.
</event>
<event>
 4    1  0.3283867E+006  0.2503924E+02  0.7546771E-02  0.1468365E+00
         21   -1    0    0  503  501  0.00000000000E+00  0.00000000000E+00  0.22401581380E+03  0.22401581380E+03  0.00000000000E+00 0. -1.
         21   -1    0    0  504  502 -0.00000000000E+00 -0.00000000000E+00 -0.31112970164E+01  0.31112970164E+01  0.00000000000E+00 0. -1.
         21    1    1    2  503  502 -0.25037444964E+02 -0.30023275606E+00  0.74458485060E+02  0.78555902308E+02  0.00000000000E+00 0. -1.
         21    1    1    2  504  501  0.25037444964E+02  0.30023275606E+00  0.14644603172E+03  0.14857120851E+03  0.00000000000E+00 0. -1.
</event>
<event>
 4    1  0.3283867E+006  0.2733752E+02  0.7546771E-02  0.1444247E+00
         21   -1    0    0  503  501  0.00000000000E+00  0.00000000000E+00  0.57771890147E+01  0.57771890147E+01  0.00000000000E+00 0.  1.
         21   -1    0    0  504  502 -0.00000000000E+00 -0.00000000000E+00 -0.14837883269E+03  0.14837883269E+03  0.00000000000E+00 0.  1.
         21    1    1    2  503  502  0.22073680412E+02  0.16127394448E+02 -0.43705819893E+02  0.51551323078E+02  0.00000000000E+00 0.  1.
         21    1    1    2  504  501 -0.22073680412E+02 -0.16127394448E+02 -0.98895823785E+02  0.10260469863E+03  0.00000000000E+00 0.  1.
</event>
<event>
 4    1  0.3283867E+006  0.2255671E+02  0.7546771E-02  0.1498141E+00
         21   -1    0    0  503  501  0.00000000000E+00  0.00000000000E+00  0.10371184339E+03  0.10371184339E+03  0.00000000000E+00 0. -1.
         21   -1    0    0  504  502 -0.00000000000E+00 -0.00000000000E+00 -0.15800181785E+02  0.15800181785E+02  0.00000000000E+00 0.  1.
         21    1    1    2  503  502 -0.12535278391E+02 -0.18752915535E+02 -0.56632697755E+01  0.23256776860E+02  0.00000000000E+00 0.  1.
         21    1    1    2  504  501  0.12535278391E+02  0.18752915535E+02  0.93574931376E+02  0.96255248311E+02  0.00000000000E+00 0. -1.
</event>
<event>
 4    1  0.3283867E+006  0.2155898E+02  0.7546771E-02  0.1511432E+00
         21   -1    0    0  504  501  0.00000000000E+00  0.00000000000E+00  0.32542800204E+03  0.32542800204E+03  0.00000000000E+00 0. -1.
         21   -1    0    0  501  502 -0.00000000000E+00 -0.00000000000E+00 -0.25420958737E+02  0.25420958737E+02  0.00000000000E+00 0.  1.
         21    1    1    2  503  502 -0.18920299927E+02 -0.10334981060E+02 -0.20421736001E+02  0.29695738484E+02  0.00000000000E+00 0.  1.
         21    1    1    2  504  503  0.18920299927E+02  0.10334981060E+02  0.32042877930E+03  0.32115322229E+03  0.00000000000E+00 0. -1.
</event>
<event>
 4    1  0.3283867E+006  0.2018591E+02  0.7546771E-02  0.1531212E+00
         21   -1    0    0  504  501  0.00000000000E+00  0.00000000000E+00  0.10303387722E+02  0.10303387722E+02  0.00000000000E+00 0. -1.
         21   -1    0    0  501  502 -0.00000000000E+00 -0.00000000000E+00 -0.39638304075E+02  0.39638304075E+02  0.00000000000E+00 0. -1.
         21    1    1    2  503  502 -0.33658866010E+01 -0.19903314128E+02 -0.15863977971E+02  0.25673661658E+02  0.00000000000E+00 0. -1.
         21    1    1    2  504  503  0.33658866010E+01  0.19903314128E+02 -0.13470938383E+02  0.24268030139E+02  0.00000000000E+00 0. -1.
</event>
<event>
 4    1  0.3283867E+006  0.2322637E+02  0.7546771E-02  0.1489675E+00
         21   -1    0    0  503  501  0.00000000000E+00  0.00000000000E+00  0.58808158374E+02  0.58808158374E+02  0.00000000000E+00 0. -1.
         21   -1    0    0  501  502 -0.00000000000E+00 -0.00000000000E+00 -0.52838900005E+02  0.52838900005E+02  0.00000000000E+00 0. -1.
         21    1    1    2  503  504  0.22641610160E+02  0.51789924043E+01  0.53731603773E+02  0.58536738182E+02  0.00000000000E+00 0. -1.
         21    1    1    2  504  502 -0.22641610160E+02 -0.51789924043E+01 -0.47762345404E+02  0.53110320198E+02  0.00000000000E+00 0. -1.
</event>
<event>
 4    1  0.3283867E+006  0.2201367E+02  0.7546771E-02  0.1505269E+00
         21   -1    0    0  503  501  0.00000000000E+00  0.00000000000E+00  0.37924065543E+02  0.37924065543E+02  0.00000000000E+00 0. -1.
         21   -1    0    0  504  502 -0.00000000000E+00 -0.00000000000E+00 -0.31744986831E+02  0.31744986831E+02  0.00000000000E+00 0.  1.
         21    1    1    2  503  502 -0.21976296747E+02 -0.12822038482E+01 -0.23836290777E+02  0.32446423893E+02  0.00000000000E+00 0.  1.
         21    1    1    2  504  501  0.21976296747E+02  0.12822038482E+01  0.30015369489E+02  0.37222628481E+02  0.00000000000E+00 0. -1.
</event>
<event>
 4    1  0.3283867E+006  0.2209921E+02  0.7546771E-02  0.1504130E+00
         21   -1    0    0  502  501  0.00000000000E+00  0.00000000000E+00  0.16852916562E+02  0.16852916562E+02  0.00000000000E+00 0.  1.
         21   -1    0    0  504  502 -0.00000000000E+00 -0.00000000000E+00 -0.21106312964E+03  0.21106312964E+03  0.00000000000E+00 0.  1.
         21    1    1    2  503  501  0.77140227823E+00 -0.22085744636E+02  0.87410653823E+01  0.23765129951E+02  0.00000000000E+00 0.  1.
         21    1    1    2  504  503 -0.77140227823E+00  0.22085744636E+02 -0.20295127846E+03  0.20415091625E+03  0.00000000000E+00 0.  1.
</event>
<event>
 4    1  0.3283867E+006  0.3792465E+02  0.7546771E-02  0.1361096E+00
         21   -1    0    0  503  501  0.00000000000E+00  0.00000000000E+00  0.24167476815E+03  0.24167476815E+03  0.00000000000E+00 0.  1.
         21   -1    0    0  504  502 -0.00000000000E+00 -0.00000000000E+00 -0.19439678819E+02  0.19439678819E+02  0.00000000000E+00 0.  1.
         21    1    1    2  503  502  0.24080305553E+01 -0.37848127475E+02  0.23658034711E+01  0.37998373525E+02  0.00000000000E+00 0.  1.
         21    1    1    2  504  501 -0.24080305553E+01  0.37848127475E+02  0.21986928586E+03  0.22311607344E+03  0.00000000000E+00 0.  1.
</event>
<event>
 4    1  0.3283867E+006  0.2100015E+02  0.7546771E-02  0.1519263E+00
         21   -1    0    0  504  501  0.00000000000E+00  0.00000000000E+00  0.24193866649E+02  0.24193866649E+02  0.00000000000E+00 0. -1.
         21   -1    0    0  503  502 -0.00000000000E+00 -0.00000000000E+00 -0.18251140455E+02  0.18251140455E+02  0.00000000000E+00 0. -1.
         21    1    1    2  503  501 -0.16865314908E+01 -0.20932313474E+02  0.37268166238E+01  0.21328274614E+02  0.00000000000E+00 0. -1.
         21    1    1    2  504  502  0.16865314908E+01  0.20932313474E+02  0.22159095703E+01  0.21116732491E+02  0.00000000000E+00 0. -1.
</event>
<event>
 4    1  0.3283867E+006  0.2335892E+02  0.7546771E-02  0.1488040E+00
         21   -1    0    0  503  501  0.00000000000E+00  0.00000000000E+00  0.69674396720E+02  0.69674396720E+02  0.00000000000E+00 0. -1.
         21   -1    0    0  501  502 -0.00000000000E+00 -0.00000000000E+00 -0.29741116516E+02  0.29741116516E+02  0.00000000000E+00 0. -1.
         21    1    1    2  503  504  0.21184810737E+02  0.98408748331E+01  0.62630996163E+02  0.66845199557E+02  0.00000000000E+00 0. -1.
         21    1    1    2  504  502 -0.21184810737E+02 -0.98408748331E+01 -0.22697715958E+02  0.32570313679E+02  0.00000000000E+00 0. -1.
</event>
<event>
 4    1  0.3283867E+006  0.4232613E+02  0.7546771E-02  0.1335369E+00
         21   -1    0    0  503  501  0.00000000000E+00  0.00000000000E+00  0.49648480417E+02  0.49648480417E+02  0.00000000000E+00 0.  1.
         21   -1    0    0  504  502 -0.00000000000E+00 -0.00000000000E+00 -0.36107975686E+02  0.36107975686E+02  0.00000000000E+00 0.  1.
         21    1    1    2  503  502  0.26530985036E+02  0.32978903729E+02  0.78818601435E+01  0.43053745221E+02  0.00000000000E+00 0.  1.
         21    1    1    2  504  501 -0.26530985036E+02 -0.32978903729E+02  0.56586445876E+01  0.42702710883E+02  0.00000000000E+00 0.  1.
</event>
<event>
 4    1  0.3283867E+006  0.2200251E+02  0.7546771E-02  0.1505418E+00
         21   -1    0    0  503  501  0.00000000000E+00  0.00000000000E+00  0.27198788684E+01  0.27198788684E+01  0.00000000000E+00 0. -1.
         21   -1    0    0  504  502 -0.00000000000E+00 -0.00000000000E+00 -0.22337888626E+03  0.22337888626E+03  0.00000000000E+00 0. -1.
         21    1    1    2  503  502  0.12747853546E+02  0.17933288297E+02 -0.59370254110E+02  0.63316172280E+02  0.00000000000E+00 0. -1.
         21    1    1    2  504  501 -0.12747853546E+02 -0.17933288297E+02 -0.16128875328E+03  0.16278259285E+03  0.00000000000E+00 0. -1.
</event>
<event>
 4    1  0.3283867E+006  0.2250397E+02  0.7546771E-02  0.1498823E+00
         21   -1    0    0  502  501  0.00000000000E+00  0.00000000000E+00  0.13940362182E+03  0.13940362182E+03  0.00000000000E+00 0. -1.
         21   -1    0    0  504  502 -0.00000000000E+00 -0.00000000000E+00 -0.14148296827E+02  0.14148296827E+02  0.00000000000E+00 0.  1.
         21    1    1    2  503  501 -0.81765854289E+01  0.20965977961E+02  0.12881693067E+03  0.13076784930E+03  0.00000000000E+00 0. -1.
         21    1    1    2  504  503  0.81765854289E+01 -0.20965977961E+02 -0.35616056826E+01  0.22784069350E+02  0.00000000000E+00 0.  1.
</event>
<event>
 4    1  0.3283867E+006  0.2639723E+02  0.7546771E-02  0.1453759E+00
         21   -1    0    0  502  501  0.00000000000E+00  0.00000000000E+00  0.66454223144E+03  0.66454223144E+03  0.00000000000E+00 0. -1.
         21   -1    0    0  504  502 -0.00000000000E+00 -0.00000000000E+00 -0.20806764093E+01  0.20806764093E+01  0.00000000000E+00 0. -1.
         21    1    1    2  503  501  0.11562516229E+02 -0.23730187471E+02  0.56598420146E+03  0.56659944395E+03  0.00000000000E+00 0. -1.
         21    1    1    2  504  503 -0.11562516229E+02  0.23730187471E+02  0.96477353573E+02  0.10002346390E+03  0.00000000000E+00 0. -1.
</event>
<event>
 4    1  0.3283867E+006  0.2176924E+02  0.7546771E-02  0.1508559E+00
         21   -1    0    0  503  501  0.00000000000E+00  0.00000000000E+00  0.50266701242E+01  0.50266701242E+01  0.00000000000E+00 0. -1.
         21   -1    0    0  504  502 -0.00000000000E+00 -0.00000000000E+00 -0.11356606156E+03  0.11356606156E+03  0.00000000000E+00 0. -1.
         21    1    1    2  503  502 -0.21625027038E+02 -0.25015892815E+01 -0.78707294424E+02  0.81662341008E+02  0.00000000000E+00 0. -1.
         21    1    1    2  504  501  0.21625027038E+02  0.25015892815E+01 -0.29832097007E+02  0.36930390672E+02  0.00000000000E+00 0. -1.
</event>
<event>
 4    1  0.3283867E+006  0.3607944E+02  0.7546771E-02  0.1373129E+00
         21   -1    0    0  503  501  0.00000000000E+00  0.00000000000E+00  0.97709267907E+02  0.97709267907E+02  0.00000000000E+00 0. -1.
         21   -1    0    0  501  502 -0.00000000000E+00 -0.00000000000E+00 -0.25866758324E+02  0.25866758324E+02  0.00000000000E+00 0.  1.
         21    1    1    2  503  504 -0.25165872751E+02 -0.25853525854E+02  0.78949808061E+02  0.86803215051E+02  0.00000000000E+00 0. -1.
         21    1    1    2  504  502  0.25165872751E+02  0.25853525854E+02 -0.71072984778E+01  0.36772811179E+02  0.00000000000E+00 0.  1.
</event>
<event>
 4    1  0.3283867E+006  0.2229552E+02  0.7546771E-02  0.1501539E+00
         21   -1    0    0  503  501  0.00000000000E+00  0.00000000000E+00  0.18457484419E+03  0.18457484419E+03  0.00000000000E+00 0.  1.
         21   -1    0    0  504  502 -0.00000000000E+00 -0.00000000000E+00 -0.20394887571E+03  0.20394887571E+03  0.00000000000E+00 0. -1.
         21    1    1    2  503  502 -0.19348505695E+02 -0.11078151200E+02  0.18328795926E+03  0.18463901569E+03  0.00000000000E+00 0.  1.
         21    1    1    2  504  501  0.19348505695E+02  0.11078151200E+02 -0.20266199077E+03  0.20388470421E+03  0.00000000000E+00 0. -1.
</event>
<event>
 4    1  0.3283867E+006  0.2957977E+02  0.7546771E-02  0.1423284E+00
         21   -1    0    0  502  501  0.00000000000E+00  0.00000000000E+00  0.68001486978E+02  0.68001486978E+02  0.00000000000E+00 0. -1.
         21   -1    0    0  503  502 -0.00000000000E+00 -0.00000000000E+00 -0.40979376014E+02  0.40979376014E+02  0.00000000000E+00 0.  1.
         21    1    1    2  503  504 -0.29186648669E+02 -0.48064891312E+01 -0.31621274417E+02  0.43299743579E+02  0.00000000000E+00 0.  1.
         21    1    1    2  504  501  0.29186648669E+02  0.48064891312E+01  0.58643385381E+02  0.65681119412E+02  0.00000000000E+00 0. -1.
</event>
<event>
 4    1  0.3283867E+006  0.2060428E+02  0.7546771E-02  0.1524990E+00
         21   -1    0    0  503  501  0.00000000000E+00  0.00000000000E+00  0.54279589984E+02  0.54279589984E+02  0.00000000000E+00 0.  1.
         21   -1    0    0  501  502 -0.00000000000E+00 -0.00000000000E+00 -0.12168792555E+02  0.12168792555E+02  0.00000000000E+00 0.  1.
         21    1    1    2  503  504 -0.15575972507E+02 -0.13487977163E+02  0.40914087367E+02  0.45809376689E+02  0.00000000000E+00 0.  1.
         21    1    1    2  504  502  0.15575972507E+02  0.13487977163E+02  0.11967100613E+01  0.20639005850E+02  0.00000000000E+00 0.  1.
</event>
<event>
 4    1  0.3283867E+006  0.2154456E+02  0.7546771E-02  0.1511630E+00
         21   -1    0    0  504  501  0.00000000000E+00  0.00000000000E+00  0.31433355380E+03  0.31433355380E+03  0.00000000000E+00 0. -1.
         21   -1    0    0  503  502 -0.00000000000E+00 -0.00000000000E+00 -0.10667573738E+02  0.10667573738E+02  0.00000000000E+00 0. -1.
         21    1    1    2  503  501  0.21535719533E+02  0.61697700977E+00  0.99835291492E+00  0.21567674538E+02  0.00000000000E+00 0. -1.
         21    1    1    2  504  502 -0.21535719533E+02 -0.61697700977E+00  0.30266762714E+03  0.30343345300E+03  0.00000000000E+00 0. -1.
</event>
<event>
 4    1  0.3283867E+006  0.2313413E+02  0.7546771E-02  0.1490821E+00
         21   -1    0    0  504  501  0.00000000000E+00  0.00000000000E+00  0.29383957151E+02  0.29383957151E+02  0.00000000000E+00 0.  1.
         21   -1    0    0  501  502 -0.00000000000E+00 -0.00000000000E+00 -0.44365730255E+02  0.44365730255E+02  0.00000000000E+00 0. -1.
         21    1    1    2  503  502 -0.14649510192E+02  0.17904738476E+02 -0.35802189644E+02  0.42626102239E+02  0.00000000000E+00 0. -1.
         21    1    1    2  504  503  0.14649510192E+02 -0.17904738476E+02  0.20820416541E+02  0.31123585168E+02  0.00000000000E+00 0.  1.
</event>
<event>
 4    1  0.3283867E+006  0.2000403E+02  0.7546771E-02  0.1533974E+00
         21   -1    0    0  503  501  0.00000000000E+00  0.00000000000E+00  0.10844302688E+03  0.10844302688E+03  0.00000000000E+00 0. -1.
         21   -1    0    0  504  502 -0.00000000000E+00 -0.00000000000E+00 -0.81717806022E+01  0.81717806022E+01  0.00000000000E+00 0. -1.
         21    1    1    2  503  502  0.28281039276E+01  0.19803106536E+02  0.93316134178E+02  0.95436167663E+02  0.00000000000E+00 0. -1.
         21    1    1    2  504  501 -0.28281039276E+01 -0.19803106536E+02  0.69551121018E+01  0.21178639821E+02  0.00000000000E+00 0. -1.
</event>
<event>
 4    1  0.3283867E+006  0.2684158E+02  0.7546771E-02  0.1449206E+00
         21   -1    0    0  504  501  0.00000000000E+00  0.00000000000E+00  0.21527901651E+03  0.21527901651E+03  0.00000000000E+00 0. -1.
         21   -1    0    0  503  502 -0.00000000000E+00 -0.00000000000E+00 -0.42932470503E+01  0.42932470503E+01  0.00000000000E+00 0. -1.
         21    1    1    2  503  501  0.26562642856E+02 -0.38595609977E+01  0.53942727755E+02  0.60251872040E+02  0.00000000000E+00 0. -1.
         21    1    1    2  504  502 -0.26562642856E+02  0.38595609977E+01  0.15704304170E+03  0.15932039152E+03  0.00000000000E+00 0. -1.
</event>
<event>
 4    1  0.3283867E+006  0.7790543E+02  0.7546771E-02  0.1208795E+00
         21   -1    0    0  503  501  0.00000000000E+00  0.00000000000E+00  0.34308389453E+02  0.34308389453E+02  0.00000000000E+00 0. -1.
         21   -1    0    0  504  502 -0.00000000000E+00 -0.00000000000E+00 -0.33285023969E+03  0.33285023969E+03  0.00000000000E+00 0. -1.
         21    1    1    2  503  502 -0.50331856169E+02 -0.59463942809E+02 -0.23613491776E+02  0.81405486508E+02  0.00000000000E+00 0. -1.
         21    1    1    2  504  501  0.50331856169E+02  0.59463942809E+02 -0.27492835846E+03  0.28575314263E+03  0.00000000000E+00 0. -1.
</event>
<event>
 4    1  0.3283867E+006  0.2176086E+02  0.7546771E-02  0.1508673E+00
         21   -1    0    0  502  501  0.00000000000E+00  0.00000000000E+00  0.36089268635E+01  0.36089268635E+01  0.00000000000E+00 0. -1.
         21   -1    0    0  503  502 -0.00000000000E+00 -0.00000000000E+00 -0.81316375026E+03  0.81316375026E+03  0.00000000000E+00 0. -1.
         21    1    1    2  503  504  0.40982380073E+01 -0.21371463602E+02 -0.77876654252E+03  0.77907051206E+03  0.00000000000E+00 0. -1.
         21    1    1    2  504  501 -0.40982380073E+01  0.21371463602E+02 -0.30788280880E+02  0.37702165068E+02  0.00000000000E+00 0. -1.
</event>
<event>
 4    1  0.3283867E+006  0.2029792E+02  0.7546771E-02  0.1529529E+00
         21   -1    0    0  502  501  0.00000000000E+00  0.00000000000E+00  0.12622862797E+03  0.12622862797E+03  0.00000000000E+00 0.  1.
         21   -1    0    0  503  502 -0.00000000000E+00 -0.00000000000E+00 -0.11193512563E+02  0.11193512563E+02  0.00000000000E+00 0. -1.
         21    1    1    2  503  504 -0.18028020669E+02  0.93271649513E+01 -0.31438541492E+00  0.20300354023E+02  0.00000000000E+00 0. -1.
         21    1    1    2  504  501  0.18028020669E+02 -0.93271649513E+01  0.11534950083E+03  0.11712178651E+03  0.00000000000E+00 0.  1.
</event>
<event>
 4    1  0.3283867E+006  0.2499780E+02  0.7546771E-02  0.1468828E+00
         21   -1    0    0  502  501  0.00000000000E+00  0.00000000000E+00  0.89365703148E+01  0.89365703148E+01  0.00000000000E+00 0.  1.
         21   -1    0    0  503  502 -0.00000000000E+00 -0.00000000000E+00 -0.28389274375E+03  0.28389274375E+03  0.00000000000E+00 0. -1.
         21    1    1    2  503  504 -0.74293838692E+01 -0.23868268613E+02 -0.26458861585E+03  0.26576686330E+03  0.00000000000E+00 0. -1.
         21    1    1    2  504  501  0.74293838692E+01  0.23868268613E+02 -0.10367557591E+02  0.27062450770E+02  0.00000000000E+00 0.  1.
</event>
<event>
 4    1  0.3283867E+006  0.2137946E+02  0.7546771E-02  0.1513916E+00
         21   -1    0    0  503  501  0.00000000000E+00  0.00000000000E+00  0.82776339062E+03  0.82776339062E+03  0.00000000000E+00 0.  1.
         21   -1    0    0  501  502 -0.00000000000E+00 -0.00000000000E+00 -0.22147567364E+01  0.22147567364E+01  0.00000000000E+00 0. -1.
         21    1    1    2  503  504 -0.20787918225E+02 -0.49943775560E+01  0.77232771515E+03  0.77262357002E+03  0.00000000000E+00 0.  1.
         21    1    1    2  504  502  0.20787918225E+02  0.49943775560E+01  0.53220918728E+02  0.57354577337E+02  0.00000000000E+00 0. -1.
</event>
<event>
 4    1  0.3283867E+006  0.2078427E+02  0.7546771E-02  0.1522367E+00
         21   -1    0    0  503  501  0.00000000000E+00  0.00000000000E+00  0.22695885829E+03  0.22695885829E+03  0.00000000000E+00 0.  1.
         21   -1    0    0  504  502 -0.00000000000E+00 -0.00000000000E+00 -0.35900258109E+01  0.35900258109E+01  0.00000000000E+00 0. -1.
         21    1    1    2  503  502 -0.20208240303E+02 -0.48593138932E+01  0.32671531859E+02  0.38722279139E+02  0.00000000000E+00 0. -1.
         21    1    1    2  504  501  0.20208240303E+02  0.48593138932E+01  0.19069730062E+03  0.19182660496E+03  0.00000000000E+00 0.  1.
</event>
<event>
 4    1  0.3283867E+006  0.2142121E+02  0.7546771E-02  0.1513335E+00
         21   -1    0    0  502  501  0.00000000000E+00  0.00000000000E+00  0.78244167923E+01  0.78244167923E+01  0.00000000000E+00 0. -1.
         21   -1    0    0  503  502 -0.00000000000E+00 -0.00000000000E+00 -0.27751348924E+03  0.27751348924E+03  0.00000000000E+00 0.  1.
         21    1    1    2  503  504 -0.18742116517E+01 -0.21339062779E+02 -0.26154504747E+03  0.26242080734E+03  0.00000000000E+00 0.  1.
         21    1    1    2  504  501  0.18742116517E+01  0.21339062779E+02 -0.81440249793E+01  0.22917098693E+02  0.00000000000E+00 0. -1.
</event>
<event>
 4    1  0.3283867E+006  0.3156748E+02  0.7546771E-02  0.1406447E+00
         21   -1    0    0  502  501  0.00000000000E+00  0.00000000000E+00  0.36370506405E+03  0.36370506405E+03  0.00000000000E+00 0.  1.
         21   -1    0    0  504  502 -0.00000000000E+00 -0.00000000000E+00 -0.49865120255E+01  0.49865120255E+01  0.00000000000E+00 0.  1.
         21    1    1    2  503  501 -0.31534906657E+02 -0.14336584449E+01  0.30309680111E+03  0.30473624097E+03  0.00000000000E+00 0.  1.
         21    1    1    2  504  503  0.31534906657E+02  0.14336584449E+01  0.55621750919E+02  0.63955335115E+02  0.00000000000E+00 0.  1.
</event>
<event>
 4    1  0.3283867E+006  0.2386401E+02  0.7546771E-02  0.1481925E+00
         21   -1    0    0  503  501  0.00000000000E+00  0.00000000000E+00  0.76824544369E+01  0.76824544369E+01  0.00000000000E+00 0.  1.
         21   -1    0    0  504  502 -0.00000000000E+00 -0.00000000000E+00 -0.97804812230E+02  0.97804812230E+02  0.00000000000E+00 0.  1.
         21    1    1    2  503  502  0.22110575175E+02 -0.89785062841E+01 -0.71011589389E+02  0.74914197167E+02  0.00000000000E+00 0.  1.
         21    1    1    2  504  501 -0.22110575175E+02  0.89785062841E+01 -0.19110768404E+02  0.30573069500E+02  0.00000000000E+00 0.  1.
</event>
<event>
 4    1  0.3283867E+006  0.2461055E+02  0.7546771E-02  0.1473208E+00
         21   -1    0    0  503  501  0.00000000000E+00  0.00000000000E+00  0.57259420603E+01  0.57259420603E+01  0.00000000000E+00 0.  1.
         21   -1    0    0  504  502 -0.00000000000E+00 -0.00000000000E+00 -0.16155908937E+03  0.16155908937E+03  0.00000000000E+00 0.  1.
         21    1    1    2  503  502 -0.16203045640E+02 -0.18524057796E+02 -0.28768737237E+02  0.37859208225E+02  0.00000000000E+00 0.  1.
         21    1    1    2  504  501  0.16203045640E+02  0.18524057796E+02 -0.12706441007E+03  0.12942582320E+03  0.00000000000E+00 0.  1.
</event>
<event>
 4    1  0.3283867E+006  0.2825814E+02  0.7546771E-02  0.1435363E+00
         21   -1    0    0  503  501  0.00000000000E+00  0.00000000000E+00  0.45880442838E+03  0.45880442838E+03  0.00000000000E+00 0. -1.
         21   -1    0    0  504  502 -0.00000000000E+00 -0.00000000000E+00 -0.17605493318E+01  0.17605493318E+01  0.00000000000E+00 0. -1.
         21    1    1    2  503  502  0.23103895961E+02 -0.16270609799E+02  0.20391214214E+03  0.20586083762E+03  0.00000000000E+00 0. -1.
         21    1    1    2  504  501 -0.23103895961E+02  0.16270609799E+02  0.25313173691E+03  0.25470414010E+03  0.00000000000E+00 0. -1.
</event>
<event>
 4    1  0.3283867E+006  0.2222686E+02  0.7546771E-02  0.1502442E+00
         21   -1    0    0  503  501  0.00000000000E+00  0.00000000000E+00  0.11381826532E+03  0.11381826532E+03  0.00000000000E+00 0.  1.
         21   -1    0    0  501  502 -0.00000000000E+00 -0.00000000000E+00 -0.47383374758E+02  0.47383374758E+02  0.00000000000E+00 0. -1.
         21    1    1    2  503  504  0.16833718597E+02 -0.14514102262E+02  0.11003790044E+03  0.11226029031E+03  0.00000000000E+00 0.  1.
         21    1    1    2  504  502 -0.16833718597E+02  0.14514102262E+02 -0.43603009883E+02  0.48941349768E+02  0.00000000000E+00 0. -1.
</event>
<event>
 4    1  0.3283867E+006  0.2044309E+02  0.7546771E-02  0.1527367E+00
         21   -1    0    0  503  501  0.00000000000E+00  0.00000000000E+00  0.84013458987E+01  0.84013458987E+01  0.00000000000E+00 0.  1.
         21   -1    0    0  504  502 -0.00000000000E+00 -0.00000000000E+00 -0.68478805120E+02  0.68478805120E+02  0.00000000000E+00 0.  1.
         21    1    1    2  503  502  0.15244821910E+02 -0.13620395101E+02 -0.99327003535E+01  0.22728358808E+02  0.00000000000E+00 0.  1.
         21    1    1    2  504  501 -0.15244821910E+02  0.13620395101E+02 -0.50144758868E+02  0.54151792211E+02  0.00000000000E+00 0.  1.
</event>
<event>
 4    1  0.3283867E+006  0.2696259E+02  0.7546771E-02  0.1447984E+00
         21   -1    0    0  503  501  0.00000000000E+00  0.00000000000E+00  0.19640386820E+03  0.19640386820E+03  0.00000000000E+00 0. -1.
         21   -1    0    0  504  502 -0.00000000000E+00 -0.00000000000E+00 -0.50854800430E+02  0.50854800430E+02  0.00000000000E+00 0. -1.
         21    1    1    2  503  502  0.25785715530E+02  0.78789549250E+01  0.19181970564E+03  0.19370539623E+03  0.00000000000E+00 0. -1.
         21    1    1    2  504  501 -0.25785715530E+02 -0.78789549250E+01 -0.46270637870E+02  0.53553272402E+02  0.00000000000E+00 0. -1.
</event>
<event>
 4    1  0.3283867E+006  0.2978470E+02  0.7546771E-02  0.1421477E+00
         21   -1    0    0  502  501  0.00000000000E+00  0.00000000000E+00  0.24701827576E+02  0.24701827576E+02  0.00000000000E+00 0. -1.
         21   -1    0    0  503  502 -0.00000000000E+00 -0.00000000000E+00 -0.74705460761E+02  0.74705460761E+02  0.00000000000E+00 0.  1.
         21    1    1    2  503  504 -0.39224758868E+01  0.29525290202E+02 -0.60818307812E+02  0.67719975957E+02  0.00000000000E+00 0.  1.
         21    1    1    2  504  501  0.39224758868E+01 -0.29525290202E+02  0.10814674627E+02  0.31687312380E+02  0.00000000000E+00 0. -1.
</event>
<event>
 4    1  0.3283867E+006  0.2450059E+02  0.7546771E-02  0.1474468E+00
         21   -1    0    0  502  501  0.00000000000E+00  0.00000000000E+00  0.23869479802E+02  0.23869479802E+02  0.00000000000E+00 0. -1.
         21   -1    0    0  504  502 -0.00000000000E+00 -0.00000000000E+00 -0.18371256330E+03  0.18371256330E+03  0.00000000000E+00 0. -1.
         21    1    1    2  503  501 -0.17563369181E+02  0.17082355071E+02  0.16504181070E+02  0.29540934050E+02  0.00000000000E+00 0. -1.
         21    1    1    2  504  503  0.17563369181E+02 -0.17082355071E+02 -0.17634726457E+03  0.17804110905E+03  0.00000000000E+00 0. -1.
</event>
<event>
 4    1  0.3283867E+006  0.2486459E+02  0.7546771E-02  0.1470324E+00
         21   -1    0    0  502  501  0.00000000000E+00  0.00000000000E+00  0.90219789539E+01  0.90219789539E+01  0.00000000000E+00 0.  1.
         21   -1    0    0  503  502 -0.00000000000E+00 -0.00000000000E+00 -0.42871092138E+03  0.42871092138E+03  0.00000000000E+00 0. -1.
         21    1    1    2  503  504 -0.22606780506E+02 -0.10352839052E+02 -0.41045751704E+03  0.41120994771E+03  0.00000000000E+00 0. -1.
         21    1    1    2  504  501  0.22606780506E+02  0.10352839052E+02 -0.92314253889E+01  0.26522952626E+02  0.00000000000E+00 0.  1.
</event>
<event>
 4    1  0.3283867E+006  0.3814665E+02  0.7546771E-02  0.1359702E+00
         21   -1    0    0  502  501  0.00000000000E+00  0.00000000000E+00  0.76298995368E+02  0.76298995368E+02  0.00000000000E+00 0.  1.
         21   -1    0    0  503  502 -0.00000000000E+00 -0.00000000000E+00 -0.21417240832E+02  0.21417240832E+02  0.00000000000E+00 0. -1.
         21    1    1    2  503  504 -0.16793614722E+02 -0.34251148050E+02  0.11272807840E+02  0.39777416140E+02  0.00000000000E+00 0. -1.
         21    1    1    2  504  501  0.16793614722E+02  0.34251148050E+02  0.43608946696E+02  0.57938820061E+02  0.00000000000E+00 0.  1.
</event>
<event>
 4    1  0.3283867E+006  0.2583999E+02  0.7546771E-02  0.1459622E+00
         21   -1    0    0  504  501  0.00000000000E+00  0.00000000000E+00  0.92847911185E+01  0.92847911185E+01  0.00000000000E+00 0.  1.
         21   -1    0    0  503  502 -0.00000000000E+00 -0.00000000000E+00 -0.76958483575E+02  0.76958483575E+02  0.00000000000E+00 0.  1.
         21    1    1    2  503  501 -0.21402192260E+01 -0.25751199767E+02 -0.22796493350E+02  0.34458452328E+02  0.00000000000E+00 0.  1.
         21    1    1    2  504  502  0.21402192260E+01  0.25751199767E+02 -0.44877199106E+02  0.51784822365E+02  0.00000000000E+00 0.  1.
</event>
<event>
 4    1  0.3283867E+006  0.2825306E+02  0.7546771E-02  0.1435411E+00
         21   -1    0    0  504  501  0.00000000000E+00  0.00000000000E+00  0.11898142831E+02  0.11898142831E+02  0.00000000000E+00 0.  1.
         21   -1    0    0  503  502 -0.00000000000E+00 -0.00000000000E+00 -0.25360567374E+03  0.25360567374E+03  0.00000000000E+00 0.  1.
         21    1    1    2  503  501  0.69189324671E+01 -0.27392772548E+02 -0.70071792908E+01  0.29109039420E+02  0.00000000000E+00 0.  1.
         21    1    1    2  504  502 -0.69189324671E+01  0.27392772548E+02 -0.23470035162E+03  0.23639477715E+03  0.00000000000E+00 0.  1.
</event>
<event>
 4    1  0.3283867E+006  0.3862393E+02  0.7546771E-02  0.1356744E+00
         21   -1    0    0  503  501  0.00000000000E+00  0.00000000000E+00  0.37742270360E+03  0.37742270360E+03  0.00000000000E+00 0. -1.
         21   -1    0    0  504  502 -0.00000000000E+00 -0.00000000000E+00 -0.21486849018E+02  0.21486849018E+02  0.00000000000E+00 0. -1.
         21    1    1    2  503  502  0.22493856730E+02 -0.31398003543E+02 -0.22099317622E+01  0.38687103994E+02  0.00000000000E+00 0. -1.
         21    1    1    2  504  501 -0.22493856730E+02  0.31398003543E+02  0.35814578634E+03  0.36022244862E+03  0.00000000000E+00 0. -1.
</event>
<event>
 4    1  0.3283867E+006  0.2109091E+02  0.7546771E-02  0.1517971E+00
         21   -1    0    0  504  501  0.00000000000E+00  0.00000000000E+00  0.16651045155E+03  0.16651045155E+03  0.00000000000E+00 0. -1.
         21   -1    0    0  503  502 -0.00000000000E+00 -0.00000000000E+00 -0.77212772158E+02  0.77212772158E+02  0.00000000000E+00 0.  1.
         21    1    1    2  503  501  0.18811083097E+02  0.95377955957E+01 -0.75086087833E+02  0.77991967395E+02  0.00000000000E+00 0.  1.
         21    1    1    2  504  502 -0.18811083097E+02 -0.95377955957E+01  0.16438376722E+03  0.16573125631E+03  0.00000000000E+00 0. -1.
</event>
<event>
 4    1  0.3283867E+006  0.2057659E+02  0.7546771E-02  0.1525397E+00
         21   -1    0    0  503  501  0.00000000000E+00  0.00000000000E+00  0.30053234698E+01  0.30053234698E+01  0.00000000000E+00 0.  1.
         21   -1    0    0  504  502 -0.00000000000E+00 -0.00000000000E+00 -0.14643701576E+03  0.14643701576E+03  0.00000000000E+00 0.  1.
         21    1    1    2  503  502 -0.66982686249E+01 -0.19455828714E+02 -0.57162606802E+02  0.60753268965E+02  0.00000000000E+00 0.  1.
         21    1    1    2  504  501  0.66982686249E+01  0.19455828714E+02 -0.86269085491E+02  0.88689070268E+02  0.00000000000E+00 0.  1.
</event>
<event>
 4    1  0.3283867E+006  0.2239938E+02  0.7546771E-02  0.1500181E+00
         21   -1    0    0  503  501  0.00000000000E+00  0.00000000000E+00  0.10833145844E+01  0.10833145844E+01  0.00000000000E+00 0.  1.
         21   -1    0    0  504  502 -0.00000000000E+00 -0.00000000000E+00 -0.47545771353E+03  0.47545771353E+03  0.00000000000E+00 0.  1.
         21    1    1    2  503  502  0.19375873990E+02  0.11238666865E+02 -0.27553008994E+03  0.27643907572E+03  0.00000000000E+00 0.  1.
         21    1    1    2  504  501 -0.19375873990E+02 -0.11238666865E+02 -0.19884430901E+03  0.20010195239E+03  0.00000000000E+00 0.  1.
</event>
<event>
 4    1  0.3283867E+006  0.2121438E+02  0.7546771E-02  0.1516226E+00
         21   -1    0    0  503  501  0.00000000000E+00  0.00000000000E+00  0.73418111657E+02  0.73418111657E+02  0.00000000000E+00 0. -1.
         21   -1    0    0  504  502 -0.00000000000E+00 -0.00000000000E+00 -0.33830111450E+02  0.33830111450E+02  0.00000000000E+00 0.  1.
         21    1    1    2  503  502 -0.21150206396E+02 -0.16488542380E+01 -0.28729205266E+02  0.35712983439E+02  0.00000000000E+00 0.  1.
         21    1    1    2  504  501  0.21150206396E+02  0.16488542380E+01  0.68317205473E+02  0.71535239669E+02  0.00000000000E+00 0. -1.
</event>
<event>
 4    1  0.3283867E+006  0.4085211E+02  0.7546771E-02  0.1343564E+00
         21   -1    0    0  502  501  0.00000000000E+00  0.00000000000E+00  0.14518824595E+03  0.14518824595E+03  0.00000000000E+00 0. -1.
         21   -1    0    0  504  502 -0.00000000000E+00 -0.00000000000E+00 -0.66765040109E+02  0.66765040109E+02  0.00000000000E+00 0.  1.
         21    1    1    2  503  501  0.40609684306E+02 -0.44438769564E+01  0.13563483666E+03  0.14165346243E+03  0.00000000000E+00 0. -1.
         21    1    1    2  504  503 -0.40609684306E+02  0.44438769564E+01 -0.57211630818E+02  0.70299823632E+02  0.00000000000E+00 0.  1.
</event>
<event>
 4    1  0.3283867E+006  0.3034451E+02  0.7546771E-02  0.1416626E+00
         21   -1    0    0  502  501  0.00000000000E+00  0.00000000000E+00  0.24075502932E+03  0.24075502932E+03  0.00000000000E+00 0.  1.
         21   -1    0    0  503  502 -0.00000000000E+00 -0.00000000000E+00 -0.50608211054E+01  0.50608211054E+01  0.00000000000E+00 0.  1.
         21    1    1    2  503  504  0.18595338121E+02 -0.23979214493E+02  0.57100893483E+02  0.64662982951E+02  0.00000000000E+00 0.  1.
         21    1    1    2  504  501 -0.18595338121E+02  0.23979214493E+02  0.17859331473E+03  0.18115286747E+03  0.00000000000E+00 0.  1.
</event>
<event>
 4    1  0.3283867E+006  0.3634979E+02  0.7546771E-02  0.1371314E+00
         21   -1    0    0  504  501  0.00000000000E+00  0.00000000000E+00  0.25040742197E+03  0.25040742197E+03  0.00000000000E+00 0.  1.
         21   -1    0    0  503  502 -0.00000000000E+00 -0.00000000000E+00 -0.66559458496E+01  0.66559458496E+01  0.00000000000E+00 0.  1.
         21    1    1    2  503  501 -0.27288439911E+02 -0.24013499153E+02  0.18038670960E+03  0.18401269547E+03  0.00000000000E+00 0.  1.
         21    1    1    2  504  502  0.27288439911E+02  0.24013499153E+02  0.63364766521E+02  0.73050672349E+02  0.00000000000E+00 0.  1.
</event>
<event>
 4    1  0.3283867E+006  0.3230407E+02  0.7546771E-02  0.1400576E+00
         21   -1    0    0  503  501  0.00000000000E+00  0.00000000000E+00  0.74008555245E+01  0.74008555245E+01  0.00000000000E+00 0.  1.
         21   -1    0    0  501  502 -0.00000000000E+00 -0.00000000000E+00 -0.43385355894E+03  0.43385355894E+03  0.00000000000E+00 0. -1.
         21    1    1    2  503  504 -0.42388299692E+01  0.32024756941E+02 -0.31963202239E+02  0.45444460983E+02  0.00000000000E+00 0.  1.
         21    1    1    2  504  502  0.42388299692E+01 -0.32024756941E+02 -0.39448950118E+03  0.39580995348E+03  0.00000000000E+00 0. -1.
</event>
<event>
 4    1  0.3283867E+006  0.2581655E+02  0.7546771E-02  0.1459872E+00
         21   -1    0    0  504  501  0.00000000000E+00  0.00000000000E+00  0.31820258896E+03  0.31820258896E+03  0.00000000000E+00 0. -1.
         21   -1    0    0  503  502 -0.00000000000E+00 -0.00000000000E+00 -0.90585331702E+01  0.90585331702E+01  0.00000000000E+00 0. -1.
         21    1    1    2  503  501 -0.89448523975E+01 -0.24217432892E+02  0.29804299380E+03  0.29915902225E+03  0.00000000000E+00 0. -1.
         21    1    1    2  504  502  0.89448523975E+01  0.24217432892E+02  0.11101061987E+02  0.28102099877E+02  0.00000000000E+00 0. -1.
</event>
<event>
 4    1  0.3283867E+006  0.2235760E+02  0.7546771E-02  0.1500726E+00
         21   -1    0    0  504  501  0.00000000000E+00  0.00000000000E+00  0.33313047796E+01  0.33313047796E+01  0.00000000000E+00 0.  1.
         21   -1    0    0  503  502 -0.00000000000E+00 -0.00000000000E+00 -0.15011842371E+03  0.15011842371E+03  0.00000000000E+00 0.  1.
         21    1    1    2  503  501 -0.20258715254E+01 -0.22265623770E+02 -0.75032040211E+02  0.78292204054E+02  0.00000000000E+00 0.  1.
         21    1    1    2  504  502  0.20258715254E+01  0.22265623770E+02 -0.71755078714E+02  0.75157524431E+02  0.00000000000E+00 0.  1.
</event>
<event>
 4    1  0.3283867E+006  0.2248011E+02  0.7546771E-02  0.1499132E+00
         21   -1    0    0  503  501  0.00000000000E+00  0.00000000000E+00  0.31161938286E+02  0.31161938286E+02  0.00000000000E+00 0. -1.
         21   -1    0    0  504  502 -0.00000000000E+00 -0.00000000000E+00 -0.23714385056E+02  0.23714385056E+02  0.00000000000E+00 0. -1.
         21    1    1    2  503  502 -0.18669173055E+02  0.12522666223E+02 -0.11703955538E+02  0.25344383345E+02  0.00000000000E+00 0. -1.
         21    1    1    2  504  501  0.18669173055E+02 -0.12522666223E+02  0.19151508769E+02  0.29531939997E+02  0.00000000000E+00 0. -1.
</event>
<event>
 4    1  0.3283867E+006  0.2631512E+02  0.7546771E-02  0.1454612E+00
         21   -1    0    0  504  501  0.00000000000E+00  0.00000000000E+00  0.19363956079E+03  0.19363956079E+03  0.00000000000E+00 0. -1.
         21   -1    0    0  503  502 -0.00000000000E+00 -0.00000000000E+00 -0.38222210312E+01  0.38222210312E+01  0.00000000000E+00 0. -1.
         21    1    1    2  503  501 -0.94911722107E+01  0.24543899157E+02  0.11995936836E+03  0.12281178849E+03  0.00000000000E+00 0. -1.
         21    1    1    2  504  502  0.94911722107E+01 -0.24543899157E+02  0.69857971399E+02  0.74649993327E+02  0.00000000000E+00 0. -1.
</event>
<event>
 4    1  0.3283867E+006  0.2013651E+02  0.7546771E-02  0.1531959E+00
         21   -1    0    0  504  501  0.00000000000E+00  0.00000000000E+00  0.24058723423E+01  0.24058723423E+01  0.00000000000E+00 0.  1.
         21   -1    0    0  503  502 -0.00000000000E+00 -0.00000000000E+00 -0.17492548304E+03  0.17492548304E+03  0.00000000000E+00 0.  1.
         21    1    1    2  503  501 -0.11972036326E+02 -0.16191031974E+02 -0.69315705593E+02  0.72181342548E+02  0.00000000000E+00 0.  1.
         21    1    1    2  504  502  0.11972036326E+02  0.16191031974E+02 -0.10320390510E+03  0.10515001283E+03  0.00000000000E+00 0.  1.
</event>
<event>
 4    1  0.3283867E+006  0.2288336E+02  0.7546771E-02  0.1493968E+00
         21   -1    0    0  504  501  0.00000000000E+00  0.00000000000E+00  0.16813720063E+02  0.16813720063E+02  0.00000000000E+00 0.  1.
         21   -1    0    0  501  502 -0.00000000000E+00 -0.00000000000E+00 -0.67902287940E+02  0.67902287940E+02  0.00000000000E+00 0.  1.
         21    1    1    2  503  502 -0.20850650445E+02 -0.94285953926E+01 -0.56709517117E+02  0.61152410964E+02  0.00000000000E+00 0.  1.
         21    1    1    2  504  503  0.20850650445E+02  0.94285953926E+01  0.56209492408E+01  0.23563597039E+02  0.00000000000E+00 0.  1.
</event>
<event>
 4    1  0.3283867E+006  0.2607167E+02  0.7546771E-02  0.1457163E+00
         21   -1    0    0  503  501  0.00000000000E+00  0.00000000000E+00  0.18653203596E+01  0.18653203596E+01  0.00000000000E+00 0. -1.
         21   -1    0    0  504  502 -0.00000000000E+00 -0.00000000000E+00 -0.50195115586E+03  0.50195115586E+03  0.00000000000E+00 0.  1.
         21    1    1    2  503  502 -0.20107198736E+02  0.16596161136E+02 -0.11817598011E+03  0.12101774366E+03  0.00000000000E+00 0. -1.
         21    1    1    2  504  501  0.20107198736E+02 -0.16596161136E+02 -0.38190985539E+03  0.38279873256E+03  0.00000000000E+00 0.  1.
</event>
<event>
 4    1  0.3283867E+006  0.2562980E+02  0.7546771E-02  0.1461880E+00
         21   -1    0    0  503  501  0.00000000000E+00  0.00000000000E+00  0.11232925475E+03  0.11232925475E+03  0.00000000000E+00 0.  1.
         21   -1    0    0  501  502 -0.00000000000E+00 -0.00000000000E+00 -0.40808604929E+02  0.40808604929E+02  0.00000000000E+00 0. -1.
         21    1    1    2  503  504 -0.15006658318E+02  0.20777069324E+02  0.10663107122E+03  0.10966800697E+03  0.00000000000E+00 0.  1.
         21    1    1    2  504  502  0.15006658318E+02 -0.20777069324E+02 -0.35110421399E+02  0.43469852707E+02  0.00000000000E+00 0. -1.
</event>
<event>
 4    1  0.3283867E+006  0.2111133E+02  0.7546771E-02  0.1517681E+00
         21   -1    0    0  504  501  0.00000000000E+00  0.00000000000E+00  0.99828892365E+03  0.99828892365E+03  0.00000000000E+00 0. -1.
         21   -1    0    0  503  502 -0.00000000000E+00 -0.00000000000E+00 -0.46905947463E+00  0.46905947463E+00  0.00000000000E+00 0. -1.
         21    1    1    2  503  501  0.18078093559E+02  0.10902785846E+02  0.60854290446E+03  0.60890898726E+03  0.00000000000E+00 0. -1.
         21    1    1    2  504  502 -0.18078093559E+02 -0.10902785846E+02  0.38927695971E+03  0.38984899586E+03  0.00000000000E+00 0. -1.
</event>
<event>
 4    1  0.3283867E+006  0.2426045E+02  0.7546771E-02  0.1477249E+00
         21   -1    0    0  504  501  0.00000000000E+00  0.00000000000E+00  0.14286002363E+02  0.14286002363E+02  0.00000000000E+00 0. -1.
         21   -1    0    0  503  502 -0.00000000000E+00 -0.00000000000E+00 -0.62861446323E+03  0.62861446323E+03  0.00000000000E+00 0. -1.
         21    1    1    2  503  501  0.20202357054E+02 -0.13432576903E+02 -0.61790213918E+03  0.61837821999E+03  0.00000000000E+00 0. -1.
         21    1    1    2  504  502 -0.20202357054E+02  0.13432576903E+02  0.35736783126E+01  0.24522245605E+02  0.00000000000E+00 0. -1.
</event>
<event>
 4    1  0.3283867E+006  0.2053980E+02  0.7546771E-02  0.1525938E+00
         21   -1    0    0  504  501  0.00000000000E+00  0.00000000000E+00  0.14357885752E+02  0.14357885752E+02  0.00000000000E+00 0. -1.
         21   -1    0    0  501  502 -0.00000000000E+00 -0.00000000000E+00 -0.10338860818E+03  0.10338860818E+03  0.00000000000E+00 0. -1.
         21    1    1    2  503  502  0.19169982213E+02 -0.73753171183E+01 -0.94324930045E+02  0.96535361131E+02  0.00000000000E+00 0. -1.
         21    1    1    2  504  503 -0.19169982213E+02  0.73753171183E+01  0.52942076127E+01  0.21211132805E+02  0.00000000000E+00 0. -1.
</event>
<event>
 4    1  0.3283867E+006  0.2589215E+02  0.7546771E-02  0.1459066E+00
         21   -1    0    0  503  501  0.00000000000E+00  0.00000000000E+00  0.14936203906E+02  0.14936203906E+02  0.00000000000E+00 0. -1.
         21   -1    0    0  504  502 -0.00000000000E+00 -0.00000000000E+00 -0.45086774947E+02  0.45086774947E+02  0.00000000000E+00 0.  1.
         21    1    1    2  503  502 -0.12016584841E+02 -0.22934800329E+02 -0.17085683025E+02  0.31021346550E+02  0.00000000000E+00 0.  1.
         21    1    1    2  504  501  0.12016584841E+02  0.22934800329E+02 -0.13064888016E+02  0.29001632303E+02  0.00000000000E+00 0. -1.
</event>
<event>
 4    1  0.3283867E+006  0.2704341E+02  0.7546771E-02  0.1447173E+00
         21   -1    0    0  504  501  0.00000000000E+00  0.00000000000E+00  0.16921798102E+03  0.16921798102E+03  0.00000000000E+00 0.  1.
         21   -1    0    0  503  502 -0.00000000000E+00 -0.00000000000E+00 -0.45271162559E+01  0.45271162559E+01  0.00000000000E+00 0.  1.
         21    1    1    2  503  501  0.26657109078E+02 -0.45545971940E+01  0.10084072413E+03  0.10440401076E+03  0.00000000000E+00 0.  1.
         21    1    1    2  504  502 -0.26657109078E+02  0.45545971940E+01  0.63850140633E+02  0.69341086514E+02  0.00000000000E+00 0.  1.
</event>
<event>
 4    1  0.3283867E+006  0.2241008E+02  0.7546771E-02  0.1500042E+00
         21   -1    0    0  503  501  0.00000000000E+00  0.00000000000E+00  0.20877298655E+02  0.20877298655E+02  0.00000000000E+00 0. -1.
         21   -1    0    0  504  502 -0.00000000000E+00 -0.00000000000E+00 -0.27999121539E+02  0.27999121539E+02  0.00000000000E+00 0. -1.
         21    1    1    2  503  502 -0.29281467161E+01 -0.22217961646E+02  0.56107933487E+01  0.23101793542E+02  0.00000000000E+00 0. -1.
         21    1    1    2  504  501  0.29281467161E+01  0.22217961646E+02 -0.12732616233E+02  0.25774626651E+02  0.00000000000E+00 0. -1.
</event>
<event>
 4    1  0.3283867E+006  0.3807440E+02  0.7546771E-02  0.1360155E+00
         21   -1    0    0  504  501  0.00000000000E+00  0.00000000000E+00  0.17357401271E+03  0.17357401271E+03  0.00000000000E+00 0. -1.
         21   -1    0    0  503  502 -0.00000000000E+00 -0.00000000000E+00 -0.71734976917E+02  0.71734976917E+02  0.00000000000E+00 0.  1.
         21    1    1    2  503  501  0.47096396641E+01 -0.37781999264E+02 -0.64374001057E+02  0.74790856301E+02  0.00000000000E+00 0.  1.
         21    1    1    2  504  502 -0.47096396641E+01  0.37781999264E+02  0.16621303685E+03  0.17051813332E+03  0.00000000000E+00 0. -1.
</event>
<event>
 4    1  0.3283867E+006  0.2209039E+02  0.7546771E-02  0.1504247E+00
         21   -1    0    0  504  501  0.00000000000E+00  0.00000000000E+00  0.22918243346E+01  0.22918243346E+01  0.00000000000E+00 0.  1.
         21   -1    0    0  501  502 -0.00000000000E+00 -0.00000000000E+00 -0.43385220752E+03  0.43385220752E+03  0.00000000000E+00 0. -1.
         21    1    1    2  503  502  0.14623886227E+02 -0.16556788189E+02 -0.37139618881E+03  0.37205256933E+03  0.00000000000E+00 0. -1.
         21    1    1    2  504  503 -0.14623886227E+02  0.16556788189E+02 -0.60164194379E+02  0.64091462527E+02  0.00000000000E+00 0.  1.
</event>
<event>
 4    1  0.3283867E+006  0.2040795E+02  0.7546771E-02  0.1527888E+00
         21   -1    0    0  504  501  0.00000000000E+00  0.00000000000E+00  0.43267573315E+02  0.43267573315E+02  0.00000000000E+00 0.  1.
         21   -1    0    0  501  502 -0.00000000000E+00 -0.00000000000E+00 -0.12600115174E+02  0.12600115174E+02  0.00000000000E+00 0. -1.
         21    1    1    2  503  502 -0.40020721321E+01 -0.20011695152E+02  0.17619194740E+01  0.20483868884E+02  0.00000000000E+00 0. -1.
         21    1    1    2  504  503  0.40020721321E+01  0.20011695152E+02  0.28905538667E+02  0.35383819605E+02  0.00000000000E+00 0.  1.
</event>
<event>
 4    1  0.3283867E+006  0.3766953E+02  0.7546771E-02  0.1362711E+00
         21   -1    0    0  503  501  0.00000000000E+00  0.00000000000E+00  0.92048225782E+03  0.92048225782E+03  0.00000000000E+00 0.  1.
         21   -1    0    0  504  502 -0.00000000000E+00 -0.00000000000E+00 -0.26084980943E+02  0.26084980943E+02  0.00000000000E+00 0. -1.
         21    1    1    2  503  502 -0.30900301806E+02  0.21544476889E+02  0.90628418519E+03  0.90706671059E+03  0.00000000000E+00 0.  1.
         21    1    1    2  504  501  0.30900301806E+02 -0.21544476889E+02 -0.11886908318E+02  0.39500528167E+02  0.00000000000E+00 0. -1.
</event>
<event>
 4    1  0.3283867E+006  0.2054176E+02  0.7546771E-02  0.1525909E+00
         21   -1    0    0  503  501  0.00000000000E+00  0.00000000000E+00  0.37122789872E+02  0.37122789872E+02  0.00000000000E+00 0. -1.
         21   -1    0    0  504  502 -0.00000000000E+00 -0.00000000000E+00 -0.28310863578E+02  0.28310863578E+02  0.00000000000E+00 0.  1.
         21    1    1    2  503  502 -0.11559688105E+02 -0.16980506680E+02 -0.20904759899E+02  0.29308240865E+02  0.00000000000E+00 0.  1.
         21    1    1    2  504  501  0.11559688105E+02  0.16980506680E+02  0.29716686192E+02  0.36125412585E+02  0.00000000000E+00 0. -1.
</event>
<event>
 4    1  0.3283867E+006  0.2373245E+02  0.7546771E-02  0.1483500E+00
         21   -1    0    0  503  501  0.00000000000E+00  0.00000000000E+00  0.49721471736E+03  0.49721471736E+03  0.00000000000E+00 0.  1.
         21   -1    0    0  504  502 -0.00000000000E+00 -0.00000000000E+00 -0.15288373627E+02  0.15288373627E+02  0.00000000000E+00 0. -1.
         21    1    1    2  503  502  0.23022102785E+02  0.57629806538E+01  0.48753875531E+03  0.48811603855E+03  0.00000000000E+00 0.  1.
         21    1    1    2  504  501 -0.23022102785E+02 -0.57629806538E+01 -0.56124115788E+01  0.24387052434E+02  0.00000000000E+00 0. -1.
</event>
<event>
 4    1  0.3283867E+006  0.2108741E+02  0.7546771E-02  0.1518020E+00
         21   -1    0    0  504  501  0.00000000000E+00  0.00000000000E+00  0.48798551750E+01  0.48798551750E+01  0.00000000000E+00 0.  1.
         21   -1    0    0  501  502 -0.00000000000E+00 -0.00000000000E+00 -0.68813975023E+03  0.68813975023E+03  0.00000000000E+00 0.  1.
         21    1    1    2  503  502  0.13499968387E+02 -0.16199685617E+02 -0.66438241582E+03  0.66471698745E+03  0.00000000000E+00 0.  1.
         21    1    1    2  504  503 -0.13499968387E+02  0.16199685617E+02 -0.18877479234E+02  0.28302617949E+02  0.00000000000E+00 0.  1.
</event>
<event>
 4    1  0.3283867E+006  0.2120037E+02  0.7546771E-02  0.1516423E+00
         21   -1    0    0  502  501  0.00000000000E+00  0.00000000000E+00  0.73599879392E+03  0.73599879392E+03  0.00000000000E+00 0.  1.
         21   -1    0    0  504  502 -0.00000000000E+00 -0.00000000000E+00 -0.13360309956E+01  0.13360309956E+01  0.00000000000E+00 0. -1.
         21    1    1    2  503  501  0.15487860886E+02  0.14476947969E+02  0.63897666587E+03  0.63932826887E+03  0.00000000000E+00 0.  1.
         21    1    1    2  504  503 -0.15487860886E+02 -0.14476947969E+02  0.95686097061E+02  0.98006556047E+02  0.00000000000E+00 0. -1.
</event>
<event>
 4    1  0.3283867E+006  0.4108286E+02  0.7546771E-02  0.1342255E+00
         21   -1    0    0  504  501  0.00000000000E+00  0.00000000000E+00  0.16333493838E+03  0.16333493838E+03  0.00000000000E+00 0. -1.
         21   -1    0    0  503  502 -0.00000000000E+00 -0.00000000000E+00 -0.12706428249E+02  0.12706428249E+02  0.00000000000E+00 0.  1.
         21    1    1    2  503  501 -0.33931750339E+02  0.23161119565E+02  0.37275460215E+02  0.55473066211E+02  0.00000000000E+00 0.  1.
         21    1    1    2  504  502  0.33931750339E+02 -0.23161119565E+02  0.11335304991E+03  0.12056830041E+03  0.00000000000E+00 0. -1.
</event>
<event>
 4    1  0.3283867E+006  0.2856564E+02  0.7546771E-02  0.1432485E+00
         21   -1    0    0  504  501  0.00000000000E+00  0.00000000000E+00  0.13054704304E+02  0.13054704304E+02  0.00000000000E+00 0.  1.
         21   -1    0    0  503  502 -0.00000000000E+00 -0.00000000000E+00 -0.16169780684E+03  0.16169780684E+03  0.00000000000E+00 0. -1.
         21    1    1    2  503  501 -0.43942178810E+01 -0.28225636897E+02 -0.58863519076E+01  0.29165816769E+02  0.00000000000E+00 0.  1.
         21    1    1    2  504  502  0.43942178810E+01  0.28225636897E+02 -0.14275675063E+03  0.14558669438E+03  0.00000000000E+00 0. -1.
</event>
<event>
 4    1  0.3283867E+006  0.2069524E+02  0.7546771E-02  0.1523661E+00
         21   -1    0    0  502  501  0.00000000000E+00  0.00000000000E+00  0.20457095677E+01  0.20457095677E+01  0.00000000000E+00 0.  1.
         21   -1    0    0  504  502 -0.00000000000E+00 -0.00000000000E+00 -0.24701549943E+03  0.24701549943E+03  0.00000000000E+00 0.  1.
         21    1    1    2  503  501 -0.64878175508E+01 -0.19652007033E+02 -0.73864485683E+02  0.76708900410E+02  0.00000000000E+00 0.  1.
         21    1    1    2  504  503  0.64878175508E+01  0.19652007033E+02 -0.17110530418E+03  0.17235230859E+03  0.00000000000E+00 0.  1.
</event>
<event>
 4    1  0.3283867E+006  0.2051353E+02  0.7546771E-02  0.1526325E+00
         21   -1    0    0  504  501  0.00000000000E+00  0.00000000000E+00  0.99864938655E+03  0.99864938655E+03  0.00000000000E+00 0.  1.
         21   -1    0    0  501  502 -0.00000000000E+00 -0.00000000000E+00 -0.38602553226E+01  0.38602553226E+01  0.00000000000E+00 0.  1.
         21    1    1    2  503  502 -0.20176259832E+02  0.37045079429E+01  0.24287815453E+02  0.31791552642E+02  0.00000000000E+00 0.  1.
         21    1    1    2  504  503  0.20176259832E+02 -0.37045079429E+01  0.97050131577E+03  0.97071808923E+03  0.00000000000E+00 0.  1.
</event>
<event>
 4    1  0.3283867E+006  0.2193801E+02  0.7546771E-02  0.1506282E+00
         21   -1    0    0  502  501  0.00000000000E+00  0.00000000000E+00  0.44272845215E+01  0.44272845215E+01  0.00000000000E+00 0. -1.
         21   -1    0    0  503  502 -0.00000000000E+00 -0.00000000000E+00 -0.12652944375E+03  0.12652944375E+03  0.00000000000E+00 0. -1.
         21    1    1    2  503  504 -0.17725159840E+02  0.12926524984E+02 -0.85625708373E+02  0.88391392532E+02  0.00000000000E+00 0. -1.
         21    1    1    2  504  501  0.17725159840E+02 -0.12926524984E+02 -0.36476450854E+02  0.42565335737E+02  0.00000000000E+00 0. -1.
</event>
<event>
 4    1  0.3283867E+006  0.2252641E+02  0.7546771E-02  0.1498532E+00
         21   -1    0    0  504  501  0.00000000000E+00  0.00000000000E+00  0.73238832336E+02  0.73238832336E+02  0.00000000000E+00 0.  1.
         21   -1    0    0  503  502 -0.00000000000E+00 -0.00000000000E+00 -0.49878624467E+02  0.49878624467E+02  0.00000000000E+00 0. -1.
         21    1    1    2  503  501  0.22444087169E+02 -0.19240951081E+01  0.68803543202E+02  0.72397284120E+02  0.00000000000E+00 0.  1.
         21    1    1    2  504  502 -0.22444087169E+02  0.19240951081E+01 -0.45443335333E+02  0.50720172683E+02  0.00000000000E+00 0. -1.
</event>
<event>
 4    1  0.3283867E+006  0.4004328E+02  0.7546771E-02  0.1348232E+00
         21   -1    0    0  503  501  0.00000000000E+00  0.00000000000E+00  0.61364681891E+02  0.61364681891E+02  0.00000000000E+00 0.  1.
         21   -1    0    0  504  502 -0.00000000000E+00 -0.00000000000E+00 -0.27248006821E+02  0.27248006821E+02  0.00000000000E+00 0. -1.
         21    1    1    2  503  502  0.24960426963E+02 -0.31311996232E+02  0.26032735311E+02  0.47761567499E+02  0.00000000000E+00 0.  1.
         21    1    1    2  504  501 -0.24960426963E+02  0.31311996232E+02  0.80839397592E+01  0.40851121212E+02  0.00000000000E+00 0. -1.
</event>
<event>
 4    1  0.3283867E+006  0.2228313E+02  0.7546771E-02  0.1501702E+00
         21   -1    0    0  504  501  0.00000000000E+00  0.00000000000E+00  0.13973026178E+01  0.13973026178E+01  0.00000000000E+00 0.  1.
         21   -1    0    0  503  502 -0.00000000000E+00 -0.00000000000E+00 -0.67184510383E+03  0.67184510383E+03  0.00000000000E+00 0. -1.
         21    1    1    2  503  501 -0.97907157995E+01  0.20016991254E+02 -0.10418390804E+03  0.10654024943E+03  0.00000000000E+00 0.  1.
         21    1    1    2  504  502  0.97907157995E+01 -0.20016991254E+02 -0.56626389317E+03  0.56670215701E+03  0.00000000000E+00 0. -1.
</event>
<event>
 4    1  0.3283867E+006  0.3368288E+02  0.7546771E-02  0.1390067E+00
         21   -1    0    0  504  501  0.00000000000E+00  0.00000000000E+00  0.29624190835E+03  0.29624190835E+03  0.00000000000E+00 0.  1.
         21   -1    0    0  503  502 -0.00000000000E+00 -0.00000000000E+00 -0.74016816676E+03  0.74016816676E+03  0.00000000000E+00 0. -1.
         21    1    1    2  503  501  0.30809269458E+02  0.13613435649E+02  0.29489952622E+03  0.29681689183E+03  0.00000000000E+00 0.  1.
         21    1    1    2  504  502 -0.30809269458E+02 -0.13613435649E+02 -0.73882578463E+03  0.73959318328E+03  0.00000000000E+00 0. -1.
</event>
<event>
 4    1  0.3283867E+006  0.2444731E+02  0.7546771E-02  0.1475082E+00
         21   -1    0    0  503  501  0.00000000000E+00  0.00000000000E+00  0.47788128199E+01  0.47788128199E+01  0.00000000000E+00 0.  1.
         21   -1    0    0  504  502 -0.00000000000E+00 -0.00000000000E+00 -0.12750426741E+03  0.12750426741E+03  0.00000000000E+00 0.  1.
         21    1    1    2  503  502  0.31699985627E+00 -0.24445257484E+02 -0.70507569634E+02  0.74625655629E+02  0.00000000000E+00 0.  1.
         21    1    1    2  504  501 -0.31699985627E+00  0.24445257484E+02 -0.52217884960E+02  0.57657424605E+02  0.00000000000E+00 0.  1.
</event>
<event>
 4    1  0.3283867E+006  0.3032857E+02  0.7546771E-02  0.1416762E+00
         21   -1    0    0  504  501  0.00000000000E+00  0.00000000000E+00  0.16888939870E+03  0.16888939870E+03  0.00000000000E+00 0.  1.
         21   -1    0    0  503  502 -0.00000000000E+00 -0.00000000000E+00 -0.70495599577E+01  0.70495599577E+01  0.00000000000E+00 0. -1.
         21    1    1    2  503  501 -0.12186700528E+02  0.27772408766E+02  0.12287194826E+03  0.12655962242E+03  0.00000000000E+00 0.  1.
         21    1    1    2  504  502  0.12186700528E+02 -0.27772408766E+02  0.38967890483E+02  0.49379336236E+02  0.00000000000E+00 0. -1.
</event>
<event>
 4    1  0.3283867E+006  0.3975483E+02  0.7546771E-02  0.1349929E+00
         21   -1    0    0  503  501  0.00000000000E+00  0.00000000000E+00  0.73052984767E+02  0.73052984767E+02  0.00000000000E+00 0.  1.
         21   -1    0    0  504  502 -0.00000000000E+00 -0.00000000000E+00 -0.35779686978E+02  0.35779686978E+02  0.00000000000E+00 0.  1.
         21    1    1    2  503  502 -0.84866136552E+01 -0.38838432766E+02 -0.15578562252E+02  0.42698220957E+02  0.00000000000E+00 0.  1.
         21    1    1    2  504  501  0.84866136552E+01  0.38838432766E+02  0.52851860042E+02  0.66134450787E+02  0.00000000000E+00 0.  1.
</event>
<event>
 4    1  0.3283867E+006  0.2542285E+02  0.7546771E-02  0.1464128E+00
         21   -1    0    0  503  501  0.00000000000E+00  0.00000000000E+00  0.94082985483E+02  0.94082985483E+02  0.00000000000E+00 0.  1.
         21   -1    0    0  504  502 -0.00000000000E+00 -0.00000000000E+00 -0.68803309715E+01  0.68803309715E+01  0.00000000000E+00 0.  1.
         21    1    1    2  503  502  0.23691832590E+02  0.92205520317E+01  0.41616619211E+02  0.48767453346E+02  0.00000000000E+00 0.  1.
         21    1    1    2  504  501 -0.23691832590E+02 -0.92205520317E+01  0.45586035300E+02  0.52195863109E+02  0.00000000000E+00 0.  1.
</event>
<event>
 4    1  0.3283867E+006  0.2375170E+02  0.7546771E-02  0.1483269E+00
         21   -1    0    0  504  501  0.00000000000E+00  0.00000000000E+00  0.23679082533E+02  0.23679082533E+02  0.00000000000E+00 0.  1.
         21   -1    0    0  503  502 -0.00000000000E+00 -0.00000000000E+00 -0.42640991524E+03  0.42640991524E+03  0.00000000000E+00 0. -1.
         21    1    1    2  503  501  0.68884259086E+00 -0.23741708918E+02  0.17301837596E+02  0.29385316582E+02  0.00000000000E+00 0.  1.
         21    1    1    2  504  502 -0.68884259086E+00  0.23741708918E+02 -0.42003267030E+03  0.42070368119E+03  0.00000000000E+00 0. -1.
</event>
<event>
 4    1  0.3283867E+006  0.4886552E+02  0.7546771E-02  0.1303167E+00
         21   -1    0    0  503  501  0.00000000000E+00  0.00000000000E+00  0.13804352756E+02  0.13804352756E+02  0.00000000000E+00 0. -1.
         21   -1    0    0  501  502 -0.00000000000E+00 -0.00000000000E+00 -0.44259013062E+03  0.44259013062E+03  0.00000000000E+00 0. -1.
         21    1    1    2  503  504  0.64053427342E+01  0.48443895985E+02 -0.36286369257E+02  0.60864932988E+02  0.00000000000E+00 0. -1.
         21    1    1    2  504  502 -0.64053427342E+01 -0.48443895985E+02 -0.39249940861E+03  0.39552955039E+03  0.00000000000E+00 0. -1.
</event>
<event>
 4    1  0.3283867E+006  0.2386926E+02  0.7546771E-02  0.1481862E+00
         21   -1    0    0  503  501  0.00000000000E+00  0.00000000000E+00  0.26423333138E+02  0.26423333138E+02  0.00000000000E+00 0.  1.
         21   -1    0    0  504  502 -0.00000000000E+00 -0.00000000000E+00 -0.16653018994E+03  0.16653018994E+03  0.00000000000E+00 0. -1.
         21    1    1    2  503  502  0.23501914035E+02  0.41715020687E+01  0.19961077585E+02  0.31115687541E+02  0.00000000000E+00 0.  1.
         21    1    1    2  504  501 -0.23501914035E+02 -0.41715020687E+01 -0.16006793439E+03  0.16183783554E+03  0.00000000000E+00 0. -1.
</event>
<event>
 4    1  0.3283867E+006  0.2601549E+02  0.7546771E-02  0.1457756E+00
         21   -1    0    0  502  501  0.00000000000E+00  0.00000000000E+00  0.93072569497E+03  0.93072569497E+03  0.00000000000E+00 0.  1.
         21   -1    0    0  504  502 -0.00000000000E+00 -0.00000000000E+00 -0.20272102048E+01  0.20272102048E+01  0.00000000000E+00 0. -1.
         21    1    1    2  503  501  0.10713263664E+02 -0.23707205193E+02  0.83782623849E+03  0.83823004689E+03  0.00000000000E+00 0.  1.
         21    1    1    2  504  503 -0.10713263664E+02  0.23707205193E+02  0.90872246272E+02  0.94522858288E+02  0.00000000000E+00 0. -1.
</event>
<event>
 4    1  0.3283867E+006  0.2134878E+02  0.7546771E-02  0.1514343E+00
         21   -1    0    0  503  501  0.00000000000E+00  0.00000000000E+00  0.67564962828E+02  0.67564962828E+02  0.00000000000E+00 0. -1.
         21   -1    0    0  504  502 -0.00000000000E+00 -0.00000000000E+00 -0.10435781398E+02  0.10435781398E+02  0.00000000000E+00 0. -1.
         21    1    1    2  503  502 -0.11037424501E+01 -0.21320232550E+02  0.51755956888E+02  0.55986155760E+02  0.00000000000E+00 0. -1.
         21    1    1    2  504  501  0.11037424501E+01  0.21320232550E+02  0.53732245413E+01  0.22014588466E+02  0.00000000000E+00 0. -1.
</event>
<event>
 4    1  0.3283867E+006  0.2141080E+02  0.7546771E-02  0.1513480E+00
         21   -1    0    0  502  501  0.00000000000E+00  0.00000000000E+00  0.15985950429E+03  0.15985950429E+03  0.00000000000E+00 0. -1.
         21   -1    0    0  504  502 -0.00000000000E+00 -0.00000000000E+00 -0.59922513893E+01  0.59922513893E+01  0.00000000000E+00 0.  1.
         21    1    1    2  503  501  0.19337330635E+02  0.91918428792E+01  0.13681501244E+03  0.13848021505E+03  0.00000000000E+00 0. -1.
         21    1    1    2  504  503 -0.19337330635E+02 -0.91918428792E+01  0.17052240460E+02  0.27371540627E+02  0.00000000000E+00 0.  1.
</event>
<event>
 4    1  0.3283867E+006  0.2251939E+02  0.7546771E-02  0.1498623E+00
         21   -1    0    0  504  501  0.00000000000E+00  0.00000000000E+00  0.95004770546E+01  0.95004770546E+01  0.00000000000E+00 0. -1.
         21   -1    0    0  503  502 -0.00000000000E+00 -0.00000000000E+00 -0.53606084413E+02  0.53606084413E+02  0.00000000000E+00 0.  1.
         21    1    1    2  503  501 -0.15764336270E+02 -0.16081312080E+02 -0.24107935906E+02  0.32989626701E+02  0.00000000000E+00 0.  1.
         21    1    1    2  504  502  0.15764336270E+02  0.16081312080E+02 -0.19997671453E+02  0.30116934767E+02  0.00000000000E+00 0. -1.
</event>
<event>
 4    1  0.3283867E+006  0.2273982E+02  0.7546771E-02  0.1495791E+00
         21   -1    0    0  504  501  0.00000000000E+00  0.00000000000E+00  0.65222172854E+02  0.65222172854E+02  0.00000000000E+00 0.  1.
         21   -1    0    0  503  502 -0.00000000000E+00 -0.00000000000E+00 -0.13954631693E+02  0.13954631693E+02  0.00000000000E+00 0.  1.
         21    1    1    2  503  501 -0.15240516838E+02 -0.16876784095E+02  0.51649515911E+02  0.56433781450E+02  0.00000000000E+00 0.  1.
         21    1    1    2  504  502  0.15240516838E+02  0.16876784095E+02 -0.38197475016E+00  0.22743023097E+02  0.00000000000E+00 0.  1.
</event>
<event>
 4    1  0.3283867E+006  0.2337914E+02  0.7546771E-02  0.1487791E+00
         21   -1    0    0  502  501  0.00000000000E+00  0.00000000000E+00  0.10964577891E+03  0.10964577891E+03  0.00000000000E+00 0.  1.
         21   -1    0    0  504  502 -0.00000000000E+00 -0.00000000000E+00 -0.11844597168E+02  0.11844597168E+02  0.00000000000E+00 0.  1.
         21    1    1    2  503  501  0.22176244288E+02 -0.74025821785E+01  0.95128163513E+02  0.97958927756E+02  0.00000000000E+00 0.  1.
         21    1    1    2  504  503 -0.22176244288E+02  0.74025821785E+01  0.26730182279E+01  0.23531448321E+02  0.00000000000E+00 0.  1.
</event>
<event>
 4    1  0.3283867E+006  0.3102256E+02  0.7546771E-02  0.1410914E+00
         21   -1    0    0  503  501  0.00000000000E+00  0.00000000000E+00  0.10788020529E+01  0.10788020529E+01  0.00000000000E+00 0.  1.
         21   -1    0    0  504  502 -0.00000000000E+00 -0.00000000000E+00 -0.89615078847E+03  0.89615078847E+03  0.00000000000E+00 0.  1.
         21    1    1    2  503  502  0.30835958128E+02 -0.33974836129E+01 -0.41737414561E+03  0.41852547907E+03  0.00000000000E+00 0.  1.
         21    1    1    2  504  501 -0.30835958128E+02  0.33974836129E+01 -0.47769784081E+03  0.47870411145E+03  0.00000000000E+00 0.  1.
</event>
<event>
 4    1  0.3283867E+006  0.2119061E+02  0.7546771E-02  0.1516561E+00
         21   -1    0    0  502  501  0.00000000000E+00  0.00000000000E+00  0.33928819676E+02  0.33928819676E+02  0.00000000000E+00 0.  1.
         21   -1    0    0  503  502 -0.00000000000E+00 -0.00000000000E+00 -0.27659657638E+02  0.27659657638E+02  0.00000000000E+00 0. -1.
         21    1    1    2  503  504 -0.16734737854E+02 -0.12999636890E+02 -0.19103712290E+02  0.28530577169E+02  0.00000000000E+00 0. -1.
         21    1    1    2  504  501  0.16734737854E+02  0.12999636890E+02  0.25372874328E+02  0.33057900145E+02  0.00000000000E+00 0.  1.
</event>
<event>
 4    1  0.3283867E+006  0.2162449E+02  0.7546771E-02  0.1510532E+00
         21   -1    0    0  502  501  0.00000000000E+00  0.00000000000E+00  0.20466261775E+03  0.20466261775E+03  0.00000000000E+00 0.  1.
         21   -1    0    0  503  502 -0.00000000000E+00 -0.00000000000E+00 -0.78159469353E+02  0.78159469353E+02  0.00000000000E+00 0. -1.
         21    1    1    2  503  504 -0.20489846972E+02  0.69126614890E+01 -0.76077212108E+02  0.79090839671E+02  0.00000000000E+00 0. -1.
         21    1    1    2  504  501  0.20489846972E+02 -0.69126614890E+01  0.20258036050E+03  0.20373124743E+03  0.00000000000E+00 0.  1.
</event>
<event>
 4    1  0.3283867E+006  0.2739760E+02  0.7546771E-02  0.1443655E+00
         21   -1    0    0  503  501  0.00000000000E+00  0.00000000000E+00  0.12514322117E+03  0.12514322117E+03  0.00000000000E+00 0.  1.
         21   -1    0    0  504  502 -0.00000000000E+00 -0.00000000000E+00 -0.97374027577E+01  0.97374027577E+01  0.00000000000E+00 0. -1.
         21    1    1    2  503  502  0.21034353674E+02 -0.17555175764E+02  0.15911191583E+02  0.31682712135E+02  0.00000000000E+00 0. -1.
         21    1    1    2  504  501 -0.21034353674E+02  0.17555175764E+02  0.99494626831E+02  0.10319791180E+03  0.00000000000E+00 0.  1.
</event>
<event>
 4    1  0.3283867E+006  0.2019452E+02  0.7546771E-02  0.1531083E+00
         21   -1    0    0  503  501  0.00000000000E+00  0.00000000000E+00  0.15090023342E+02  0.15090023342E+02  0.00000000000E+00 0. -1.
         21   -1    0    0  504  502 -0.00000000000E+00 -0.00000000000E+00 -0.76256827417E+02  0.76256827417E+02  0.00000000000E+00 0. -1.
         21    1    1    2  503  502  0.16810852587E+02 -0.11189899748E+02  0.61147382166E+01  0.21099967880E+02  0.00000000000E+00 0. -1.
         21    1    1    2  504  501 -0.16810852587E+02  0.11189899748E+02 -0.67281542292E+02  0.70246882879E+02  0.00000000000E+00 0. -1.
</event>
<event>
 4    1  0.3283867E+006  0.2657393E+02  0.7546771E-02  0.1451936E+00
         21   -1    0    0  503  501  0.00000000000E+00  0.00000000000E+00  0.94574095756E+02  0.94574095756E+02  0.00000000000E+00 0.  1.
         21   -1    0    0  504  502 -0.00000000000E+00 -0.00000000000E+00 -0.34211246005E+02  0.34211246005E+02  0.00000000000E+00 0.  1.
         21    1    1    2  503  502 -0.21846050707E+02 -0.15130227399E+02  0.87114956206E+02  0.91077929859E+02  0.00000000000E+00 0.  1.
         21    1    1    2  504  501  0.21846050707E+02  0.15130227399E+02 -0.26752106454E+02  0.37707411902E+02  0.00000000000E+00 0.  1.
</event>
<event>
 4    1  0.3283867E+006  0.2052542E+02  0.7546771E-02  0.1526150E+00
         21   -1    0    0  503  501  0.00000000000E+00  0.00000000000E+00  0.65544061669E+02  0.65544061669E+02  0.00000000000E+00 0. -1.
         21   -1    0    0  504  502 -0.00000000000E+00 -0.00000000000E+00 -0.87442258600E+01  0.87442258600E+01  0.00000000000E+00 0.  1.
         21    1    1    2  503  502  0.11497628299E+02 -0.17002864418E+02  0.47518469212E+02  0.51761933611E+02  0.00000000000E+00 0. -1.
         21    1    1    2  504  501 -0.11497628299E+02  0.17002864418E+02  0.92813665967E+01  0.22526353918E+02  0.00000000000E+00 0.  1.
</event>
<event>
 4    1  0.3283867E+006  0.2270808E+02  0.7546771E-02  0.1496197E+00
         21   -1    0    0  503  501  0.00000000000E+00  0.00000000000E+00  0.90080230029E+01  0.90080230029E+01  0.00000000000E+00 0.  1.
         21   -1    0    0  501  502 -0.00000000000E+00 -0.00000000000E+00 -0.75891519633E+02  0.75891519633E+02  0.00000000000E+00 0.  1.
         21    1    1    2  503  504  0.47896160122E+01  0.22197213716E+02 -0.12399730056E+02  0.25872959316E+02  0.00000000000E+00 0.  1.
         21    1    1    2  504  502 -0.47896160122E+01 -0.22197213716E+02 -0.54483766574E+02  0.59026583319E+02  0.00000000000E+00 0.  1.
</event>
<event>
 4    1  0.3283867E+006  0.2095372E+02  0.7546771E-02  0.1519927E+00
         21   -1    0    0  502  501  0.00000000000E+00  0.00000000000E+00  0.29097648701E+03  0.29097648701E+03  0.00000000000E+00 0. -1.
         21   -1    0    0  503  502 -0.00000000000E+00 -0.00000000000E+00 -0.21113318888E+02  0.21113318888E+02  0.00000000000E+00 0.  1.
         21    1    1    2  503  504 -0.13941434201E+02 -0.15642720088E+02 -0.15433905894E+02  0.26024291162E+02  0.00000000000E+00 0.  1.
         21    1    1    2  504  501  0.13941434201E+02  0.15642720088E+02  0.28529707402E+03  0.28606551474E+03  0.00000000000E+00 0. -1.
</event>
<event>
 4    1  0.3283867E+006  0.4276206E+02  0.7546771E-02  0.1333018E+00
         21   -1    0    0  504  501  0.00000000000E+00  0.00000000000E+00  0.18352503072E+02  0.18352503072E+02  0.00000000000E+00 0.  1.
         21   -1    0    0  503  502 -0.00000000000E+00 -0.00000000000E+00 -0.99923608310E+02  0.99923608310E+02  0.00000000000E+00 0. -1.
         21    1    1    2  503  501 -0.39298498881E+02 -0.16858876952E+02 -0.43951140883E+02  0.61321256766E+02  0.00000000000E+00 0. -1.
         21    1    1    2  504  502  0.39298498881E+02  0.16858876952E+02 -0.37619964354E+02  0.56954854616E+02  0.00000000000E+00 0.  1.
</event>
<event>
 4    1  0.3283867E+006  0.3027420E+02  0.7546771E-02  0.1417228E+00
         21   -1    0    0  502  501  0.00000000000E+00  0.00000000000E+00  0.28468229822E+02  0.28468229822E+02  0.00000000000E+00 0.  1.
         21   -1    0    0  504  502 -0.00000000000E+00 -0.00000000000E+00 -0.32224784219E+02  0.32224784219E+02  0.00000000000E+00 0.  1.
         21    1    1    2  503  501 -0.12190568094E+02 -0.27711319629E+02 -0.28049198238E+01  0.30403860960E+02  0.00000000000E+00 0.  1.
         21    1    1    2  504  503  0.12190568094E+02  0.27711319629E+02 -0.95163457389E+00  0.30289153082E+02  0.00000000000E+00 0.  1.
</event>
<event>
 4    1  0.3283867E+006  0.2182271E+02  0.7546771E-02  0.1507835E+00
         21   -1    0    0  503  501  0.00000000000E+00  0.00000000000E+00  0.71040811107E+02  0.71040811107E+02  0.00000000000E+00 0. -1.
         21   -1    0    0  501  502 -0.00000000000E+00 -0.00000000000E+00 -0.70517390822E+01  0.70517390822E+01  0.00000000000E+00 0.  1.
         21    1    1    2  503  504  0.20725712792E+02  0.68319498567E+01  0.40670035010E+02  0.46154983017E+02  0.00000000000E+00 0.  1.
         21    1    1    2  504  502 -0.20725712792E+02 -0.68319498567E+01  0.23319037015E+02  0.31937567173E+02  0.00000000000E+00 0. -1.
</event>
<event>
 4    1  0.3283867E+006  0.2407497E+02  0.7546771E-02  0.1479424E+00
         21   -1    0    0  502  501  0.00000000000E+00  0.00000000000E+00  0.11365434040E+03  0.11365434040E+03  0.00000000000E+00 0.  1.
         21   -1    0    0  503  502 -0.00000000000E+00 -0.00000000000E+00 -0.15762099379E+03  0.15762099379E+03  0.00000000000E+00 0.  1.
         21    1    1    2  503  504  0.15535823953E+02  0.18391365417E+02 -0.15540872479E+03  0.15726244271E+03  0.00000000000E+00 0.  1.
         21    1    1    2  504  501 -0.15535823953E+02 -0.18391365417E+02  0.11144207139E+03  0.11401289148E+03  0.00000000000E+00 0.  1.
</event>
<event>
 4    1  0.3283867E+006  0.2125480E+02  0.7546771E-02  0.1515658E+00
         21   -1    0    0  504  501  0.00000000000E+00  0.00000000000E+00  0.20149815485E+02  0.20149815485E+02  0.00000000000E+00 0.  1.
         21   -1    0    0  503  502 -0.00000000000E+00 -0.00000000000E+00 -0.11818429196E+03  0.11818429196E+03  0.00000000000E+00 0. -1.
         21    1    1    2  503  501 -0.20180462597E+02 -0.66719802807E+01 -0.11127884893E+03  0.11329054952E+03  0.00000000000E+00 0. -1.
         21    1    1    2  504  502  0.20180462597E+02  0.66719802807E+01  0.13244372458E+02  0.25043557921E+02  0.00000000000E+00 0.  1.
</event>
<event>
 4    1  0.3283867E+006  0.2602163E+02  0.7546771E-02  0.1457691E+00
         21   -1    0    0  504  501  0.00000000000E+00  0.00000000000E+00  0.90954338397E+02  0.90954338397E+02  0.00000000000E+00 0.  1.
         21   -1    0    0  501  502 -0.00000000000E+00 -0.00000000000E+00 -0.13647221866E+02  0.13647221866E+02  0.00000000000E+00 0.  1.
         21    1    1    2  503  502  0.41055608972E+00 -0.26018390554E+02  0.33944618674E+01  0.26242095470E+02  0.00000000000E+00 0.  1.
         21    1    1    2  504  503 -0.41055608972E+00  0.26018390554E+02  0.73912654664E+02  0.78359464793E+02  0.00000000000E+00 0.  1.
</event>
<event>
 4    1  0.3283867E+006  0.2586500E+02  0.7546771E-02  0.1459355E+00
         21   -1    0    0  504  501  0.00000000000E+00  0.00000000000E+00  0.21515795490E+03  0.21515795490E+03  0.00000000000E+00 0.  1.
         21   -1    0    0  503  502 -0.00000000000E+00 -0.00000000000E+00 -0.63012030899E+01  0.63012030899E+01  0.00000000000E+00 0.  1.
         21    1    1    2  503  501  0.20093613680E+02  0.16286342302E+02  0.18323710919E+03  0.18505360423E+03  0.00000000000E+00 0.  1.
         21    1    1    2  504  502 -0.20093613680E+02 -0.16286342302E+02  0.25619642625E+02  0.36405553760E+02  0.00000000000E+00 0.  1.
</event>
<event>
 4    1  0.3283867E+006  0.2426241E+02  0.7546771E-02  0.1477227E+00
         21   -1    0    0  502  501  0.00000000000E+00  0.00000000000E+00  0.26908874766E+02  0.26908874766E+02  0.00000000000E+00 0. -1.
         21   -1    0    0  503  502 -0.00000000000E+00 -0.00000000000E+00 -0.39088479781E+02  0.39088479781E+02  0.00000000000E+00 0. -1.
         21    1    1    2  503  504  0.13923516729E+01 -0.24222428492E+02 -0.27987123476E+02  0.37039759255E+02  0.00000000000E+00 0. -1.
         21    1    1    2  504  501 -0.13923516729E+01  0.24222428492E+02  0.15807518461E+02  0.28957595292E+02  0.00000000000E+00 0. -1.
</event>
<event>
 4    1  0.3283867E+006  0.3378273E+02  0.7546771E-02  0.1389329E+00
         21   -1    0    0  504  501  0.00000000000E+00  0.00000000000E+00  0.14633934800E+03  0.14633934800E+03  0.00000000000E+00 0. -1.
         21   -1    0    0  503  502 -0.00000000000E+00 -0.00000000000E+00 -0.10909433439E+02  0.10909433439E+02  0.00000000000E+00 0.  1.
         21    1    1    2  503  501 -0.32833030859E+02  0.79539467339E+01  0.25731353243E+02  0.42466171523E+02  0.00000000000E+00 0.  1.
         21    1    1    2  504  502  0.32833030859E+02 -0.79539467339E+01  0.10969856132E+03  0.11478260992E+03  0.00000000000E+00 0. -1.
</event>
<event>
 4    1  0.3283867E+006  0.2657275E+02  0.7546771E-02  0.1451948E+00
         21   -1    0    0  504  501  0.00000000000E+00  0.00000000000E+00  0.91471562783E+02  0.91471562783E+02  0.00000000000E+00 0.  1.
         21   -1    0    0  501  502 -0.00000000000E+00 -0.00000000000E+00 -0.23436657032E+02  0.23436657032E+02  0.00000000000E+00 0.  1.
         21    1    1    2  503  502 -0.11739244524E+01  0.26546808933E+02 -0.13032674470E+02  0.29596651280E+02  0.00000000000E+00 0.  1.
         21    1    1    2  504  503  0.11739244524E+01 -0.26546808933E+02  0.81067580221E+02  0.85311568535E+02  0.00000000000E+00 0.  1.
</event>
<event>
 4    1  0.3283867E+006  0.2076581E+02  0.7546771E-02  0.1522635E+00
         21   -1    0    0  504  501  0.00000000000E+00  0.00000000000E+00  0.31335082998E+02  0.31335082998E+02  0.00000000000E+00 0. -1.
         21   -1    0    0  503  502 -0.00000000000E+00 -0.00000000000E+00 -0.27328037649E+02  0.27328037649E+02  0.00000000000E+00 0. -1.
         21    1    1    2  503  501 -0.18118685282E+02 -0.10145543290E+02  0.22669926592E+02  0.30743200495E+02  0.00000000000E+00 0. -1.
         21    1    1    2  504  502  0.18118685282E+02  0.10145543290E+02 -0.18662881242E+02  0.27919920152E+02  0.00000000000E+00 0. -1.
</event>
<event>
 4    1  0.3283867E+006  0.2151520E+02  0.7546771E-02  0.1512035E+00
         21   -1    0    0  503  501  0.00000000000E+00  0.00000000000E+00  0.47042061248E+02  0.47042061248E+02  0.00000000000E+00 0. -1.
         21   -1    0    0  504  502 -0.00000000000E+00 -0.00000000000E+00 -0.15212173686E+02  0.15212173686E+02  0.00000000000E+00 0. -1.
         21    1    1    2  503  502  0.15401683261E+02  0.15023054481E+02 -0.25824092263E+01  0.21669629683E+02  0.00000000000E+00 0. -1.
         21    1    1    2  504  501 -0.15401683261E+02 -0.15023054481E+02  0.34412296788E+02  0.40584605252E+02  0.00000000000E+00 0. -1.
</event>
<event>
 4    1  0.3283867E+006  0.2795468E+02  0.7546771E-02  0.1438247E+00
         21   -1    0    0  504  501  0.00000000000E+00  0.00000000000E+00  0.61658043348E+01  0.61658043348E+01  0.00000000000E+00 0.  1.
         21   -1    0    0  503  502 -0.00000000000E+00 -0.00000000000E+00 -0.12756646156E+03  0.12756646156E+03  0.00000000000E+00 0.  1.
         21    1    1    2  503  501  0.12459788689E+02 -0.25024345418E+02 -0.66077031712E+02  0.71747043965E+02  0.00000000000E+00 0.  1.
         21    1    1    2  504  502 -0.12459788689E+02  0.25024345418E+02 -0.55323625508E+02  0.61985221926E+02  0.00000000000E+00 0.  1.
</event>
<event>
 4    1  0.3283867E+006  0.4483640E+02  0.7546771E-02  0.1322260E+00
         21   -1    0    0  502  501  0.00000000000E+00  0.00000000000E+00  0.19221308742E+02  0.19221308742E+02  0.00000000000E+00 0.  1.
         21   -1    0    0  504  502 -0.00000000000E+00 -0.00000000000E+00 -0.13938550637E+04  0.13938550637E+04  0.00000000000E+00 0.  1.
         21    1    1    2  503  501  0.43052864139E+01 -0.44629218655E+02 -0.78028739387E+01  0.45510300928E+02  0.00000000000E+00 0.  1.
         21    1    1    2  504  503 -0.43052864139E+01  0.44629218655E+02 -0.13668308811E+04  0.13675660716E+04  0.00000000000E+00 0.  1.
</event>
<event>
 4    1  0.3283867E+006  0.3481377E+02  0.7546771E-02  0.1381877E+00
         21   -1    0    0  502  501  0.00000000000E+00  0.00000000000E+00  0.12860893301E+03  0.12860893301E+03  0.00000000000E+00 0.  1.
         21   -1    0    0  504  502 -0.00000000000E+00 -0.00000000000E+00 -0.14732143139E+02  0.14732143139E+02  0.00000000000E+00 0.  1.
         21    1    1    2  503  501  0.34782171921E+02 -0.14828832464E+01  0.99959630603E+02  0.10584860026E+03  0.00000000000E+00 0.  1.
         21    1    1    2  504  503 -0.34782171921E+02  0.14828832464E+01  0.13917159265E+02  0.37492475889E+02  0.00000000000E+00 0.  1.
</event>
<event>
 4    1  0.3283867E+006  0.2598045E+02  0.7546771E-02  0.1458127E+00
         21   -1    0    0  504  501  0.00000000000E+00  0.00000000000E+00  0.79170016307E+01  0.79170016307E+01  0.00000000000E+00 0.  1.
         21   -1    0    0  503  502 -0.00000000000E+00 -0.00000000000E+00 -0.87693973476E+02  0.87693973476E+02  0.00000000000E+00 0.  1.
         21    1    1    2  503  501 -0.21785409315E+02  0.14155559464E+02 -0.47856901262E+02  0.54454264490E+02  0.00000000000E+00 0.  1.
         21    1    1    2  504  502  0.21785409315E+02 -0.14155559464E+02 -0.31920070583E+02  0.41156710617E+02  0.00000000000E+00 0.  1.
</event>
<event>
 4    1  0.3283867E+006  0.2370764E+02  0.7546771E-02  0.1483798E+00
         21   -1    0    0  503  501  0.00000000000E+00  0.00000000000E+00  0.20464308277E+02  0.20464308277E+02  0.00000000000E+00 0. -1.
         21   -1    0    0  504  502 -0.00000000000E+00 -0.00000000000E+00 -0.28360390609E+02  0.28360390609E+02  0.00000000000E+00 0. -1.
         21    1    1    2  503  502 -0.61719313915E+01  0.22890156230E+02 -0.82857715661E+01  0.25113860710E+02  0.00000000000E+00 0. -1.
         21    1    1    2  504  501  0.61719313915E+01 -0.22890156230E+02  0.38968923466E+00  0.23710838176E+02  0.00000000000E+00 0. -1.
</event>
<event>
 4    1  0.3283867E+006  0.2507572E+02  0.7546771E-02  0.1467958E+00
         21   -1    0    0  504  501  0.00000000000E+00  0.00000000000E+00  0.71107218631E+01  0.71107218631E+01  0.00000000000E+00 0. -1.
         21   -1    0    0  501  502 -0.00000000000E+00 -0.00000000000E+00 -0.76050472358E+03  0.76050472358E+03  0.00000000000E+00 0. -1.
         21    1    1    2  503  502  0.21890720007E+02 -0.12230617410E+02 -0.73750151649E+03  0.73792769188E+03  0.00000000000E+00 0. -1.
         21    1    1    2  504  503 -0.21890720007E+02  0.12230617410E+02 -0.15892485226E+02  0.29687753558E+02  0.00000000000E+00 0. -1.
</event>
<event>
 4    1  0.3283867E+006  0.2330250E+02  0.7546771E-02  0.1488734E+00
         21   -1    0    0  503  501  0.00000000000E+00  0.00000000000E+00  0.21471313402E+03  0.21471313402E+03  0.00000000000E+00 0. -1.
         21   -1    0    0  504  502 -0.00000000000E+00 -0.00000000000E+00 -0.25649089006E+01  0.25649089006E+01  0.00000000000E+00 0. -1.
         21    1    1    2  503  502 -0.23296556631E+02  0.52621180021E+00  0.93217182910E+02  0.96085637008E+02  0.00000000000E+00 0. -1.
         21    1    1    2  504  501  0.23296556631E+02 -0.52621180021E+00  0.11893104221E+03  0.12119240592E+03  0.00000000000E+00 0. -1.
</event>
<event>
 4    1  0.3283867E+006  0.2716810E+02  0.7546771E-02  0.1445927E+00
         21   -1    0    0  502  501  0.00000000000E+00  0.00000000000E+00  0.85532681025E+03  0.85532681025E+03  0.00000000000E+00 0. -1.
         21   -1    0    0  504  502 -0.00000000000E+00 -0.00000000000E+00 -0.80223780620E+02  0.80223780620E+02  0.00000000000E+00 0. -1.
         21    1    1    2  503  501  0.21476726757E+02  0.16638992227E+02  0.85280412323E+03  0.85323676577E+03  0.00000000000E+00 0. -1.
         21    1    1    2  504  503 -0.21476726757E+02 -0.16638992227E+02 -0.77701093607E+02  0.82313825098E+02  0.00000000000E+00 0. -1.
</event>
<event>
 4    1  0.3283867E+006  0.2221886E+02  0.7546771E-02  0.1502547E+00
         21   -1    0    0  503  501  0.00000000000E+00  0.00000000000E+00  0.13803986760E+03  0.13803986760E+03  0.00000000000E+00 0. -1.
         21   -1    0    0  504  502 -0.00000000000E+00 -0.00000000000E+00 -0.23374953145E+02  0.23374953145E+02  0.00000000000E+00 0.  1.
         21    1    1    2  503  502 -0.27824379761E+01  0.22043948380E+02 -0.16944723846E+02  0.27942821752E+02  0.00000000000E+00 0.  1.
         21    1    1    2  504  501  0.27824379761E+01 -0.22043948380E+02  0.13160963830E+03  0.13347199899E+03  0.00000000000E+00 0. -1.
</event>
<event>
 4    1  0.3283867E+006  0.2909666E+02  0.7546771E-02  0.1427612E+00
         21   -1    0    0  502  501  0.00000000000E+00  0.00000000000E+00  0.35002890062E+03  0.35002890062E+03  0.00000000000E+00 0.  1.
         21   -1    0    0  504  502 -0.00000000000E+00 -0.00000000000E+00 -0.43012601322E+01  0.43012601322E+01  0.00000000000E+00 0.  1.
         21    1    1    2  503  501 -0.13783160837E+02  0.25624995063E+02  0.29007104228E+03  0.29152671484E+03  0.00000000000E+00 0.  1.
         21    1    1    2  504  503  0.13783160837E+02 -0.25624995063E+02  0.55656598206E+02  0.62803445912E+02  0.00000000000E+00 0.  1.
</event>
<event>
 4    1  0.3283867E+006  0.2424436E+02  0.7546771E-02  0.1477437E+00
         21   -1    0    0  504  501  0.00000000000E+00  0.00000000000E+00  0.16245250121E+01  0.16245250121E+01  0.00000000000E+00 0. -1.
         21   -1    0    0  503  502 -0.00000000000E+00 -0.00000000000E+00 -0.39231603499E+03  0.39231603499E+03  0.00000000000E+00 0. -1.
         21    1    1    2  503  501 -0.17864069797E+02 -0.16390978992E+02 -0.14043102722E+03  0.14250846497E+03  0.00000000000E+00 0. -1.
         21    1    1    2  504  502  0.17864069797E+02  0.16390978992E+02 -0.25026048276E+03  0.25143209503E+03  0.00000000000E+00 0. -1.
</event>
<event>
 4    1  0.3283867E+006  0.3804150E+02  0.7546771E-02  0.1360361E+00
         21   -1    0    0  503  501  0.00000000000E+00  0.00000000000E+00  0.18362864378E+03  0.18362864378E+03  0.00000000000E+00 0.  1.
         21   -1    0    0  504  502 -0.00000000000E+00 -0.00000000000E+00 -0.78868013692E+01  0.78868013692E+01  0.00000000000E+00 0.  1.
         21    1    1    2  503  502  0.37534479742E+02 -0.61901803817E+01  0.85247335824E+02  0.93350221038E+02  0.00000000000E+00 0.  1.
         21    1    1    2  504  501 -0.37534479742E+02  0.61901803817E+01  0.90494506590E+02  0.98165224116E+02  0.00000000000E+00 0.  1.
</event>
<event>
 4    1  0.3283867E+006  0.2667039E+02  0.7546771E-02  0.1450947E+00
         21   -1    0    0  503  501  0.00000000000E+00  0.00000000000E+00  0.23442703392E+01  0.23442703392E+01  0.00000000000E+00 0. -1.
         21   -1    0    0  504  502 -0.00000000000E+00 -0.00000000000E+00 -0.30345167593E+03  0.30345167593E+03  0.00000000000E+00 0. -1.
         21    1    1    2  503  502 -0.26295049363E+02  0.44587182790E+01 -0.14911512824E+03  0.15148145517E+03  0.00000000000E+00 0. -1.
         21    1    1    2  504  501  0.26295049363E+02 -0.44587182790E+01 -0.15199227735E+03  0.15431449110E+03  0.00000000000E+00 0. -1.
</event>
<event>
 4    1  0.3283867E+006  0.2158637E+02  0.7546771E-02  0.1511055E+00
         21   -1    0    0  504  501  0.00000000000E+00  0.00000000000E+00  0.49363662404E+03  0.49363662404E+03  0.00000000000E+00 0.  1.
         21   -1    0    0  501  502 -0.00000000000E+00 -0.00000000000E+00 -0.12337559152E+01  0.12337559152E+01  0.00000000000E+00 0. -1.
         21    1    1    2  503  502  0.54088999253E+01  0.20897732966E+02  0.12628031248E+03  0.12811201646E+03  0.00000000000E+00 0. -1.
         21    1    1    2  504  503 -0.54088999253E+01 -0.20897732966E+02  0.36612255564E+03  0.36675836349E+03  0.00000000000E+00 0.  1.
</event>
<event>
 4    1  0.3283867E+006  0.2144721E+02  0.7546771E-02  0.1512975E+00
         21   -1    0    0  502  501  0.00000000000E+00  0.00000000000E+00  0.15299325644E+02  0.15299325644E+02  0.00000000000E+00 0.  1.
         21   -1    0    0  503  502 -0.00000000000E+00 -0.00000000000E+00 -0.13147757615E+03  0.13147757615E+03  0.00000000000E+00 0.  1.
         21    1    1    2  503  504 -0.17697942617E+02 -0.12114693986E+02 -0.12254263300E+03  0.12440530490E+03  0.00000000000E+00 0.  1.
         21    1    1    2  504  501  0.17697942617E+02  0.12114693986E+02  0.63643824957E+01  0.22371596899E+02  0.00000000000E+00 0.  1.
</event>
<event>
 4    1  0.3283867E+006  0.3734117E+02  0.7546771E-02  0.1364813E+00
         21   -1    0    0  504  501  0.00000000000E+00  0.00000000000E+00  0.26224368411E+02  0.26224368411E+02  0.00000000000E+00 0. -1.
         21   -1    0    0  503  502 -0.00000000000E+00 -0.00000000000E+00 -0.98484997576E+02  0.98484997576E+02  0.00000000000E+00 0. -1.
         21    1    1    2  503  501 -0.36670542699E+02  0.70451807449E+01  0.61660003248E+01  0.37846833864E+02  0.00000000000E+00 0. -1.
         21    1    1    2  504  502  0.36670542699E+02 -0.70451807449E+01 -0.78426629490E+02  0.86862532123E+02  0.00000000000E+00 0. -1.
</event>
<event>
 4    1  0.3283867E+006  0.2291872E+02  0.7546771E-02  0.1493521E+00
         21   -1    0    0  504  501  0.00000000000E+00  0.00000000000E+00  0.35599094959E+02  0.35599094959E+02  0.00000000000E+00 0.  1.
         21   -1    0    0  501  502 -0.00000000000E+00 -0.00000000000E+00 -0.68109019618E+02  0.68109019618E+02  0.00000000000E+00 0. -1.
         21    1    1    2  503  502 -0.22890508221E+02 -0.11368770337E+01 -0.62149778407E+02  0.66240945133E+02  0.00000000000E+00 0. -1.
         21    1    1    2  504  503  0.22890508221E+02  0.11368770337E+01  0.29639853748E+02  0.37467169444E+02  0.00000000000E+00 0.  1.
</event>
<event>
 4    1  0.3283867E+006  0.3237376E+02  0.7546771E-02  0.1400030E+00
         21   -1    0    0  504  501  0.00000000000E+00  0.00000000000E+00  0.32355435101E+03  0.32355435101E+03  0.00000000000E+00 0. -1.
         21   -1    0    0  503  502 -0.00000000000E+00 -0.00000000000E+00 -0.33192998997E+01  0.33192998997E+01  0.00000000000E+00 0. -1.
         21    1    1    2  503  501  0.59836898987E+01  0.31815971625E+02  0.18550471708E+03  0.18830841897E+03  0.00000000000E+00 0. -1.
         21    1    1    2  504  502 -0.59836898987E+01 -0.31815971625E+02  0.13473033404E+03  0.13856523195E+03  0.00000000000E+00 0. -1.
</event>
<event>
 4    1  0.3283867E+006  0.2927519E+02  0.7546771E-02  0.1426001E+00
         21   -1    0    0  504  501  0.00000000000E+00  0.00000000000E+00  0.54256155843E+02  0.54256155843E+02  0.00000000000E+00 0. -1.
         21   -1    0    0  503  502 -0.00000000000E+00 -0.00000000000E+00 -0.41942410704E+02  0.41942410704E+02  0.00000000000E+00 0. -1.
         21    1    1    2  503  501  0.22992269623E+02 -0.18121597733E+02  0.44133548680E+02  0.52960427546E+02  0.00000000000E+00 0. -1.
         21    1    1    2  504  502 -0.22992269623E+02  0.18121597733E+02 -0.31819803541E+02  0.43238139000E+02  0.00000000000E+00 0. -1.
</event>
<event>
 4    1  0.3283867E+006  0.2470723E+02  0.7546771E-02  0.1472105E+00
         21   -1    0    0  503  501  0.00000000000E+00  0.00000000000E+00  0.44628109964E+03  0.44628109964E+03  0.00000000000E+00 0. -1.
         21   -1    0    0  501  502 -0.00000000000E+00 -0.00000000000E+00 -0.33077848734E+03  0.33077848734E+03  0.00000000000E+00 0. -1.
         21    1    1    2  503  504  0.31375907533E+01  0.24507199979E+02  0.44547693225E+03  0.44616156771E+03  0.00000000000E+00 0. -1.
         21    1    1    2  504  502 -0.31375907533E+01 -0.24507199979E+02 -0.32997431996E+03  0.33089801928E+03  0.00000000000E+00 0. -1.
</event>
<event>
 4    1  0.3283867E+006  0.2095854E+02  0.7546771E-02  0.1519857E+00
         21   -1    0    0  503  501  0.00000000000E+00  0.00000000000E+00  0.87405453972E+01  0.87405453972E+01  0.00000000000E+00 0. -1.
         21   -1    0    0  504  502 -0.00000000000E+00 -0.00000000000E+00 -0.51012001924E+02  0.51012001924E+02  0.00000000000E+00 0. -1.
         21    1    1    2  503  502 -0.10684037594E+02  0.18030860139E+02 -0.24773974290E+02  0.32450121399E+02  0.00000000000E+00 0. -1.
         21    1    1    2  504  501  0.10684037594E+02 -0.18030860139E+02 -0.17497482237E+02  0.27302425923E+02  0.00000000000E+00 0. -1.
</event>
<event>
 4    1  0.3283867E+006  0.2946036E+02  0.7546771E-02  0.1424345E+00
         21   -1    0    0  504  501  0.00000000000E+00  0.00000000000E+00  0.96120194737E+03  0.96120194737E+03  0.00000000000E+00 0.  1.
         21   -1    0    0  503  502 -0.00000000000E+00 -0.00000000000E+00 -0.13050447271E+02  0.13050447271E+02  0.00000000000E+00 0. -1.
         21    1    1    2  503  501  0.25354830134E+02 -0.15001514708E+02  0.94404806555E+03  0.94450762990E+03  0.00000000000E+00 0.  1.
         21    1    1    2  504  502 -0.25354830134E+02  0.15001514708E+02  0.41034345445E+01  0.29744764745E+02  0.00000000000E+00 0. -1.
</event>
<event>
 4    1  0.3283867E+006  0.2053766E+02  0.7546771E-02  0.1525969E+00
         21   -1    0    0  503  501  0.00000000000E+00  0.00000000000E+00  0.29951397093E+03  0.29951397093E+03  0.00000000000E+00 0.  1.
         21   -1    0    0  504  502 -0.00000000000E+00 -0.00000000000E+00 -0.39521561407E+01  0.39521561407E+01  0.00000000000E+00 0.  1.
         21    1    1    2  503  502  0.16015444487E+02  0.12856950690E+02  0.26046801729E+02  0.33169738067E+02  0.00000000000E+00 0.  1.
         21    1    1    2  504  501 -0.16015444487E+02 -0.12856950690E+02  0.26951501306E+03  0.27029638900E+03  0.00000000000E+00 0.  1.
</event>
<event>
 4    1  0.3283867E+006  0.2751101E+02  0.7546771E-02  0.1442541E+00
         21   -1    0    0  504  501  0.00000000000E+00  0.00000000000E+00  0.22881856043E+02  0.22881856043E+02  0.00000000000E+00 0. -1.
         21   -1    0    0  503  502 -0.00000000000E+00 -0.00000000000E+00 -0.74823353041E+02  0.74823353041E+02  0.00000000000E+00 0.  1.
         21    1    1    2  503  501 -0.26835777464E+02 -0.60578010839E+01 -0.62461268957E+02  0.68251491015E+02  0.00000000000E+00 0.  1.
         21    1    1    2  504  502  0.26835777464E+02  0.60578010839E+01  0.10519771958E+02  0.29453718069E+02  0.00000000000E+00 0. -1.
</event>
<event>
 4    1  0.3283867E+006  0.2105467E+02  0.7546771E-02  0.1518486E+00
         21   -1    0    0  503  501  0.00000000000E+00  0.00000000000E+00  0.10318106627E+04  0.10318106627E+04  0.00000000000E+00 0.  1.
         21   -1    0    0  504  502 -0.00000000000E+00 -0.00000000000E+00 -0.44516855817E+00  0.44516855817E+00  0.00000000000E+00 0.  1.
         21    1    1    2  503  502 -0.15067469142E+02  0.14706142684E+02  0.61210279952E+03  0.61246480425E+03  0.00000000000E+00 0.  1.
         21    1    1    2  504  501  0.15067469142E+02 -0.14706142684E+02  0.41926269461E+03  0.41979102700E+03  0.00000000000E+00 0.  1.
</event>
<event>
 4    1  0.3283867E+006  0.2134520E+02  0.7546771E-02  0.1514393E+00
         21   -1    0    0  504  501  0.00000000000E+00  0.00000000000E+00  0.51196237600E+02  0.51196237600E+02  0.00000000000E+00 0.  1.
         21   -1    0    0  503  502 -0.00000000000E+00 -0.00000000000E+00 -0.98275109905E+01  0.98275109905E+01  0.00000000000E+00 0. -1.
         21    1    1    2  503  501 -0.20334443115E+02  0.64905927609E+01  0.11307882248E+02  0.24155446014E+02  0.00000000000E+00 0. -1.
         21    1    1    2  504  502  0.20334443115E+02 -0.64905927609E+01  0.30060844362E+02  0.36868302577E+02  0.00000000000E+00 0.  1.
</event>
<event>
 4    1  0.3283867E+006  0.2278714E+02  0.7546771E-02  0.1495188E+00
         21   -1    0    0  503  501  0.00000000000E+00  0.00000000000E+00  0.43735654322E+02  0.43735654322E+02  0.00000000000E+00 0.  1.
         21   -1    0    0  501  502 -0.00000000000E+00 -0.00000000000E+00 -0.17245550800E+03  0.17245550800E+03  0.00000000000E+00 0. -1.
         21    1    1    2  503  504  0.21232504690E+02 -0.82725156421E+01  0.39948436675E+02  0.45990557327E+02  0.00000000000E+00 0.  1.
         21    1    1    2  504  502 -0.21232504690E+02  0.82725156421E+01 -0.16866829035E+03  0.17020060499E+03  0.00000000000E+00 0. -1.
</event>
<event>
 4    1  0.3283867E+006  0.2335788E+02  0.7546771E-02  0.1488052E+00
         21   -1    0    0  504  501  0.00000000000E+00  0.00000000000E+00  0.15132468736E+03  0.15132468736E+03  0.00000000000E+00 0. -1.
         21   -1    0    0  503  502 -0.00000000000E+00 -0.00000000000E+00 -0.48125613551E+01  0.48125613551E+01  0.00000000000E+00 0. -1.
         21    1    1    2  503  501 -0.16890018924E+02  0.16134374829E+02  0.34157086622E+02  0.41379914897E+02  0.00000000000E+00 0. -1.
         21    1    1    2  504  502  0.16890018924E+02 -0.16134374829E+02  0.11235503938E+03  0.11475733381E+03  0.00000000000E+00 0. -1.
</event>
<event>
 4    1  0.3283867E+006  0.4483994E+02  0.7546771E-02  0.1322242E+00
         21   -1    0    0  503  501  0.00000000000E+00  0.00000000000E+00  0.79293790036E+02  0.79293790036E+02  0.00000000000E+00 0. -1.
         21   -1    0    0  504  502 -0.00000000000E+00 -0.00000000000E+00 -0.40478128962E+02  0.40478128962E+02  0.00000000000E+00 0. -1.
         21    1    1    2  503  502  0.23153565107E+01  0.44780118706E+02  0.56010506151E+02  0.71748147756E+02  0.00000000000E+00 0. -1.
         21    1    1    2  504  501 -0.23153565107E+01 -0.44780118706E+02 -0.17194845077E+02  0.48023771242E+02  0.00000000000E+00 0. -1.
</event>
<event>
 4    1  0.3283867E+006  0.2332388E+02  0.7546771E-02  0.1488471E+00
         21   -1    0    0  503  501  0.00000000000E+00  0.00000000000E+00  0.20619519562E+03  0.20619519562E+03  0.00000000000E+00 0. -1.
         21   -1    0    0  504  502 -0.00000000000E+00 -0.00000000000E+00 -0.34644761166E+03  0.34644761166E+03  0.00000000000E+00 0. -1.
         21    1    1    2  503  502 -0.10506014760E+02 -0.20823710341E+02 -0.34539346968E+03  0.34618008631E+03  0.00000000000E+00 0. -1.
         21    1    1    2  504  501  0.10506014760E+02  0.20823710341E+02  0.20514105365E+03  0.20646272097E+03  0.00000000000E+00 0. -1.
</event>
<event>
 4    1  0.3283867E+006  0.2158550E+02  0.7546771E-02  0.1511067E+00
         21   -1    0    0  502  501  0.00000000000E+00  0.00000000000E+00  0.23769954287E+03  0.23769954287E+03  0.00000000000E+00 0.  1.
         21   -1    0    0  503  502 -0.00000000000E+00 -0.00000000000E+00 -0.20469937650E+01  0.20469937650E+01  0.00000000000E+00 0.  1.
         21    1    1    2  503  504  0.11440771278E+02  0.18304165005E+02  0.14251282107E+03  0.14413825957E+03  0.00000000000E+00 0.  1.
         21    1    1    2  504  501 -0.11440771278E+02 -0.18304165005E+02  0.93139728039E+02  0.95608277064E+02  0.00000000000E+00 0.  1.
</event>
<event>
 4    1  0.3283867E+006  0.2674397E+02  0.7546771E-02  0.1450197E+00
         21   -1    0    0  504  501  0.00000000000E+00  0.00000000000E+00  0.56566943264E+02  0.56566943264E+02  0.00000000000E+00 0.  1.
         21   -1    0    0  503  502 -0.00000000000E+00 -0.00000000000E+00 -0.40557147627E+02  0.40557147627E+02  0.00000000000E+00 0.  1.
         21    1    1    2  503  501 -0.16747750077E+02 -0.20850728042E+02 -0.32282260529E+02  0.41921168130E+02  0.00000000000E+00 0.  1.
         21    1    1    2  504  502  0.16747750077E+02  0.20850728042E+02  0.48292056167E+02  0.55202922761E+02  0.00000000000E+00 0.  1.
</event>
<event>
 4    1  0.3283867E+006  0.2038367E+02  0.7546771E-02  0.1528249E+00
         21   -1    0    0  504  501  0.00000000000E+00  0.00000000000E+00  0.58006491667E+00  0.58006491667E+00  0.00000000000E+00 0. -1.
         21   -1    0    0  503  502 -0.00000000000E+00 -0.00000000000E+00 -0.10184560825E+04  0.10184560825E+04  0.00000000000E+00 0.  1.
         21    1    1    2  503  501 -0.20272536334E+02  0.21256552963E+01 -0.78646932206E+03  0.78673342924E+03  0.00000000000E+00 0.  1.
         21    1    1    2  504  502  0.20272536334E+02 -0.21256552963E+01 -0.23140669548E+03  0.23230271813E+03  0.00000000000E+00 0. -1.
</event>
<event>
 4    1  0.3283867E+006  0.2742882E+02  0.7546771E-02  0.1443347E+00
         21   -1    0    0  503  501  0.00000000000E+00  0.00000000000E+00  0.56740911328E+02  0.56740911328E+02  0.00000000000E+00 0.  1.
         21   -1    0    0  504  502 -0.00000000000E+00 -0.00000000000E+00 -0.82336444453E+02  0.82336444453E+02  0.00000000000E+00 0. -1.
         21    1    1    2  503  502 -0.20283718799E+02  0.18463775983E+02  0.50896129079E+02  0.57816573982E+02  0.00000000000E+00 0.  1.
         21    1    1    2  504  501  0.20283718799E+02 -0.18463775983E+02 -0.76491662203E+02  0.81260781798E+02  0.00000000000E+00 0. -1.
</event>
<event>
 4    1  0.3283867E+006  0.2387499E+02  0.7546771E-02  0.1481794E+00
         21   -1    0    0  503  501  0.00000000000E+00  0.00000000000E+00  0.16449875590E+02  0.16449875590E+02  0.00000000000E+00 0.  1.
         21   -1    0    0  504  502 -0.00000000000E+00 -0.00000000000E+00 -0.17240848019E+03  0.17240848019E+03  0.00000000000E+00 0. -1.
         21    1    1    2  503  502  0.29737535307E+01 -0.23689070940E+02 -0.16238727533E+03  0.16413300241E+03  0.00000000000E+00 0. -1.
         21    1    1    2  504  501 -0.29737535307E+01  0.23689070940E+02  0.64286707243E+01  0.24725353372E+02  0.00000000000E+00 0.  1.
</event>
<event>
 4    1  0.3283867E+006  0.2109343E+02  0.7546771E-02  0.1517935E+00
         21   -1    0    0  503  501  0.00000000000E+00  0.00000000000E+00  0.17396834689E+02  0.17396834689E+02  0.00000000000E+00 0.  1.
         21   -1    0    0  501  502 -0.00000000000E+00 -0.00000000000E+00 -0.48417512172E+03  0.48417512172E+03  0.00000000000E+00 0. -1.
         21    1    1    2  503  504 -0.19754723838E+02  0.73948490430E+01  0.10683360834E+02  0.23644599912E+02  0.00000000000E+00 0.  1.
         21    1    1    2  504  502  0.19754723838E+02 -0.73948490430E+01 -0.47746164786E+03  0.47792735649E+03  0.00000000000E+00 0. -1.
</event>
<event>
 4    1  0.3283867E+006  0.2014595E+02  0.7546771E-02  0.1531816E+00
         21   -1    0    0  504  501  0.00000000000E+00  0.00000000000E+00  0.40575410613E+02  0.40575410613E+02  0.00000000000E+00 0. -1.
         21   -1    0    0  503  502 -0.00000000000E+00 -0.00000000000E+00 -0.30126287955E+02  0.30126287955E+02  0.00000000000E+00 0. -1.
         21    1    1    2  503  501 -0.12494789905E+02  0.15803145501E+02 -0.23667660412E+02  0.31080819357E+02  0.00000000000E+00 0. -1.
         21    1    1    2  504  502  0.12494789905E+02 -0.15803145501E+02  0.34116783070E+02  0.39620879212E+02  0.00000000000E+00 0. -1.
</event>
<event>
 4    1  0.3283867E+006  0.3258610E+02  0.7546771E-02  0.1398377E+00
         21   -1    0    0  503  501  0.00000000000E+00  0.00000000000E+00  0.13062027943E+02  0.13062027943E+02  0.00000000000E+00 0. -1.
         21   -1    0    0  501  502 -0.00000000000E+00 -0.00000000000E+00 -0.17707653530E+03  0.17707653530E+03  0.00000000000E+00 0. -1.
         21    1    1    2  503  504  0.81224633354E+01 -0.31557561831E+02 -0.12086730367E+02  0.34755476839E+02  0.00000000000E+00 0. -1.
         21    1    1    2  504  502 -0.81224633354E+01  0.31557561831E+02 -0.15192777699E+03  0.15538308641E+03  0.00000000000E+00 0. -1.
</event>
<event>
 4    1  0.3283867E+006  0.2750981E+02  0.7546771E-02  0.1442553E+00
         21   -1    0    0  504  501  0.00000000000E+00  0.00000000000E+00  0.59146118599E+02  0.59146118599E+02  0.00000000000E+00 0. -1.
         21   -1    0    0  503  502 -0.00000000000E+00 -0.00000000000E+00 -0.53130875424E+02  0.53130875424E+02  0.00000000000E+00 0. -1.
         21    1    1    2  503  501 -0.35728136942E+01 -0.27276818874E+02 -0.45906206180E+02  0.53517937286E+02  0.00000000000E+00 0. -1.
         21    1    1    2  504  502  0.35728136942E+01  0.27276818874E+02  0.51921449354E+02  0.58759056737E+02  0.00000000000E+00 0. -1.
</event>
<event>
 4    1  0.3283867E+006  0.2047357E+02  0.7546771E-02  0.1526915E+00
         21   -1    0    0  502  501  0.00000000000E+00  0.00000000000E+00  0.33098559721E+03  0.33098559721E+03  0.00000000000E+00 0.  1.
         21   -1    0    0  503  502 -0.00000000000E+00 -0.00000000000E+00 -0.18264799644E+01  0.18264799644E+01  0.00000000000E+00 0.  1.
         21    1    1    2  503  504  0.19555241381E+02  0.60629684002E+01  0.72433116307E+02  0.75270999657E+02  0.00000000000E+00 0.  1.
         21    1    1    2  504  501 -0.19555241381E+02 -0.60629684002E+01  0.25672600094E+03  0.25754107752E+03  0.00000000000E+00 0.  1.
</event>
<event>
 4    1  0.3283867E+006  0.4032015E+02  0.7546771E-02  0.1346620E+00
         21   -1    0    0  503  501  0.00000000000E+00  0.00000000000E+00  0.34895735465E+03  0.34895735465E+03  0.00000000000E+00 0.  1.
         21   -1    0    0  504  502 -0.00000000000E+00 -0.00000000000E+00 -0.75145550641E+02  0.75145550641E+02  0.00000000000E+00 0.  1.
         21    1    1    2  503  502  0.37928757509E+02 -0.13679312915E+02 -0.68467139387E+02  0.79457305667E+02  0.00000000000E+00 0.  1.
         21    1    1    2  504  501 -0.37928757509E+02  0.13679312915E+02  0.34227894339E+03  0.34464559962E+03  0.00000000000E+00 0.  1.
</event>
<event>
 4    1  0.3283867E+006  0.2586771E+02  0.7546771E-02  0.1459326E+00
         21   -1    0    0  504  501  0.00000000000E+00  0.00000000000E+00  0.21840690936E+03  0.21840690936E+03  0.00000000000E+00 0.  1.
         21   -1    0    0  503  502 -0.00000000000E+00 -0.00000000000E+00 -0.55467372059E+01  0.55467372059E+01  0.00000000000E+00 0. -1.
         21    1    1    2  503  501  0.71380966925E+01  0.24863349759E+02  0.18135026811E+03  0.18318585734E+03  0.00000000000E+00 0.  1.
         21    1    1    2  504  502 -0.71380966925E+01 -0.24863349759E+02  0.31509904051E+02  0.40767789233E+02  0.00000000000E+00 0. -1.
</event>
<event>
 4    1  0.3283867E+006  0.2008907E+02  0.7546771E-02  0.1532678E+00
         21   -1    0    0  503  501  0.00000000000E+00  0.00000000000E+00  0.31684632689E+01  0.31684632689E+01  0.00000000000E+00 0. -1.
         21   -1    0    0  504  502 -0.00000000000E+00 -0.00000000000E+00 -0.20844705834E+03  0.20844705834E+03  0.00000000000E+00 0.  1.
         21    1    1    2  503  502 -0.13633412900E+02  0.14754690424E+02 -0.16862738287E+03  0.16981980182E+03  0.00000000000E+00 0.  1.
         21    1    1    2  504  501  0.13633412900E+02 -0.14754690424E+02 -0.36651212199E+02  0.41795719786E+02  0.00000000000E+00 0. -1.
</event>
<event>
 4    1  0.3283867E+006  0.2127283E+02  0.7546771E-02  0.1515405E+00
         21   -1    0    0  504  501  0.00000000000E+00  0.00000000000E+00  0.48969568721E+03  0.48969568721E+03  0.00000000000E+00 0.  1.
         21   -1    0    0  503  502 -0.00000000000E+00 -0.00000000000E+00 -0.29354209389E+01  0.29354209389E+01  0.00000000000E+00 0.  1.
         21    1    1    2  503  501 -0.19085264306E+02 -0.93960515045E+01  0.39490023565E+02  0.44855267903E+02  0.00000000000E+00 0.  1.
         21    1    1    2  504  502  0.19085264306E+02  0.93960515045E+01  0.44727024270E+03  0.44777584024E+03  0.00000000000E+00 0.  1.
</event>
<event>
 4    1  0.3283867E+006  0.4532982E+02  0.7546771E-02  0.1319798E+00
         21   -1    0    0  502  501  0.00000000000E+00  0.00000000000E+00  0.31400052491E+02  0.31400052491E+02  0.00000000000E+00 0.  1.
         21   -1    0    0  504  502 -0.00000000000E+00 -0.00000000000E+00 -0.27857918922E+03  0.27857918922E+03  0.00000000000E+00 0. -1.
         21    1    1    2  503  501 -0.67916558564E+01  0.44818147683E+02  0.11979557205E+02  0.46886061274E+02  0.00000000000E+00 0.  1.
         21    1    1    2  504  503  0.67916558564E+01 -0.44818147683E+02 -0.25915869394E+03  0.26309318044E+03  0.00000000000E+00 0. -1.
</event>
<event>
 4    1  0.3283867E+006  0.2102237E+02  0.7546771E-02  0.1518946E+00
         21   -1    0    0  503  501  0.00000000000E+00  0.00000000000E+00  0.10863424588E+03  0.10863424588E+03  0.00000000000E+00 0. -1.
         21   -1    0    0  504  502 -0.00000000000E+00 -0.00000000000E+00 -0.20112088922E+02  0.20112088922E+02  0.00000000000E+00 0. -1.
         21    1    1    2  503  502 -0.20980110309E+02  0.13323143668E+01  0.10175631010E+03  0.10390518146E+03  0.00000000000E+00 0. -1.
         21    1    1    2  504  501  0.20980110309E+02 -0.13323143668E+01 -0.13234153137E+02  0.24841153343E+02  0.00000000000E+00 0. -1.
</event>
<event>
 4    1  0.3283867E+006  0.2120803E+02  0.7546771E-02  0.1516315E+00
         21   -1    0    0  504  501  0.00000000000E+00  0.00000000000E+00  0.14519696970E+03  0.14519696970E+03  0.00000000000E+00 0.  1.
         21   -1    0    0  503  502 -0.00000000000E+00 -0.00000000000E+00 -0.36609403210E+01  0.36609403210E+01  0.00000000000E+00 0.  1.
         21    1    1    2  503  501  0.14142193179E+02  0.15804398702E+02  0.99961225429E+02  0.10218623799E+03  0.00000000000E+00 0.  1.
         21    1    1    2  504  502 -0.14142193179E+02 -0.15804398702E+02  0.41574803952E+02  0.46671672028E+02  0.00000000000E+00 0.  1.
</event>
<event>
 4    1  0.3283867E+006  0.2725294E+02  0.7546771E-02  0.1445084E+00
         21   -1    0    0  503  501  0.00000000000E+00  0.00000000000E+00  0.12787541771E+02  0.12787541771E+02  0.00000000000E+00 0. -1.
         21   -1    0    0  504  502 -0.00000000000E+00 -0.00000000000E+00 -0.65366251617E+02  0.65366251617E+02  0.00000000000E+00 0.  1.
         21    1    1    2  503  502 -0.20526570853E+02 -0.17927141499E+02 -0.39334348701E+02  0.47853040667E+02  0.00000000000E+00 0.  1.
         21    1    1    2  504  501  0.20526570853E+02  0.17927141499E+02 -0.13244361145E+02  0.30300752721E+02  0.00000000000E+00 0. -1.
</event>
<event>
 4    1  0.3283867E+006  0.2175117E+02  0.7546771E-02  0.1508805E+00
         21   -1    0    0  503  501  0.00000000000E+00  0.00000000000E+00  0.24337771876E+03  0.24337771876E+03  0.00000000000E+00 0.  1.
         21   -1    0    0  504  502 -0.00000000000E+00 -0.00000000000E+00 -0.42404655158E+01  0.42404655158E+01  0.00000000000E+00 0.  1.
         21    1    1    2  503  502  0.10201906124E+02  0.19210265562E+02  0.21068172646E+03  0.21180156529E+03  0.00000000000E+00 0.  1.
         21    1    1    2  504  501 -0.10201906124E+02 -0.19210265562E+02  0.28455526776E+02  0.35816618986E+02  0.00000000000E+00 0.  1.
</event>
<event>
 4    1  0.3283867E+006  0.3323621E+02  0.7546771E-02  0.1393406E+00
         21   -1    0    0  502  501  0.00000000000E+00  0.00000000000E+00  0.39414934559E+02  0.39414934559E+02  0.00000000000E+00 0. -1.
         21   -1    0    0  503  502 -0.00000000000E+00 -0.00000000000E+00 -0.20376699243E+03  0.20376699243E+03  0.00000000000E+00 0.  1.
         21    1    1    2  503  504 -0.24738417168E+02 -0.22195863840E+02 -0.19509601992E+03  0.19790680293E+03  0.00000000000E+00 0.  1.
         21    1    1    2  504  501  0.24738417168E+02  0.22195863840E+02  0.30743962055E+02  0.45275124058E+02  0.00000000000E+00 0. -1.
</event>
<event>
 4    1  0.3283867E+006  0.2746248E+02  0.7546771E-02  0.1443017E+00
         21   -1    0    0  503  501  0.00000000000E+00  0.00000000000E+00  0.31967241102E+03  0.31967241102E+03  0.00000000000E+00 0. -1.
         21   -1    0    0  504  502 -0.00000000000E+00 -0.00000000000E+00 -0.59831796170E+01  0.59831796170E+01  0.00000000000E+00 0. -1.
         21    1    1    2  503  502 -0.46837129836E+01  0.27060127976E+02  0.30122535087E+02  0.40762173807E+02  0.00000000000E+00 0. -1.
         21    1    1    2  504  501  0.46837129836E+01 -0.27060127976E+02  0.28356669632E+03  0.28489341683E+03  0.00000000000E+00 0. -1.
</event>
<event>
 4    1  0.3283867E+006  0.2142674E+02  0.7546771E-02  0.1513259E+00
         21   -1    0    0  504  501  0.00000000000E+00  0.00000000000E+00  0.14363865206E+03  0.14363865206E+03  0.00000000000E+00 0.  1.
         21   -1    0    0  501  502 -0.00000000000E+00 -0.00000000000E+00 -0.78270544899E+01  0.78270544899E+01  0.00000000000E+00 0.  1.
         21    1    1    2  503  502  0.20815763308E+02 -0.50802619426E+01  0.96534613599E+01  0.23500944230E+02  0.00000000000E+00 0.  1.
         21    1    1    2  504  503 -0.20815763308E+02  0.50802619426E+01  0.12615813621E+03  0.12796476232E+03  0.00000000000E+00 0.  1.
</event>
<event>
 4    1  0.3283867E+006  0.2801363E+02  0.7546771E-02  0.1437683E+00
         21   -1    0    0  502  501  0.00000000000E+00  0.00000000000E+00  0.16200970933E+04  0.16200970933E+04  0.00000000000E+00 0. -1.
         21   -1    0    0  503  502 -0.00000000000E+00 -0.00000000000E+00 -0.61301020667E+01  0.61301020667E+01  0.00000000000E+00 0.  1.
         21    1    1    2  503  504 -0.27941610953E+02 -0.20074990252E+01  0.26656523518E+02  0.38669547722E+02  0.00000000000E+00 0.  1.
         21    1    1    2  504  501  0.27941610953E+02  0.20074990252E+01  0.15873104677E+04  0.15875576476E+04  0.00000000000E+00 0. -1.
</event>
<event>
 4    1  0.3283867E+006  0.4999797E+02  0.7546771E-02  0.1298181E+00
         21   -1    0    0  504  501  0.00000000000E+00  0.00000000000E+00  0.21211212271E+02  0.21211212271E+02  0.00000000000E+00 0. -1.
         21   -1    0    0  501  502 -0.00000000000E+00 -0.00000000000E+00 -0.30253728626E+03  0.30253728626E+03  0.00000000000E+00 0. -1.
         21    1    1    2  503  502 -0.42600509284E+02  0.26172381917E+02 -0.26713775850E+03  0.27177633999E+03  0.00000000000E+00 0. -1.
         21    1    1    2  504  503  0.42600509284E+02 -0.26172381917E+02 -0.14188315495E+02  0.51972158538E+02  0.00000000000E+00 0. -1.
</event>
<event>
 4    1  0.3283867E+006  0.2583974E+02  0.7546771E-02  0.1459625E+00
         21   -1    0    0  504  501  0.00000000000E+00  0.00000000000E+00  0.50144306257E+02  0.50144306257E+02  0.00000000000E+00 0.  1.
         21   -1    0    0  503  502 -0.00000000000E+00 -0.00000000000E+00 -0.61814032583E+02  0.61814032583E+02  0.00000000000E+00 0.  1.
         21    1    1    2  503  501 -0.25650655946E+02 -0.31202534168E+01 -0.55419553136E+02  0.61147518361E+02  0.00000000000E+00 0.  1.
         21    1    1    2  504  502  0.25650655946E+02  0.31202534168E+01  0.43749826811E+02  0.50810820480E+02  0.00000000000E+00 0.  1.
</event>
<event>
 4    1  0.3283867E+006  0.3698298E+02  0.7546771E-02  0.1367134E+00
         21   -1    0    0  504  501  0.00000000000E+00  0.00000000000E+00  0.83431548736E+02  0.83431548736E+02  0.00000000000E+00 0. -1.
         21   -1    0    0  503  502 -0.00000000000E+00 -0.00000000000E+00 -0.40040686149E+02  0.40040686149E+02  0.00000000000E+00 0. -1.
         21    1    1    2  503  501 -0.35968593278E+02 -0.86024083555E+01  0.69139030498E+02  0.78408843060E+02  0.00000000000E+00 0. -1.
         21    1    1    2  504  502  0.35968593278E+02  0.86024083555E+01 -0.25748167911E+02  0.45063391824E+02  0.00000000000E+00 0. -1.
</event>
<event>
 4    1  0.3283867E+006  0.3325259E+02  0.7546771E-02  0.1393282E+00
         21   -1    0    0  504  501  0.00000000000E+00  0.00000000000E+00  0.13746464987E+02  0.13746464987E+02  0.00000000000E+00 0. -1.
         21   -1    0    0  501  502 -0.00000000000E+00 -0.00000000000E+00 -0.16962218732E+03  0.16962218732E+03  0.00000000000E+00 0.  1.
         21    1    1    2  503  502  0.68758335784E+01 -0.32533945341E+02 -0.14441897865E+03  0.14819776005E+03  0.00000000000E+00 0.  1.
         21    1    1    2  504  503 -0.68758335784E+01  0.32533945341E+02 -0.11456743679E+02  0.35170892263E+02  0.00000000000E+00 0. -1.
</event>
<event>
 4    1  0.3283867E+006  0.2984974E+02  0.7546771E-02  0.1420907E+00
         21   -1    0    0  502  501  0.00000000000E+00  0.00000000000E+00  0.19845284815E+02  0.19845284815E+02  0.00000000000E+00 0.  1.
         21   -1    0    0  504  502 -0.00000000000E+00 -0.00000000000E+00 -0.45023377643E+02  0.45023377643E+02  0.00000000000E+00 0.  1.
         21    1    1    2  503  501 -0.24917111686E+02 -0.16436076766E+02 -0.14302863724E+02  0.33099531492E+02  0.00000000000E+00 0.  1.
         21    1    1    2  504  503  0.24917111686E+02  0.16436076766E+02 -0.10875229105E+02  0.31769130966E+02  0.00000000000E+00 0.  1.
</event>
<event>
 4    1  0.3283867E+006  0.2206505E+02  0.7546771E-02  0.1504584E+00
         21   -1    0    0  504  501  0.00000000000E+00  0.00000000000E+00  0.54399320687E+02  0.54399320687E+02  0.00000000000E+00 0. -1.
         21   -1    0    0  501  502 -0.00000000000E+00 -0.00000000000E+00 -0.30373600802E+03  0.30373600802E+03  0.00000000000E+00 0.  1.
         21    1    1    2  503  502 -0.17121424071E+02 -0.13918450570E+02 -0.30107808494E+03  0.30188554066E+03  0.00000000000E+00 0.  1.
         21    1    1    2  504  503  0.17121424071E+02  0.13918450570E+02  0.51741397609E+02  0.56249788044E+02  0.00000000000E+00 0. -1.
</event>
<event>
 4    1  0.3283867E+006  0.2076156E+02  0.7546771E-02  0.1522697E+00
         21   -1    0    0  504  501  0.00000000000E+00  0.00000000000E+00  0.25809727196E+02  0.25809727196E+02  0.00000000000E+00 0.  1.
         21   -1    0    0  503  502 -0.00000000000E+00 -0.00000000000E+00 -0.38787520942E+02  0.38787520942E+02  0.00000000000E+00 0.  1.
         21    1    1    2  503  501 -0.99630357427E+01 -0.18214840412E+02  0.17883815342E+02  0.27402068236E+02  0.00000000000E+00 0.  1.
         21    1    1    2  504  502  0.99630357427E+01  0.18214840412E+02 -0.30861609088E+02  0.37195179902E+02  0.00000000000E+00 0.  1.
</event>
<event>
 4    1  0.3283867E+006  0.2316658E+02  0.7546771E-02  0.1490417E+00
         21   -1    0    0  504  501  0.00000000000E+00  0.00000000000E+00  0.58670405843E+01  0.58670405843E+01  0.00000000000E+00 0. -1.
         21   -1    0    0  503  502 -0.00000000000E+00 -0.00000000000E+00 -0.16902994420E+03  0.16902994420E+03  0.00000000000E+00 0. -1.
         21    1    1    2  503  501 -0.17169126140E+02 -0.15553512048E+02 -0.14081582155E+03  0.14270874615E+03  0.00000000000E+00 0. -1.
         21    1    1    2  504  502  0.17169126140E+02  0.15553512048E+02 -0.22347082068E+02  0.32188238635E+02  0.00000000000E+00 0. -1.
</event>
<event>
 4    1  0.3283867E+006  0.2446637E+02  0.7546771E-02  0.1474862E+00
         21   -1    0    0  504  501  0.00000000000E+00  0.00000000000E+00  0.19560517889E+03  0.19560517889E+03  0.00000000000E+00 0. -1.
         21   -1    0    0  503  502 -0.00000000000E+00 -0.00000000000E+00 -0.34883104599E+01  0.34883104599E+01  0.00000000000E+00 0. -1.
         21    1    1    2  503  501  0.98662704172E+01 -0.22388837506E+02  0.61187358717E+02  0.65897619104E+02  0.00000000000E+00 0. -1.
         21    1    1    2  504  502 -0.98662704172E+01  0.22388837506E+02  0.13092950971E+03  0.13319587024E+03  0.00000000000E+00 0. -1.
</event>
<event>
 4    1  0.3283867E+006  0.2778536E+02  0.7546771E-02  0.1439875E+00
         21   -1    0    0  503  501  0.00000000000E+00  0.00000000000E+00  0.17923607863E+03  0.17923607863E+03  0.00000000000E+00 0.  1.
         21   -1    0    0  504  502 -0.00000000000E+00 -0.00000000000E+00 -0.26336605151E+02  0.26336605151E+02  0.00000000000E+00 0. -1.
         21    1    1    2  503  502  0.14777896112E+02 -0.23529562006E+02  0.17045577522E+03  0.17270552338E+03  0.00000000000E+00 0.  1.
         21    1    1    2  504  501 -0.14777896112E+02  0.23529562006E+02 -0.17556301741E+02  0.32867160396E+02  0.00000000000E+00 0. -1.
</event>
<event>
 4    1  0.3283867E+006  0.2049391E+02  0.7546771E-02  0.1526615E+00
         21   -1    0    0  504  501  0.00000000000E+00  0.00000000000E+00  0.22851925686E+02  0.22851925686E+02  0.00000000000E+00 0. -1.
         21   -1    0    0  503  502 -0.00000000000E+00 -0.00000000000E+00 -0.19544014387E+02  0.19544014387E+02  0.00000000000E+00 0. -1.
         21    1    1    2  503  501  0.20408346334E+02  0.18707186344E+01 -0.35211012858E+01  0.20794190116E+02  0.00000000000E+00 0. -1.
         21    1    1    2  504  502 -0.20408346334E+02 -0.18707186344E+01  0.68290125843E+01  0.21601749957E+02  0.00000000000E+00 0. -1.
</event>
<event>
 4    1  0.3283867E+006  0.2460038E+02  0.7546771E-02  0.1473324E+00
         21   -1    0    0  502  501  0.00000000000E+00  0.00000000000E+00  0.13452461304E+01  0.13452461304E+01  0.00000000000E+00 0. -1.
         21   -1    0    0  503  502 -0.00000000000E+00 -0.00000000000E+00 -0.97284679137E+03  0.97284679137E+03  0.00000000000E+00 0. -1.
         21    1    1    2  503  504 -0.28958635013E+01 -0.24429337070E+02 -0.84288858049E+03  0.84324749490E+03  0.00000000000E+00 0. -1.
         21    1    1    2  504  501  0.28958635013E+01  0.24429337070E+02 -0.12861296475E+03  0.13094454260E+03  0.00000000000E+00 0. -1.
</event>
<event>
 4    1  0.3283867E+006  0.2009331E+02  0.7546771E-02  0.1532614E+00
         21   -1    0    0  503  501  0.00000000000E+00  0.00000000000E+00  0.13757392775E+03  0.13757392775E+03  0.00000000000E+00 0.  1.
         21   -1    0    0  504  502 -0.00000000000E+00 -0.00000000000E+00 -0.10683336768E+02  0.10683336768E+02  0.00000000000E+00 0.  1.
         21    1    1    2  503  502 -0.19735704326E+02  0.37739795952E+01  0.12657657925E+03  0.12816150500E+03  0.00000000000E+00 0.  1.
         21    1    1    2  504  501  0.19735704326E+02 -0.37739795952E+01  0.31401172436E+00  0.20095759518E+02  0.00000000000E+00 0.  1.
</event>
<event>
 4    1  0.3283867E+006  0.2339990E+02  0.7546771E-02  0.1487537E+00
         21   -1    0    0  503  501  0.00000000000E+00  0.00000000000E+00  0.45751615885E+02  0.45751615885E+02  0.00000000000E+00 0. -1.
         21   -1    0    0  504  502 -0.00000000000E+00 -0.00000000000E+00 -0.13406148199E+02  0.13406148199E+02  0.00000000000E+00 0. -1.
         21    1    1    2  503  502  0.21022547322E+02 -0.10276572028E+02  0.25860670097E+02  0.34875918431E+02  0.00000000000E+00 0. -1.
         21    1    1    2  504  501 -0.21022547322E+02  0.10276572028E+02  0.64847975887E+01  0.24281845653E+02  0.00000000000E+00 0. -1.
</event>
<event>
 4    1  0.3283867E+006  0.2220093E+02  0.7546771E-02  0.1502783E+00
         21   -1    0    0  503  501  0.00000000000E+00  0.00000000000E+00  0.11839811650E+02  0.11839811650E+02  0.00000000000E+00 0. -1.
         21   -1    0    0  504  502 -0.00000000000E+00 -0.00000000000E+00 -0.60628024059E+02  0.60628024059E+02  0.00000000000E+00 0. -1.
         21    1    1    2  503  502 -0.22151582536E+02  0.14794326478E+01 -0.41106253368E+01  0.22578276516E+02  0.00000000000E+00 0. -1.
         21    1    1    2  504  501  0.22151582536E+02 -0.14794326478E+01 -0.44677587072E+02  0.49889559192E+02  0.00000000000E+00 0. -1.
</event>
<event>
 4    1  0.3283867E+006  0.2478928E+02  0.7546771E-02  0.1471175E+00
         21   -1    0    0  504  501  0.00000000000E+00  0.00000000000E+00  0.12070907384E+03  0.12070907384E+03  0.00000000000E+00 0.  1.
         21   -1    0    0  503  502 -0.00000000000E+00 -0.00000000000E+00 -0.18155490094E+03  0.18155490094E+03  0.00000000000E+00 0.  1.
         21    1    1    2  503  501 -0.13036312977E+02 -0.21084659192E+02 -0.17942095604E+03  0.18112533720E+03  0.00000000000E+00 0.  1.
         21    1    1    2  504  502  0.13036312977E+02  0.21084659192E+02  0.11857512894E+03  0.12113863757E+03  0.00000000000E+00 0.  1.
</event>
<event>
 4    1  0.3283867E+006  0.2240966E+02  0.7546771E-02  0.1500047E+00
         21   -1    0    0  504  501  0.00000000000E+00  0.00000000000E+00  0.91409855082E+02  0.91409855082E+02  0.00000000000E+00 0.  1.
         21   -1    0    0  503  502 -0.00000000000E+00 -0.00000000000E+00 -0.21012420294E+02  0.21012420294E+02  0.00000000000E+00 0. -1.
         21    1    1    2  503  501 -0.22287519825E+02  0.23365231964E+01  0.83505716548E+02  0.86460381545E+02  0.00000000000E+00 0.  1.
         21    1    1    2  504  502  0.22287519825E+02 -0.23365231964E+01 -0.13108281760E+02  0.25961893831E+02  0.00000000000E+00 0. -1.
</event>
<event>
 4    1  0.3283867E+006  0.2015501E+02  0.7546771E-02  0.1531679E+00
         21   -1    0    0  504  501  0.00000000000E+00  0.00000000000E+00  0.72108074714E+02  0.72108074714E+02  0.00000000000E+00 0.  1.
         21   -1    0    0  503  502 -0.00000000000E+00 -0.00000000000E+00 -0.26678783673E+02  0.26678783673E+02  0.00000000000E+00 0.  1.
         21    1    1    2  503  501 -0.89662693382E+01  0.18050776520E+02 -0.21154889499E+02  0.29219066866E+02  0.00000000000E+00 0.  1.
         21    1    1    2  504  502  0.89662693382E+01 -0.18050776520E+02  0.66584180540E+02  0.69567791520E+02  0.00000000000E+00 0.  1.
</event>
<event>
 4    1  0.3283867E+006  0.2620520E+02  0.7546771E-02  0.1455760E+00
         21   -1    0    0  503  501  0.00000000000E+00  0.00000000000E+00  0.49627221450E+02  0.49627221450E+02  0.00000000000E+00 0. -1.
         21   -1    0    0  504  502 -0.00000000000E+00 -0.00000000000E+00 -0.18077190347E+02  0.18077190347E+02  0.00000000000E+00 0. -1.
         21    1    1    2  503  502  0.18537107880E+02 -0.18522639980E+02  0.32169313577E+02  0.41491894345E+02  0.00000000000E+00 0. -1.
         21    1    1    2  504  501 -0.18537107880E+02  0.18522639980E+02 -0.61928247424E+00  0.26212517452E+02  0.00000000000E+00 0. -1.
</event>
<event>
 4    1  0.3283867E+006  0.3205110E+02  0.7546771E-02  0.1402572E+00
         21   -1    0    0  502  501  0.00000000000E+00  0.00000000000E+00  0.86225945295E+01  0.86225945295E+01  0.00000000000E+00 0. -1.
         21   -1    0    0  504  502 -0.00000000000E+00 -0.00000000000E+00 -0.54336773207E+03  0.54336773207E+03  0.00000000000E+00 0.  1.
         21    1    1    2  503  501  0.31344038674E+02 -0.66950679152E+01 -0.23504210238E+02  0.39745699059E+02  0.00000000000E+00 0. -1.
         21    1    1    2  504  503 -0.31344038674E+02  0.66950679152E+01 -0.51124092730E+03  0.51224462754E+03  0.00000000000E+00 0.  1.
</event>
<event>
 4    1  0.3283867E+006  0.3063494E+02  0.7546771E-02  0.1414158E+00
         21   -1    0    0  502  501  0.00000000000E+00  0.00000000000E+00  0.14922555345E+03  0.14922555345E+03  0.00000000000E+00 0.  1.
         21   -1    0    0  503  502 -0.00000000000E+00 -0.00000000000E+00 -0.15035587565E+02  0.15035587565E+02  0.00000000000E+00 0.  1.
         21    1    1    2  503  504 -0.14849677927E+02  0.26795272184E+02  0.44537023496E+01  0.30956986459E+02  0.00000000000E+00 0.  1.
         21    1    1    2  504  501  0.14849677927E+02 -0.26795272184E+02  0.12973626353E+03  0.13330415455E+03  0.00000000000E+00 0.  1.
</event>
<event>
 4    1  0.3283867E+006  0.5965574E+02  0.7546771E-02  0.1261007E+00
         21   -1    0    0  502  501  0.00000000000E+00  0.00000000000E+00  0.73265116623E+02  0.73265116623E+02  0.00000000000E+00 0. -1.
         21   -1    0    0  504  502 -0.00000000000E+00 -0.00000000000E+00 -0.34801452672E+03  0.34801452672E+03  0.00000000000E+00 0.  1.
         21    1    1    2  503  501 -0.33374365377E+02  0.49446532781E+02  0.58012807107E+02  0.83212340773E+02  0.00000000000E+00 0. -1.
         21    1    1    2  504  503  0.33374365377E+02 -0.49446532781E+02 -0.33276221720E+03  0.33806730257E+03  0.00000000000E+00 0.  1.
</event>
<event>
 4    1  0.3283867E+006  0.3181118E+02  0.7546771E-02  0.1404484E+00
         21   -1    0    0  503  501  0.00000000000E+00  0.00000000000E+00  0.24994105165E+03  0.24994105165E+03  0.00000000000E+00 0.  1.
         21   -1    0    0  504  502 -0.00000000000E+00 -0.00000000000E+00 -0.59010876447E+01  0.59010876447E+01  0.00000000000E+00 0.  1.
         21    1    1    2  503  502  0.31811173478E+02  0.18628000653E-01  0.50350368823E+02  0.59557625420E+02  0.00000000000E+00 0.  1.
         21    1    1    2  504  501 -0.31811173478E+02 -0.18628000653E-01  0.19368959518E+03  0.19628451387E+03  0.00000000000E+00 0.  1.
</event>
<event>
 4    1  0.3283867E+006  0.2234695E+02  0.7546771E-02  0.1500865E+00
         21   -1    0    0  504  501  0.00000000000E+00  0.00000000000E+00  0.30510943333E+02  0.30510943333E+02  0.00000000000E+00 0. -1.
         21   -1    0    0  503  502 -0.00000000000E+00 -0.00000000000E+00 -0.80931104186E+02  0.80931104186E+02  0.00000000000E+00 0. -1.
         21    1    1    2  503  501 -0.78326416207E+01  0.20929307449E+02 -0.74978680250E+02  0.78238025775E+02  0.00000000000E+00 0. -1.
         21    1    1    2  504  502  0.78326416207E+01 -0.20929307449E+02  0.24558519397E+02  0.33204021745E+02  0.00000000000E+00 0. -1.
</event>
<event>
 4    1  0.3283867E+006  0.2013316E+02  0.7546771E-02  0.1532010E+00
         21   -1    0    0  503  501  0.00000000000E+00  0.00000000000E+00  0.47061519735E+02  0.47061519735E+02  0.00000000000E+00 0. -1.
         21   -1    0    0  504  502 -0.00000000000E+00 -0.00000000000E+00 -0.93486170939E+01  0.93486170939E+01  0.00000000000E+00 0. -1.
         21    1    1    2  503  502 -0.93248907379E+01 -0.17843499538E+02  0.10944941975E+02  0.22915842072E+02  0.00000000000E+00 0. -1.
         21    1    1    2  504  501  0.93248907379E+01  0.17843499538E+02  0.26767960666E+02  0.33494294757E+02  0.00000000000E+00 0. -1.
</event>
<event>
 4    1  0.3283867E+006  0.3173738E+02  0.7546771E-02  0.1405076E+00
         21   -1    0    0  503  501  0.00000000000E+00  0.00000000000E+00  0.12965735887E+03  0.12965735887E+03  0.00000000000E+00 0.  1.
         21   -1    0    0  504  502 -0.00000000000E+00 -0.00000000000E+00 -0.77822037724E+01  0.77822037724E+01  0.00000000000E+00 0. -1.
         21    1    1    2  503  502 -0.13301165221E+02  0.28815623066E+02  0.63806688398E+02  0.71263978371E+02  0.00000000000E+00 0.  1.
         21    1    1    2  504  501  0.13301165221E+02 -0.28815623066E+02  0.58068466702E+02  0.66175584274E+02  0.00000000000E+00 0. -1.
</event>
<event>
 4    1  0.3283867E+006  0.2103487E+02  0.7546771E-02  0.1518767E+00
         21   -1    0    0  504  501  0.00000000000E+00  0.00000000000E+00  0.21013133301E+03  0.21013133301E+03  0.00000000000E+00 0.  1.
         21   -1    0    0  501  502 -0.00000000000E+00 -0.00000000000E+00 -0.11623085589E+03  0.11623085589E+03  0.00000000000E+00 0. -1.
         21    1    1    2  503  502  0.56961806176E+01  0.20248936983E+02 -0.11474598783E+03  0.11665808007E+03  0.00000000000E+00 0. -1.
         21    1    1    2  504  503 -0.56961806176E+01 -0.20248936983E+02  0.20864646495E+03  0.20970410883E+03  0.00000000000E+00 0.  1.
</event>
<event>
 4    1  0.3283867E+006  0.2537586E+02  0.7546771E-02  0.1464642E+00
         21   -1    0    0  504  501  0.00000000000E+00  0.00000000000E+00  0.23968581900E+03  0.23968581900E+03  0.00000000000E+00 0.  1.
         21   -1    0    0  503  502 -0.00000000000E+00 -0.00000000000E+00 -0.27311459644E+01  0.27311459644E+01  0.00000000000E+00 0.  1.
         21    1    1    2  503  501  0.24686961869E+02  0.58726825757E+01  0.13396105391E+03  0.13634331099E+03  0.00000000000E+00 0.  1.
         21    1    1    2  504  502 -0.24686961869E+02 -0.58726825757E+01  0.10299361913E+03  0.10607365398E+03  0.00000000000E+00 0.  1.
</event>
<event>
 4    1  0.3283867E+006  0.2496734E+02  0.7546771E-02  0.1469169E+00
         21   -1    0    0  503  501  0.00000000000E+00  0.00000000000E+00  0.19398821672E+01  0.19398821672E+01  0.00000000000E+00 0. -1.
         21   -1    0    0  504  502 -0.00000000000E+00 -0.00000000000E+00 -0.37944418598E+03  0.37944418598E+03  0.00000000000E+00 0. -1.
         21    1    1    2  503  502 -0.23670745691E+02 -0.79412757893E+01 -0.11413303226E+03  0.11683200381E+03  0.00000000000E+00 0. -1.
         21    1    1    2  504  501  0.23670745691E+02  0.79412757893E+01 -0.26337127155E+03  0.26455206433E+03  0.00000000000E+00 0. -1.
</event>
<event>
 4    1  0.3283867E+006  0.2616608E+02  0.7546771E-02  0.1456170E+00
         21   -1    0    0  503  501  0.00000000000E+00  0.00000000000E+00  0.79109163804E+02  0.79109163804E+02  0.00000000000E+00 0.  1.
         21   -1    0    0  504  502 -0.00000000000E+00 -0.00000000000E+00 -0.18918116682E+02  0.18918116682E+02  0.00000000000E+00 0.  1.
         21    1    1    2  503  502  0.71057845071E+01  0.25182766713E+02 -0.60059200811E+01  0.26846507944E+02  0.00000000000E+00 0.  1.
         21    1    1    2  504  501 -0.71057845071E+01 -0.25182766713E+02  0.66196967203E+02  0.71180772542E+02  0.00000000000E+00 0.  1.
</event>
<event>
 4    1  0.3283867E+006  0.2681202E+02  0.7546771E-02  0.1449506E+00
         21   -1    0    0  504  501  0.00000000000E+00  0.00000000000E+00  0.25742791534E+02  0.25742791534E+02  0.00000000000E+00 0.  1.
         21   -1    0    0  503  502 -0.00000000000E+00 -0.00000000000E+00 -0.27997751975E+02  0.27997751975E+02  0.00000000000E+00 0.  1.
         21    1    1    2  503  501 -0.26803276191E+02  0.68469587634E+00 -0.24909840859E+01  0.26927484560E+02  0.00000000000E+00 0.  1.
         21    1    1    2  504  502  0.26803276191E+02 -0.68469587634E+00  0.23602364528E+00  0.26813058949E+02  0.00000000000E+00 0.  1.
</event>
<event>
 4    1  0.3283867E+006  0.3117737E+02  0.7546771E-02  0.1409634E+00
         21   -1    0    0  503  501  0.00000000000E+00  0.00000000000E+00  0.35609712121E+01  0.35609712121E+01  0.00000000000E+00 0. -1.
         21   -1    0    0  504  502 -0.00000000000E+00 -0.00000000000E+00 -0.28062161431E+03  0.28062161431E+03  0.00000000000E+00 0.  1.
         21    1    1    2  503  502 -0.30313670191E+02 -0.72876367011E+01 -0.16199764834E+03  0.16497050136E+03  0.00000000000E+00 0. -1.
         21    1    1    2  504  501  0.30313670191E+02  0.72876367011E+01 -0.11506299475E+03  0.11921208416E+03  0.00000000000E+00 0.  1.
</event>
<event>
 4    1  0.3283867E+006  0.5648363E+02  0.7546771E-02  0.1272272E+00
         21   -1    0    0  503  501  0.00000000000E+00  0.00000000000E+00  0.79202726152E+01  0.79202726152E+01  0.00000000000E+00 0.  1.
         21   -1    0    0  504  502 -0.00000000000E+00 -0.00000000000E+00 -0.50367105219E+03  0.50367105219E+03  0.00000000000E+00 0. -1.
         21    1    1    2  503  502  0.21388315728E+02 -0.52277534877E+02 -0.13341064991E+03  0.14487512627E+03  0.00000000000E+00 0.  1.
         21    1    1    2  504  501 -0.21388315728E+02  0.52277534877E+02 -0.36234012966E+03  0.36671619853E+03  0.00000000000E+00 0. -1.
</event>
<event>
 4    1  0.3283867E+006  0.4366250E+02  0.7546771E-02  0.1328264E+00
         21   -1    0    0  502  501  0.00000000000E+00  0.00000000000E+00  0.29532094486E+02  0.29532094486E+02  0.00000000000E+00 0. -1.
         21   -1    0    0  503  502 -0.00000000000E+00 -0.00000000000E+00 -0.53270562546E+03  0.53270562546E+03  0.00000000000E+00 0. -1.
         21    1    1    2  503  504  0.43662330820E+02 -0.12292893385E+00 -0.51512256437E+03  0.51696969986E+03  0.00000000000E+00 0. -1.
         21    1    1    2  504  501 -0.43662330820E+02  0.12292893385E+00  0.11949033395E+02  0.45268020094E+02  0.00000000000E+00 0. -1.
</event>
<event>
 4    1  0.3283867E+006  0.2687862E+02  0.7546771E-02  0.1448831E+00
         21   -1    0    0  502  501  0.00000000000E+00  0.00000000000E+00  0.21078413423E+03  0.21078413423E+03  0.00000000000E+00 0.  1.
         21   -1    0    0  503  502 -0.00000000000E+00 -0.00000000000E+00 -0.44712938043E+01  0.44712938043E+01  0.00000000000E+00 0.  1.
         21    1    1    2  503  504  0.17474899879E+01  0.26821755503E+02  0.51154764738E+02  0.57786419208E+02  0.00000000000E+00 0.  1.
         21    1    1    2  504  501 -0.17474899879E+01 -0.26821755503E+02  0.15515807569E+03  0.15746900883E+03  0.00000000000E+00 0.  1.
</event>
<event>
 4    1  0.3283867E+006  0.2030718E+02  0.7546771E-02  0.1529391E+00
         21   -1    0    0  503  501  0.00000000000E+00  0.00000000000E+00  0.97863014209E+02  0.97863014209E+02  0.00000000000E+00 0.  1.
         21   -1    0    0  504  502 -0.00000000000E+00 -0.00000000000E+00 -0.45891604152E+01  0.45891604152E+01  0.00000000000E+00 0.  1.
         21    1    1    2  503  502 -0.19435138909E+02 -0.58870040205E+01  0.61286053265E+02  0.64562851281E+02  0.00000000000E+00 0.  1.
         21    1    1    2  504  501  0.19435138909E+02  0.58870040205E+01  0.31987800529E+02  0.37889323343E+02  0.00000000000E+00 0.  1.
</event>
<event>
 4    1  0.3283867E+006  0.2250986E+02  0.7546771E-02  0.1498746E+00
         21   -1    0    0  504  501  0.00000000000E+00  0.00000000000E+00  0.23298766111E+01  0.23298766111E+01  0.00000000000E+00 0. -1.
         21   -1    0    0  503  502 -0.00000000000E+00 -0.00000000000E+00 -0.21907044939E+03  0.21907044939E+03  0.00000000000E+00 0. -1.
         21    1    1    2  503  501 -0.10266373463E+02  0.20032354092E+02 -0.98927926664E+02  0.10145653409E+03  0.00000000000E+00 0. -1.
         21    1    1    2  504  502  0.10266373463E+02 -0.20032354092E+02 -0.11781264612E+03  0.11994379192E+03  0.00000000000E+00 0. -1.
</event>
<event>
 4    1  0.3283867E+006  0.2699824E+02  0.7546771E-02  0.1447626E+00
         21   -1    0    0  504  501  0.00000000000E+00  0.00000000000E+00  0.42533627981E+01  0.42533627981E+01  0.00000000000E+00 0.  1.
         21   -1    0    0  501  502 -0.00000000000E+00 -0.00000000000E+00 -0.53170910615E+03  0.53170910615E+03  0.00000000000E+00 0. -1.
         21    1    1    2  503  502 -0.13502964453E+02  0.23378936686E+02 -0.48433634551E+03  0.48508823972E+03  0.00000000000E+00 0. -1.
         21    1    1    2  504  503  0.13502964453E+02 -0.23378936686E+02 -0.43119397838E+02  0.50874229227E+02  0.00000000000E+00 0.  1.
</event>
<event>
 4    1  0.3283867E+006  0.3146222E+02  0.7546771E-02  0.1407301E+00
         21   -1    0    0  504  501  0.00000000000E+00  0.00000000000E+00  0.58713225070E+02  0.58713225070E+02  0.00000000000E+00 0.  1.
         21   -1    0    0  503  502 -0.00000000000E+00 -0.00000000000E+00 -0.19506714903E+02  0.19506714903E+02  0.00000000000E+00 0.  1.
         21    1    1    2  503  501 -0.97678252609E+01  0.29907542867E+02  0.34010990496E+02  0.46331619928E+02  0.00000000000E+00 0.  1.
         21    1    1    2  504  502  0.97678252609E+01 -0.29907542867E+02  0.51955196700E+01  0.31888320045E+02  0.00000000000E+00 0.  1.
</event>
<event>
 4    1  0.3283867E+006  0.2638550E+02  0.7546771E-02  0.1453880E+00
         21   -1    0    0  504  501  0.00000000000E+00  0.00000000000E+00  0.17260679550E+03  0.17260679550E+03  0.00000000000E+00 0. -1.
         21   -1    0    0  503  502 -0.00000000000E+00 -0.00000000000E+00 -0.93262939078E+02  0.93262939078E+02  0.00000000000E+00 0.  1.
         21    1    1    2  503  501 -0.26306992964E+02 -0.20338851994E+01 -0.90356600844E+02  0.94130281440E+02  0.00000000000E+00 0.  1.
         21    1    1    2  504  502  0.26306992964E+02  0.20338851994E+01  0.16970045726E+03  0.17173945314E+03  0.00000000000E+00 0. -1.
</event>
<event>
 4    1  0.3283867E+006  0.2881121E+02  0.7546771E-02  0.1430216E+00
         21   -1    0    0  504  501  0.00000000000E+00  0.00000000000E+00  0.15394990601E+03  0.15394990601E+03  0.00000000000E+00 0.  1.
         21   -1    0    0  503  502 -0.00000000000E+00 -0.00000000000E+00 -0.30663622453E+02  0.30663622453E+02  0.00000000000E+00 0. -1.
         21    1    1    2  503  501  0.23814259361E+02  0.16216259145E+02 -0.22155894366E+02  0.36345146371E+02  0.00000000000E+00 0. -1.
         21    1    1    2  504  502 -0.23814259361E+02 -0.16216259145E+02  0.14544217792E+03  0.14826838209E+03  0.00000000000E+00 0.  1.
</event>
<event>
 4    1  0.3283867E+006  0.2820520E+02  0.7546771E-02  0.1435863E+00
         21   -1    0    0  502  501  0.00000000000E+00  0.00000000000E+00  0.97369636065E+01  0.97369636065E+01  0.00000000000E+00 0. -1.
         21   -1    0    0  503  502 -0.00000000000E+00 -0.00000000000E+00 -0.84306106579E+02  0.84306106579E+02  0.00000000000E+00 0. -1.
         21    1    1    2  503  504 -0.52757713078E+01  0.27707393696E+02 -0.45548036035E+02  0.53573846371E+02  0.00000000000E+00 0. -1.
         21    1    1    2  504  501  0.52757713078E+01 -0.27707393696E+02 -0.29021106937E+02  0.40469223814E+02  0.00000000000E+00 0. -1.
</event>
<event>
 4    1  0.3283867E+006  0.2084722E+02  0.7546771E-02  0.1521457E+00
         21   -1    0    0  503  501  0.00000000000E+00  0.00000000000E+00  0.86788476118E+02  0.86788476118E+02  0.00000000000E+00 0.  1.
         21   -1    0    0  504  502 -0.00000000000E+00 -0.00000000000E+00 -0.55128560616E+01  0.55128560616E+01  0.00000000000E+00 0.  1.
         21    1    1    2  503  502  0.16771111297E+02  0.12382907239E+02  0.26666965226E+02  0.33848686831E+02  0.00000000000E+00 0.  1.
         21    1    1    2  504  501 -0.16771111297E+02 -0.12382907239E+02  0.54608654831E+02  0.58452645349E+02  0.00000000000E+00 0.  1.
</event>
<event>
 4    1  0.3283867E+006  0.2483197E+02  0.7546771E-02  0.1470692E+00
         21   -1    0    0  503  501  0.00000000000E+00  0.00000000000E+00  0.60008312233E+03  0.60008312233E+03  0.00000000000E+00 0.  1.
         21   -1    0    0  504  502 -0.00000000000E+00 -0.00000000000E+00 -0.19014579943E+01  0.19014579943E+01  0.00000000000E+00 0. -1.
         21    1    1    2  503  502 -0.19501203217E+02 -0.15373019818E+02  0.95039140280E+02  0.98229653620E+02  0.00000000000E+00 0. -1.
         21    1    1    2  504  501  0.19501203217E+02  0.15373019818E+02  0.50314252406E+03  0.50375492671E+03  0.00000000000E+00 0.  1.
</event>
<event>
 4    1  0.3283867E+006  0.3500982E+02  0.7546771E-02  0.1380494E+00
         21   -1    0    0  502  501  0.00000000000E+00  0.00000000000E+00  0.11229402203E+02  0.11229402203E+02  0.00000000000E+00 0. -1.
         21   -1    0    0  504  502 -0.00000000000E+00 -0.00000000000E+00 -0.14558952860E+03  0.14558952860E+03  0.00000000000E+00 0.  1.
         21    1    1    2  503  501  0.38401071973E+01  0.34798580746E+02 -0.27952561511E+02  0.44799925673E+02  0.00000000000E+00 0. -1.
         21    1    1    2  504  503 -0.38401071973E+01 -0.34798580746E+02 -0.10640756488E+03  0.11201900513E+03  0.00000000000E+00 0.  1.
</event>
<event>
 4    1  0.3283867E+006  0.2522266E+02  0.7546771E-02  0.1466328E+00
         21   -1    0    0  503  501  0.00000000000E+00  0.00000000000E+00  0.12680515706E+02  0.12680515706E+02  0.00000000000E+00 0. -1.
         21   -1    0    0  504  502 -0.00000000000E+00 -0.00000000000E+00 -0.88329952149E+02  0.88329952149E+02  0.00000000000E+00 0.  1.
         21    1    1    2  503  502 -0.22096892222E+02 -0.12161827678E+02 -0.46287186549E+01  0.25643863490E+02  0.00000000000E+00 0. -1.
         21    1    1    2  504  501  0.22096892222E+02  0.12161827678E+02 -0.71020717788E+02  0.75366604365E+02  0.00000000000E+00 0.  1.
</event>
<event>
 4    1  0.3283867E+006  0.2304741E+02  0.7546771E-02  0.1491904E+00
         21   -1    0    0  503  501  0.00000000000E+00  0.00000000000E+00  0.43409586855E+03  0.43409586855E+03  0.00000000000E+00 0.  1.
         21   -1    0    0  504  502 -0.00000000000E+00 -0.00000000000E+00 -0.78550281280E+01  0.78550281280E+01  0.00000000000E+00 0.  1.
         21    1    1    2  503  502 -0.22926937493E+02 -0.23534497900E+01  0.10084950982E+02  0.25157293675E+02  0.00000000000E+00 0.  1.
         21    1    1    2  504  501  0.22926937493E+02  0.23534497900E+01  0.41615588944E+03  0.41679360301E+03  0.00000000000E+00 0.  1.
</event>
<event>
 4    1  0.3283867E+006  0.2037847E+02  0.7546771E-02  0.1528327E+00
         21   -1    0    0  504  501  0.00000000000E+00  0.00000000000E+00  0.78128246510E+02  0.78128246510E+02  0.00000000000E+00 0.  1.
         21   -1    0    0  503  502 -0.00000000000E+00 -0.00000000000E+00 -0.18026839936E+02  0.18026839936E+02  0.00000000000E+00 0. -1.
         21    1    1    2  503  501 -0.15194471048E+02  0.13579760314E+02  0.70422685025E+02  0.73311911766E+02  0.00000000000E+00 0.  1.
         21    1    1    2  504  502  0.15194471048E+02 -0.13579760314E+02 -0.10321278451E+02  0.22843174680E+02  0.00000000000E+00 0. -1.
</event>
<event>
 4    1  0.3283867E+006  0.2019614E+02  0.7546771E-02  0.1531058E+00
         21   -1    0    0  502  501  0.00000000000E+00  0.00000000000E+00  0.88869038106E+01  0.88869038106E+01  0.00000000000E+00 0. -1.
         21   -1    0    0  503  502 -0.00000000000E+00 -0.00000000000E+00 -0.90776807581E+02  0.90776807581E+02  0.00000000000E+00 0.  1.
         21    1    1    2  503  504 -0.57889430615E+00  0.20187846644E+02 -0.75983329305E+02  0.78621565763E+02  0.00000000000E+00 0.  1.
         21    1    1    2  504  501  0.57889430615E+00 -0.20187846644E+02 -0.59065744654E+01  0.21042145629E+02  0.00000000000E+00 0. -1.
</event>
<event>
 4    1  0.3283867E+006  0.2752479E+02  0.7546771E-02  0.1442407E+00
         21   -1    0    0  504  501  0.00000000000E+00  0.00000000000E+00  0.25462295203E+03  0.25462295203E+03  0.00000000000E+00 0.  1.
         21   -1    0    0  503  502 -0.00000000000E+00 -0.00000000000E+00 -0.31758726012E+01  0.31758726012E+01  0.00000000000E+00 0.  1.
         21    1    1    2  503  501  0.27366189119E+02 -0.29505480102E+01  0.93341141341E+02  0.97314863753E+02  0.00000000000E+00 0.  1.
         21    1    1    2  504  502 -0.27366189119E+02  0.29505480102E+01  0.15810593809E+03  0.16048396088E+03  0.00000000000E+00 0.  1.
</event>
<event>
 4    1  0.3283867E+006  0.4050500E+02  0.7546771E-02  0.1345552E+00
         21   -1    0    0  504  501  0.00000000000E+00  0.00000000000E+00  0.43970476026E+03  0.43970476026E+03  0.00000000000E+00 0. -1.
         21   -1    0    0  503  502 -0.00000000000E+00 -0.00000000000E+00 -0.58845787817E+01  0.58845787817E+01  0.00000000000E+00 0.  1.
         21    1    1    2  503  501 -0.69510734934E+01 -0.39904109463E+02  0.82137779840E+02  0.91582041099E+02  0.00000000000E+00 0.  1.
         21    1    1    2  504  502  0.69510734934E+01  0.39904109463E+02  0.35168240164E+03  0.35400729794E+03  0.00000000000E+00 0. -1.
</event>
<event>
 4    1  0.3283867E+006  0.3874913E+02  0.7546771E-02  0.1355976E+00
         21   -1    0    0  502  501  0.00000000000E+00  0.00000000000E+00  0.34831372489E+02  0.34831372489E+02  0.00000000000E+00 0.  1.
         21   -1    0    0  504  502 -0.00000000000E+00 -0.00000000000E+00 -0.52293155910E+02  0.52293155910E+02  0.00000000000E+00 0. -1.
         21    1    1    2  503  501  0.38288938668E+02  0.59541796131E+01  0.95266355673E+01  0.39903030767E+02  0.00000000000E+00 0.  1.
         21    1    1    2  504  503 -0.38288938668E+02 -0.59541796131E+01 -0.26988418988E+02  0.47221497632E+02  0.00000000000E+00 0. -1.
</event>
<event>
 4    1  0.3283867E+006  0.2940837E+02  0.7546771E-02  0.1424808E+00
         21   -1    0    0  503  501  0.00000000000E+00  0.00000000000E+00  0.16131984350E+03  0.16131984350E+03  0.00000000000E+00 0. -1.
         21   -1    0    0  504  502 -0.00000000000E+00 -0.00000000000E+00 -0.57853401485E+01  0.57853401485E+01  0.00000000000E+00 0. -1.
         21    1    1    2  503  502 -0.20282696400E+02  0.21294709437E+02  0.55141687150E+02  0.62493664359E+02  0.00000000000E+00 0. -1.
         21    1    1    2  504  501  0.20282696400E+02 -0.21294709437E+02  0.10039281620E+03  0.10461151929E+03  0.00000000000E+00 0. -1.
</event>
<event>
 4    1  0.3283867E+006  0.2353809E+02  0.7546771E-02  0.1485850E+00
         21   -1    0    0  502  501  0.00000000000E+00  0.00000000000E+00  0.85678785285E+02  0.85678785285E+02  0.00000000000E+00 0.  1.
         21   -1    0    0  503  502 -0.00000000000E+00 -0.00000000000E+00 -0.22063089245E+02  0.22063089245E+02  0.00000000000E+00 0.  1.
         21    1    1    2  503  504  0.11414508401E+02 -0.20585204641E+02 -0.13485687556E+02  0.27127576762E+02  0.00000000000E+00 0.  1.
         21    1    1    2  504  501 -0.11414508401E+02  0.20585204641E+02  0.77101383596E+02  0.80614297767E+02  0.00000000000E+00 0.  1.
</event>
<event>
 4    1  0.3283867E+006  0.3976505E+02  0.7546771E-02  0.1349868E+00
         21   -1    0    0  504  501  0.00000000000E+00  0.00000000000E+00  0.12596160641E+01  0.12596160641E+01  0.00000000000E+00 0.  1.
         21   -1    0    0  503  502 -0.00000000000E+00 -0.00000000000E+00 -0.13506996790E+04  0.13506996790E+04  0.00000000000E+00 0.  1.
         21    1    1    2  503  501 -0.85128394924E+01 -0.38843159094E+02 -0.85432282321E+03  0.85524776860E+03  0.00000000000E+00 0.  1.
         21    1    1    2  504  502  0.85128394924E+01  0.38843159094E+02 -0.49511723977E+03  0.49671152650E+03  0.00000000000E+00 0.  1.
</event>
<event>
 4    1  0.3283867E+006  0.2112633E+02  0.7546771E-02  0.1517469E+00
         21   -1    0    0  503  501  0.00000000000E+00  0.00000000000E+00  0.13918536304E+03  0.13918536304E+03  0.00000000000E+00 0.  1.
         21   -1    0    0  501  502 -0.00000000000E+00 -0.00000000000E+00 -0.13037596584E+02  0.13037596584E+02  0.00000000000E+00 0.  1.
         21    1    1    2  503  504 -0.21117010693E+02 -0.62748408245E+00  0.12916583353E+03  0.13088213945E+03  0.00000000000E+00 0.  1.
         21    1    1    2  504  502  0.21117010693E+02  0.62748408245E+00 -0.30180670696E+01  0.21340820174E+02  0.00000000000E+00 0.  1.
</event>
<event>
 4    1  0.3283867E+006  0.3449629E+02  0.7546771E-02  0.1384139E+00
         21   -1    0    0  503  501  0.00000000000E+00  0.00000000000E+00  0.31251810075E+02  0.31251810075E+02  0.00000000000E+00 0. -1.
         21   -1    0    0  504  502 -0.00000000000E+00 -0.00000000000E+00 -0.58721763231E+02  0.58721763231E+02  0.00000000000E+00 0.  1.
         21    1    1    2  503  502 -0.25527112039E+02 -0.23202600656E+02 -0.40408722084E+02  0.53130583911E+02  0.00000000000E+00 0.  1.
         21    1    1    2  504  501  0.25527112039E+02  0.23202600656E+02  0.12938768927E+02  0.36842989395E+02  0.00000000000E+00 0. -1.
</event>
<event>
 4    1  0.3283867E+006  0.4893550E+02  0.7546771E-02  0.1302855E+00
         21   -1    0    0  504  501  0.00000000000E+00  0.00000000000E+00  0.37024462572E+02  0.37024462572E+02  0.00000000000E+00 0. -1.
         21   -1    0    0  503  502 -0.00000000000E+00 -0.00000000000E+00 -0.53479683415E+03  0.53479683415E+03  0.00000000000E+00 0.  1.
         21    1    1    2  503  501  0.44688441990E+02  0.19940562764E+02 -0.51695084290E+03  0.51926183845E+03  0.00000000000E+00 0.  1.
         21    1    1    2  504  502 -0.44688441990E+02 -0.19940562764E+02  0.19178471330E+02  0.52559458268E+02  0.00000000000E+00 0. -1.
</event>
<event>
 4    1  0.3283867E+006  0.3493006E+02  0.7546771E-02  0.1381056E+00
         21   -1    0    0  503  501  0.00000000000E+00  0.00000000000E+00  0.15657318342E+03  0.15657318342E+03  0.00000000000E+00 0. -1.
         21   -1    0    0  504  502 -0.00000000000E+00 -0.00000000000E+00 -0.92153231174E+01  0.92153231174E+01  0.00000000000E+00 0.  1.
         21    1    1    2  503  502  0.30043364946E+02 -0.17818684613E+02  0.10625000959E+03  0.11184441799E+03  0.00000000000E+00 0. -1.
         21    1    1    2  504  501 -0.30043364946E+02  0.17818684613E+02  0.41107850716E+02  0.53944088547E+02  0.00000000000E+00 0.  1.
</event>
<event>
 4    1  0.3283867E+006  0.2156643E+02  0.7546771E-02  0.1511329E+00
         21   -1    0    0  502  501  0.00000000000E+00  0.00000000000E+00  0.22795335174E+02  0.22795335174E+02  0.00000000000E+00 0. -1.
         21   -1    0    0  504  502 -0.00000000000E+00 -0.00000000000E+00 -0.37645987709E+02  0.37645987709E+02  0.00000000000E+00 0.  1.
         21    1    1    2  503  501  0.21186414059E+02 -0.40307317107E+01  0.13026923590E+02  0.25195469375E+02  0.00000000000E+00 0. -1.
         21    1    1    2  504  503 -0.21186414059E+02  0.40307317107E+01 -0.27877576126E+02  0.35245853507E+02  0.00000000000E+00 0.  1.
</event>
<event>
 4    1  0.3283867E+006  0.2184757E+02  0.7546771E-02  0.1507499E+00
         21   -1    0    0  503  501  0.00000000000E+00  0.00000000000E+00  0.28949104606E+03  0.28949104606E+03  0.00000000000E+00 0. -1.
         21   -1    0    0  504  502 -0.00000000000E+00 -0.00000000000E+00 -0.24422081991E+01  0.24422081991E+01  0.00000000000E+00 0. -1.
         21    1    1    2  503  502  0.21683638019E+02  0.26713662610E+01  0.60327499493E+02  0.64161698469E+02  0.00000000000E+00 0. -1.
         21    1    1    2  504  501 -0.21683638019E+02 -0.26713662610E+01  0.22672133837E+03  0.22777155579E+03  0.00000000000E+00 0. -1.
</event>
<event>
 4    1  0.3283867E+006  0.2100841E+02  0.7546771E-02  0.1519145E+00
         21   -1    0    0  504  501  0.00000000000E+00  0.00000000000E+00  0.42272634875E+02  0.42272634875E+02  0.00000000000E+00 0. -1.
         21   -1    0    0  503  502 -0.00000000000E+00 -0.00000000000E+00 -0.26085687098E+02  0.26085687098E+02  0.00000000000E+00 0. -1.
         21    1    1    2  503  501  0.15147184680E+02 -0.14557337354E+02  0.34563155882E+02  0.40447064407E+02  0.00000000000E+00 0. -1.
         21    1    1    2  504  502 -0.15147184680E+02  0.14557337354E+02 -0.18376208105E+02  0.27911257566E+02  0.00000000000E+00 0. -1.
</event>
<event>
 4    1  0.3283867E+006  0.3497248E+02  0.7546771E-02  0.1380757E+00
         21   -1    0    0  503  501  0.00000000000E+00  0.00000000000E+00  0.10611542413E+02  0.10611542413E+02  0.00000000000E+00 0. -1.
         21   -1    0    0  504  502 -0.00000000000E+00 -0.00000000000E+00 -0.13195453662E+03  0.13195453662E+03  0.00000000000E+00 0.  1.
         21    1    1    2  503  502 -0.34829393967E+02  0.31603486512E+01 -0.86027208854E+02  0.92864175821E+02  0.00000000000E+00 0.  1.
         21    1    1    2  504  501  0.34829393967E+02 -0.31603486512E+01 -0.35315785347E+02  0.49701903207E+02  0.00000000000E+00 0. -1.
</event>
<event>
 4    1  0.3283867E+006  0.2218820E+02  0.7546771E-02  0.1502952E+00
         21   -1    0    0  504  501  0.00000000000E+00  0.00000000000E+00  0.76402893524E+00  0.76402893524E+00  0.00000000000E+00 0.  1.
         21   -1    0    0  503  502 -0.00000000000E+00 -0.00000000000E+00 -0.73656736172E+03  0.73656736172E+03  0.00000000000E+00 0.  1.
         21    1    1    2  503  501 -0.14177522749E+02 -0.17067925221E+02 -0.49833516323E+03  0.49882887961E+03  0.00000000000E+00 0.  1.
         21    1    1    2  504  502  0.14177522749E+02  0.17067925221E+02 -0.23746816956E+03  0.23850251105E+03  0.00000000000E+00 0.  1.
</event>
<event>
 4    1  0.3283867E+006  0.3599037E+02  0.7546771E-02  0.1373731E+00
         21   -1    0    0  504  501  0.00000000000E+00  0.00000000000E+00  0.40836887166E+02  0.40836887166E+02  0.00000000000E+00 0. -1.
         21   -1    0    0  503  502 -0.00000000000E+00 -0.00000000000E+00 -0.37646835122E+02  0.37646835122E+02  0.00000000000E+00 0.  1.
         21    1    1    2  503  501  0.35637612029E+02  0.50266502290E+01  0.17166588080E+02  0.39874783385E+02  0.00000000000E+00 0. -1.
         21    1    1    2  504  502 -0.35637612029E+02 -0.50266502290E+01 -0.13976536036E+02  0.38608938903E+02  0.00000000000E+00 0.  1.
</event>
<event>
 4    1  0.3283867E+006  0.2519177E+02  0.7546771E-02  0.1466669E+00
         21   -1    0    0  504  501  0.00000000000E+00  0.00000000000E+00  0.34752106206E+01  0.34752106206E+01  0.00000000000E+00 0.  1.
         21   -1    0    0  503  502 -0.00000000000E+00 -0.00000000000E+00 -0.20912402412E+03  0.20912402412E+03  0.00000000000E+00 0.  1.
         21    1    1    2  503  501 -0.24367373648E+02  0.63919174825E+01 -0.14067100028E+03  0.14290890745E+03  0.00000000000E+00 0.  1.
         21    1    1    2  504  502  0.24367373648E+02 -0.63919174825E+01 -0.64977813216E+02  0.69690327291E+02  0.00000000000E+00 0.  1.
</event>
<event>
 4    1  0.3283867E+006  0.2194482E+02  0.7546771E-02  0.1506191E+00
         21   -1    0    0  503  501  0.00000000000E+00  0.00000000000E+00  0.11071673094E+03  0.11071673094E+03  0.00000000000E+00 0.  1.
         21   -1    0    0  504  502 -0.00000000000E+00 -0.00000000000E+00 -0.43871991818E+01  0.43871991818E+01  0.00000000000E+00 0.  1.
         21    1    1    2  503  502  0.41113886937E+01  0.21556240169E+02  0.47837839784E+02  0.52631111735E+02  0.00000000000E+00 0.  1.
         21    1    1    2  504  501 -0.41113886937E+01 -0.21556240169E+02  0.58491691974E+02  0.62472818386E+02  0.00000000000E+00 0.  1.
</event>
<event>
 4    1  0.3283867E+006  0.2129172E+02  0.7546771E-02  0.1515140E+00
         21   -1    0    0  504  501  0.00000000000E+00  0.00000000000E+00  0.12246100421E+02  0.12246100421E+02  0.00000000000E+00 0.  1.
         21   -1    0    0  503  502 -0.00000000000E+00 -0.00000000000E+00 -0.37289869746E+02  0.37289869746E+02  0.00000000000E+00 0.  1.
         21    1    1    2  503  501  0.20756574260E+02 -0.47436320213E+01 -0.10410637420E+02  0.23700607403E+02  0.00000000000E+00 0.  1.
         21    1    1    2  504  502 -0.20756574260E+02  0.47436320213E+01 -0.14633131905E+02  0.25835362764E+02  0.00000000000E+00 0.  1.
</event>
<event>
 4    1  0.3283867E+006  0.2583135E+02  0.7546771E-02  0.1459714E+00
         21   -1    0    0  504  501  0.00000000000E+00  0.00000000000E+00  0.88939022259E+03  0.88939022259E+03  0.00000000000E+00 0.  1.
         21   -1    0    0  503  502 -0.00000000000E+00 -0.00000000000E+00 -0.75958972755E+01  0.75958972755E+01  0.00000000000E+00 0.  1.
         21    1    1    2  503  501  0.11333306240E+02  0.23212386352E+02  0.15128523365E+02  0.29935446041E+02  0.00000000000E+00 0.  1.
         21    1    1    2  504  502 -0.11333306240E+02 -0.23212386352E+02  0.86666580195E+03  0.86705067382E+03  0.00000000000E+00 0.  1.
</event>
<event>
 4    1  0.3283867E+006  0.2713133E+02  0.7546771E-02  0.1446293E+00
         21   -1    0    0  504  501  0.00000000000E+00  0.00000000000E+00  0.65646028866E+01  0.65646028866E+01  0.00000000000E+00 0.  1.
         21   -1    0    0  503  502 -0.00000000000E+00 -0.00000000000E+00 -0.49369699887E+03  0.49369699887E+03  0.00000000000E+00 0. -1.
         21    1    1    2  503  501  0.27110636901E+02 -0.10594551475E+01 -0.23668549225E+02  0.36004295589E+02  0.00000000000E+00 0.  1.
         21    1    1    2  504  502 -0.27110636901E+02  0.10594551475E+01 -0.46346384676E+03  0.46425730617E+03  0.00000000000E+00 0. -1.
</event>
<event>
 4    1  0.3283867E+006  0.2174680E+02  0.7546771E-02  0.1508864E+00
         21   -1    0    0  503  501  0.00000000000E+00  0.00000000000E+00  0.12591244497E+03  0.12591244497E+03  0.00000000000E+00 0. -1.
         21   -1    0    0  501  502 -0.00000000000E+00 -0.00000000000E+00 -0.12780740479E+02  0.12780740479E+02  0.00000000000E+00 0.  1.
         21    1    1    2  503  504  0.83620254215E+01  0.20074855419E+02  0.11483856238E+03  0.11687950504E+03  0.00000000000E+00 0. -1.
         21    1    1    2  504  502 -0.83620254215E+01 -0.20074855419E+02 -0.17068578854E+01  0.21813680411E+02  0.00000000000E+00 0.  1.
</event>
<event>
 4    1  0.3283867E+006  0.2445346E+02  0.7546771E-02  0.1475011E+00
         21   -1    0    0  504  501  0.00000000000E+00  0.00000000000E+00  0.71330513730E+01  0.71330513730E+01  0.00000000000E+00 0.  1.
         21   -1    0    0  501  502 -0.00000000000E+00 -0.00000000000E+00 -0.17537519416E+03  0.17537519416E+03  0.00000000000E+00 0. -1.
         21    1    1    2  503  502 -0.24294705988E+02  0.27819173437E+01 -0.15005113449E+03  0.15203063759E+03  0.00000000000E+00 0. -1.
         21    1    1    2  504  503  0.24294705988E+02 -0.27819173437E+01 -0.18191008291E+02  0.30477607941E+02  0.00000000000E+00 0.  1.
</event>
<event>
 4    1  0.3283867E+006  0.3803187E+02  0.7546771E-02  0.1360422E+00
         21   -1    0    0  504  501  0.00000000000E+00  0.00000000000E+00  0.54757868188E+02  0.54757868188E+02  0.00000000000E+00 0. -1.
         21   -1    0    0  503  502 -0.00000000000E+00 -0.00000000000E+00 -0.10344736316E+03  0.10344736316E+03  0.00000000000E+00 0.  1.
         21    1    1    2  503  501 -0.25194668878E+02  0.28489504340E+02 -0.92605024400E+02  0.10011050765E+03  0.00000000000E+00 0.  1.
         21    1    1    2  504  502  0.25194668878E+02 -0.28489504340E+02  0.43915529425E+02  0.58094723703E+02  0.00000000000E+00 0. -1.
</event>
<event>
 4    1  0.3283867E+006  0.3270968E+02  0.7546771E-02  0.1397422E+00
         21   -1    0    0  503  501  0.00000000000E+00  0.00000000000E+00  0.84189718082E+02  0.84189718082E+02  0.00000000000E+00 0. -1.
         21   -1    0    0  504  502 -0.00000000000E+00 -0.00000000000E+00 -0.22228020797E+02  0.22228020797E+02  0.00000000000E+00 0. -1.
         21    1    1    2  503  502  0.84600644562E+01  0.31596688185E+02 -0.38401819905E+01  0.32934334555E+02  0.00000000000E+00 0. -1.
         21    1    1    2  504  501 -0.84600644562E+01 -0.31596688185E+02  0.65801879275E+02  0.73483404324E+02  0.00000000000E+00 0. -1.
</event>
<event>
 4    1  0.3283867E+006  0.3345534E+02  0.7546771E-02  0.1391760E+00
         21   -1    0    0  503  501  0.00000000000E+00  0.00000000000E+00  0.54727649927E+02  0.54727649927E+02  0.00000000000E+00 0. -1.
         21   -1    0    0  501  502 -0.00000000000E+00 -0.00000000000E+00 -0.32449416642E+03  0.32449416642E+03  0.00000000000E+00 0. -1.
         21    1    1    2  503  504 -0.25776708241E+02  0.21326541350E+02  0.48655238421E+02  0.59047373181E+02  0.00000000000E+00 0. -1.
         21    1    1    2  504  502  0.25776708241E+02 -0.21326541350E+02 -0.31842175491E+03  0.32017444316E+03  0.00000000000E+00 0. -1.
</event>
<event>
 4    1  0.3283867E+006  0.3321728E+02  0.7546771E-02  0.1393549E+00
         21   -1    0    0  504  501  0.00000000000E+00  0.00000000000E+00  0.16302623529E+01  0.16302623529E+01  0.00000000000E+00 0. -1.
         21   -1    0    0  503  502 -0.00000000000E+00 -0.00000000000E+00 -0.15058392758E+04  0.15058392758E+04  0.00000000000E+00 0. -1.
         21    1    1    2  503  501  0.19705276033E+02 -0.26741157100E+02 -0.13113630700E+04  0.13117837050E+04  0.00000000000E+00 0. -1.
         21    1    1    2  504  502 -0.19705276033E+02  0.26741157100E+02 -0.19284594349E+03  0.19568583318E+03  0.00000000000E+00 0. -1.
</event>
<event>
 4    1  0.3283867E+006  0.3189139E+02  0.7546771E-02  0.1403842E+00
         21   -1    0    0  503  501  0.00000000000E+00  0.00000000000E+00  0.20970578867E+02  0.20970578867E+02  0.00000000000E+00 0. -1.
         21   -1    0    0  504  502 -0.00000000000E+00 -0.00000000000E+00 -0.17092275027E+03  0.17092275027E+03  0.00000000000E+00 0. -1.
         21    1    1    2  503  502  0.21945245979E+02 -0.23140162147E+02 -0.15617720940E+03  0.15940006794E+03  0.00000000000E+00 0. -1.
         21    1    1    2  504  501 -0.21945245979E+02  0.23140162147E+02  0.62250379901E+01  0.32493261197E+02  0.00000000000E+00 0. -1.
</event>
<event>
 4    1  0.3283867E+006  0.2444950E+02  0.7546771E-02  0.1475057E+00
         21   -1    0    0  503  501  0.00000000000E+00  0.00000000000E+00  0.37040999074E+03  0.37040999074E+03  0.00000000000E+00 0. -1.
         21   -1    0    0  504  502 -0.00000000000E+00 -0.00000000000E+00 -0.25526628304E+03  0.25526628304E+03  0.00000000000E+00 0. -1.
         21    1    1    2  503  502  0.23897721538E+02  0.51649837814E+01  0.36941952003E+03  0.37022771362E+03  0.00000000000E+00 0. -1.
         21    1    1    2  504  501 -0.23897721538E+02 -0.51649837814E+01 -0.25427581233E+03  0.25544856016E+03  0.00000000000E+00 0. -1.
</event>
<event>
 4    1  0.3283867E+006  0.3570949E+02  0.7546771E-02  0.1375643E+00
         21   -1    0    0  503  501  0.00000000000E+00  0.00000000000E+00  0.20942214147E+02  0.20942214147E+02  0.00000000000E+00 0. -1.
         21   -1    0    0  501  502 -0.00000000000E+00 -0.00000000000E+00 -0.10146029502E+03  0.10146029502E+03  0.00000000000E+00 0. -1.
         21    1    1    2  503  504 -0.24902985009E+02 -0.25593149761E+02 -0.15584824019E+01  0.35743486741E+02  0.00000000000E+00 0. -1.
         21    1    1    2  504  502  0.24902985009E+02  0.25593149761E+02 -0.78959598469E+02  0.86659022423E+02  0.00000000000E+00 0. -1.
</event>
<event>
 4    1  0.3283867E+006  0.2066954E+02  0.7546771E-02  0.1524036E+00
         21   -1    0    0  502  501  0.00000000000E+00  0.00000000000E+00  0.30159936385E+02  0.30159936385E+02  0.00000000000E+00 0. -1.
         21   -1    0    0  503  502 -0.00000000000E+00 -0.00000000000E+00 -0.15958816557E+02  0.15958816557E+02  0.00000000000E+00 0. -1.
         21    1    1    2  503  504  0.11384012484E+02  0.17252075625E+02 -0.62942433898E+00  0.20679120596E+02  0.00000000000E+00 0. -1.
         21    1    1    2  504  501 -0.11384012484E+02 -0.17252075625E+02  0.14830544168E+02  0.25439632346E+02  0.00000000000E+00 0. -1.
</event>
<event>
 4    1  0.3283867E+006  0.2184099E+02  0.7546771E-02  0.1507588E+00
         21   -1    0    0  504  501  0.00000000000E+00  0.00000000000E+00  0.43708656538E+02  0.43708656538E+02  0.00000000000E+00 0. -1.
         21   -1    0    0  503  502 -0.00000000000E+00 -0.00000000000E+00 -0.12212061340E+03  0.12212061340E+03  0.00000000000E+00 0.  1.
         21    1    1    2  503  501 -0.84924885286E+01  0.20122285138E+02 -0.11832890635E+03  0.12032771418E+03  0.00000000000E+00 0.  1.
         21    1    1    2  504  502  0.84924885286E+01 -0.20122285138E+02  0.39916949487E+02  0.45501555764E+02  0.00000000000E+00 0. -1.
</event>
<event>
 4    1  0.3283867E+006  0.2061669E+02  0.7546771E-02  0.1524809E+00
         21   -1    0    0  504  501  0.00000000000E+00  0.00000000000E+00  0.20482142727E+03  0.20482142727E+03  0.00000000000E+00 0.  1.
         21   -1    0    0  503  502 -0.00000000000E+00 -0.00000000000E+00 -0.29465123647E+02  0.29465123647E+02  0.00000000000E+00 0.  1.
         21    1    1    2  503  501  0.11376975889E+02  0.17193377569E+02 -0.25264647521E+02  0.32609051304E+02  0.00000000000E+00 0.  1.
         21    1    1    2  504  502 -0.11376975889E+02 -0.17193377569E+02  0.20062095115E+03  0.20167749962E+03  0.00000000000E+00 0.  1.
</event>
<event>
 4    1  0.3283867E+006  0.2474324E+02  0.7546771E-02  0.1471696E+00
         21   -1    0    0  504  501  0.00000000000E+00  0.00000000000E+00  0.93575855184E+01  0.93575855184E+01  0.00000000000E+00 0. -1.
         21   -1    0    0  501  502 -0.00000000000E+00 -0.00000000000E+00 -0.14108880259E+03  0.14108880259E+03  0.00000000000E+00 0. -1.
         21    1    1    2  503  502  0.68614124376E+01  0.23772864620E+02 -0.12095235364E+03  0.12345727975E+03  0.00000000000E+00 0. -1.
         21    1    1    2  504  503 -0.68614124376E+01 -0.23772864620E+02 -0.10778863430E+02  0.26989108354E+02  0.00000000000E+00 0. -1.
</event>
<event>
 4    1  0.3283867E+006  0.2287872E+02  0.7546771E-02  0.1494027E+00
         21   -1    0    0  503  501  0.00000000000E+00  0.00000000000E+00  0.20362930087E+03  0.20362930087E+03  0.00000000000E+00 0. -1.
         21   -1    0    0  504  502 -0.00000000000E+00 -0.00000000000E+00 -0.38551548132E+01  0.38551548132E+01  0.00000000000E+00 0. -1.
         21    1    1    2  503  502 -0.21080809665E+02  0.88901889118E+01  0.15977264118E+03  0.16140239423E+03  0.00000000000E+00 0. -1.
         21    1    1    2  504  501  0.21080809665E+02 -0.88901889118E+01  0.40001504882E+02  0.46082061454E+02  0.00000000000E+00 0. -1.
</event>
<event>
 4    1  0.3283867E+006  0.2235032E+02  0.7546771E-02  0.1500821E+00
         21   -1    0    0  503  501  0.00000000000E+00  0.00000000000E+00  0.23143178682E+03  0.23143178682E+03  0.00000000000E+00 0.  1.
         21   -1    0    0  504  502 -0.00000000000E+00 -0.00000000000E+00 -0.22993395123E+01  0.22993395123E+01  0.00000000000E+00 0.  1.
         21    1    1    2  503  502 -0.12969860832E+02  0.18202184789E+02  0.85639106683E+02  0.88507589587E+02  0.00000000000E+00 0.  1.
         21    1    1    2  504  501  0.12969860832E+02 -0.18202184789E+02  0.14349334062E+03  0.14522353674E+03  0.00000000000E+00 0.  1.
</event>
<event>
 4    1  0.3283867E+006  0.2350976E+02  0.7546771E-02  0.1486194E+00
         21   -1    0    0  503  501  0.00000000000E+00  0.00000000000E+00  0.14555634724E+04  0.14555634724E+04  0.00000000000E+00 0.  1.
         21   -1    0    0  501  502 -0.00000000000E+00 -0.00000000000E+00 -0.55573840745E+00  0.55573840745E+00  0.00000000000E+00 0.  1.
         21    1    1    2  503  504  0.18707955690E+02  0.14238015754E+02  0.11372444324E+04  0.11374874099E+04  0.00000000000E+00 0.  1.
         21    1    1    2  504  502 -0.18707955690E+02 -0.14238015754E+02  0.31776330166E+03  0.31863180095E+03  0.00000000000E+00 0.  1.
</event>
<event>
 4    1  0.3283867E+006  0.2949168E+02  0.7546771E-02  0.1424066E+00
         21   -1    0    0  503  501  0.00000000000E+00  0.00000000000E+00  0.37856689049E+02  0.37856689049E+02  0.00000000000E+00 0. -1.
         21   -1    0    0  501  502 -0.00000000000E+00 -0.00000000000E+00 -0.48734064625E+02  0.48734064625E+02  0.00000000000E+00 0. -1.
         21    1    1    2  503  504 -0.28343906603E+02  0.81475244310E+01  0.26038060267E+02  0.39341324055E+02  0.00000000000E+00 0. -1.
         21    1    1    2  504  502  0.28343906603E+02 -0.81475244310E+01 -0.36915435843E+02  0.47249429619E+02  0.00000000000E+00 0. -1.
</event>
<event>
 4    1  0.3283867E+006  0.2146407E+02  0.7546771E-02  0.1512741E+00
         21   -1    0    0  504  501  0.00000000000E+00  0.00000000000E+00  0.51096803805E+01  0.51096803805E+01  0.00000000000E+00 0.  1.
         21   -1    0    0  503  502 -0.00000000000E+00 -0.00000000000E+00 -0.12732735935E+03  0.12732735935E+03  0.00000000000E+00 0.  1.
         21    1    1    2  503  501 -0.20076563136E+02 -0.75919606982E+01 -0.96883825970E+02  0.99232968257E+02  0.00000000000E+00 0.  1.
         21    1    1    2  504  502  0.20076563136E+02  0.75919606982E+01 -0.25333852999E+02  0.33204071473E+02  0.00000000000E+00 0.  1.
</event>
<event>
 4    1  0.3283867E+006  0.2104719E+02  0.7546771E-02  0.1518592E+00
         21   -1    0    0  504  501  0.00000000000E+00  0.00000000000E+00  0.92592418397E+02  0.92592418397E+02  0.00000000000E+00 0. -1.
         21   -1    0    0  503  502 -0.00000000000E+00 -0.00000000000E+00 -0.18164525435E+03  0.18164525435E+03  0.00000000000E+00 0. -1.
         21    1    1    2  503  501  0.47803513571E-01 -0.21047133020E+02  0.90774626816E+02  0.93182707447E+02  0.00000000000E+00 0. -1.
         21    1    1    2  504  502 -0.47803513571E-01  0.21047133020E+02 -0.17982746276E+03  0.18105496529E+03  0.00000000000E+00 0. -1.
</event>
<event>
 4    1  0.3283867E+006  0.2521203E+02  0.7546771E-02  0.1466445E+00
         21   -1    0    0  503  501  0.00000000000E+00  0.00000000000E+00  0.31195693228E+03  0.31195693228E+03  0.00000000000E+00 0. -1.
         21   -1    0    0  501  502 -0.00000000000E+00 -0.00000000000E+00 -0.19754661309E+02  0.19754661309E+02  0.00000000000E+00 0. -1.
         21    1    1    2  503  504  0.24462921244E+02 -0.61001455766E+01  0.30317053853E+03  0.30421706350E+03  0.00000000000E+00 0. -1.
         21    1    1    2  504  502 -0.24462921244E+02  0.61001455766E+01 -0.10968267556E+02  0.27494530093E+02  0.00000000000E+00 0. -1.
</event>
<event>
 4    1  0.3283867E+006  0.2832869E+02  0.7546771E-02  0.1434699E+00
         21   -1    0    0  504  501  0.00000000000E+00  0.00000000000E+00  0.64582781462E+02  0.64582781462E+02  0.00000000000E+00 0. -1.
         21   -1    0    0  501  502 -0.00000000000E+00 -0.00000000000E+00 -0.29977865089E+02  0.29977865089E+02  0.00000000000E+00 0.  1.
         21    1    1    2  503  502  0.78054370236E+01 -0.27232150057E+02 -0.18875159112E+02  0.34040952915E+02  0.00000000000E+00 0.  1.
         21    1    1    2  504  503 -0.78054370236E+01  0.27232150057E+02  0.53480075485E+02  0.60519693636E+02  0.00000000000E+00 0. -1.
</event>
<event>
 4    1  0.3283867E+006  0.8837713E+02  0.7546771E-02  0.1185631E+00
         21   -1    0    0  503  501  0.00000000000E+00  0.00000000000E+00  0.59320654432E+02  0.59320654432E+02  0.00000000000E+00 0.  1.
         21   -1    0    0  504  502 -0.00000000000E+00 -0.00000000000E+00 -0.13404594869E+03  0.13404594869E+03  0.00000000000E+00 0. -1.
         21    1    1    2  503  502  0.30291530262E+02 -0.83023736300E+02 -0.50245195913E+02  0.10166168062E+03  0.00000000000E+00 0.  1.
         21    1    1    2  504  501 -0.30291530262E+02  0.83023736300E+02 -0.24480098340E+02  0.91704922493E+02  0.00000000000E+00 0. -1.
</event>
<event>
 4    1  0.3283867E+006  0.2043260E+02  0.7546771E-02  0.1527522E+00
         21   -1    0    0  504  501  0.00000000000E+00  0.00000000000E+00  0.11944048553E+01  0.11944048553E+01  0.00000000000E+00 0. -1.
         21   -1    0    0  503  502 -0.00000000000E+00 -0.00000000000E+00 -0.47906876422E+03  0.47906876422E+03  0.00000000000E+00 0. -1.
         21    1    1    2  503  501 -0.15680389258E+01 -0.20372344387E+02 -0.36380054323E+03  0.36437388274E+03  0.00000000000E+00 0. -1.
         21    1    1    2  504  502  0.15680389258E+01  0.20372344387E+02 -0.11407381613E+03  0.11588928634E+03  0.00000000000E+00 0. -1.
</event>
<event>
 4    1  0.3283867E+006  0.2577322E+02  0.7546771E-02  0.1460336E+00
         21   -1    0    0  503  501  0.00000000000E+00  0.00000000000E+00  0.12756270251E+03  0.12756270251E+03  0.00000000000E+00 0.  1.
         21   -1    0    0  504  502 -0.00000000000E+00 -0.00000000000E+00 -0.23572568614E+03  0.23572568614E+03  0.00000000000E+00 0.  1.
         21    1    1    2  503  502  0.25380360338E+02 -0.44828734348E+01 -0.23370817091E+03  0.23512500504E+03  0.00000000000E+00 0.  1.
         21    1    1    2  504  501 -0.25380360338E+02  0.44828734348E+01  0.12554518728E+03  0.12816338360E+03  0.00000000000E+00 0.  1.
</event>
<event>
 4    1  0.3283867E+006  0.2638219E+02  0.7546771E-02  0.1453915E+00
         21   -1    0    0  504  501  0.00000000000E+00  0.00000000000E+00  0.38014653061E+02  0.38014653061E+02  0.00000000000E+00 0.  1.
         21   -1    0    0  501  502 -0.00000000000E+00 -0.00000000000E+00 -0.36957861053E+02  0.36957861053E+02  0.00000000000E+00 0. -1.
         21    1    1    2  503  502  0.26169000908E+02 -0.33471614175E+01 -0.26099804287E+02  0.37110913245E+02  0.00000000000E+00 0. -1.
         21    1    1    2  504  503 -0.26169000908E+02  0.33471614175E+01  0.27156596294E+02  0.37861600869E+02  0.00000000000E+00 0.  1.
</event>
<event>
 4    1  0.3283867E+006  0.2522560E+02  0.7546771E-02  0.1466295E+00
         21   -1    0    0  504  501  0.00000000000E+00  0.00000000000E+00  0.52603890725E+02  0.52603890725E+02  0.00000000000E+00 0.  1.
         21   -1    0    0  503  502 -0.00000000000E+00 -0.00000000000E+00 -0.37278692660E+02  0.37278692660E+02  0.00000000000E+00 0.  1.
         21    1    1    2  503  501  0.24329573255E+02 -0.66635502853E+01 -0.29274319509E+02  0.38643457660E+02  0.00000000000E+00 0.  1.
         21    1    1    2  504  502 -0.24329573255E+02  0.66635502853E+01  0.44599517574E+02  0.51239125725E+02  0.00000000000E+00 0.  1.
</event>
<event>
 4    1  0.3283867E+006  0.2004479E+02  0.7546771E-02  0.1533352E+00
         21   -1    0    0  502  501  0.00000000000E+00  0.00000000000E+00  0.83963356904E+02  0.83963356904E+02  0.00000000000E+00 0. -1.
         21   -1    0    0  504  502 -0.00000000000E+00 -0.00000000000E+00 -0.95804708743E+01  0.95804708743E+01  0.00000000000E+00 0. -1.
         21    1    1    2  503  501  0.18145020457E+02 -0.85177266345E+01  0.70281066507E+02  0.73083662632E+02  0.00000000000E+00 0. -1.
         21    1    1    2  504  503 -0.18145020457E+02  0.85177266345E+01  0.41018195229E+01  0.20460165146E+02  0.00000000000E+00 0. -1.
</event>
<event>
 4    1  0.3283867E+006  0.2284357E+02  0.7546771E-02  0.1494472E+00
         21   -1    0    0  504  501  0.00000000000E+00  0.00000000000E+00  0.56640800162E+02  0.56640800162E+02  0.00000000000E+00 0.  1.
         21   -1    0    0  503  502 -0.00000000000E+00 -0.00000000000E+00 -0.18932828404E+03  0.18932828404E+03  0.00000000000E+00 0. -1.
         21    1    1    2  503  501 -0.22695754137E+02 -0.25944616668E+01 -0.18629868005E+03  0.18769397080E+03  0.00000000000E+00 0. -1.
         21    1    1    2  504  502  0.22695754137E+02  0.25944616668E+01  0.53611196170E+02  0.58275113402E+02  0.00000000000E+00 0.  1.
</event>
<event>
 4    1  0.3283867E+006  0.3179394E+02  0.7546771E-02  0.1404622E+00
         21   -1    0    0  503  501  0.00000000000E+00  0.00000000000E+00  0.21608259659E+02  0.21608259659E+02  0.00000000000E+00 0.  1.
         21   -1    0    0  504  502 -0.00000000000E+00 -0.00000000000E+00 -0.78135036633E+02  0.78135036633E+02  0.00000000000E+00 0. -1.
         21    1    1    2  503  502 -0.15682817969E+02 -0.27656892426E+02  0.33286774955E+01  0.31967711397E+02  0.00000000000E+00 0.  1.
         21    1    1    2  504  501  0.15682817969E+02  0.27656892426E+02 -0.59855454469E+02  0.67775584895E+02  0.00000000000E+00 0. -1.
</event>
<event>
 4    1  0.3283867E+006  0.2440339E+02  0.7546771E-02  0.1475589E+00
         21   -1    0    0  503  501  0.00000000000E+00  0.00000000000E+00  0.50527126324E+02  0.50527126324E+02  0.00000000000E+00 0. -1.
         21   -1    0    0  504  502 -0.00000000000E+00 -0.00000000000E+00 -0.53929172972E+02  0.53929172972E+02  0.00000000000E+00 0.  1.
         21    1    1    2  503  502  0.18899122299E+02  0.15438548607E+02  0.44468464835E+02  0.50724451417E+02  0.00000000000E+00 0. -1.
         21    1    1    2  504  501 -0.18899122299E+02 -0.15438548607E+02 -0.47870511484E+02  0.53731847879E+02  0.00000000000E+00 0.  1.
</event>
<event>
 4    1  0.3283867E+006  0.2337223E+02  0.7546771E-02  0.1487876E+00
         21   -1    0    0  502  501  0.00000000000E+00  0.00000000000E+00  0.95514474545E+03  0.95514474545E+03  0.00000000000E+00 0. -1.
         21   -1    0    0  503  502 -0.00000000000E+00 -0.00000000000E+00 -0.69130363650E+01  0.69130363650E+01  0.00000000000E+00 0.  1.
         21    1    1    2  503  504 -0.14887880092E+01  0.23324765935E+02  0.13414183098E+02  0.26948126166E+02  0.00000000000E+00 0.  1.
         21    1    1    2  504  501  0.14887880092E+01 -0.23324765935E+02  0.93481752599E+03  0.93510965565E+03  0.00000000000E+00 0. -1.
</event>
<event>
 4    1  0.3283867E+006  0.2653703E+02  0.7546771E-02  0.1452315E+00
         21   -1    0    0  503  501  0.00000000000E+00  0.00000000000E+00  0.31260228115E+03  0.31260228115E+03  0.00000000000E+00 0.  1.
         21   -1    0    0  504  502 -0.00000000000E+00 -0.00000000000E+00 -0.23238379374E+01  0.23238379374E+01  0.00000000000E+00 0.  1.
         21    1    1    2  503  502 -0.15669233489E+02 -0.21417031281E+02  0.18268026478E+03  0.18459765234E+03  0.00000000000E+00 0.  1.
         21    1    1    2  504  501  0.15669233489E+02  0.21417031281E+02  0.12759817843E+03  0.13032846675E+03  0.00000000000E+00 0.  1.
</event>
<event>
 4    1  0.3283867E+006  0.2593108E+02  0.7546771E-02  0.1458651E+00
         21   -1    0    0  504  501  0.00000000000E+00  0.00000000000E+00  0.10307703358E+02  0.10307703358E+02  0.00000000000E+00 0. -1.
         21   -1    0    0  501  502 -0.00000000000E+00 -0.00000000000E+00 -0.71942353387E+02  0.71942353387E+02  0.00000000000E+00 0. -1.
         21    1    1    2  503  502 -0.12812171110E+02  0.22544831689E+02 -0.43374598113E+02  0.50534907993E+02  0.00000000000E+00 0. -1.
         21    1    1    2  504  503  0.12812171110E+02 -0.22544831689E+02 -0.18260051916E+02  0.31715148752E+02  0.00000000000E+00 0. -1.
</event>
<event>
 4    1  0.3283867E+006  0.6150525E+02  0.7546771E-02  0.1254802E+00
         21   -1    0    0  504  501  0.00000000000E+00  0.00000000000E+00  0.20194105774E+03  0.20194105774E+03  0.00000000000E+00 0.  1.
         21   -1    0    0  503  502 -0.00000000000E+00 -0.00000000000E+00 -0.91290898686E+02  0.91290898686E+02  0.00000000000E+00 0. -1.
         21    1    1    2  503  501 -0.49767824923E+02 -0.36139444536E+02 -0.75385544322E+02  0.97292734270E+02  0.00000000000E+00 0. -1.
         21    1    1    2  504  502  0.49767824923E+02  0.36139444536E+02  0.18603570337E+03  0.19593922215E+03  0.00000000000E+00 0.  1.
</event>
<event>
 4    1  0.3283867E+006  0.2061276E+02  0.7546771E-02  0.1524866E+00
         21   -1    0    0  502  501  0.00000000000E+00  0.00000000000E+00  0.37878001106E+03  0.37878001106E+03  0.00000000000E+00 0.  1.
         21   -1    0    0  504  502 -0.00000000000E+00 -0.00000000000E+00 -0.12506665373E+01  0.12506665373E+01  0.00000000000E+00 0.  1.
         21    1    1    2  503  501  0.64482683580E+01 -0.19578199600E+02  0.24977712891E+03  0.25062621609E+03  0.00000000000E+00 0.  1.
         21    1    1    2  504  503 -0.64482683580E+01  0.19578199600E+02  0.12775221561E+03  0.12940446151E+03  0.00000000000E+00 0.  1.
</event>
<event>
 4    1  0.3283867E+006  0.4335956E+02  0.7546771E-02  0.1329849E+00
         21   -1    0    0  503  501  0.00000000000E+00  0.00000000000E+00  0.28244590122E+03  0.28244590122E+03  0.00000000000E+00 0. -1.
         21   -1    0    0  501  502 -0.00000000000E+00 -0.00000000000E+00 -0.87076939752E+02  0.87076939752E+02  0.00000000000E+00 0. -1.
         21    1    1    2  503  504 -0.36244700192E+02 -0.23798598268E+02  0.27524377466E+03  0.27863809334E+03  0.00000000000E+00 0. -1.
         21    1    1    2  504  502  0.36244700192E+02  0.23798598268E+02 -0.79874813186E+02  0.90884747637E+02  0.00000000000E+00 0. -1.
</event>
<event>
 4    1  0.3283867E+006  0.3008110E+02  0.7546771E-02  0.1418893E+00
         21   -1    0    0  503  501  0.00000000000E+00  0.00000000000E+00  0.52483048422E+02  0.52483048422E+02  0.00000000000E+00 0.  1.
         21   -1    0    0  504  502 -0.00000000000E+00 -0.00000000000E+00 -0.20767175916E+02  0.20767175916E+02  0.00000000000E+00 0.  1.
         21    1    1    2  503  502 -0.16444059258E+00 -0.30080649786E+02  0.30949276256E+02  0.43159358580E+02  0.00000000000E+00 0.  1.
         21    1    1    2  504  501  0.16444059258E+00  0.30080649786E+02  0.76659624913E+00  0.30090865758E+02  0.00000000000E+00 0.  1.
</event>
<event>
 4    1  0.3283867E+006  0.2174537E+02  0.7546771E-02  0.1508884E+00
         21   -1    0    0  504  501  0.00000000000E+00  0.00000000000E+00  0.64256312984E+01  0.64256312984E+01  0.00000000000E+00 0. -1.
         21   -1    0    0  503  502 -0.00000000000E+00 -0.00000000000E+00 -0.13169843402E+03  0.13169843402E+03  0.00000000000E+00 0. -1.
         21    1    1    2  503  501  0.18779767369E+02 -0.10962724171E+02 -0.10851069060E+03  0.11066811175E+03  0.00000000000E+00 0. -1.
         21    1    1    2  504  502 -0.18779767369E+02  0.10962724171E+02 -0.16762112125E+02  0.27455953573E+02  0.00000000000E+00 0. -1.
</event>
<event>
 4    1  0.3283867E+006  0.2429055E+02  0.7546771E-02  0.1476899E+00
         21   -1    0    0  504  501  0.00000000000E+00  0.00000000000E+00  0.70131841488E+02  0.70131841488E+02  0.00000000000E+00 0. -1.
         21   -1    0    0  501  502 -0.00000000000E+00 -0.00000000000E+00 -0.73588459251E+02  0.73588459251E+02  0.00000000000E+00 0. -1.
         21    1    1    2  503  502  0.23961553561E+02 -0.39843092982E+01 -0.69356032044E+02  0.73486665121E+02  0.00000000000E+00 0. -1.
         21    1    1    2  504  503 -0.23961553561E+02  0.39843092982E+01  0.65899414281E+02  0.70233635619E+02  0.00000000000E+00 0. -1.
</event>
<event>
 4    1  0.3283867E+006  0.2765525E+02  0.7546771E-02  0.1441135E+00
         21   -1    0    0  503  501  0.00000000000E+00  0.00000000000E+00  0.53081009300E+01  0.53081009300E+01  0.00000000000E+00 0. -1.
         21   -1    0    0  504  502 -0.00000000000E+00 -0.00000000000E+00 -0.17092213630E+03  0.17092213630E+03  0.00000000000E+00 0. -1.
         21    1    1    2  503  502  0.25896797094E+02  0.97040702290E+01 -0.47890860614E+02  0.55302329146E+02  0.00000000000E+00 0. -1.
         21    1    1    2  504  501 -0.25896797094E+02 -0.97040702290E+01 -0.11772317475E+03  0.12092790808E+03  0.00000000000E+00 0. -1.
</event>
<event>
 4    1  0.3283867E+006  0.2006149E+02  0.7546771E-02  0.1533098E+00
         21   -1    0    0  504  501  0.00000000000E+00  0.00000000000E+00  0.25318062261E+03  0.25318062261E+03  0.00000000000E+00 0. -1.
         21   -1    0    0  503  502 -0.00000000000E+00 -0.00000000000E+00 -0.35973293345E+03  0.35973293345E+03  0.00000000000E+00 0. -1.
         21    1    1    2  503  501 -0.19920268735E+02  0.23761614832E+01 -0.35905508067E+03  0.35961509174E+03  0.00000000000E+00 0. -1.
         21    1    1    2  504  502  0.19920268735E+02 -0.23761614832E+01  0.25250276984E+03  0.25329846432E+03  0.00000000000E+00 0. -1.
</event>
<event>
 4    1  0.3283867E+006  0.3402511E+02  0.7546771E-02  0.1387549E+00
         21   -1    0    0  503  501  0.00000000000E+00  0.00000000000E+00  0.51275252253E+02  0.51275252253E+02  0.00000000000E+00 0. -1.
         21   -1    0    0  504  502 -0.00000000000E+00 -0.00000000000E+00 -0.83201089657E+02  0.83201089657E+02  0.00000000000E+00 0.  1.
         21    1    1    2  503  502 -0.32407636957E+02 -0.10365975305E+02 -0.73357292016E+02  0.80864087635E+02  0.00000000000E+00 0.  1.
         21    1    1    2  504  501  0.32407636957E+02  0.10365975305E+02  0.41431454612E+02  0.53612254275E+02  0.00000000000E+00 0. -1.
</event>
<event>
 4    1  0.3283867E+006  0.2351710E+02  0.7546771E-02  0.1486105E+00
         21   -1    0    0  503  501  0.00000000000E+00  0.00000000000E+00  0.56305728824E+01  0.56305728824E+01  0.00000000000E+00 0. -1.
         21   -1    0    0  504  502 -0.00000000000E+00 -0.00000000000E+00 -0.99041930133E+02  0.99041930133E+02  0.00000000000E+00 0. -1.
         21    1    1    2  503  502  0.32666495399E+01  0.23289115708E+02 -0.51463577909E+02  0.56582274264E+02  0.00000000000E+00 0. -1.
         21    1    1    2  504  501 -0.32666495399E+01 -0.23289115708E+02 -0.41947779342E+02  0.48090228751E+02  0.00000000000E+00 0. -1.
</event>
<event>
 4    1  0.3283867E+006  0.9633226E+02  0.7546771E-02  0.1170320E+00
         21   -1    0    0  504  501  0.00000000000E+00  0.00000000000E+00  0.19251375843E+03  0.19251375843E+03  0.00000000000E+00 0.  1.
         21   -1    0    0  503  502 -0.00000000000E+00 -0.00000000000E+00 -0.45793640426E+03  0.45793640426E+03  0.00000000000E+00 0.  1.
         21    1    1    2  503  501 -0.65291329262E+02  0.70830413833E+02 -0.44034344357E+03  0.45075742200E+03  0.00000000000E+00 0.  1.
         21    1    1    2  504  502  0.65291329262E+02 -0.70830413833E+02  0.17492079774E+03  0.19969274069E+03  0.00000000000E+00 0.  1.
</event>
<event>
 4    1  0.3283867E+006  0.2029259E+02  0.7546771E-02  0.1529609E+00
         21   -1    0    0  504  501  0.00000000000E+00  0.00000000000E+00  0.65452652974E+01  0.65452652974E+01  0.00000000000E+00 0. -1.
         21   -1    0    0  503  502 -0.00000000000E+00 -0.00000000000E+00 -0.58393307421E+03  0.58393307421E+03  0.00000000000E+00 0. -1.
         21    1    1    2  503  501 -0.19096523370E+02  0.68638125957E+01 -0.98127099432E+01  0.22540594593E+02  0.00000000000E+00 0. -1.
         21    1    1    2  504  502  0.19096523370E+02 -0.68638125957E+01 -0.56757509897E+03  0.56793774492E+03  0.00000000000E+00 0. -1.
</event>
<event>
 4    1  0.3283867E+006  0.2607230E+02  0.7546771E-02  0.1457156E+00
         21   -1    0    0  503  501  0.00000000000E+00  0.00000000000E+00  0.30207858661E+01  0.30207858661E+01  0.00000000000E+00 0.  1.
         21   -1    0    0  504  502 -0.00000000000E+00 -0.00000000000E+00 -0.24480289498E+03  0.24480289498E+03  0.00000000000E+00 0.  1.
         21    1    1    2  503  502 -0.25628218076E+02 -0.47915778542E+01 -0.85674298821E+02  0.89553616669E+02  0.00000000000E+00 0.  1.
         21    1    1    2  504  501  0.25628218076E+02  0.47915778542E+01 -0.15610781030E+03  0.15827006418E+03  0.00000000000E+00 0.  1.
</event>
<event>
 4    1  0.3283867E+006  0.2466190E+02  0.7546771E-02  0.1472621E+00
         21   -1    0    0  503  501  0.00000000000E+00  0.00000000000E+00  0.19805459609E+02  0.19805459609E+02  0.00000000000E+00 0.  1.
         21   -1    0    0  504  502 -0.00000000000E+00 -0.00000000000E+00 -0.39975545871E+02  0.39975545871E+02  0.00000000000E+00 0. -1.
         21    1    1    2  503  502  0.23549545723E+02  0.73231353614E+01 -0.24476035755E+02  0.34746017636E+02  0.00000000000E+00 0. -1.
         21    1    1    2  504  501 -0.23549545723E+02 -0.73231353614E+01  0.43059494933E+01  0.25034987844E+02  0.00000000000E+00 0.  1.
</event>
<event>
 4    1  0.3283867E+006  0.2836194E+02  0.7546771E-02  0.1434387E+00
         21   -1    0    0  503  501  0.00000000000E+00  0.00000000000E+00  0.27464242852E+01  0.27464242852E+01  0.00000000000E+00 0. -1.
         21   -1    0    0  504  502 -0.00000000000E+00 -0.00000000000E+00 -0.29343068041E+03  0.29343068041E+03  0.00000000000E+00 0. -1.
         21    1    1    2  503  502 -0.73177958704E+01  0.27401628563E+02 -0.15170070005E+03  0.15432919937E+03  0.00000000000E+00 0. -1.
         21    1    1    2  504  501  0.73177958704E+01 -0.27401628563E+02 -0.13898355608E+03  0.14184790532E+03  0.00000000000E+00 0. -1.
</event>
<event>
 4    1  0.3283867E+006  0.2682481E+02  0.7546771E-02  0.1449376E+00
         21   -1    0    0  504  501  0.00000000000E+00  0.00000000000E+00  0.27042645534E+00  0.27042645534E+00  0.00000000000E+00 0. -1.
         21   -1    0    0  503  502 -0.00000000000E+00 -0.00000000000E+00 -0.26999354162E+04  0.26999354162E+04  0.00000000000E+00 0. -1.
         21    1    1    2  503  501  0.17374809867E+02 -0.20437374700E+02 -0.11874374241E+04  0.11877403783E+04  0.00000000000E+00 0. -1.
         21    1    1    2  504  502 -0.17374809867E+02  0.20437374700E+02 -0.15122275657E+04  0.15124654643E+04  0.00000000000E+00 0. -1.
</event>
<event>
 4    1  0.3283867E+006  0.2136279E+02  0.7546771E-02  0.1514148E+00
         21   -1    0    0  504  501  0.00000000000E+00  0.00000000000E+00  0.10740257414E+03  0.10740257414E+03  0.00000000000E+00 0. -1.
         21   -1    0    0  503  502 -0.00000000000E+00 -0.00000000000E+00 -0.83286314955E+01  0.83286314955E+01  0.00000000000E+00 0. -1.
         21    1    1    2  503  501 -0.13463982003E+02  0.16585833797E+02  0.90386879607E+01  0.23196262073E+02  0.00000000000E+00 0. -1.
         21    1    1    2  504  502  0.13463982003E+02 -0.16585833797E+02  0.90035254683E+02  0.92534943562E+02  0.00000000000E+00 0. -1.
</event>
<event>
 4    1  0.3283867E+006  0.4598441E+02  0.7546771E-02  0.1316589E+00
         21   -1    0    0  502  501  0.00000000000E+00  0.00000000000E+00  0.11170916602E+03  0.11170916602E+03  0.00000000000E+00 0. -1.
         21   -1    0    0  503  502 -0.00000000000E+00 -0.00000000000E+00 -0.20002966292E+02  0.20002966292E+02  0.00000000000E+00 0. -1.
         21    1    1    2  503  504  0.35538028225E+02  0.29182434185E+02  0.30594943073E+02  0.55232385941E+02  0.00000000000E+00 0. -1.
         21    1    1    2  504  501 -0.35538028225E+02 -0.29182434185E+02  0.61111256653E+02  0.76479746370E+02  0.00000000000E+00 0. -1.
</event>
<event>
 4    1  0.3283867E+006  0.3510621E+02  0.7546771E-02  0.1379818E+00
         21   -1    0    0  503  501  0.00000000000E+00  0.00000000000E+00  0.22854673433E+04  0.22854673433E+04  0.00000000000E+00 0. -1.
         21   -1    0    0  504  502 -0.00000000000E+00 -0.00000000000E+00 -0.86179707510E+00  0.86179707510E+00  0.00000000000E+00 0. -1.
         21    1    1    2  503  502 -0.21259788042E+01 -0.35041780471E+02  0.44294327877E+03  0.44433230174E+03  0.00000000000E+00 0. -1.
         21    1    1    2  504  501  0.21259788042E+01  0.35041780471E+02  0.18416622674E+04  0.18419968386E+04  0.00000000000E+00 0. -1.
</event>
<event>
 4    1  0.3283867E+006  0.2315800E+02  0.7546771E-02  0.1490524E+00
         21   -1    0    0  503  501  0.00000000000E+00  0.00000000000E+00  0.18484882144E+02  0.18484882144E+02  0.00000000000E+00 0. -1.
         21   -1    0    0  501  502 -0.00000000000E+00 -0.00000000000E+00 -0.64500404411E+02  0.64500404411E+02  0.00000000000E+00 0.  1.
         21    1    1    2  503  504 -0.22556949960E+02 -0.52418410191E+01  0.77695007218E+01  0.24426584498E+02  0.00000000000E+00 0. -1.
         21    1    1    2  504  502  0.22556949960E+02  0.52418410191E+01 -0.53785022989E+02  0.58558702057E+02  0.00000000000E+00 0.  1.
</event>
<event>
 4    1  0.3283867E+006  0.2627855E+02  0.7546771E-02  0.1454993E+00
         21   -1    0    0  503  501  0.00000000000E+00  0.00000000000E+00  0.69117407435E+01  0.69117407435E+01  0.00000000000E+00 0. -1.
         21   -1    0    0  501  502 -0.00000000000E+00 -0.00000000000E+00 -0.21458793840E+03  0.21458793840E+03  0.00000000000E+00 0.  1.
         21    1    1    2  503  504 -0.11060785720E+02  0.23837393041E+02 -0.22876779460E+02  0.34841201561E+02  0.00000000000E+00 0. -1.
         21    1    1    2  504  502  0.11060785720E+02 -0.23837393041E+02 -0.18479941820E+03  0.18665847758E+03  0.00000000000E+00 0.  1.
</event>
<event>
 4    1  0.3283867E+006  0.2127986E+02  0.7546771E-02  0.1515306E+00
         21   -1    0    0  503  501  0.00000000000E+00  0.00000000000E+00  0.88256221330E+03  0.88256221330E+03  0.00000000000E+00 0. -1.
         21   -1    0    0  504  502 -0.00000000000E+00 -0.00000000000E+00 -0.51917060301E+00  0.51917060301E+00  0.00000000000E+00 0. -1.
         21    1    1    2  503  502 -0.20631678195E+02  0.52121326924E+01  0.39323068962E+03  0.39380605345E+03  0.00000000000E+00 0. -1.
         21    1    1    2  504  501  0.20631678195E+02 -0.52121326924E+01  0.48881235308E+03  0.48927533046E+03  0.00000000000E+00 0. -1.
</event>
<event>
 4    1  0.3283867E+006  0.2827599E+02  0.7546771E-02  0.1435195E+00
         21   -1    0    0  504  501  0.00000000000E+00  0.00000000000E+00  0.90614203946E+02  0.90614203946E+02  0.00000000000E+00 0.  1.
         21   -1    0    0  501  502 -0.00000000000E+00 -0.00000000000E+00 -0.99160432598E+01  0.99160432598E+01  0.00000000000E+00 0.  1.
         21    1    1    2  503  502 -0.16533979377E+02  0.22938160728E+02  0.23664208604E+02  0.36871756949E+02  0.00000000000E+00 0.  1.
         21    1    1    2  504  503  0.16533979377E+02 -0.22938160728E+02  0.57033952082E+02  0.63658490257E+02  0.00000000000E+00 0.  1.
</event>
<event>
 4    1  0.3283867E+006  0.2031766E+02  0.7546771E-02  0.1529234E+00
         21   -1    0    0  504  501  0.00000000000E+00  0.00000000000E+00  0.41152077007E+02  0.41152077007E+02  0.00000000000E+00 0.  1.
         21   -1    0    0  503  502 -0.00000000000E+00 -0.00000000000E+00 -0.46973937463E+02  0.46973937463E+02  0.00000000000E+00 0. -1.
         21    1    1    2  503  501 -0.18614083341E+02 -0.81438996268E+01  0.36165045666E+02  0.41481534781E+02  0.00000000000E+00 0.  1.
         21    1    1    2  504  502  0.18614083341E+02  0.81438996268E+01 -0.41986906122E+02  0.46644479689E+02  0.00000000000E+00 0. -1.
</event>
<event>
 4    1  0.3283867E+006  0.3887449E+02  0.7546771E-02  0.1355210E+00
         21   -1    0    0  504  501  0.00000000000E+00  0.00000000000E+00  0.22913427432E+02  0.22913427432E+02  0.00000000000E+00 0. -1.
         21   -1    0    0  501  502 -0.00000000000E+00 -0.00000000000E+00 -0.94255186503E+02  0.94255186503E+02  0.00000000000E+00 0.  1.
         21    1    1    2  503  502 -0.11597308699E+02 -0.37104291898E+02 -0.67772950321E+02  0.78130652381E+02  0.00000000000E+00 0.  1.
         21    1    1    2  504  503  0.11597308699E+02  0.37104291898E+02 -0.35688087504E+01  0.39037961553E+02  0.00000000000E+00 0. -1.
</event>
<event>
 4    1  0.3283867E+006  0.2222806E+02  0.7546771E-02  0.1502426E+00
         21   -1    0    0  504  501  0.00000000000E+00  0.00000000000E+00  0.33693231789E+02  0.33693231789E+02  0.00000000000E+00 0. -1.
         21   -1    0    0  503  502 -0.00000000000E+00 -0.00000000000E+00 -0.15160808909E+02  0.15160808909E+02  0.00000000000E+00 0. -1.
         21    1    1    2  503  501 -0.21615493173E+02  0.51823752553E+01  0.48455514339E+01  0.22750075321E+02  0.00000000000E+00 0. -1.
         21    1    1    2  504  502  0.21615493173E+02 -0.51823752553E+01  0.13686871446E+02  0.26103965377E+02  0.00000000000E+00 0. -1.
</event>
<event>
 4    1  0.3283867E+006  0.2462861E+02  0.7546771E-02  0.1473001E+00
         21   -1    0    0  504  501  0.00000000000E+00  0.00000000000E+00  0.40549296496E+02  0.40549296496E+02  0.00000000000E+00 0. -1.
         21   -1    0    0  503  502 -0.00000000000E+00 -0.00000000000E+00 -0.69901249103E+02  0.69901249103E+02  0.00000000000E+00 0. -1.
         21    1    1    2  503  501 -0.20370651790E+02 -0.13842150728E+02 -0.63636880637E+02  0.68236509058E+02  0.00000000000E+00 0. -1.
         21    1    1    2  504  502  0.20370651790E+02  0.13842150728E+02  0.34284928030E+02  0.42214036542E+02  0.00000000000E+00 0. -1.
</event>
<event>
 4    1  0.3283867E+006  0.2685249E+02  0.7546771E-02  0.1449095E+00
         21   -1    0    0  503  501  0.00000000000E+00  0.00000000000E+00  0.18670099335E+03  0.18670099335E+03  0.00000000000E+00 0. -1.
         21   -1    0    0  504  502 -0.00000000000E+00 -0.00000000000E+00 -0.39458493755E+01  0.39458493755E+01  0.00000000000E+00 0. -1.
         21    1    1    2  503  502  0.26693260847E+02 -0.29199789150E+01  0.10526559294E+03  0.10863655696E+03  0.00000000000E+00 0. -1.
         21    1    1    2  504  501 -0.26693260847E+02  0.29199789150E+01  0.77489551034E+02  0.82010285763E+02  0.00000000000E+00 0. -1.
</event>
<event>
 4    1  0.3283867E+006  0.2947421E+02  0.7546771E-02  0.1424221E+00
         21   -1    0    0  504  501  0.00000000000E+00  0.00000000000E+00  0.40735060928E+03  0.40735060928E+03  0.00000000000E+00 0.  1.
         21   -1    0    0  503  502 -0.00000000000E+00 -0.00000000000E+00 -0.37302703755E+01  0.37302703755E+01  0.00000000000E+00 0.  1.
         21    1    1    2  503  501  0.27280591945E+02  0.11157873343E+02  0.67296504830E+02  0.73468009343E+02  0.00000000000E+00 0.  1.
         21    1    1    2  504  502 -0.27280591945E+02 -0.11157873343E+02  0.33632383407E+03  0.33761287031E+03  0.00000000000E+00 0.  1.
</event>
<event>
 4    1  0.3283867E+006  0.3471083E+02  0.7546771E-02  0.1382608E+00
         21   -1    0    0  504  501  0.00000000000E+00  0.00000000000E+00  0.17247101544E+03  0.17247101544E+03  0.00000000000E+00 0.  1.
         21   -1    0    0  503  502 -0.00000000000E+00 -0.00000000000E+00 -0.85865808269E+01  0.85865808269E+01  0.00000000000E+00 0.  1.
         21    1    1    2  503  501  0.12528492599E+02  0.32370952990E+02  0.12103058292E+03  0.12590966494E+03  0.00000000000E+00 0.  1.
         21    1    1    2  504  502 -0.12528492599E+02 -0.32370952990E+02  0.42853851693E+02  0.55147931323E+02  0.00000000000E+00 0.  1.
</event>
<event>
 4    1  0.3283867E+006  0.3682540E+02  0.7546771E-02  0.1368165E+00
         21   -1    0    0  504  501  0.00000000000E+00  0.00000000000E+00  0.19063657365E+03  0.19063657365E+03  0.00000000000E+00 0. -1.
         21   -1    0    0  501  502 -0.00000000000E+00 -0.00000000000E+00 -0.10952074161E+02  0.10952074161E+02  0.00000000000E+00 0. -1.
         21    1    1    2  503  502 -0.36292347507E+02  0.62430224543E+01  0.30170613774E+02  0.47606467548E+02  0.00000000000E+00 0. -1.
         21    1    1    2  504  503  0.36292347507E+02 -0.62430224543E+01  0.14951388571E+03  0.15398218026E+03  0.00000000000E+00 0. -1.
</event>
<event>
 4    1  0.3283867E+006  0.3540587E+02  0.7546771E-02  0.1377732E+00
         21   -1    0    0  504  501  0.00000000000E+00  0.00000000000E+00  0.28672244105E+02  0.28672244105E+02  0.00000000000E+00 0. -1.
         21   -1    0    0  501  502 -0.00000000000E+00 -0.00000000000E+00 -0.46970534431E+03  0.46970534431E+03  0.00000000000E+00 0. -1.
         21    1    1    2  503  502  0.19062696895E+02  0.29836044197E+02 -0.45782468963E+03  0.45919170548E+03  0.00000000000E+00 0. -1.
         21    1    1    2  504  503 -0.19062696895E+02 -0.29836044197E+02  0.16791589424E+02  0.39185882938E+02  0.00000000000E+00 0. -1.
</event>
<event>
 4    1  0.3283867E+006  0.2311195E+02  0.7546771E-02  0.1491097E+00
         21   -1    0    0  503  501  0.00000000000E+00  0.00000000000E+00  0.27128774837E+02  0.27128774837E+02  0.00000000000E+00 0. -1.
         21   -1    0    0  504  502 -0.00000000000E+00 -0.00000000000E+00 -0.35085611153E+03  0.35085611153E+03  0.00000000000E+00 0.  1.
         21    1    1    2  503  502  0.12420306017E+02 -0.19490983292E+02 -0.34547646133E+03  0.34624867908E+03  0.00000000000E+00 0.  1.
         21    1    1    2  504  501 -0.12420306017E+02  0.19490983292E+02  0.21749124631E+02  0.31736207295E+02  0.00000000000E+00 0. -1.
</event>
<event>
 4    1  0.3283867E+006  0.2367599E+02  0.7546771E-02  0.1484180E+00
         21   -1    0    0  503  501  0.00000000000E+00  0.00000000000E+00  0.21914753781E+02  0.21914753781E+02  0.00000000000E+00 0.  1.
         21   -1    0    0  504  502 -0.00000000000E+00 -0.00000000000E+00 -0.27374825522E+02  0.27374825522E+02  0.00000000000E+00 0.  1.
         21    1    1    2  503  502 -0.11565619025E+02 -0.20658873443E+02  0.35825673693E+01  0.23945508647E+02  0.00000000000E+00 0.  1.
         21    1    1    2  504  501  0.11565619025E+02  0.20658873443E+02 -0.90426391106E+01  0.25344070657E+02  0.00000000000E+00 0.  1.
</event>
<event>
 4    1  0.3283867E+006  0.2036408E+02  0.7546771E-02  0.1528541E+00
         21   -1    0    0  504  501  0.00000000000E+00  0.00000000000E+00  0.49540839127E+01  0.49540839127E+01  0.00000000000E+00 0. -1.
         21   -1    0    0  503  502 -0.00000000000E+00 -0.00000000000E+00 -0.83760747703E+02  0.83760747703E+02  0.00000000000E+00 0. -1.
         21    1    1    2  503  501 -0.39552761186E+01 -0.19976275913E+02 -0.38288818586E+02  0.43367377569E+02  0.00000000000E+00 0. -1.
         21    1    1    2  504  502  0.39552761186E+01  0.19976275913E+02 -0.40517845204E+02  0.45347454046E+02  0.00000000000E+00 0. -1.
</event>
<event>
 4    1  0.3283867E+006  0.3337607E+02  0.7546771E-02  0.1392354E+00
         21   -1    0    0  503  501  0.00000000000E+00  0.00000000000E+00  0.58986225900E+02  0.58986225900E+02  0.00000000000E+00 0.  1.
         21   -1    0    0  504  502 -0.00000000000E+00 -0.00000000000E+00 -0.32215969705E+02  0.32215969705E+02  0.00000000000E+00 0.  1.
         21    1    1    2  503  502 -0.21696507461E+02  0.25361848380E+02  0.42718950319E+02  0.54211350339E+02  0.00000000000E+00 0.  1.
         21    1    1    2  504  501  0.21696507461E+02 -0.25361848380E+02 -0.15948694123E+02  0.36990845266E+02  0.00000000000E+00 0.  1.
</event>
<event>
 4    1  0.3283867E+006  0.2261602E+02  0.7546771E-02  0.1497377E+00
         21   -1    0    0  504  501  0.00000000000E+00  0.00000000000E+00  0.28656848860E+02  0.28656848860E+02  0.00000000000E+00 0.  1.
         21   -1    0    0  503  502 -0.00000000000E+00 -0.00000000000E+00 -0.10611253315E+04  0.10611253315E+04  0.00000000000E+00 0. -1.
         21    1    1    2  503  501 -0.21824019699E+02  0.59326584208E+01 -0.10565232451E+04  0.10567652775E+04  0.00000000000E+00 0. -1.
         21    1    1    2  504  502  0.21824019699E+02 -0.59326584208E+01  0.24054762516E+02  0.33016902814E+02  0.00000000000E+00 0.  1.
</event>
<event>
 4    1  0.3283867E+006  0.3611141E+02  0.7546771E-02  0.1372914E+00
         21   -1    0    0  503  501  0.00000000000E+00  0.00000000000E+00  0.54604538261E+02  0.54604538261E+02  0.00000000000E+00 0. -1.
         21   -1    0    0  501  502 -0.00000000000E+00 -0.00000000000E+00 -0.30181484192E+02  0.30181484192E+02  0.00000000000E+00 0. -1.
         21    1    1    2  503  504 -0.50543043096E+01 -0.35755949546E+02  0.31580047735E+02  0.47972214197E+02  0.00000000000E+00 0. -1.
         21    1    1    2  504  502  0.50543043096E+01  0.35755949546E+02 -0.71569936662E+01  0.36813808256E+02  0.00000000000E+00 0. -1.
</event>
<event>
 4    1  0.3283867E+006  0.4490526E+02  0.7546771E-02  0.1321914E+00
         21   -1    0    0  504  501  0.00000000000E+00  0.00000000000E+00  0.48318144076E+02  0.48318144076E+02  0.00000000000E+00 0. -1.
         21   -1    0    0  503  502 -0.00000000000E+00 -0.00000000000E+00 -0.17072225440E+03  0.17072225440E+03  0.00000000000E+00 0.  1.
         21    1    1    2  503  501  0.57475630332E+01  0.44535920299E+02  0.33995363272E+02  0.56321997493E+02  0.00000000000E+00 0. -1.
         21    1    1    2  504  502 -0.57475630332E+01 -0.44535920299E+02 -0.15639947360E+03  0.16271840099E+03  0.00000000000E+00 0.  1.
</event>
<event>
 4    1  0.3283867E+006  0.2701716E+02  0.7546771E-02  0.1447436E+00
         21   -1    0    0  504  501  0.00000000000E+00  0.00000000000E+00  0.36795311606E+02  0.36795311606E+02  0.00000000000E+00 0.  1.
         21   -1    0    0  503  502 -0.00000000000E+00 -0.00000000000E+00 -0.20406304763E+02  0.20406304763E+02  0.00000000000E+00 0.  1.
         21    1    1    2  503  501  0.17825038785E+02  0.20302581645E+02  0.12969570136E+02  0.29968926885E+02  0.00000000000E+00 0.  1.
         21    1    1    2  504  502 -0.17825038785E+02 -0.20302581645E+02  0.34194367078E+01  0.27232689484E+02  0.00000000000E+00 0.  1.
</event>
<event>
 4    1  0.3283867E+006  0.2235091E+02  0.7546771E-02  0.1500814E+00
         21   -1    0    0  502  501  0.00000000000E+00  0.00000000000E+00  0.19810650746E+03  0.19810650746E+03  0.00000000000E+00 0.  1.
         21   -1    0    0  503  502 -0.00000000000E+00 -0.00000000000E+00 -0.24370037004E+02  0.24370037004E+02  0.00000000000E+00 0. -1.
         21    1    1    2  503  504 -0.16020905249E+02 -0.15585054079E+02 -0.18457724951E+02  0.28987082054E+02  0.00000000000E+00 0. -1.
         21    1    1    2  504  501  0.16020905249E+02  0.15585054079E+02  0.19219419541E+03  0.19348946241E+03  0.00000000000E+00 0.  1.
</event>
<event>
 4    1  0.3283867E+006  0.2602796E+02  0.7546771E-02  0.1457625E+00
         21   -1    0    0  504  501  0.00000000000E+00  0.00000000000E+00  0.11219445714E+03  0.11219445714E+03  0.00000000000E+00 0.  1.
         21   -1    0    0  503  502 -0.00000000000E+00 -0.00000000000E+00 -0.71312092086E+01  0.71312092086E+01  0.00000000000E+00 0.  1.
         21    1    1    2  503  501 -0.22347176871E+02  0.13343858167E+02  0.75889326996E+02  0.80228703198E+02  0.00000000000E+00 0.  1.
         21    1    1    2  504  502  0.22347176871E+02 -0.13343858167E+02  0.29173920939E+02  0.39096963154E+02  0.00000000000E+00 0.  1.
</event>
<event>
 4    1  0.3283867E+006  0.2061133E+02  0.7546771E-02  0.1524887E+00
         21   -1    0    0  503  501  0.00000000000E+00  0.00000000000E+00  0.86931148241E+01  0.86931148241E+01  0.00000000000E+00 0. -1.
         21   -1    0    0  501  502 -0.00000000000E+00 -0.00000000000E+00 -0.87918931243E+02  0.87918931243E+02  0.00000000000E+00 0.  1.
         21    1    1    2  503  504  0.16044950455E+02  0.12937787832E+02 -0.74193984089E+01  0.21906032544E+02  0.00000000000E+00 0. -1.
         21    1    1    2  504  502 -0.16044950455E+02 -0.12937787832E+02 -0.71806418010E+02  0.74706013523E+02  0.00000000000E+00 0.  1.
</event>
<event>
 4    1  0.3283867E+006  0.2054976E+02  0.7546771E-02  0.1525791E+00
         21   -1    0    0  502  501  0.00000000000E+00  0.00000000000E+00  0.31898102976E+03  0.31898102976E+03  0.00000000000E+00 0.  1.
         21   -1    0    0  504  502 -0.00000000000E+00 -0.00000000000E+00 -0.43523700481E+01  0.43523700481E+01  0.00000000000E+00 0. -1.
         21    1    1    2  503  501  0.17377989199E+02  0.10968050787E+02  0.29217047242E+03  0.29289226279E+03  0.00000000000E+00 0.  1.
         21    1    1    2  504  503 -0.17377989199E+02 -0.10968050787E+02  0.22458187291E+02  0.30441137020E+02  0.00000000000E+00 0. -1.
</event>
<event>
 4    1  0.3283867E+006  0.2902024E+02  0.7546771E-02  0.1428306E+00
         21   -1    0    0  503  501  0.00000000000E+00  0.00000000000E+00  0.96778449683E+02  0.96778449683E+02  0.00000000000E+00 0. -1.
         21   -1    0    0  504  502 -0.00000000000E+00 -0.00000000000E+00 -0.27264675380E+02  0.27264675380E+02  0.00000000000E+00 0. -1.
         21    1    1    2  503  502 -0.20235630272E+01 -0.28949605318E+02 -0.16418579204E+02  0.33342828291E+02  0.00000000000E+00 0. -1.
         21    1    1    2  504  501  0.20235630272E+01  0.28949605318E+02  0.85932353506E+02  0.90700296772E+02  0.00000000000E+00 0. -1.
</event>
<event>
 4    1  0.3283867E+006  0.2595598E+02  0.7546771E-02  0.1458387E+00
         21   -1    0    0  503  501  0.00000000000E+00  0.00000000000E+00  0.10198533216E+04  0.10198533216E+04  0.00000000000E+00 0.  1.
         21   -1    0    0  504  502 -0.00000000000E+00 -0.00000000000E+00 -0.66143077470E+00  0.66143077470E+00  0.00000000000E+00 0.  1.
         21    1    1    2  503  502 -0.16671209775E+02  0.19894307999E+02  0.52770506567E+03  0.52834302216E+03  0.00000000000E+00 0.  1.
         21    1    1    2  504  501  0.16671209775E+02 -0.19894307999E+02  0.49148682512E+03  0.49217173019E+03  0.00000000000E+00 0.  1.
</event>
<event>
 4    1  0.3283867E+006  0.2364008E+02  0.7546771E-02  0.1484613E+00
         21   -1    0    0  504  501  0.00000000000E+00  0.00000000000E+00  0.18307836563E+02  0.18307836563E+02  0.00000000000E+00 0.  1.
         21   -1    0    0  501  502 -0.00000000000E+00 -0.00000000000E+00 -0.34117739113E+02  0.34117739113E+02  0.00000000000E+00 0.  1.
         21    1    1    2  503  502  0.42378063176E+00  0.23636277411E+02 -0.16410738386E+02  0.28777865352E+02  0.00000000000E+00 0.  1.
         21    1    1    2  504  503 -0.42378063176E+00 -0.23636277411E+02  0.60083583485E+00  0.23647710324E+02  0.00000000000E+00 0.  1.
</event>
<event>
 4    1  0.3283867E+006  0.2163686E+02  0.7546771E-02  0.1510363E+00
         21   -1    0    0  504  501  0.00000000000E+00  0.00000000000E+00  0.32113967559E+02  0.32113967559E+02  0.00000000000E+00 0.  1.
         21   -1    0    0  503  502 -0.00000000000E+00 -0.00000000000E+00 -0.20519377461E+02  0.20519377461E+02  0.00000000000E+00 0.  1.
         21    1    1    2  503  501  0.14291695782E+02  0.16245031868E+02  0.19958387942E+02  0.29436217114E+02  0.00000000000E+00 0.  1.
         21    1    1    2  504  502 -0.14291695782E+02 -0.16245031868E+02 -0.83637978445E+01  0.23197127906E+02  0.00000000000E+00 0.  1.
</event>
<event>
 4    1  0.3283867E+006  0.4481731E+02  0.7546771E-02  0.1322355E+00
         21   -1    0    0  502  501  0.00000000000E+00  0.00000000000E+00  0.14393732527E+02  0.14393732527E+02  0.00000000000E+00 0.  1.
         21   -1    0    0  503  502 -0.00000000000E+00 -0.00000000000E+00 -0.19671810556E+03  0.19671810556E+03  0.00000000000E+00 0.  1.
         21    1    1    2  503  504  0.44340548411E+02 -0.65197176815E+01 -0.14806735142E+03  0.15470142698E+03  0.00000000000E+00 0.  1.
         21    1    1    2  504  501 -0.44340548411E+02  0.65197176815E+01 -0.34257021617E+02  0.56410411115E+02  0.00000000000E+00 0.  1.
</event>
<event>
 4    1  0.3283867E+006  0.2104839E+02  0.7546771E-02  0.1518575E+00
         21   -1    0    0  503  501  0.00000000000E+00  0.00000000000E+00  0.27588809254E+03  0.27588809254E+03  0.00000000000E+00 0. -1.
         21   -1    0    0  504  502 -0.00000000000E+00 -0.00000000000E+00 -0.18752123302E+01  0.18752123302E+01  0.00000000000E+00 0. -1.
         21    1    1    2  503  502 -0.18343791515E+02 -0.10321832913E+02  0.18964306054E+03  0.19080756100E+03  0.00000000000E+00 0. -1.
         21    1    1    2  504  501  0.18343791515E+02  0.10321832913E+02  0.84369819672E+02  0.86955743877E+02  0.00000000000E+00 0. -1.
</event>
<event>
 4    1  0.3283867E+006  0.2682253E+02  0.7546771E-02  0.1449399E+00
         21   -1    0    0  503  501  0.00000000000E+00  0.00000000000E+00  0.11970305748E+02  0.11970305748E+02  0.00000000000E+00 0. -1.
         21   -1    0    0  504  502 -0.00000000000E+00 -0.00000000000E+00 -0.11613523789E+03  0.11613523789E+03  0.00000000000E+00 0.  1.
         21    1    1    2  503  502 -0.31431766756E+01 -0.26637731867E+02 -0.96573844997E+02  0.10022951589E+03  0.00000000000E+00 0.  1.
         21    1    1    2  504  501  0.31431766756E+01  0.26637731867E+02 -0.75910871397E+01  0.27876027741E+02  0.00000000000E+00 0. -1.
</event>
<event>
 4    1  0.3283867E+006  0.2624999E+02  0.7546771E-02  0.1455291E+00
         21   -1    0    0  503  501  0.00000000000E+00  0.00000000000E+00  0.64081203047E+02  0.64081203047E+02  0.00000000000E+00 0. -1.
         21   -1    0    0  504  502 -0.00000000000E+00 -0.00000000000E+00 -0.80215346676E+02  0.80215346676E+02  0.00000000000E+00 0.  1.
         21    1    1    2  503  502  0.26231667955E+02  0.98063843719E+00  0.59071499686E+02  0.64641350006E+02  0.00000000000E+00 0. -1.
         21    1    1    2  504  501 -0.26231667955E+02 -0.98063843719E+00 -0.75205643315E+02  0.79655199717E+02  0.00000000000E+00 0.  1.
</event>
<event>
 4    1  0.3283867E+006  0.2496966E+02  0.7546771E-02  0.1469143E+00
         21   -1    0    0  503  501  0.00000000000E+00  0.00000000000E+00  0.34030399202E+03  0.34030399202E+03  0.00000000000E+00 0. -1.
         21   -1    0    0  504  502 -0.00000000000E+00 -0.00000000000E+00 -0.33492797985E+01  0.33492797985E+01  0.00000000000E+00 0. -1.
         21    1    1    2  503  502  0.21291815714E+02  0.13043863320E+02  0.52832080228E+02  0.58435541308E+02  0.00000000000E+00 0. -1.
         21    1    1    2  504  501 -0.21291815714E+02 -0.13043863320E+02  0.28412263199E+03  0.28521773051E+03  0.00000000000E+00 0. -1.
</event>
<event>
 4    1  0.3283867E+006  0.2225622E+02  0.7546771E-02  0.1502055E+00
         21   -1    0    0  504  501  0.00000000000E+00  0.00000000000E+00  0.56293814634E+03  0.56293814634E+03  0.00000000000E+00 0.  1.
         21   -1    0    0  501  502 -0.00000000000E+00 -0.00000000000E+00 -0.55527891398E+01  0.55527891398E+01  0.00000000000E+00 0.  1.
         21    1    1    2  503  502  0.71995631629E+01  0.21059571106E+02  0.17939342470E+02  0.28585997501E+02  0.00000000000E+00 0.  1.
         21    1    1    2  504  503 -0.71995631629E+01 -0.21059571106E+02  0.53944601474E+03  0.53990493798E+03  0.00000000000E+00 0.  1.
</event>
<event>
 4    1  0.3283867E+006  0.2777160E+02  0.7546771E-02  0.1440007E+00
         21   -1    0    0  502  501  0.00000000000E+00  0.00000000000E+00  0.60091179882E+02  0.60091179882E+02  0.00000000000E+00 0. -1.
         21   -1    0    0  503  502 -0.00000000000E+00 -0.00000000000E+00 -0.14859052863E+02  0.14859052863E+02  0.00000000000E+00 0. -1.
         21    1    1    2  503  504 -0.20527573520E+02  0.18705092540E+02  0.36447700558E+02  0.45822446874E+02  0.00000000000E+00 0. -1.
         21    1    1    2  504  501  0.20527573520E+02 -0.18705092540E+02  0.87844264605E+01  0.29127785872E+02  0.00000000000E+00 0. -1.
</event>
<event>
 4    1  0.3283867E+006  0.3132732E+02  0.7546771E-02  0.1408402E+00
         21   -1    0    0  503  501  0.00000000000E+00  0.00000000000E+00  0.90518241273E+02  0.90518241273E+02  0.00000000000E+00 0.  1.
         21   -1    0    0  504  502 -0.00000000000E+00 -0.00000000000E+00 -0.15493348341E+02  0.15493348341E+02  0.00000000000E+00 0. -1.
         21    1    1    2  503  502  0.22000828445E+02  0.22301675387E+02  0.66555274297E+02  0.73559538567E+02  0.00000000000E+00 0.  1.
         21    1    1    2  504  501 -0.22000828445E+02 -0.22301675387E+02  0.84696186352E+01  0.32452051047E+02  0.00000000000E+00 0. -1.
</event>
<event>
 4    1  0.3283867E+006  0.2133096E+02  0.7546771E-02  0.1514592E+00
         21   -1    0    0  503  501  0.00000000000E+00  0.00000000000E+00  0.10146531143E+04  0.10146531143E+04  0.00000000000E+00 0.  1.
         21   -1    0    0  504  502 -0.00000000000E+00 -0.00000000000E+00 -0.49145573718E+02  0.49145573718E+02  0.00000000000E+00 0.  1.
         21    1    1    2  503  502  0.13594111571E+02 -0.16438059930E+02 -0.46713301352E+02  0.51353112923E+02  0.00000000000E+00 0.  1.
         21    1    1    2  504  501 -0.13594111571E+02  0.16438059930E+02  0.10122208419E+04  0.10124455751E+04  0.00000000000E+00 0.  1.
</event>
<event>
 4    1  0.3283867E+006  0.2098108E+02  0.7546771E-02  0.1519535E+00
         21   -1    0    0  504  501  0.00000000000E+00  0.00000000000E+00  0.17646488843E+03  0.17646488843E+03  0.00000000000E+00 0. -1.
         21   -1    0    0  503  502 -0.00000000000E+00 -0.00000000000E+00 -0.80267964548E+01  0.80267964548E+01  0.00000000000E+00 0. -1.
         21    1    1    2  503  501 -0.54725523646E+01  0.20254797420E+02  0.76372956852E+01  0.22327873461E+02  0.00000000000E+00 0. -1.
         21    1    1    2  504  502  0.54725523646E+01 -0.20254797420E+02  0.16080079629E+03  0.16216381142E+03  0.00000000000E+00 0. -1.
</event>
<event>
 4    1  0.3283867E+006  0.2194938E+02  0.7546771E-02  0.1506130E+00
         21   -1    0    0  503  501  0.00000000000E+00  0.00000000000E+00  0.94777696155E+03  0.94777696155E+03  0.00000000000E+00 0.  1.
         21   -1    0    0  504  502 -0.00000000000E+00 -0.00000000000E+00 -0.65923084043E+00  0.65923084043E+00  0.00000000000E+00 0.  1.
         21    1    1    2  503  502 -0.16042633380E+02 -0.14980297087E+02  0.24666776803E+03  0.24764240988E+03  0.00000000000E+00 0.  1.
         21    1    1    2  504  501  0.16042633380E+02  0.14980297087E+02  0.70044996268E+03  0.70079378251E+03  0.00000000000E+00 0.  1.
</event>
<event>
 4    1  0.3283867E+006  0.2114710E+02  0.7546771E-02  0.1517175E+00
         21   -1    0    0  503  501  0.00000000000E+00  0.00000000000E+00  0.12469088022E+02  0.12469088022E+02  0.00000000000E+00 0. -1.
         21   -1    0    0  504  502 -0.00000000000E+00 -0.00000000000E+00 -0.40509107623E+02  0.40509107623E+02  0.00000000000E+00 0. -1.
         21    1    1    2  503  502 -0.19447577343E+02 -0.83061108514E+01 -0.50507347869E+01  0.21741887312E+02  0.00000000000E+00 0. -1.
         21    1    1    2  504  501  0.19447577343E+02  0.83061108514E+01 -0.22989284814E+02  0.31236308333E+02  0.00000000000E+00 0. -1.
</event>
<event>
 4    1  0.3283867E+006  0.2205400E+02  0.7546771E-02  0.1504731E+00
         21   -1    0    0  502  501  0.00000000000E+00  0.00000000000E+00  0.75416196107E+03  0.75416196107E+03  0.00000000000E+00 0.  1.
         21   -1    0    0  504  502 -0.00000000000E+00 -0.00000000000E+00 -0.96785651759E+00  0.96785651759E+00  0.00000000000E+00 0. -1.
         21    1    1    2  503  501  0.20690610246E+02  0.76339623759E+01  0.59468949159E+03  0.59509828612E+03  0.00000000000E+00 0.  1.
         21    1    1    2  504  503 -0.20690610246E+02 -0.76339623759E+01  0.15850461296E+03  0.16003153147E+03  0.00000000000E+00 0. -1.
</event>
<event>
 4    1  0.3283867E+006  0.2643015E+02  0.7546771E-02  0.1453418E+00
         21   -1    0    0  503  501  0.00000000000E+00  0.00000000000E+00  0.11914634378E+01  0.11914634378E+01  0.00000000000E+00 0.  1.
         21   -1    0    0  504  502 -0.00000000000E+00 -0.00000000000E+00 -0.59234803329E+03  0.59234803329E+03  0.00000000000E+00 0.  1.
         21    1    1    2  503  502  0.97576553235E+01 -0.24562999313E+02 -0.26558626210E+03  0.26689813673E+03  0.00000000000E+00 0.  1.
         21    1    1    2  504  501 -0.97576553235E+01  0.24562999313E+02 -0.32557030775E+03  0.32664135999E+03  0.00000000000E+00 0.  1.
</event>
<event>
 4    1  0.3283867E+006  0.2471470E+02  0.7546771E-02  0.1472020E+00
         21   -1    0    0  504  501  0.00000000000E+00  0.00000000000E+00  0.10835246547E+02  0.10835246547E+02  0.00000000000E+00 0. -1.
         21   -1    0    0  503  502 -0.00000000000E+00 -0.00000000000E+00 -0.12969151086E+03  0.12969151086E+03  0.00000000000E+00 0. -1.
         21    1    1    2  503  501 -0.22159246613E+02  0.10944589189E+02 -0.65982271933E+01  0.25580321442E+02  0.00000000000E+00 0. -1.
         21    1    1    2  504  502  0.22159246613E+02 -0.10944589189E+02 -0.11225803712E+03  0.11494643596E+03  0.00000000000E+00 0. -1.
</event>
<event>
 4    1  0.3283867E+006  0.2264351E+02  0.7546771E-02  0.1497024E+00
         21   -1    0    0  503  501  0.00000000000E+00  0.00000000000E+00  0.11730745245E+04  0.11730745245E+04  0.00000000000E+00 0.  1.
         21   -1    0    0  504  502 -0.00000000000E+00 -0.00000000000E+00 -0.81598421914E+01  0.81598421914E+01  0.00000000000E+00 0. -1.
         21    1    1    2  503  502 -0.17725229658E+01 -0.22574029110E+02  0.78760247153E+01  0.23974160950E+02  0.00000000000E+00 0. -1.
         21    1    1    2  504  501  0.17725229658E+01  0.22574029110E+02  0.11570386576E+04  0.11572602057E+04  0.00000000000E+00 0.  1.
</event>
<event>
 4    1  0.3283867E+006  0.2773189E+02  0.7546771E-02  0.1440391E+00
         21   -1    0    0  502  501  0.00000000000E+00  0.00000000000E+00  0.14611241558E+03  0.14611241558E+03  0.00000000000E+00 0.  1.
         21   -1    0    0  503  502 -0.00000000000E+00 -0.00000000000E+00 -0.16394491541E+03  0.16394491541E+03  0.00000000000E+00 0. -1.
         21    1    1    2  503  504 -0.22167640789E+02 -0.16662943827E+02 -0.16143600860E+03  0.16380061925E+03  0.00000000000E+00 0. -1.
         21    1    1    2  504  501  0.22167640789E+02  0.16662943827E+02  0.14360350878E+03  0.14625671174E+03  0.00000000000E+00 0.  1.
</event>
<event>
 4    1  0.3283867E+006  0.2912630E+02  0.7546771E-02  0.1427344E+00
         21   -1    0    0  503  501  0.00000000000E+00  0.00000000000E+00  0.25364083452E+01  0.25364083452E+01  0.00000000000E+00 0.  1.
         21   -1    0    0  504  502 -0.00000000000E+00 -0.00000000000E+00 -0.33816874249E+03  0.33816874249E+03  0.00000000000E+00 0. -1.
         21    1    1    2  503  502 -0.83611669196E+00 -0.29114296504E+02 -0.18564269988E+03  0.18791368596E+03  0.00000000000E+00 0. -1.
         21    1    1    2  504  501  0.83611669196E+00  0.29114296504E+02 -0.14998963426E+03  0.15279146487E+03  0.00000000000E+00 0.  1.
</event>
<event>
 4    1  0.3283867E+006  0.2295535E+02  0.7546771E-02  0.1493060E+00
         21   -1    0    0  502  501  0.00000000000E+00  0.00000000000E+00  0.10119725132E+02  0.10119725132E+02  0.00000000000E+00 0.  1.
         21   -1    0    0  504  502 -0.00000000000E+00 -0.00000000000E+00 -0.81483649944E+02  0.81483649944E+02  0.00000000000E+00 0.  1.
         21    1    1    2  503  501 -0.31250215812E+01  0.22741641233E+02 -0.81643627252E+01  0.24364006743E+02  0.00000000000E+00 0.  1.
         21    1    1    2  504  503  0.31250215812E+01 -0.22741641233E+02 -0.63199562087E+02  0.67239368333E+02  0.00000000000E+00 0.  1.
</event>
<event>
 4    1  0.3283867E+006  0.2185988E+02  0.7546771E-02  0.1507333E+00
         21   -1    0    0  503  501  0.00000000000E+00  0.00000000000E+00  0.65149417698E+01  0.65149417698E+01  0.00000000000E+00 0. -1.
         21   -1    0    0  501  502 -0.00000000000E+00 -0.00000000000E+00 -0.34564057503E+03  0.34564057503E+03  0.00000000000E+00 0. -1.
         21    1    1    2  503  504  0.34422108426E+01  0.21587160547E+02 -0.13280267859E+02  0.25577721368E+02  0.00000000000E+00 0. -1.
         21    1    1    2  504  502 -0.34422108426E+01 -0.21587160547E+02 -0.32584536540E+03  0.32657779543E+03  0.00000000000E+00 0. -1.
</event>
<event>
 4    1  0.3283867E+006  0.2733184E+02  0.7546771E-02  0.1444303E+00
         21   -1    0    0  503  501  0.00000000000E+00  0.00000000000E+00  0.12898441578E+01  0.12898441578E+01  0.00000000000E+00 0. -1.
         21   -1    0    0  504  502 -0.00000000000E+00 -0.00000000000E+00 -0.57949243830E+03  0.57949243830E+03  0.00000000000E+00 0. -1.
         21    1    1    2  503  502 -0.27282384625E+02  0.16434557424E+01 -0.29602964369E+03  0.29728871388E+03  0.00000000000E+00 0. -1.
         21    1    1    2  504  501  0.27282384625E+02 -0.16434557424E+01 -0.28217295044E+03  0.28349356857E+03  0.00000000000E+00 0. -1.
</event>
<event>
 4    1  0.3283867E+006  0.2418703E+02  0.7546771E-02  0.1478107E+00
         21   -1    0    0  503  501  0.00000000000E+00  0.00000000000E+00  0.33105784560E+01  0.33105784560E+01  0.00000000000E+00 0. -1.
         21   -1    0    0  504  502 -0.00000000000E+00 -0.00000000000E+00 -0.31649545234E+03  0.31649545234E+03  0.00000000000E+00 0. -1.
         21    1    1    2  503  502  0.71100774191E+01 -0.23118369667E+02 -0.26286079063E+03  0.26397122469E+03  0.00000000000E+00 0. -1.
         21    1    1    2  504  501 -0.71100774191E+01  0.23118369667E+02 -0.50324083263E+02  0.55834806109E+02  0.00000000000E+00 0. -1.
</event>
<event>
 4    1  0.3283867E+006  0.2179377E+02  0.7546771E-02  0.1508227E+00
         21   -1    0    0  503  501  0.00000000000E+00  0.00000000000E+00  0.20102050945E+02  0.20102050945E+02  0.00000000000E+00 0.  1.
         21   -1    0    0  504  502 -0.00000000000E+00 -0.00000000000E+00 -0.81378682984E+02  0.81378682984E+02  0.00000000000E+00 0.  1.
         21    1    1    2  503  502 -0.21417080613E+02 -0.40344924697E+01  0.12105900314E+02  0.24930328796E+02  0.00000000000E+00 0.  1.
         21    1    1    2  504  501  0.21417080613E+02  0.40344924697E+01 -0.73382532353E+02  0.76550405133E+02  0.00000000000E+00 0.  1.
</event>
<event>
 4    1  0.3283867E+006  0.5643356E+02  0.7546771E-02  0.1272456E+00
         21   -1    0    0  504  501  0.00000000000E+00  0.00000000000E+00  0.21708912661E+02  0.21708912661E+02  0.00000000000E+00 0. -1.
         21   -1    0    0  503  502 -0.00000000000E+00 -0.00000000000E+00 -0.28981326237E+03  0.28981326237E+03  0.00000000000E+00 0. -1.
         21    1    1    2  503  501  0.49314328140E+02  0.27437988424E+02 -0.24596979276E+02  0.61561006799E+02  0.00000000000E+00 0. -1.
         21    1    1    2  504  502 -0.49314328140E+02 -0.27437988424E+02 -0.24350737043E+03  0.24996116823E+03  0.00000000000E+00 0. -1.
</event>
<event>
 4    1  0.3283867E+006  0.2364563E+02  0.7546771E-02  0.1484546E+00
         21   -1    0    0  502  501  0.00000000000E+00  0.00000000000E+00  0.84601163430E+01  0.84601163430E+01  0.00000000000E+00 0. -1.
         21   -1    0    0  503  502 -0.00000000000E+00 -0.00000000000E+00 -0.82405503978E+03  0.82405503978E+03  0.00000000000E+00 0.  1.
         21    1    1    2  503  504 -0.20371027755E+02 -0.12005713459E+02 -0.80701450720E+03  0.80736084297E+03  0.00000000000E+00 0.  1.
         21    1    1    2  504  501  0.20371027755E+02  0.12005713459E+02 -0.85804162359E+01  0.25154313154E+02  0.00000000000E+00 0. -1.
</event>
<event>
 4    1  0.3283867E+006  0.3142106E+02  0.7546771E-02  0.1407637E+00
         21   -1    0    0  504  501  0.00000000000E+00  0.00000000000E+00  0.14759497534E+04  0.14759497534E+04  0.00000000000E+00 0. -1.
         21   -1    0    0  503  502 -0.00000000000E+00 -0.00000000000E+00 -0.67446839766E+00  0.67446839766E+00  0.00000000000E+00 0. -1.
         21    1    1    2  503  501  0.98864687328E+01  0.29825173884E+02  0.67063641436E+03  0.67137209022E+03  0.00000000000E+00 0. -1.
         21    1    1    2  504  502 -0.98864687328E+01 -0.29825173884E+02  0.80463887064E+03  0.80525213158E+03  0.00000000000E+00 0. -1.
</event>
<event>
 4    1  0.3283867E+006  0.2055570E+02  0.7546771E-02  0.1525704E+00
         21   -1    0    0  504  501  0.00000000000E+00  0.00000000000E+00  0.46068548466E+01  0.46068548466E+01  0.00000000000E+00 0.  1.
         21   -1    0    0  503  502 -0.00000000000E+00 -0.00000000000E+00 -0.19169766082E+03  0.19169766082E+03  0.00000000000E+00 0.  1.
         21    1    1    2  503  501 -0.53917363159E+01 -0.19835980635E+02 -0.16442890316E+03  0.16570878415E+03  0.00000000000E+00 0.  1.
         21    1    1    2  504  502  0.53917363159E+01  0.19835980635E+02 -0.22661902813E+02  0.30595731522E+02  0.00000000000E+00 0.  1.
</event>
<event>
 4    1  0.3283867E+006  0.2064099E+02  0.7546771E-02  0.1524453E+00
         21   -1    0    0  504  501  0.00000000000E+00  0.00000000000E+00  0.11361403217E+02  0.11361403217E+02  0.00000000000E+00 0.  1.
         21   -1    0    0  501  502 -0.00000000000E+00 -0.00000000000E+00 -0.14554147379E+03  0.14554147379E+03  0.00000000000E+00 0.  1.
         21    1    1    2  503  502  0.55968917459E+01  0.19867693819E+02 -0.13468325907E+03  0.13625575485E+03  0.00000000000E+00 0.  1.
         21    1    1    2  504  503 -0.55968917459E+01 -0.19867693819E+02  0.50318849607E+00  0.20647122162E+02  0.00000000000E+00 0.  1.
</event>
<event>
 4    1  0.3283867E+006  0.2431563E+02  0.7546771E-02  0.1476607E+00
         21   -1    0    0  504  501  0.00000000000E+00  0.00000000000E+00  0.19282965919E+02  0.19282965919E+02  0.00000000000E+00 0. -1.
         21   -1    0    0  503  502 -0.00000000000E+00 -0.00000000000E+00 -0.58402226500E+02  0.58402226500E+02  0.00000000000E+00 0. -1.
         21    1    1    2  503  501  0.23246200760E+02 -0.71318892714E+01 -0.46329756545E+02  0.52322997199E+02  0.00000000000E+00 0. -1.
         21    1    1    2  504  502 -0.23246200760E+02  0.71318892714E+01  0.72104959638E+01  0.25362195220E+02  0.00000000000E+00 0. -1.
</event>
<event>
 4    1  0.3283867E+006  0.2845077E+02  0.7546771E-02  0.1433555E+00
         21   -1    0    0  503  501  0.00000000000E+00  0.00000000000E+00  0.80455206877E+02  0.80455206877E+02  0.00000000000E+00 0. -1.
         21   -1    0    0  504  502 -0.00000000000E+00 -0.00000000000E+00 -0.25721475960E+02  0.25721475960E+02  0.00000000000E+00 0.  1.
         21    1    1    2  503  502 -0.17837744394E+02 -0.22164418700E+02 -0.14057510764E+02  0.31734211669E+02  0.00000000000E+00 0.  1.
         21    1    1    2  504  501  0.17837744394E+02  0.22164418700E+02  0.68791241682E+02  0.74442471167E+02  0.00000000000E+00 0. -1.
</event>
<event>
 4    1  0.3283867E+006  0.2020608E+02  0.7546771E-02  0.1530908E+00
         21   -1    0    0  503  501  0.00000000000E+00  0.00000000000E+00  0.64471968624E+02  0.64471968624E+02  0.00000000000E+00 0. -1.
         21   -1    0    0  501  502 -0.00000000000E+00 -0.00000000000E+00 -0.58182907394E+02  0.58182907394E+02  0.00000000000E+00 0.  1.
         21    1    1    2  503  504 -0.94944442861E+01  0.17836517331E+02  0.61038335023E+02  0.64295910952E+02  0.00000000000E+00 0. -1.
         21    1    1    2  504  502  0.94944442861E+01 -0.17836517331E+02 -0.54749273792E+02  0.58358965066E+02  0.00000000000E+00 0.  1.
</event>
<event>
 4    1  0.3283867E+006  0.2049655E+02  0.7546771E-02  0.1526576E+00
         21   -1    0    0  503  501  0.00000000000E+00  0.00000000000E+00  0.51073864874E+01  0.51073864874E+01  0.00000000000E+00 0. -1.
         21   -1    0    0  504  502 -0.00000000000E+00 -0.00000000000E+00 -0.82999564912E+02  0.82999564912E+02  0.00000000000E+00 0. -1.
         21    1    1    2  503  502  0.15375117555E+02  0.13554129715E+02 -0.43118235068E+02  0.47741919395E+02  0.00000000000E+00 0. -1.
         21    1    1    2  504  501 -0.15375117555E+02 -0.13554129715E+02 -0.34773943357E+02  0.40365032005E+02  0.00000000000E+00 0. -1.
</event>
<event>
 4    1  0.3283867E+006  0.2478111E+02  0.7546771E-02  0.1471267E+00
         21   -1    0    0  504  501  0.00000000000E+00  0.00000000000E+00  0.10227026777E+02  0.10227026777E+02  0.00000000000E+00 0.  1.
         21   -1    0    0  503  502 -0.00000000000E+00 -0.00000000000E+00 -0.86718815963E+03  0.86718815963E+03  0.00000000000E+00 0. -1.
         21    1    1    2  503  501 -0.15925649978E+02  0.18986235221E+02 -0.85172689328E+03  0.85208732193E+03  0.00000000000E+00 0. -1.
         21    1    1    2  504  502  0.15925649978E+02 -0.18986235221E+02 -0.52342395733E+01  0.25327864478E+02  0.00000000000E+00 0.  1.
</event>
<event>
 4    1  0.3283867E+006  0.2271642E+02  0.7546771E-02  0.1496090E+00
         21   -1    0    0  503  501  0.00000000000E+00  0.00000000000E+00  0.10806047653E+04  0.10806047653E+04  0.00000000000E+00 0. -1.
         21   -1    0    0  504  502 -0.00000000000E+00 -0.00000000000E+00 -0.72316584572E+01  0.72316584572E+01  0.00000000000E+00 0.  1.
         21    1    1    2  503  502 -0.22691686015E+02  0.10597458704E+01  0.11033883887E+02  0.25254351489E+02  0.00000000000E+00 0.  1.
         21    1    1    2  504  501  0.22691686015E+02 -0.10597458704E+01  0.10623392229E+04  0.10625820722E+04  0.00000000000E+00 0. -1.
</event>
<event>
 4    1  0.3283867E+006  0.2324016E+02  0.7546771E-02  0.1489504E+00
         21   -1    0    0  504  501  0.00000000000E+00  0.00000000000E+00  0.90131684765E+01  0.90131684765E+01  0.00000000000E+00 0.  1.
         21   -1    0    0  503  502 -0.00000000000E+00 -0.00000000000E+00 -0.69976757553E+02  0.69976757553E+02  0.00000000000E+00 0. -1.
         21    1    1    2  503  501  0.23224089562E+02  0.86409285147E+00 -0.15512281095E+02  0.27941650939E+02  0.00000000000E+00 0.  1.
         21    1    1    2  504  502 -0.23224089562E+02 -0.86409285147E+00 -0.45451307982E+02  0.51048275090E+02  0.00000000000E+00 0. -1.
</event>
<event>
 4    1  0.3283867E+006  0.2174713E+02  0.7546771E-02  0.1508860E+00
         21   -1    0    0  503  501  0.00000000000E+00  0.00000000000E+00  0.10819367855E+02  0.10819367855E+02  0.00000000000E+00 0.  1.
         21   -1    0    0  504  502 -0.00000000000E+00 -0.00000000000E+00 -0.48763672942E+02  0.48763672942E+02  0.00000000000E+00 0. -1.
         21    1    1    2  503  502 -0.11142193095E+02  0.18675895369E+02 -0.28560787892E+02  0.35897857037E+02  0.00000000000E+00 0. -1.
         21    1    1    2  504  501  0.11142193095E+02 -0.18675895369E+02 -0.93835171946E+01  0.23685183760E+02  0.00000000000E+00 0.  1.
</event>
<event>
 4    1  0.3283867E+006  0.2322924E+02  0.7546771E-02  0.1489639E+00
         21   -1    0    0  504  501  0.00000000000E+00  0.00000000000E+00  0.46332254801E+03  0.46332254801E+03  0.00000000000E+00 0. -1.
         21   -1    0    0  501  502 -0.00000000000E+00 -0.00000000000E+00 -0.26257438887E+01  0.26257438887E+01  0.00000000000E+00 0. -1.
         21    1    1    2  503  502 -0.12223238507E+02  0.19753228605E+02  0.56558659842E+02  0.61143107568E+02  0.00000000000E+00 0. -1.
         21    1    1    2  504  503  0.12223238507E+02 -0.19753228605E+02  0.40413814428E+03  0.40480518433E+03  0.00000000000E+00 0. -1.
</event>
<event>
 4    1  0.3283867E+006  0.6260887E+02  0.7546771E-02  0.1251217E+00
         21   -1    0    0  503  501  0.00000000000E+00  0.00000000000E+00  0.70955426174E+02  0.70955426174E+02  0.00000000000E+00 0.  1.
         21   -1    0    0  501  502 -0.00000000000E+00 -0.00000000000E+00 -0.44319891323E+03  0.44319891323E+03  0.00000000000E+00 0.  1.
         21    1    1    2  503  504  0.32942280615E+02 -0.53241679949E+02  0.54400211617E+02  0.82941264518E+02  0.00000000000E+00 0.  1.
         21    1    1    2  504  502 -0.32942280615E+02  0.53241679949E+02 -0.42664369868E+03  0.43121307489E+03  0.00000000000E+00 0.  1.
</event>
<event>
 4    1  0.3283867E+006  0.2261833E+02  0.7546771E-02  0.1497347E+00
         21   -1    0    0  503  501  0.00000000000E+00  0.00000000000E+00  0.13616630666E+03  0.13616630666E+03  0.00000000000E+00 0. -1.
         21   -1    0    0  501  502 -0.00000000000E+00 -0.00000000000E+00 -0.10217431182E+02  0.10217431182E+02  0.00000000000E+00 0. -1.
         21    1    1    2  503  504 -0.20012426884E+01  0.22529619537E+02  0.12117400928E+03  0.12326690250E+03  0.00000000000E+00 0. -1.
         21    1    1    2  504  502  0.20012426884E+01 -0.22529619537E+02  0.47748662001E+01  0.23116835337E+02  0.00000000000E+00 0. -1.
</event>
<event>
 4    1  0.3283867E+006  0.2264027E+02  0.7546771E-02  0.1497065E+00
         21   -1    0    0  504  501  0.00000000000E+00  0.00000000000E+00  0.47169232646E+03  0.47169232646E+03  0.00000000000E+00 0.  1.
         21   -1    0    0  501  502 -0.00000000000E+00 -0.00000000000E+00 -0.10997030900E+01  0.10997030900E+01  0.00000000000E+00 0.  1.
         21    1    1    2  503  502 -0.20914230388E+00 -0.22639300425E+02  0.20957745159E+03  0.21079679761E+03  0.00000000000E+00 0.  1.
         21    1    1    2  504  503  0.20914230388E+00  0.22639300425E+02  0.26101517178E+03  0.26199523195E+03  0.00000000000E+00 0.  1.
</event>
<event>
 4    1  0.3283867E+006  0.2087316E+02  0.7546771E-02  0.1521084E+00
         21   -1    0    0  504  501  0.00000000000E+00  0.00000000000E+00  0.19662876879E+03  0.19662876879E+03  0.00000000000E+00 0. -1.
         21   -1    0    0  503  502 -0.00000000000E+00 -0.00000000000E+00 -0.37452846529E+01  0.37452846529E+01  0.00000000000E+00 0. -1.
         21    1    1    2  503  501  0.77701968376E+01 -0.19372991642E+02  0.16046570398E+03  0.16181758531E+03  0.00000000000E+00 0. -1.
         21    1    1    2  504  502 -0.77701968376E+01  0.19372991642E+02  0.32417780159E+02  0.38556468127E+02  0.00000000000E+00 0. -1.
</event>
<event>
 4    1  0.3283867E+006  0.2354934E+02  0.7546771E-02  0.1485713E+00
         21   -1    0    0  502  501  0.00000000000E+00  0.00000000000E+00  0.45647980660E+03  0.45647980660E+03  0.00000000000E+00 0. -1.
         21   -1    0    0  504  502 -0.00000000000E+00 -0.00000000000E+00 -0.40040124382E+03  0.40040124382E+03  0.00000000000E+00 0.  1.
         21    1    1    2  503  501 -0.82184401990E+01 -0.22068723739E+02  0.45582933135E+03  0.45643723626E+03  0.00000000000E+00 0. -1.
         21    1    1    2  504  503  0.82184401990E+01  0.22068723739E+02 -0.39975076857E+03  0.40044381416E+03  0.00000000000E+00 0.  1.
</event>
<event>
 4    1  0.3283867E+006  0.2611659E+02  0.7546771E-02  0.1456690E+00
         21   -1    0    0  504  501  0.00000000000E+00  0.00000000000E+00  0.21512040772E+03  0.21512040772E+03  0.00000000000E+00 0.  1.
         21   -1    0    0  503  502 -0.00000000000E+00 -0.00000000000E+00 -0.33009615463E+01  0.33009615463E+01  0.00000000000E+00 0. -1.
         21    1    1    2  503  501 -0.32065535353E+01  0.25918990644E+02  0.84212649148E+02  0.88169418383E+02  0.00000000000E+00 0. -1.
         21    1    1    2  504  502  0.32065535353E+01 -0.25918990644E+02  0.12760679703E+03  0.13025195088E+03  0.00000000000E+00 0.  1.
</event>
<event>
 4    1  0.3283867E+006  0.2527736E+02  0.7546771E-02  0.1465724E+00
         21   -1    0    0  502  501  0.00000000000E+00  0.00000000000E+00  0.53855561581E+01  0.53855561581E+01  0.00000000000E+00 0. -1.
         21   -1    0    0  503  502 -0.00000000000E+00 -0.00000000000E+00 -0.19860331461E+03  0.19860331461E+03  0.00000000000E+00 0. -1.
         21    1    1    2  503  504 -0.24814755401E+02 -0.48138276948E+01 -0.16132720812E+03  0.16329547790E+03  0.00000000000E+00 0. -1.
         21    1    1    2  504  501  0.24814755401E+02  0.48138276948E+01 -0.31890550334E+02  0.40693392870E+02  0.00000000000E+00 0. -1.
</event>
<event>
 4    1  0.3283867E+006  0.2357863E+02  0.7546771E-02  0.1485357E+00
         21   -1    0    0  503  501  0.00000000000E+00  0.00000000000E+00  0.12107053096E+02  0.12107053096E+02  0.00000000000E+00 0.  1.
         21   -1    0    0  504  502 -0.00000000000E+00 -0.00000000000E+00 -0.21087579886E+03  0.21087579886E+03  0.00000000000E+00 0. -1.
         21    1    1    2  503  502  0.58179360704E+01  0.22849581125E+02 -0.77632901755E+00  0.23591405733E+02  0.00000000000E+00 0.  1.
         21    1    1    2  504  501 -0.58179360704E+01 -0.22849581125E+02 -0.19799241674E+03  0.19939144622E+03  0.00000000000E+00 0. -1.
</event>
<event>
 4    1  0.3283867E+006  0.5496014E+02  0.7546771E-02  0.1277990E+00
         21   -1    0    0  504  501  0.00000000000E+00  0.00000000000E+00  0.30669230328E+02  0.30669230328E+02  0.00000000000E+00 0.  1.
         21   -1    0    0  503  502 -0.00000000000E+00 -0.00000000000E+00 -0.23367517742E+03  0.23367517742E+03  0.00000000000E+00 0.  1.
         21    1    1    2  503  501 -0.54876688594E+02 -0.30275285028E+01 -0.20203354450E+03  0.20937566712E+03  0.00000000000E+00 0.  1.
         21    1    1    2  504  502  0.54876688594E+02  0.30275285028E+01 -0.97240259859E+00  0.54968740632E+02  0.00000000000E+00 0.  1.
</event>
<event>
 4    1  0.3283867E+006  0.2199025E+02  0.7546771E-02  0.1505582E+00
         21   -1    0    0  503  501  0.00000000000E+00  0.00000000000E+00  0.15022113964E+03  0.15022113964E+03  0.00000000000E+00 0.  1.
         21   -1    0    0  501  502 -0.00000000000E+00 -0.00000000000E+00 -0.37602892287E+01  0.37602892287E+01  0.00000000000E+00 0.  1.
         21    1    1    2  503  504  0.21989048943E+02 -0.22978339779E+00  0.10243949854E+03  0.10477319283E+03  0.00000000000E+00 0.  1.
         21    1    1    2  504  502 -0.21989048943E+02  0.22978339779E+00  0.44021351871E+02  0.49208236042E+02  0.00000000000E+00 0.  1.
</event>
<event>
 4    1  0.3283867E+006  0.2069450E+02  0.7546771E-02  0.1523672E+00
         21   -1    0    0  503  501  0.00000000000E+00  0.00000000000E+00  0.83368859953E+01  0.83368859953E+01  0.00000000000E+00 0. -1.
         21   -1    0    0  504  502 -0.00000000000E+00 -0.00000000000E+00 -0.36247354864E+03  0.36247354864E+03  0.00000000000E+00 0.  1.
         21    1    1    2  503  502 -0.59794666730E+01 -0.19811825415E+02 -0.53025863993E+01  0.21363049185E+02  0.00000000000E+00 0. -1.
         21    1    1    2  504  501  0.59794666730E+01  0.19811825415E+02 -0.34883407624E+03  0.34944738545E+03  0.00000000000E+00 0.  1.
</event>
<event>
 4    1  0.3283867E+006  0.2521799E+02  0.7546771E-02  0.1466379E+00
         21   -1    0    0  503  501  0.00000000000E+00  0.00000000000E+00  0.18628933228E+04  0.18628933228E+04  0.00000000000E+00 0. -1.
         21   -1    0    0  504  502 -0.00000000000E+00 -0.00000000000E+00 -0.55869049447E+00  0.55869049447E+00  0.00000000000E+00 0. -1.
         21    1    1    2  503  502  0.19653922983E+02  0.15800958031E+02  0.15122621057E+04  0.15124723546E+04  0.00000000000E+00 0. -1.
         21    1    1    2  504  501 -0.19653922983E+02 -0.15800958031E+02  0.35007252655E+03  0.35097965868E+03  0.00000000000E+00 0. -1.
</event>
<event>
 4    1  0.3283867E+006  0.2462001E+02  0.7546771E-02  0.1473099E+00
         21   -1    0    0  503  501  0.00000000000E+00  0.00000000000E+00  0.27019554536E+01  0.27019554536E+01  0.00000000000E+00 0. -1.
         21   -1    0    0  504  502 -0.00000000000E+00 -0.00000000000E+00 -0.28906642667E+03  0.28906642667E+03  0.00000000000E+00 0. -1.
         21    1    1    2  503  502 -0.21347719539E+02 -0.12264572062E+02 -0.21221653273E+03  0.21363988771E+03  0.00000000000E+00 0. -1.
         21    1    1    2  504  501  0.21347719539E+02  0.12264572062E+02 -0.74147938489E+02  0.78128494415E+02  0.00000000000E+00 0. -1.
</event>
<event>
 4    1  0.3283867E+006  0.2223644E+02  0.7546771E-02  0.1502315E+00
         21   -1    0    0  503  501  0.00000000000E+00  0.00000000000E+00  0.46662415985E+01  0.46662415985E+01  0.00000000000E+00 0. -1.
         21   -1    0    0  504  502 -0.00000000000E+00 -0.00000000000E+00 -0.40494820120E+03  0.40494820120E+03  0.00000000000E+00 0.  1.
         21    1    1    2  503  502  0.19531746656E+02 -0.10628732810E+02 -0.24158757309E+02  0.32834503853E+02  0.00000000000E+00 0. -1.
         21    1    1    2  504  501 -0.19531746656E+02  0.10628732810E+02 -0.37612320229E+03  0.37677993894E+03  0.00000000000E+00 0.  1.
</event>
<event>
 4    1  0.3283867E+006  0.2536377E+02  0.7546771E-02  0.1464775E+00
         21   -1    0    0  502  501  0.00000000000E+00  0.00000000000E+00  0.77254037873E+01  0.77254037873E+01  0.00000000000E+00 0. -1.
         21   -1    0    0  504  502 -0.00000000000E+00 -0.00000000000E+00 -0.11293054744E+03  0.11293054744E+03  0.00000000000E+00 0. -1.
         21    1    1    2  503  501 -0.91734880643E+01 -0.23646730989E+02 -0.21686977457E+02  0.33371331423E+02  0.00000000000E+00 0. -1.
         21    1    1    2  504  503  0.91734880643E+01  0.23646730989E+02 -0.83518166199E+02  0.87284619808E+02  0.00000000000E+00 0. -1.
</event>
<event>
 4    1  0.3283867E+006  0.2174439E+02  0.7546771E-02  0.1508897E+00
         21   -1    0    0  503  501  0.00000000000E+00  0.00000000000E+00  0.38243642813E+02  0.38243642813E+02  0.00000000000E+00 0.  1.
         21   -1    0    0  504  502 -0.00000000000E+00 -0.00000000000E+00 -0.14054749703E+02  0.14054749703E+02  0.00000000000E+00 0.  1.
         21    1    1    2  503  502  0.93804813253E+01  0.19616955130E+02  0.21165837473E+02  0.30344868337E+02  0.00000000000E+00 0.  1.
         21    1    1    2  504  501 -0.93804813253E+01 -0.19616955130E+02  0.30230556377E+01  0.21953524179E+02  0.00000000000E+00 0.  1.
</event>
<event>
 4    1  0.3283867E+006  0.2555495E+02  0.7546771E-02  0.1462690E+00
         21   -1    0    0  502  501  0.00000000000E+00  0.00000000000E+00  0.75417517980E+02  0.75417517980E+02  0.00000000000E+00 0. -1.
         21   -1    0    0  503  502 -0.00000000000E+00 -0.00000000000E+00 -0.10764557022E+02  0.10764557022E+02  0.00000000000E+00 0. -1.
         21    1    1    2  503  504  0.21077403193E+02 -0.14449869211E+02  0.13269619254E+02  0.28794764120E+02  0.00000000000E+00 0. -1.
         21    1    1    2  504  501 -0.21077403193E+02  0.14449869211E+02  0.51383341705E+02  0.57387310882E+02  0.00000000000E+00 0. -1.
</event>
<event>
 4    1  0.3283867E+006  0.2124159E+02  0.7546771E-02  0.1515843E+00
         21   -1    0    0  503  501  0.00000000000E+00  0.00000000000E+00  0.56669692126E+02  0.56669692126E+02  0.00000000000E+00 0. -1.
         21   -1    0    0  504  502 -0.00000000000E+00 -0.00000000000E+00 -0.14771558590E+02  0.14771558590E+02  0.00000000000E+00 0.  1.
         21    1    1    2  503  502  0.16423840523E+02  0.13470807953E+02 -0.33038929454E+01  0.21496997768E+02  0.00000000000E+00 0.  1.
         21    1    1    2  504  501 -0.16423840523E+02 -0.13470807953E+02  0.45202026482E+02  0.49944252948E+02  0.00000000000E+00 0. -1.
</event>
<event>
 4    1  0.3283867E+006  0.8148728E+02  0.7546771E-02  0.1200436E+00
         21   -1    0    0  503  501  0.00000000000E+00  0.00000000000E+00  0.21058672310E+03  0.21058672310E+03  0.00000000000E+00 0. -1.
         21   -1    0    0  501  502 -0.00000000000E+00 -0.00000000000E+00 -0.16117933199E+03  0.16117933199E+03  0.00000000000E+00 0. -1.
         21    1    1    2  503  504 -0.77975094574E+02 -0.23665631869E+02  0.19141582387E+03  0.20803892697E+03  0.00000000000E+00 0. -1.
         21    1    1    2  504  502  0.77975094574E+02  0.23665631869E+02 -0.14200843277E+03  0.16372712812E+03  0.00000000000E+00 0. -1.
</event>
<event>
 4    1  0.3283867E+006  0.3137277E+02  0.7546771E-02  0.1408031E+00
         21   -1    0    0  504  501  0.00000000000E+00  0.00000000000E+00  0.87803264795E+00  0.87803264795E+00  0.00000000000E+00 0. -1.
         21   -1    0    0  503  502 -0.00000000000E+00 -0.00000000000E+00 -0.12610184643E+04  0.12610184643E+04  0.00000000000E+00 0. -1.
         21    1    1    2  503  501 -0.23694675384E+02 -0.20562411374E+02 -0.84033590088E+03  0.84092132611E+03  0.00000000000E+00 0. -1.
         21    1    1    2  504  502  0.23694675384E+02  0.20562411374E+02 -0.41980453073E+03  0.42097517079E+03  0.00000000000E+00 0. -1.
</event>
<event>
 4    1  0.3283867E+006  0.2679182E+02  0.7546771E-02  0.1449711E+00
         21   -1    0    0  503  501  0.00000000000E+00  0.00000000000E+00  0.10031448221E+03  0.10031448221E+03  0.00000000000E+00 0.  1.
         21   -1    0    0  504  502 -0.00000000000E+00 -0.00000000000E+00 -0.27230930004E+02  0.27230930004E+02  0.00000000000E+00 0. -1.
         21    1    1    2  503  502 -0.26346151105E+02 -0.48664044888E+01  0.91298303506E+02  0.95148209619E+02  0.00000000000E+00 0.  1.
         21    1    1    2  504  501  0.26346151105E+02  0.48664044888E+01 -0.18214751304E+02  0.32397202591E+02  0.00000000000E+00 0. -1.
</event>
<event>
 4    1  0.3283867E+006  0.2125971E+02  0.7546771E-02  0.1515589E+00
         21   -1    0    0  504  501  0.00000000000E+00  0.00000000000E+00  0.23413300075E+01  0.23413300075E+01  0.00000000000E+00 0.  1.
         21   -1    0    0  503  502 -0.00000000000E+00 -0.00000000000E+00 -0.34764208299E+03  0.34764208299E+03  0.00000000000E+00 0.  1.
         21    1    1    2  503  501 -0.21086512555E+02  0.27082087101E+01 -0.55954387569E+02  0.59857070546E+02  0.00000000000E+00 0.  1.
         21    1    1    2  504  502  0.21086512555E+02 -0.27082087101E+01 -0.28934636542E+03  0.29012634245E+03  0.00000000000E+00 0.  1.
</event>
<event>
 4    1  0.3283867E+006  0.2083576E+02  0.7546771E-02  0.1521623E+00
         21   -1    0    0  502  501  0.00000000000E+00  0.00000000000E+00  0.68968334761E+02  0.68968334761E+02  0.00000000000E+00 0. -1.
         21   -1    0    0  503  502 -0.00000000000E+00 -0.00000000000E+00 -0.81595572142E+02  0.81595572142E+02  0.00000000000E+00 0.  1.
         21    1    1    2  503  504  0.18543299197E+02 -0.95013136426E+01 -0.78633522663E+02  0.81347156020E+02  0.00000000000E+00 0.  1.
         21    1    1    2  504  501 -0.18543299197E+02  0.95013136426E+01  0.66006285282E+02  0.69216750883E+02  0.00000000000E+00 0. -1.
</event>
<event>
 4    1  0.3283867E+006  0.2191280E+02  0.7546771E-02  0.1506621E+00
         21   -1    0    0  503  501  0.00000000000E+00  0.00000000000E+00  0.34720379997E+02  0.34720379997E+02  0.00000000000E+00 0.  1.
         21   -1    0    0  504  502 -0.00000000000E+00 -0.00000000000E+00 -0.46883983256E+02  0.46883983256E+02  0.00000000000E+00 0.  1.
         21    1    1    2  503  502  0.11854670470E+02 -0.18429263322E+02 -0.40341638129E+02  0.45908808801E+02  0.00000000000E+00 0.  1.
         21    1    1    2  504  501 -0.11854670470E+02  0.18429263322E+02  0.28178034871E+02  0.35695554453E+02  0.00000000000E+00 0.  1.
</event>
<event>
 4    1  0.3283867E+006  0.4159127E+02  0.7546771E-02  0.1339405E+00
         21   -1    0    0  503  501  0.00000000000E+00  0.00000000000E+00  0.73354958263E+02  0.73354958263E+02  0.00000000000E+00 0.  1.
         21   -1    0    0  501  502 -0.00000000000E+00 -0.00000000000E+00 -0.33389582002E+02  0.33389582002E+02  0.00000000000E+00 0. -1.
         21    1    1    2  503  504 -0.41547220721E+02  0.19135944984E+01  0.48909340099E+02  0.64202468352E+02  0.00000000000E+00 0.  1.
         21    1    1    2  504  502  0.41547220721E+02 -0.19135944984E+01 -0.89439638391E+01  0.42542071913E+02  0.00000000000E+00 0. -1.
</event>
<event>
 4    1  0.3283867E+006  0.2749200E+02  0.7546771E-02  0.1442727E+00
         21   -1    0    0  504  501  0.00000000000E+00  0.00000000000E+00  0.21173762248E+01  0.21173762248E+01  0.00000000000E+00 0. -1.
         21   -1    0    0  503  502 -0.00000000000E+00 -0.00000000000E+00 -0.35726065072E+03  0.35726065072E+03  0.00000000000E+00 0. -1.
         21    1    1    2  503  501 -0.12184532562E+02 -0.24644417349E+02 -0.18281889686E+03  0.18487444169E+03  0.00000000000E+00 0. -1.
         21    1    1    2  504  502  0.12184532562E+02  0.24644417349E+02 -0.17232437763E+03  0.17450358525E+03  0.00000000000E+00 0. -1.
</event>
<event>
 4    1  0.3283867E+006  0.2004421E+02  0.7546771E-02  0.1533361E+00
         21   -1    0    0  502  501  0.00000000000E+00  0.00000000000E+00  0.32657882224E+01  0.32657882224E+01  0.00000000000E+00 0.  1.
         21   -1    0    0  504  502 -0.00000000000E+00 -0.00000000000E+00 -0.37842987447E+03  0.37842987447E+03  0.00000000000E+00 0. -1.
         21    1    1    2  503  501 -0.17899510799E+02 -0.90209791554E+01 -0.30795095280E+02  0.36743821862E+02  0.00000000000E+00 0.  1.
         21    1    1    2  504  503  0.17899510799E+02  0.90209791554E+01 -0.34436899096E+03  0.34495184083E+03  0.00000000000E+00 0. -1.
</event>
<event>
 4    1  0.3283867E+006  0.2401303E+02  0.7546771E-02  0.1480155E+00
         21   -1    0    0  504  501  0.00000000000E+00  0.00000000000E+00  0.64871781074E+01  0.64871781074E+01  0.00000000000E+00 0.  1.
         21   -1    0    0  503  502 -0.00000000000E+00 -0.00000000000E+00 -0.19099514707E+03  0.19099514707E+03  0.00000000000E+00 0. -1.
         21    1    1    2  503  501  0.16220572983E+02  0.17706451941E+02 -0.16445069156E+03  0.16619463103E+03  0.00000000000E+00 0. -1.
         21    1    1    2  504  502 -0.16220572983E+02 -0.17706451941E+02 -0.20057277400E+02  0.31287694146E+02  0.00000000000E+00 0.  1.
</event>
<event>
 4    1  0.3283867E+006  0.2059449E+02  0.7546771E-02  0.1525134E+00
         21   -1    0    0  504  501  0.00000000000E+00  0.00000000000E+00  0.73614196800E+00  0.73614196800E+00  0.00000000000E+00 0.  1.
         21   -1    0    0  503  502 -0.00000000000E+00 -0.00000000000E+00 -0.69363829137E+03  0.69363829137E+03  0.00000000000E+00 0.  1.
         21    1    1    2  503  501  0.11813241686E+02  0.16869508632E+02 -0.48933468791E+03  0.48976787337E+03  0.00000000000E+00 0.  1.
         21    1    1    2  504  502 -0.11813241686E+02 -0.16869508632E+02 -0.20356746149E+03  0.20460655996E+03  0.00000000000E+00 0.  1.
</event>
<event>
 4    1  0.3283867E+006  0.2394552E+02  0.7546771E-02  0.1480955E+00
         21   -1    0    0  502  501  0.00000000000E+00  0.00000000000E+00  0.30789716912E+02  0.30789716912E+02  0.00000000000E+00 0. -1.
         21   -1    0    0  503  502 -0.00000000000E+00 -0.00000000000E+00 -0.18918384215E+02  0.18918384215E+02  0.00000000000E+00 0. -1.
         21    1    1    2  503  504 -0.97608261146E+01 -0.21865818988E+02  0.28284841842E+01  0.24111990569E+02  0.00000000000E+00 0. -1.
         21    1    1    2  504  501  0.97608261146E+01  0.21865818988E+02  0.90428485133E+01  0.25596110557E+02  0.00000000000E+00 0. -1.
</event>
<event>
 4    1  0.3283867E+006  0.2816642E+02  0.7546771E-02  0.1436230E+00
         21   -1    0    0  503  501  0.00000000000E+00  0.00000000000E+00  0.35738321755E+02  0.35738321755E+02  0.00000000000E+00 0.  1.
         21   -1    0    0  504  502 -0.00000000000E+00 -0.00000000000E+00 -0.24675255711E+02  0.24675255711E+02  0.00000000000E+00 0.  1.
         21    1    1    2  503  502  0.19202345215E+02 -0.20606240390E+02  0.15101063063E+02  0.31959181942E+02  0.00000000000E+00 0.  1.
         21    1    1    2  504  501 -0.19202345215E+02  0.20606240390E+02 -0.40379970190E+01  0.28454395524E+02  0.00000000000E+00 0.  1.
</event>
<event>
 4    1  0.3283867E+006  0.7586671E+02  0.7546771E-02  0.1213782E+00
         21   -1    0    0  504  501  0.00000000000E+00  0.00000000000E+00  0.76965441658E+02  0.76965441658E+02  0.00000000000E+00 0.  1.
         21   -1    0    0  503  502 -0.00000000000E+00 -0.00000000000E+00 -0.25581531186E+03  0.25581531186E+03  0.00000000000E+00 0.  1.
         21    1    1    2  503  501  0.13553044816E+01 -0.75854605171E+02 -0.22939726309E+03  0.24161718127E+03  0.00000000000E+00 0.  1.
         21    1    1    2  504  502 -0.13553044816E+01  0.75854605171E+02  0.50547392886E+02  0.91163572240E+02  0.00000000000E+00 0.  1.
</event>
<event>
 4    1  0.3283867E+006  0.2211714E+02  0.7546771E-02  0.1503892E+00
         21   -1    0    0  503  501  0.00000000000E+00  0.00000000000E+00  0.65171037419E+01  0.65171037419E+01  0.00000000000E+00 0. -1.
         21   -1    0    0  504  502 -0.00000000000E+00 -0.00000000000E+00 -0.79100046014E+02  0.79100046014E+02  0.00000000000E+00 0. -1.
         21    1    1    2  503  502 -0.17271568513E+02  0.13815237078E+02 -0.26615721014E+02  0.34605844297E+02  0.00000000000E+00 0. -1.
         21    1    1    2  504  501  0.17271568513E+02 -0.13815237078E+02 -0.45967221258E+02  0.51011305459E+02  0.00000000000E+00 0. -1.
</event>
<event>
 4    1  0.3283867E+006  0.2269376E+02  0.7546771E-02  0.1496380E+00
         21   -1    0    0  503  501  0.00000000000E+00  0.00000000000E+00  0.13822911985E+02  0.13822911985E+02  0.00000000000E+00 0.  1.
         21   -1    0    0  504  502 -0.00000000000E+00 -0.00000000000E+00 -0.56671899139E+02  0.56671899139E+02  0.00000000000E+00 0.  1.
         21    1    1    2  503  502 -0.40426459442E+01 -0.22330781307E+02 -0.42054793570E+02  0.47787157713E+02  0.00000000000E+00 0.  1.
         21    1    1    2  504  501  0.40426459442E+01  0.22330781307E+02 -0.79419358422E+00  0.22707653412E+02  0.00000000000E+00 0.  1.
</event>
<event>
 4    1  0.3283867E+006  0.2362004E+02  0.7546771E-02  0.1484856E+00
         21   -1    0    0  504  501  0.00000000000E+00  0.00000000000E+00  0.90041620778E+02  0.90041620778E+02  0.00000000000E+00 0.  1.
         21   -1    0    0  503  502 -0.00000000000E+00 -0.00000000000E+00 -0.13788511913E+02  0.13788511913E+02  0.00000000000E+00 0.  1.
         21    1    1    2  503  501 -0.96184736476E+01 -0.21572926149E+02  0.76649973054E+02  0.80206761231E+02  0.00000000000E+00 0.  1.
         21    1    1    2  504  502  0.96184736476E+01  0.21572926149E+02 -0.39686418901E+00  0.23623371460E+02  0.00000000000E+00 0.  1.
</event>
<event>
 4    1  0.3283867E+006  0.2869582E+02  0.7546771E-02  0.1431279E+00
         21   -1    0    0  503  501  0.00000000000E+00  0.00000000000E+00  0.33222324021E+03  0.33222324021E+03  0.00000000000E+00 0.  1.
         21   -1    0    0  504  502 -0.00000000000E+00 -0.00000000000E+00 -0.44723316125E+02  0.44723316125E+02  0.00000000000E+00 0. -1.
         21    1    1    2  503  502  0.21680194010E+02  0.18799456237E+02 -0.39426199851E+02  0.48763465851E+02  0.00000000000E+00 0. -1.
         21    1    1    2  504  501 -0.21680194010E+02 -0.18799456237E+02  0.32692612394E+03  0.32818309049E+03  0.00000000000E+00 0.  1.
</event>
<event>
 4    1  0.3283867E+006  0.2412341E+02  0.7546771E-02  0.1478853E+00
         21   -1    0    0  504  501  0.00000000000E+00  0.00000000000E+00  0.10205750070E+02  0.10205750070E+02  0.00000000000E+00 0. -1.
         21   -1    0    0  501  502 -0.00000000000E+00 -0.00000000000E+00 -0.11737494886E+03  0.11737494886E+03  0.00000000000E+00 0. -1.
         21    1    1    2  503  502  0.17215126184E+02 -0.16899066551E+02 -0.99327236192E+02  0.10221467052E+03  0.00000000000E+00 0. -1.
         21    1    1    2  504  503 -0.17215126184E+02  0.16899066551E+02 -0.78419625944E+01  0.25366028407E+02  0.00000000000E+00 0. -1.
</event>
<event>
 4    1  0.3283867E+006  0.2618368E+02  0.7546771E-02  0.1455985E+00
         21   -1    0    0  503  501  0.00000000000E+00  0.00000000000E+00  0.10533483472E+01  0.10533483472E+01  0.00000000000E+00 0.  1.
         21   -1    0    0  504  502 -0.00000000000E+00 -0.00000000000E+00 -0.71528395453E+03  0.71528395453E+03  0.00000000000E+00 0.  1.
         21    1    1    2  503  502  0.16853882462E+02  0.20038252843E+02 -0.24962640331E+03  0.25099586881E+03  0.00000000000E+00 0.  1.
         21    1    1    2  504  501 -0.16853882462E+02 -0.20038252843E+02 -0.46460420287E+03  0.46534143406E+03  0.00000000000E+00 0.  1.
</event>
<event>
 4    1  0.3283867E+006  0.2491241E+02  0.7546771E-02  0.1469786E+00
         21   -1    0    0  504  501  0.00000000000E+00  0.00000000000E+00  0.75707072253E+02  0.75707072253E+02  0.00000000000E+00 0. -1.
         21   -1    0    0  501  502 -0.00000000000E+00 -0.00000000000E+00 -0.12018986499E+02  0.12018986499E+02  0.00000000000E+00 0. -1.
         21    1    1    2  503  502  0.44560375980E+01 -0.24510643958E+02  0.71116325895E+01  0.25907590710E+02  0.00000000000E+00 0. -1.
         21    1    1    2  504  503 -0.44560375980E+01  0.24510643958E+02  0.56576453165E+02  0.61818468042E+02  0.00000000000E+00 0. -1.
</event>
<event>
 4    1  0.3283867E+006  0.2102133E+02  0.7546771E-02  0.1518960E+00
         21   -1    0    0  504  501  0.00000000000E+00  0.00000000000E+00  0.36237254814E+02  0.36237254814E+02  0.00000000000E+00 0.  1.
         21   -1    0    0  503  502 -0.00000000000E+00 -0.00000000000E+00 -0.12583045386E+02  0.12583045386E+02  0.00000000000E+00 0. -1.
         21    1    1    2  503  501 -0.20410229137E+02  0.50317836194E+01  0.75378529077E+01  0.22331939599E+02  0.00000000000E+00 0. -1.
         21    1    1    2  504  502  0.20410229137E+02 -0.50317836194E+01  0.16116356520E+02  0.26488360600E+02  0.00000000000E+00 0.  1.
</event>
<event>
 4    1  0.3283867E+006  0.2918793E+02  0.7546771E-02  0.1426787E+00
         21   -1    0    0  503  501  0.00000000000E+00  0.00000000000E+00  0.16216581640E+03  0.16216581640E+03  0.00000000000E+00 0. -1.
         21   -1    0    0  504  502 -0.00000000000E+00 -0.00000000000E+00 -0.65374625714E+01  0.65374625714E+01  0.00000000000E+00 0. -1.
         21    1    1    2  503  502  0.25989615876E+02  0.13284385103E+02  0.11519667594E+03  0.11883690154E+03  0.00000000000E+00 0. -1.
         21    1    1    2  504  501 -0.25989615876E+02 -0.13284385103E+02  0.40431677895E+02  0.49866377434E+02  0.00000000000E+00 0. -1.
</event>
<event>
 4    1  0.3283867E+006  0.2446218E+02  0.7546771E-02  0.1474911E+00
         21   -1    0    0  503  501  0.00000000000E+00  0.00000000000E+00  0.58696316430E+02  0.58696316430E+02  0.00000000000E+00 0. -1.
         21   -1    0    0  504  502 -0.00000000000E+00 -0.00000000000E+00 -0.15097992988E+03  0.15097992988E+03  0.00000000000E+00 0.  1.
         21    1    1    2  503  502  0.13797147317E+02  0.20199927659E+02 -0.14737850919E+03  0.14939485708E+03  0.00000000000E+00 0.  1.
         21    1    1    2  504  501 -0.13797147317E+02 -0.20199927659E+02  0.55094895736E+02  0.60281389232E+02  0.00000000000E+00 0. -1.
</event>
<event>
 4    1  0.3283867E+006  0.2629290E+02  0.7546771E-02  0.1454843E+00
         21   -1    0    0  504  501  0.00000000000E+00  0.00000000000E+00  0.24452499197E+03  0.24452499197E+03  0.00000000000E+00 0.  1.
         21   -1    0    0  503  502 -0.00000000000E+00 -0.00000000000E+00 -0.11308138089E+02  0.11308138089E+02  0.00000000000E+00 0. -1.
         21    1    1    2  503  501  0.12962669823E+01  0.26260930360E+02  0.22738645556E+03  0.22890154421E+03  0.00000000000E+00 0.  1.
         21    1    1    2  504  502 -0.12962669823E+01 -0.26260930360E+02  0.58303983188E+01  0.26931585843E+02  0.00000000000E+00 0. -1.
</event>
<event>
 4    1  0.3283867E+006  0.2203341E+02  0.7546771E-02  0.1505006E+00
         21   -1    0    0  503  501  0.00000000000E+00  0.00000000000E+00  0.13669308925E+01  0.13669308925E+01  0.00000000000E+00 0. -1.
         21   -1    0    0  504  502 -0.00000000000E+00 -0.00000000000E+00 -0.37552414329E+03  0.37552414329E+03  0.00000000000E+00 0. -1.
         21    1    1    2  503  502 -0.21144054931E+02 -0.61967652836E+01 -0.14318875729E+03  0.14487405280E+03  0.00000000000E+00 0. -1.
         21    1    1    2  504  501  0.21144054931E+02  0.61967652836E+01 -0.23096845510E+03  0.23201702138E+03  0.00000000000E+00 0. -1.
</event>
<event>
 4    1  0.3283867E+006  0.2333853E+02  0.7546771E-02  0.1488290E+00
         21   -1    0    0  504  501  0.00000000000E+00  0.00000000000E+00  0.33168404712E+03  0.33168404712E+03  0.00000000000E+00 0.  1.
         21   -1    0    0  503  502 -0.00000000000E+00 -0.00000000000E+00 -0.26709249657E+01  0.26709249657E+01  0.00000000000E+00 0. -1.
         21    1    1    2  503  501  0.20137338685E+02  0.11797235480E+02  0.60753870970E+02  0.65082409391E+02  0.00000000000E+00 0. -1.
         21    1    1    2  504  502 -0.20137338685E+02 -0.11797235480E+02  0.26825925118E+03  0.26927256270E+03  0.00000000000E+00 0.  1.
</event>
<event>
 4    1  0.3283867E+006  0.2743598E+02  0.7546771E-02  0.1443277E+00
         21   -1    0    0  504  501  0.00000000000E+00  0.00000000000E+00  0.13696308390E+01  0.13696308390E+01  0.00000000000E+00 0. -1.
         21   -1    0    0  503  502 -0.00000000000E+00 -0.00000000000E+00 -0.65075136465E+03  0.65075136465E+03  0.00000000000E+00 0. -1.
         21    1    1    2  503  501  0.76755763156E+00  0.27425243582E+02 -0.19613214080E+03  0.19804178798E+03  0.00000000000E+00 0. -1.
         21    1    1    2  504  502 -0.76755763156E+00 -0.27425243582E+02 -0.45324959301E+03  0.45407920752E+03  0.00000000000E+00 0. -1.
</event>
<event>
 4    1  0.3283867E+006  0.2019941E+02  0.7546771E-02  0.1531009E+00
         21   -1    0    0  502  501  0.00000000000E+00  0.00000000000E+00  0.36224866921E+02  0.36224866921E+02  0.00000000000E+00 0. -1.
         21   -1    0    0  504  502 -0.00000000000E+00 -0.00000000000E+00 -0.27753997759E+03  0.27753997759E+03  0.00000000000E+00 0.  1.
         21    1    1    2  503  501 -0.18764735476E+02  0.74766840640E+01  0.33008510957E+02  0.38698551622E+02  0.00000000000E+00 0. -1.
         21    1    1    2  504  503  0.18764735476E+02 -0.74766840640E+01 -0.27432362162E+03  0.27506629289E+03  0.00000000000E+00 0.  1.
</event>
<event>
 4    1  0.3283867E+006  0.2505329E+02  0.7546771E-02  0.1468208E+00
         21   -1    0    0  503  501  0.00000000000E+00  0.00000000000E+00  0.16848094810E+03  0.16848094810E+03  0.00000000000E+00 0.  1.
         21   -1    0    0  501  502 -0.00000000000E+00 -0.00000000000E+00 -0.12764593150E+02  0.12764593150E+02  0.00000000000E+00 0. -1.
         21    1    1    2  503  504 -0.19435823767E+02 -0.15808733732E+02  0.15411829762E+03  0.15614133652E+03  0.00000000000E+00 0.  1.
         21    1    1    2  504  502  0.19435823767E+02  0.15808733732E+02  0.15980573230E+01  0.25104204726E+02  0.00000000000E+00 0. -1.
</event>
<event>
 4    1  0.3283867E+006  0.3740049E+02  0.7546771E-02  0.1364431E+00
         21   -1    0    0  504  501  0.00000000000E+00  0.00000000000E+00  0.21143403972E+03  0.21143403972E+03  0.00000000000E+00 0.  1.
         21   -1    0    0  503  502 -0.00000000000E+00 -0.00000000000E+00 -0.83924266100E+02  0.83924266100E+02  0.00000000000E+00 0. -1.
         21    1    1    2  503  501  0.36599643742E+02  0.76982106718E+01 -0.77984015023E+02  0.86488744752E+02  0.00000000000E+00 0. -1.
         21    1    1    2  504  502 -0.36599643742E+02 -0.76982106718E+01  0.20549378864E+03  0.20886956107E+03  0.00000000000E+00 0.  1.
</event>
<event>
 4    1  0.3283867E+006  0.3051627E+02  0.7546771E-02  0.1415162E+00
         21   -1    0    0  504  501  0.00000000000E+00  0.00000000000E+00  0.20713216967E+01  0.20713216967E+01  0.00000000000E+00 0. -1.
         21   -1    0    0  503  502 -0.00000000000E+00 -0.00000000000E+00 -0.45451716968E+03  0.45451716968E+03  0.00000000000E+00 0. -1.
         21    1    1    2  503  501 -0.29123161525E+02 -0.91150479635E+01 -0.20245014498E+03  0.20473715793E+03  0.00000000000E+00 0. -1.
         21    1    1    2  504  502  0.29123161525E+02  0.91150479635E+01 -0.24999570301E+03  0.25185133345E+03  0.00000000000E+00 0. -1.
</event>
<event>
 4    1  0.3283867E+006  0.3675289E+02  0.7546771E-02  0.1368642E+00
         21   -1    0    0  503  501  0.00000000000E+00  0.00000000000E+00  0.81555476469E+03  0.81555476469E+03  0.00000000000E+00 0. -1.
         21   -1    0    0  501  502 -0.00000000000E+00 -0.00000000000E+00 -0.88593378511E+01  0.88593378511E+01  0.00000000000E+00 0. -1.
         21    1    1    2  503  504  0.65508507289E+01 -0.36164365240E+02  0.77503155647E+03  0.77590249934E+03  0.00000000000E+00 0. -1.
         21    1    1    2  504  502 -0.65508507289E+01  0.36164365240E+02  0.31663870373E+02  0.48511603205E+02  0.00000000000E+00 0. -1.
</event>
<event>
 4    1  0.3283867E+006  0.2584911E+02  0.7546771E-02  0.1459524E+00
         21   -1    0    0  503  501  0.00000000000E+00  0.00000000000E+00  0.16385923696E+03  0.16385923696E+03  0.00000000000E+00 0. -1.
         21   -1    0    0  501  502 -0.00000000000E+00 -0.00000000000E+00 -0.14558098196E+03  0.14558098196E+03  0.00000000000E+00 0.  1.
         21    1    1    2  503  504 -0.22540963592E+02 -0.12652338503E+02  0.16167697871E+03  0.16373033364E+03  0.00000000000E+00 0. -1.
         21    1    1    2  504  502  0.22540963592E+02  0.12652338503E+02 -0.14339872370E+03  0.14570988528E+03  0.00000000000E+00 0.  1.
</event>
<event>
 4    1  0.3283867E+006  0.3122646E+02  0.7546771E-02  0.1409230E+00
         21   -1    0    0  502  501  0.00000000000E+00  0.00000000000E+00  0.36765424061E+03  0.36765424061E+03  0.00000000000E+00 0. -1.
         21   -1    0    0  504  502 -0.00000000000E+00 -0.00000000000E+00 -0.94421595058E+01  0.94421595058E+01  0.00000000000E+00 0.  1.
         21    1    1    2  503  501  0.23833717804E+02 -0.20175368309E+02  0.33899570917E+03  0.34043087761E+03  0.00000000000E+00 0. -1.
         21    1    1    2  504  503 -0.23833717804E+02  0.20175368309E+02  0.19216371935E+02  0.36665522513E+02  0.00000000000E+00 0.  1.
</event>
<event>
 4    1  0.3283867E+006  0.2090832E+02  0.7546771E-02  0.1520578E+00
         21   -1    0    0  502  501  0.00000000000E+00  0.00000000000E+00  0.19039277798E+02  0.19039277798E+02  0.00000000000E+00 0.  1.
         21   -1    0    0  504  502 -0.00000000000E+00 -0.00000000000E+00 -0.47926385153E+02  0.47926385153E+02  0.00000000000E+00 0.  1.
         21    1    1    2  503  501  0.82248351433E+01 -0.19222640156E+02  0.97224795743E+01  0.23058283041E+02  0.00000000000E+00 0.  1.
         21    1    1    2  504  503 -0.82248351433E+01  0.19222640156E+02 -0.38609586929E+02  0.43907379910E+02  0.00000000000E+00 0.  1.
</event>
<event>
 4    1  0.3283867E+006  0.2521083E+02  0.7546771E-02  0.1466459E+00
         21   -1    0    0  503  501  0.00000000000E+00  0.00000000000E+00  0.33566321684E+01  0.33566321684E+01  0.00000000000E+00 0.  1.
         21   -1    0    0  504  502 -0.00000000000E+00 -0.00000000000E+00 -0.23175353189E+03  0.23175353189E+03  0.00000000000E+00 0. -1.
         21    1    1    2  503  502 -0.24968922217E+02  0.34841161112E+01 -0.63915901311E+02  0.68708286124E+02  0.00000000000E+00 0.  1.
         21    1    1    2  504  501  0.24968922217E+02 -0.34841161112E+01 -0.16448099841E+03  0.16640187793E+03  0.00000000000E+00 0. -1.
</event>
<event>
 4    1  0.3283867E+006  0.6039268E+02  0.7546771E-02  0.1258504E+00
         21   -1    0    0  504  501  0.00000000000E+00  0.00000000000E+00  0.48697233896E+03  0.48697233896E+03  0.00000000000E+00 0. -1.
         21   -1    0    0  501  502 -0.00000000000E+00 -0.00000000000E+00 -0.11001789997E+02  0.11001789997E+02  0.00000000000E+00 0. -1.
         21    1    1    2  503  502  0.57263480466E+02  0.19187758685E+02  0.97306691684E+02  0.11452453242E+03  0.00000000000E+00 0. -1.
         21    1    1    2  504  503 -0.57263480466E+02 -0.19187758685E+02  0.37866385728E+03  0.38344959654E+03  0.00000000000E+00 0. -1.
</event>
<event>
 4    1  0.3283867E+006  0.2299288E+02  0.7546771E-02  0.1492588E+00
         21   -1    0    0  503  501  0.00000000000E+00  0.00000000000E+00  0.59203385531E+03  0.59203385531E+03  0.00000000000E+00 0.  1.
         21   -1    0    0  504  502 -0.00000000000E+00 -0.00000000000E+00 -0.28349882243E+03  0.28349882243E+03  0.00000000000E+00 0. -1.
         21    1    1    2  503  502  0.19467863004E+02 -0.12234165447E+02 -0.28280883103E+03  0.28374197328E+03  0.00000000000E+00 0. -1.
         21    1    1    2  504  501 -0.19467863004E+02  0.12234165447E+02  0.59134386391E+03  0.59179070445E+03  0.00000000000E+00 0.  1.
</event>
<event>
 4    1  0.3283867E+006  0.3326540E+02  0.7546771E-02  0.1393186E+00
         21   -1    0    0  503  501  0.00000000000E+00  0.00000000000E+00  0.52632234164E+01  0.52632234164E+01  0.00000000000E+00 0. -1.
         21   -1    0    0  504  502 -0.00000000000E+00 -0.00000000000E+00 -0.21041055500E+03  0.21041055500E+03  0.00000000000E+00 0. -1.
         21    1    1    2  503  502  0.33265398705E+02  0.35221534311E-02 -0.10556298044E+03  0.11068030359E+03  0.00000000000E+00 0. -1.
         21    1    1    2  504  501 -0.33265398705E+02 -0.35221534311E-02 -0.99584351149E+02  0.10499347483E+03  0.00000000000E+00 0. -1.
</event>
<event>
 4    1  0.3283867E+006  0.2089595E+02  0.7546771E-02  0.1520756E+00
         21   -1    0    0  504  501  0.00000000000E+00  0.00000000000E+00  0.78748381286E+03  0.78748381286E+03  0.00000000000E+00 0.  1.
         21   -1    0    0  503  502 -0.00000000000E+00 -0.00000000000E+00 -0.12117783633E+01  0.12117783633E+01  0.00000000000E+00 0.  1.
         21    1    1    2  503  501 -0.18193653067E+02  0.10277723489E+02  0.68357207128E+03  0.68389137825E+03  0.00000000000E+00 0.  1.
         21    1    1    2  504  502  0.18193653067E+02 -0.10277723489E+02  0.10269996321E+03  0.10480421297E+03  0.00000000000E+00 0.  1.
</event>
<event>
 4    1  0.3283867E+006  0.2746944E+02  0.7546771E-02  0.1442949E+00
         21   -1    0    0  504  501  0.00000000000E+00  0.00000000000E+00  0.14205477204E+02  0.14205477204E+02  0.00000000000E+00 0. -1.
         21   -1    0    0  503  502 -0.00000000000E+00 -0.00000000000E+00 -0.89561230229E+02  0.89561230229E+02  0.00000000000E+00 0. -1.
         21    1    1    2  503  501 -0.19977029494E+02 -0.18854403617E+02 -0.45819232997E+01  0.27848954456E+02  0.00000000000E+00 0. -1.
         21    1    1    2  504  502  0.19977029494E+02  0.18854403617E+02 -0.70773829726E+02  0.75917752978E+02  0.00000000000E+00 0. -1.
</event>
<event>
 4    1  0.3283867E+006  0.3395976E+02  0.7546771E-02  0.1388028E+00
         21   -1    0    0  503  501  0.00000000000E+00  0.00000000000E+00  0.73985119685E+01  0.73985119685E+01  0.00000000000E+00 0. -1.
         21   -1    0    0  504  502 -0.00000000000E+00 -0.00000000000E+00 -0.24188355343E+03  0.24188355343E+03  0.00000000000E+00 0. -1.
         21    1    1    2  503  502  0.33478030850E+02 -0.56997329819E+01 -0.42919897750E+02  0.54730093445E+02  0.00000000000E+00 0. -1.
         21    1    1    2  504  501 -0.33478030850E+02  0.56997329819E+01 -0.19156514371E+03  0.19455197195E+03  0.00000000000E+00 0. -1.
</event>
<event>
 4    1  0.3283867E+006  0.3246492E+02  0.7546771E-02  0.1399319E+00
         21   -1    0    0  503  501  0.00000000000E+00  0.00000000000E+00  0.34707915211E+03  0.34707915211E+03  0.00000000000E+00 0. -1.
         21   -1    0    0  504  502 -0.00000000000E+00 -0.00000000000E+00 -0.22694445048E+02  0.22694445048E+02  0.00000000000E+00 0.  1.
         21    1    1    2  503  502 -0.32451741827E+02  0.92504621783E+00 -0.98807910179E+01  0.33935251425E+02  0.00000000000E+00 0.  1.
         21    1    1    2  504  501  0.32451741827E+02 -0.92504621783E+00  0.33426549808E+03  0.33583834574E+03  0.00000000000E+00 0. -1.
</event>
<event>
 4    1  0.3283867E+006  0.2009577E+02  0.7546771E-02  0.1532577E+00
         21   -1    0    0  503  501  0.00000000000E+00  0.00000000000E+00  0.54363944499E+00  0.54363944499E+00  0.00000000000E+00 0. -1.
         21   -1    0    0  504  502 -0.00000000000E+00 -0.00000000000E+00 -0.92302989159E+03  0.92302989159E+03  0.00000000000E+00 0. -1.
         21    1    1    2  503  502 -0.79174000270E+01 -0.18470369477E+02 -0.66527261644E+03  0.66557606174E+03  0.00000000000E+00 0. -1.
         21    1    1    2  504  501  0.79174000270E+01  0.18470369477E+02 -0.25721363570E+03  0.25799746930E+03  0.00000000000E+00 0. -1.
</event>
<event>
 4    1  0.3283867E+006  0.2412066E+02  0.7546771E-02  0.1478886E+00
         21   -1    0    0  502  501  0.00000000000E+00  0.00000000000E+00  0.63351632720E+03  0.63351632720E+03  0.00000000000E+00 0. -1.
         21   -1    0    0  504  502 -0.00000000000E+00 -0.00000000000E+00 -0.12373927635E+01  0.12373927635E+01  0.00000000000E+00 0. -1.
         21    1    1    2  503  501 -0.31015863516E+00  0.24118662569E+02  0.47728873685E+03  0.47789783888E+03  0.00000000000E+00 0. -1.
         21    1    1    2  504  503  0.31015863516E+00 -0.24118662569E+02  0.15499019758E+03  0.15685588108E+03  0.00000000000E+00 0. -1.
</event>
<event>
 4    1  0.3283867E+006  0.2823947E+02  0.7546771E-02  0.1435540E+00
         21   -1    0    0  503  501  0.00000000000E+00  0.00000000000E+00  0.22604867919E+03  0.22604867919E+03  0.00000000000E+00 0.  1.
         21   -1    0    0  504  502 -0.00000000000E+00 -0.00000000000E+00 -0.53948772369E+01  0.53948772369E+01  0.00000000000E+00 0.  1.
         21    1    1    2  503  502 -0.20144114516E+02 -0.19790967785E+02  0.17840362567E+03  0.18062480840E+03  0.00000000000E+00 0.  1.
         21    1    1    2  504  501  0.20144114516E+02  0.19790967785E+02  0.42250176281E+02  0.50818748029E+02  0.00000000000E+00 0.  1.
</event>
<event>
 4    1  0.3283867E+006  0.2613415E+02  0.7546771E-02  0.1456505E+00
         21   -1    0    0  503  501  0.00000000000E+00  0.00000000000E+00  0.17680321801E+03  0.17680321801E+03  0.00000000000E+00 0.  1.
         21   -1    0    0  504  502 -0.00000000000E+00 -0.00000000000E+00 -0.57687571206E+01  0.57687571206E+01  0.00000000000E+00 0.  1.
         21    1    1    2  503  502 -0.88950968342E+01  0.24573787472E+02  0.33049187272E+02  0.42133627398E+02  0.00000000000E+00 0.  1.
         21    1    1    2  504  501  0.88950968342E+01 -0.24573787472E+02  0.13798527362E+03  0.14043834773E+03  0.00000000000E+00 0.  1.
</event>
<event>
 4    1  0.3283867E+006  0.3949462E+02  0.7546771E-02  0.1351473E+00
         21   -1    0    0  504  501  0.00000000000E+00  0.00000000000E+00  0.17763871218E+03  0.17763871218E+03  0.00000000000E+00 0. -1.
         21   -1    0    0  503  502 -0.00000000000E+00 -0.00000000000E+00 -0.17889874786E+02  0.17889874786E+02  0.00000000000E+00 0. -1.
         21    1    1    2  503  501 -0.22517123684E+02 -0.32446948800E+02  0.10113580411E+02  0.40768981520E+02  0.00000000000E+00 0. -1.
         21    1    1    2  504  502  0.22517123684E+02  0.32446948800E+02  0.14963525698E+03  0.15475960545E+03  0.00000000000E+00 0. -1.
</event>
<event>
 4    1  0.3283867E+006  0.2774940E+02  0.7546771E-02  0.1440222E+00
         21   -1    0    0  504  501  0.00000000000E+00  0.00000000000E+00  0.34402396283E+03  0.34402396283E+03  0.00000000000E+00 0. -1.
         21   -1    0    0  503  502 -0.00000000000E+00 -0.00000000000E+00 -0.95025302844E+01  0.95025302844E+01  0.00000000000E+00 0. -1.
         21    1    1    2  503  501  0.26987767405E+02 -0.64567614820E+01  0.32181003488E+03  0.32300422274E+03  0.00000000000E+00 0. -1.
         21    1    1    2  504  502 -0.26987767405E+02  0.64567614820E+01  0.12711397669E+02  0.30522270378E+02  0.00000000000E+00 0. -1.
</event>
<event>
 4    1  0.3283867E+006  0.2124014E+02  0.7546771E-02  0.1515864E+00
         21   -1    0    0  504  501  0.00000000000E+00  0.00000000000E+00  0.85096008909E+01  0.85096008909E+01  0.00000000000E+00 0.  1.
         21   -1    0    0  503  502 -0.00000000000E+00 -0.00000000000E+00 -0.53017356641E+02  0.53017356641E+02  0.00000000000E+00 0. -1.
         21    1    1    2  503  501  0.15724365226E+02  0.14278936936E+02 -0.22418017726E+02  0.30882215279E+02  0.00000000000E+00 0. -1.
         21    1    1    2  504  502 -0.15724365226E+02 -0.14278936936E+02 -0.22089738024E+02  0.30644742253E+02  0.00000000000E+00 0.  1.
</event>
<event>
 4    1  0.3283867E+006  0.2502208E+02  0.7546771E-02  0.1468557E+00
         21   -1    0    0  504  501  0.00000000000E+00  0.00000000000E+00  0.12952497752E+02  0.12952497752E+02  0.00000000000E+00 0.  1.
         21   -1    0    0  503  502 -0.00000000000E+00 -0.00000000000E+00 -0.59337118214E+02  0.59337118214E+02  0.00000000000E+00 0. -1.
         21    1    1    2  503  501 -0.22388491419E+02 -0.11174071120E+02 -0.38753815587E+02  0.46129845392E+02  0.00000000000E+00 0. -1.
         21    1    1    2  504  502  0.22388491419E+02  0.11174071120E+02 -0.76308048760E+01  0.26159770574E+02  0.00000000000E+00 0.  1.
</event>
<event>
 4    1  0.3283867E+006  0.2194146E+02  0.7546771E-02  0.1506236E+00
         21   -1    0    0  503  501  0.00000000000E+00  0.00000000000E+00  0.41059276592E+03  0.41059276592E+03  0.00000000000E+00 0. -1.
         21   -1    0    0  504  502 -0.00000000000E+00 -0.00000000000E+00 -0.29316405827E+02  0.29316405827E+02  0.00000000000E+00 0. -1.
         21    1    1    2  503  502  0.21918185020E+02  0.10104055920E+01  0.40614930687E+03  0.40674154844E+03  0.00000000000E+00 0. -1.
         21    1    1    2  504  501 -0.21918185020E+02 -0.10104055920E+01 -0.24872946782E+02  0.33167623305E+02  0.00000000000E+00 0. -1.
</event>
<event>
 4    1  0.3283867E+006  0.2273084E+02  0.7546771E-02  0.1495906E+00
         21   -1    0    0  503  501  0.00000000000E+00  0.00000000000E+00  0.15976893713E+03  0.15976893713E+03  0.00000000000E+00 0.  1.
         21   -1    0    0  504  502 -0.00000000000E+00 -0.00000000000E+00 -0.18795989892E+02  0.18795989892E+02  0.00000000000E+00 0.  1.
         21    1    1    2  503  502  0.22482378647E+02  0.33516912768E+01  0.15172579073E+03  0.15341905604E+03  0.00000000000E+00 0.  1.
         21    1    1    2  504  501 -0.22482378647E+02 -0.33516912768E+01 -0.10752843494E+02  0.25145870978E+02  0.00000000000E+00 0.  1.
</event>
<event>
 4    1  0.3283867E+006  0.2481960E+02  0.7546771E-02  0.1470832E+00
         21   -1    0    0  504  501  0.00000000000E+00  0.00000000000E+00  0.24728068739E+02  0.24728068739E+02  0.00000000000E+00 0. -1.
         21   -1    0    0  503  502 -0.00000000000E+00 -0.00000000000E+00 -0.63900629850E+02  0.63900629850E+02  0.00000000000E+00 0. -1.
         21    1    1    2  503  501  0.14397987411E+02  0.20216594678E+02  0.15028668814E+02  0.29015058646E+02  0.00000000000E+00 0. -1.
         21    1    1    2  504  502 -0.14397987411E+02 -0.20216594678E+02 -0.54201229925E+02  0.59613639943E+02  0.00000000000E+00 0. -1.
</event>
<event>
 4    1  0.3283867E+006  0.2185443E+02  0.7546771E-02  0.1507407E+00
         21   -1    0    0  504  501  0.00000000000E+00  0.00000000000E+00  0.42222128320E+02  0.42222128320E+02  0.00000000000E+00 0. -1.
         21   -1    0    0  503  502 -0.00000000000E+00 -0.00000000000E+00 -0.12331712447E+02  0.12331712447E+02  0.00000000000E+00 0. -1.
         21    1    1    2  503  501  0.10995302035E+02  0.18887017715E+02  0.22788991127E+02  0.31574581892E+02  0.00000000000E+00 0. -1.
         21    1    1    2  504  502 -0.10995302035E+02 -0.18887017715E+02  0.71014247458E+01  0.22979258875E+02  0.00000000000E+00 0. -1.
</event>
<event>
 4    1  0.3283867E+006  0.2054729E+02  0.7546771E-02  0.1525827E+00
         21   -1    0    0  502  501  0.00000000000E+00  0.00000000000E+00  0.14522206533E+01  0.14522206533E+01  0.00000000000E+00 0. -1.
         21   -1    0    0  504  502 -0.00000000000E+00 -0.00000000000E+00 -0.31050516394E+03  0.31050516394E+03  0.00000000000E+00 0. -1.
         21    1    1    2  503  501  0.19052175528E+02  0.76945360718E+01 -0.11515443143E+03  0.11697322068E+03  0.00000000000E+00 0. -1.
         21    1    1    2  504  503 -0.19052175528E+02 -0.76945360718E+01 -0.19389851185E+03  0.19498416391E+03  0.00000000000E+00 0. -1.
</event>
<event>
 4    1  0.3283867E+006  0.2448111E+02  0.7546771E-02  0.1474693E+00
         21   -1    0    0  504  501  0.00000000000E+00  0.00000000000E+00  0.78669347889E+02  0.78669347889E+02  0.00000000000E+00 0.  1.
         21   -1    0    0  503  502 -0.00000000000E+00 -0.00000000000E+00 -0.42945219594E+02  0.42945219594E+02  0.00000000000E+00 0.  1.
         21    1    1    2  503  501  0.97394226116E+01 -0.22460376536E+02  0.73012788092E+02  0.77007740468E+02  0.00000000000E+00 0.  1.
         21    1    1    2  504  502 -0.97394226116E+01  0.22460376536E+02 -0.37288659797E+02  0.44606827016E+02  0.00000000000E+00 0.  1.
</event>
<event>
 4    1  0.3283867E+006  0.4003529E+02  0.7546771E-02  0.1348279E+00
         21   -1    0    0  503  501  0.00000000000E+00  0.00000000000E+00  0.21887865112E+03  0.21887865112E+03  0.00000000000E+00 0.  1.
         21   -1    0    0  504  502 -0.00000000000E+00 -0.00000000000E+00 -0.73673373247E+01  0.73673373247E+01  0.00000000000E+00 0.  1.
         21    1    1    2  503  502  0.24326190501E+02 -0.31797184541E+02  0.11454211585E+03  0.12133721932E+03  0.00000000000E+00 0.  1.
         21    1    1    2  504  501 -0.24326190501E+02  0.31797184541E+02  0.96969197949E+02  0.10490876913E+03  0.00000000000E+00 0.  1.
</event>
<event>
 4    1  0.3283867E+006  0.3337061E+02  0.7546771E-02  0.1392395E+00
         21   -1    0    0  503  501  0.00000000000E+00  0.00000000000E+00  0.42113891189E+03  0.42113891189E+03  0.00000000000E+00 0.  1.
         21   -1    0    0  504  502 -0.00000000000E+00 -0.00000000000E+00 -0.55689886283E+01  0.55689886283E+01  0.00000000000E+00 0.  1.
         21    1    1    2  503  502  0.88226809127E+01 -0.32183189911E+02  0.53168437971E+02  0.62773244361E+02  0.00000000000E+00 0.  1.
         21    1    1    2  504  501 -0.88226809127E+01  0.32183189911E+02  0.36240148529E+03  0.36393465616E+03  0.00000000000E+00 0.  1.
</event>
<event>
 4    1  0.3283867E+006  0.2216287E+02  0.7546771E-02  0.1503286E+00
         21   -1    0    0  504  501  0.00000000000E+00  0.00000000000E+00  0.15029524036E+03  0.15029524036E+03  0.00000000000E+00 0.  1.
         21   -1    0    0  503  502 -0.00000000000E+00 -0.00000000000E+00 -0.14456618341E+02  0.14456618341E+02  0.00000000000E+00 0.  1.
         21    1    1    2  503  501  0.18701608233E+02 -0.11892970167E+02  0.14038819576E+03  0.14212683912E+03  0.00000000000E+00 0.  1.
         21    1    1    2  504  502 -0.18701608233E+02  0.11892970167E+02 -0.45495737376E+01  0.22625019582E+02  0.00000000000E+00 0.  1.
</event>
<event>
 4    1  0.3283867E+006  0.2325115E+02  0.7546771E-02  0.1489368E+00
         21   -1    0    0  504  501  0.00000000000E+00  0.00000000000E+00  0.49270618980E+01  0.49270618980E+01  0.00000000000E+00 0.  1.
         21   -1    0    0  503  502 -0.00000000000E+00 -0.00000000000E+00 -0.12364865583E+03  0.12364865583E+03  0.00000000000E+00 0.  1.
         21    1    1    2  503  501  0.93551903508E+01  0.21286057631E+02 -0.37786830963E+02  0.44367335171E+02  0.00000000000E+00 0.  1.
         21    1    1    2  504  502 -0.93551903508E+01 -0.21286057631E+02 -0.80934762973E+02  0.84208382561E+02  0.00000000000E+00 0.  1.
</event>
<event>
 4    1  0.3283867E+006  0.2664787E+02  0.7546771E-02  0.1451178E+00
         21   -1    0    0  503  501  0.00000000000E+00  0.00000000000E+00  0.31181246255E+03  0.31181246255E+03  0.00000000000E+00 0. -1.
         21   -1    0    0  501  502 -0.00000000000E+00 -0.00000000000E+00 -0.16793164760E+03  0.16793164760E+03  0.00000000000E+00 0. -1.
         21    1    1    2  503  504  0.69882897230E+01  0.25715223249E+02  0.31018043106E+03  0.31132299741E+03  0.00000000000E+00 0. -1.
         21    1    1    2  504  502 -0.69882897230E+01 -0.25715223249E+02 -0.16629961611E+03  0.16842111275E+03  0.00000000000E+00 0. -1.
</event>
<event>
 4    1  0.3283867E+006  0.3585899E+02  0.7546771E-02  0.1374623E+00
         21   -1    0    0  504  501  0.00000000000E+00  0.00000000000E+00  0.47130518546E+02  0.47130518546E+02  0.00000000000E+00 0. -1.
         21   -1    0    0  501  502 -0.00000000000E+00 -0.00000000000E+00 -0.30067128501E+02  0.30067128501E+02  0.00000000000E+00 0. -1.
         21    1    1    2  503  502 -0.21721664357E+02 -0.28531319984E+02 -0.32136148574E+01  0.36002697718E+02  0.00000000000E+00 0. -1.
         21    1    1    2  504  503  0.21721664357E+02  0.28531319984E+02  0.20277004902E+02  0.41194949330E+02  0.00000000000E+00 0. -1.
</event>
<event>
 4    1  0.3283867E+006  0.2121690E+02  0.7546771E-02  0.1516190E+00
         21   -1    0    0  504  501  0.00000000000E+00  0.00000000000E+00  0.16105799437E+03  0.16105799437E+03  0.00000000000E+00 0.  1.
         21   -1    0    0  503  502 -0.00000000000E+00 -0.00000000000E+00 -0.39956514811E+01  0.39956514811E+01  0.00000000000E+00 0.  1.
         21    1    1    2  503  501  0.37567439257E+01  0.20881661111E+02  0.33292480476E+02  0.39478426411E+02  0.00000000000E+00 0.  1.
         21    1    1    2  504  502 -0.37567439257E+01 -0.20881661111E+02  0.12376986241E+03  0.12557521944E+03  0.00000000000E+00 0.  1.
</event>
<event>
 4    1  0.3283867E+006  0.2182388E+02  0.7546771E-02  0.1507819E+00
         21   -1    0    0  503  501  0.00000000000E+00  0.00000000000E+00  0.57626945258E+01  0.57626945258E+01  0.00000000000E+00 0. -1.
         21   -1    0    0  504  502 -0.00000000000E+00 -0.00000000000E+00 -0.10536139509E+03  0.10536139509E+03  0.00000000000E+00 0. -1.
         21    1    1    2  503  502 -0.11951088964E+02  0.18260698568E+02 -0.24002435424E+02  0.32440692747E+02  0.00000000000E+00 0. -1.
         21    1    1    2  504  501  0.11951088964E+02 -0.18260698568E+02 -0.75596265139E+02  0.78683396867E+02  0.00000000000E+00 0. -1.
</event>
<event>
 4    1  0.3283867E+006  0.2133798E+02  0.7546771E-02  0.1514494E+00
         21   -1    0    0  502  501  0.00000000000E+00  0.00000000000E+00  0.12435016339E+02  0.12435016339E+02  0.00000000000E+00 0.  1.
         21   -1    0    0  504  502 -0.00000000000E+00 -0.00000000000E+00 -0.44354586356E+03  0.44354586356E+03  0.00000000000E+00 0. -1.
         21    1    1    2  503  501  0.17912696143E+02  0.11595034557E+02  0.28219434404E+01  0.21523774629E+02  0.00000000000E+00 0.  1.
         21    1    1    2  504  503 -0.17912696143E+02 -0.11595034557E+02 -0.43393279066E+03  0.43445710527E+03  0.00000000000E+00 0. -1.
</event>
<event>
 4    1  0.3283867E+006  0.3389322E+02  0.7546771E-02  0.1388516E+00
         21   -1    0    0  503  501  0.00000000000E+00  0.00000000000E+00  0.24648647229E+02  0.24648647229E+02  0.00000000000E+00 0. -1.
         21   -1    0    0  501  502 -0.00000000000E+00 -0.00000000000E+00 -0.55146349342E+02  0.55146349342E+02  0.00000000000E+00 0. -1.
         21    1    1    2  503  504  0.13562931306E+02  0.31061181568E+02  0.45299172501E+00  0.33896243266E+02  0.00000000000E+00 0. -1.
         21    1    1    2  504  502 -0.13562931306E+02 -0.31061181568E+02 -0.30950693838E+02  0.45898753306E+02  0.00000000000E+00 0. -1.
</event>
<event>
 4    1  0.3283867E+006  0.2078002E+02  0.7546771E-02  0.1522429E+00
         21   -1    0    0  503  501  0.00000000000E+00  0.00000000000E+00  0.53351410070E+02  0.53351410070E+02  0.00000000000E+00 0. -1.
         21   -1    0    0  504  502 -0.00000000000E+00 -0.00000000000E+00 -0.24348704303E+02  0.24348704303E+02  0.00000000000E+00 0. -1.
         21    1    1    2  503  502  0.36560501233E+01  0.20455865529E+02  0.46244323870E+02  0.50698586048E+02  0.00000000000E+00 0. -1.
         21    1    1    2  504  501 -0.36560501233E+01 -0.20455865529E+02 -0.17241618104E+02  0.27001528325E+02  0.00000000000E+00 0. -1.
</event>
<event>
 4    1  0.3283867E+006  0.2009257E+02  0.7546771E-02  0.1532625E+00
         21   -1    0    0  502  501  0.00000000000E+00  0.00000000000E+00  0.35860117186E+01  0.35860117186E+01  0.00000000000E+00 0. -1.
         21   -1    0    0  504  502 -0.00000000000E+00 -0.00000000000E+00 -0.92201224884E+03  0.92201224884E+03  0.00000000000E+00 0.  1.
         21    1    1    2  503  501  0.10911843381E+02 -0.16871366169E+02 -0.25587850979E+02  0.32533819944E+02  0.00000000000E+00 0. -1.
         21    1    1    2  504  503 -0.10911843381E+02  0.16871366169E+02 -0.89283838614E+03  0.89306444062E+03  0.00000000000E+00 0.  1.
</event>
<event>
 4    1  0.3283867E+006  0.7671551E+02  0.7546771E-02  0.1211685E+00
         21   -1    0    0  504  501  0.00000000000E+00  0.00000000000E+00  0.11396810692E+03  0.11396810692E+03  0.00000000000E+00 0.  1.
         21   -1    0    0  503  502 -0.00000000000E+00 -0.00000000000E+00 -0.81416896840E+02  0.81416896840E+02  0.00000000000E+00 0. -1.
         21    1    1    2  503  501  0.72621621406E+02 -0.24725875929E+02 -0.42805213808E+02  0.87849616762E+02  0.00000000000E+00 0. -1.
         21    1    1    2  504  502 -0.72621621406E+02  0.24725875929E+02  0.75356423892E+02  0.10753538700E+03  0.00000000000E+00 0.  1.
</event>
<event>
 4    1  0.3283867E+006  0.2256007E+02  0.7546771E-02  0.1498097E+00
         21   -1    0    0  502  501  0.00000000000E+00  0.00000000000E+00  0.76171741121E+02  0.76171741121E+02  0.00000000000E+00 0.  1.
         21   -1    0    0  503  502 -0.00000000000E+00 -0.00000000000E+00 -0.29035294475E+02  0.29035294475E+02  0.00000000000E+00 0.  1.
         21    1    1    2  503  504  0.18311711229E+02 -0.13177184535E+02 -0.22587474800E+02  0.31924144127E+02  0.00000000000E+00 0.  1.
         21    1    1    2  504  501 -0.18311711229E+02  0.13177184535E+02  0.69723921446E+02  0.73282891470E+02  0.00000000000E+00 0.  1.
</event>
<event>
 4    1  0.3283867E+006  0.3568398E+02  0.7546771E-02  0.1375817E+00
         21   -1    0    0  504  501  0.00000000000E+00  0.00000000000E+00  0.62741957941E+01  0.62741957941E+01  0.00000000000E+00 0. -1.
         21   -1    0    0  503  502 -0.00000000000E+00 -0.00000000000E+00 -0.54592878733E+03  0.54592878733E+03  0.00000000000E+00 0.  1.
         21    1    1    2  503  501 -0.12310122981E+01  0.35662744791E+02 -0.50983361208E+02  0.62230618488E+02  0.00000000000E+00 0. -1.
         21    1    1    2  504  502  0.12310122981E+01 -0.35662744791E+02 -0.48867123033E+03  0.48997236464E+03  0.00000000000E+00 0.  1.
</event>
<event>
 4    1  0.3283867E+006  0.3708670E+02  0.7546771E-02  0.1366459E+00
         21   -1    0    0  504  501  0.00000000000E+00  0.00000000000E+00  0.14726720361E+03  0.14726720361E+03  0.00000000000E+00 0. -1.
         21   -1    0    0  503  502 -0.00000000000E+00 -0.00000000000E+00 -0.40451325780E+02  0.40451325780E+02  0.00000000000E+00 0. -1.
         21    1    1    2  503  501  0.21144072704E+02  0.30468864793E+02 -0.28905832115E+02  0.47020959821E+02  0.00000000000E+00 0. -1.
         21    1    1    2  504  502 -0.21144072704E+02 -0.30468864793E+02  0.13572170995E+03  0.14069756957E+03  0.00000000000E+00 0. -1.
</event>
<event>
 4    1  0.3283867E+006  0.2209146E+02  0.7546771E-02  0.1504233E+00
         21   -1    0    0  503  501  0.00000000000E+00  0.00000000000E+00  0.13680735826E+02  0.13680735826E+02  0.00000000000E+00 0. -1.
         21   -1    0    0  504  502 -0.00000000000E+00 -0.00000000000E+00 -0.22517958006E+03  0.22517958006E+03  0.00000000000E+00 0. -1.
         21    1    1    2  503  502 -0.16913541907E+02  0.14211430847E+02  0.38130114069E+01  0.22418111485E+02  0.00000000000E+00 0. -1.
         21    1    1    2  504  501  0.16913541907E+02 -0.14211430847E+02 -0.21531185564E+03  0.21644220440E+03  0.00000000000E+00 0. -1.
</event>
<event>
 4    1  0.3283867E+006  0.2232646E+02  0.7546771E-02  0.1501133E+00
         21   -1    0    0  504  501  0.00000000000E+00  0.00000000000E+00  0.52597437929E+02  0.52597437929E+02  0.00000000000E+00 0.  1.
         21   -1    0    0  501  502 -0.00000000000E+00 -0.00000000000E+00 -0.38925924237E+03  0.38925924237E+03  0.00000000000E+00 0. -1.
         21    1    1    2  503  502 -0.22105637438E+02 -0.31323741895E+01 -0.38655325579E+03  0.38719748261E+03  0.00000000000E+00 0. -1.
         21    1    1    2  504  503  0.22105637438E+02  0.31323741895E+01  0.49891451350E+02  0.54659197693E+02  0.00000000000E+00 0.  1.
</event>
<event>
 4    1  0.3283867E+006  0.2239083E+02  0.7546771E-02  0.1500293E+00
         21   -1    0    0  503  501  0.00000000000E+00  0.00000000000E+00  0.18712727983E+02  0.18712727983E+02  0.00000000000E+00 0.  1.
         21   -1    0    0  504  502 -0.00000000000E+00 -0.00000000000E+00 -0.88646719049E+02  0.88646719049E+02  0.00000000000E+00 0. -1.
         21    1    1    2  503  502  0.18992368649E+02 -0.11859142177E+02  0.98730193585E+01  0.24470918072E+02  0.00000000000E+00 0.  1.
         21    1    1    2  504  501 -0.18992368649E+02  0.11859142177E+02 -0.79807010425E+02  0.82888528959E+02  0.00000000000E+00 0. -1.
</event>
<event>
 4    1  0.3283867E+006  0.2903184E+02  0.7546771E-02  0.1428200E+00
         21   -1    0    0  503  501  0.00000000000E+00  0.00000000000E+00  0.51703707046E+01  0.51703707046E+01  0.00000000000E+00 0.  1.
         21   -1    0    0  504  502 -0.00000000000E+00 -0.00000000000E+00 -0.16314178537E+03  0.16314178537E+03  0.00000000000E+00 0.  1.
         21    1    1    2  503  502  0.21605323387E+02 -0.19392212413E+02 -0.81331900562E+02  0.86358126137E+02  0.00000000000E+00 0.  1.
         21    1    1    2  504  501 -0.21605323387E+02  0.19392212413E+02 -0.76639514101E+02  0.81954029935E+02  0.00000000000E+00 0.  1.
</event>
<event>
 4    1  0.3283867E+006  0.3031861E+02  0.7546771E-02  0.1416847E+00
         21   -1    0    0  503  501  0.00000000000E+00  0.00000000000E+00  0.18360393835E+02  0.18360393835E+02  0.00000000000E+00 0. -1.
         21   -1    0    0  504  502 -0.00000000000E+00 -0.00000000000E+00 -0.76513186050E+02  0.76513186050E+02  0.00000000000E+00 0. -1.
         21    1    1    2  503  502 -0.30222931425E+02 -0.24067934300E+01 -0.11867627602E+01  0.30341829945E+02  0.00000000000E+00 0. -1.
         21    1    1    2  504  501  0.30222931425E+02  0.24067934300E+01 -0.56966029455E+02  0.64531749940E+02  0.00000000000E+00 0. -1.
</event>
<event>
 4    1  0.3283867E+006  0.3215127E+02  0.7546771E-02  0.1401779E+00
         21   -1    0    0  504  501  0.00000000000E+00  0.00000000000E+00  0.63238404089E+02  0.63238404089E+02  0.00000000000E+00 0. -1.
         21   -1    0    0  503  502 -0.00000000000E+00 -0.00000000000E+00 -0.23799855710E+02  0.23799855710E+02  0.00000000000E+00 0. -1.
         21    1    1    2  503  501  0.13283646234E+02 -0.29278809439E+02 -0.46352356129E+01  0.32483678188E+02  0.00000000000E+00 0. -1.
         21    1    1    2  504  502 -0.13283646234E+02  0.29278809439E+02  0.44073783992E+02  0.54554581612E+02  0.00000000000E+00 0. -1.
</event>
<event>
 4    1  0.3283867E+006  0.2063807E+02  0.7546771E-02  0.1524495E+00
         21   -1    0    0  504  501  0.00000000000E+00  0.00000000000E+00  0.28265990030E+02  0.28265990030E+02  0.00000000000E+00 0.  1.
         21   -1    0    0  503  502 -0.00000000000E+00 -0.00000000000E+00 -0.66050746214E+02  0.66050746214E+02  0.00000000000E+00 0. -1.
         21    1    1    2  503  501 -0.11277533596E+02  0.17284308581E+02  0.22538943026E+02  0.30560334420E+02  0.00000000000E+00 0.  1.
         21    1    1    2  504  502  0.11277533596E+02 -0.17284308581E+02 -0.60323699210E+02  0.63756401824E+02  0.00000000000E+00 0. -1.
</event>
<event>
 4    1  0.3283867E+006  0.3505753E+02  0.7546771E-02  0.1380159E+00
         21   -1    0    0  504  501  0.00000000000E+00  0.00000000000E+00  0.10437191910E+03  0.10437191910E+03  0.00000000000E+00 0.  1.
         21   -1    0    0  503  502 -0.00000000000E+00 -0.00000000000E+00 -0.14672694042E+03  0.14672694042E+03  0.00000000000E+00 0. -1.
         21    1    1    2  503  501  0.34627200704E+02 -0.54760915997E+01  0.99228617209E+02  0.10523948442E+03  0.00000000000E+00 0.  1.
         21    1    1    2  504  502 -0.34627200704E+02  0.54760915997E+01 -0.14158363853E+03  0.14585937511E+03  0.00000000000E+00 0. -1.
</event>
<event>
 4    1  0.3283867E+006  0.2105146E+02  0.7546771E-02  0.1518531E+00
         21   -1    0    0  503  501  0.00000000000E+00  0.00000000000E+00  0.30022892634E+04  0.30022892634E+04  0.00000000000E+00 0. -1.
         21   -1    0    0  504  502 -0.00000000000E+00 -0.00000000000E+00 -0.14769087913E+00  0.14769087913E+00  0.00000000000E+00 0. -1.
         21    1    1    2  503  502  0.83785264193E+01  0.19312282460E+02  0.15364866224E+04  0.15366308290E+04  0.00000000000E+00 0. -1.
         21    1    1    2  504  501 -0.83785264193E+01 -0.19312282460E+02  0.14656549502E+04  0.14658061253E+04  0.00000000000E+00 0. -1.
</event>
<event>
 4    1  0.3283867E+006  0.2823650E+02  0.7546771E-02  0.1435568E+00
         21   -1    0    0  502  501  0.00000000000E+00  0.00000000000E+00  0.16190166414E+02  0.16190166414E+02  0.00000000000E+00 0.  1.
         21   -1    0    0  503  502 -0.00000000000E+00 -0.00000000000E+00 -0.51728997049E+02  0.51728997049E+02  0.00000000000E+00 0.  1.
         21    1    1    2  503  504 -0.14524698340E+02 -0.24214318481E+02 -0.25209673692E+02  0.37852710987E+02  0.00000000000E+00 0.  1.
         21    1    1    2  504  501  0.14524698340E+02  0.24214318481E+02 -0.10329156943E+02  0.30066452476E+02  0.00000000000E+00 0.  1.
</event>
<event>
 4    1  0.3283867E+006  0.3662255E+02  0.7546771E-02  0.1369501E+00
         21   -1    0    0  504  501  0.00000000000E+00  0.00000000000E+00  0.12254171318E+03  0.12254171318E+03  0.00000000000E+00 0. -1.
         21   -1    0    0  503  502 -0.00000000000E+00 -0.00000000000E+00 -0.18346825431E+02  0.18346825431E+02  0.00000000000E+00 0. -1.
         21    1    1    2  503  501  0.36394996316E+02  0.40761801628E+01  0.96841623564E+02  0.10353507162E+03  0.00000000000E+00 0. -1.
         21    1    1    2  504  502 -0.36394996316E+02 -0.40761801628E+01  0.73532641813E+01  0.37353466984E+02  0.00000000000E+00 0. -1.
</event>
<event>
 4    1  0.3283867E+006  0.7019184E+02  0.7546771E-02  0.1228654E+00
         21   -1    0    0  503  501  0.00000000000E+00  0.00000000000E+00  0.70743734959E+02  0.70743734959E+02  0.00000000000E+00 0. -1.
         21   -1    0    0  504  502 -0.00000000000E+00 -0.00000000000E+00 -0.11908490765E+03  0.11908490765E+03  0.00000000000E+00 0.  1.
         21    1    1    2  503  502  0.69209431483E+02 -0.11702533880E+02  0.36986316411E+02  0.79340294347E+02  0.00000000000E+00 0. -1.
         21    1    1    2  504  501 -0.69209431483E+02  0.11702533880E+02 -0.85327489105E+02  0.11048834826E+03  0.00000000000E+00 0.  1.
</event>
<event>
 4    1  0.3283867E+006  0.2040065E+02  0.7546771E-02  0.1527997E+00
         21   -1    0    0  503  501  0.00000000000E+00  0.00000000000E+00  0.17896028676E+02  0.17896028676E+02  0.00000000000E+00 0. -1.
         21   -1    0    0  504  502 -0.00000000000E+00 -0.00000000000E+00 -0.23347667442E+02  0.23347667442E+02  0.00000000000E+00 0. -1.
         21    1    1    2  503  502  0.20185672708E+02 -0.29538111439E+01 -0.14322274127E+01  0.20450859598E+02  0.00000000000E+00 0. -1.
         21    1    1    2  504  501 -0.20185672708E+02  0.29538111439E+01 -0.40194113535E+01  0.20792836521E+02  0.00000000000E+00 0. -1.
</event>
<event>
 4    1  0.3283867E+006  0.2323847E+02  0.7546771E-02  0.1489525E+00
         21   -1    0    0  503  501  0.00000000000E+00  0.00000000000E+00  0.95583056373E+02  0.95583056373E+02  0.00000000000E+00 0.  1.
         21   -1    0    0  504  502 -0.00000000000E+00 -0.00000000000E+00 -0.68413786799E+01  0.68413786799E+01  0.00000000000E+00 0.  1.
         21    1    1    2  503  502  0.52088270322E+01 -0.22647171798E+02  0.65743617979E+02  0.69729832744E+02  0.00000000000E+00 0.  1.
         21    1    1    2  504  501 -0.52088270322E+01  0.22647171798E+02  0.22998059713E+02  0.32694602308E+02  0.00000000000E+00 0.  1.
</event>
<event>
 4    1  0.3283867E+006  0.3707619E+02  0.7546771E-02  0.1366527E+00
         21   -1    0    0  503  501  0.00000000000E+00  0.00000000000E+00  0.43806508677E+02  0.43806508677E+02  0.00000000000E+00 0. -1.
         21   -1    0    0  504  502 -0.00000000000E+00 -0.00000000000E+00 -0.45972005389E+02  0.45972005389E+02  0.00000000000E+00 0. -1.
         21    1    1    2  503  502 -0.15243951701E+02 -0.33797420621E+02  0.24207594979E+02  0.44279242979E+02  0.00000000000E+00 0. -1.
         21    1    1    2  504  501  0.15243951701E+02  0.33797420621E+02 -0.26373091692E+02  0.45499271087E+02  0.00000000000E+00 0. -1.
</event>
<event>
 4    1  0.3283867E+006  0.2026580E+02  0.7546771E-02  0.1530011E+00
         21   -1    0    0  503  501  0.00000000000E+00  0.00000000000E+00  0.24815233633E+03  0.24815233633E+03  0.00000000000E+00 0. -1.
         21   -1    0    0  504  502 -0.00000000000E+00 -0.00000000000E+00 -0.16820283465E+01  0.16820283465E+01  0.00000000000E+00 0. -1.
         21    1    1    2  503  502 -0.12845915139E+02 -0.15674348812E+02  0.10741280918E+03  0.10930788774E+03  0.00000000000E+00 0. -1.
         21    1    1    2  504  501  0.12845915139E+02  0.15674348812E+02  0.13905749880E+03  0.14052647693E+03  0.00000000000E+00 0. -1.
</event>
<event>
 4    1  0.3283867E+006  0.2641588E+02  0.7546771E-02  0.1453566E+00
         21   -1    0    0  502  501  0.00000000000E+00  0.00000000000E+00  0.31965964115E+03  0.31965964115E+03  0.00000000000E+00 0.  1.
         21   -1    0    0  503  502 -0.00000000000E+00 -0.00000000000E+00 -0.30274994242E+02  0.30274994242E+02  0.00000000000E+00 0.  1.
         21    1    1    2  503  504 -0.13504181578E+02 -0.22703210643E+02 -0.23849088288E+02  0.35589011025E+02  0.00000000000E+00 0.  1.
         21    1    1    2  504  501  0.13504181578E+02  0.22703210643E+02  0.31323373520E+03  0.31434562437E+03  0.00000000000E+00 0.  1.
</event>
<event>
 4    1  0.3283867E+006  0.2335232E+02  0.7546771E-02  0.1488121E+00
         21   -1    0    0  504  501  0.00000000000E+00  0.00000000000E+00  0.29125178406E+03  0.29125178406E+03  0.00000000000E+00 0.  1.
         21   -1    0    0  503  502 -0.00000000000E+00 -0.00000000000E+00 -0.19284116501E+01  0.19284116501E+01  0.00000000000E+00 0. -1.
         21    1    1    2  503  501 -0.23174987240E+02 -0.28724307703E+01  0.11967187223E+03  0.12192902811E+03  0.00000000000E+00 0.  1.
         21    1    1    2  504  502  0.23174987240E+02  0.28724307703E+01  0.16965150018E+03  0.17125116760E+03  0.00000000000E+00 0. -1.
</event>
<event>
 4    1  0.3283867E+006  0.2201228E+02  0.7546771E-02  0.1505288E+00
         21   -1    0    0  503  501  0.00000000000E+00  0.00000000000E+00  0.84977093657E+02  0.84977093657E+02  0.00000000000E+00 0.  1.
         21   -1    0    0  504  502 -0.00000000000E+00 -0.00000000000E+00 -0.34634513905E+02  0.34634513905E+02  0.00000000000E+00 0.  1.
         21    1    1    2  503  502  0.74068955690E+01  0.20728689267E+02  0.79832816415E+02  0.82811951054E+02  0.00000000000E+00 0.  1.
         21    1    1    2  504  501 -0.74068955690E+01 -0.20728689267E+02 -0.29490236663E+02  0.36799656508E+02  0.00000000000E+00 0.  1.
</event>
<event>
 4    1  0.3283867E+006  0.2180042E+02  0.7546771E-02  0.1508137E+00
         21   -1    0    0  504  501  0.00000000000E+00  0.00000000000E+00  0.47934461705E+02  0.47934461705E+02  0.00000000000E+00 0. -1.
         21   -1    0    0  503  502 -0.00000000000E+00 -0.00000000000E+00 -0.18231651769E+02  0.18231651769E+02  0.00000000000E+00 0. -1.
         21    1    1    2  503  501  0.11590699766E+02 -0.18463850629E+02 -0.74932402451E+01  0.23052261288E+02  0.00000000000E+00 0. -1.
         21    1    1    2  504  502 -0.11590699766E+02  0.18463850629E+02  0.37196050181E+02  0.43113852185E+02  0.00000000000E+00 0. -1.
</event>
<event>
 4    1  0.3283867E+006  0.3927805E+02  0.7546771E-02  0.1352769E+00
         21   -1    0    0  504  501  0.00000000000E+00  0.00000000000E+00  0.28000434065E+04  0.28000434065E+04  0.00000000000E+00 0.  1.
         21   -1    0    0  503  502 -0.00000000000E+00 -0.00000000000E+00 -0.20027692579E+01  0.20027692579E+01  0.00000000000E+00 0.  1.
         21    1    1    2  503  501  0.36650236864E+02  0.14125338327E+02  0.20618146503E+03  0.20988940318E+03  0.00000000000E+00 0.  1.
         21    1    1    2  504  502 -0.36650236864E+02 -0.14125338327E+02  0.25918591722E+04  0.25921567726E+04  0.00000000000E+00 0.  1.
</event>
<event>
 4    1  0.3283867E+006  0.2016311E+02  0.7546771E-02  0.1531557E+00
         21   -1    0    0  504  501  0.00000000000E+00  0.00000000000E+00  0.39179749209E+00  0.39179749209E+00  0.00000000000E+00 0. -1.
         21   -1    0    0  503  502 -0.00000000000E+00 -0.00000000000E+00 -0.11461339032E+04  0.11461339032E+04  0.00000000000E+00 0. -1.
         21    1    1    2  503  501 -0.20078751358E+02 -0.18424465275E+01 -0.39650802653E+03  0.39702035964E+03  0.00000000000E+00 0. -1.
         21    1    1    2  504  502  0.20078751358E+02  0.18424465275E+01 -0.74923407917E+03  0.74950534104E+03  0.00000000000E+00 0. -1.
</event>
<event>
 4    1  0.3283867E+006  0.2122110E+02  0.7546771E-02  0.1516131E+00
         21   -1    0    0  504  501  0.00000000000E+00  0.00000000000E+00  0.99029184541E+00  0.99029184541E+00  0.00000000000E+00 0.  1.
         21   -1    0    0  501  502 -0.00000000000E+00 -0.00000000000E+00 -0.67052854973E+03  0.67052854973E+03  0.00000000000E+00 0.  1.
         21    1    1    2  503  502 -0.18844831082E+02 -0.97574225968E+01 -0.52523798422E+03  0.52566650552E+03  0.00000000000E+00 0.  1.
         21    1    1    2  504  503  0.18844831082E+02  0.97574225968E+01 -0.14430027367E+03  0.14585233606E+03  0.00000000000E+00 0.  1.
</event>
<event>
 4    1  0.3283867E+006  0.3513984E+02  0.7546771E-02  0.1379583E+00
         21   -1    0    0  502  501  0.00000000000E+00  0.00000000000E+00  0.36370934995E+03  0.36370934995E+03  0.00000000000E+00 0. -1.
         21   -1    0    0  504  502 -0.00000000000E+00 -0.00000000000E+00 -0.12530166942E+02  0.12530166942E+02  0.00000000000E+00 0.  1.
         21    1    1    2  503  501 -0.36642953368E+01  0.34948268589E+02  0.33621462394E+03  0.33804597600E+03  0.00000000000E+00 0. -1.
         21    1    1    2  504  503  0.36642953368E+01 -0.34948268589E+02  0.14964559063E+02  0.38193540889E+02  0.00000000000E+00 0.  1.
</event>
<event>
 4    1  0.3283867E+006  0.2367544E+02  0.7546771E-02  0.1484186E+00
         21   -1    0    0  504  501  0.00000000000E+00  0.00000000000E+00  0.25785715879E+03  0.25785715879E+03  0.00000000000E+00 0. -1.
         21   -1    0    0  503  502 -0.00000000000E+00 -0.00000000000E+00 -0.62090938414E+02  0.62090938414E+02  0.00000000000E+00 0.  1.
         21    1    1    2  503  501 -0.37644832380E+01 -0.23374241975E+02 -0.59265666055E+02  0.63819634087E+02  0.00000000000E+00 0.  1.
         21    1    1    2  504  502  0.37644832380E+01  0.23374241975E+02  0.25503188643E+03  0.25612846311E+03  0.00000000000E+00 0. -1.
</event>
<event>
 4    1  0.3283867E+006  0.3131396E+02  0.7546771E-02  0.1408512E+00
         21   -1    0    0  504  501  0.00000000000E+00  0.00000000000E+00  0.33757336460E+03  0.33757336460E+03  0.00000000000E+00 0.  1.
         21   -1    0    0  501  502 -0.00000000000E+00 -0.00000000000E+00 -0.98965087644E+01  0.98965087644E+01  0.00000000000E+00 0. -1.
         21    1    1    2  503  502 -0.30076992166E+02 -0.87142856881E+01  0.17809278664E+02  0.36024084157E+02  0.00000000000E+00 0. -1.
         21    1    1    2  504  503  0.30076992166E+02  0.87142856881E+01  0.30986757717E+03  0.31144578920E+03  0.00000000000E+00 0.  1.
</event>
<event>
 4    1  0.3283867E+006  0.2065075E+02  0.7546771E-02  0.1524310E+00
         21   -1    0    0  503  501  0.00000000000E+00  0.00000000000E+00  0.14041393168E+03  0.14041393168E+03  0.00000000000E+00 0.  1.
         21   -1    0    0  501  502 -0.00000000000E+00 -0.00000000000E+00 -0.75994206633E+02  0.75994206633E+02  0.00000000000E+00 0.  1.
         21    1    1    2  503  504  0.15781168622E+02  0.13319463565E+02  0.13822969269E+03  0.13976373397E+03  0.00000000000E+00 0.  1.
         21    1    1    2  504  502 -0.15781168622E+02 -0.13319463565E+02 -0.73809967645E+02  0.76644404339E+02  0.00000000000E+00 0.  1.
</event>
<event>
 4    1  0.3283867E+006  0.4462057E+02  0.7546771E-02  0.1323348E+00
         21   -1    0    0  504  501  0.00000000000E+00  0.00000000000E+00  0.32802043250E+03  0.32802043250E+03  0.00000000000E+00 0.  1.
         21   -1    0    0  503  502 -0.00000000000E+00 -0.00000000000E+00 -0.68798736671E+01  0.68798736671E+01  0.00000000000E+00 0.  1.
         21    1    1    2  503  501 -0.41767437758E+02 -0.15699554720E+02  0.21803176046E+03  0.22255076599E+03  0.00000000000E+00 0.  1.
         21    1    1    2  504  502  0.41767437758E+02  0.15699554720E+02  0.10310879838E+03  0.11234954018E+03  0.00000000000E+00 0.  1.
</event>
<event>
 4    1  0.3283867E+006  0.2514270E+02  0.7546771E-02  0.1467213E+00
         21   -1    0    0  503  501  0.00000000000E+00  0.00000000000E+00  0.90073133846E+02  0.90073133846E+02  0.00000000000E+00 0.  1.
         21   -1    0    0  504  502 -0.00000000000E+00 -0.00000000000E+00 -0.67184453301E+02  0.67184453301E+02  0.00000000000E+00 0. -1.
         21    1    1    2  503  502  0.12881358240E+02 -0.21592262446E+02 -0.62964330299E+02  0.67798687876E+02  0.00000000000E+00 0. -1.
         21    1    1    2  504  501 -0.12881358240E+02  0.21592262446E+02  0.85853010845E+02  0.89458899271E+02  0.00000000000E+00 0.  1.
</event>
<event>
 4    1  0.3283867E+006  0.2696486E+02  0.7546771E-02  0.1447961E+00
         21   -1    0    0  504  501  0.00000000000E+00  0.00000000000E+00  0.93177895677E+02  0.93177895677E+02  0.00000000000E+00 0.  1.
         21   -1    0    0  503  502 -0.00000000000E+00 -0.00000000000E+00 -0.12027028884E+02  0.12027028884E+02  0.00000000000E+00 0. -1.
         21    1    1    2  503  501 -0.15281410483E+02  0.22216711284E+02  0.94030422683E+01  0.28557327790E+02  0.00000000000E+00 0. -1.
         21    1    1    2  504  502  0.15281410483E+02 -0.22216711284E+02  0.71747824525E+02  0.76647596770E+02  0.00000000000E+00 0.  1.
</event>
<event>
 4    1  0.3283867E+006  0.4728848E+02  0.7546771E-02  0.1310377E+00
         21   -1    0    0  503  501  0.00000000000E+00  0.00000000000E+00  0.78405602540E+02  0.78405602540E+02  0.00000000000E+00 0.  1.
         21   -1    0    0  504  502 -0.00000000000E+00 -0.00000000000E+00 -0.45203174659E+02  0.45203174659E+02  0.00000000000E+00 0.  1.
         21    1    1    2  503  502 -0.45774449440E+02  0.11870142822E+02  0.54147079496E+02  0.71889545347E+02  0.00000000000E+00 0.  1.
         21    1    1    2  504  501  0.45774449440E+02 -0.11870142822E+02 -0.20944651615E+02  0.51719231853E+02  0.00000000000E+00 0.  1.
</event>
<event>
 4    1  0.3283867E+006  0.5963686E+02  0.7546771E-02  0.1261071E+00
         21   -1    0    0  503  501  0.00000000000E+00  0.00000000000E+00  0.11287566007E+03  0.11287566007E+03  0.00000000000E+00 0. -1.
         21   -1    0    0  501  502 -0.00000000000E+00 -0.00000000000E+00 -0.95948437950E+02  0.95948437950E+02  0.00000000000E+00 0.  1.
         21    1    1    2  503  504 -0.54567724609E+01  0.59386688623E+02  0.94031112391E+02  0.11134812638E+03  0.00000000000E+00 0. -1.
         21    1    1    2  504  502  0.54567724609E+01 -0.59386688623E+02 -0.77103890273E+02  0.97475971637E+02  0.00000000000E+00 0.  1.
</event>
<event>
 4    1  0.3283867E+006  0.2339395E+02  0.7546771E-02  0.1487610E+00
         21   -1    0    0  504  501  0.00000000000E+00  0.00000000000E+00  0.15739521603E+02  0.15739521603E+02  0.00000000000E+00 0. -1.
         21   -1    0    0  501  502 -0.00000000000E+00 -0.00000000000E+00 -0.77663747115E+02  0.77663747115E+02  0.00000000000E+00 0. -1.
         21    1    1    2  503  502  0.11964799354E+02  0.20102744448E+02 -0.65668989290E+02  0.69711497706E+02  0.00000000000E+00 0. -1.
         21    1    1    2  504  503 -0.11964799354E+02 -0.20102744448E+02  0.37447637778E+01  0.23691771012E+02  0.00000000000E+00 0. -1.
</event>
<event>
 4    1  0.3283867E+006  0.2178946E+02  0.7546771E-02  0.1508285E+00
         21   -1    0    0  504  501  0.00000000000E+00  0.00000000000E+00  0.17955684200E+02  0.17955684200E+02  0.00000000000E+00 0. -1.
         21   -1    0    0  503  502 -0.00000000000E+00 -0.00000000000E+00 -0.26850378964E+02  0.26850378964E+02  0.00000000000E+00 0. -1.
         21    1    1    2  503  501 -0.21625715425E+02 -0.26662873921E+01 -0.16837916145E+01  0.21854423129E+02  0.00000000000E+00 0. -1.
         21    1    1    2  504  502  0.21625715425E+02  0.26662873921E+01 -0.72109031487E+01  0.22951640035E+02  0.00000000000E+00 0. -1.
</event>
<event>
 4    1  0.3283867E+006  0.2400153E+02  0.7546771E-02  0.1480291E+00
         21   -1    0    0  503  501  0.00000000000E+00  0.00000000000E+00  0.20755981507E+03  0.20755981507E+03  0.00000000000E+00 0. -1.
         21   -1    0    0  504  502 -0.00000000000E+00 -0.00000000000E+00 -0.30282768526E+01  0.30282768526E+01  0.00000000000E+00 0. -1.
         21    1    1    2  503  502  0.56836290925E+00 -0.23994802794E+02  0.71842172536E+02  0.75745437831E+02  0.00000000000E+00 0. -1.
         21    1    1    2  504  501 -0.56836290925E+00  0.23994802794E+02  0.13268936568E+03  0.13484265409E+03  0.00000000000E+00 0. -1.
</event>
<event>
 4    1  0.3283867E+006  0.4250035E+02  0.7546771E-02  0.1334425E+00
         21   -1    0    0  503  501  0.00000000000E+00  0.00000000000E+00  0.14251024899E+03  0.14251024899E+03  0.00000000000E+00 0.  1.
         21   -1    0    0  504  502 -0.00000000000E+00 -0.00000000000E+00 -0.19724941192E+02  0.19724941192E+02  0.00000000000E+00 0.  1.
         21    1    1    2  503  502  0.37822425591E+02  0.19384105201E+02  0.12896402901E+02  0.44413923716E+02  0.00000000000E+00 0.  1.
         21    1    1    2  504  501 -0.37822425591E+02 -0.19384105201E+02  0.10988890490E+03  0.11782126647E+03  0.00000000000E+00 0.  1.
</event>
<event>
 4    1  0.3283867E+006  0.2124885E+02  0.7546771E-02  0.1515741E+00
         21   -1    0    0  504  501  0.00000000000E+00  0.00000000000E+00  0.74961096387E+03  0.74961096387E+03  0.00000000000E+00 0. -1.
         21   -1    0    0  501  502 -0.00000000000E+00 -0.00000000000E+00 -0.10060125312E+01  0.10060125312E+01  0.00000000000E+00 0. -1.
         21    1    1    2  503  502 -0.18548877537E+02  0.10365945566E+02  0.13656026253E+03  0.13820354188E+03  0.00000000000E+00 0. -1.
         21    1    1    2  504  503  0.18548877537E+02 -0.10365945566E+02  0.61204468881E+03  0.61241343452E+03  0.00000000000E+00 0. -1.
</event>
<event>
 4    1  0.3283867E+006  0.2297314E+02  0.7546771E-02  0.1492836E+00
         21   -1    0    0  504  501  0.00000000000E+00  0.00000000000E+00  0.49318863431E+03  0.49318863431E+03  0.00000000000E+00 0.  1.
         21   -1    0    0  501  502 -0.00000000000E+00 -0.00000000000E+00 -0.20027748764E+01  0.20027748764E+01  0.00000000000E+00 0.  1.
         21    1    1    2  503  502  0.20632825719E+02 -0.10102056035E+02  0.76630421408E+02  0.79999915740E+02  0.00000000000E+00 0.  1.
         21    1    1    2  504  503 -0.20632825719E+02  0.10102056035E+02  0.41455543802E+03  0.41519149344E+03  0.00000000000E+00 0.  1.
</event>
<event>
 4    1  0.3283867E+006  0.5176883E+02  0.7546771E-02  0.1290680E+00
         21   -1    0    0  503  501  0.00000000000E+00  0.00000000000E+00  0.28634422438E+02  0.28634422438E+02  0.00000000000E+00 0.  1.
         21   -1    0    0  504  502 -0.00000000000E+00 -0.00000000000E+00 -0.11496885821E+03  0.11496885821E+03  0.00000000000E+00 0.  1.
         21    1    1    2  503  502 -0.32587494102E+02  0.40225200859E+02 -0.12207615570E+02  0.53188696486E+02  0.00000000000E+00 0.  1.
         21    1    1    2  504  501  0.32587494102E+02 -0.40225200859E+02 -0.74126820203E+02  0.90414584163E+02  0.00000000000E+00 0.  1.
</event>
<event>
 4    1  0.3283867E+006  0.2338555E+02  0.7546771E-02  0.1487713E+00
         21   -1    0    0  503  501  0.00000000000E+00  0.00000000000E+00  0.17795171837E+01  0.17795171837E+01  0.00000000000E+00 0. -1.
         21   -1    0    0  504  502 -0.00000000000E+00 -0.00000000000E+00 -0.61836205023E+03  0.61836205023E+03  0.00000000000E+00 0.  1.
         21    1    1    2  503  502  0.15928502353E+02  0.17122113411E+02 -0.52820275246E+03  0.52872018277E+03  0.00000000000E+00 0.  1.
         21    1    1    2  504  501 -0.15928502353E+02 -0.17122113411E+02 -0.88379780578E+02  0.91421384642E+02  0.00000000000E+00 0. -1.
</event>
<event>
 4    1  0.3283867E+006  0.2151580E+02  0.7546771E-02  0.1512026E+00
         21   -1    0    0  504  501  0.00000000000E+00  0.00000000000E+00  0.30827974336E+03  0.30827974336E+03  0.00000000000E+00 0. -1.
         21   -1    0    0  503  502 -0.00000000000E+00 -0.00000000000E+00 -0.16304937031E+02  0.16304937031E+02  0.00000000000E+00 0. -1.
         21    1    1    2  503  501 -0.13477711296E+02 -0.16771431350E+02  0.30062584899E+03  0.30139480866E+03  0.00000000000E+00 0. -1.
         21    1    1    2  504  502  0.13477711296E+02  0.16771431350E+02 -0.86510426623E+01  0.23189871721E+02  0.00000000000E+00 0. -1.
</event>
<event>
 4    1  0.3283867E+006  0.3155942E+02  0.7546771E-02  0.1406512E+00
         21   -1    0    0  504  501  0.00000000000E+00  0.00000000000E+00  0.90122198529E+02  0.90122198529E+02  0.00000000000E+00 0. -1.
         21   -1    0    0  503  502 -0.00000000000E+00 -0.00000000000E+00 -0.41706091674E+02  0.41706091674E+02  0.00000000000E+00 0.  1.
         21    1    1    2  503  501 -0.25071107372E+02  0.19168627554E+02  0.80718112600E+02  0.86668393367E+02  0.00000000000E+00 0. -1.
         21    1    1    2  504  502  0.25071107372E+02 -0.19168627554E+02 -0.32302005744E+02  0.45159896836E+02  0.00000000000E+00 0.  1.
</event>
<event>
 4    1  0.3283867E+006  0.2377550E+02  0.7546771E-02  0.1482983E+00
         21   -1    0    0  502  501  0.00000000000E+00  0.00000000000E+00  0.11765355809E+02  0.11765355809E+02  0.00000000000E+00 0. -1.
         21   -1    0    0  504  502 -0.00000000000E+00 -0.00000000000E+00 -0.22546479427E+03  0.22546479427E+03  0.00000000000E+00 0. -1.
         21    1    1    2  503  501 -0.10037633827E+02 -0.21552729654E+02 -0.16291248319E+01  0.23831246213E+02  0.00000000000E+00 0. -1.
         21    1    1    2  504  503  0.10037633827E+02  0.21552729654E+02 -0.21207031363E+03  0.21339890387E+03  0.00000000000E+00 0. -1.
</event>
<event>
 4    1  0.3283867E+006  0.1017680E+03  0.7546771E-02  0.1160779E+00
         21   -1    0    0  504  501  0.00000000000E+00  0.00000000000E+00  0.53366684143E+03  0.53366684143E+03  0.00000000000E+00 0.  1.
         21   -1    0    0  503  502 -0.00000000000E+00 -0.00000000000E+00 -0.40735911609E+02  0.40735911609E+02  0.00000000000E+00 0.  1.
         21    1    1    2  503  501  0.75089514477E+02  0.68689745136E+02  0.45428440372E+03  0.46554380646E+03  0.00000000000E+00 0.  1.
         21    1    1    2  504  502 -0.75089514477E+02 -0.68689745136E+02  0.38646526108E+02  0.10885894658E+03  0.00000000000E+00 0.  1.
</event>
<event>
 4    1  0.3283867E+006  0.2120891E+02  0.7546771E-02  0.1516303E+00
         21   -1    0    0  504  501  0.00000000000E+00  0.00000000000E+00  0.21991124211E+02  0.21991124211E+02  0.00000000000E+00 0.  1.
         21   -1    0    0  503  502 -0.00000000000E+00 -0.00000000000E+00 -0.44559212362E+03  0.44559212362E+03  0.00000000000E+00 0. -1.
         21    1    1    2  503  501  0.12244231208E+02 -0.17317522549E+02  0.16562088919E+02  0.26909488559E+02  0.00000000000E+00 0.  1.
         21    1    1    2  504  502 -0.12244231208E+02  0.17317522549E+02 -0.44016308833E+03  0.44067375927E+03  0.00000000000E+00 0. -1.
</event>
<event>
 4    1  0.3283867E+006  0.2930493E+02  0.7546771E-02  0.1425734E+00
         21   -1    0    0  504  501  0.00000000000E+00  0.00000000000E+00  0.67576814140E+02  0.67576814140E+02  0.00000000000E+00 0.  1.
         21   -1    0    0  501  502 -0.00000000000E+00 -0.00000000000E+00 -0.20031913091E+02  0.20031913091E+02  0.00000000000E+00 0.  1.
         21    1    1    2  503  502  0.15690097958E+02  0.24750754730E+02 -0.27138987520E+01  0.29430329255E+02  0.00000000000E+00 0.  1.
         21    1    1    2  504  503 -0.15690097958E+02 -0.24750754730E+02  0.50258799801E+02  0.58178397976E+02  0.00000000000E+00 0.  1.
</event>
<event>
 4    1  0.3283867E+006  0.2467031E+02  0.7546771E-02  0.1472526E+00
         21   -1    0    0  503  501  0.00000000000E+00  0.00000000000E+00  0.23596419893E+03  0.23596419893E+03  0.00000000000E+00 0.  1.
         21   -1    0    0  504  502 -0.00000000000E+00 -0.00000000000E+00 -0.18577608952E+02  0.18577608952E+02  0.00000000000E+00 0. -1.
         21    1    1    2  503  502 -0.75240428995E-01 -0.24670191359E+02  0.22679908014E+03  0.22813690354E+03  0.00000000000E+00 0.  1.
         21    1    1    2  504  501  0.75240428995E-01  0.24670191359E+02 -0.94124901572E+01  0.26404904351E+02  0.00000000000E+00 0. -1.
</event>
<event>
 4    1  0.3283867E+006  0.4518588E+02  0.7546771E-02  0.1320513E+00
         21   -1    0    0  502  501  0.00000000000E+00  0.00000000000E+00  0.19696284731E+03  0.19696284731E+03  0.00000000000E+00 0. -1.
         21   -1    0    0  504  502 -0.00000000000E+00 -0.00000000000E+00 -0.32062067997E+02  0.32062067997E+02  0.00000000000E+00 0. -1.
         21    1    1    2  503  501  0.41386528521E+02  0.18136135854E+02  0.17664912748E+03  0.18233671711E+03  0.00000000000E+00 0. -1.
         21    1    1    2  504  503 -0.41386528521E+02 -0.18136135854E+02 -0.11748348163E+02  0.46688198202E+02  0.00000000000E+00 0. -1.
</event>
<event>
 4    1  0.3283867E+006  0.3149505E+02  0.7546771E-02  0.1407035E+00
         21   -1    0    0  503  501  0.00000000000E+00  0.00000000000E+00  0.47931644426E+01  0.47931644426E+01  0.00000000000E+00 0. -1.
         21   -1    0    0  504  502 -0.00000000000E+00 -0.00000000000E+00 -0.25973442811E+03  0.25973442811E+03  0.00000000000E+00 0.  1.
         21    1    1    2  503  502  0.24454561565E+02  0.19847228395E+02 -0.18709659687E+03  0.18972895039E+03  0.00000000000E+00 0.  1.
         21    1    1    2  504  501 -0.24454561565E+02 -0.19847228395E+02 -0.67844666797E+02  0.74798642161E+02  0.00000000000E+00 0. -1.
</event>
<event>
 4    1  0.3283867E+006  0.2044298E+02  0.7546771E-02  0.1527368E+00
         21   -1    0    0  504  501  0.00000000000E+00  0.00000000000E+00  0.53534457628E+03  0.53534457628E+03  0.00000000000E+00 0. -1.
         21   -1    0    0  503  502 -0.00000000000E+00 -0.00000000000E+00 -0.13311052979E+01  0.13311052979E+01  0.00000000000E+00 0.  1.
         21    1    1    2  503  501  0.20397671261E+02  0.13603772630E+01  0.43956571802E+03  0.44004083455E+03  0.00000000000E+00 0. -1.
         21    1    1    2  504  502 -0.20397671261E+02 -0.13603772630E+01  0.94447752962E+02  0.96634847021E+02  0.00000000000E+00 0.  1.
</event>
<event>
 4    1  0.3283867E+006  0.2525734E+02  0.7546771E-02  0.1465945E+00
         21   -1    0    0  502  501  0.00000000000E+00  0.00000000000E+00  0.13224292619E+02  0.13224292619E+02  0.00000000000E+00 0.  1.
         21   -1    0    0  504  502 -0.00000000000E+00 -0.00000000000E+00 -0.16149655189E+03  0.16149655189E+03  0.00000000000E+00 0.  1.
         21    1    1    2  503  501 -0.20998739595E+02 -0.14035179255E+02 -0.97747414400E+00  0.25276249267E+02  0.00000000000E+00 0.  1.
         21    1    1    2  504  503  0.20998739595E+02  0.14035179255E+02 -0.14729478512E+03  0.14944459524E+03  0.00000000000E+00 0.  1.
</event>
<event>
 4    1  0.3283867E+006  0.2746988E+02  0.7546771E-02  0.1442944E+00
         21   -1    0    0  504  501  0.00000000000E+00  0.00000000000E+00  0.10302364383E+03  0.10302364383E+03  0.00000000000E+00 0. -1.
         21   -1    0    0  503  502 -0.00000000000E+00 -0.00000000000E+00 -0.73276633785E+01  0.73276633785E+01  0.00000000000E+00 0. -1.
         21    1    1    2  503  501  0.19249834828E+02 -0.19596892894E+02  0.46697493354E+02  0.54177949735E+02  0.00000000000E+00 0. -1.
         21    1    1    2  504  502 -0.19249834828E+02  0.19596892894E+02  0.48998487101E+02  0.56173357476E+02  0.00000000000E+00 0. -1.
</event>
<event>
 4    1  0.3283867E+006  0.2272540E+02  0.7546771E-02  0.1495975E+00
         21   -1    0    0  504  501  0.00000000000E+00  0.00000000000E+00  0.20272671582E+03  0.20272671582E+03  0.00000000000E+00 0. -1.
         21   -1    0    0  501  502 -0.00000000000E+00 -0.00000000000E+00 -0.40763683272E+01  0.40763683272E+01  0.00000000000E+00 0. -1.
         21    1    1    2  503  502  0.17178240955E+02  0.14877903563E+02  0.35999913704E+02  0.42572734978E+02  0.00000000000E+00 0. -1.
         21    1    1    2  504  503 -0.17178240955E+02 -0.14877903563E+02  0.16265043379E+03  0.16423034917E+03  0.00000000000E+00 0. -1.
</event>
<event>
 4    1  0.3283867E+006  0.2351203E+02  0.7546771E-02  0.1486167E+00
         21   -1    0    0  502  501  0.00000000000E+00  0.00000000000E+00  0.81306496309E+02  0.81306496309E+02  0.00000000000E+00 0.  1.
         21   -1    0    0  503  502 -0.00000000000E+00 -0.00000000000E+00 -0.84378923409E+02  0.84378923409E+02  0.00000000000E+00 0.  1.
         21    1    1    2  503  504 -0.17223519822E+02  0.16005189156E+02 -0.80971147298E+02  0.84315730500E+02  0.00000000000E+00 0.  1.
         21    1    1    2  504  501  0.17223519822E+02 -0.16005189156E+02  0.77898720198E+02  0.81369689218E+02  0.00000000000E+00 0.  1.
</event>
<event>
 4    1  0.3283867E+006  0.2242638E+02  0.7546771E-02  0.1499830E+00
         21   -1    0    0  504  501  0.00000000000E+00  0.00000000000E+00  0.11691395404E+03  0.11691395404E+03  0.00000000000E+00 0. -1.
         21   -1    0    0  503  502 -0.00000000000E+00 -0.00000000000E+00 -0.18399954562E+03  0.18399954562E+03  0.00000000000E+00 0.  1.
         21    1    1    2  503  501  0.10075660163E+02  0.20035555489E+02 -0.18223034213E+03  0.18360511977E+03  0.00000000000E+00 0.  1.
         21    1    1    2  504  502 -0.10075660163E+02 -0.20035555489E+02  0.11514475056E+03  0.11730837989E+03  0.00000000000E+00 0. -1.
</event>
<event>
 4    1  0.3283867E+006  0.2529601E+02  0.7546771E-02  0.1465519E+00
         21   -1    0    0  504  501  0.00000000000E+00  0.00000000000E+00  0.37134687616E+02  0.37134687616E+02  0.00000000000E+00 0.  1.
         21   -1    0    0  503  502 -0.00000000000E+00 -0.00000000000E+00 -0.23565053628E+02  0.23565053628E+02  0.00000000000E+00 0.  1.
         21    1    1    2  503  501  0.22869057742E+02 -0.10811764701E+02 -0.89493876783E+01  0.26832435554E+02  0.00000000000E+00 0.  1.
         21    1    1    2  504  502 -0.22869057742E+02  0.10811764701E+02  0.22519021666E+02  0.33867305691E+02  0.00000000000E+00 0.  1.
</event>
<event>
 4    1  0.3283867E+006  0.2149023E+02  0.7546771E-02  0.1512379E+00
         21   -1    0    0  503  501  0.00000000000E+00  0.00000000000E+00  0.59129989873E+02  0.59129989873E+02  0.00000000000E+00 0.  1.
         21   -1    0    0  504  502 -0.00000000000E+00 -0.00000000000E+00 -0.25640255105E+02  0.25640255105E+02  0.00000000000E+00 0.  1.
         21    1    1    2  503  502  0.19596988180E+02 -0.88197471795E+01  0.52089703305E+02  0.56348620892E+02  0.00000000000E+00 0.  1.
         21    1    1    2  504  501 -0.19596988180E+02  0.88197471795E+01 -0.18599968537E+02  0.28421624085E+02  0.00000000000E+00 0.  1.
</event>
<event>
 4    1  0.3283867E+006  0.2807201E+02  0.7546771E-02  0.1437127E+00
         21   -1    0    0  503  501  0.00000000000E+00  0.00000000000E+00  0.33183601251E+02  0.33183601251E+02  0.00000000000E+00 0. -1.
         21   -1    0    0  501  502 -0.00000000000E+00 -0.00000000000E+00 -0.50208879888E+02  0.50208879888E+02  0.00000000000E+00 0.  1.
         21    1    1    2  503  504  0.19108022349E+02  0.20565046294E+02  0.21757218798E+02  0.35516393637E+02  0.00000000000E+00 0. -1.
         21    1    1    2  504  502 -0.19108022349E+02 -0.20565046294E+02 -0.38782497435E+02  0.47876087502E+02  0.00000000000E+00 0.  1.
</event>
<event>
 4    1  0.3283867E+006  0.2930023E+02  0.7546771E-02  0.1425776E+00
         21   -1    0    0  504  501  0.00000000000E+00  0.00000000000E+00  0.12037245711E+02  0.12037245711E+02  0.00000000000E+00 0. -1.
         21   -1    0    0  501  502 -0.00000000000E+00 -0.00000000000E+00 -0.56806760924E+03  0.56806760924E+03  0.00000000000E+00 0.  1.
         21    1    1    2  503  502  0.29283872048E+02 -0.97882953975E+00 -0.54924918448E+03  0.55003015364E+03  0.00000000000E+00 0.  1.
         21    1    1    2  504  503 -0.29283872048E+02  0.97882953975E+00 -0.67811790522E+01  0.30074701307E+02  0.00000000000E+00 0. -1.
</event>
<event>
 4    1  0.3283867E+006  0.3868963E+02  0.7546771E-02  0.1356340E+00
         21   -1    0    0  503  501  0.00000000000E+00  0.00000000000E+00  0.23039243139E+03  0.23039243139E+03  0.00000000000E+00 0. -1.
         21   -1    0    0  504  502 -0.00000000000E+00 -0.00000000000E+00 -0.24954164774E+02  0.24954164774E+02  0.00000000000E+00 0. -1.
         21    1    1    2  503  502 -0.22726016960E+02  0.31311587826E+02  0.21252097779E+03  0.21601401200E+03  0.00000000000E+00 0. -1.
         21    1    1    2  504  501  0.22726016960E+02 -0.31311587826E+02 -0.70827111782E+01  0.39332584160E+02  0.00000000000E+00 0. -1.
</event>
<event>
 4    1  0.3283867E+006  0.2044609E+02  0.7546771E-02  0.1527322E+00
         21   -1    0    0  503  501  0.00000000000E+00  0.00000000000E+00  0.49547419043E+03  0.49547419043E+03  0.00000000000E+00 0.  1.
         21   -1    0    0  504  502 -0.00000000000E+00 -0.00000000000E+00 -0.12451903355E+01  0.12451903355E+01  0.00000000000E+00 0.  1.
         21    1    1    2  503  502  0.12682126274E+02  0.16037657597E+02  0.38813704439E+03  0.38867519604E+03  0.00000000000E+00 0.  1.
         21    1    1    2  504  501 -0.12682126274E+02 -0.16037657597E+02  0.10609195571E+03  0.10804418473E+03  0.00000000000E+00 0.  1.
</event>
<event>
 4    1  0.3283867E+006  0.2009938E+02  0.7546771E-02  0.1532522E+00
         21   -1    0    0  502  501  0.00000000000E+00  0.00000000000E+00  0.39959309430E+02  0.39959309430E+02  0.00000000000E+00 0.  1.
         21   -1    0    0  504  502 -0.00000000000E+00 -0.00000000000E+00 -0.21239175001E+02  0.21239175001E+02  0.00000000000E+00 0. -1.
         21    1    1    2  503  501 -0.65506337103E+01  0.19001956866E+02  0.31510133023E+02  0.37374772907E+02  0.00000000000E+00 0.  1.
         21    1    1    2  504  503  0.65506337103E+01 -0.19001956866E+02 -0.12789998594E+02  0.23823711524E+02  0.00000000000E+00 0. -1.
</event>
<event>
 4    1  0.3283867E+006  0.2663122E+02  0.7546771E-02  0.1451348E+00
         21   -1    0    0  503  501  0.00000000000E+00  0.00000000000E+00  0.23063121656E+03  0.23063121656E+03  0.00000000000E+00 0.  1.
         21   -1    0    0  504  502 -0.00000000000E+00 -0.00000000000E+00 -0.77370370735E+01  0.77370370735E+01  0.00000000000E+00 0. -1.
         21    1    1    2  503  502  0.21087630489E+02  0.16264490316E+02  0.20396221013E+03  0.20569347332E+03  0.00000000000E+00 0.  1.
         21    1    1    2  504  501 -0.21087630489E+02 -0.16264490316E+02  0.18931969355E+02  0.32674780313E+02  0.00000000000E+00 0. -1.
</event>
<event>
 4    1  0.3283867E+006  0.2104757E+02  0.7546771E-02  0.1518587E+00
         21   -1    0    0  504  501  0.00000000000E+00  0.00000000000E+00  0.13855668690E+03  0.13855668690E+03  0.00000000000E+00 0. -1.
         21   -1    0    0  501  502 -0.00000000000E+00 -0.00000000000E+00 -0.40501320041E+02  0.40501320041E+02  0.00000000000E+00 0.  1.
         21    1    1    2  503  502  0.42800070098E+01 -0.20607809796E+02 -0.36894889577E+02  0.42476265861E+02  0.00000000000E+00 0.  1.
         21    1    1    2  504  503 -0.42800070098E+01  0.20607809796E+02  0.13495025644E+03  0.13658174108E+03  0.00000000000E+00 0. -1.
</event>
<event>
 4    1  0.3283867E+006  0.2826458E+02  0.7546771E-02  0.1435303E+00
         21   -1    0    0  504  501  0.00000000000E+00  0.00000000000E+00  0.21143248170E+01  0.21143248170E+01  0.00000000000E+00 0.  1.
         21   -1    0    0  503  502 -0.00000000000E+00 -0.00000000000E+00 -0.64973314466E+03  0.64973314466E+03  0.00000000000E+00 0.  1.
         21    1    1    2  503  501  0.27898891500E+02  0.45319336160E+01 -0.11297388068E+03  0.11645593281E+03  0.00000000000E+00 0.  1.
         21    1    1    2  504  502 -0.27898891500E+02 -0.45319336160E+01 -0.53464493916E+03  0.53539153667E+03  0.00000000000E+00 0.  1.
</event>
<event>
 4    1  0.3283867E+006  0.3090888E+02  0.7546771E-02  0.1411859E+00
         21   -1    0    0  503  501  0.00000000000E+00  0.00000000000E+00  0.13422489561E+03  0.13422489561E+03  0.00000000000E+00 0.  1.
         21   -1    0    0  501  502 -0.00000000000E+00 -0.00000000000E+00 -0.89091097342E+01  0.89091097342E+01  0.00000000000E+00 0.  1.
         21    1    1    2  503  504  0.30768130688E+02 -0.29463311138E+01  0.94750544988E+02  0.99664559943E+02  0.00000000000E+00 0.  1.
         21    1    1    2  504  502 -0.30768130688E+02  0.29463311138E+01  0.30565240892E+02  0.43469445405E+02  0.00000000000E+00 0.  1.
</event>
<event>
 4    1  0.3283867E+006  0.2086715E+02  0.7546771E-02  0.1521170E+00
         21   -1    0    0  504  501  0.00000000000E+00  0.00000000000E+00  0.37075417877E+02  0.37075417877E+02  0.00000000000E+00 0. -1.
         21   -1    0    0  503  502 -0.00000000000E+00 -0.00000000000E+00 -0.32092290249E+02  0.32092290249E+02  0.00000000000E+00 0. -1.
         21    1    1    2  503  501  0.19762828674E+02 -0.66983966286E+01  0.30029413715E+02  0.36567794610E+02  0.00000000000E+00 0. -1.
         21    1    1    2  504  502 -0.19762828674E+02  0.66983966286E+01 -0.25046286087E+02  0.32599913517E+02  0.00000000000E+00 0. -1.
</event>
<event>
 4    1  0.3283867E+006  0.2079983E+02  0.7546771E-02  0.1522142E+00
         21   -1    0    0  502  501  0.00000000000E+00  0.00000000000E+00  0.22755825154E+03  0.22755825154E+03  0.00000000000E+00 0.  1.
         21   -1    0    0  504  502 -0.00000000000E+00 -0.00000000000E+00 -0.11737355836E+02  0.11737355836E+02  0.00000000000E+00 0. -1.
         21    1    1    2  503  501 -0.63465211052E+01  0.19807947352E+02  0.21744026377E+03  0.21843283044E+03  0.00000000000E+00 0.  1.
         21    1    1    2  504  503  0.63465211052E+01 -0.19807947352E+02 -0.16193680629E+01  0.20862776933E+02  0.00000000000E+00 0. -1.
</event>
<event>
 4    1  0.3283867E+006  0.2012202E+02  0.7546771E-02  0.1532179E+00
         21   -1    0    0  504  501  0.00000000000E+00  0.00000000000E+00  0.35130725623E+03  0.35130725623E+03  0.00000000000E+00 0.  1.
         21   -1    0    0  503  502 -0.00000000000E+00 -0.00000000000E+00 -0.17954379842E+01  0.17954379842E+01  0.00000000000E+00 0.  1.
         21    1    1    2  503  501  0.16485790458E+02 -0.11537517993E+02  0.69108970300E+02  0.71978784266E+02  0.00000000000E+00 0.  1.
         21    1    1    2  504  502 -0.16485790458E+02  0.11537517993E+02  0.28040284794E+03  0.28112390995E+03  0.00000000000E+00 0.  1.
</event>
<event>
 4    1  0.3283867E+006  0.2020901E+02  0.7546771E-02  0.1530864E+00
         21   -1    0    0  504  501  0.00000000000E+00  0.00000000000E+00  0.13179343349E+03  0.13179343349E+03  0.00000000000E+00 0. -1.
         21   -1    0    0  503  502 -0.00000000000E+00 -0.00000000000E+00 -0.22429979076E+03  0.22429979076E+03  0.00000000000E+00 0. -1.
         21    1    1    2  503  501 -0.14715058012E+02  0.13851754724E+02 -0.22306560952E+03  0.22397917357E+03  0.00000000000E+00 0. -1.
         21    1    1    2  504  502  0.14715058012E+02 -0.13851754724E+02  0.13055925224E+03  0.13211405068E+03  0.00000000000E+00 0. -1.
</event>
<event>
 4    1  0.3283867E+006  0.2355010E+02  0.7546771E-02  0.1485704E+00
         21   -1    0    0  502  501  0.00000000000E+00  0.00000000000E+00  0.37462265854E+01  0.37462265854E+01  0.00000000000E+00 0. -1.
         21   -1    0    0  503  502 -0.00000000000E+00 -0.00000000000E+00 -0.12527656037E+04  0.12527656037E+04  0.00000000000E+00 0. -1.
         21    1    1    2  503  504  0.91566398443E+01 -0.21697072511E+02 -0.12144771584E+04  0.12147054686E+04  0.00000000000E+00 0. -1.
         21    1    1    2  504  501 -0.91566398443E+01  0.21697072511E+02 -0.34542218684E+02  0.41806361722E+02  0.00000000000E+00 0. -1.
</event>
<event>
 4    1  0.3283867E+006  0.2949007E+02  0.7546771E-02  0.1424080E+00
         21   -1    0    0  504  501  0.00000000000E+00  0.00000000000E+00  0.13933146039E+03  0.13933146039E+03  0.00000000000E+00 0.  1.
         21   -1    0    0  503  502 -0.00000000000E+00 -0.00000000000E+00 -0.23829061874E+02  0.23829061874E+02  0.00000000000E+00 0.  1.
         21    1    1    2  503  501  0.19046034909E+02  0.22514726368E+02 -0.12334924593E+02  0.31965836668E+02  0.00000000000E+00 0.  1.
         21    1    1    2  504  502 -0.19046034909E+02 -0.22514726368E+02  0.12783732311E+03  0.13119468560E+03  0.00000000000E+00 0.  1.
</event>
<event>
 4    1  0.3283867E+006  0.2503561E+02  0.7546771E-02  0.1468405E+00
         21   -1    0    0  504  501  0.00000000000E+00  0.00000000000E+00  0.99383761183E+02  0.99383761183E+02  0.00000000000E+00 0. -1.
         21   -1    0    0  501  502 -0.00000000000E+00 -0.00000000000E+00 -0.94678033747E+01  0.94678033747E+01  0.00000000000E+00 0. -1.
         21    1    1    2  503  502 -0.18764361758E+02 -0.16573482927E+02  0.13509418662E+02  0.28447952494E+02  0.00000000000E+00 0. -1.
         21    1    1    2  504  503  0.18764361758E+02  0.16573482927E+02  0.76406539146E+02  0.80403612063E+02  0.00000000000E+00 0. -1.
</event>
<event>
 4    1  0.3283867E+006  0.2042634E+02  0.7546771E-02  0.1527615E+00
         21   -1    0    0  503  501  0.00000000000E+00  0.00000000000E+00  0.14686485045E+03  0.14686485045E+03  0.00000000000E+00 0.  1.
         21   -1    0    0  501  502 -0.00000000000E+00 -0.00000000000E+00 -0.33882534868E+01  0.33882534868E+01  0.00000000000E+00 0.  1.
         21    1    1    2  503  504 -0.18072401841E+02  0.95196385143E+01  0.10193231513E+03  0.10395879998E+03  0.00000000000E+00 0.  1.
         21    1    1    2  504  502  0.18072401841E+02 -0.95196385143E+01  0.41544281839E+02  0.46294303961E+02  0.00000000000E+00 0.  1.
</event>
<event>
 4    1  0.3283867E+006  0.2131929E+02  0.7546771E-02  0.1514755E+00
         21   -1    0    0  503  501  0.00000000000E+00  0.00000000000E+00  0.64720549778E+02  0.64720549778E+02  0.00000000000E+00 0.  1.
         21   -1    0    0  504  502 -0.00000000000E+00 -0.00000000000E+00 -0.16872594881E+02  0.16872594881E+02  0.00000000000E+00 0.  1.
         21    1    1    2  503  502  0.20894565746E+02 -0.42343050020E+01  0.55094838749E+02  0.59075828164E+02  0.00000000000E+00 0.  1.
         21    1    1    2  504  501 -0.20894565746E+02  0.42343050020E+01 -0.72468838524E+01  0.22517316495E+02  0.00000000000E+00 0.  1.
</event>
<event>
 4    1  0.3283867E+006  0.2397211E+02  0.7546771E-02  0.1480639E+00
         21   -1    0    0  502  501  0.00000000000E+00  0.00000000000E+00  0.10926821627E+02  0.10926821627E+02  0.00000000000E+00 0. -1.
         21   -1    0    0  503  502 -0.00000000000E+00 -0.00000000000E+00 -0.93067054231E+02  0.93067054231E+02  0.00000000000E+00 0. -1.
         21    1    1    2  503  504  0.21056097163E+02 -0.11458734261E+02 -0.75360653015E+02  0.79081539195E+02  0.00000000000E+00 0. -1.
         21    1    1    2  504  501 -0.21056097163E+02  0.11458734261E+02 -0.67795795889E+01  0.24912336663E+02  0.00000000000E+00 0. -1.
</event>
<event>
 4    1  0.3283867E+006  0.2186366E+02  0.7546771E-02  0.1507282E+00
         21   -1    0    0  504  501  0.00000000000E+00  0.00000000000E+00  0.81940602848E+03  0.81940602848E+03  0.00000000000E+00 0.  1.
         21   -1    0    0  503  502 -0.00000000000E+00 -0.00000000000E+00 -0.84107649284E+00  0.84107649284E+00  0.00000000000E+00 0.  1.
         21    1    1    2  503  501 -0.21575152560E+02  0.35400936149E+01  0.63629875158E+03  0.63667426580E+03  0.00000000000E+00 0.  1.
         21    1    1    2  504  502  0.21575152560E+02 -0.35400936149E+01  0.18226620041E+03  0.18357283917E+03  0.00000000000E+00 0.  1.
</event>
<event>
 4    1  0.3283867E+006  0.2463991E+02  0.7546771E-02  0.1472872E+00
         21   -1    0    0  504  501  0.00000000000E+00  0.00000000000E+00  0.22790383377E+03  0.22790383377E+03  0.00000000000E+00 0.  1.
         21   -1    0    0  503  502 -0.00000000000E+00 -0.00000000000E+00 -0.47207136826E+02  0.47207136826E+02  0.00000000000E+00 0.  1.
         21    1    1    2  503  501 -0.16349407773E+02  0.18434261059E+02 -0.43269572720E+02  0.49793383483E+02  0.00000000000E+00 0.  1.
         21    1    1    2  504  502  0.16349407773E+02 -0.18434261059E+02  0.22396626966E+03  0.22531758711E+03  0.00000000000E+00 0.  1.
</event>
<event>
 4    1  0.3283867E+006  0.3482807E+02  0.7546771E-02  0.1381776E+00
         21   -1    0    0  503  501  0.00000000000E+00  0.00000000000E+00  0.10920028836E+03  0.10920028836E+03  0.00000000000E+00 0. -1.
         21   -1    0    0  504  502 -0.00000000000E+00 -0.00000000000E+00 -0.37493494934E+02  0.37493494934E+02  0.00000000000E+00 0.  1.
         21    1    1    2  503  502 -0.27746774789E+02  0.21050195982E+02 -0.25676553729E+02  0.43269847162E+02  0.00000000000E+00 0.  1.
         21    1    1    2  504  501  0.27746774789E+02 -0.21050195982E+02  0.97383347159E+02  0.10342393614E+03  0.00000000000E+00 0. -1.
</event>
<event>
 4    1  0.3283867E+006  0.2360649E+02  0.7546771E-02  0.1485020E+00
         21   -1    0    0  504  501  0.00000000000E+00  0.00000000000E+00  0.24322828633E+03  0.24322828633E+03  0.00000000000E+00 0. -1.
         21   -1    0    0  501  502 -0.00000000000E+00 -0.00000000000E+00 -0.62743272820E+01  0.62743272820E+01  0.00000000000E+00 0. -1.
         21    1    1    2  503  502  0.21217646875E+02 -0.10347848642E+02  0.19078972353E+02  0.30352490779E+02  0.00000000000E+00 0. -1.
         21    1    1    2  504  503 -0.21217646875E+02  0.10347848642E+02  0.21787498670E+03  0.21915012284E+03  0.00000000000E+00 0. -1.
</event>
<event>
 4    1  0.3283867E+006  0.2343236E+02  0.7546771E-02  0.1487139E+00
         21   -1    0    0  504  501  0.00000000000E+00  0.00000000000E+00  0.11389699557E+03  0.11389699557E+03  0.00000000000E+00 0. -1.
         21   -1    0    0  503  502 -0.00000000000E+00 -0.00000000000E+00 -0.10259367097E+03  0.10259367097E+03  0.00000000000E+00 0.  1.
         21    1    1    2  503  501 -0.53278156686E+01  0.22818626437E+02  0.11132320976E+03  0.11376261409E+03  0.00000000000E+00 0. -1.
         21    1    1    2  504  502  0.53278156686E+01 -0.22818626437E+02 -0.10001988517E+03  0.10272805246E+03  0.00000000000E+00 0.  1.
</event>
<event>
 4    1  0.3283867E+006  0.2491442E+02  0.7546771E-02  0.1469763E+00
         21   -1    0    0  504  501  0.00000000000E+00  0.00000000000E+00  0.10136891285E+04  0.10136891285E+04  0.00000000000E+00 0. -1.
         21   -1    0    0  503  502 -0.00000000000E+00 -0.00000000000E+00 -0.12807865224E+01  0.12807865224E+01  0.00000000000E+00 0. -1.
         21    1    1    2  503  501 -0.10219195944E+02  0.22722156681E+02  0.13958411406E+03  0.14179017339E+03  0.00000000000E+00 0. -1.
         21    1    1    2  504  502  0.10219195944E+02 -0.22722156681E+02  0.87282422791E+03  0.87317974163E+03  0.00000000000E+00 0. -1.
</event>
<event>
 4    1  0.3283867E+006  0.2181220E+02  0.7546771E-02  0.1507977E+00
         21   -1    0    0  503  501  0.00000000000E+00  0.00000000000E+00  0.18747988092E+03  0.18747988092E+03  0.00000000000E+00 0.  1.
         21   -1    0    0  501  502 -0.00000000000E+00 -0.00000000000E+00 -0.72023499647E+01  0.72023499647E+01  0.00000000000E+00 0. -1.
         21    1    1    2  503  504  0.18021770648E+02 -0.12287713263E+02  0.16847589265E+03  0.16988201352E+03  0.00000000000E+00 0.  1.
         21    1    1    2  504  502 -0.18021770648E+02  0.12287713263E+02  0.11801638307E+02  0.24800217363E+02  0.00000000000E+00 0. -1.
</event>
<event>
 4    1  0.3283867E+006  0.2103849E+02  0.7546771E-02  0.1518716E+00
         21   -1    0    0  504  501  0.00000000000E+00  0.00000000000E+00  0.62663145137E+02  0.62663145137E+02  0.00000000000E+00 0. -1.
         21   -1    0    0  503  502 -0.00000000000E+00 -0.00000000000E+00 -0.13173111957E+02  0.13173111957E+02  0.00000000000E+00 0. -1.
         21    1    1    2  503  501  0.10993319040E+02 -0.17937811452E+02 -0.10782517689E+01  0.21066104768E+02  0.00000000000E+00 0. -1.
         21    1    1    2  504  502 -0.10993319040E+02  0.17937811452E+02  0.50568284949E+02  0.54770152327E+02  0.00000000000E+00 0. -1.
</event>
<event>
 4    1  0.3283867E+006  0.2012817E+02  0.7546771E-02  0.1532085E+00
         21   -1    0    0  504  501  0.00000000000E+00  0.00000000000E+00  0.18808760155E+01  0.18808760155E+01  0.00000000000E+00 0.  1.
         21   -1    0    0  503  502 -0.00000000000E+00 -0.00000000000E+00 -0.35232085275E+03  0.35232085275E+03  0.00000000000E+00 0.  1.
         21    1    1    2  503  501  0.15098586684E+02  0.13310741276E+02 -0.28562384145E+03  0.28633218813E+03  0.00000000000E+00 0.  1.
         21    1    1    2  504  502 -0.15098586684E+02 -0.13310741276E+02 -0.64816135276E+02  0.67869540629E+02  0.00000000000E+00 0.  1.
</event>
<event>
 4    1  0.3283867E+006  0.3248953E+02  0.7546771E-02  0.1399127E+00
         21   -1    0    0  503  501  0.00000000000E+00  0.00000000000E+00  0.42973599583E+02  0.42973599583E+02  0.00000000000E+00 0.  1.
         21   -1    0    0  504  502 -0.00000000000E+00 -0.00000000000E+00 -0.24575644712E+02  0.24575644712E+02  0.00000000000E+00 0.  1.
         21    1    1    2  503  502  0.31014794752E+02  0.96774043844E+01  0.99586317742E+01  0.33981524332E+02  0.00000000000E+00 0.  1.
         21    1    1    2  504  501 -0.31014794752E+02 -0.96774043844E+01  0.84393230963E+01  0.33567719962E+02  0.00000000000E+00 0.  1.
</event>
<event>
 4    1  0.3283867E+006  0.2426284E+02  0.7546771E-02  0.1477222E+00
         21   -1    0    0  503  501  0.00000000000E+00  0.00000000000E+00  0.39848794038E+02  0.39848794038E+02  0.00000000000E+00 0.  1.
         21   -1    0    0  504  502 -0.00000000000E+00 -0.00000000000E+00 -0.19187643128E+02  0.19187643128E+02  0.00000000000E+00 0.  1.
         21    1    1    2  503  502  0.17541460638E+02 -0.16762537132E+02  0.24489427540E+02  0.34473432577E+02  0.00000000000E+00 0.  1.
         21    1    1    2  504  501 -0.17541460638E+02  0.16762537132E+02 -0.38282766298E+01  0.24563004588E+02  0.00000000000E+00 0.  1.
</event>
<event>
 4    1  0.3283867E+006  0.2000938E+02  0.7546771E-02  0.1533892E+00
         21   -1    0    0  504  501  0.00000000000E+00  0.00000000000E+00  0.92934059302E+02  0.92934059302E+02  0.00000000000E+00 0. -1.
         21   -1    0    0  503  502 -0.00000000000E+00 -0.00000000000E+00 -0.36950230572E+02  0.36950230572E+02  0.00000000000E+00 0. -1.
         21    1    1    2  503  501 -0.82598327526E+01 -0.18224994222E+02 -0.33047009654E+02  0.38632629972E+02  0.00000000000E+00 0. -1.
         21    1    1    2  504  502  0.82598327526E+01  0.18224994222E+02  0.89030838384E+02  0.91251659902E+02  0.00000000000E+00 0. -1.
</event>
<event>
 4    1  0.3283867E+006  0.2280554E+02  0.7546771E-02  0.1494955E+00
         21   -1    0    0  504  501  0.00000000000E+00  0.00000000000E+00  0.64847455357E+03  0.64847455357E+03  0.00000000000E+00 0.  1.
         21   -1    0    0  503  502 -0.00000000000E+00 -0.00000000000E+00 -0.10215928846E+03  0.10215928846E+03  0.00000000000E+00 0. -1.
         21    1    1    2  503  501  0.11049020838E+02  0.19950234299E+02  0.64699839498E+03  0.64740019757E+03  0.00000000000E+00 0.  1.
         21    1    1    2  504  502 -0.11049020838E+02 -0.19950234299E+02 -0.10068312987E+03  0.10323364447E+03  0.00000000000E+00 0. -1.
</event>
<event>
 4    1  0.3283867E+006  0.2599637E+02  0.7546771E-02  0.1457959E+00
         21   -1    0    0  504  501  0.00000000000E+00  0.00000000000E+00  0.41049226521E+03  0.41049226521E+03  0.00000000000E+00 0.  1.
         21   -1    0    0  503  502 -0.00000000000E+00 -0.00000000000E+00 -0.46734470852E+02  0.46734470852E+02  0.00000000000E+00 0.  1.
         21    1    1    2  503  501 -0.14222806798E+02 -0.21760580353E+02 -0.42671619252E+02  0.49966770759E+02  0.00000000000E+00 0.  1.
         21    1    1    2  504  502  0.14222806798E+02  0.21760580353E+02  0.40642941361E+03  0.40725996530E+03  0.00000000000E+00 0.  1.
</event>
<event>
 4    1  0.3283867E+006  0.2274467E+02  0.7546771E-02  0.1495729E+00
         21   -1    0    0  504  501  0.00000000000E+00  0.00000000000E+00  0.12547832274E+03  0.12547832274E+03  0.00000000000E+00 0. -1.
         21   -1    0    0  501  502 -0.00000000000E+00 -0.00000000000E+00 -0.60348537508E+01  0.60348537508E+01  0.00000000000E+00 0. -1.
         21    1    1    2  503  502  0.12237202498E+02 -0.19172140245E+02  0.22708443343E+02  0.32140216017E+02  0.00000000000E+00 0. -1.
         21    1    1    2  504  503 -0.12237202498E+02  0.19172140245E+02  0.96735025643E+02  0.99372960471E+02  0.00000000000E+00 0. -1.
</event>
<event>
 4    1  0.3283867E+006  0.3310059E+02  0.7546771E-02  0.1394432E+00
         21   -1    0    0  503  501  0.00000000000E+00  0.00000000000E+00  0.27350951347E+02  0.27350951347E+02  0.00000000000E+00 0. -1.
         21   -1    0    0  504  502 -0.00000000000E+00 -0.00000000000E+00 -0.40522223780E+02  0.40522223780E+02  0.00000000000E+00 0. -1.
         21    1    1    2  503  502 -0.32669555783E+02  0.53243800789E+01 -0.10214461011E+02  0.34640786828E+02  0.00000000000E+00 0. -1.
         21    1    1    2  504  501  0.32669555783E+02 -0.53243800789E+01 -0.29568114223E+01  0.33232388300E+02  0.00000000000E+00 0. -1.
</event>
<event>
 4    1  0.3283867E+006  0.2086369E+02  0.7546771E-02  0.1521220E+00
         21   -1    0    0  502  501  0.00000000000E+00  0.00000000000E+00  0.12230881617E+02  0.12230881617E+02  0.00000000000E+00 0.  1.
         21   -1    0    0  504  502 -0.00000000000E+00 -0.00000000000E+00 -0.21825905044E+03  0.21825905044E+03  0.00000000000E+00 0. -1.
         21    1    1    2  503  501 -0.89308333787E+01 -0.18855604659E+02  0.24169957267E+01  0.21003225472E+02  0.00000000000E+00 0.  1.
         21    1    1    2  504  503  0.89308333787E+01  0.18855604659E+02 -0.20844516455E+03  0.20948670659E+03  0.00000000000E+00 0. -1.
</event>
<event>
 4    1  0.3283867E+006  0.2110324E+02  0.7546771E-02  0.1517796E+00
         21   -1    0    0  503  501  0.00000000000E+00  0.00000000000E+00  0.11741032148E+04  0.11741032148E+04  0.00000000000E+00 0.  1.
         21   -1    0    0  504  502 -0.00000000000E+00 -0.00000000000E+00 -0.67615417916E+00  0.67615417916E+00  0.00000000000E+00 0.  1.
         21    1    1    2  503  502  0.21085159728E+02  0.87344929150E+00  0.97591018283E+03  0.97613832617E+03  0.00000000000E+00 0.  1.
         21    1    1    2  504  501 -0.21085159728E+02 -0.87344929150E+00  0.19751687775E+03  0.19864104277E+03  0.00000000000E+00 0.  1.
</event>
<event>
 4    1  0.3283867E+006  0.2550020E+02  0.7546771E-02  0.1463285E+00
         21   -1    0    0  503  501  0.00000000000E+00  0.00000000000E+00  0.15097680910E+03  0.15097680910E+03  0.00000000000E+00 0.  1.
         21   -1    0    0  501  502 -0.00000000000E+00 -0.00000000000E+00 -0.48701319281E+01  0.48701319281E+01  0.00000000000E+00 0. -1.
         21    1    1    2  503  504 -0.19181375899E+02 -0.16802833581E+02  0.99550211304E+02  0.10276431758E+03  0.00000000000E+00 0. -1.
         21    1    1    2  504  502  0.19181375899E+02  0.16802833581E+02  0.46556465873E+02  0.53082623450E+02  0.00000000000E+00 0.  1.
</event>
<event>
 4    1  0.3283867E+006  0.3566393E+02  0.7546771E-02  0.1375955E+00
         21   -1    0    0  503  501  0.00000000000E+00  0.00000000000E+00  0.97378042374E+01  0.97378042374E+01  0.00000000000E+00 0. -1.
         21   -1    0    0  501  502 -0.00000000000E+00 -0.00000000000E+00 -0.61053029547E+03  0.61053029547E+03  0.00000000000E+00 0. -1.
         21    1    1    2  503  504  0.46893804784E+01 -0.35354291902E+02 -0.25431170496E+02  0.43802519082E+02  0.00000000000E+00 0. -1.
         21    1    1    2  504  502 -0.46893804784E+01  0.35354291902E+02 -0.57536132074E+03  0.57646558063E+03  0.00000000000E+00 0. -1.
</event>
<event>
 4    1  0.3283867E+006  0.2088343E+02  0.7546771E-02  0.1520936E+00
         21   -1    0    0  504  501  0.00000000000E+00  0.00000000000E+00  0.15396846259E+02  0.15396846259E+02  0.00000000000E+00 0.  1.
         21   -1    0    0  501  502 -0.00000000000E+00 -0.00000000000E+00 -0.30287776218E+02  0.30287776218E+02  0.00000000000E+00 0.  1.
         21    1    1    2  503  502 -0.87119373015E+01  0.18979455912E+02 -0.16307572448E+01  0.20947003782E+02  0.00000000000E+00 0.  1.
         21    1    1    2  504  503  0.87119373015E+01 -0.18979455912E+02 -0.13260172714E+02  0.24737618695E+02  0.00000000000E+00 0.  1.
</event>
<event>
 4    1  0.3283867E+006  0.2412187E+02  0.7546771E-02  0.1478872E+00
         21   -1    0    0  503  501  0.00000000000E+00  0.00000000000E+00  0.97610772555E+02  0.97610772555E+02  0.00000000000E+00 0.  1.
         21   -1    0    0  504  502 -0.00000000000E+00 -0.00000000000E+00 -0.12152869093E+02  0.12152869093E+02  0.00000000000E+00 0. -1.
         21    1    1    2  503  502 -0.23182383259E+02 -0.66664801597E+01  0.35549934254E+01  0.24382428705E+02  0.00000000000E+00 0. -1.
         21    1    1    2  504  501  0.23182383259E+02  0.66664801597E+01  0.81902910036E+02  0.85381212943E+02  0.00000000000E+00 0.  1.
</event>
<event>
 4    1  0.3283867E+006  0.3673772E+02  0.7546771E-02  0.1368741E+00
         21   -1    0    0  503  501  0.00000000000E+00  0.00000000000E+00  0.10261163017E+02  0.10261163017E+02  0.00000000000E+00 0.  1.
         21   -1    0    0  504  502 -0.00000000000E+00 -0.00000000000E+00 -0.17819288932E+03  0.17819288932E+03  0.00000000000E+00 0.  1.
         21    1    1    2  503  502  0.36719383321E+02 -0.11605526816E+01 -0.35747559152E+02  0.51259613531E+02  0.00000000000E+00 0.  1.
         21    1    1    2  504  501 -0.36719383321E+02  0.11605526816E+01 -0.13218416715E+03  0.13719443880E+03  0.00000000000E+00 0.  1.
</event>
<event>
 4    1  0.3283867E+006  0.2169254E+02  0.7546771E-02  0.1509603E+00
         21   -1    0    0  503  501  0.00000000000E+00  0.00000000000E+00  0.14536919203E+02  0.14536919203E+02  0.00000000000E+00 0. -1.
         21   -1    0    0  504  502 -0.00000000000E+00 -0.00000000000E+00 -0.56923660095E+03  0.56923660095E+03  0.00000000000E+00 0.  1.
         21    1    1    2  503  502  0.20281750115E+02 -0.76952429218E+01 -0.56081586471E+03  0.56123524503E+03  0.00000000000E+00 0.  1.
         21    1    1    2  504  501 -0.20281750115E+02  0.76952429218E+01  0.61161829665E+01  0.22538275121E+02  0.00000000000E+00 0. -1.
</event>
<event>
 4    1  0.3283867E+006  0.2268860E+02  0.7546771E-02  0.1496446E+00
         21   -1    0    0  504  501  0.00000000000E+00  0.00000000000E+00  0.57403049782E+01  0.57403049782E+01  0.00000000000E+00 0. -1.
         21   -1    0    0  501  502 -0.00000000000E+00 -0.00000000000E+00 -0.20765122962E+03  0.20765122962E+03  0.00000000000E+00 0.  1.
         21    1    1    2  503  502  0.14862527267E+02 -0.17142870091E+02 -0.18137724774E+03  0.18279080587E+03  0.00000000000E+00 0.  1.
         21    1    1    2  504  503 -0.14862527267E+02  0.17142870091E+02 -0.20533676898E+02  0.30600728728E+02  0.00000000000E+00 0. -1.
</event>
<event>
 4    1  0.3283867E+006  0.3587079E+02  0.7546771E-02  0.1374543E+00
         21   -1    0    0  504  501  0.00000000000E+00  0.00000000000E+00  0.60279511946E+01  0.60279511946E+01  0.00000000000E+00 0.  1.
         21   -1    0    0  503  502 -0.00000000000E+00 -0.00000000000E+00 -0.24470136429E+03  0.24470136429E+03  0.00000000000E+00 0.  1.
         21    1    1    2  503  501  0.21367404992E+01  0.35807096467E+02 -0.74540988847E+02  0.82722867671E+02  0.00000000000E+00 0.  1.
         21    1    1    2  504  502 -0.21367404992E+01 -0.35807096467E+02 -0.16413242424E+03  0.16800644781E+03  0.00000000000E+00 0.  1.
</event>
<event>
 4    1  0.3283867E+006  0.2351089E+02  0.7546771E-02  0.1486181E+00
         21   -1    0    0  503  501  0.00000000000E+00  0.00000000000E+00  0.32531842212E+02  0.32531842212E+02  0.00000000000E+00 0. -1.
         21   -1    0    0  504  502 -0.00000000000E+00 -0.00000000000E+00 -0.17459688495E+02  0.17459688495E+02  0.00000000000E+00 0. -1.
         21    1    1    2  503  502 -0.23385208347E+02 -0.24277828340E+01  0.11629597875E+02  0.26229937965E+02  0.00000000000E+00 0. -1.
         21    1    1    2  504  501  0.23385208347E+02  0.24277828340E+01  0.34425558422E+01  0.23761592742E+02  0.00000000000E+00 0. -1.
</event>
<event>
 4    1  0.3283867E+006  0.2246250E+02  0.7546771E-02  0.1499360E+00
         21   -1    0    0  504  501  0.00000000000E+00  0.00000000000E+00  0.88513809303E+02  0.88513809303E+02  0.00000000000E+00 0. -1.
         21   -1    0    0  503  502 -0.00000000000E+00 -0.00000000000E+00 -0.13128366335E+02  0.13128366335E+02  0.00000000000E+00 0.  1.
         21    1    1    2  503  501  0.47365632665E+01  0.21957429964E+02  0.75920027619E+02  0.79173318459E+02  0.00000000000E+00 0. -1.
         21    1    1    2  504  502 -0.47365632665E+01 -0.21957429964E+02 -0.53458465117E+00  0.22468857179E+02  0.00000000000E+00 0.  1.
</event>
<event>
 4    1  0.3283867E+006  0.2148085E+02  0.7546771E-02  0.1512509E+00
         21   -1    0    0  502  501  0.00000000000E+00  0.00000000000E+00  0.35314812697E+02  0.35314812697E+02  0.00000000000E+00 0. -1.
         21   -1    0    0  503  502 -0.00000000000E+00 -0.00000000000E+00 -0.17283922436E+02  0.17283922436E+02  0.00000000000E+00 0. -1.
         21    1    1    2  503  504 -0.21001470441E+02  0.45127769103E+01 -0.39763222467E+01  0.21845778877E+02  0.00000000000E+00 0. -1.
         21    1    1    2  504  501  0.21001470441E+02 -0.45127769103E+01  0.22007212507E+02  0.30752956256E+02  0.00000000000E+00 0. -1.
</event>
<event>
 4    1  0.3283867E+006  0.2311746E+02  0.7546771E-02  0.1491028E+00
         21   -1    0    0  503  501  0.00000000000E+00  0.00000000000E+00  0.12892109584E+04  0.12892109584E+04  0.00000000000E+00 0. -1.
         21   -1    0    0  501  502 -0.00000000000E+00 -0.00000000000E+00 -0.34254222743E+02  0.34254222743E+02  0.00000000000E+00 0.  1.
         21    1    1    2  503  504  0.18709768741E+02  0.13577978346E+02  0.12851947656E+04  0.12854026616E+04  0.00000000000E+00 0. -1.
         21    1    1    2  504  502 -0.18709768741E+02 -0.13577978346E+02 -0.30238029916E+02  0.38062519563E+02  0.00000000000E+00 0.  1.
</event>
<event>
 4    1  0.3283867E+006  0.2426317E+02  0.7546771E-02  0.1477218E+00
         21   -1    0    0  503  501  0.00000000000E+00  0.00000000000E+00  0.11469071150E+01  0.11469071150E+01  0.00000000000E+00 0.  1.
         21   -1    0    0  504  502 -0.00000000000E+00 -0.00000000000E+00 -0.52764425023E+03  0.52764425023E+03  0.00000000000E+00 0.  1.
         21    1    1    2  503  502 -0.15776742219E+02  0.18433551186E+02 -0.21964712189E+03  0.22098316578E+03  0.00000000000E+00 0.  1.
         21    1    1    2  504  501  0.15776742219E+02 -0.18433551186E+02 -0.30685022123E+03  0.30780799157E+03  0.00000000000E+00 0.  1.
</event>
<event>
 4    1  0.3283867E+006  0.2080208E+02  0.7546771E-02  0.1522110E+00
         21   -1    0    0  503  501  0.00000000000E+00  0.00000000000E+00  0.10980170064E+03  0.10980170064E+03  0.00000000000E+00 0.  1.
         21   -1    0    0  504  502 -0.00000000000E+00 -0.00000000000E+00 -0.13205601386E+03  0.13205601386E+03  0.00000000000E+00 0. -1.
         21    1    1    2  503  502  0.12303017764E+02  0.16773854442E+02 -0.13023789113E+03  0.13188872099E+03  0.00000000000E+00 0. -1.
         21    1    1    2  504  501 -0.12303017764E+02 -0.16773854442E+02  0.10798357790E+03  0.10996899352E+03  0.00000000000E+00 0.  1.
</event>
<event>
 4    1  0.3283867E+006  0.2481539E+02  0.7546771E-02  0.1470879E+00
         21   -1    0    0  503  501  0.00000000000E+00  0.00000000000E+00  0.94770826231E+01  0.94770826231E+01  0.00000000000E+00 0.  1.
         21   -1    0    0  501  502 -0.00000000000E+00 -0.00000000000E+00 -0.68450012781E+02  0.68450012781E+02  0.00000000000E+00 0.  1.
         21    1    1    2  503  504  0.17961417139E+02  0.17122821889E+02 -0.20711378168E+02  0.32322820432E+02  0.00000000000E+00 0.  1.
         21    1    1    2  504  502 -0.17961417139E+02 -0.17122821889E+02 -0.38261551990E+02  0.45604274972E+02  0.00000000000E+00 0.  1.
</event>
<event>
 4    1  0.3283867E+006  0.2306121E+02  0.7546771E-02  0.1491731E+00
         21   -1    0    0  503  501  0.00000000000E+00  0.00000000000E+00  0.61017863148E+02  0.61017863148E+02  0.00000000000E+00 0.  1.
         21   -1    0    0  504  502 -0.00000000000E+00 -0.00000000000E+00 -0.30851967153E+02  0.30851967153E+02  0.00000000000E+00 0.  1.
         21    1    1    2  503  502 -0.23058647843E+02 -0.34359853434E+00 -0.23826290561E+02  0.33158881498E+02  0.00000000000E+00 0.  1.
         21    1    1    2  504  501  0.23058647843E+02  0.34359853434E+00  0.53992186555E+02  0.58710948803E+02  0.00000000000E+00 0.  1.
</event>
<event>
 4    1  0.3283867E+006  0.2762636E+02  0.7546771E-02  0.1441416E+00
         21   -1    0    0  503  501  0.00000000000E+00  0.00000000000E+00  0.18936930749E+02  0.18936930749E+02  0.00000000000E+00 0. -1.
         21   -1    0    0  504  502 -0.00000000000E+00 -0.00000000000E+00 -0.47405845745E+02  0.47405845745E+02  0.00000000000E+00 0. -1.
         21    1    1    2  503  502 -0.19530386889E+02  0.19539187856E+02 -0.27074387969E+02  0.38681240389E+02  0.00000000000E+00 0. -1.
         21    1    1    2  504  501  0.19530386889E+02 -0.19539187856E+02 -0.13945270267E+01  0.27661536106E+02  0.00000000000E+00 0. -1.
</event>
<event>
 4    1  0.3283867E+006  0.2884195E+02  0.7546771E-02  0.1429934E+00
         21   -1    0    0  503  501  0.00000000000E+00  0.00000000000E+00  0.16922493196E+03  0.16922493196E+03  0.00000000000E+00 0.  1.
         21   -1    0    0  501  502 -0.00000000000E+00 -0.00000000000E+00 -0.43343011501E+02  0.43343011501E+02  0.00000000000E+00 0.  1.
         21    1    1    2  503  504 -0.17011824383E+02 -0.23290678564E+02  0.16301657612E+03  0.16554836746E+03  0.00000000000E+00 0.  1.
         21    1    1    2  504  502  0.17011824383E+02  0.23290678564E+02 -0.37134655661E+02  0.47019576007E+02  0.00000000000E+00 0.  1.
</event>
<event>
 4    1  0.3283867E+006  0.2388823E+02  0.7546771E-02  0.1481636E+00
         21   -1    0    0  503  501  0.00000000000E+00  0.00000000000E+00  0.14971352122E+03  0.14971352122E+03  0.00000000000E+00 0.  1.
         21   -1    0    0  504  502 -0.00000000000E+00 -0.00000000000E+00 -0.71114211921E+01  0.71114211921E+01  0.00000000000E+00 0.  1.
         21    1    1    2  503  502 -0.94998893730E+01  0.21918016458E+02  0.12471472479E+03  0.12698192754E+03  0.00000000000E+00 0.  1.
         21    1    1    2  504  501  0.94998893730E+01 -0.21918016458E+02  0.17887375241E+02  0.29843014871E+02  0.00000000000E+00 0.  1.
</event>
<event>
 4    1  0.3283867E+006  0.3039774E+02  0.7546771E-02  0.1416171E+00
         21   -1    0    0  502  501  0.00000000000E+00  0.00000000000E+00  0.12142462576E+02  0.12142462576E+02  0.00000000000E+00 0.  1.
         21   -1    0    0  504  502 -0.00000000000E+00 -0.00000000000E+00 -0.12518579573E+03  0.12518579573E+03  0.00000000000E+00 0.  1.
         21    1    1    2  503  501  0.25182319684E+02 -0.17025674710E+02 -0.13524773441E+02  0.33270742713E+02  0.00000000000E+00 0.  1.
         21    1    1    2  504  503 -0.25182319684E+02  0.17025674710E+02 -0.99518559709E+02  0.10405751559E+03  0.00000000000E+00 0.  1.
</event>
<event>
 4    1  0.3283867E+006  0.2048236E+02  0.7546771E-02  0.1526785E+00
         21   -1    0    0  503  501  0.00000000000E+00  0.00000000000E+00  0.21817364873E+03  0.21817364873E+03  0.00000000000E+00 0. -1.
         21   -1    0    0  501  502 -0.00000000000E+00 -0.00000000000E+00 -0.27679515261E+02  0.27679515261E+02  0.00000000000E+00 0.  1.
         21    1    1    2  503  504  0.20417063190E+02 -0.16341548430E+01  0.21382692573E+03  0.21480568219E+03  0.00000000000E+00 0. -1.
         21    1    1    2  504  502 -0.20417063190E+02  0.16341548430E+01 -0.23332792266E+02  0.31047481803E+02  0.00000000000E+00 0.  1.
</event>
<event>
 4    1  0.3283867E+006  0.2789120E+02  0.7546771E-02  0.1438856E+00
         21   -1    0    0  503  501  0.00000000000E+00  0.00000000000E+00  0.58549774599E+02  0.58549774599E+02  0.00000000000E+00 0.  1.
         21   -1    0    0  504  502 -0.00000000000E+00 -0.00000000000E+00 -0.35057760925E+02  0.35057760925E+02  0.00000000000E+00 0.  1.
         21    1    1    2  503  502 -0.21382827006E+02  0.17907927067E+02  0.48629405675E+02  0.56060130565E+02  0.00000000000E+00 0.  1.
         21    1    1    2  504  501  0.21382827006E+02 -0.17907927067E+02 -0.25137392001E+02  0.37547404960E+02  0.00000000000E+00 0.  1.
</event>
<event>
 4    1  0.3283867E+006  0.2288007E+02  0.7546771E-02  0.1494010E+00
         21   -1    0    0  504  501  0.00000000000E+00  0.00000000000E+00  0.56402431509E+01  0.56402431509E+01  0.00000000000E+00 0.  1.
         21   -1    0    0  503  502 -0.00000000000E+00 -0.00000000000E+00 -0.52409849546E+03  0.52409849546E+03  0.00000000000E+00 0. -1.
         21    1    1    2  503  501  0.22713549701E+02 -0.27553696782E+01 -0.18955082171E+02  0.29711824956E+02  0.00000000000E+00 0.  1.
         21    1    1    2  504  502 -0.22713549701E+02  0.27553696782E+01 -0.49950317014E+03  0.50002691365E+03  0.00000000000E+00 0. -1.
</event>
<event>
 4    1  0.3283867E+006  0.2421084E+02  0.7546771E-02  0.1477829E+00
         21   -1    0    0  502  501  0.00000000000E+00  0.00000000000E+00  0.19591637182E+02  0.19591637182E+02  0.00000000000E+00 0.  1.
         21   -1    0    0  504  502 -0.00000000000E+00 -0.00000000000E+00 -0.51918290634E+02  0.51918290634E+02  0.00000000000E+00 0.  1.
         21    1    1    2  503  501  0.14793292381E+02 -0.19165682693E+02  0.71111073513E+01  0.25233563766E+02  0.00000000000E+00 0.  1.
         21    1    1    2  504  503 -0.14793292381E+02  0.19165682693E+02 -0.39437760803E+02  0.46276364050E+02  0.00000000000E+00 0.  1.
</event>
<event>
 4    1  0.3283867E+006  0.2150409E+02  0.7546771E-02  0.1512188E+00
         21   -1    0    0  502  501  0.00000000000E+00  0.00000000000E+00  0.25454086059E+03  0.25454086059E+03  0.00000000000E+00 0.  1.
         21   -1    0    0  503  502 -0.00000000000E+00 -0.00000000000E+00 -0.32006396040E+02  0.32006396040E+02  0.00000000000E+00 0. -1.
         21    1    1    2  503  504  0.66252465117E+01  0.20458058148E+02 -0.27880840406E+02  0.35210329397E+02  0.00000000000E+00 0. -1.
         21    1    1    2  504  501 -0.66252465117E+01 -0.20458058148E+02  0.25041530496E+03  0.25133692723E+03  0.00000000000E+00 0.  1.
</event>
<event>
 4    1  0.3283867E+006  0.2084720E+02  0.7546771E-02  0.1521458E+00
         21   -1    0    0  504  501  0.00000000000E+00  0.00000000000E+00  0.23421649244E+03  0.23421649244E+03  0.00000000000E+00 0.  1.
         21   -1    0    0  503  502 -0.00000000000E+00 -0.00000000000E+00 -0.19015907533E+01  0.19015907533E+01  0.00000000000E+00 0.  1.
         21    1    1    2  503  501 -0.27204662308E+01  0.20668932633E+02  0.97791848371E+02  0.99989256025E+02  0.00000000000E+00 0.  1.
         21    1    1    2  504  502  0.27204662308E+01 -0.20668932633E+02  0.13452305332E+03  0.13612882717E+03  0.00000000000E+00 0.  1.
</event>
<event>
 4    1  0.3283867E+006  0.3265673E+02  0.7546771E-02  0.1397830E+00
         21   -1    0    0  502  501  0.00000000000E+00  0.00000000000E+00  0.27946608291E+01  0.27946608291E+01  0.00000000000E+00 0.  1.
         21   -1    0    0  504  502 -0.00000000000E+00 -0.00000000000E+00 -0.38189896081E+03  0.38189896081E+03  0.00000000000E+00 0.  1.
         21    1    1    2  503  501 -0.59980806772E+01 -0.32101171053E+02 -0.18423391211E+03  0.18710584311E+03  0.00000000000E+00 0.  1.
         21    1    1    2  504  503  0.59980806772E+01  0.32101171053E+02 -0.19487038787E+03  0.19758777853E+03  0.00000000000E+00 0.  1.
</event>
<event>
 4    1  0.3283867E+006  0.2093344E+02  0.7546771E-02  0.1520217E+00
         21   -1    0    0  502  501  0.00000000000E+00  0.00000000000E+00  0.40259735660E+02  0.40259735660E+02  0.00000000000E+00 0.  1.
         21   -1    0    0  503  502 -0.00000000000E+00 -0.00000000000E+00 -0.10942007573E+02  0.10942007573E+02  0.00000000000E+00 0.  1.
         21    1    1    2  503  504 -0.56232773779E+01  0.20164020313E+02  0.12803653402E+02  0.24538592138E+02  0.00000000000E+00 0.  1.
         21    1    1    2  504  501  0.56232773779E+01 -0.20164020313E+02  0.16514074685E+02  0.26663151096E+02  0.00000000000E+00 0.  1.
</event>
<event>
 4    1  0.3283867E+006  0.2261898E+02  0.7546771E-02  0.1497339E+00
         21   -1    0    0  503  501  0.00000000000E+00  0.00000000000E+00  0.10683464275E+01  0.10683464275E+01  0.00000000000E+00 0. -1.
         21   -1    0    0  501  502 -0.00000000000E+00 -0.00000000000E+00 -0.62696432053E+03  0.62696432053E+03  0.00000000000E+00 0. -1.
         21    1    1    2  503  504  0.33300320728E+01 -0.22372506677E+02 -0.16034122049E+03  0.16192876569E+03  0.00000000000E+00 0. -1.
         21    1    1    2  504  502 -0.33300320728E+01  0.22372506677E+02 -0.46555475361E+03  0.46610390127E+03  0.00000000000E+00 0. -1.
</event>
<event>
 4    1  0.3283867E+006  0.2230396E+02  0.7546771E-02  0.1501428E+00
         21   -1    0    0  503  501  0.00000000000E+00  0.00000000000E+00  0.83536584360E+01  0.83536584360E+01  0.00000000000E+00 0. -1.
         21   -1    0    0  504  502 -0.00000000000E+00 -0.00000000000E+00 -0.15382081163E+03  0.15382081163E+03  0.00000000000E+00 0. -1.
         21    1    1    2  503  502 -0.20763680181E+02 -0.81447068883E+01 -0.13621283245E+03  0.13802681765E+03  0.00000000000E+00 0. -1.
         21    1    1    2  504  501  0.20763680181E+02  0.81447068883E+01 -0.92543207409E+01  0.24147652419E+02  0.00000000000E+00 0. -1.
</event>
<event>
 4    1  0.3283867E+006  0.2289531E+02  0.7546771E-02  0.1493817E+00
         21   -1    0    0  503  501  0.00000000000E+00  0.00000000000E+00  0.20377480074E+02  0.20377480074E+02  0.00000000000E+00 0. -1.
         21   -1    0    0  501  502 -0.00000000000E+00 -0.00000000000E+00 -0.92113538569E+02  0.92113538569E+02  0.00000000000E+00 0.  1.
         21    1    1    2  503  504  0.68955760280E+01  0.21832233850E+02  0.11882163193E+02  0.25794984121E+02  0.00000000000E+00 0. -1.
         21    1    1    2  504  502 -0.68955760280E+01 -0.21832233850E+02 -0.83618221688E+02  0.86696034523E+02  0.00000000000E+00 0.  1.
</event>
<event>
 4    1  0.3283867E+006  0.2319406E+02  0.7546771E-02  0.1490076E+00
         21   -1    0    0  504  501  0.00000000000E+00  0.00000000000E+00  0.27453587156E+03  0.27453587156E+03  0.00000000000E+00 0.  1.
         21   -1    0    0  501  502 -0.00000000000E+00 -0.00000000000E+00 -0.50617669178E+01  0.50617669178E+01  0.00000000000E+00 0.  1.
         21    1    1    2  503  502  0.22602732005E+02 -0.52039285905E+01  0.25293766171E+02  0.34318201788E+02  0.00000000000E+00 0.  1.
         21    1    1    2  504  503 -0.22602732005E+02  0.52039285905E+01  0.24418033847E+03  0.24527943668E+03  0.00000000000E+00 0.  1.
</event>
<event>
 4    1  0.3283867E+006  0.2372516E+02  0.7546771E-02  0.1483588E+00
         21   -1    0    0  503  501  0.00000000000E+00  0.00000000000E+00  0.70385961223E+02  0.70385961223E+02  0.00000000000E+00 0. -1.
         21   -1    0    0  504  502 -0.00000000000E+00 -0.00000000000E+00 -0.94541033248E+01  0.94541033248E+01  0.00000000000E+00 0.  1.
         21    1    1    2  503  502 -0.23648826379E+02 -0.19017001899E+01  0.14794404942E+02  0.27959933302E+02  0.00000000000E+00 0.  1.
         21    1    1    2  504  501  0.23648826379E+02  0.19017001899E+01  0.46137452956E+02  0.51880131245E+02  0.00000000000E+00 0. -1.
</event>
<event>
 4    1  0.3283867E+006  0.2590320E+02  0.7546771E-02  0.1458948E+00
         21   -1    0    0  504  501  0.00000000000E+00  0.00000000000E+00  0.56202354533E+01  0.56202354533E+01  0.00000000000E+00 0.  1.
         21   -1    0    0  503  502 -0.00000000000E+00 -0.00000000000E+00 -0.65148075441E+03  0.65148075441E+03  0.00000000000E+00 0. -1.
         21    1    1    2  503  501 -0.24983692224E+02  0.68403960297E+01 -0.61985468893E+03  0.62039568929E+03  0.00000000000E+00 0. -1.
         21    1    1    2  504  502  0.24983692224E+02 -0.68403960297E+01 -0.26005830020E+02  0.36705300571E+02  0.00000000000E+00 0.  1.
</event>
<event>
 4    1  0.3283867E+006  0.3604275E+02  0.7546771E-02  0.1373377E+00
         21   -1    0    0  504  501  0.00000000000E+00  0.00000000000E+00  0.20785506722E+03  0.20785506722E+03  0.00000000000E+00 0. -1.
         21   -1    0    0  503  502 -0.00000000000E+00 -0.00000000000E+00 -0.28429215685E+02  0.28429215685E+02  0.00000000000E+00 0.  1.
         21    1    1    2  503  501 -0.29545161576E+02  0.20643730431E+02  0.19406381412E+03  0.19738248182E+03  0.00000000000E+00 0. -1.
         21    1    1    2  504  502  0.29545161576E+02 -0.20643730431E+02 -0.14637962589E+02  0.38901801081E+02  0.00000000000E+00 0.  1.
</event>
<event>
 4    1  0.3283867E+006  0.2599078E+02  0.7546771E-02  0.1458018E+00
         21   -1    0    0  504  501  0.00000000000E+00  0.00000000000E+00  0.70227739148E+02  0.70227739148E+02  0.00000000000E+00 0.  1.
         21   -1    0    0  503  502 -0.00000000000E+00 -0.00000000000E+00 -0.25457593415E+02  0.25457593415E+02  0.00000000000E+00 0.  1.
         21    1    1    2  503  501 -0.25781385204E+02 -0.32925722992E+01  0.60121863447E+02  0.65499307780E+02  0.00000000000E+00 0.  1.
         21    1    1    2  504  502  0.25781385204E+02  0.32925722992E+01 -0.15351717714E+02  0.30186024782E+02  0.00000000000E+00 0.  1.
</event>
<event>
 4    1  0.3283867E+006  0.2348580E+02  0.7546771E-02  0.1486486E+00
         21   -1    0    0  503  501  0.00000000000E+00  0.00000000000E+00  0.11764931978E+03  0.11764931978E+03  0.00000000000E+00 0.  1.
         21   -1    0    0  504  502 -0.00000000000E+00 -0.00000000000E+00 -0.53725189139E+01  0.53725189139E+01  0.00000000000E+00 0.  1.
         21    1    1    2  503  502 -0.21130340268E+02  0.10251411862E+02  0.78088715833E+02  0.81544038810E+02  0.00000000000E+00 0.  1.
         21    1    1    2  504  501  0.21130340268E+02 -0.10251411862E+02  0.34188085037E+02  0.41477799887E+02  0.00000000000E+00 0.  1.
</event>
<event>
 4    1  0.3283867E+006  0.4482363E+02  0.7546771E-02  0.1322324E+00
         21   -1    0    0  503  501  0.00000000000E+00  0.00000000000E+00  0.84663895746E+02  0.84663895746E+02  0.00000000000E+00 0.  1.
         21   -1    0    0  504  502 -0.00000000000E+00 -0.00000000000E+00 -0.39192773201E+03  0.39192773201E+03  0.00000000000E+00 0.  1.
         21    1    1    2  503  502  0.28426905533E+02  0.34656437889E+02  0.77336919958E+02  0.89387677193E+02  0.00000000000E+00 0.  1.
         21    1    1    2  504  501 -0.28426905533E+02 -0.34656437889E+02 -0.38460075622E+03  0.38720395057E+03  0.00000000000E+00 0.  1.
</event>
<event>
 4    1  0.3283867E+006  0.2258426E+02  0.7546771E-02  0.1497786E+00
         21   -1    0    0  504  501  0.00000000000E+00  0.00000000000E+00  0.29076832537E+03  0.29076832537E+03  0.00000000000E+00 0. -1.
         21   -1    0    0  501  502 -0.00000000000E+00 -0.00000000000E+00 -0.20685930735E+02  0.20685930735E+02  0.00000000000E+00 0.  1.
         21    1    1    2  503  502  0.20683208223E+02  0.90693711487E+01 -0.13936953472E+02  0.26538411171E+02  0.00000000000E+00 0.  1.
         21    1    1    2  504  503 -0.20683208223E+02 -0.90693711487E+01  0.28401934811E+03  0.28491584494E+03  0.00000000000E+00 0. -1.
</event>
<event>
 4    1  0.3283867E+006  0.2869885E+02  0.7546771E-02  0.1431251E+00
         21   -1    0    0  503  501  0.00000000000E+00  0.00000000000E+00  0.47689054617E+00  0.47689054617E+00  0.00000000000E+00 0. -1.
         21   -1    0    0  504  502 -0.00000000000E+00 -0.00000000000E+00 -0.18270724956E+04  0.18270724956E+04  0.00000000000E+00 0. -1.
         21    1    1    2  503  502  0.19712428093E+02 -0.20857715450E+02 -0.11270758947E+04  0.11274412164E+04  0.00000000000E+00 0. -1.
         21    1    1    2  504  501 -0.19712428093E+02  0.20857715450E+02 -0.69951971039E+03  0.70010816974E+03  0.00000000000E+00 0. -1.
</event>
<event>
 4    1  0.3283867E+006  0.2122434E+02  0.7546771E-02  0.1516086E+00
         21   -1    0    0  503  501  0.00000000000E+00  0.00000000000E+00  0.22147952411E+03  0.22147952411E+03  0.00000000000E+00 0. -1.
         21   -1    0    0  504  502 -0.00000000000E+00 -0.00000000000E+00 -0.21285495331E+01  0.21285495331E+01  0.00000000000E+00 0. -1.
         21    1    1    2  503  502  0.14889746280E+02  0.15125080936E+02  0.86102275487E+02  0.88679616945E+02  0.00000000000E+00 0. -1.
         21    1    1    2  504  501 -0.14889746280E+02 -0.15125080936E+02  0.13324869909E+03  0.13492845670E+03  0.00000000000E+00 0. -1.
</event>
<event>
 4    1  0.3283867E+006  0.2196629E+02  0.7546771E-02  0.1505903E+00
         21   -1    0    0  502  501  0.00000000000E+00  0.00000000000E+00  0.38248099550E+03  0.38248099550E+03  0.00000000000E+00 0.  1.
         21   -1    0    0  504  502 -0.00000000000E+00 -0.00000000000E+00 -0.27072119281E+02  0.27072119281E+02  0.00000000000E+00 0. -1.
         21    1    1    2  503  501 -0.21924744377E+02  0.13504043504E+01  0.37765283271E+03  0.37829113135E+03  0.00000000000E+00 0.  1.
         21    1    1    2  504  503  0.21924744377E+02 -0.13504043504E+01 -0.22243956486E+02  0.31261983432E+02  0.00000000000E+00 0. -1.
</event>
<event>
 4    1  0.3283867E+006  0.2780842E+02  0.7546771E-02  0.1439652E+00
         21   -1    0    0  504  501  0.00000000000E+00  0.00000000000E+00  0.52150844219E+01  0.52150844219E+01  0.00000000000E+00 0. -1.
         21   -1    0    0  503  502 -0.00000000000E+00 -0.00000000000E+00 -0.17650170309E+03  0.17650170309E+03  0.00000000000E+00 0. -1.
         21    1    1    2  503  501 -0.17616588380E+02 -0.21516593828E+02 -0.12197283031E+03  0.12510267516E+03  0.00000000000E+00 0. -1.
         21    1    1    2  504  502  0.17616588380E+02  0.21516593828E+02 -0.49313788354E+02  0.56614112357E+02  0.00000000000E+00 0. -1.
</event>
<event>
 4    1  0.3283867E+006  0.2402409E+02  0.7546771E-02  0.1480024E+00
         21   -1    0    0  503  501  0.00000000000E+00  0.00000000000E+00  0.12158030869E+03  0.12158030869E+03  0.00000000000E+00 0. -1.
         21   -1    0    0  504  502 -0.00000000000E+00 -0.00000000000E+00 -0.84419071744E+01  0.84419071744E+01  0.00000000000E+00 0. -1.
         21    1    1    2  503  502 -0.23991704465E+02 -0.12469276999E+01  0.99578444196E+02  0.10243545900E+03  0.00000000000E+00 0. -1.
         21    1    1    2  504  501  0.23991704465E+02  0.12469276999E+01  0.13559957319E+02  0.27586756865E+02  0.00000000000E+00 0. -1.
</event>
<event>
 4    1  0.3283867E+006  0.2648151E+02  0.7546771E-02  0.1452887E+00
         21   -1    0    0  504  501  0.00000000000E+00  0.00000000000E+00  0.93163270528E+01  0.93163270528E+01  0.00000000000E+00 0.  1.
         21   -1    0    0  503  502 -0.00000000000E+00 -0.00000000000E+00 -0.25479653392E+03  0.25479653392E+03  0.00000000000E+00 0. -1.
         21    1    1    2  503  501 -0.22485374806E+02  0.13988503487E+02 -0.11893299436E+02  0.29029655207E+02  0.00000000000E+00 0.  1.
         21    1    1    2  504  502  0.22485374806E+02 -0.13988503487E+02 -0.23358690743E+03  0.23508320576E+03  0.00000000000E+00 0. -1.
</event>
<event>
 4    1  0.3283867E+006  0.2984698E+02  0.7546771E-02  0.1420931E+00
         21   -1    0    0  502  501  0.00000000000E+00  0.00000000000E+00  0.35482100412E+02  0.35482100412E+02  0.00000000000E+00 0.  1.
         21   -1    0    0  503  502 -0.00000000000E+00 -0.00000000000E+00 -0.37301058959E+02  0.37301058959E+02  0.00000000000E+00 0.  1.
         21    1    1    2  503  504  0.18550693947E+02 -0.23381917381E+02 -0.21716882310E+02  0.36911587389E+02  0.00000000000E+00 0.  1.
         21    1    1    2  504  501 -0.18550693947E+02  0.23381917381E+02  0.19897923763E+02  0.35871571982E+02  0.00000000000E+00 0.  1.
</event>
<event>
 4    1  0.3283867E+006  0.2207884E+02  0.7546771E-02  0.1504401E+00
         21   -1    0    0  504  501  0.00000000000E+00  0.00000000000E+00  0.43866374441E+02  0.43866374441E+02  0.00000000000E+00 0. -1.
         21   -1    0    0  501  502 -0.00000000000E+00 -0.00000000000E+00 -0.11119768245E+02  0.11119768245E+02  0.00000000000E+00 0. -1.
         21    1    1    2  503  502  0.18672694873E+02 -0.11781584053E+02  0.15681710520E+02  0.27081198302E+02  0.00000000000E+00 0. -1.
         21    1    1    2  504  503 -0.18672694873E+02  0.11781584053E+02  0.17064895676E+02  0.27904944384E+02  0.00000000000E+00 0. -1.
</event>
<event>
 4    1  0.3283867E+006  0.4255297E+02  0.7546771E-02  0.1334142E+00
         21   -1    0    0  504  501  0.00000000000E+00  0.00000000000E+00  0.11236658137E+03  0.11236658137E+03  0.00000000000E+00 0. -1.
         21   -1    0    0  503  502 -0.00000000000E+00 -0.00000000000E+00 -0.16829012619E+02  0.16829012619E+02  0.00000000000E+00 0. -1.
         21    1    1    2  503  501  0.15843912737E+02  0.39493362845E+02  0.61077262927E+02  0.74439151837E+02  0.00000000000E+00 0. -1.
         21    1    1    2  504  502 -0.15843912737E+02 -0.39493362845E+02  0.34460305822E+02  0.54756442150E+02  0.00000000000E+00 0. -1.
</event>
<event>
 4    1  0.3283867E+006  0.4671926E+02  0.7546771E-02  0.1313060E+00
         21   -1    0    0  503  501  0.00000000000E+00  0.00000000000E+00  0.37219101617E+02  0.37219101617E+02  0.00000000000E+00 0.  1.
         21   -1    0    0  504  502 -0.00000000000E+00 -0.00000000000E+00 -0.10230702660E+03  0.10230702660E+03  0.00000000000E+00 0.  1.
         21    1    1    2  503  502 -0.57078960927E+01 -0.46369269704E+02  0.13031186445E+02  0.48502588290E+02  0.00000000000E+00 0.  1.
         21    1    1    2  504  501  0.57078960927E+01  0.46369269704E+02 -0.78119111431E+02  0.91023539931E+02  0.00000000000E+00 0.  1.
</event>
<event>
 4    1  0.3283867E+006  0.2018769E+02  0.7546771E-02  0.1531186E+00
         21   -1    0    0  504  501  0.00000000000E+00  0.00000000000E+00  0.66788557093E+02  0.66788557093E+02  0.00000000000E+00 0.  1.
         21   -1    0    0  501  502 -0.00000000000E+00 -0.00000000000E+00 -0.61766873553E+01  0.61766873553E+01  0.00000000000E+00 0.  1.
         21    1    1    2  503  502  0.18014974027E+02 -0.91106352912E+01  0.26293878105E+02  0.33149826401E+02  0.00000000000E+00 0.  1.
         21    1    1    2  504  503 -0.18014974027E+02  0.91106352912E+01  0.34317991632E+02  0.39815418047E+02  0.00000000000E+00 0.  1.
</event>
<event>
 4    1  0.3283867E+006  0.3622166E+02  0.7546771E-02  0.1372172E+00
         21   -1    0    0  503  501  0.00000000000E+00  0.00000000000E+00  0.74755607430E+00  0.74755607430E+00  0.00000000000E+00 0. -1.
         21   -1    0    0  504  502 -0.00000000000E+00 -0.00000000000E+00 -0.24889771725E+04  0.24889771725E+04  0.00000000000E+00 0. -1.
         21    1    1    2  503  502  0.21190160144E+02 -0.29376623479E+02 -0.56813586735E+03  0.56928935758E+03  0.00000000000E+00 0. -1.
         21    1    1    2  504  501 -0.21190160144E+02  0.29376623479E+02 -0.19200937491E+04  0.19204353710E+04  0.00000000000E+00 0. -1.
</event>
<event>
 4    1  0.3283867E+006  0.2068024E+02  0.7546771E-02  0.1523880E+00
         21   -1    0    0  504  501  0.00000000000E+00  0.00000000000E+00  0.19867448921E+03  0.19867448921E+03  0.00000000000E+00 0. -1.
         21   -1    0    0  503  502 -0.00000000000E+00 -0.00000000000E+00 -0.27363112710E+01  0.27363112710E+01  0.00000000000E+00 0.  1.
         21    1    1    2  503  501 -0.17918349938E+02  0.10324969032E+02  0.14448040924E+03  0.14595294072E+03  0.00000000000E+00 0. -1.
         21    1    1    2  504  502  0.17918349938E+02 -0.10324969032E+02  0.51457768693E+02  0.55457859757E+02  0.00000000000E+00 0.  1.
</event>
<event>
 4    1  0.3283867E+006  0.2402001E+02  0.7546771E-02  0.1480072E+00
         21   -1    0    0  503  501  0.00000000000E+00  0.00000000000E+00  0.18973342700E+02  0.18973342700E+02  0.00000000000E+00 0. -1.
         21   -1    0    0  504  502 -0.00000000000E+00 -0.00000000000E+00 -0.76087128282E+02  0.76087128282E+02  0.00000000000E+00 0. -1.
         21    1    1    2  503  502  0.13518221559E+02 -0.19854936253E+02  0.82702827403E+01  0.25403904903E+02  0.00000000000E+00 0. -1.
         21    1    1    2  504  501 -0.13518221559E+02  0.19854936253E+02 -0.65384068322E+02  0.69656566080E+02  0.00000000000E+00 0. -1.
</event>
<event>
 4    1  0.3283867E+006  0.2119714E+02  0.7546771E-02  0.1516469E+00
         21   -1    0    0  504  501  0.00000000000E+00  0.00000000000E+00  0.30165299380E+02  0.30165299380E+02  0.00000000000E+00 0.  1.
         21   -1    0    0  503  502 -0.00000000000E+00 -0.00000000000E+00 -0.15154191927E+02  0.15154191927E+02  0.00000000000E+00 0.  1.
         21    1    1    2  503  501  0.15422028859E+02 -0.14542347316E+02  0.45433626675E+01  0.21678583531E+02  0.00000000000E+00 0.  1.
         21    1    1    2  504  502 -0.15422028859E+02  0.14542347316E+02  0.10467744786E+02  0.23640907776E+02  0.00000000000E+00 0.  1.
</event>
<event>
 4    1  0.3283867E+006  0.2018277E+02  0.7546771E-02  0.1531260E+00
         21   -1    0    0  504  501  0.00000000000E+00  0.00000000000E+00  0.13482854303E+02  0.13482854303E+02  0.00000000000E+00 0. -1.
         21   -1    0    0  503  502 -0.00000000000E+00 -0.00000000000E+00 -0.78230437018E+02  0.78230437018E+02  0.00000000000E+00 0.  1.
         21    1    1    2  503  501  0.19284161080E+02 -0.59552881817E+01  0.35529894329E+01  0.20493122256E+02  0.00000000000E+00 0. -1.
         21    1    1    2  504  502 -0.19284161080E+02  0.59552881817E+01 -0.68300572148E+02  0.71220169065E+02  0.00000000000E+00 0.  1.
</event>
<event>
 4    1  0.3283867E+006  0.2259360E+02  0.7546771E-02  0.1497665E+00
         21   -1    0    0  503  501  0.00000000000E+00  0.00000000000E+00  0.14828919547E+03  0.14828919547E+03  0.00000000000E+00 0. -1.
         21   -1    0    0  504  502 -0.00000000000E+00 -0.00000000000E+00 -0.12980420667E+02  0.12980420667E+02  0.00000000000E+00 0. -1.
         21    1    1    2  503  502  0.22081762206E+02  0.47818758242E+01 -0.14661853707E+01  0.22641118746E+02  0.00000000000E+00 0. -1.
         21    1    1    2  504  501 -0.22081762206E+02 -0.47818758242E+01  0.13677496017E+03  0.13862849739E+03  0.00000000000E+00 0. -1.
</event>
<event>
 4    1  0.3283867E+006  0.2826838E+02  0.7546771E-02  0.1435267E+00
         21   -1    0    0  504  501  0.00000000000E+00  0.00000000000E+00  0.91932703961E+03  0.91932703961E+03  0.00000000000E+00 0. -1.
         21   -1    0    0  503  502 -0.00000000000E+00 -0.00000000000E+00 -0.20627754461E+01  0.20627754461E+01  0.00000000000E+00 0. -1.
         21    1    1    2  503  501  0.20773503230E+02  0.19171922586E+02  0.10819669131E+03  0.11182855209E+03  0.00000000000E+00 0. -1.
         21    1    1    2  504  502 -0.20773503230E+02 -0.19171922586E+02  0.80906757285E+03  0.80956126296E+03  0.00000000000E+00 0. -1.
</event>
<event>
 4    1  0.3283867E+006  0.2481559E+02  0.7546771E-02  0.1470877E+00
         21   -1    0    0  503  501  0.00000000000E+00  0.00000000000E+00  0.21420129183E+01  0.21420129183E+01  0.00000000000E+00 0. -1.
         21   -1    0    0  504  502 -0.00000000000E+00 -0.00000000000E+00 -0.33479997969E+03  0.33479997969E+03  0.00000000000E+00 0. -1.
         21    1    1    2  503  502 -0.49231729810E+01 -0.24322328805E+02 -0.22965700495E+03  0.23099383809E+03  0.00000000000E+00 0. -1.
         21    1    1    2  504  501  0.49231729810E+01  0.24322328805E+02 -0.10300096183E+03  0.10594815453E+03  0.00000000000E+00 0. -1.
</event>
<event>
 4    1  0.3283867E+006  0.2083616E+02  0.7546771E-02  0.1521617E+00
         21   -1    0    0  503  501  0.00000000000E+00  0.00000000000E+00  0.15409787629E+03  0.15409787629E+03  0.00000000000E+00 0.  1.
         21   -1    0    0  501  502 -0.00000000000E+00 -0.00000000000E+00 -0.15221552509E+02  0.15221552509E+02  0.00000000000E+00 0. -1.
         21    1    1    2  503  504  0.17102265888E+02  0.11902016932E+02  0.14586255378E+03  0.14734323907E+03  0.00000000000E+00 0.  1.
         21    1    1    2  504  502 -0.17102265888E+02 -0.11902016932E+02 -0.69862299933E+01  0.21976189731E+02  0.00000000000E+00 0. -1.
</event>
<event>
 4    1  0.3283867E+006  0.2230718E+02  0.7546771E-02  0.1501386E+00
         21   -1    0    0  504  501  0.00000000000E+00  0.00000000000E+00  0.35878428657E+03  0.35878428657E+03  0.00000000000E+00 0.  1.
         21   -1    0    0  501  502 -0.00000000000E+00 -0.00000000000E+00 -0.57840158883E+01  0.57840158883E+01  0.00000000000E+00 0. -1.
         21    1    1    2  503  502  0.19204216507E+02 -0.11349384847E+02  0.17566286200E+02  0.28393394987E+02  0.00000000000E+00 0. -1.
         21    1    1    2  504  503 -0.19204216507E+02  0.11349384847E+02  0.33543398449E+03  0.33617490748E+03  0.00000000000E+00 0.  1.
</event>
<event>
 4    1  0.3283867E+006  0.2147793E+02  0.7546771E-02  0.1512549E+00
         21   -1    0    0  503  501  0.00000000000E+00  0.00000000000E+00  0.17191206410E+03  0.17191206410E+03  0.00000000000E+00 0.  1.
         21   -1    0    0  501  502 -0.00000000000E+00 -0.00000000000E+00 -0.80965042215E+01  0.80965042215E+01  0.00000000000E+00 0. -1.
         21    1    1    2  503  504  0.34558736576E+01 -0.21198078618E+02  0.15550125167E+03  0.15697751709E+03  0.00000000000E+00 0.  1.
         21    1    1    2  504  502 -0.34558736576E+01  0.21198078618E+02  0.83143082028E+01  0.23031051229E+02  0.00000000000E+00 0. -1.
</event>
<event>
 4    1  0.3283867E+006  0.3105386E+02  0.7546771E-02  0.1410654E+00
         21   -1    0    0  504  501  0.00000000000E+00  0.00000000000E+00  0.38521406837E+03  0.38521406837E+03  0.00000000000E+00 0. -1.
         21   -1    0    0  503  502 -0.00000000000E+00 -0.00000000000E+00 -0.69462935751E+01  0.69462935751E+01  0.00000000000E+00 0.  1.
         21    1    1    2  503  501 -0.17903006986E+02 -0.25373695262E+02  0.32317860629E+02  0.44819484446E+02  0.00000000000E+00 0.  1.
         21    1    1    2  504  502  0.17903006986E+02  0.25373695262E+02  0.34594991416E+03  0.34734087749E+03  0.00000000000E+00 0. -1.
</event>
<event>
 4    1  0.3283867E+006  0.2588869E+02  0.7546771E-02  0.1459103E+00
         21   -1    0    0  504  501  0.00000000000E+00  0.00000000000E+00  0.21307815288E+03  0.21307815288E+03  0.00000000000E+00 0. -1.
         21   -1    0    0  503  502 -0.00000000000E+00 -0.00000000000E+00 -0.13211930779E+02  0.13211930779E+02  0.00000000000E+00 0.  1.
         21    1    1    2  503  501 -0.25865134707E+02  0.11040278619E+01  0.11707461881E+01  0.25915144560E+02  0.00000000000E+00 0.  1.
         21    1    1    2  504  502  0.25865134707E+02 -0.11040278619E+01  0.19869547591E+03  0.20037493910E+03  0.00000000000E+00 0. -1.
</event>
<event>
 4    1  0.3283867E+006  0.2104268E+02  0.7546771E-02  0.1518656E+00
         21   -1    0    0  504  501  0.00000000000E+00  0.00000000000E+00  0.70659495972E+02  0.70659495972E+02  0.00000000000E+00 0.  1.
         21   -1    0    0  503  502 -0.00000000000E+00 -0.00000000000E+00 -0.51736183856E+02  0.51736183856E+02  0.00000000000E+00 0. -1.
         21    1    1    2  503  501 -0.19960873471E+01  0.20947794944E+02  0.66833579330E+02  0.70067979875E+02  0.00000000000E+00 0.  1.
         21    1    1    2  504  502  0.19960873471E+01 -0.20947794944E+02 -0.47910267215E+02  0.52327699953E+02  0.00000000000E+00 0. -1.
</event>
<event>
 4    1  0.3283867E+006  0.2216028E+02  0.7546771E-02  0.1503321E+00
         21   -1    0    0  503  501  0.00000000000E+00  0.00000000000E+00  0.10338481366E+01  0.10338481366E+01  0.00000000000E+00 0.  1.
         21   -1    0    0  501  502 -0.00000000000E+00 -0.00000000000E+00 -0.51282806248E+03  0.51282806248E+03  0.00000000000E+00 0. -1.
         21    1    1    2  503  504 -0.11733805594E+01  0.22129196785E+02 -0.18611631709E+03  0.18743095171E+03  0.00000000000E+00 0.  1.
         21    1    1    2  504  502  0.11733805594E+01 -0.22129196785E+02 -0.32567789725E+03  0.32643095891E+03  0.00000000000E+00 0. -1.
</event>
<event>
 4    1  0.3283867E+006  0.4397373E+02  0.7546771E-02  0.1326651E+00
         21   -1    0    0  504  501  0.00000000000E+00  0.00000000000E+00  0.21558690409E+02  0.21558690409E+02  0.00000000000E+00 0. -1.
         21   -1    0    0  503  502 -0.00000000000E+00 -0.00000000000E+00 -0.13696946754E+03  0.13696946754E+03  0.00000000000E+00 0. -1.
         21    1    1    2  503  501 -0.43527485950E+02 -0.62487460194E+01 -0.10427275372E+03  0.11316579001E+03  0.00000000000E+00 0. -1.
         21    1    1    2  504  502  0.43527485950E+02  0.62487460194E+01 -0.11138023418E+02  0.45362367946E+02  0.00000000000E+00 0. -1.
</event>
<event>
 4    1  0.3283867E+006  0.2760935E+02  0.7546771E-02  0.1441581E+00
         21   -1    0    0  504  501  0.00000000000E+00  0.00000000000E+00  0.36079090952E+02  0.36079090952E+02  0.00000000000E+00 0. -1.
         21   -1    0    0  503  502 -0.00000000000E+00 -0.00000000000E+00 -0.24355509802E+02  0.24355509802E+02  0.00000000000E+00 0. -1.
         21    1    1    2  503  501  0.19168123252E+02 -0.19871067786E+02 -0.51382924197E+01  0.28083417402E+02  0.00000000000E+00 0. -1.
         21    1    1    2  504  502 -0.19168123252E+02  0.19871067786E+02  0.16861873570E+02  0.32351183352E+02  0.00000000000E+00 0. -1.
</event>
<event>
 4    1  0.3283867E+006  0.3266533E+02  0.7546771E-02  0.1397764E+00
         21   -1    0    0  503  501  0.00000000000E+00  0.00000000000E+00  0.16428552926E+02  0.16428552926E+02  0.00000000000E+00 0.  1.
         21   -1    0    0  504  502 -0.00000000000E+00 -0.00000000000E+00 -0.83024248706E+02  0.83024248706E+02  0.00000000000E+00 0.  1.
         21    1    1    2  503  502  0.29472633106E+02  0.14085019020E+02 -0.56499689835E+02  0.65262844057E+02  0.00000000000E+00 0.  1.
         21    1    1    2  504  501 -0.29472633106E+02 -0.14085019020E+02 -0.10096005945E+02  0.34189957575E+02  0.00000000000E+00 0.  1.
</event>
<event>
 4    1  0.3283867E+006  0.2470040E+02  0.7546771E-02  0.1472183E+00
         21   -1    0    0  503  501  0.00000000000E+00  0.00000000000E+00  0.82168645673E+01  0.82168645673E+01  0.00000000000E+00 0. -1.
         21   -1    0    0  504  502 -0.00000000000E+00 -0.00000000000E+00 -0.51019163545E+03  0.51019163545E+03  0.00000000000E+00 0. -1.
         21    1    1    2  503  502 -0.12581834703E+02 -0.21255762060E+02 -0.49058867620E+03  0.49121009681E+03  0.00000000000E+00 0. -1.
         21    1    1    2  504  501  0.12581834703E+02  0.21255762060E+02 -0.11386094681E+02  0.27198403213E+02  0.00000000000E+00 0. -1.
</event>
<event>
 4    1  0.3283867E+006  0.2194943E+02  0.7546771E-02  0.1506129E+00
         21   -1    0    0  504  501  0.00000000000E+00  0.00000000000E+00  0.16620007268E+02  0.16620007268E+02  0.00000000000E+00 0.  1.
         21   -1    0    0  503  502 -0.00000000000E+00 -0.00000000000E+00 -0.38760708265E+03  0.38760708265E+03  0.00000000000E+00 0.  1.
         21    1    1    2  503  501 -0.21938680323E+02  0.68691105338E+00  0.89154695945E+01  0.23690992786E+02  0.00000000000E+00 0.  1.
         21    1    1    2  504  502  0.21938680323E+02 -0.68691105338E+00 -0.37990254497E+03  0.38053609713E+03  0.00000000000E+00 0.  1.
</event>
<event>
 4    1  0.3283867E+006  0.2452904E+02  0.7546771E-02  0.1474141E+00
         21   -1    0    0  504  501  0.00000000000E+00  0.00000000000E+00  0.69075087755E+01  0.69075087755E+01  0.00000000000E+00 0.  1.
         21   -1    0    0  503  502 -0.00000000000E+00 -0.00000000000E+00 -0.12765690638E+03  0.12765690638E+03  0.00000000000E+00 0.  1.
         21    1    1    2  503  501  0.12119569223E+02 -0.21325807065E+02 -0.22453047783E+02  0.33253772115E+02  0.00000000000E+00 0.  1.
         21    1    1    2  504  502 -0.12119569223E+02  0.21325807065E+02 -0.98296349824E+02  0.10131064304E+03  0.00000000000E+00 0.  1.
</event>
<event>
 4    1  0.3283867E+006  0.2150441E+02  0.7546771E-02  0.1512184E+00
         21   -1    0    0  503  501  0.00000000000E+00  0.00000000000E+00  0.10329601604E+02  0.10329601604E+02  0.00000000000E+00 0. -1.
         21   -1    0    0  501  502 -0.00000000000E+00 -0.00000000000E+00 -0.50365569410E+02  0.50365569410E+02  0.00000000000E+00 0. -1.
         21    1    1    2  503  504 -0.19108571638E+02  0.98641913020E+01 -0.99012265936E+01  0.23674333531E+02  0.00000000000E+00 0. -1.
         21    1    1    2  504  502  0.19108571638E+02 -0.98641913020E+01 -0.30134741213E+02  0.37020837484E+02  0.00000000000E+00 0. -1.
</event>
<event>
 4    1  0.3283867E+006  0.2790428E+02  0.7546771E-02  0.1438730E+00
         21   -1    0    0  502  501  0.00000000000E+00  0.00000000000E+00  0.95229456304E+02  0.95229456304E+02  0.00000000000E+00 0.  1.
         21   -1    0    0  504  502 -0.00000000000E+00 -0.00000000000E+00 -0.13132487124E+02  0.13132487124E+02  0.00000000000E+00 0.  1.
         21    1    1    2  503  501 -0.83666356086E+01  0.26620450290E+02  0.74332517043E+02  0.79397556984E+02  0.00000000000E+00 0.  1.
         21    1    1    2  504  503  0.83666356086E+01 -0.26620450290E+02  0.77644521375E+01  0.28964386444E+02  0.00000000000E+00 0.  1.
</event>
<event>
 4    1  0.3283867E+006  0.2103226E+02  0.7546771E-02  0.1518805E+00
         21   -1    0    0  502  501  0.00000000000E+00  0.00000000000E+00  0.56523995501E+01  0.56523995501E+01  0.00000000000E+00 0.  1.
         21   -1    0    0  504  502 -0.00000000000E+00 -0.00000000000E+00 -0.62494881506E+03  0.62494881506E+03  0.00000000000E+00 0.  1.
         21    1    1    2  503  501 -0.20155221309E+02 -0.60102353004E+01 -0.14749587027E+02  0.25688639354E+02  0.00000000000E+00 0.  1.
         21    1    1    2  504  503  0.20155221309E+02  0.60102353004E+01 -0.60454682848E+03  0.60491257525E+03  0.00000000000E+00 0.  1.
</event>
<event>
 4    1  0.3283867E+006  0.2015404E+02  0.7546771E-02  0.1531694E+00
         21   -1    0    0  503  501  0.00000000000E+00  0.00000000000E+00  0.64451772349E+03  0.64451772349E+03  0.00000000000E+00 0. -1.
         21   -1    0    0  504  502 -0.00000000000E+00 -0.00000000000E+00 -0.17379696691E+03  0.17379696691E+03  0.00000000000E+00 0. -1.
         21    1    1    2  503  502  0.14303510229E+01  0.20103219910E+02 -0.17305445777E+03  0.17422408189E+03  0.00000000000E+00 0. -1.
         21    1    1    2  504  501 -0.14303510229E+01 -0.20103219910E+02  0.64377521435E+03  0.64409060851E+03  0.00000000000E+00 0. -1.
</event>
<event>
 4    1  0.3283867E+006  0.2169660E+02  0.7546771E-02  0.1509547E+00
         21   -1    0    0  504  501  0.00000000000E+00  0.00000000000E+00  0.56316493692E+01  0.56316493692E+01  0.00000000000E+00 0.  1.
         21   -1    0    0  503  502 -0.00000000000E+00 -0.00000000000E+00 -0.13982371540E+03  0.13982371540E+03  0.00000000000E+00 0.  1.
         21    1    1    2  503  501 -0.19462158995E+02 -0.95899398680E+01 -0.20973567781E+02  0.30176698377E+02  0.00000000000E+00 0.  1.
         21    1    1    2  504  502  0.19462158995E+02  0.95899398680E+01 -0.11321849825E+03  0.11527866640E+03  0.00000000000E+00 0.  1.
</event>
<event>
 4    1  0.3283867E+006  0.2075518E+02  0.7546771E-02  0.1522789E+00
         21   -1    0    0  504  501  0.00000000000E+00  0.00000000000E+00  0.80543642399E+01  0.80543642399E+01  0.00000000000E+00 0. -1.
         21   -1    0    0  503  502 -0.00000000000E+00 -0.00000000000E+00 -0.80751937371E+02  0.80751937371E+02  0.00000000000E+00 0. -1.
         21    1    1    2  503  501 -0.17551123894E+02  0.11078609320E+02 -0.62151508137E+02  0.65525472131E+02  0.00000000000E+00 0. -1.
         21    1    1    2  504  502  0.17551123894E+02 -0.11078609320E+02 -0.10546064995E+02  0.23280829480E+02  0.00000000000E+00 0. -1.
</event>
<event>
 4    1  0.3283867E+006  0.2507791E+02  0.7546771E-02  0.1467934E+00
         21   -1    0    0  503  501  0.00000000000E+00  0.00000000000E+00  0.47103458835E+01  0.47103458835E+01  0.00000000000E+00 0.  1.
         21   -1    0    0  504  502 -0.00000000000E+00 -0.00000000000E+00 -0.13397946858E+03  0.13397946858E+03  0.00000000000E+00 0.  1.
         21    1    1    2  503  502 -0.19183023964E+02 -0.16152804527E+02 -0.60551309343E+02  0.65539015599E+02  0.00000000000E+00 0.  1.
         21    1    1    2  504  501  0.19183023964E+02  0.16152804527E+02 -0.68717813355E+02  0.73150798866E+02  0.00000000000E+00 0.  1.
</event>
<event>
 4    1  0.3283867E+006  0.4270518E+02  0.7546771E-02  0.1333323E+00
         21   -1    0    0  502  501  0.00000000000E+00  0.00000000000E+00  0.16704547697E+03  0.16704547697E+03  0.00000000000E+00 0.  1.
         21   -1    0    0  503  502 -0.00000000000E+00 -0.00000000000E+00 -0.12133624126E+03  0.12133624126E+03  0.00000000000E+00 0.  1.
         21    1    1    2  503  504  0.14485953341E+02  0.40173248682E+02 -0.11469636401E+03  0.12238867869E+03  0.00000000000E+00 0.  1.
         21    1    1    2  504  501 -0.14485953341E+02 -0.40173248682E+02  0.16040559972E+03  0.16599303954E+03  0.00000000000E+00 0.  1.
</event>
<event>
 4    1  0.3283867E+006  0.2345895E+02  0.7546771E-02  0.1486814E+00
         21   -1    0    0  503  501  0.00000000000E+00  0.00000000000E+00  0.52846898025E+01  0.52846898025E+01  0.00000000000E+00 0. -1.
         21   -1    0    0  504  502 -0.00000000000E+00 -0.00000000000E+00 -0.11637984781E+03  0.11637984781E+03  0.00000000000E+00 0. -1.
         21    1    1    2  503  502  0.40020674921E+01 -0.23115053165E+02 -0.75279450532E+02  0.78849970827E+02  0.00000000000E+00 0. -1.
         21    1    1    2  504  501 -0.40020674921E+01  0.23115053165E+02 -0.35815707476E+02  0.42814566785E+02  0.00000000000E+00 0. -1.
</event>
<event>
 4    1  0.3283867E+006  0.2610367E+02  0.7546771E-02  0.1456826E+00
         21   -1    0    0  504  501  0.00000000000E+00  0.00000000000E+00  0.24146448562E+03  0.24146448562E+03  0.00000000000E+00 0.  1.
         21   -1    0    0  503  502 -0.00000000000E+00 -0.00000000000E+00 -0.45670481242E+01  0.45670481242E+01  0.00000000000E+00 0.  1.
         21    1    1    2  503  501  0.24628224930E+02  0.86517098934E+01  0.42406903394E+02  0.49797058174E+02  0.00000000000E+00 0.  1.
         21    1    1    2  504  502 -0.24628224930E+02 -0.86517098934E+01  0.19449053411E+03  0.19623447558E+03  0.00000000000E+00 0.  1.
</event>
<event>
 4    1  0.3283867E+006  0.2372253E+02  0.7546771E-02  0.1483619E+00
         21   -1    0    0  502  501  0.00000000000E+00  0.00000000000E+00  0.61385531212E+01  0.61385531212E+01  0.00000000000E+00 0. -1.
         21   -1    0    0  503  502 -0.00000000000E+00 -0.00000000000E+00 -0.20024156041E+03  0.20024156041E+03  0.00000000000E+00 0. -1.
         21    1    1    2  503  504  0.24832012317E+01 -0.23592205393E+02 -0.17303278867E+03  0.17465137961E+03  0.00000000000E+00 0. -1.
         21    1    1    2  504  501 -0.24832012317E+01  0.23592205393E+02 -0.21070218614E+02  0.31728733919E+02  0.00000000000E+00 0. -1.
</event>
<event>
 4    1  0.3283867E+006  0.3377533E+02  0.7546771E-02  0.1389384E+00
         21   -1    0    0  503  501  0.00000000000E+00  0.00000000000E+00  0.20730923700E+03  0.20730923700E+03  0.00000000000E+00 0. -1.
         21   -1    0    0  501  502 -0.00000000000E+00 -0.00000000000E+00 -0.62596412132E+01  0.62596412132E+01  0.00000000000E+00 0. -1.
         21    1    1    2  503  504  0.33371048541E+02  0.52101845700E+01  0.13765670147E+03  0.14173969226E+03  0.00000000000E+00 0. -1.
         21    1    1    2  504  502 -0.33371048541E+02 -0.52101845700E+01  0.63392894318E+02  0.71829185949E+02  0.00000000000E+00 0. -1.
</event>
<event>
 4    1  0.3283867E+006  0.4595698E+02  0.7546771E-02  0.1316722E+00
         21   -1    0    0  504  501  0.00000000000E+00  0.00000000000E+00  0.38764201352E+02  0.38764201352E+02  0.00000000000E+00 0. -1.
         21   -1    0    0  503  502 -0.00000000000E+00 -0.00000000000E+00 -0.11495043838E+03  0.11495043838E+03  0.00000000000E+00 0. -1.
         21    1    1    2  503  501 -0.32187017249E+02 -0.32803046785E+02  0.17649286813E+02  0.49229475751E+02  0.00000000000E+00 0. -1.
         21    1    1    2  504  502  0.32187017249E+02  0.32803046785E+02 -0.93835523845E+02  0.10448516398E+03  0.00000000000E+00 0. -1.
</event>
<event>
 4    1  0.3283867E+006  0.3552057E+02  0.7546771E-02  0.1376940E+00
         21   -1    0    0  502  501  0.00000000000E+00  0.00000000000E+00  0.29938411376E+03  0.29938411376E+03  0.00000000000E+00 0.  1.
         21   -1    0    0  503  502 -0.00000000000E+00 -0.00000000000E+00 -0.52994764578E+01  0.52994764578E+01  0.00000000000E+00 0.  1.
         21    1    1    2  503  504 -0.24978492239E+02  0.25254419926E+02  0.78106989733E+02  0.85804502478E+02  0.00000000000E+00 0.  1.
         21    1    1    2  504  501  0.24978492239E+02 -0.25254419926E+02  0.21597764757E+03  0.21887908774E+03  0.00000000000E+00 0.  1.
</event>
<event>
 4    1  0.3283867E+006  0.4330717E+02  0.7546771E-02  0.1330125E+00
         21   -1    0    0  503  501  0.00000000000E+00  0.00000000000E+00  0.15950678413E+03  0.15950678413E+03  0.00000000000E+00 0.  1.
         21   -1    0    0  504  502 -0.00000000000E+00 -0.00000000000E+00 -0.11758616881E+02  0.11758616881E+02  0.00000000000E+00 0.  1.
         21    1    1    2  503  502  0.41101988719E+02  0.13643207831E+02  0.74391848528E+02  0.86079368748E+02  0.00000000000E+00 0.  1.
         21    1    1    2  504  501 -0.41101988719E+02 -0.13643207831E+02  0.73356318725E+02  0.85186032267E+02  0.00000000000E+00 0.  1.
</event>
<event>
 4    1  0.3283867E+006  0.2199658E+02  0.7546771E-02  0.1505498E+00
         21   -1    0    0  504  501  0.00000000000E+00  0.00000000000E+00  0.30484630390E+02  0.30484630390E+02  0.00000000000E+00 0.  1.
         21   -1    0    0  503  502 -0.00000000000E+00 -0.00000000000E+00 -0.44786546239E+02  0.44786546239E+02  0.00000000000E+00 0. -1.
         21    1    1    2  503  501  0.33283350529E+01 -0.21743314748E+02  0.23089177392E+02  0.31889805003E+02  0.00000000000E+00 0.  1.
         21    1    1    2  504  502 -0.33283350529E+01  0.21743314748E+02 -0.37391093241E+02  0.43381371626E+02  0.00000000000E+00 0. -1.
</event>
<event>
 4    1  0.3283867E+006  0.2249807E+02  0.7546771E-02  0.1498899E+00
         21   -1    0    0  504  501  0.00000000000E+00  0.00000000000E+00  0.21967713699E+02  0.21967713699E+02  0.00000000000E+00 0. -1.
         21   -1    0    0  503  502 -0.00000000000E+00 -0.00000000000E+00 -0.30861824191E+02  0.30861824191E+02  0.00000000000E+00 0.  1.
         21    1    1    2  503  501  0.22041247627E+02  0.45106979118E+01 -0.17744129271E+02  0.28653396242E+02  0.00000000000E+00 0.  1.
         21    1    1    2  504  502 -0.22041247627E+02 -0.45106979118E+01  0.88500187790E+01  0.24176141648E+02  0.00000000000E+00 0. -1.
</event>
<event>
 4    1  0.3283867E+006  0.2901387E+02  0.7546771E-02  0.1428364E+00
         21   -1    0    0  502  501  0.00000000000E+00  0.00000000000E+00  0.12410317536E+03  0.12410317536E+03  0.00000000000E+00 0. -1.
         21   -1    0    0  504  502 -0.00000000000E+00 -0.00000000000E+00 -0.69772522056E+01  0.69772522056E+01  0.00000000000E+00 0. -1.
         21    1    1    2  503  501  0.50666787578E+01  0.28568051615E+02  0.69495771028E+02  0.75309142855E+02  0.00000000000E+00 0. -1.
         21    1    1    2  504  503 -0.50666787578E+01 -0.28568051615E+02  0.47630152127E+02  0.55771284712E+02  0.00000000000E+00 0. -1.
</event>
<event>
 4    1  0.3283867E+006  0.2015798E+02  0.7546771E-02  0.1531634E+00
         21   -1    0    0  504  501  0.00000000000E+00  0.00000000000E+00  0.18630262656E+03  0.18630262656E+03  0.00000000000E+00 0.  1.
         21   -1    0    0  501  502 -0.00000000000E+00 -0.00000000000E+00 -0.53715008488E+01  0.53715008488E+01  0.00000000000E+00 0.  1.
         21    1    1    2  503  502  0.85693513595E+01  0.18245835440E+02  0.16605710648E+02  0.26116927839E+02  0.00000000000E+00 0.  1.
         21    1    1    2  504  503 -0.85693513595E+01 -0.18245835440E+02  0.16432541506E+03  0.16555719957E+03  0.00000000000E+00 0.  1.
</event>
<event>
 4    1  0.3283867E+006  0.4680104E+02  0.7546771E-02  0.1312671E+00
         21   -1    0    0  502  501  0.00000000000E+00  0.00000000000E+00  0.91973159238E+02  0.91973159238E+02  0.00000000000E+00 0.  1.
         21   -1    0    0  504  502 -0.00000000000E+00 -0.00000000000E+00 -0.50211781055E+02  0.50211781055E+02  0.00000000000E+00 0. -1.
         21    1    1    2  503  501  0.46009445423E+02  0.85713393779E+01  0.72426885171E+02  0.86232190176E+02  0.00000000000E+00 0.  1.
         21    1    1    2  504  503 -0.46009445423E+02 -0.85713393779E+01 -0.30665506988E+02  0.55952750118E+02  0.00000000000E+00 0. -1.
</event>
<event>
 4    1  0.3283867E+006  0.2121602E+02  0.7546771E-02  0.1516203E+00
         21   -1    0    0  503  501  0.00000000000E+00  0.00000000000E+00  0.15009925259E+02  0.15009925259E+02  0.00000000000E+00 0.  1.
         21   -1    0    0  504  502 -0.00000000000E+00 -0.00000000000E+00 -0.16015798144E+03  0.16015798144E+03  0.00000000000E+00 0.  1.
         21    1    1    2  503  502 -0.20902966442E+02 -0.36311999887E+01  0.63856651590E+01  0.22156180604E+02  0.00000000000E+00 0.  1.
         21    1    1    2  504  501  0.20902966442E+02  0.36311999887E+01 -0.15153372134E+03  0.15301172610E+03  0.00000000000E+00 0.  1.
</event>
<event>
 4    1  0.3283867E+006  0.3310571E+02  0.7546771E-02  0.1394393E+00
         21   -1    0    0  504  501  0.00000000000E+00  0.00000000000E+00  0.20826284911E+03  0.20826284911E+03  0.00000000000E+00 0.  1.
         21   -1    0    0  501  502 -0.00000000000E+00 -0.00000000000E+00 -0.14823982337E+02  0.14823982337E+02  0.00000000000E+00 0. -1.
         21    1    1    2  503  502 -0.47103663208E+01  0.32768896301E+02  0.71368510699E+01  0.33866248078E+02  0.00000000000E+00 0. -1.
         21    1    1    2  504  503  0.47103663208E+01 -0.32768896301E+02  0.18630201570E+03  0.18922058337E+03  0.00000000000E+00 0.  1.
</event>
<event>
 4    1  0.3283867E+006  0.2238861E+02  0.7546771E-02  0.1500321E+00
         21   -1    0    0  502  501  0.00000000000E+00  0.00000000000E+00  0.19636361217E+01  0.19636361217E+01  0.00000000000E+00 0.  1.
         21   -1    0    0  503  502 -0.00000000000E+00 -0.00000000000E+00 -0.69390983090E+03  0.69390983090E+03  0.00000000000E+00 0. -1.
         21    1    1    2  503  504 -0.43236117977E+01  0.21967162782E+02 -0.62260654776E+03  0.62300895914E+03  0.00000000000E+00 0. -1.
         21    1    1    2  504  501  0.43236117977E+01 -0.21967162782E+02 -0.69339647016E+02  0.72864507876E+02  0.00000000000E+00 0.  1.
</event>
<event>
 4    1  0.3283867E+006  0.3678440E+02  0.7546771E-02  0.1368434E+00
         21   -1    0    0  504  501  0.00000000000E+00  0.00000000000E+00  0.29051719476E+02  0.29051719476E+02  0.00000000000E+00 0. -1.
         21   -1    0    0  503  502 -0.00000000000E+00 -0.00000000000E+00 -0.14733367754E+03  0.14733367754E+03  0.00000000000E+00 0.  1.
         21    1    1    2  503  501  0.23104824959E+02  0.28622702478E+02 -0.13207366999E+03  0.13710049722E+03  0.00000000000E+00 0.  1.
         21    1    1    2  504  502 -0.23104824959E+02 -0.28622702478E+02  0.13791711931E+02  0.39284899790E+02  0.00000000000E+00 0. -1.
</event>
<event>
 4    1  0.3283867E+006  0.3412148E+02  0.7546771E-02  0.1386847E+00
         21   -1    0    0  503  501  0.00000000000E+00  0.00000000000E+00  0.36442262030E+02  0.36442262030E+02  0.00000000000E+00 0.  1.
         21   -1    0    0  504  502 -0.00000000000E+00 -0.00000000000E+00 -0.52015446286E+02  0.52015446286E+02  0.00000000000E+00 0.  1.
         21    1    1    2  503  502 -0.15072663511E+02 -0.30611925922E+02 -0.35257960394E+02  0.49065252115E+02  0.00000000000E+00 0.  1.
         21    1    1    2  504  501  0.15072663511E+02  0.30611925922E+02  0.19684776137E+02  0.39392456201E+02  0.00000000000E+00 0.  1.
</event>
<event>
 4    1  0.3283867E+006  0.2884507E+02  0.7546771E-02  0.1429905E+00
         21   -1    0    0  503  501  0.00000000000E+00  0.00000000000E+00  0.10124649015E+03  0.10124649015E+03  0.00000000000E+00 0.  1.
         21   -1    0    0  501  502 -0.00000000000E+00 -0.00000000000E+00 -0.99026989260E+01  0.99026989260E+01  0.00000000000E+00 0.  1.
         21    1    1    2  503  504  0.25020520405E+02  0.14353099175E+02  0.68594713070E+02  0.74412852105E+02  0.00000000000E+00 0.  1.
         21    1    1    2  504  502 -0.25020520405E+02 -0.14353099175E+02  0.22749078157E+02  0.36736336974E+02  0.00000000000E+00 0.  1.
</event>
<event>
 4    1  0.3283867E+006  0.2268144E+02  0.7546771E-02  0.1496537E+00
         21   -1    0    0  503  501  0.00000000000E+00  0.00000000000E+00  0.30700762642E+03  0.30700762642E+03  0.00000000000E+00 0. -1.
         21   -1    0    0  504  502 -0.00000000000E+00 -0.00000000000E+00 -0.41014008880E+01  0.41014008880E+01  0.00000000000E+00 0.  1.
         21    1    1    2  503  502  0.22109262382E+02  0.50624473554E+01  0.27108213050E+03  0.27202935381E+03  0.00000000000E+00 0. -1.
         21    1    1    2  504  501 -0.22109262382E+02 -0.50624473554E+01  0.31824095030E+02  0.39079673499E+02  0.00000000000E+00 0.  1.
</event>
<event>
 4    1  0.3283867E+006  0.2393376E+02  0.7546771E-02  0.1481094E+00
         21   -1    0    0  503  501  0.00000000000E+00  0.00000000000E+00  0.10002896517E+03  0.10002896517E+03  0.00000000000E+00 0.  1.
         21   -1    0    0  501  502 -0.00000000000E+00 -0.00000000000E+00 -0.46236342237E+02  0.46236342237E+02  0.00000000000E+00 0. -1.
         21    1    1    2  503  504 -0.10821165661E+02  0.21347770448E+02  0.95350399357E+02  0.98308308840E+02  0.00000000000E+00 0.  1.
         21    1    1    2  504  502  0.10821165661E+02 -0.21347770448E+02 -0.41557776429E+02  0.47956998562E+02  0.00000000000E+00 0. -1.
</event>
<event>
 4    1  0.3283867E+006  0.3262402E+02  0.7546771E-02  0.1398083E+00
         21   -1    0    0  503  501  0.00000000000E+00  0.00000000000E+00  0.45522093221E+02  0.45522093221E+02  0.00000000000E+00 0. -1.
         21   -1    0    0  504  502 -0.00000000000E+00 -0.00000000000E+00 -0.27592263375E+02  0.27592263375E+02  0.00000000000E+00 0. -1.
         21    1    1    2  503  502 -0.29511003147E+02 -0.13907823893E+02 -0.53178975990E+01  0.33054604930E+02  0.00000000000E+00 0. -1.
         21    1    1    2  504  501  0.29511003147E+02  0.13907823893E+02  0.23247727445E+02  0.40059751666E+02  0.00000000000E+00 0. -1.
</event>
<event>
 4    1  0.3283867E+006  0.2000711E+02  0.7546771E-02  0.1533927E+00
         21   -1    0    0  502  501  0.00000000000E+00  0.00000000000E+00  0.12371074066E+04  0.12371074066E+04  0.00000000000E+00 0. -1.
         21   -1    0    0  503  502 -0.00000000000E+00 -0.00000000000E+00 -0.10221818784E+01  0.10221818784E+01  0.00000000000E+00 0.  1.
         21    1    1    2  503  504 -0.16395013408E+02 -0.11466825804E+02  0.10625286681E+03  0.10812010111E+03  0.00000000000E+00 0.  1.
         21    1    1    2  504  501  0.16395013408E+02  0.11466825804E+02  0.11298323579E+04  0.11300094873E+04  0.00000000000E+00 0. -1.
</event>
<event>
 4    1  0.3283867E+006  0.3689378E+02  0.7546771E-02  0.1367717E+00
         21   -1    0    0  502  501  0.00000000000E+00  0.00000000000E+00  0.30457337374E+03  0.30457337374E+03  0.00000000000E+00 0. -1.
         21   -1    0    0  503  502 -0.00000000000E+00 -0.00000000000E+00 -0.70834650663E+01  0.70834650663E+01  0.00000000000E+00 0.  1.
         21    1    1    2  503  504 -0.23213993485E+02  0.28675107325E+02  0.54075101861E+02  0.65461957769E+02  0.00000000000E+00 0.  1.
         21    1    1    2  504  501  0.23213993485E+02 -0.28675107325E+02  0.24341480681E+03  0.24619488104E+03  0.00000000000E+00 0. -1.
</event>
<event>
 4    1  0.3283867E+006  0.3619103E+02  0.7546771E-02  0.1372378E+00
         21   -1    0    0  502  501  0.00000000000E+00  0.00000000000E+00  0.79116511352E+02  0.79116511352E+02  0.00000000000E+00 0. -1.
         21   -1    0    0  504  502 -0.00000000000E+00 -0.00000000000E+00 -0.76401650415E+02  0.76401650415E+02  0.00000000000E+00 0. -1.
         21    1    1    2  503  501 -0.32613049274E+02 -0.15690110847E+02  0.70178101986E+02  0.78960474667E+02  0.00000000000E+00 0. -1.
         21    1    1    2  504  503  0.32613049274E+02  0.15690110847E+02 -0.67463241049E+02  0.76557687100E+02  0.00000000000E+00 0. -1.
</event>
<event>
 4    1  0.3283867E+006  0.2046120E+02  0.7546771E-02  0.1527098E+00
         21   -1    0    0  504  501  0.00000000000E+00  0.00000000000E+00  0.95669015350E+03  0.95669015350E+03  0.00000000000E+00 0. -1.
         21   -1    0    0  501  502 -0.00000000000E+00 -0.00000000000E+00 -0.11613315511E+01  0.11613315511E+01  0.00000000000E+00 0. -1.
         21    1    1    2  503  502 -0.11242760033E+02  0.17095640702E+02  0.99692203463E+02  0.10177031009E+03  0.00000000000E+00 0. -1.
         21    1    1    2  504  503  0.11242760033E+02 -0.17095640702E+02  0.85583661848E+03  0.85608117496E+03  0.00000000000E+00 0. -1.
</event>
<event>
 4    1  0.3283867E+006  0.2693028E+02  0.7546771E-02  0.1448310E+00
         21   -1    0    0  502  501  0.00000000000E+00  0.00000000000E+00  0.42510874759E+01  0.42510874759E+01  0.00000000000E+00 0. -1.
         21   -1    0    0  504  502 -0.00000000000E+00 -0.00000000000E+00 -0.38811929435E+03  0.38811929435E+03  0.00000000000E+00 0. -1.
         21    1    1    2  503  501  0.18768583100E+02 -0.19312703374E+02 -0.45064678610E+02  0.52498242651E+02  0.00000000000E+00 0. -1.
         21    1    1    2  504  503 -0.18768583100E+02  0.19312703374E+02 -0.33880352826E+03  0.33987213917E+03  0.00000000000E+00 0. -1.
</event>
<event>
 4    1  0.3283867E+006  0.2680330E+02  0.7546771E-02  0.1449594E+00
         21   -1    0    0  503  501  0.00000000000E+00  0.00000000000E+00  0.14236814906E+04  0.14236814906E+04  0.00000000000E+00 0. -1.
         21   -1    0    0  504  502 -0.00000000000E+00 -0.00000000000E+00 -0.16763528296E+01  0.16763528296E+01  0.00000000000E+00 0. -1.
         21    1    1    2  503  502  0.17029336051E+02 -0.20698270225E+02  0.11516800914E+03  0.11824587522E+03  0.00000000000E+00 0. -1.
         21    1    1    2  504  501 -0.17029336051E+02  0.20698270225E+02  0.13068371286E+04  0.13071119682E+04  0.00000000000E+00 0. -1.
</event>
<event>
 4    1  0.3283867E+006  0.9172580E+02  0.7546771E-02  0.1178973E+00
         21   -1    0    0  504  501  0.00000000000E+00  0.00000000000E+00  0.25119241420E+03  0.25119241420E+03  0.00000000000E+00 0.  1.
         21   -1    0    0  501  502 -0.00000000000E+00 -0.00000000000E+00 -0.60669496660E+02  0.60669496660E+02  0.00000000000E+00 0. -1.
         21    1    1    2  503  502  0.20736472716E+02  0.89351116205E+02 -0.90975675424E+01  0.92175859112E+02  0.00000000000E+00 0. -1.
         21    1    1    2  504  503 -0.20736472716E+02 -0.89351116205E+02  0.19962048508E+03  0.21968605174E+03  0.00000000000E+00 0.  1.
</event>
<event>
 4    1  0.3283867E+006  0.2324566E+02  0.7546771E-02  0.1489436E+00
         21   -1    0    0  503  501  0.00000000000E+00  0.00000000000E+00  0.15672841751E+02  0.15672841751E+02  0.00000000000E+00 0.  1.
         21   -1    0    0  501  502 -0.00000000000E+00 -0.00000000000E+00 -0.34546404827E+02  0.34546404827E+02  0.00000000000E+00 0.  1.
         21    1    1    2  503  504  0.90796415061E+01 -0.21399086211E+02 -0.83155705285E+01  0.24688246065E+02  0.00000000000E+00 0.  1.
         21    1    1    2  504  502 -0.90796415061E+01  0.21399086211E+02 -0.10557992548E+02  0.25531000513E+02  0.00000000000E+00 0.  1.
</event>
<event>
 4    1  0.3283867E+006  0.3291929E+02  0.7546771E-02  0.1395812E+00
         21   -1    0    0  504  501  0.00000000000E+00  0.00000000000E+00  0.21831336002E+02  0.21831336002E+02  0.00000000000E+00 0.  1.
         21   -1    0    0  501  502 -0.00000000000E+00 -0.00000000000E+00 -0.17276078299E+03  0.17276078299E+03  0.00000000000E+00 0. -1.
         21    1    1    2  503  502  0.97809400717E+01  0.31432673446E+02 -0.15760205658E+03  0.16100337881E+03  0.00000000000E+00 0. -1.
         21    1    1    2  504  503 -0.97809400717E+01 -0.31432673446E+02  0.66726095915E+01  0.33588740188E+02  0.00000000000E+00 0.  1.
</event>
<event>
 4    1  0.3283867E+006  0.5540311E+02  0.7546771E-02  0.1276305E+00
         21   -1    0    0  502  501  0.00000000000E+00  0.00000000000E+00  0.18036702007E+02  0.18036702007E+02  0.00000000000E+00 0. -1.
         21   -1    0    0  504  502 -0.00000000000E+00 -0.00000000000E+00 -0.14273528210E+04  0.14273528210E+04  0.00000000000E+00 0.  1.
         21    1    1    2  503  501  0.53544458740E+02 -0.14230074362E+02 -0.26413129641E+02  0.61377174060E+02  0.00000000000E+00 0. -1.
         21    1    1    2  504  503 -0.53544458740E+02  0.14230074362E+02 -0.13829029893E+04  0.13840123489E+04  0.00000000000E+00 0.  1.
</event>
<event>
 4    1  0.3283867E+006  0.2286998E+02  0.7546771E-02  0.1494137E+00
         21   -1    0    0  502  501  0.00000000000E+00  0.00000000000E+00  0.48202064877E+01  0.48202064877E+01  0.00000000000E+00 0.  1.
         21   -1    0    0  503  502 -0.00000000000E+00 -0.00000000000E+00 -0.22334291852E+03  0.22334291852E+03  0.00000000000E+00 0.  1.
         21    1    1    2  503  504 -0.22852361781E+02 -0.89758775930E+00 -0.19106343387E+03  0.19242731580E+03  0.00000000000E+00 0.  1.
         21    1    1    2  504  501  0.22852361781E+02  0.89758775930E+00 -0.27459278165E+02  0.35735809213E+02  0.00000000000E+00 0.  1.
</event>
<event>
 4    1  0.3283867E+006  0.2218385E+02  0.7546771E-02  0.1503009E+00
         21   -1    0    0  503  501  0.00000000000E+00  0.00000000000E+00  0.27424698905E+01  0.27424698905E+01  0.00000000000E+00 0. -1.
         21   -1    0    0  504  502 -0.00000000000E+00 -0.00000000000E+00 -0.25709385516E+03  0.25709385516E+03  0.00000000000E+00 0. -1.
         21    1    1    2  503  502  0.15874455389E+02  0.15495958936E+02 -0.55776883074E+02  0.60026525492E+02  0.00000000000E+00 0. -1.
         21    1    1    2  504  501 -0.15874455389E+02 -0.15495958936E+02 -0.19857450220E+03  0.19980979956E+03  0.00000000000E+00 0. -1.
</event>
<event>
 4    1  0.3283867E+006  0.2773864E+02  0.7546771E-02  0.1440326E+00
         21   -1    0    0  504  501  0.00000000000E+00  0.00000000000E+00  0.10554648359E+03  0.10554648359E+03  0.00000000000E+00 0. -1.
         21   -1    0    0  503  502 -0.00000000000E+00 -0.00000000000E+00 -0.18521653559E+02  0.18521653559E+02  0.00000000000E+00 0. -1.
         21    1    1    2  503  501 -0.27164462685E+02 -0.56146379615E+01  0.91819690432E+02  0.95918130421E+02  0.00000000000E+00 0. -1.
         21    1    1    2  504  502  0.27164462685E+02  0.56146379615E+01 -0.47948604028E+01  0.28150006727E+02  0.00000000000E+00 0. -1.
</event>
<event>
 4    1  0.3283867E+006  0.2963351E+02  0.7546771E-02  0.1422808E+00
         21   -1    0    0  503  501  0.00000000000E+00  0.00000000000E+00  0.49214028916E+02  0.49214028916E+02  0.00000000000E+00 0.  1.
         21   -1    0    0  504  502 -0.00000000000E+00 -0.00000000000E+00 -0.75883243576E+02  0.75883243576E+02  0.00000000000E+00 0.  1.
         21    1    1    2  503  502 -0.18256160422E+02  0.23342182759E+02  0.41368005804E+02  0.50886705470E+02  0.00000000000E+00 0.  1.
         21    1    1    2  504  501  0.18256160422E+02 -0.23342182759E+02 -0.68037220464E+02  0.74210567023E+02  0.00000000000E+00 0.  1.
</event>
<event>
 4    1  0.3283867E+006  0.3100513E+02  0.7546771E-02  0.1411058E+00
         21   -1    0    0  504  501  0.00000000000E+00  0.00000000000E+00  0.67438693154E+01  0.67438693154E+01  0.00000000000E+00 0. -1.
         21   -1    0    0  501  502 -0.00000000000E+00 -0.00000000000E+00 -0.20356240773E+03  0.20356240773E+03  0.00000000000E+00 0. -1.
         21    1    1    2  503  502  0.23933803374E+02  0.19710172224E+02 -0.15597890423E+03  0.15903061466E+03  0.00000000000E+00 0. -1.
         21    1    1    2  504  503 -0.23933803374E+02 -0.19710172224E+02 -0.40839634178E+02  0.51275662383E+02  0.00000000000E+00 0. -1.
</event>
<event>
 4    1  0.3283867E+006  0.2011665E+02  0.7546771E-02  0.1532260E+00
         21   -1    0    0  502  501  0.00000000000E+00  0.00000000000E+00  0.31459815371E+02  0.31459815371E+02  0.00000000000E+00 0. -1.
         21   -1    0    0  504  502 -0.00000000000E+00 -0.00000000000E+00 -0.61764287062E+03  0.61764287062E+03  0.00000000000E+00 0.  1.
         21    1    1    2  503  501  0.20243150555E+01 -0.20014535357E+02  0.28062388831E+02  0.34527918326E+02  0.00000000000E+00 0. -1.
         21    1    1    2  504  503 -0.20243150555E+01  0.20014535357E+02 -0.61424544408E+03  0.61457476766E+03  0.00000000000E+00 0.  1.
</event>
<event>
 4    1  0.3283867E+006  0.2868496E+02  0.7546771E-02  0.1431379E+00
         21   -1    0    0  502  501  0.00000000000E+00  0.00000000000E+00  0.11254216867E+02  0.11254216867E+02  0.00000000000E+00 0. -1.
         21   -1    0    0  503  502 -0.00000000000E+00 -0.00000000000E+00 -0.10776289676E+03  0.10776289676E+03  0.00000000000E+00 0. -1.
         21    1    1    2  503  504 -0.19841989407E+02 -0.20715264474E+02 -0.81998400274E+02  0.86870963926E+02  0.00000000000E+00 0. -1.
         21    1    1    2  504  501  0.19841989407E+02  0.20715264474E+02 -0.14510279614E+02  0.32146149697E+02  0.00000000000E+00 0. -1.
</event>
<event>
 4    1  0.3283867E+006  0.2528315E+02  0.7546771E-02  0.1465661E+00
         21   -1    0    0  502  501  0.00000000000E+00  0.00000000000E+00  0.16611401429E+03  0.16611401429E+03  0.00000000000E+00 0. -1.
         21   -1    0    0  503  502 -0.00000000000E+00 -0.00000000000E+00 -0.55348997199E+01  0.55348997199E+01  0.00000000000E+00 0. -1.
         21    1    1    2  503  504  0.11403641031E+02  0.22565342350E+02  0.32911547556E+02  0.41501899555E+02  0.00000000000E+00 0. -1.
         21    1    1    2  504  501 -0.11403641031E+02 -0.22565342350E+02  0.12766756701E+03  0.13014701445E+03  0.00000000000E+00 0. -1.
</event>
<event>
 4    1  0.3283867E+006  0.2097947E+02  0.7546771E-02  0.1519558E+00
         21   -1    0    0  503  501  0.00000000000E+00  0.00000000000E+00  0.33869362388E+02  0.33869362388E+02  0.00000000000E+00 0.  1.
         21   -1    0    0  504  502 -0.00000000000E+00 -0.00000000000E+00 -0.11519006256E+03  0.11519006256E+03  0.00000000000E+00 0.  1.
         21    1    1    2  503  502 -0.19713149517E+02  0.71784186906E+01  0.29539558187E+02  0.36231525729E+02  0.00000000000E+00 0.  1.
         21    1    1    2  504  501  0.19713149517E+02 -0.71784186906E+01 -0.11086025836E+03  0.11282789922E+03  0.00000000000E+00 0.  1.
</event>
<event>
 4    1  0.3283867E+006  0.2196630E+02  0.7546771E-02  0.1505903E+00
         21   -1    0    0  503  501  0.00000000000E+00  0.00000000000E+00  0.49870264046E+02  0.49870264046E+02  0.00000000000E+00 0. -1.
         21   -1    0    0  504  502 -0.00000000000E+00 -0.00000000000E+00 -0.67256723204E+02  0.67256723204E+02  0.00000000000E+00 0.  1.
         21    1    1    2  503  502 -0.16924768198E+02 -0.14002516403E+02  0.45494341054E+02  0.50519830880E+02  0.00000000000E+00 0. -1.
         21    1    1    2  504  501  0.16924768198E+02  0.14002516403E+02 -0.62880800213E+02  0.66607156369E+02  0.00000000000E+00 0.  1.
</event>
<event>
 4    1  0.3283867E+006  0.2996072E+02  0.7546771E-02  0.1419938E+00
         21   -1    0    0  504  501  0.00000000000E+00  0.00000000000E+00  0.56920935737E+02  0.56920935737E+02  0.00000000000E+00 0.  1.
         21   -1    0    0  503  502 -0.00000000000E+00 -0.00000000000E+00 -0.20497928384E+02  0.20497928384E+02  0.00000000000E+00 0.  1.
         21    1    1    2  503  501 -0.27480373620E+02 -0.11936249952E+02 -0.37919763318E+00  0.29963123803E+02  0.00000000000E+00 0.  1.
         21    1    1    2  504  502  0.27480373620E+02  0.11936249952E+02  0.36802204987E+02  0.47455740318E+02  0.00000000000E+00 0.  1.
</event>
<event>
 4    1  0.3283867E+006  0.3981101E+02  0.7546771E-02  0.1349597E+00
         21   -1    0    0  504  501  0.00000000000E+00  0.00000000000E+00  0.29173589714E+03  0.29173589714E+03  0.00000000000E+00 0.  1.
         21   -1    0    0  503  502 -0.00000000000E+00 -0.00000000000E+00 -0.72805356078E+01  0.72805356078E+01  0.00000000000E+00 0. -1.
         21    1    1    2  503  501 -0.16968540526E+02  0.36013685302E+02  0.66907086721E+02  0.77855476045E+02  0.00000000000E+00 0. -1.
         21    1    1    2  504  502  0.16968540526E+02 -0.36013685302E+02  0.21754827481E+03  0.22116095671E+03  0.00000000000E+00 0.  1.
</event>
<event>
 4    1  0.3283867E+006  0.2877826E+02  0.7546771E-02  0.1430519E+00
         21   -1    0    0  504  501  0.00000000000E+00  0.00000000000E+00  0.89901768800E+02  0.89901768800E+02  0.00000000000E+00 0.  1.
         21   -1    0    0  503  502 -0.00000000000E+00 -0.00000000000E+00 -0.52831002184E+02  0.52831002184E+02  0.00000000000E+00 0.  1.
         21    1    1    2  503  501  0.14104485179E+01 -0.28743674170E+02 -0.46311098108E+02  0.54524361324E+02  0.00000000000E+00 0.  1.
         21    1    1    2  504  502 -0.14104485179E+01  0.28743674170E+02  0.83381864724E+02  0.88208409660E+02  0.00000000000E+00 0.  1.
</event>
<event>
 4    1  0.3283867E+006  0.2802305E+02  0.7546771E-02  0.1437593E+00
         21   -1    0    0  503  501  0.00000000000E+00  0.00000000000E+00  0.17121749248E+03  0.17121749248E+03  0.00000000000E+00 0.  1.
         21   -1    0    0  504  502 -0.00000000000E+00 -0.00000000000E+00 -0.45878485855E+01  0.45878485855E+01  0.00000000000E+00 0.  1.
         21    1    1    2  503  502  0.90319591243E+01 -0.26527623670E+02  0.81814523831E+02  0.86480676529E+02  0.00000000000E+00 0.  1.
         21    1    1    2  504  501 -0.90319591243E+01  0.26527623670E+02  0.84815120069E+02  0.89324664542E+02  0.00000000000E+00 0.  1.
</event>
<event>
 4    1  0.3283867E+006  0.2419161E+02  0.7546771E-02  0.1478054E+00
         21   -1    0    0  503  501  0.00000000000E+00  0.00000000000E+00  0.96744827357E+01  0.96744827357E+01  0.00000000000E+00 0. -1.
         21   -1    0    0  504  502 -0.00000000000E+00 -0.00000000000E+00 -0.61330265575E+02  0.61330265575E+02  0.00000000000E+00 0. -1.
         21    1    1    2  503  502 -0.51351035454E+01  0.23640316651E+02 -0.21678584826E+02  0.32483763634E+02  0.00000000000E+00 0. -1.
         21    1    1    2  504  501  0.51351035454E+01 -0.23640316651E+02 -0.29977198014E+02  0.38520984677E+02  0.00000000000E+00 0. -1.
</event>
<event>
 4    1  0.3283867E+006  0.2247911E+02  0.7546771E-02  0.1499145E+00
         21   -1    0    0  504  501  0.00000000000E+00  0.00000000000E+00  0.64125357322E+02  0.64125357322E+02  0.00000000000E+00 0. -1.
         21   -1    0    0  503  502 -0.00000000000E+00 -0.00000000000E+00 -0.56357580506E+02  0.56357580506E+02  0.00000000000E+00 0.  1.
         21    1    1    2  503  501 -0.22455705919E+02  0.10254469351E+01 -0.51987527786E+02  0.56639326576E+02  0.00000000000E+00 0.  1.
         21    1    1    2  504  502  0.22455705919E+02 -0.10254469351E+01  0.59755304601E+02  0.63843611252E+02  0.00000000000E+00 0. -1.
</event>
<event>
 4    1  0.3283867E+006  0.2138990E+02  0.7546771E-02  0.1513770E+00
         21   -1    0    0  504  501  0.00000000000E+00  0.00000000000E+00  0.50742532874E+01  0.50742532874E+01  0.00000000000E+00 0. -1.
         21   -1    0    0  503  502 -0.00000000000E+00 -0.00000000000E+00 -0.43253105793E+03  0.43253105793E+03  0.00000000000E+00 0. -1.
         21    1    1    2  503  501  0.13309912673E+02 -0.16744375282E+02 -0.40839359873E+03  0.40895337064E+03  0.00000000000E+00 0. -1.
         21    1    1    2  504  502 -0.13309912673E+02  0.16744375282E+02 -0.19063205918E+02  0.28651940576E+02  0.00000000000E+00 0. -1.
</event>
<event>
 4    1  0.3283867E+006  0.4765483E+02  0.7546771E-02  0.1308674E+00
         21   -1    0    0  502  501  0.00000000000E+00  0.00000000000E+00  0.21568229885E+02  0.21568229885E+02  0.00000000000E+00 0. -1.
         21   -1    0    0  504  502 -0.00000000000E+00 -0.00000000000E+00 -0.10046397866E+04  0.10046397866E+04  0.00000000000E+00 0.  1.
         21    1    1    2  503  501  0.25321263722E+02  0.40370979651E+02 -0.60641793136E+01  0.48039115992E+02  0.00000000000E+00 0. -1.
         21    1    1    2  504  503 -0.25321263722E+02 -0.40370979651E+02 -0.97700737742E+03  0.97816890051E+03  0.00000000000E+00 0.  1.
</event>
<event>
 4    1  0.3283867E+006  0.2023213E+02  0.7546771E-02  0.1530516E+00
         21   -1    0    0  503  501  0.00000000000E+00  0.00000000000E+00  0.22672467241E+03  0.22672467241E+03  0.00000000000E+00 0. -1.
         21   -1    0    0  504  502 -0.00000000000E+00 -0.00000000000E+00 -0.23337829529E+01  0.23337829529E+01  0.00000000000E+00 0.  1.
         21    1    1    2  503  502 -0.14391109417E+02  0.14220934890E+02  0.16668858505E+03  0.16791195135E+03  0.00000000000E+00 0. -1.
         21    1    1    2  504  501  0.14391109417E+02 -0.14220934890E+02  0.57702304406E+02  0.61146504014E+02  0.00000000000E+00 0.  1.
</event>
<event>
 4    1  0.3283867E+006  0.2414313E+02  0.7546771E-02  0.1478622E+00
         21   -1    0    0  503  501  0.00000000000E+00  0.00000000000E+00  0.16146389374E+04  0.16146389374E+04  0.00000000000E+00 0.  1.
         21   -1    0    0  504  502 -0.00000000000E+00 -0.00000000000E+00 -0.13551043397E+02  0.13551043397E+02  0.00000000000E+00 0. -1.
         21    1    1    2  503  502  0.23883471297E+02  0.35313884476E+01 -0.26339764531E+01  0.24286389964E+02  0.00000000000E+00 0. -1.
         21    1    1    2  504  501 -0.23883471297E+02 -0.35313884476E+01  0.16037218704E+04  0.16039035908E+04  0.00000000000E+00 0.  1.
</event>
<event>
 4    1  0.3283867E+006  0.2632780E+02  0.7546771E-02  0.1454480E+00
         21   -1    0    0  502  501  0.00000000000E+00  0.00000000000E+00  0.38181036826E+01  0.38181036826E+01  0.00000000000E+00 0. -1.
         21   -1    0    0  504  502 -0.00000000000E+00 -0.00000000000E+00 -0.43689493800E+03  0.43689493800E+03  0.00000000000E+00 0. -1.
         21    1    1    2  503  501 -0.24750354831E+02 -0.89762470050E+01 -0.48074733041E+02  0.54811796463E+02  0.00000000000E+00 0. -1.
         21    1    1    2  504  503  0.24750354831E+02  0.89762470050E+01 -0.38500210127E+03  0.38590124522E+03  0.00000000000E+00 0. -1.
</event>
<event>
 4    1  0.3283867E+006  0.3435456E+02  0.7546771E-02  0.1385158E+00
         21   -1    0    0  504  501  0.00000000000E+00  0.00000000000E+00  0.28958317782E+03  0.28958317782E+03  0.00000000000E+00 0.  1.
         21   -1    0    0  501  502 -0.00000000000E+00 -0.00000000000E+00 -0.49746010580E+01  0.49746010580E+01  0.00000000000E+00 0. -1.
         21    1    1    2  503  502  0.36546819694E+01  0.34159614136E+02  0.79695901277E+02  0.86785209676E+02  0.00000000000E+00 0. -1.
         21    1    1    2  504  503 -0.36546819694E+01 -0.34159614136E+02  0.20491267549E+03  0.20777256920E+03  0.00000000000E+00 0.  1.
</event>
<event>
 4    1  0.3283867E+006  0.2866776E+02  0.7546771E-02  0.1431538E+00
         21   -1    0    0  502  501  0.00000000000E+00  0.00000000000E+00  0.79594487681E+03  0.79594487681E+03  0.00000000000E+00 0. -1.
         21   -1    0    0  503  502 -0.00000000000E+00 -0.00000000000E+00 -0.30438694380E+01  0.30438694380E+01  0.00000000000E+00 0. -1.
         21    1    1    2  503  504  0.25008103112E+02 -0.14015531813E+02  0.71707441582E+02  0.77225627427E+02  0.00000000000E+00 0. -1.
         21    1    1    2  504  501 -0.25008103112E+02  0.14015531813E+02  0.72119356579E+03  0.72176311882E+03  0.00000000000E+00 0. -1.
</event>
<event>
 4    1  0.3283867E+006  0.2413019E+02  0.7546771E-02  0.1478774E+00
         21   -1    0    0  502  501  0.00000000000E+00  0.00000000000E+00  0.33188922985E+01  0.33188922985E+01  0.00000000000E+00 0. -1.
         21   -1    0    0  503  502 -0.00000000000E+00 -0.00000000000E+00 -0.58895435562E+03  0.58895435562E+03  0.00000000000E+00 0. -1.
         21    1    1    2  503  504  0.23696973490E+02 -0.45518606385E+01 -0.54095767177E+03  0.54149558506E+03  0.00000000000E+00 0. -1.
         21    1    1    2  504  501 -0.23696973490E+02  0.45518606385E+01 -0.44677791545E+02  0.50777662857E+02  0.00000000000E+00 0. -1.
</event>
<event>
 4    1  0.3283867E+006  0.2941375E+02  0.7546771E-02  0.1424760E+00
         21   -1    0    0  504  501  0.00000000000E+00  0.00000000000E+00  0.10492149632E+03  0.10492149632E+03  0.00000000000E+00 0. -1.
         21   -1    0    0  503  502 -0.00000000000E+00 -0.00000000000E+00 -0.37044582777E+02  0.37044582777E+02  0.00000000000E+00 0.  1.
         21    1    1    2  503  501 -0.28064609211E+02 -0.88060475725E+01 -0.28647773670E+02  0.41059270577E+02  0.00000000000E+00 0.  1.
         21    1    1    2  504  502  0.28064609211E+02  0.88060475725E+01  0.96524687212E+02  0.10090680852E+03  0.00000000000E+00 0. -1.
</event>
<event>
 4    1  0.3283867E+006  0.3192246E+02  0.7546771E-02  0.1403594E+00
         21   -1    0    0  504  501  0.00000000000E+00  0.00000000000E+00  0.42738060982E+02  0.42738060982E+02  0.00000000000E+00 0. -1.
         21   -1    0    0  503  502 -0.00000000000E+00 -0.00000000000E+00 -0.30715388032E+03  0.30715388032E+03  0.00000000000E+00 0. -1.
         21    1    1    2  503  501  0.27731947476E+02  0.15810837889E+02  0.35810493184E+02  0.47973273056E+02  0.00000000000E+00 0. -1.
         21    1    1    2  504  502 -0.27731947476E+02 -0.15810837889E+02 -0.30022631253E+03  0.30191866825E+03  0.00000000000E+00 0. -1.
</event>
<event>
 4    1  0.3283867E+006  0.2391328E+02  0.7546771E-02  0.1481338E+00
         21   -1    0    0  503  501  0.00000000000E+00  0.00000000000E+00  0.10753648162E+03  0.10753648162E+03  0.00000000000E+00 0. -1.
         21   -1    0    0  504  502 -0.00000000000E+00 -0.00000000000E+00 -0.81664746525E+02  0.81664746525E+02  0.00000000000E+00 0. -1.
         21    1    1    2  503  502  0.11381831458E+02  0.21030899989E+02 -0.78532897861E+02  0.82093001457E+02  0.00000000000E+00 0. -1.
         21    1    1    2  504  501 -0.11381831458E+02 -0.21030899989E+02  0.10440463296E+03  0.10710822669E+03  0.00000000000E+00 0. -1.
</event>
<event>
 4    1  0.3283867E+006  0.2596922E+02  0.7546771E-02  0.1458247E+00
         21   -1    0    0  502  501  0.00000000000E+00  0.00000000000E+00  0.29039378694E+01  0.29039378694E+01  0.00000000000E+00 0. -1.
         21   -1    0    0  504  502 -0.00000000000E+00 -0.00000000000E+00 -0.25461221286E+03  0.25461221286E+03  0.00000000000E+00 0.  1.
         21    1    1    2  503  501  0.25866220318E+02  0.23106245743E+01 -0.87684029145E+02  0.91448834364E+02  0.00000000000E+00 0. -1.
         21    1    1    2  504  503 -0.25866220318E+02 -0.23106245743E+01 -0.16402424585E+03  0.16606731637E+03  0.00000000000E+00 0.  1.
</event>
<event>
 4    1  0.3283867E+006  0.2533634E+02  0.7546771E-02  0.1465076E+00
         21   -1    0    0  502  501  0.00000000000E+00  0.00000000000E+00  0.50607957920E+02  0.50607957920E+02  0.00000000000E+00 0. -1.
         21   -1    0    0  503  502 -0.00000000000E+00 -0.00000000000E+00 -0.15956993166E+02  0.15956993166E+02  0.00000000000E+00 0. -1.
         21    1    1    2  503  504  0.21142829891E+02  0.13961041453E+02  0.22528793448E+01  0.25436300824E+02  0.00000000000E+00 0. -1.
         21    1    1    2  504  501 -0.21142829891E+02 -0.13961041453E+02  0.32398085409E+02  0.41128650263E+02  0.00000000000E+00 0. -1.
</event>
<event>
 4    1  0.3283867E+006  0.2983674E+02  0.7546771E-02  0.1421021E+00
         21   -1    0    0  503  501  0.00000000000E+00  0.00000000000E+00  0.15030062833E+03  0.15030062833E+03  0.00000000000E+00 0. -1.
         21   -1    0    0  501  502 -0.00000000000E+00 -0.00000000000E+00 -0.20419917368E+03  0.20419917368E+03  0.00000000000E+00 0.  1.
         21    1    1    2  503  504  0.23367111841E+02  0.18552873447E+02  0.14771105590E+03  0.15069434981E+03  0.00000000000E+00 0. -1.
         21    1    1    2  504  502 -0.23367111841E+02 -0.18552873447E+02 -0.20160960126E+03  0.20380545220E+03  0.00000000000E+00 0.  1.
</event>
<event>
 4    1  0.3283867E+006  0.2288076E+02  0.7546771E-02  0.1494001E+00
         21   -1    0    0  504  501  0.00000000000E+00  0.00000000000E+00  0.57394577565E+03  0.57394577565E+03  0.00000000000E+00 0. -1.
         21   -1    0    0  501  502 -0.00000000000E+00 -0.00000000000E+00 -0.91665156450E+00  0.91665156450E+00  0.00000000000E+00 0. -1.
         21    1    1    2  503  502  0.16106197175E+01 -0.22824003719E+02  0.26639000330E+03  0.26737083442E+03  0.00000000000E+00 0. -1.
         21    1    1    2  504  503 -0.16106197175E+01  0.22824003719E+02  0.30663912079E+03  0.30749159280E+03  0.00000000000E+00 0. -1.
</event>
<event>
 4    1  0.3283867E+006  0.6728033E+02  0.7546771E-02  0.1236919E+00
         21   -1    0    0  502  501  0.00000000000E+00  0.00000000000E+00  0.37084522865E+02  0.37084522865E+02  0.00000000000E+00 0.  1.
         21   -1    0    0  504  502 -0.00000000000E+00 -0.00000000000E+00 -0.34862857931E+03  0.34862857931E+03  0.00000000000E+00 0.  1.
         21    1    1    2  503  501  0.65057999814E+02  0.17149314954E+02 -0.30080432818E+00  0.67280999001E+02  0.00000000000E+00 0.  1.
         21    1    1    2  504  503 -0.65057999814E+02 -0.17149314954E+02 -0.31124325211E+03  0.31843210317E+03  0.00000000000E+00 0.  1.
</event>
<event>
 4    1  0.3283867E+006  0.2097723E+02  0.7546771E-02  0.1519590E+00
         21   -1    0    0  503  501  0.00000000000E+00  0.00000000000E+00  0.91242688636E+02  0.91242688636E+02  0.00000000000E+00 0. -1.
         21   -1    0    0  501  502 -0.00000000000E+00 -0.00000000000E+00 -0.37134344182E+03  0.37134344182E+03  0.00000000000E+00 0. -1.
         21    1    1    2  503  504  0.22168385772E+01 -0.20859768660E+02  0.89735831037E+02  0.92155106715E+02  0.00000000000E+00 0. -1.
         21    1    1    2  504  502 -0.22168385772E+01  0.20859768660E+02 -0.36983658422E+03  0.37043102374E+03  0.00000000000E+00 0. -1.
</event>
<event>
 4    1  0.3283867E+006  0.2746652E+02  0.7546771E-02  0.1442977E+00
         21   -1    0    0  503  501  0.00000000000E+00  0.00000000000E+00  0.74769165165E+02  0.74769165165E+02  0.00000000000E+00 0.  1.
         21   -1    0    0  504  502 -0.00000000000E+00 -0.00000000000E+00 -0.25070017618E+02  0.25070017618E+02  0.00000000000E+00 0.  1.
         21    1    1    2  503  502 -0.15481951576E+02 -0.22687422568E+02 -0.13738400412E+02  0.30710806132E+02  0.00000000000E+00 0.  1.
         21    1    1    2  504  501  0.15481951576E+02  0.22687422568E+02  0.63437547959E+02  0.69128376651E+02  0.00000000000E+00 0.  1.
</event>
<event>
 4    1  0.3283867E+006  0.2921059E+02  0.7546771E-02  0.1426583E+00
         21   -1    0    0  502  501  0.00000000000E+00  0.00000000000E+00  0.68481596138E+02  0.68481596138E+02  0.00000000000E+00 0. -1.
         21   -1    0    0  504  502 -0.00000000000E+00 -0.00000000000E+00 -0.14447494097E+02  0.14447494097E+02  0.00000000000E+00 0. -1.
         21    1    1    2  503  501 -0.58416884392E+01  0.28620504909E+02  0.42397491124E+02  0.51485977496E+02  0.00000000000E+00 0. -1.
         21    1    1    2  504  503  0.58416884392E+01 -0.28620504909E+02  0.11636610917E+02  0.31443112738E+02  0.00000000000E+00 0. -1.
</event>
<event>
 4    1  0.3283867E+006  0.2117959E+02  0.7546771E-02  0.1516716E+00
         21   -1    0    0  503  501  0.00000000000E+00  0.00000000000E+00  0.12038965327E+03  0.12038965327E+03  0.00000000000E+00 0. -1.
         21   -1    0    0  504  502 -0.00000000000E+00 -0.00000000000E+00 -0.40460040491E+02  0.40460040491E+02  0.00000000000E+00 0. -1.
         21    1    1    2  503  502  0.20401679604E+02  0.56873971626E+01 -0.36667391329E+02  0.42344688027E+02  0.00000000000E+00 0. -1.
         21    1    1    2  504  501 -0.20401679604E+02 -0.56873971626E+01  0.11659700411E+03  0.11850500574E+03  0.00000000000E+00 0. -1.
</event>
<event>
 4    1  0.3283867E+006  0.2858868E+02  0.7546771E-02  0.1432271E+00
         21   -1    0    0  502  501  0.00000000000E+00  0.00000000000E+00  0.12084979698E+04  0.12084979698E+04  0.00000000000E+00 0.  1.
         21   -1    0    0  504  502 -0.00000000000E+00 -0.00000000000E+00 -0.18206808592E+01  0.18206808592E+01  0.00000000000E+00 0. -1.
         21    1    1    2  503  501  0.21965344348E+02  0.18298526261E+02  0.10831132829E+04  0.10834905150E+04  0.00000000000E+00 0.  1.
         21    1    1    2  504  503 -0.21965344348E+02 -0.18298526261E+02  0.12356400600E+03  0.12682813566E+03  0.00000000000E+00 0. -1.
</event>
<event>
 4    1  0.3283867E+006  0.2148345E+02  0.7546771E-02  0.1512473E+00
         21   -1    0    0  504  501  0.00000000000E+00  0.00000000000E+00  0.27336433114E+03  0.27336433114E+03  0.00000000000E+00 0.  1.
         21   -1    0    0  503  502 -0.00000000000E+00 -0.00000000000E+00 -0.22167265656E+02  0.22167265656E+02  0.00000000000E+00 0.  1.
         21    1    1    2  503  501  0.21386567224E+02  0.20380150538E+01 -0.16428554867E+02  0.27045076779E+02  0.00000000000E+00 0.  1.
         21    1    1    2  504  502 -0.21386567224E+02 -0.20380150538E+01  0.26762562035E+03  0.26848652002E+03  0.00000000000E+00 0.  1.
</event>
<event>
 4    1  0.3283867E+006  0.3316982E+02  0.7546771E-02  0.1393907E+00
         21   -1    0    0  502  501  0.00000000000E+00  0.00000000000E+00  0.10761352750E+03  0.10761352750E+03  0.00000000000E+00 0.  1.
         21   -1    0    0  503  502 -0.00000000000E+00 -0.00000000000E+00 -0.16083228804E+02  0.16083228804E+02  0.00000000000E+00 0. -1.
         21    1    1    2  503  504 -0.33141527292E+02 -0.13697773726E+01  0.84347050782E+01  0.34225449172E+02  0.00000000000E+00 0. -1.
         21    1    1    2  504  501  0.33141527292E+02  0.13697773726E+01  0.83095593619E+02  0.89471307133E+02  0.00000000000E+00 0.  1.
</event>
<event>
 4    1  0.3283867E+006  0.2075500E+02  0.7546771E-02  0.1522792E+00
         21   -1    0    0  504  501  0.00000000000E+00  0.00000000000E+00  0.61548181773E+02  0.61548181773E+02  0.00000000000E+00 0.  1.
         21   -1    0    0  501  502 -0.00000000000E+00 -0.00000000000E+00 -0.12534829764E+02  0.12534829764E+02  0.00000000000E+00 0.  1.
         21    1    1    2  503  502  0.20752688245E+02  0.30955209787E+00 -0.10972131038E+00  0.20755286812E+02  0.00000000000E+00 0.  1.
         21    1    1    2  504  503 -0.20752688245E+02 -0.30955209787E+00  0.49123073320E+02  0.53327724725E+02  0.00000000000E+00 0.  1.
</event>
<event>
 4    1  0.3283867E+006  0.2362246E+02  0.7546771E-02  0.1484826E+00
         21   -1    0    0  504  501  0.00000000000E+00  0.00000000000E+00  0.92016117525E+01  0.92016117525E+01  0.00000000000E+00 0. -1.
         21   -1    0    0  501  502 -0.00000000000E+00 -0.00000000000E+00 -0.60798128272E+02  0.60798128272E+02  0.00000000000E+00 0. -1.
         21    1    1    2  503  502 -0.19414603244E+02 -0.13457109709E+02 -0.24034834835E+02  0.33700057959E+02  0.00000000000E+00 0. -1.
         21    1    1    2  504  503  0.19414603244E+02  0.13457109709E+02 -0.27561681684E+02  0.36299682066E+02  0.00000000000E+00 0. -1.
</event>
<event>
 4    1  0.3283867E+006  0.2488880E+02  0.7546771E-02  0.1470051E+00
         21   -1    0    0  503  501  0.00000000000E+00  0.00000000000E+00  0.16885535191E+02  0.16885535191E+02  0.00000000000E+00 0. -1.
         21   -1    0    0  504  502 -0.00000000000E+00 -0.00000000000E+00 -0.37227761527E+02  0.37227761527E+02  0.00000000000E+00 0. -1.
         21    1    1    2  503  502  0.47292795627E+00 -0.24884305617E+02 -0.13436929450E+02  0.28284331350E+02  0.00000000000E+00 0. -1.
         21    1    1    2  504  501 -0.47292795627E+00  0.24884305617E+02 -0.69052968850E+01  0.25828965368E+02  0.00000000000E+00 0. -1.
</event>
<event>
 4    1  0.3283867E+006  0.2726975E+02  0.7546771E-02  0.1444917E+00
         21   -1    0    0  504  501  0.00000000000E+00  0.00000000000E+00  0.55942957442E+03  0.55942957442E+03  0.00000000000E+00 0.  1.
         21   -1    0    0  501  502 -0.00000000000E+00 -0.00000000000E+00 -0.19208094398E+01  0.19208094398E+01  0.00000000000E+00 0. -1.
         21    1    1    2  503  502 -0.81796550880E+01 -0.26014083954E+02  0.12299667016E+03  0.12598341237E+03  0.00000000000E+00 0. -1.
         21    1    1    2  504  503  0.81796550880E+01  0.26014083954E+02  0.43451209483E+03  0.43536697150E+03  0.00000000000E+00 0.  1.
</event>
<event>
 4    1  0.3283867E+006  0.2479368E+02  0.7546771E-02  0.1471125E+00
         21   -1    0    0  504  501  0.00000000000E+00  0.00000000000E+00  0.18129807462E+02  0.18129807462E+02  0.00000000000E+00 0.  1.
         21   -1    0    0  503  502 -0.00000000000E+00 -0.00000000000E+00 -0.73854183094E+02  0.73854183094E+02  0.00000000000E+00 0.  1.
         21    1    1    2  503  501  0.23574493864E+02 -0.76791727815E+01 -0.61687207610E+02  0.66483366628E+02  0.00000000000E+00 0.  1.
         21    1    1    2  504  502 -0.23574493864E+02  0.76791727815E+01  0.59628319773E+01  0.25500623928E+02  0.00000000000E+00 0.  1.
</event>
<event>
 4    1  0.3283867E+006  0.2828044E+02  0.7546771E-02  0.1435153E+00
         21   -1    0    0  503  501  0.00000000000E+00  0.00000000000E+00  0.11073204738E+02  0.11073204738E+02  0.00000000000E+00 0.  1.
         21   -1    0    0  504  502 -0.00000000000E+00 -0.00000000000E+00 -0.31197115498E+03  0.31197115498E+03  0.00000000000E+00 0. -1.
         21    1    1    2  503  502  0.26607980291E+02  0.95811763588E+01 -0.88536137268E+01  0.29633933785E+02  0.00000000000E+00 0.  1.
         21    1    1    2  504  501 -0.26607980291E+02 -0.95811763588E+01 -0.29204433651E+03  0.29341042593E+03  0.00000000000E+00 0. -1.
</event>
<event>
 4    1  0.3283867E+006  0.2175069E+02  0.7546771E-02  0.1508811E+00
         21   -1    0    0  503  501  0.00000000000E+00  0.00000000000E+00  0.90569817600E+02  0.90569817600E+02  0.00000000000E+00 0.  1.
         21   -1    0    0  501  502 -0.00000000000E+00 -0.00000000000E+00 -0.17303877166E+02  0.17303877166E+02  0.00000000000E+00 0. -1.
         21    1    1    2  503  504  0.12359875213E+02  0.17897653803E+02  0.81699475131E+02  0.84545235014E+02  0.00000000000E+00 0.  1.
         21    1    1    2  504  502 -0.12359875213E+02 -0.17897653803E+02 -0.84335346964E+01  0.23328459752E+02  0.00000000000E+00 0. -1.
</event>
<event>
 4    1  0.3283867E+006  0.2212876E+02  0.7546771E-02  0.1503738E+00
         21   -1    0    0  504  501  0.00000000000E+00  0.00000000000E+00  0.36195852993E+03  0.36195852993E+03  0.00000000000E+00 0. -1.
         21   -1    0    0  501  502 -0.00000000000E+00 -0.00000000000E+00 -0.95919485404E+02  0.95919485404E+02  0.00000000000E+00 0. -1.
         21    1    1    2  503  502  0.12095140675E+02 -0.18530769715E+02 -0.94299251698E+02  0.96860883359E+02  0.00000000000E+00 0. -1.
         21    1    1    2  504  503 -0.12095140675E+02  0.18530769715E+02  0.36033829622E+03  0.36101713197E+03  0.00000000000E+00 0. -1.
</event>
<event>
 4    1  0.3283867E+006  0.2013999E+02  0.7546771E-02  0.1531906E+00
         21   -1    0    0  503  501  0.00000000000E+00  0.00000000000E+00  0.69604906068E+02  0.69604906068E+02  0.00000000000E+00 0.  1.
         21   -1    0    0  501  502 -0.00000000000E+00 -0.00000000000E+00 -0.85662370795E+01  0.85662370795E+01  0.00000000000E+00 0.  1.
         21    1    1    2  503  504  0.20117869116E+02 -0.94372405938E+00  0.52619746594E+02  0.56342319836E+02  0.00000000000E+00 0.  1.
         21    1    1    2  504  502 -0.20117869116E+02  0.94372405938E+00  0.84189223946E+01  0.21828823312E+02  0.00000000000E+00 0.  1.
</event>
<event>
 4    1  0.3283867E+006  0.2077928E+02  0.7546771E-02  0.1522440E+00
         21   -1    0    0  504  501  0.00000000000E+00  0.00000000000E+00  0.30201628460E+02  0.30201628460E+02  0.00000000000E+00 0. -1.
         21   -1    0    0  503  502 -0.00000000000E+00 -0.00000000000E+00 -0.18208898544E+02  0.18208898544E+02  0.00000000000E+00 0. -1.
         21    1    1    2  503  501  0.19835794753E+02  0.61903035655E+01 -0.52234999365E+01  0.21425768675E+02  0.00000000000E+00 0. -1.
         21    1    1    2  504  502 -0.19835794753E+02 -0.61903035655E+01  0.17216229853E+02  0.26984758329E+02  0.00000000000E+00 0. -1.
</event>
<event>
 4    1  0.3283867E+006  0.2311838E+02  0.7546771E-02  0.1491017E+00
         21   -1    0    0  504  501  0.00000000000E+00  0.00000000000E+00  0.85334867062E+02  0.85334867062E+02  0.00000000000E+00 0. -1.
         21   -1    0    0  501  502 -0.00000000000E+00 -0.00000000000E+00 -0.17445692907E+02  0.17445692907E+02  0.00000000000E+00 0. -1.
         21    1    1    2  503  502 -0.22145543040E+02 -0.66358386646E+01 -0.71995958717E+01  0.24213500615E+02  0.00000000000E+00 0. -1.
         21    1    1    2  504  503  0.22145543040E+02  0.66358386646E+01  0.75088770027E+02  0.78567059353E+02  0.00000000000E+00 0. -1.
</event>
<event>
 4    1  0.3283867E+006  0.2151441E+02  0.7546771E-02  0.1512046E+00
         21   -1    0    0  504  501  0.00000000000E+00  0.00000000000E+00  0.14419618978E+03  0.14419618978E+03  0.00000000000E+00 0. -1.
         21   -1    0    0  501  502 -0.00000000000E+00 -0.00000000000E+00 -0.13382692857E+02  0.13382692857E+02  0.00000000000E+00 0. -1.
         21    1    1    2  503  502 -0.21514375208E+02 -0.36259868418E-01 -0.32865307110E+01  0.21763982620E+02  0.00000000000E+00 0. -1.
         21    1    1    2  504  503  0.21514375208E+02  0.36259868418E-01  0.13410002764E+03  0.13581490002E+03  0.00000000000E+00 0. -1.
</event>
<event>
 4    1  0.3283867E+006  0.2850282E+02  0.7546771E-02  0.1433069E+00
         21   -1    0    0  503  501  0.00000000000E+00  0.00000000000E+00  0.45046849765E+03  0.45046849765E+03  0.00000000000E+00 0.  1.
         21   -1    0    0  504  502 -0.00000000000E+00 -0.00000000000E+00 -0.18248887028E+01  0.18248887028E+01  0.00000000000E+00 0.  1.
         21    1    1    2  503  502 -0.26588773379E+02 -0.10268776719E+02  0.19982702381E+03  0.20184957293E+03  0.00000000000E+00 0.  1.
         21    1    1    2  504  501  0.26588773379E+02  0.10268776719E+02  0.24881658513E+03  0.25044381343E+03  0.00000000000E+00 0.  1.
</event>
<event>
 4    1  0.3283867E+006  0.2169874E+02  0.7546771E-02  0.1509518E+00
         21   -1    0    0  502  501  0.00000000000E+00  0.00000000000E+00  0.38342867358E+03  0.38342867358E+03  0.00000000000E+00 0.  1.
         21   -1    0    0  504  502 -0.00000000000E+00 -0.00000000000E+00 -0.24098167037E+01  0.24098167037E+01  0.00000000000E+00 0.  1.
         21    1    1    2  503  501 -0.21628351185E+02  0.17463745461E+01  0.32561268095E+03  0.32633487922E+03  0.00000000000E+00 0.  1.
         21    1    1    2  504  503  0.21628351185E+02 -0.17463745461E+01  0.55406175928E+02  0.59503611067E+02  0.00000000000E+00 0.  1.
</event>
<event>
 4    1  0.3283867E+006  0.2450624E+02  0.7546771E-02  0.1474403E+00
         21   -1    0    0  502  501  0.00000000000E+00  0.00000000000E+00  0.25916929924E+02  0.25916929924E+02  0.00000000000E+00 0.  1.
         21   -1    0    0  504  502 -0.00000000000E+00 -0.00000000000E+00 -0.23331221547E+02  0.23331221547E+02  0.00000000000E+00 0.  1.
         21    1    1    2  503  501 -0.15936858219E+02  0.18616451787E+02 -0.73921121736E+00  0.24517384857E+02  0.00000000000E+00 0.  1.
         21    1    1    2  504  503  0.15936858219E+02 -0.18616451787E+02  0.33249195943E+01  0.24730766614E+02  0.00000000000E+00 0.  1.
</event>
<event>
 4    1  0.3283867E+006  0.2796287E+02  0.7546771E-02  0.1438169E+00
         21   -1    0    0  503  501  0.00000000000E+00  0.00000000000E+00  0.56650590212E+01  0.56650590212E+01  0.00000000000E+00 0. -1.
         21   -1    0    0  501  502 -0.00000000000E+00 -0.00000000000E+00 -0.41124373819E+03  0.41124373819E+03  0.00000000000E+00 0. -1.
         21    1    1    2  503  504  0.17417896683E+02 -0.21875528636E+02 -0.32880349061E+02  0.43162938180E+02  0.00000000000E+00 0. -1.
         21    1    1    2  504  502 -0.17417896683E+02  0.21875528636E+02 -0.37269833011E+03  0.37374585903E+03  0.00000000000E+00 0. -1.
</event>
<event>
 4    1  0.3283867E+006  0.2134978E+02  0.7546771E-02  0.1514329E+00
         21   -1    0    0  504  501  0.00000000000E+00  0.00000000000E+00  0.12355303148E+03  0.12355303148E+03  0.00000000000E+00 0.  1.
         21   -1    0    0  501  502 -0.00000000000E+00 -0.00000000000E+00 -0.80721863145E+02  0.80721863145E+02  0.00000000000E+00 0. -1.
         21    1    1    2  503  502  0.19791304745E+02  0.80073368800E+01 -0.78360587493E+02  0.81216961650E+02  0.00000000000E+00 0. -1.
         21    1    1    2  504  503 -0.19791304745E+02 -0.80073368800E+01  0.12119175583E+03  0.12305793298E+03  0.00000000000E+00 0.  1.
</event>
<event>
 4    1  0.3283867E+006  0.3537216E+02  0.7546771E-02  0.1377966E+00
         21   -1    0    0  503  501  0.00000000000E+00  0.00000000000E+00  0.57665113167E+02  0.57665113167E+02  0.00000000000E+00 0. -1.
         21   -1    0    0  504  502 -0.00000000000E+00 -0.00000000000E+00 -0.29766183073E+02  0.29766183073E+02  0.00000000000E+00 0.  1.
         21    1    1    2  503  502  0.39521592135E+01  0.35150679038E+02  0.36709671980E+02  0.50978326926E+02  0.00000000000E+00 0. -1.
         21    1    1    2  504  501 -0.39521592135E+01 -0.35150679038E+02 -0.88107418863E+01  0.36452969315E+02  0.00000000000E+00 0.  1.
</event>
<event>
 4    1  0.3283867E+006  0.3091227E+02  0.7546771E-02  0.1411831E+00
         21   -1    0    0  504  501  0.00000000000E+00  0.00000000000E+00  0.91872440851E+02  0.91872440851E+02  0.00000000000E+00 0.  1.
         21   -1    0    0  503  502 -0.00000000000E+00 -0.00000000000E+00 -0.20099942198E+03  0.20099942198E+03  0.00000000000E+00 0.  1.
         21    1    1    2  503  501 -0.83109599780E+01  0.29774092946E+02 -0.19716031619E+03  0.19956893282E+03  0.00000000000E+00 0.  1.
         21    1    1    2  504  502  0.83109599780E+01 -0.29774092946E+02  0.88033335062E+02  0.93302930011E+02  0.00000000000E+00 0.  1.
</event>
<event>
 4    1  0.3283867E+006  0.3050628E+02  0.7546771E-02  0.1415247E+00
         21   -1    0    0  502  501  0.00000000000E+00  0.00000000000E+00  0.15509724811E+02  0.15509724811E+02  0.00000000000E+00 0.  1.
         21   -1    0    0  503  502 -0.00000000000E+00 -0.00000000000E+00 -0.68837815353E+02  0.68837815353E+02  0.00000000000E+00 0.  1.
         21    1    1    2  503  504  0.19891758534E+02 -0.23129012080E+02 -0.41772585015E+02  0.51726029388E+02  0.00000000000E+00 0.  1.
         21    1    1    2  504  501 -0.19891758534E+02  0.23129012080E+02 -0.11555505527E+02  0.32621510777E+02  0.00000000000E+00 0.  1.
</event>
<event>
 4    1  0.3283867E+006  0.2713107E+02  0.7546771E-02  0.1446296E+00
         21   -1    0    0  503  501  0.00000000000E+00  0.00000000000E+00  0.35333305193E+02  0.35333305193E+02  0.00000000000E+00 0.  1.
         21   -1    0    0  504  502 -0.00000000000E+00 -0.00000000000E+00 -0.34401623567E+02  0.34401623567E+02  0.00000000000E+00 0. -1.
         21    1    1    2  503  502 -0.19778151712E+02  0.18572007553E+02  0.22363646808E+02  0.35160026283E+02  0.00000000000E+00 0.  1.
         21    1    1    2  504  501  0.19778151712E+02 -0.18572007553E+02 -0.21431965182E+02  0.34574902476E+02  0.00000000000E+00 0. -1.
</event>
<event>
 4    1  0.3283867E+006  0.3230193E+02  0.7546771E-02  0.1400593E+00
         21   -1    0    0  502  501  0.00000000000E+00  0.00000000000E+00  0.61795621080E+03  0.61795621080E+03  0.00000000000E+00 0. -1.
         21   -1    0    0  504  502 -0.00000000000E+00 -0.00000000000E+00 -0.31008701593E+02  0.31008701593E+02  0.00000000000E+00 0.  1.
         21    1    1    2  503  501 -0.29181585391E+02 -0.13850974634E+02  0.60899816328E+03  0.60985422627E+03  0.00000000000E+00 0. -1.
         21    1    1    2  504  503  0.29181585391E+02  0.13850974634E+02 -0.22050654069E+02  0.39110686124E+02  0.00000000000E+00 0.  1.
</event>
<event>
 4    1  0.3283867E+006  0.2012366E+02  0.7546771E-02  0.1532154E+00
         21   -1    0    0  504  501  0.00000000000E+00  0.00000000000E+00  0.15457924443E+02  0.15457924443E+02  0.00000000000E+00 0. -1.
         21   -1    0    0  503  502 -0.00000000000E+00 -0.00000000000E+00 -0.43986409662E+02  0.43986409662E+02  0.00000000000E+00 0. -1.
         21    1    1    2  503  501 -0.13921892890E+02 -0.14530746833E+02 -0.33165631721E+02  0.38793309122E+02  0.00000000000E+00 0. -1.
         21    1    1    2  504  502  0.13921892890E+02  0.14530746833E+02  0.46371465022E+01  0.20651024983E+02  0.00000000000E+00 0. -1.
</event>
<event>
 4    1  0.3283867E+006  0.2081368E+02  0.7546771E-02  0.1521942E+00
         21   -1    0    0  503  501  0.00000000000E+00  0.00000000000E+00  0.20417032485E+01  0.20417032485E+01  0.00000000000E+00 0.  1.
         21   -1    0    0  504  502 -0.00000000000E+00 -0.00000000000E+00 -0.22141276814E+03  0.22141276814E+03  0.00000000000E+00 0.  1.
         21    1    1    2  503  502 -0.32435904038E+01  0.20559390254E+02 -0.86870854399E+02  0.89329473021E+02  0.00000000000E+00 0.  1.
         21    1    1    2  504  501  0.32435904038E+01 -0.20559390254E+02 -0.13250021049E+03  0.13412499837E+03  0.00000000000E+00 0.  1.
</event>
<event>
 4    1  0.3283867E+006  0.2547482E+02  0.7546771E-02  0.1463561E+00
         21   -1    0    0  502  501  0.00000000000E+00  0.00000000000E+00  0.14722181440E+03  0.14722181440E+03  0.00000000000E+00 0.  1.
         21   -1    0    0  503  502 -0.00000000000E+00 -0.00000000000E+00 -0.72529400604E+02  0.72529400604E+02  0.00000000000E+00 0.  1.
         21    1    1    2  503  504  0.25095659065E+02 -0.43788507505E+01 -0.69138135909E+02  0.73682075668E+02  0.00000000000E+00 0.  1.
         21    1    1    2  504  501 -0.25095659065E+02  0.43788507505E+01  0.14383054970E+03  0.14606913933E+03  0.00000000000E+00 0.  1.
</event>
<event>
 4    1  0.3283867E+006  0.3102882E+02  0.7546771E-02  0.1410862E+00
         21   -1    0    0  503  501  0.00000000000E+00  0.00000000000E+00  0.67129997172E+02  0.67129997172E+02  0.00000000000E+00 0. -1.
         21   -1    0    0  504  502 -0.00000000000E+00 -0.00000000000E+00 -0.96771441892E+02  0.96771441892E+02  0.00000000000E+00 0. -1.
         21    1    1    2  503  502 -0.96890940836E+01 -0.29477268647E+02  0.60813783211E+02  0.68272279437E+02  0.00000000000E+00 0. -1.
         21    1    1    2  504  501  0.96890940836E+01  0.29477268647E+02 -0.90455227931E+02  0.95629159627E+02  0.00000000000E+00 0. -1.
</event>
<event>
 4    1  0.3283867E+006  0.2405025E+02  0.7546771E-02  0.1479715E+00
         21   -1    0    0  503  501  0.00000000000E+00  0.00000000000E+00  0.60961753048E+03  0.60961753048E+03  0.00000000000E+00 0. -1.
         21   -1    0    0  504  502 -0.00000000000E+00 -0.00000000000E+00 -0.99547441148E+00  0.99547441148E+00  0.00000000000E+00 0. -1.
         21    1    1    2  503  502 -0.21729189585E+02  0.10308092307E+02  0.37040915952E+03  0.37118911609E+03  0.00000000000E+00 0. -1.
         21    1    1    2  504  501  0.21729189585E+02 -0.10308092307E+02  0.23821289655E+03  0.23942388880E+03  0.00000000000E+00 0. -1.
</event>
<event>
 4    1  0.3283867E+006  0.2556543E+02  0.7546771E-02  0.1462576E+00
         21   -1    0    0  502  501  0.00000000000E+00  0.00000000000E+00  0.90772374778E+02  0.90772374778E+02  0.00000000000E+00 0. -1.
         21   -1    0    0  504  502 -0.00000000000E+00 -0.00000000000E+00 -0.68582789155E+02  0.68582789155E+02  0.00000000000E+00 0.  1.
         21    1    1    2  503  501  0.15821347379E+02 -0.20081739680E+02  0.86473850881E+02  0.90173822075E+02  0.00000000000E+00 0. -1.
         21    1    1    2  504  503 -0.15821347379E+02  0.20081739680E+02 -0.64284265258E+02  0.69181341858E+02  0.00000000000E+00 0.  1.
</event>
<event>
 4    1  0.3283867E+006  0.2207335E+02  0.7546771E-02  0.1504474E+00
         21   -1    0    0  502  501  0.00000000000E+00  0.00000000000E+00  0.36295237121E+02  0.36295237121E+02  0.00000000000E+00 0. -1.
         21   -1    0    0  504  502 -0.00000000000E+00 -0.00000000000E+00 -0.17525887466E+02  0.17525887466E+02  0.00000000000E+00 0. -1.
         21    1    1    2  503  501  0.21673420795E+02 -0.41827546984E+01  0.22403351496E+02  0.31450640122E+02  0.00000000000E+00 0. -1.
         21    1    1    2  504  503 -0.21673420795E+02  0.41827546984E+01 -0.36340018411E+01  0.22370484465E+02  0.00000000000E+00 0. -1.
</event>
<event>
 4    1  0.3283867E+006  0.3126533E+02  0.7546771E-02  0.1408910E+00
         21   -1    0    0  503  501  0.00000000000E+00  0.00000000000E+00  0.43645556088E+03  0.43645556088E+03  0.00000000000E+00 0.  1.
         21   -1    0    0  504  502 -0.00000000000E+00 -0.00000000000E+00 -0.40994954823E+01  0.40994954823E+01  0.00000000000E+00 0.  1.
         21    1    1    2  503  502  0.29603853380E+02 -0.10056467365E+02  0.36454593272E+03  0.36588421356E+03  0.00000000000E+00 0.  1.
         21    1    1    2  504  501 -0.29603853380E+02  0.10056467365E+02  0.67810132675E+02  0.74670842798E+02  0.00000000000E+00 0.  1.
</event>
<event>
 4    1  0.3283867E+006  0.7810158E+02  0.7546771E-02  0.1208325E+00
         21   -1    0    0  504  501  0.00000000000E+00  0.00000000000E+00  0.14633092116E+03  0.14633092116E+03  0.00000000000E+00 0.  1.
         21   -1    0    0  503  502 -0.00000000000E+00 -0.00000000000E+00 -0.13187481087E+04  0.13187481087E+04  0.00000000000E+00 0.  1.
         21    1    1    2  503  501  0.74902138987E+02 -0.22125242461E+02 -0.13070774291E+04  0.13094087454E+04  0.00000000000E+00 0.  1.
         21    1    1    2  504  502 -0.74902138987E+02  0.22125242461E+02  0.13466024163E+03  0.15567028443E+03  0.00000000000E+00 0.  1.
</event>
<event>
 4    1  0.3283867E+006  0.2812952E+02  0.7546771E-02  0.1436580E+00
         21   -1    0    0  502  501  0.00000000000E+00  0.00000000000E+00  0.23977337913E+02  0.23977337913E+02  0.00000000000E+00 0. -1.
         21   -1    0    0  504  502 -0.00000000000E+00 -0.00000000000E+00 -0.25995395872E+03  0.25995395872E+03  0.00000000000E+00 0.  1.
         21    1    1    2  503  501 -0.51512518052E+01  0.27653830105E+02  0.14660461252E+02  0.31720637427E+02  0.00000000000E+00 0. -1.
         21    1    1    2  504  503  0.51512518052E+01 -0.27653830105E+02 -0.25063708206E+03  0.25221065921E+03  0.00000000000E+00 0.  1.
</event>
<event>
 4    1  0.3283867E+006  0.2296410E+02  0.7546771E-02  0.1492949E+00
         21   -1    0    0  503  501  0.00000000000E+00  0.00000000000E+00  0.96490226378E+03  0.96490226378E+03  0.00000000000E+00 0.  1.
         21   -1    0    0  504  502 -0.00000000000E+00 -0.00000000000E+00 -0.48547089741E+02  0.48547089741E+02  0.00000000000E+00 0.  1.
         21    1    1    2  503  502  0.10180253604E+02 -0.20584268951E+02 -0.45686723009E+02  0.51133417165E+02  0.00000000000E+00 0.  1.
         21    1    1    2  504  501 -0.10180253604E+02  0.20584268951E+02  0.96204189705E+03  0.96231593636E+03  0.00000000000E+00 0.  1.
</event>
<event>
 4    1  0.3283867E+006  0.2002372E+02  0.7546771E-02  0.1533673E+00
         21   -1    0    0  503  501  0.00000000000E+00  0.00000000000E+00  0.33092640307E+03  0.33092640307E+03  0.00000000000E+00 0.  1.
         21   -1    0    0  504  502 -0.00000000000E+00 -0.00000000000E+00 -0.32052151133E+02  0.32052151133E+02  0.00000000000E+00 0.  1.
         21    1    1    2  503  502 -0.19893605694E+02  0.22789857680E+01  0.32746314019E+03  0.32807477426E+03  0.00000000000E+00 0.  1.
         21    1    1    2  504  501  0.19893605694E+02 -0.22789857680E+01 -0.28588888246E+02  0.34903779950E+02  0.00000000000E+00 0.  1.
</event>
<event>
 4    1  0.3283867E+006  0.4689353E+02  0.7546771E-02  0.1312234E+00
         21   -1    0    0  504  501  0.00000000000E+00  0.00000000000E+00  0.43041001807E+02  0.43041001807E+02  0.00000000000E+00 0.  1.
         21   -1    0    0  503  502 -0.00000000000E+00 -0.00000000000E+00 -0.11448401982E+03  0.11448401982E+03  0.00000000000E+00 0. -1.
         21    1    1    2  503  501  0.40511526943E+02  0.23618199546E+02 -0.94331034876E+02  0.10534394765E+03  0.00000000000E+00 0. -1.
         21    1    1    2  504  502 -0.40511526943E+02 -0.23618199546E+02  0.22888016868E+02  0.52181073975E+02  0.00000000000E+00 0.  1.
</event>
<event>
 4    1  0.3283867E+006  0.2169031E+02  0.7546771E-02  0.1509633E+00
         21   -1    0    0  504  501  0.00000000000E+00  0.00000000000E+00  0.94483186130E+02  0.94483186130E+02  0.00000000000E+00 0. -1.
         21   -1    0    0  501  502 -0.00000000000E+00 -0.00000000000E+00 -0.51419370148E+01  0.51419370148E+01  0.00000000000E+00 0. -1.
         21    1    1    2  503  502 -0.21017003747E+02 -0.53623648083E+01  0.53526960897E+02  0.57754696309E+02  0.00000000000E+00 0. -1.
         21    1    1    2  504  503  0.21017003747E+02  0.53623648083E+01  0.35814288218E+02  0.41870426835E+02  0.00000000000E+00 0. -1.
</event>
<event>
 4    1  0.3283867E+006  0.2460857E+02  0.7546771E-02  0.1473230E+00
         21   -1    0    0  504  501  0.00000000000E+00  0.00000000000E+00  0.64949260285E+02  0.64949260285E+02  0.00000000000E+00 0. -1.
         21   -1    0    0  503  502 -0.00000000000E+00 -0.00000000000E+00 -0.19305414288E+02  0.19305414288E+02  0.00000000000E+00 0.  1.
         21    1    1    2  503  501  0.70843641626E+01 -0.23566792451E+02  0.53113519011E+02  0.58537405338E+02  0.00000000000E+00 0. -1.
         21    1    1    2  504  502 -0.70843641626E+01  0.23566792451E+02 -0.74696730128E+01  0.25717269235E+02  0.00000000000E+00 0.  1.
</event>
<event>
 4    1  0.3283867E+006  0.2027607E+02  0.7546771E-02  0.1529857E+00
         21   -1    0    0  503  501  0.00000000000E+00  0.00000000000E+00  0.64411820528E+02  0.64411820528E+02  0.00000000000E+00 0. -1.
         21   -1    0    0  504  502 -0.00000000000E+00 -0.00000000000E+00 -0.65281705395E+01  0.65281705395E+01  0.00000000000E+00 0. -1.
         21    1    1    2  503  502 -0.18042740462E+02 -0.92508588948E+01  0.23646291033E+02  0.31149092335E+02  0.00000000000E+00 0. -1.
         21    1    1    2  504  501  0.18042740462E+02  0.92508588948E+01  0.34237358956E+02  0.39790898733E+02  0.00000000000E+00 0. -1.
</event>
<event>
 4    1  0.3283867E+006  0.2469623E+02  0.7546771E-02  0.1472230E+00
         21   -1    0    0  502  501  0.00000000000E+00  0.00000000000E+00  0.45746835457E+02  0.45746835457E+02  0.00000000000E+00 0. -1.
         21   -1    0    0  503  502 -0.00000000000E+00 -0.00000000000E+00 -0.32952454344E+02  0.32952454344E+02  0.00000000000E+00 0.  1.
         21    1    1    2  503  504  0.18333118431E+02 -0.16546913857E+02 -0.23966169106E+02  0.34413381862E+02  0.00000000000E+00 0.  1.
         21    1    1    2  504  501 -0.18333118431E+02  0.16546913857E+02  0.36760550219E+02  0.44285907939E+02  0.00000000000E+00 0. -1.
</event>
<event>
 4    1  0.3283867E+006  0.2796107E+02  0.7546771E-02  0.1438186E+00
         21   -1    0    0  502  501  0.00000000000E+00  0.00000000000E+00  0.37804533386E+02  0.37804533386E+02  0.00000000000E+00 0.  1.
         21   -1    0    0  504  502 -0.00000000000E+00 -0.00000000000E+00 -0.32881383937E+02  0.32881383937E+02  0.00000000000E+00 0.  1.
         21    1    1    2  503  501 -0.23336721050E+02  0.15401910059E+02  0.23990446925E+02  0.36842406633E+02  0.00000000000E+00 0.  1.
         21    1    1    2  504  503  0.23336721050E+02 -0.15401910059E+02 -0.19067297476E+02  0.33843510691E+02  0.00000000000E+00 0.  1.
</event>
<event>
 4    1  0.3283867E+006  0.3170624E+02  0.7546771E-02  0.1405327E+00
         21   -1    0    0  503  501  0.00000000000E+00  0.00000000000E+00  0.58062456802E+00  0.58062456802E+00  0.00000000000E+00 0. -1.
         21   -1    0    0  504  502 -0.00000000000E+00 -0.00000000000E+00 -0.17956892019E+04  0.17956892019E+04  0.00000000000E+00 0. -1.
         21    1    1    2  503  502  0.25714739742E+02 -0.18548249514E+02 -0.72759636739E+03  0.72828686604E+03  0.00000000000E+00 0. -1.
         21    1    1    2  504  501 -0.25714739742E+02  0.18548249514E+02 -0.10675122099E+04  0.10679829604E+04  0.00000000000E+00 0. -1.
</event>
<event>
 4    1  0.3283867E+006  0.2985349E+02  0.7546771E-02  0.1420874E+00
         21   -1    0    0  504  501  0.00000000000E+00  0.00000000000E+00  0.10588278939E+02  0.10588278939E+02  0.00000000000E+00 0.  1.
         21   -1    0    0  503  502 -0.00000000000E+00 -0.00000000000E+00 -0.86970744243E+02  0.86970744243E+02  0.00000000000E+00 0.  1.
         21    1    1    2  503  501 -0.52799266078E+01  0.29382871366E+02 -0.29439875708E+02  0.41927759735E+02  0.00000000000E+00 0.  1.
         21    1    1    2  504  502  0.52799266078E+01 -0.29382871366E+02 -0.46942589596E+02  0.55631263447E+02  0.00000000000E+00 0.  1.
</event>
<event>
 4    1  0.3283867E+006  0.2783578E+02  0.7546771E-02  0.1439388E+00
         21   -1    0    0  504  501  0.00000000000E+00  0.00000000000E+00  0.19398808875E+02  0.19398808875E+02  0.00000000000E+00 0.  1.
         21   -1    0    0  503  502 -0.00000000000E+00 -0.00000000000E+00 -0.14029340430E+03  0.14029340430E+03  0.00000000000E+00 0.  1.
         21    1    1    2  503  501 -0.95100789499E+01 -0.26160829076E+02 -0.12797725424E+03  0.13096949333E+03  0.00000000000E+00 0.  1.
         21    1    1    2  504  502  0.95100789499E+01  0.26160829076E+02  0.70826588145E+01  0.28722719848E+02  0.00000000000E+00 0.  1.
</event>
<event>
 4    1  0.3283867E+006  0.2085027E+02  0.7546771E-02  0.1521413E+00
         21   -1    0    0  504  501  0.00000000000E+00  0.00000000000E+00  0.56888111575E+03  0.56888111575E+03  0.00000000000E+00 0.  1.
         21   -1    0    0  503  502 -0.00000000000E+00 -0.00000000000E+00 -0.11574912790E+01  0.11574912790E+01  0.00000000000E+00 0. -1.
         21    1    1    2  503  501 -0.34293583368E+01 -0.20566312942E+02  0.11772049974E+03  0.11955270714E+03  0.00000000000E+00 0. -1.
         21    1    1    2  504  502  0.34293583368E+01  0.20566312942E+02  0.45000312473E+03  0.45048589989E+03  0.00000000000E+00 0.  1.
</event>
<event>
 4    1  0.3283867E+006  0.2026211E+02  0.7546771E-02  0.1530066E+00
         21   -1    0    0  503  501  0.00000000000E+00  0.00000000000E+00  0.33400823524E+03  0.33400823524E+03  0.00000000000E+00 0. -1.
         21   -1    0    0  504  502 -0.00000000000E+00 -0.00000000000E+00 -0.14995286789E+01  0.14995286789E+01  0.00000000000E+00 0.  1.
         21    1    1    2  503  502 -0.17946228789E+02  0.94067061109E+01  0.23748461150E+03  0.23834742278E+03  0.00000000000E+00 0. -1.
         21    1    1    2  504  501  0.17946228789E+02 -0.94067061109E+01  0.95024095062E+02  0.97160341138E+02  0.00000000000E+00 0.  1.
</event>
<event>
 4    1  0.3283867E+006  0.2265091E+02  0.7546771E-02  0.1496929E+00
         21   -1    0    0  504  501  0.00000000000E+00  0.00000000000E+00  0.15012549885E+03  0.15012549885E+03  0.00000000000E+00 0.  1.
         21   -1    0    0  501  502 -0.00000000000E+00 -0.00000000000E+00 -0.75586817365E+01  0.75586817365E+01  0.00000000000E+00 0. -1.
         21    1    1    2  503  502 -0.17508363771E+02 -0.14370834005E+02  0.12926291431E+02  0.26079737002E+02  0.00000000000E+00 0. -1.
         21    1    1    2  504  503  0.17508363771E+02  0.14370834005E+02  0.12964052568E+03  0.13160444359E+03  0.00000000000E+00 0.  1.
</event>
<event>
 4    1  0.3283867E+006  0.2202886E+02  0.7546771E-02  0.1505067E+00
         21   -1    0    0  503  501  0.00000000000E+00  0.00000000000E+00  0.81073327643E+02  0.81073327643E+02  0.00000000000E+00 0. -1.
         21   -1    0    0  504  502 -0.00000000000E+00 -0.00000000000E+00 -0.18135195617E+02  0.18135195617E+02  0.00000000000E+00 0.  1.
         21    1    1    2  503  502 -0.18544653356E+02 -0.11889762737E+02 -0.91321643206E+01  0.23846740893E+02  0.00000000000E+00 0.  1.
         21    1    1    2  504  501  0.18544653356E+02  0.11889762737E+02  0.72070296347E+02  0.75361782367E+02  0.00000000000E+00 0. -1.
</event>
<event>
 4    1  0.3283867E+006  0.2120543E+02  0.7546771E-02  0.1516352E+00
         21   -1    0    0  504  501  0.00000000000E+00  0.00000000000E+00  0.65875465828E+00  0.65875465828E+00  0.00000000000E+00 0.  1.
         21   -1    0    0  501  502 -0.00000000000E+00 -0.00000000000E+00 -0.74890801093E+03  0.74890801093E+03  0.00000000000E+00 0.  1.
         21    1    1    2  503  502  0.11117733032E+02 -0.18057301523E+02 -0.48563832842E+03  0.48610107607E+03  0.00000000000E+00 0.  1.
         21    1    1    2  504  503 -0.11117733032E+02  0.18057301523E+02 -0.26261092785E+03  0.26346568952E+03  0.00000000000E+00 0.  1.
</event>
<event>
 4    1  0.3283867E+006  0.3623572E+02  0.7546771E-02  0.1372078E+00
         21   -1    0    0  504  501  0.00000000000E+00  0.00000000000E+00  0.41624545809E+03  0.41624545809E+03  0.00000000000E+00 0. -1.
         21   -1    0    0  503  502 -0.00000000000E+00 -0.00000000000E+00 -0.12443363217E+03  0.12443363217E+03  0.00000000000E+00 0. -1.
         21    1    1    2  503  501  0.32754766210E+02  0.15496854890E+02  0.41279684111E+03  0.41438419281E+03  0.00000000000E+00 0. -1.
         21    1    1    2  504  502 -0.32754766210E+02 -0.15496854890E+02 -0.12098501519E+03  0.12629489745E+03  0.00000000000E+00 0. -1.
</event>
<event>
 4    1  0.3283867E+006  0.2404445E+02  0.7546771E-02  0.1479783E+00
         21   -1    0    0  502  501  0.00000000000E+00  0.00000000000E+00  0.15463147583E+01  0.15463147583E+01  0.00000000000E+00 0. -1.
         21   -1    0    0  504  502 -0.00000000000E+00 -0.00000000000E+00 -0.54400744925E+03  0.54400744925E+03  0.00000000000E+00 0. -1.
         21    1    1    2  503  501 -0.22062545972E+02 -0.95592697486E+01 -0.11868737908E+03  0.12109842908E+03  0.00000000000E+00 0. -1.
         21    1    1    2  504  503  0.22062545972E+02  0.95592697486E+01 -0.42377375541E+03  0.42445533493E+03  0.00000000000E+00 0. -1.
</event>
<event>
 4    1  0.3283867E+006  0.2004467E+02  0.7546771E-02  0.1533354E+00
         21   -1    0    0  503  501  0.00000000000E+00  0.00000000000E+00  0.50103138201E+01  0.50103138201E+01  0.00000000000E+00 0. -1.
         21   -1    0    0  504  502 -0.00000000000E+00 -0.00000000000E+00 -0.14731984168E+03  0.14731984168E+03  0.00000000000E+00 0. -1.
         21    1    1    2  503  502  0.11119056469E+02 -0.16677996317E+02 -0.19741474812E+02  0.28133872923E+02  0.00000000000E+00 0. -1.
         21    1    1    2  504  501 -0.11119056469E+02  0.16677996317E+02 -0.12256805304E+03  0.12419628257E+03  0.00000000000E+00 0. -1.
</event>
<event>
 4    1  0.3283867E+006  0.7229674E+02  0.7546771E-02  0.1222957E+00
         21   -1    0    0  503  501  0.00000000000E+00  0.00000000000E+00  0.10813856603E+03  0.10813856603E+03  0.00000000000E+00 0. -1.
         21   -1    0    0  504  502 -0.00000000000E+00 -0.00000000000E+00 -0.55305394515E+02  0.55305394515E+02  0.00000000000E+00 0. -1.
         21    1    1    2  503  502  0.55277033159E+02  0.46596869911E+02  0.55430129960E+02  0.91100592687E+02  0.00000000000E+00 0. -1.
         21    1    1    2  504  501 -0.55277033159E+02 -0.46596869911E+02 -0.25969584428E+01  0.72343367862E+02  0.00000000000E+00 0. -1.
</event>
<event>
 4    1  0.3283867E+006  0.2008494E+02  0.7546771E-02  0.1532741E+00
         21   -1    0    0  503  501  0.00000000000E+00  0.00000000000E+00  0.19046804573E+03  0.19046804573E+03  0.00000000000E+00 0. -1.
         21   -1    0    0  501  502 -0.00000000000E+00 -0.00000000000E+00 -0.33765415271E+02  0.33765415271E+02  0.00000000000E+00 0. -1.
         21    1    1    2  503  504 -0.17370531982E+02 -0.10083123707E+02  0.18689479389E+03  0.18797092527E+03  0.00000000000E+00 0. -1.
         21    1    1    2  504  502  0.17370531982E+02  0.10083123707E+02 -0.30192163429E+02  0.36262535729E+02  0.00000000000E+00 0. -1.
</event>
<event>
 4    1  0.3283867E+006  0.8950315E+02  0.7546771E-02  0.1183356E+00
         21   -1    0    0  504  501  0.00000000000E+00  0.00000000000E+00  0.11372793773E+02  0.11372793773E+02  0.00000000000E+00 0.  1.
         21   -1    0    0  503  502 -0.00000000000E+00 -0.00000000000E+00 -0.83072086150E+03  0.83072086150E+03  0.00000000000E+00 0.  1.
         21    1    1    2  503  501  0.17759443903E+02 -0.87723519831E+02 -0.57387205229E+03  0.58080973320E+03  0.00000000000E+00 0.  1.
         21    1    1    2  504  502 -0.17759443903E+02  0.87723519831E+02 -0.24547601543E+03  0.26128392207E+03  0.00000000000E+00 0.  1.
</event>
<event>
 4    1  0.3283867E+006  0.2541012E+02  0.7546771E-02  0.1464267E+00
         21   -1    0    0  502  501  0.00000000000E+00  0.00000000000E+00  0.23978045370E+04  0.23978045370E+04  0.00000000000E+00 0. -1.
         21   -1    0    0  504  502 -0.00000000000E+00 -0.00000000000E+00 -0.34697825524E+00  0.34697825524E+00  0.00000000000E+00 0. -1.
         21    1    1    2  503  501  0.21777520287E+02  0.13092511614E+02  0.17661541724E+04  0.17663369540E+04  0.00000000000E+00 0. -1.
         21    1    1    2  504  503 -0.21777520287E+02 -0.13092511614E+02  0.63130338635E+03  0.63181456130E+03  0.00000000000E+00 0. -1.
</event>
<event>
 4    1  0.3283867E+006  0.2103767E+02  0.7546771E-02  0.1518728E+00
         21   -1    0    0  504  501  0.00000000000E+00  0.00000000000E+00  0.10175682622E+03  0.10175682622E+03  0.00000000000E+00 0. -1.
         21   -1    0    0  501  502 -0.00000000000E+00 -0.00000000000E+00 -0.10656966989E+02  0.10656966989E+02  0.00000000000E+00 0. -1.
         21    1    1    2  503  502 -0.16369378783E+02  0.13214658234E+02  0.23082207872E+01  0.21163923010E+02  0.00000000000E+00 0. -1.
         21    1    1    2  504  503  0.16369378783E+02 -0.13214658234E+02  0.88791638442E+02  0.91249870198E+02  0.00000000000E+00 0. -1.
</event>
<event>
 4    1  0.3283867E+006  0.2774159E+02  0.7546771E-02  0.1440298E+00
         21   -1    0    0  504  501  0.00000000000E+00  0.00000000000E+00  0.92680229580E+01  0.92680229580E+01  0.00000000000E+00 0. -1.
         21   -1    0    0  503  502 -0.00000000000E+00 -0.00000000000E+00 -0.62492642076E+03  0.62492642076E+03  0.00000000000E+00 0.  1.
         21    1    1    2  503  501 -0.26422051437E+02 -0.84540449105E+01 -0.12549877704E+02  0.30448236531E+02  0.00000000000E+00 0. -1.
         21    1    1    2  504  502  0.26422051437E+02  0.84540449105E+01 -0.60310852010E+03  0.60374620719E+03  0.00000000000E+00 0.  1.
</event>
<event>
 4    1  0.3283867E+006  0.2080740E+02  0.7546771E-02  0.1522033E+00
         21   -1    0    0  502  501  0.00000000000E+00  0.00000000000E+00  0.12592634890E+02  0.12592634890E+02  0.00000000000E+00 0. -1.
         21   -1    0    0  504  502 -0.00000000000E+00 -0.00000000000E+00 -0.39457317408E+03  0.39457317408E+03  0.00000000000E+00 0.  1.
         21    1    1    2  503  501 -0.16914983849E+02 -0.12117389156E+02  0.35209445047E+01  0.21103195227E+02  0.00000000000E+00 0. -1.
         21    1    1    2  504  503  0.16914983849E+02  0.12117389156E+02 -0.38550148370E+03  0.38606261375E+03  0.00000000000E+00 0.  1.
</event>
<event>
 4    1  0.3283867E+006  0.3509281E+02  0.7546771E-02  0.1379912E+00
         21   -1    0    0  503  501  0.00000000000E+00  0.00000000000E+00  0.25481119608E+01  0.25481119608E+01  0.00000000000E+00 0. -1.
         21   -1    0    0  504  502 -0.00000000000E+00 -0.00000000000E+00 -0.50693147560E+03  0.50693147560E+03  0.00000000000E+00 0.  1.
         21    1    1    2  503  502 -0.24385405761E+02 -0.25236035506E+02 -0.30719093548E+03  0.30918890074E+03  0.00000000000E+00 0.  1.
         21    1    1    2  504  501  0.24385405761E+02  0.25236035506E+02 -0.19719242816E+03  0.20029068681E+03  0.00000000000E+00 0. -1.
</event>
<event>
 4    1  0.3283867E+006  0.3314014E+02  0.7546771E-02  0.1394132E+00
         21   -1    0    0  502  501  0.00000000000E+00  0.00000000000E+00  0.67953715401E+01  0.67953715401E+01  0.00000000000E+00 0. -1.
         21   -1    0    0  503  502 -0.00000000000E+00 -0.00000000000E+00 -0.49209926499E+03  0.49209926499E+03  0.00000000000E+00 0.  1.
         21    1    1    2  503  504  0.32138415579E+02  0.80864956950E+01 -0.44707245849E+03  0.44829906570E+03  0.00000000000E+00 0.  1.
         21    1    1    2  504  501 -0.32138415579E+02 -0.80864956950E+01 -0.38231434968E+02  0.50595570837E+02  0.00000000000E+00 0. -1.
</event>
<event>
 4    1  0.3283867E+006  0.2177945E+02  0.7546771E-02  0.1508421E+00
         21   -1    0    0  504  501  0.00000000000E+00  0.00000000000E+00  0.36401790927E+02  0.36401790927E+02  0.00000000000E+00 0.  1.
         21   -1    0    0  503  502 -0.00000000000E+00 -0.00000000000E+00 -0.15781610767E+02  0.15781610767E+02  0.00000000000E+00 0.  1.
         21    1    1    2  503  501  0.21778980528E+02 -0.14302459286E+00 -0.58315068023E+00  0.21787255761E+02  0.00000000000E+00 0.  1.
         21    1    1    2  504  502 -0.21778980528E+02  0.14302459286E+00  0.21203330840E+02  0.30396145933E+02  0.00000000000E+00 0.  1.
</event>
<event>
 4    1  0.3283867E+006  0.3713890E+02  0.7546771E-02  0.1366120E+00
         21   -1    0    0  504  501  0.00000000000E+00  0.00000000000E+00  0.52668382748E+03  0.52668382748E+03  0.00000000000E+00 0. -1.
         21   -1    0    0  503  502 -0.00000000000E+00 -0.00000000000E+00 -0.62870655250E+02  0.62870655250E+02  0.00000000000E+00 0.  1.
         21    1    1    2  503  501 -0.20633232883E+02 -0.30879894013E+02 -0.56665980417E+02  0.67751985138E+02  0.00000000000E+00 0.  1.
         21    1    1    2  504  502  0.20633232883E+02  0.30879894013E+02  0.52047915264E+03  0.52180249759E+03  0.00000000000E+00 0. -1.
</event>
<event>
 4    1  0.3283867E+006  0.2060734E+02  0.7546771E-02  0.1524945E+00
         21   -1    0    0  504  501  0.00000000000E+00  0.00000000000E+00  0.29646861342E+01  0.29646861342E+01  0.00000000000E+00 0.  1.
         21   -1    0    0  503  502 -0.00000000000E+00 -0.00000000000E+00 -0.14595771789E+03  0.14595771789E+03  0.00000000000E+00 0.  1.
         21    1    1    2  503  501  0.18091650041E+02 -0.98668524262E+01 -0.61336521542E+02  0.64705729675E+02  0.00000000000E+00 0.  1.
         21    1    1    2  504  502 -0.18091650041E+02  0.98668524262E+01 -0.81656510212E+02  0.84216674347E+02  0.00000000000E+00 0.  1.
</event>
<event>
 4    1  0.3283867E+006  0.2611461E+02  0.7546771E-02  0.1456711E+00
         21   -1    0    0  504  501  0.00000000000E+00  0.00000000000E+00  0.76231585929E+01  0.76231585929E+01  0.00000000000E+00 0. -1.
         21   -1    0    0  503  502 -0.00000000000E+00 -0.00000000000E+00 -0.89902390466E+02  0.89902390466E+02  0.00000000000E+00 0. -1.
         21    1    1    2  503  501 -0.11184712019E+02 -0.23598198348E+02 -0.44557715755E+02  0.51646517613E+02  0.00000000000E+00 0. -1.
         21    1    1    2  504  502  0.11184712019E+02  0.23598198348E+02 -0.37721516118E+02  0.45879031446E+02  0.00000000000E+00 0. -1.
</event>
<event>
 4    1  0.3283867E+006  0.2179921E+02  0.7546771E-02  0.1508153E+00
         21   -1    0    0  502  501  0.00000000000E+00  0.00000000000E+00  0.16273580622E+03  0.16273580622E+03  0.00000000000E+00 0.  1.
         21   -1    0    0  504  502 -0.00000000000E+00 -0.00000000000E+00 -0.19356592445E+02  0.19356592445E+02  0.00000000000E+00 0. -1.
         21    1    1    2  503  501 -0.15854024832E+01  0.21741485475E+02  0.15558765754E+03  0.15710736733E+03  0.00000000000E+00 0.  1.
         21    1    1    2  504  503  0.15854024832E+01 -0.21741485475E+02 -0.12208443763E+02  0.24985031334E+02  0.00000000000E+00 0. -1.
</event>
<event>
 4    1  0.3283867E+006  0.2067426E+02  0.7546771E-02  0.1523967E+00
         21   -1    0    0  504  501  0.00000000000E+00  0.00000000000E+00  0.27863323767E+02  0.27863323767E+02  0.00000000000E+00 0. -1.
         21   -1    0    0  501  502 -0.00000000000E+00 -0.00000000000E+00 -0.41151384377E+02  0.41151384377E+02  0.00000000000E+00 0.  1.
         21    1    1    2  503  502  0.20563856671E+02  0.21337728643E+01 -0.33973080631E+02  0.39769277029E+02  0.00000000000E+00 0.  1.
         21    1    1    2  504  503 -0.20563856671E+02 -0.21337728643E+01  0.20685020022E+02  0.29245431115E+02  0.00000000000E+00 0. -1.
</event>
<event>
 4    1  0.3283867E+006  0.2575305E+02  0.7546771E-02  0.1460553E+00
         21   -1    0    0  502  501  0.00000000000E+00  0.00000000000E+00  0.30250110891E+02  0.30250110891E+02  0.00000000000E+00 0. -1.
         21   -1    0    0  504  502 -0.00000000000E+00 -0.00000000000E+00 -0.16829583936E+03  0.16829583936E+03  0.00000000000E+00 0.  1.
         21    1    1    2  503  501 -0.35084100181E+01  0.25512950004E+02  0.23558232678E+02  0.34902863574E+02  0.00000000000E+00 0. -1.
         21    1    1    2  504  503  0.35084100181E+01 -0.25512950004E+02 -0.16160396115E+03  0.16364308668E+03  0.00000000000E+00 0.  1.
</event>
<event>
 4    1  0.3283867E+006  0.2337244E+02  0.7546771E-02  0.1487874E+00
         21   -1    0    0  502  501  0.00000000000E+00  0.00000000000E+00  0.26071007721E+01  0.26071007721E+01  0.00000000000E+00 0. -1.
         21   -1    0    0  504  502 -0.00000000000E+00 -0.00000000000E+00 -0.52039835242E+03  0.52039835242E+03  0.00000000000E+00 0.  1.
         21    1    1    2  503  501 -0.10232713816E+01 -0.23350028413E+02 -0.56782202562E+02  0.61404311242E+02  0.00000000000E+00 0. -1.
         21    1    1    2  504  503  0.10232713816E+01  0.23350028413E+02 -0.46100904909E+03  0.46160114195E+03  0.00000000000E+00 0.  1.
</event>
<event>
 4    1  0.3283867E+006  0.2220677E+02  0.7546771E-02  0.1502706E+00
         21   -1    0    0  502  501  0.00000000000E+00  0.00000000000E+00  0.37312495971E+02  0.37312495971E+02  0.00000000000E+00 0. -1.
         21   -1    0    0  504  502 -0.00000000000E+00 -0.00000000000E+00 -0.33384346166E+02  0.33384346166E+02  0.00000000000E+00 0. -1.
         21    1    1    2  503  501 -0.45289566138E+01  0.21740039673E+02  0.29438479727E+02  0.36874989649E+02  0.00000000000E+00 0. -1.
         21    1    1    2  504  503  0.45289566138E+01 -0.21740039673E+02 -0.25510329921E+02  0.33821852488E+02  0.00000000000E+00 0. -1.
</event>
<event>
 4    1  0.3283867E+006  0.2013979E+02  0.7546771E-02  0.1531909E+00
         21   -1    0    0  503  501  0.00000000000E+00  0.00000000000E+00  0.63361500601E+03  0.63361500601E+03  0.00000000000E+00 0. -1.
         21   -1    0    0  501  502 -0.00000000000E+00 -0.00000000000E+00 -0.30258198322E+01  0.30258198322E+01  0.00000000000E+00 0. -1.
         21    1    1    2  503  504  0.13010315545E+00 -0.20139368686E+02  0.59794380191E+03  0.59828287736E+03  0.00000000000E+00 0. -1.
         21    1    1    2  504  502 -0.13010315545E+00  0.20139368686E+02  0.32645384269E+02  0.38357948485E+02  0.00000000000E+00 0. -1.
</event>
<event>
 4    1  0.3283867E+006  0.4298702E+02  0.7546771E-02  0.1331818E+00
         21   -1    0    0  503  501  0.00000000000E+00  0.00000000000E+00  0.21873344552E+02  0.21873344552E+02  0.00000000000E+00 0.  1.
         21   -1    0    0  504  502 -0.00000000000E+00 -0.00000000000E+00 -0.84490631802E+02  0.84490631802E+02  0.00000000000E+00 0.  1.
         21    1    1    2  503  502  0.17849801978E+02  0.39105866612E+02 -0.30743809374E+02  0.52849465929E+02  0.00000000000E+00 0.  1.
         21    1    1    2  504  501 -0.17849801978E+02 -0.39105866612E+02 -0.31873477875E+02  0.53514510425E+02  0.00000000000E+00 0.  1.
</event>
<event>
 4    1  0.3283867E+006  0.3111491E+02  0.7546771E-02  0.1410149E+00
         21   -1    0    0  503  501  0.00000000000E+00  0.00000000000E+00  0.15683026757E+02  0.15683026757E+02  0.00000000000E+00 0.  1.
         21   -1    0    0  504  502 -0.00000000000E+00 -0.00000000000E+00 -0.11005597498E+03  0.11005597498E+03  0.00000000000E+00 0. -1.
         21    1    1    2  503  502 -0.30765973549E+02  0.46467560870E+01 -0.55267326859E+01  0.31601934193E+02  0.00000000000E+00 0.  1.
         21    1    1    2  504  501  0.30765973549E+02 -0.46467560870E+01 -0.88846215537E+02  0.94137067544E+02  0.00000000000E+00 0. -1.
</event>
<event>
 4    1  0.3283867E+006  0.2519417E+02  0.7546771E-02  0.1466643E+00
         21   -1    0    0  504  501  0.00000000000E+00  0.00000000000E+00  0.17709834222E+03  0.17709834222E+03  0.00000000000E+00 0. -1.
         21   -1    0    0  503  502 -0.00000000000E+00 -0.00000000000E+00 -0.91226752621E+01  0.91226752621E+01  0.00000000000E+00 0. -1.
         21    1    1    2  503  501  0.21084236838E+02  0.13791347748E+02  0.15653739948E+03  0.15855189609E+03  0.00000000000E+00 0. -1.
         21    1    1    2  504  502 -0.21084236838E+02 -0.13791347748E+02  0.11438267468E+02  0.27669121389E+02  0.00000000000E+00 0. -1.
</event>
<event>
 4    1  0.3283867E+006  0.2529708E+02  0.7546771E-02  0.1465507E+00
         21   -1    0    0  504  501  0.00000000000E+00  0.00000000000E+00  0.30582983741E+03  0.30582983741E+03  0.00000000000E+00 0.  1.
         21   -1    0    0  503  502 -0.00000000000E+00 -0.00000000000E+00 -0.95420593134E+01  0.95420593134E+01  0.00000000000E+00 0. -1.
         21    1    1    2  503  501  0.25275296456E+02 -0.10496471075E+01  0.28747171335E+03  0.28858261962E+03  0.00000000000E+00 0.  1.
         21    1    1    2  504  502 -0.25275296456E+02  0.10496471075E+01  0.88160647430E+01  0.26789277100E+02  0.00000000000E+00 0. -1.
</event>
<event>
 4    1  0.3283867E+006  0.6330531E+02  0.7546771E-02  0.1248998E+00
         21   -1    0    0  504  501  0.00000000000E+00  0.00000000000E+00  0.39302020218E+02  0.39302020218E+02  0.00000000000E+00 0.  1.
         21   -1    0    0  503  502 -0.00000000000E+00 -0.00000000000E+00 -0.11094855807E+03  0.11094855807E+03  0.00000000000E+00 0.  1.
         21    1    1    2  503  501  0.80242127126E+01  0.62794701381E+02 -0.14450130188E+02  0.64933572007E+02  0.00000000000E+00 0.  1.
         21    1    1    2  504  502 -0.80242127126E+01 -0.62794701381E+02 -0.57196407668E+02  0.85317006284E+02  0.00000000000E+00 0.  1.
</event>
<event>
 4    1  0.3283867E+006  0.2732906E+02  0.7546771E-02  0.1444330E+00
         21   -1    0    0  504  501  0.00000000000E+00  0.00000000000E+00  0.70055468780E+02  0.70055468780E+02  0.00000000000E+00 0.  1.
         21   -1    0    0  503  502 -0.00000000000E+00 -0.00000000000E+00 -0.24941885682E+02  0.24941885682E+02  0.00000000000E+00 0.  1.
         21    1    1    2  503  501  0.46967284437E+01  0.26922448002E+02  0.58497857003E+02  0.64566839309E+02  0.00000000000E+00 0.  1.
         21    1    1    2  504  502 -0.46967284437E+01 -0.26922448002E+02 -0.13384273905E+02  0.30430515153E+02  0.00000000000E+00 0.  1.
</event>
<event>
 4    1  0.3283867E+006  0.2441568E+02  0.7546771E-02  0.1475447E+00
         21   -1    0    0  502  501  0.00000000000E+00  0.00000000000E+00  0.10336766951E+03  0.10336766951E+03  0.00000000000E+00 0. -1.
         21   -1    0    0  503  502 -0.00000000000E+00 -0.00000000000E+00 -0.71998402146E+02  0.71998402146E+02  0.00000000000E+00 0. -1.
         21    1    1    2  503  504  0.14702309002E+02  0.19492760105E+02 -0.68413428556E+02  0.72639677816E+02  0.00000000000E+00 0. -1.
         21    1    1    2  504  501 -0.14702309002E+02 -0.19492760105E+02  0.99782695924E+02  0.10272639385E+03  0.00000000000E+00 0. -1.
</event>
<event>
 4    1  0.3283867E+006  0.4635290E+02  0.7546771E-02  0.1314810E+00
         21   -1    0    0  504  501  0.00000000000E+00  0.00000000000E+00  0.60421140038E+01  0.60421140038E+01  0.00000000000E+00 0.  1.
         21   -1    0    0  503  502 -0.00000000000E+00 -0.00000000000E+00 -0.35776320741E+03  0.35776320741E+03  0.00000000000E+00 0.  1.
         21    1    1    2  503  501  0.30997881623E+02 -0.34463353456E+02 -0.16172443330E+03  0.16823609519E+03  0.00000000000E+00 0.  1.
         21    1    1    2  504  502 -0.30997881623E+02  0.34463353456E+02 -0.18999666010E+03  0.19556922622E+03  0.00000000000E+00 0.  1.
</event>
<event>
 4    1  0.3283867E+006  0.3042057E+02  0.7546771E-02  0.1415976E+00
         21   -1    0    0  503  501  0.00000000000E+00  0.00000000000E+00  0.88006478530E+03  0.88006478530E+03  0.00000000000E+00 0. -1.
         21   -1    0    0  504  502 -0.00000000000E+00 -0.00000000000E+00 -0.10538970678E+01  0.10538970678E+01  0.00000000000E+00 0. -1.
         21    1    1    2  503  502 -0.16656345055E+02 -0.25455400148E+02  0.46040100390E+03  0.46140491504E+03  0.00000000000E+00 0. -1.
         21    1    1    2  504  501  0.16656345055E+02  0.25455400148E+02  0.41860988433E+03  0.41971376733E+03  0.00000000000E+00 0. -1.
</event>
<event>
 4    1  0.3283867E+006  0.2065742E+02  0.7546771E-02  0.1524213E+00
         21   -1    0    0  504  501  0.00000000000E+00  0.00000000000E+00  0.58516470540E+02  0.58516470540E+02  0.00000000000E+00 0. -1.
         21   -1    0    0  503  502 -0.00000000000E+00 -0.00000000000E+00 -0.96952209708E+01  0.96952209708E+01  0.00000000000E+00 0. -1.
         21    1    1    2  503  501 -0.13959185529E+02 -0.15227280773E+02  0.41389361592E+02  0.46258060848E+02  0.00000000000E+00 0. -1.
         21    1    1    2  504  502  0.13959185529E+02  0.15227280773E+02  0.74318879764E+01  0.21953630663E+02  0.00000000000E+00 0. -1.
</event>
<event>
 4    1  0.3283867E+006  0.2151526E+02  0.7546771E-02  0.1512034E+00
         21   -1    0    0  503  501  0.00000000000E+00  0.00000000000E+00  0.88197996046E+01  0.88197996046E+01  0.00000000000E+00 0.  1.
         21   -1    0    0  504  502 -0.00000000000E+00 -0.00000000000E+00 -0.64431375768E+02  0.64431375768E+02  0.00000000000E+00 0.  1.
         21    1    1    2  503  502 -0.17753164084E+02  0.12154483710E+02 -0.43576662897E+02  0.48598681654E+02  0.00000000000E+00 0.  1.
         21    1    1    2  504  501  0.17753164084E+02 -0.12154483710E+02 -0.12034913266E+02  0.24652493719E+02  0.00000000000E+00 0.  1.
</event>
<event>
 4    1  0.3283867E+006  0.2323623E+02  0.7546771E-02  0.1489553E+00
         21   -1    0    0  503  501  0.00000000000E+00  0.00000000000E+00  0.45386002931E+03  0.45386002931E+03  0.00000000000E+00 0.  1.
         21   -1    0    0  504  502 -0.00000000000E+00 -0.00000000000E+00 -0.46947327330E+01  0.46947327330E+01  0.00000000000E+00 0.  1.
         21    1    1    2  503  502 -0.14219914540E+02  0.18377063138E+02  0.42269272802E+03  0.42333091635E+03  0.00000000000E+00 0.  1.
         21    1    1    2  504  501  0.14219914540E+02 -0.18377063138E+02  0.26472568553E+02  0.35223845686E+02  0.00000000000E+00 0.  1.
</event>
<event>
 4    1  0.3283867E+006  0.2520838E+02  0.7546771E-02  0.1466486E+00
         21   -1    0    0  503  501  0.00000000000E+00  0.00000000000E+00  0.38466428266E+03  0.38466428266E+03  0.00000000000E+00 0. -1.
         21   -1    0    0  504  502 -0.00000000000E+00 -0.00000000000E+00 -0.59956031414E+02  0.59956031414E+02  0.00000000000E+00 0.  1.
         21    1    1    2  503  502 -0.18932275050E+02 -0.16644260148E+02  0.38158019002E+03  0.38241195568E+03  0.00000000000E+00 0. -1.
         21    1    1    2  504  501  0.18932275050E+02  0.16644260148E+02 -0.56871938771E+02  0.62208358393E+02  0.00000000000E+00 0.  1.
</event>
<event>
 4    1  0.3283867E+006  0.2574545E+02  0.7546771E-02  0.1460634E+00
         21   -1    0    0  504  501  0.00000000000E+00  0.00000000000E+00  0.19035467733E+03  0.19035467733E+03  0.00000000000E+00 0. -1.
         21   -1    0    0  503  502 -0.00000000000E+00 -0.00000000000E+00 -0.58431612983E+01  0.58431612983E+01  0.00000000000E+00 0.  1.
         21    1    1    2  503  501  0.50103019159E+01 -0.25253217577E+02  0.15461441694E+03  0.15674324881E+03  0.00000000000E+00 0. -1.
         21    1    1    2  504  502 -0.50103019159E+01  0.25253217577E+02  0.29897099092E+02  0.39454589814E+02  0.00000000000E+00 0.  1.
</event>
<event>
 4    1  0.3283867E+006  0.2112663E+02  0.7546771E-02  0.1517464E+00
         21   -1    0    0  504  501  0.00000000000E+00  0.00000000000E+00  0.51427418479E+02  0.51427418479E+02  0.00000000000E+00 0. -1.
         21   -1    0    0  503  502 -0.00000000000E+00 -0.00000000000E+00 -0.14192236742E+02  0.14192236742E+02  0.00000000000E+00 0.  1.
         21    1    1    2  503  501  0.16288348628E+02  0.13454525077E+02  0.39067195874E+02  0.44413740436E+02  0.00000000000E+00 0. -1.
         21    1    1    2  504  502 -0.16288348628E+02 -0.13454525077E+02 -0.18320141367E+01  0.21205914785E+02  0.00000000000E+00 0.  1.
</event>
<event>
 4    1  0.3283867E+006  0.2724236E+02  0.7546771E-02  0.1445189E+00
         21   -1    0    0  504  501  0.00000000000E+00  0.00000000000E+00  0.37345911648E+03  0.37345911648E+03  0.00000000000E+00 0.  1.
         21   -1    0    0  503  502 -0.00000000000E+00 -0.00000000000E+00 -0.42293163265E+02  0.42293163265E+02  0.00000000000E+00 0. -1.
         21    1    1    2  503  501 -0.26821691927E+02  0.47689358245E+01  0.36851664069E+03  0.36952220552E+03  0.00000000000E+00 0.  1.
         21    1    1    2  504  502  0.26821691927E+02 -0.47689358245E+01 -0.37350687483E+02  0.46230074217E+02  0.00000000000E+00 0. -1.
</event>
<event>
 4    1  0.3283867E+006  0.2019154E+02  0.7546771E-02  0.1531128E+00
         21   -1    0    0  502  501  0.00000000000E+00  0.00000000000E+00  0.42526339064E+01  0.42526339064E+01  0.00000000000E+00 0.  1.
         21   -1    0    0  503  502 -0.00000000000E+00 -0.00000000000E+00 -0.99052926586E+02  0.99052926586E+02  0.00000000000E+00 0.  1.
         21    1    1    2  503  504  0.91348881648E+01 -0.18006997789E+02 -0.56659980692E+02  0.60150241589E+02  0.00000000000E+00 0.  1.
         21    1    1    2  504  501 -0.91348881648E+01  0.18006997789E+02 -0.38140311987E+02  0.43155318903E+02  0.00000000000E+00 0.  1.
</event>
<event>
 4    1  0.3283867E+006  0.3510422E+02  0.7546771E-02  0.1379832E+00
         21   -1    0    0  503  501  0.00000000000E+00  0.00000000000E+00  0.14313673719E+02  0.14313673719E+02  0.00000000000E+00 0.  1.
         21   -1    0    0  504  502 -0.00000000000E+00 -0.00000000000E+00 -0.95848645772E+02  0.95848645772E+02  0.00000000000E+00 0.  1.
         21    1    1    2  503  502 -0.46867073046E+00 -0.35101090747E+02 -0.23194746293E+02  0.42074962620E+02  0.00000000000E+00 0.  1.
         21    1    1    2  504  501  0.46867073046E+00  0.35101090747E+02 -0.58340225760E+02  0.68087356870E+02  0.00000000000E+00 0.  1.
</event>
<event>
 4    1  0.3283867E+006  0.2899157E+02  0.7546771E-02  0.1428567E+00
         21   -1    0    0  504  501  0.00000000000E+00  0.00000000000E+00  0.14347808795E+02  0.14347808795E+02  0.00000000000E+00 0.  1.
         21   -1    0    0  503  502 -0.00000000000E+00 -0.00000000000E+00 -0.60183383051E+02  0.60183383051E+02  0.00000000000E+00 0.  1.
         21    1    1    2  503  501  0.27532525848E+02 -0.90813588870E+01 -0.28998204264E+02  0.41004962009E+02  0.00000000000E+00 0.  1.
         21    1    1    2  504  502 -0.27532525848E+02  0.90813588870E+01 -0.16837369991E+02  0.33526229836E+02  0.00000000000E+00 0.  1.
</event>
<event>
 4    1  0.3283867E+006  0.2359948E+02  0.7546771E-02  0.1485105E+00
         21   -1    0    0  504  501  0.00000000000E+00  0.00000000000E+00  0.55732818431E+01  0.55732818431E+01  0.00000000000E+00 0. -1.
         21   -1    0    0  503  502 -0.00000000000E+00 -0.00000000000E+00 -0.15948290295E+03  0.15948290295E+03  0.00000000000E+00 0. -1.
         21    1    1    2  503  501 -0.14998770791E+02  0.18220111666E+02 -0.12738583825E+03  0.12955341516E+03  0.00000000000E+00 0. -1.
         21    1    1    2  504  502  0.14998770791E+02 -0.18220111666E+02 -0.26523782866E+02  0.35502769637E+02  0.00000000000E+00 0. -1.
</event>
<event>
 4    1  0.3283867E+006  0.2397003E+02  0.7546771E-02  0.1480664E+00
         21   -1    0    0  503  501  0.00000000000E+00  0.00000000000E+00  0.24791682667E+02  0.24791682667E+02  0.00000000000E+00 0.  1.
         21   -1    0    0  504  502 -0.00000000000E+00 -0.00000000000E+00 -0.23185528576E+02  0.23185528576E+02  0.00000000000E+00 0.  1.
         21    1    1    2  503  502  0.23613074333E+02  0.41213210586E+01  0.12990365872E+01  0.24005209076E+02  0.00000000000E+00 0.  1.
         21    1    1    2  504  501 -0.23613074333E+02 -0.41213210586E+01  0.30711750336E+00  0.23972002167E+02  0.00000000000E+00 0.  1.
</event>
<event>
 4    1  0.3283867E+006  0.2151619E+02  0.7546771E-02  0.1512021E+00
         21   -1    0    0  503  501  0.00000000000E+00  0.00000000000E+00  0.25723897773E+02  0.25723897773E+02  0.00000000000E+00 0. -1.
         21   -1    0    0  504  502 -0.00000000000E+00 -0.00000000000E+00 -0.28031957477E+02  0.28031957477E+02  0.00000000000E+00 0. -1.
         21    1    1    2  503  502 -0.20776113170E+02 -0.55945845517E+01  0.14927690275E+02  0.26187443397E+02  0.00000000000E+00 0. -1.
         21    1    1    2  504  501  0.20776113170E+02  0.55945845517E+01 -0.17235749979E+02  0.27568411853E+02  0.00000000000E+00 0. -1.
</event>
<event>
 4    1  0.3283867E+006  0.2454127E+02  0.7546771E-02  0.1474001E+00
         21   -1    0    0  503  501  0.00000000000E+00  0.00000000000E+00  0.42088816480E+03  0.42088816480E+03  0.00000000000E+00 0. -1.
         21   -1    0    0  504  502 -0.00000000000E+00 -0.00000000000E+00 -0.34766570747E+01  0.34766570747E+01  0.00000000000E+00 0. -1.
         21    1    1    2  503  502  0.17543414414E+02 -0.17161081141E+02  0.45945213716E+02  0.52088739269E+02  0.00000000000E+00 0. -1.
         21    1    1    2  504  501 -0.17543414414E+02  0.17161081141E+02  0.37146629401E+03  0.37227608261E+03  0.00000000000E+00 0. -1.
</event>
<event>
 4    1  0.3283867E+006  0.2107875E+02  0.7546771E-02  0.1518143E+00
         21   -1    0    0  504  501  0.00000000000E+00  0.00000000000E+00  0.22847796424E+02  0.22847796424E+02  0.00000000000E+00 0. -1.
         21   -1    0    0  503  502 -0.00000000000E+00 -0.00000000000E+00 -0.65417247767E+02  0.65417247767E+02  0.00000000000E+00 0. -1.
         21    1    1    2  503  501 -0.14123724088E+02 -0.15647172482E+02  0.15711088349E+02  0.26289767704E+02  0.00000000000E+00 0. -1.
         21    1    1    2  504  502  0.14123724088E+02  0.15647172482E+02 -0.58280539693E+02  0.61975276487E+02  0.00000000000E+00 0. -1.
</event>
<event>
 4    1  0.3283867E+006  0.2369011E+02  0.7546771E-02  0.1484010E+00
         21   -1    0    0  504  501  0.00000000000E+00  0.00000000000E+00  0.49712118464E+01  0.49712118464E+01  0.00000000000E+00 0.  1.
         21   -1    0    0  501  502 -0.00000000000E+00 -0.00000000000E+00 -0.15440970998E+03  0.15440970998E+03  0.00000000000E+00 0.  1.
         21    1    1    2  503  502  0.26010393302E+01  0.23546883988E+02 -0.11604055592E+03  0.11843408196E+03  0.00000000000E+00 0.  1.
         21    1    1    2  504  503 -0.26010393302E+01 -0.23546883988E+02 -0.33397942218E+02  0.40946839872E+02  0.00000000000E+00 0.  1.
</event>
<event>
 4    1  0.3283867E+006  0.2103489E+02  0.7546771E-02  0.1518767E+00
         21   -1    0    0  504  501  0.00000000000E+00  0.00000000000E+00  0.14021878408E+02  0.14021878408E+02  0.00000000000E+00 0.  1.
         21   -1    0    0  503  502 -0.00000000000E+00 -0.00000000000E+00 -0.32221422933E+02  0.32221422933E+02  0.00000000000E+00 0.  1.
         21    1    1    2  503  501  0.16366213763E+02 -0.13214139173E+02 -0.57756214442E+01  0.21813395657E+02  0.00000000000E+00 0.  1.
         21    1    1    2  504  502 -0.16366213763E+02  0.13214139173E+02 -0.12423923081E+02  0.24429905684E+02  0.00000000000E+00 0.  1.
</event>
<event>
 4    1  0.3283867E+006  0.2249209E+02  0.7546771E-02  0.1498976E+00
         21   -1    0    0  504  501  0.00000000000E+00  0.00000000000E+00  0.15087034526E+03  0.15087034526E+03  0.00000000000E+00 0. -1.
         21   -1    0    0  501  502 -0.00000000000E+00 -0.00000000000E+00 -0.90766919383E+01  0.90766919383E+01  0.00000000000E+00 0.  1.
         21    1    1    2  503  502  0.20675648725E+02 -0.88550247577E+01  0.73909255743E+01  0.23675297136E+02  0.00000000000E+00 0.  1.
         21    1    1    2  504  503 -0.20675648725E+02  0.88550247577E+01  0.13440272775E+03  0.13627174006E+03  0.00000000000E+00 0. -1.
</event>
<event>
 4    1  0.3283867E+006  0.2078582E+02  0.7546771E-02  0.1522345E+00
         21   -1    0    0  503  501  0.00000000000E+00  0.00000000000E+00  0.86058459905E+03  0.86058459905E+03  0.00000000000E+00 0.  1.
         21   -1    0    0  504  502 -0.00000000000E+00 -0.00000000000E+00 -0.43682168977E+02  0.43682168977E+02  0.00000000000E+00 0. -1.
         21    1    1    2  503  502  0.92244678340E+01  0.18626846438E+02 -0.41076457662E+02  0.46036133516E+02  0.00000000000E+00 0. -1.
         21    1    1    2  504  501 -0.92244678340E+01 -0.18626846438E+02  0.85797888773E+03  0.85823063451E+03  0.00000000000E+00 0.  1.
</event>
<event>
 4    1  0.3283867E+006  0.3592883E+02  0.7546771E-02  0.1374148E+00
         21   -1    0    0  502  501  0.00000000000E+00  0.00000000000E+00  0.87697853127E+02  0.87697853127E+02  0.00000000000E+00 0.  1.
         21   -1    0    0  503  502 -0.00000000000E+00 -0.00000000000E+00 -0.47091210048E+02  0.47091210048E+02  0.00000000000E+00 0. -1.
         21    1    1    2  503  504  0.33298124669E+02 -0.13495030633E+02 -0.35574131962E+02  0.50560852674E+02  0.00000000000E+00 0. -1.
         21    1    1    2  504  501 -0.33298124669E+02  0.13495030633E+02  0.76180775041E+02  0.84228210501E+02  0.00000000000E+00 0.  1.
</event>
<event>
 4    1  0.3283867E+006  0.2540886E+02  0.7546771E-02  0.1464281E+00
         21   -1    0    0  503  501  0.00000000000E+00  0.00000000000E+00  0.94952262606E+01  0.94952262606E+01  0.00000000000E+00 0. -1.
         21   -1    0    0  504  502 -0.00000000000E+00 -0.00000000000E+00 -0.98789637964E+02  0.98789637964E+02  0.00000000000E+00 0. -1.
         21    1    1    2  503  502 -0.23014965152E+02  0.10766679990E+02 -0.74876840671E+02  0.79070546272E+02  0.00000000000E+00 0. -1.
         21    1    1    2  504  501  0.23014965152E+02 -0.10766679990E+02 -0.14417571032E+02  0.29214317952E+02  0.00000000000E+00 0. -1.
</event>
<event>
 4    1  0.3283867E+006  0.6216166E+02  0.7546771E-02  0.1252660E+00
         21   -1    0    0  504  501  0.00000000000E+00  0.00000000000E+00  0.17847554685E+03  0.17847554685E+03  0.00000000000E+00 0. -1.
         21   -1    0    0  501  502 -0.00000000000E+00 -0.00000000000E+00 -0.30759565206E+02  0.30759565206E+02  0.00000000000E+00 0. -1.
         21    1    1    2  503  502  0.56920111163E+02  0.24983448781E+02  0.16926425625E+02  0.64424961406E+02  0.00000000000E+00 0. -1.
         21    1    1    2  504  503 -0.56920111163E+02 -0.24983448781E+02  0.13078955601E+03  0.14481015065E+03  0.00000000000E+00 0. -1.
</event>
<event>
 4    1  0.3283867E+006  0.2751914E+02  0.7546771E-02  0.1442462E+00
         21   -1    0    0  503  501  0.00000000000E+00  0.00000000000E+00  0.15150390725E+03  0.15150390725E+03  0.00000000000E+00 0.  1.
         21   -1    0    0  501  502 -0.00000000000E+00 -0.00000000000E+00 -0.28913584221E+02  0.28913584221E+02  0.00000000000E+00 0.  1.
         21    1    1    2  503  504 -0.21768487407E+02 -0.16835551137E+02  0.14333655039E+03  0.14595434048E+03  0.00000000000E+00 0.  1.
         21    1    1    2  504  502  0.21768487407E+02  0.16835551137E+02 -0.20746227367E+02  0.34463150988E+02  0.00000000000E+00 0.  1.
</event>
<event>
 4    1  0.3283867E+006  0.3126543E+02  0.7546771E-02  0.1408910E+00
         21   -1    0    0  503  501  0.00000000000E+00  0.00000000000E+00  0.18278164517E+03  0.18278164517E+03  0.00000000000E+00 0.  1.
         21   -1    0    0  501  502 -0.00000000000E+00 -0.00000000000E+00 -0.10980929821E+02  0.10980929821E+02  0.00000000000E+00 0. -1.
         21    1    1    2  503  504  0.30857675803E+02 -0.50330035384E+01  0.15528848794E+03  0.15840467722E+03  0.00000000000E+00 0.  1.
         21    1    1    2  504  502 -0.30857675803E+02  0.50330035384E+01  0.16512227418E+02  0.35357897773E+02  0.00000000000E+00 0. -1.
</event>
<event>
 4    1  0.3283867E+006  0.2017896E+02  0.7546771E-02  0.1531317E+00
         21   -1    0    0  502  501  0.00000000000E+00  0.00000000000E+00  0.38121240782E+02  0.38121240782E+02  0.00000000000E+00 0.  1.
         21   -1    0    0  503  502 -0.00000000000E+00 -0.00000000000E+00 -0.39110198564E+02  0.39110198564E+02  0.00000000000E+00 0.  1.
         21    1    1    2  503  504  0.15563234446E+02  0.12844301747E+02 -0.33417368704E+02  0.39037301199E+02  0.00000000000E+00 0.  1.
         21    1    1    2  504  501 -0.15563234446E+02 -0.12844301747E+02  0.32428410923E+02  0.38194138147E+02  0.00000000000E+00 0.  1.
</event>
<event>
 4    1  0.3283867E+006  0.2990180E+02  0.7546771E-02  0.1420452E+00
         21   -1    0    0  504  501  0.00000000000E+00  0.00000000000E+00  0.76498687422E+02  0.76498687422E+02  0.00000000000E+00 0. -1.
         21   -1    0    0  503  502 -0.00000000000E+00 -0.00000000000E+00 -0.32055637063E+03  0.32055637063E+03  0.00000000000E+00 0. -1.
         21    1    1    2  503  501 -0.29839768393E+02 -0.19251328845E+01 -0.31690344215E+03  0.31831102646E+03  0.00000000000E+00 0. -1.
         21    1    1    2  504  502  0.29839768393E+02  0.19251328845E+01  0.72845758950E+02  0.78744031592E+02  0.00000000000E+00 0. -1.
</event>
<event>
 4    1  0.3283867E+006  0.2283577E+02  0.7546771E-02  0.1494571E+00
         21   -1    0    0  504  501  0.00000000000E+00  0.00000000000E+00  0.15035106751E+02  0.15035106751E+02  0.00000000000E+00 0.  1.
         21   -1    0    0  501  502 -0.00000000000E+00 -0.00000000000E+00 -0.21791634115E+03  0.21791634115E+03  0.00000000000E+00 0.  1.
         21    1    1    2  503  502  0.17018730105E+02  0.15226132296E+02 -0.20824572122E+03  0.20949403973E+03  0.00000000000E+00 0.  1.
         21    1    1    2  504  503 -0.17018730105E+02 -0.15226132296E+02  0.53644868172E+01  0.23457408167E+02  0.00000000000E+00 0.  1.
</event>
<event>
 4    1  0.3283867E+006  0.2349819E+02  0.7546771E-02  0.1486335E+00
         21   -1    0    0  504  501  0.00000000000E+00  0.00000000000E+00  0.22765163719E+03  0.22765163719E+03  0.00000000000E+00 0. -1.
         21   -1    0    0  503  502 -0.00000000000E+00 -0.00000000000E+00 -0.24814546159E+01  0.24814546159E+01  0.00000000000E+00 0. -1.
         21    1    1    2  503  501 -0.20867386611E+02 -0.10803568581E+02  0.12986670232E+03  0.13197547230E+03  0.00000000000E+00 0. -1.
         21    1    1    2  504  502  0.20867386611E+02  0.10803568581E+02  0.95303480263E+02  0.98157619512E+02  0.00000000000E+00 0. -1.
</event>
<event>
 4    1  0.3283867E+006  0.2736159E+02  0.7546771E-02  0.1444009E+00
         21   -1    0    0  504  501  0.00000000000E+00  0.00000000000E+00  0.98284008510E+02  0.98284008510E+02  0.00000000000E+00 0. -1.
         21   -1    0    0  503  502 -0.00000000000E+00 -0.00000000000E+00 -0.84369164240E+01  0.84369164240E+01  0.00000000000E+00 0. -1.
         21    1    1    2  503  501  0.22560070632E+02 -0.15482244390E+02  0.28291767343E+02  0.39358363504E+02  0.00000000000E+00 0. -1.
         21    1    1    2  504  502 -0.22560070632E+02  0.15482244390E+02  0.61555324743E+02  0.67362561430E+02  0.00000000000E+00 0. -1.
</event>
<event>
 4    1  0.3283867E+006  0.2427055E+02  0.7546771E-02  0.1477132E+00
         21   -1    0    0  504  501  0.00000000000E+00  0.00000000000E+00  0.29401518299E+02  0.29401518299E+02  0.00000000000E+00 0. -1.
         21   -1    0    0  503  502 -0.00000000000E+00 -0.00000000000E+00 -0.13501507149E+03  0.13501507149E+03  0.00000000000E+00 0.  1.
         21    1    1    2  503  501 -0.68680503661E+01 -0.23278523159E+02  0.23057230929E+02  0.33476792774E+02  0.00000000000E+00 0. -1.
         21    1    1    2  504  502  0.68680503661E+01  0.23278523159E+02 -0.12867078412E+03  0.13093979702E+03  0.00000000000E+00 0.  1.
</event>
<event>
 4    1  0.3283867E+006  0.2245568E+02  0.7546771E-02  0.1499449E+00
         21   -1    0    0  504  501  0.00000000000E+00  0.00000000000E+00  0.16887908518E+03  0.16887908518E+03  0.00000000000E+00 0.  1.
         21   -1    0    0  503  502 -0.00000000000E+00 -0.00000000000E+00 -0.73695417133E+02  0.73695417133E+02  0.00000000000E+00 0.  1.
         21    1    1    2  503  501 -0.13975803706E+02  0.17576526173E+02 -0.71212921442E+02  0.74669522175E+02  0.00000000000E+00 0.  1.
         21    1    1    2  504  502  0.13975803706E+02 -0.17576526173E+02  0.16639658949E+03  0.16790498014E+03  0.00000000000E+00 0.  1.
</event>
<event>
 4    1  0.3283867E+006  0.3022302E+02  0.7546771E-02  0.1417668E+00
         21   -1    0    0  502  501  0.00000000000E+00  0.00000000000E+00  0.12963206233E+03  0.12963206233E+03  0.00000000000E+00 0. -1.
         21   -1    0    0  503  502 -0.00000000000E+00 -0.00000000000E+00 -0.15807972314E+02  0.15807972314E+02  0.00000000000E+00 0. -1.
         21    1    1    2  503  504  0.28768104889E+02  0.92642909410E+01  0.27732575430E+01  0.30349990164E+02  0.00000000000E+00 0. -1.
         21    1    1    2  504  501 -0.28768104889E+02 -0.92642909410E+01  0.11105083247E+03  0.11509004448E+03  0.00000000000E+00 0. -1.
</event>
<event>
 4    1  0.3283867E+006  0.2169368E+02  0.7546771E-02  0.1509587E+00
         21   -1    0    0  502  501  0.00000000000E+00  0.00000000000E+00  0.92700971903E+03  0.92700971903E+03  0.00000000000E+00 0.  1.
         21   -1    0    0  504  502 -0.00000000000E+00 -0.00000000000E+00 -0.32943645086E+03  0.32943645086E+03  0.00000000000E+00 0.  1.
         21    1    1    2  503  501 -0.13462529528E+02  0.17011057658E+02  0.92652547770E+03  0.92677941097E+03  0.00000000000E+00 0.  1.
         21    1    1    2  504  503  0.13462529528E+02 -0.17011057658E+02 -0.32895220953E+03  0.32966675892E+03  0.00000000000E+00 0.  1.
</event>
<event>
 4    1  0.3283867E+006  0.2299676E+02  0.7546771E-02  0.1492539E+00
         21   -1    0    0  504  501  0.00000000000E+00  0.00000000000E+00  0.77569910997E+03  0.77569910997E+03  0.00000000000E+00 0.  1.
         21   -1    0    0  503  502 -0.00000000000E+00 -0.00000000000E+00 -0.68768559442E+00  0.68768559442E+00  0.00000000000E+00 0.  1.
         21    1    1    2  503  501 -0.16320379805E+02  0.16201731088E+02  0.42350001792E+03  0.42412393951E+03  0.00000000000E+00 0.  1.
         21    1    1    2  504  502  0.16320379805E+02 -0.16201731088E+02  0.35151140645E+03  0.35226285605E+03  0.00000000000E+00 0.  1.
</event>
<event>
 4    1  0.3283867E+006  0.2132995E+02  0.7546771E-02  0.1514606E+00
         21   -1    0    0  503  501  0.00000000000E+00  0.00000000000E+00  0.25658102086E+01  0.25658102086E+01  0.00000000000E+00 0. -1.
         21   -1    0    0  501  502 -0.00000000000E+00 -0.00000000000E+00 -0.10082608138E+04  0.10082608138E+04  0.00000000000E+00 0. -1.
         21    1    1    2  503  504  0.17023164854E+02  0.12852188860E+02 -0.44024122632E+02  0.48919221924E+02  0.00000000000E+00 0. -1.
         21    1    1    2  504  502 -0.17023164854E+02 -0.12852188860E+02 -0.96167088092E+03  0.96190740205E+03  0.00000000000E+00 0. -1.
</event>
<event>
 4    1  0.3283867E+006  0.2199359E+02  0.7546771E-02  0.1505538E+00
         21   -1    0    0  504  501  0.00000000000E+00  0.00000000000E+00  0.63439082264E+01  0.63439082264E+01  0.00000000000E+00 0.  1.
         21   -1    0    0  503  502 -0.00000000000E+00 -0.00000000000E+00 -0.93968436555E+02  0.93968436555E+02  0.00000000000E+00 0. -1.
         21    1    1    2  503  501  0.20194981663E+02  0.87109637519E+01 -0.22032387690E+02  0.31131082236E+02  0.00000000000E+00 0.  1.
         21    1    1    2  504  502 -0.20194981663E+02 -0.87109637519E+01 -0.65592140638E+02  0.69181262545E+02  0.00000000000E+00 0. -1.
</event>
<event>
 4    1  0.3283867E+006  0.2014418E+02  0.7546771E-02  0.1531843E+00
         21   -1    0    0  502  501  0.00000000000E+00  0.00000000000E+00  0.25863018906E+02  0.25863018906E+02  0.00000000000E+00 0. -1.
         21   -1    0    0  504  502 -0.00000000000E+00 -0.00000000000E+00 -0.10702692542E+03  0.10702692542E+03  0.00000000000E+00 0. -1.
         21    1    1    2  503  501  0.12170936419E+02  0.16051673596E+02  0.20799766914E+02  0.28955452374E+02  0.00000000000E+00 0. -1.
         21    1    1    2  504  503 -0.12170936419E+02 -0.16051673596E+02 -0.10196367343E+03  0.10393449195E+03  0.00000000000E+00 0. -1.
</event>
<event>
 4    1  0.3283867E+006  0.3582230E+02  0.7546771E-02  0.1374873E+00
         21   -1    0    0  503  501  0.00000000000E+00  0.00000000000E+00  0.12558864699E+03  0.12558864699E+03  0.00000000000E+00 0.  1.
         21   -1    0    0  504  502 -0.00000000000E+00 -0.00000000000E+00 -0.10318263851E+02  0.10318263851E+02  0.00000000000E+00 0.  1.
         21    1    1    2  503  502  0.18385093132E+02  0.30744514517E+02  0.50929211333E+02  0.62265732063E+02  0.00000000000E+00 0.  1.
         21    1    1    2  504  501 -0.18385093132E+02 -0.30744514517E+02  0.64341171804E+02  0.73641178776E+02  0.00000000000E+00 0.  1.
</event>
<event>
 4    1  0.3283867E+006  0.3257974E+02  0.7546771E-02  0.1398426E+00
         21   -1    0    0  504  501  0.00000000000E+00  0.00000000000E+00  0.47297435829E+03  0.47297435829E+03  0.00000000000E+00 0. -1.
         21   -1    0    0  503  502 -0.00000000000E+00 -0.00000000000E+00 -0.28584554436E+01  0.28584554436E+01  0.00000000000E+00 0. -1.
         21    1    1    2  503  501 -0.29621016298E+02  0.13565949057E+02  0.34534900037E+03  0.34688235994E+03  0.00000000000E+00 0. -1.
         21    1    1    2  504  502  0.29621016298E+02 -0.13565949057E+02  0.12476690248E+03  0.12895045380E+03  0.00000000000E+00 0. -1.
</event>
<event>
 4    1  0.3283867E+006  0.2716159E+02  0.7546771E-02  0.1445992E+00
         21   -1    0    0  503  501  0.00000000000E+00  0.00000000000E+00  0.20793158547E+02  0.20793158547E+02  0.00000000000E+00 0. -1.
         21   -1    0    0  504  502 -0.00000000000E+00 -0.00000000000E+00 -0.72114083246E+02  0.72114083246E+02  0.00000000000E+00 0. -1.
         21    1    1    2  503  502 -0.13407580299E+02  0.23621781061E+02  0.74487769721E+01  0.28164446175E+02  0.00000000000E+00 0. -1.
         21    1    1    2  504  501  0.13407580299E+02 -0.23621781061E+02 -0.58769701670E+02  0.64742795618E+02  0.00000000000E+00 0. -1.
</event>
<event>
 4    1  0.3283867E+006  0.2456108E+02  0.7546771E-02  0.1473774E+00
         21   -1    0    0  503  501  0.00000000000E+00  0.00000000000E+00  0.22082392403E+03  0.22082392403E+03  0.00000000000E+00 0. -1.
         21   -1    0    0  504  502 -0.00000000000E+00 -0.00000000000E+00 -0.11263794870E+02  0.11263794870E+02  0.00000000000E+00 0. -1.
         21    1    1    2  503  502  0.24052168659E+02 -0.49739184542E+01  0.20577628092E+03  0.20723688009E+03  0.00000000000E+00 0. -1.
         21    1    1    2  504  501 -0.24052168659E+02  0.49739184542E+01  0.37838482438E+01  0.24850838810E+02  0.00000000000E+00 0. -1.
</event>
<event>
 4    1  0.3283867E+006  0.3784681E+02  0.7546771E-02  0.1361587E+00
         21   -1    0    0  504  501  0.00000000000E+00  0.00000000000E+00  0.15216305175E+02  0.15216305175E+02  0.00000000000E+00 0.  1.
         21   -1    0    0  503  502 -0.00000000000E+00 -0.00000000000E+00 -0.13748187954E+03  0.13748187954E+03  0.00000000000E+00 0.  1.
         21    1    1    2  503  501  0.26916730217E+02 -0.26605839408E+02 -0.10400362662E+03  0.11067581220E+03  0.00000000000E+00 0.  1.
         21    1    1    2  504  502 -0.26916730217E+02  0.26605839408E+02 -0.18261947744E+02  0.42022372513E+02  0.00000000000E+00 0.  1.
</event>
<event>
 4    1  0.3283867E+006  0.2372213E+02  0.7546771E-02  0.1483624E+00
         21   -1    0    0  503  501  0.00000000000E+00  0.00000000000E+00  0.78905367482E+02  0.78905367482E+02  0.00000000000E+00 0.  1.
         21   -1    0    0  504  502 -0.00000000000E+00 -0.00000000000E+00 -0.83366874483E+01  0.83366874483E+01  0.00000000000E+00 0.  1.
         21    1    1    2  503  502 -0.33952959078E+01  0.23477889086E+02  0.18701161374E+02  0.30207163836E+02  0.00000000000E+00 0.  1.
         21    1    1    2  504  501  0.33952959078E+01 -0.23477889086E+02  0.51867518660E+02  0.57034891095E+02  0.00000000000E+00 0.  1.
</event>
<event>
 4    1  0.3283867E+006  0.2846187E+02  0.7546771E-02  0.1433451E+00
         21   -1    0    0  504  501  0.00000000000E+00  0.00000000000E+00  0.44896507979E+02  0.44896507979E+02  0.00000000000E+00 0. -1.
         21   -1    0    0  503  502 -0.00000000000E+00 -0.00000000000E+00 -0.48772241819E+02  0.48772241819E+02  0.00000000000E+00 0.  1.
         21    1    1    2  503  501  0.28294483220E+02 -0.30822520566E+01  0.35237277124E+02  0.45296178178E+02  0.00000000000E+00 0. -1.
         21    1    1    2  504  502 -0.28294483220E+02  0.30822520566E+01 -0.39113010964E+02  0.48372571620E+02  0.00000000000E+00 0.  1.
</event>
<event>
 4    1  0.3283867E+006  0.3435133E+02  0.7546771E-02  0.1385182E+00
         21   -1    0    0  504  501  0.00000000000E+00  0.00000000000E+00  0.13731935606E+03  0.13731935606E+03  0.00000000000E+00 0.  1.
         21   -1    0    0  501  502 -0.00000000000E+00 -0.00000000000E+00 -0.19632269627E+02  0.19632269627E+02  0.00000000000E+00 0.  1.
         21    1    1    2  503  502 -0.33010169287E+02  0.95048851981E+01 -0.24096324056E-02  0.34351333668E+02  0.00000000000E+00 0.  1.
         21    1    1    2  504  503  0.33010169287E+02 -0.95048851981E+01  0.11768949607E+03  0.12260029202E+03  0.00000000000E+00 0.  1.
</event>
<event>
 4    1  0.3283867E+006  0.2658316E+02  0.7546771E-02  0.1451841E+00
         21   -1    0    0  502  501  0.00000000000E+00  0.00000000000E+00  0.18522896987E+02  0.18522896987E+02  0.00000000000E+00 0. -1.
         21   -1    0    0  504  502 -0.00000000000E+00 -0.00000000000E+00 -0.21217220830E+03  0.21217220830E+03  0.00000000000E+00 0.  1.
         21    1    1    2  503  501  0.45556853704E+01 -0.26189887840E+02  0.76390428265E+01  0.27658985332E+02  0.00000000000E+00 0. -1.
         21    1    1    2  504  503 -0.45556853704E+01  0.26189887840E+02 -0.20128835414E+03  0.20303611996E+03  0.00000000000E+00 0.  1.
</event>
<event>
 4    1  0.3283867E+006  0.2368266E+02  0.7546771E-02  0.1484099E+00
         21   -1    0    0  502  501  0.00000000000E+00  0.00000000000E+00  0.70080716519E+02  0.70080716519E+02  0.00000000000E+00 0.  1.
         21   -1    0    0  503  502 -0.00000000000E+00 -0.00000000000E+00 -0.14559262854E+02  0.14559262854E+02  0.00000000000E+00 0.  1.
         21    1    1    2  503  504  0.10673369133E+02 -0.21141134409E+02 -0.63795477238E+00  0.23691250685E+02  0.00000000000E+00 0.  1.
         21    1    1    2  504  501 -0.10673369133E+02  0.21141134409E+02  0.56159408437E+02  0.60948728688E+02  0.00000000000E+00 0.  1.
</event>
<event>
 4    1  0.3283867E+006  0.2117934E+02  0.7546771E-02  0.1516720E+00
         21   -1    0    0  502  501  0.00000000000E+00  0.00000000000E+00  0.92407386611E+01  0.92407386611E+01  0.00000000000E+00 0. -1.
         21   -1    0    0  504  502 -0.00000000000E+00 -0.00000000000E+00 -0.28987208623E+03  0.28987208623E+03  0.00000000000E+00 0. -1.
         21    1    1    2  503  501  0.20614715328E+02  0.48577871790E+01 -0.38549999109E+01  0.21527322375E+02  0.00000000000E+00 0. -1.
         21    1    1    2  504  503 -0.20614715328E+02 -0.48577871790E+01 -0.27677634766E+03  0.27758550252E+03  0.00000000000E+00 0. -1.
</event>
<event>
 4    1  0.3283867E+006  0.4513449E+02  0.7546771E-02  0.1320768E+00
         21   -1    0    0  502  501  0.00000000000E+00  0.00000000000E+00  0.36199254731E+02  0.36199254731E+02  0.00000000000E+00 0. -1.
         21   -1    0    0  503  502 -0.00000000000E+00 -0.00000000000E+00 -0.98885209986E+02  0.98885209986E+02  0.00000000000E+00 0. -1.
         21    1    1    2  503  504 -0.40362549783E+02  0.20198683861E+02 -0.75679873436E+02  0.88116771945E+02  0.00000000000E+00 0. -1.
         21    1    1    2  504  501  0.40362549783E+02 -0.20198683861E+02  0.12993918180E+02  0.46967692773E+02  0.00000000000E+00 0. -1.
</event>
<event>
 4    1  0.3283867E+006  0.2442254E+02  0.7546771E-02  0.1475368E+00
         21   -1    0    0  502  501  0.00000000000E+00  0.00000000000E+00  0.42394780645E+03  0.42394780645E+03  0.00000000000E+00 0.  1.
         21   -1    0    0  504  502 -0.00000000000E+00 -0.00000000000E+00 -0.88216584263E+01  0.88216584263E+01  0.00000000000E+00 0.  1.
         21    1    1    2  503  501  0.17926561325E+02 -0.16586098943E+02  0.40594378330E+03  0.40667777845E+03  0.00000000000E+00 0.  1.
         21    1    1    2  504  503 -0.17926561325E+02  0.16586098943E+02  0.91823647258E+01  0.26091686436E+02  0.00000000000E+00 0.  1.
</event>
<event>
 4    1  0.3283867E+006  0.2155693E+02  0.7546771E-02  0.1511460E+00
         21   -1    0    0  504  501  0.00000000000E+00  0.00000000000E+00  0.79058505662E+00  0.79058505662E+00  0.00000000000E+00 0. -1.
         21   -1    0    0  501  502 -0.00000000000E+00 -0.00000000000E+00 -0.92689785004E+03  0.92689785004E+03  0.00000000000E+00 0. -1.
         21    1    1    2  503  502  0.35197164194E+00 -0.21554052847E+02 -0.74361161522E+03  0.74392401183E+03  0.00000000000E+00 0. -1.
         21    1    1    2  504  503 -0.35197164194E+00  0.21554052847E+02 -0.18249564976E+03  0.18376442327E+03  0.00000000000E+00 0. -1.
</event>
<event>
 4    1  0.3283867E+006  0.2522885E+02  0.7546771E-02  0.1466259E+00
         21   -1    0    0  503  501  0.00000000000E+00  0.00000000000E+00  0.13235347463E+02  0.13235347463E+02  0.00000000000E+00 0. -1.
         21   -1    0    0  504  502 -0.00000000000E+00 -0.00000000000E+00 -0.95784041771E+02  0.95784041771E+02  0.00000000000E+00 0. -1.
         21    1    1    2  503  502 -0.24711376871E+02 -0.50835851764E+01 -0.79738554063E+02  0.83634514342E+02  0.00000000000E+00 0. -1.
         21    1    1    2  504  501  0.24711376871E+02  0.50835851764E+01 -0.28101402438E+01  0.25384874892E+02  0.00000000000E+00 0. -1.
</event>
<event>
 4    1  0.3283867E+006  0.2844163E+02  0.7546771E-02  0.1433640E+00
         21   -1    0    0  503  501  0.00000000000E+00  0.00000000000E+00  0.21703734138E+03  0.21703734138E+03  0.00000000000E+00 0.  1.
         21   -1    0    0  504  502 -0.00000000000E+00 -0.00000000000E+00 -0.24550189351E+03  0.24550189351E+03  0.00000000000E+00 0. -1.
         21    1    1    2  503  502  0.19860232886E+02  0.20359216736E+02  0.21527509686E+03  0.21714578947E+03  0.00000000000E+00 0.  1.
         21    1    1    2  504  501 -0.19860232886E+02 -0.20359216736E+02 -0.24373964900E+03  0.24539344541E+03  0.00000000000E+00 0. -1.
</event>
<event>
 4    1  0.3283867E+006  0.3098835E+02  0.7546771E-02  0.1411198E+00
         21   -1    0    0  503  501  0.00000000000E+00  0.00000000000E+00  0.46497879490E+03  0.46497879490E+03  0.00000000000E+00 0. -1.
         21   -1    0    0  501  502 -0.00000000000E+00 -0.00000000000E+00 -0.20667109295E+01  0.20667109295E+01  0.00000000000E+00 0. -1.
         21    1    1    2  503  504  0.30988117566E+02 -0.12070719788E+00  0.22515901132E+03  0.22728145191E+03  0.00000000000E+00 0. -1.
         21    1    1    2  504  502 -0.30988117566E+02  0.12070719788E+00  0.23775307265E+03  0.23976405393E+03  0.00000000000E+00 0. -1.
</event>
<event>
 4    1  0.3283867E+006  0.2315185E+02  0.7546771E-02  0.1490600E+00
         21   -1    0    0  503  501  0.00000000000E+00  0.00000000000E+00  0.28278751501E+02  0.28278751501E+02  0.00000000000E+00 0. -1.
         21   -1    0    0  501  502 -0.00000000000E+00 -0.00000000000E+00 -0.12865091808E+03  0.12865091808E+03  0.00000000000E+00 0. -1.
         21    1    1    2  503  504  0.22186506987E+02  0.66156792350E+01  0.22268344935E+02  0.32123005622E+02  0.00000000000E+00 0. -1.
         21    1    1    2  504  502 -0.22186506987E+02 -0.66156792350E+01 -0.12264051151E+03  0.12480666396E+03  0.00000000000E+00 0. -1.
</event>
<event>
 4    1  0.3283867E+006  0.2182240E+02  0.7546771E-02  0.1507839E+00
         21   -1    0    0  504  501  0.00000000000E+00  0.00000000000E+00  0.14944986470E+03  0.14944986470E+03  0.00000000000E+00 0.  1.
         21   -1    0    0  503  502 -0.00000000000E+00 -0.00000000000E+00 -0.68535734461E+01  0.68535734461E+01  0.00000000000E+00 0.  1.
         21    1    1    2  503  501 -0.18971271568E+02 -0.10784621885E+02  0.12846465805E+03  0.13030497144E+03  0.00000000000E+00 0.  1.
         21    1    1    2  504  502  0.18971271568E+02  0.10784621885E+02  0.14131633206E+02  0.25998466708E+02  0.00000000000E+00 0.  1.
</event>
<event>
 4    1  0.3283867E+006  0.2180230E+02  0.7546771E-02  0.1508111E+00
         21   -1    0    0  504  501  0.00000000000E+00  0.00000000000E+00  0.25327754531E+01  0.25327754531E+01  0.00000000000E+00 0.  1.
         21   -1    0    0  503  502 -0.00000000000E+00 -0.00000000000E+00 -0.37218237112E+03  0.37218237112E+03  0.00000000000E+00 0. -1.
         21    1    1    2  503  501 -0.14284474677E+02  0.16471006562E+02 -0.52908197164E+02  0.57224274579E+02  0.00000000000E+00 0.  1.
         21    1    1    2  504  502  0.14284474677E+02 -0.16471006562E+02 -0.31674139851E+03  0.31749087200E+03  0.00000000000E+00 0. -1.
</event>
<event>
 4    1  0.3283867E+006  0.2245908E+02  0.7546771E-02  0.1499405E+00
         21   -1    0    0  502  501  0.00000000000E+00  0.00000000000E+00  0.47692599495E+02  0.47692599495E+02  0.00000000000E+00 0. -1.
         21   -1    0    0  504  502 -0.00000000000E+00 -0.00000000000E+00 -0.13548978289E+02  0.13548978289E+02  0.00000000000E+00 0. -1.
         21    1    1    2  503  501 -0.20464825276E+02  0.92520873875E+01  0.31414766361E+02  0.38617324352E+02  0.00000000000E+00 0. -1.
         21    1    1    2  504  503  0.20464825276E+02 -0.92520873875E+01  0.27288548450E+01  0.22624253432E+02  0.00000000000E+00 0. -1.
</event>
<event>
 4    1  0.3283867E+006  0.3455789E+02  0.7546771E-02  0.1383698E+00
         21   -1    0    0  504  501  0.00000000000E+00  0.00000000000E+00  0.12551560148E+03  0.12551560148E+03  0.00000000000E+00 0.  1.
         21   -1    0    0  503  502 -0.00000000000E+00 -0.00000000000E+00 -0.10084772858E+02  0.10084772858E+02  0.00000000000E+00 0.  1.
         21    1    1    2  503  501  0.29908872265E+02  0.17312060479E+02  0.73834800243E+02  0.81521934503E+02  0.00000000000E+00 0.  1.
         21    1    1    2  504  502 -0.29908872265E+02 -0.17312060479E+02  0.41596028381E+02  0.54078439837E+02  0.00000000000E+00 0.  1.
</event>
<event>
 4    1  0.3283867E+006  0.2643874E+02  0.7546771E-02  0.1453329E+00
         21   -1    0    0  502  501  0.00000000000E+00  0.00000000000E+00  0.22298212311E+03  0.22298212311E+03  0.00000000000E+00 0.  1.
         21   -1    0    0  504  502 -0.00000000000E+00 -0.00000000000E+00 -0.67250587628E+01  0.67250587628E+01  0.00000000000E+00 0.  1.
         21    1    1    2  503  501  0.86179424652E+01  0.24994764401E+02  0.19204721272E+03  0.19385855434E+03  0.00000000000E+00 0.  1.
         21    1    1    2  504  503 -0.86179424652E+01 -0.24994764401E+02  0.24209851630E+02  0.35848627529E+02  0.00000000000E+00 0.  1.
</event>
<event>
 4    1  0.3283867E+006  0.3881927E+02  0.7546771E-02  0.1355547E+00
         21   -1    0    0  504  501  0.00000000000E+00  0.00000000000E+00  0.30384642898E+03  0.30384642898E+03  0.00000000000E+00 0.  1.
         21   -1    0    0  501  502 -0.00000000000E+00 -0.00000000000E+00 -0.33349614108E+02  0.33349614108E+02  0.00000000000E+00 0. -1.
         21    1    1    2  503  502  0.36827815899E+02 -0.12273859530E+02 -0.20308894791E+02  0.43810807563E+02  0.00000000000E+00 0. -1.
         21    1    1    2  504  503 -0.36827815899E+02  0.12273859530E+02  0.29080570966E+03  0.29338523553E+03  0.00000000000E+00 0.  1.
</event>
<event>
 4    1  0.3283867E+006  0.2054774E+02  0.7546771E-02  0.1525821E+00
         21   -1    0    0  504  501  0.00000000000E+00  0.00000000000E+00  0.76599973894E+03  0.76599973894E+03  0.00000000000E+00 0.  1.
         21   -1    0    0  501  502 -0.00000000000E+00 -0.00000000000E+00 -0.14018379100E+03  0.14018379100E+03  0.00000000000E+00 0.  1.
         21    1    1    2  503  502 -0.16824938384E+02  0.11795385968E+02 -0.13929215937E+03  0.14079955732E+03  0.00000000000E+00 0.  1.
         21    1    1    2  504  503  0.16824938384E+02 -0.11795385968E+02  0.76510810730E+03  0.76538397262E+03  0.00000000000E+00 0.  1.
</event>
<event>
 4    1  0.3283867E+006  0.2063671E+02  0.7546771E-02  0.1524515E+00
         21   -1    0    0  503  501  0.00000000000E+00  0.00000000000E+00  0.13500755878E+02  0.13500755878E+02  0.00000000000E+00 0.  1.
         21   -1    0    0  504  502 -0.00000000000E+00 -0.00000000000E+00 -0.30224753257E+03  0.30224753257E+03  0.00000000000E+00 0. -1.
         21    1    1    2  503  502 -0.10254534280E+02 -0.17908610387E+02  0.50354314046E+01  0.21242160171E+02  0.00000000000E+00 0.  1.
         21    1    1    2  504  501  0.10254534280E+02  0.17908610387E+02 -0.29378220810E+03  0.29450612828E+03  0.00000000000E+00 0. -1.
</event>
