<event>
 4    1  0.8284550E+003  0.2005588E+02  0.7546771E-02  0.1533183E+00
          2   -1    0    0  502    0  0.00000000000E+00  0.00000000000E+00  0.53971248349E+03  0.53971248349E+03  0.00000000000E+00 0. -1.
          1   -1    0    0  501    0 -0.00000000000E+00 -0.00000000000E+00 -0.23179751037E+01  0.23179751037E+01  0.00000000000E+00 0.  1.
          2    1    1    2  501    0 -0.71471762217E+01  0.18739167073E+02  0.49193168170E+03  0.49234034770E+03  0.00000000000E+00 0. -1.
          1    1    1    2  502    0  0.71471762217E+01 -0.18739167073E+02  0.45462826679E+02  0.49690110889E+02  0.00000000000E+00 0.  1.
</event>
<event>
 4    1  0.8284550E+003  0.2328385E+02  0.7546771E-02  0.1488964E+00
          2   -1    0    0  502    0  0.00000000000E+00  0.00000000000E+00  0.43283431463E+03  0.43283431463E+03  0.00000000000E+00 0. -1.
          1   -1    0    0  501    0 -0.00000000000E+00 -0.00000000000E+00 -0.47347270293E+01  0.47347270293E+01  0.00000000000E+00 0.  1.
          2    1    1    2  501    0 -0.15166730924E+02 -0.17666581920E+02  0.40167699785E+03  0.40235127494E+03  0.00000000000E+00 0. -1.
          1    1    1    2  502    0  0.15166730924E+02  0.17666581920E+02  0.26422589755E+02  0.35217766724E+02  0.00000000000E+00 0.  1.
</event>
<event>
 4    1  0.8284550E+003  0.2104177E+02  0.7546771E-02  0.1518669E+00
          2   -1    0    0  502    0  0.00000000000E+00  0.00000000000E+00  0.81005639145E+02  0.81005639145E+02  0.00000000000E+00 0.  1.
          1   -1    0    0  501    0 -0.00000000000E+00 -0.00000000000E+00 -0.98392462614E+01  0.98392462614E+01  0.00000000000E+00 0. -1.
          2    1    1    2  501    0  0.13357147476E+02 -0.16258619135E+02  0.65866569668E+02  0.69145940479E+02  0.00000000000E+00 0.  1.
          1    1    1    2  502    0 -0.13357147476E+02  0.16258619135E+02  0.52998232156E+01  0.21698944928E+02  0.00000000000E+00 0. -1.
</event>
<event>
 4    1  0.8284550E+003  0.2174943E+02  0.7546771E-02  0.1508828E+00
          2   -1    0    0  502    0  0.00000000000E+00  0.00000000000E+00  0.14626007977E+02  0.14626007977E+02  0.00000000000E+00 0. -1.
          1   -1    0    0  501    0 -0.00000000000E+00 -0.00000000000E+00 -0.10635190373E+04  0.10635190373E+04  0.00000000000E+00 0. -1.
          2    1    1    2  501    0  0.17783485076E+02  0.12521397670E+02  0.63659706978E+01  0.22661935574E+02  0.00000000000E+00 0. -1.
          1    1    1    2  502    0 -0.17783485076E+02 -0.12521397670E+02 -0.10552590000E+04  0.10554831097E+04  0.00000000000E+00 0. -1.
</event>
<event>
 4    1  0.8284550E+003  0.2871673E+02  0.7546771E-02  0.1431086E+00
          2   -1    0    0  502    0  0.00000000000E+00  0.00000000000E+00  0.16261959805E+01  0.16261959805E+01  0.00000000000E+00 0. -1.
          1   -1    0    0  501    0 -0.00000000000E+00 -0.00000000000E+00 -0.69310122780E+03  0.69310122780E+03  0.00000000000E+00 0.  1.
          2    1    1    2  501    0 -0.49892304722E+01  0.28279991646E+02 -0.16579265509E+03  0.16826126955E+03  0.00000000000E+00 0. -1.
          1    1    1    2  502    0  0.49892304722E+01 -0.28279991646E+02 -0.52568237673E+03  0.52646615423E+03  0.00000000000E+00 0.  1.
</event>
<event>
 4    1  0.8284550E+003  0.2903545E+02  0.7546771E-02  0.1428168E+00
          2   -1    0    0  502    0  0.00000000000E+00  0.00000000000E+00  0.37690217599E+03  0.37690217599E+03  0.00000000000E+00 0.  1.
          1   -1    0    0  501    0 -0.00000000000E+00 -0.00000000000E+00 -0.26710736627E+01  0.26710736627E+01  0.00000000000E+00 0. -1.
          2    1    1    2  501    0  0.20951617703E+02  0.20101917610E+02  0.26364013584E+03  0.26523419576E+03  0.00000000000E+00 0.  1.
          1    1    1    2  502    0 -0.20951617703E+02 -0.20101917610E+02  0.11059096649E+03  0.11433905389E+03  0.00000000000E+00 0. -1.
</event>
<event>
 4    1  0.8284550E+003  0.3189817E+02  0.7546771E-02  0.1403788E+00
          2   -1    0    0  502    0  0.00000000000E+00  0.00000000000E+00  0.89833646446E+03  0.89833646446E+03  0.00000000000E+00 0.  1.
          1   -1    0    0  501    0 -0.00000000000E+00 -0.00000000000E+00 -0.43702651312E+01  0.43702651312E+01  0.00000000000E+00 0. -1.
          2    1    1    2  501    0 -0.27789101288E+02  0.15660749507E+02  0.83546963195E+03  0.83607834510E+03  0.00000000000E+00 0.  1.
          1    1    1    2  502    0  0.27789101288E+02 -0.15660749507E+02  0.58496567380E+02  0.66628384498E+02  0.00000000000E+00 0. -1.
</event>
<event>
 4    1  0.8284550E+003  0.2021996E+02  0.7546771E-02  0.1530699E+00
          2   -1    0    0  502    0  0.00000000000E+00  0.00000000000E+00  0.58036598022E+02  0.58036598022E+02  0.00000000000E+00 0.  1.
          1   -1    0    0  501    0 -0.00000000000E+00 -0.00000000000E+00 -0.13655885883E+02  0.13655885883E+02  0.00000000000E+00 0.  1.
          2    1    1    2  501    0 -0.11233753995E+01 -0.20188730888E+02  0.47132019301E+02  0.51286197662E+02  0.00000000000E+00 0.  1.
          1    1    1    2  502    0  0.11233753995E+01  0.20188730888E+02 -0.27513071629E+01  0.20406286244E+02  0.00000000000E+00 0.  1.
</event>
<event>
 4    1  0.8284550E+003  0.2338874E+02  0.7546771E-02  0.1487674E+00
          2   -1    0    0  502    0  0.00000000000E+00  0.00000000000E+00  0.77205140965E+02  0.77205140965E+02  0.00000000000E+00 0.  1.
          1   -1    0    0  501    0 -0.00000000000E+00 -0.00000000000E+00 -0.31249393184E+03  0.31249393184E+03  0.00000000000E+00 0.  1.
          2    1    1    2  501    0  0.22144340488E+02  0.75273765042E+01  0.74983477606E+02  0.78546515687E+02  0.00000000000E+00 0.  1.
          1    1    1    2  502    0 -0.22144340488E+02 -0.75273765042E+01 -0.31027226848E+03  0.31115255712E+03  0.00000000000E+00 0.  1.
</event>
<event>
 4    1  0.8284550E+003  0.2551459E+02  0.7546771E-02  0.1463128E+00
          2   -1    0    0  502    0  0.00000000000E+00  0.00000000000E+00  0.15857975371E+04  0.15857975371E+04  0.00000000000E+00 0.  1.
          1   -1    0    0  501    0 -0.00000000000E+00 -0.00000000000E+00 -0.25850678146E+01  0.25850678146E+01  0.00000000000E+00 0. -1.
          2    1    1    2  501    0  0.23309186445E+02  0.10376699886E+02  0.15200132357E+04  0.15202273615E+04  0.00000000000E+00 0.  1.
          1    1    1    2  502    0 -0.23309186445E+02 -0.10376699886E+02  0.63199233551E+02  0.68155243340E+02  0.00000000000E+00 0. -1.
</event>
<event>
 4    1  0.8284550E+003  0.4204938E+02  0.7546771E-02  0.1336878E+00
          2   -1    0    0  502    0  0.00000000000E+00  0.00000000000E+00  0.11379684340E+02  0.11379684340E+02  0.00000000000E+00 0. -1.
          1   -1    0    0  501    0 -0.00000000000E+00 -0.00000000000E+00 -0.25199565222E+03  0.25199565222E+03  0.00000000000E+00 0. -1.
          2    1    1    2  501    0 -0.37346233936E+02 -0.19323794172E+02 -0.38766747096E+02  0.57192752083E+02  0.00000000000E+00 0. -1.
          1    1    1    2  502    0  0.37346233936E+02  0.19323794172E+02 -0.20184922078E+03  0.20618258448E+03  0.00000000000E+00 0. -1.
</event>
<event>
 4    1  0.8284550E+003  0.7659743E+02  0.7546771E-02  0.1211975E+00
          2   -1    0    0  502    0  0.00000000000E+00  0.00000000000E+00  0.20014686363E+03  0.20014686363E+03  0.00000000000E+00 0.  1.
          1   -1    0    0  501    0 -0.00000000000E+00 -0.00000000000E+00 -0.51965176467E+02  0.51965176467E+02  0.00000000000E+00 0.  1.
          2    1    1    2  501    0  0.71516821075E+01  0.76262833098E+02  0.15731508449E+03  0.17497200370E+03  0.00000000000E+00 0.  1.
          1    1    1    2  502    0 -0.71516821075E+01 -0.76262833098E+02 -0.91333973289E+01  0.77140036400E+02  0.00000000000E+00 0.  1.
</event>
<event>
 4    1  0.8284550E+003  0.4360913E+02  0.7546771E-02  0.1328542E+00
          2   -1    0    0  502    0  0.00000000000E+00  0.00000000000E+00  0.16509943847E+03  0.16509943847E+03  0.00000000000E+00 0. -1.
          1   -1    0    0  501    0 -0.00000000000E+00 -0.00000000000E+00 -0.12137481803E+02  0.12137481803E+02  0.00000000000E+00 0. -1.
          2    1    1    2  501    0 -0.34551561293E+02 -0.26607253424E+02  0.96487640140E+02  0.10588494238E+03  0.00000000000E+00 0. -1.
          1    1    1    2  502    0  0.34551561293E+02  0.26607253424E+02  0.56474316531E+02  0.71351977900E+02  0.00000000000E+00 0. -1.
</event>
<event>
 4    1  0.8284550E+003  0.2452775E+02  0.7546771E-02  0.1474156E+00
          2   -1    0    0  502    0  0.00000000000E+00  0.00000000000E+00  0.98868557975E+01  0.98868557975E+01  0.00000000000E+00 0.  1.
          1   -1    0    0  501    0 -0.00000000000E+00 -0.00000000000E+00 -0.17053111213E+03  0.17053111213E+03  0.00000000000E+00 0. -1.
          2    1    1    2  501    0 -0.48763517464E+01  0.24038132603E+02 -0.79760800378E+01  0.25792023537E+02  0.00000000000E+00 0.  1.
          1    1    1    2  502    0  0.48763517464E+01 -0.24038132603E+02 -0.15266817630E+03  0.15462594439E+03  0.00000000000E+00 0. -1.
</event>
<event>
 4    1  0.8284550E+003  0.4714090E+02  0.7546771E-02  0.1311068E+00
          2   -1    0    0  502    0  0.00000000000E+00  0.00000000000E+00  0.43012335500E+03  0.43012335500E+03  0.00000000000E+00 0.  1.
          1   -1    0    0  501    0 -0.00000000000E+00 -0.00000000000E+00 -0.77490170476E+01  0.77490170476E+01  0.00000000000E+00 0.  1.
          2    1    1    2  501    0 -0.42220698883E+02 -0.20968478751E+02  0.33757624631E+03  0.34085185431E+03  0.00000000000E+00 0.  1.
          1    1    1    2  502    0  0.42220698883E+02  0.20968478751E+02  0.84798091636E+02  0.97020517730E+02  0.00000000000E+00 0.  1.
</event>
<event>
 4    1  0.8284550E+003  0.2641806E+02  0.7546771E-02  0.1453543E+00
          2   -1    0    0  502    0  0.00000000000E+00  0.00000000000E+00  0.63730823046E+03  0.63730823046E+03  0.00000000000E+00 0.  1.
          1   -1    0    0  501    0 -0.00000000000E+00 -0.00000000000E+00 -0.81278136427E+01  0.81278136427E+01  0.00000000000E+00 0. -1.
          2    1    1    2  501    0 -0.19670387431E+02 -0.17634900366E+02  0.61478139210E+03  0.61534874171E+03  0.00000000000E+00 0.  1.
          1    1    1    2  502    0  0.19670387431E+02  0.17634900366E+02  0.14399024723E+02  0.30087302398E+02  0.00000000000E+00 0. -1.
</event>
<event>
 4    1  0.8284550E+003  0.2173341E+02  0.7546771E-02  0.1509046E+00
          2   -1    0    0  502    0  0.00000000000E+00  0.00000000000E+00  0.44205111230E+03  0.44205111230E+03  0.00000000000E+00 0.  1.
          1   -1    0    0  501    0 -0.00000000000E+00 -0.00000000000E+00 -0.84639343818E+02  0.84639343818E+02  0.00000000000E+00 0. -1.
          2    1    1    2  501    0  0.31416772144E+01 -0.21505134358E+02  0.44038354456E+03  0.44091950202E+03  0.00000000000E+00 0.  1.
          1    1    1    2  502    0 -0.31416772144E+01  0.21505134358E+02 -0.82971776085E+02  0.85770954094E+02  0.00000000000E+00 0. -1.
</event>
<event>
 4    1  0.8284550E+003  0.2095979E+02  0.7546771E-02  0.1519840E+00
          2   -1    0    0  502    0  0.00000000000E+00  0.00000000000E+00  0.40652246397E+02  0.40652246397E+02  0.00000000000E+00 0.  1.
          1   -1    0    0  501    0 -0.00000000000E+00 -0.00000000000E+00 -0.10166158490E+03  0.10166158490E+03  0.00000000000E+00 0.  1.
          2    1    1    2  501    0  0.31095855875E+01 -0.20727839869E+02  0.36764031469E+02  0.42319107717E+02  0.00000000000E+00 0.  1.
          1    1    1    2  502    0 -0.31095855875E+01  0.20727839869E+02 -0.97773369967E+02  0.99994723575E+02  0.00000000000E+00 0.  1.
</event>
<event>
 4    1  0.8284550E+003  0.3153566E+02  0.7546771E-02  0.1406705E+00
          2   -1    0    0  502    0  0.00000000000E+00  0.00000000000E+00  0.26359619202E+03  0.26359619202E+03  0.00000000000E+00 0.  1.
          1   -1    0    0  501    0 -0.00000000000E+00 -0.00000000000E+00 -0.48978480083E+01  0.48978480083E+01  0.00000000000E+00 0.  1.
          2    1    1    2  501    0  0.76657051695E+01 -0.30589778181E+02  0.19368993015E+03  0.19624037965E+03  0.00000000000E+00 0.  1.
          1    1    1    2  502    0 -0.76657051695E+01  0.30589778181E+02  0.65008413867E+02  0.72253660381E+02  0.00000000000E+00 0.  1.
</event>
<event>
 4    1  0.8284550E+003  0.2068740E+02  0.7546771E-02  0.1523775E+00
          2   -1    0    0  502    0  0.00000000000E+00  0.00000000000E+00  0.93081799430E+02  0.93081799430E+02  0.00000000000E+00 0.  1.
          1   -1    0    0  501    0 -0.00000000000E+00 -0.00000000000E+00 -0.35902712895E+02  0.35902712895E+02  0.00000000000E+00 0.  1.
          2    1    1    2  501    0 -0.78593799345E+01  0.19136322842E+02  0.88810880541E+02  0.91188492735E+02  0.00000000000E+00 0.  1.
          1    1    1    2  502    0  0.78593799345E+01 -0.19136322842E+02 -0.31631794005E+02  0.37796019590E+02  0.00000000000E+00 0.  1.
</event>
<event>
 4    1  0.8284550E+003  0.2541162E+02  0.7546771E-02  0.1464251E+00
          2   -1    0    0  502    0  0.00000000000E+00  0.00000000000E+00  0.89688751582E+01  0.89688751582E+01  0.00000000000E+00 0. -1.
          1   -1    0    0  501    0 -0.00000000000E+00 -0.00000000000E+00 -0.28642060770E+03  0.28642060770E+03  0.00000000000E+00 0.  1.
          2    1    1    2  501    0  0.98940857475E+01 -0.23406351561E+02 -0.10935782409E+02  0.27664807302E+02  0.00000000000E+00 0. -1.
          1    1    1    2  502    0 -0.98940857475E+01  0.23406351561E+02 -0.26651595014E+03  0.26772467556E+03  0.00000000000E+00 0.  1.
</event>
<event>
 4    1  0.8284550E+003  0.2021958E+02  0.7546771E-02  0.1530705E+00
          2   -1    0    0  502    0  0.00000000000E+00  0.00000000000E+00  0.75254195318E+03  0.75254195318E+03  0.00000000000E+00 0. -1.
          1   -1    0    0  501    0 -0.00000000000E+00 -0.00000000000E+00 -0.54921413108E+00  0.54921413108E+00  0.00000000000E+00 0. -1.
          2    1    1    2  501    0  0.13338327987E+02  0.15196064292E+02  0.41517894527E+03  0.41567100928E+03  0.00000000000E+00 0. -1.
          1    1    1    2  502    0 -0.13338327987E+02 -0.15196064292E+02  0.33681379378E+03  0.33742015803E+03  0.00000000000E+00 0. -1.
</event>
<event>
 4    1  0.8284550E+003  0.2067121E+02  0.7546771E-02  0.1524011E+00
          2   -1    0    0  502    0  0.00000000000E+00  0.00000000000E+00  0.12148540355E+04  0.12148540355E+04  0.00000000000E+00 0. -1.
          1   -1    0    0  501    0 -0.00000000000E+00 -0.00000000000E+00 -0.30934714768E+02  0.30934714768E+02  0.00000000000E+00 0. -1.
          2    1    1    2  501    0  0.18904943182E+02 -0.83607431917E+01  0.12113027486E+04  0.12114791156E+04  0.00000000000E+00 0. -1.
          1    1    1    2  502    0 -0.18904943182E+02  0.83607431917E+01 -0.27383427884E+02  0.34309634596E+02  0.00000000000E+00 0. -1.
</event>
<event>
 4    1  0.8284550E+003  0.4166590E+02  0.7546771E-02  0.1338991E+00
          2   -1    0    0  502    0  0.00000000000E+00  0.00000000000E+00  0.14882574620E+04  0.14882574620E+04  0.00000000000E+00 0. -1.
          1   -1    0    0  501    0 -0.00000000000E+00 -0.00000000000E+00 -0.12763658149E+01  0.12763658149E+01  0.00000000000E+00 0. -1.
          2    1    1    2  501    0 -0.49654134304E+01  0.41368973104E+02  0.96200029187E+03  0.96290218030E+03  0.00000000000E+00 0. -1.
          1    1    1    2  502    0  0.49654134304E+01 -0.41368973104E+02  0.52498080434E+03  0.52663164754E+03  0.00000000000E+00 0. -1.
</event>
<event>
 4    1  0.8284550E+003  0.2003905E+02  0.7546771E-02  0.1533440E+00
          2   -1    0    0  502    0  0.00000000000E+00  0.00000000000E+00  0.50010606233E+03  0.50010606233E+03  0.00000000000E+00 0.  1.
          1   -1    0    0  501    0 -0.00000000000E+00 -0.00000000000E+00 -0.19192722600E+02  0.19192722600E+02  0.00000000000E+00 0.  1.
          2    1    1    2  501    0 -0.18862270941E+02 -0.67659536563E+01  0.49461662245E+03  0.49502238999E+03  0.00000000000E+00 0.  1.
          1    1    1    2  502    0  0.18862270941E+02  0.67659536563E+01 -0.13703282716E+02  0.24276394937E+02  0.00000000000E+00 0.  1.
</event>
<event>
 4    1  0.8284550E+003  0.3580317E+02  0.7546771E-02  0.1375003E+00
          2   -1    0    0  502    0  0.00000000000E+00  0.00000000000E+00  0.12292690951E+03  0.12292690951E+03  0.00000000000E+00 0.  1.
          1   -1    0    0  501    0 -0.00000000000E+00 -0.00000000000E+00 -0.12236993915E+02  0.12236993915E+02  0.00000000000E+00 0. -1.
          2    1    1    2  501    0 -0.30354761350E+02  0.18985669881E+02  0.81330164851E+02  0.88862044272E+02  0.00000000000E+00 0.  1.
          1    1    1    2  502    0  0.30354761350E+02 -0.18985669881E+02  0.29359750748E+02  0.46301859157E+02  0.00000000000E+00 0. -1.
</event>
<event>
 4    1  0.8284550E+003  0.2914083E+02  0.7546771E-02  0.1427212E+00
          2   -1    0    0  502    0  0.00000000000E+00  0.00000000000E+00  0.18454671017E+04  0.18454671017E+04  0.00000000000E+00 0. -1.
          1   -1    0    0  501    0 -0.00000000000E+00 -0.00000000000E+00 -0.50100200691E+00  0.50100200691E+00  0.00000000000E+00 0. -1.
          2    1    1    2  501    0  0.15088199908E+02 -0.24930585117E+02  0.11860507647E+04  0.11864087003E+04  0.00000000000E+00 0. -1.
          1    1    1    2  502    0 -0.15088199908E+02  0.24930585117E+02  0.65891533500E+03  0.65955940335E+03  0.00000000000E+00 0. -1.
</event>
<event>
 4    1  0.8284550E+003  0.2300553E+02  0.7546771E-02  0.1492429E+00
          2   -1    0    0  502    0  0.00000000000E+00  0.00000000000E+00  0.12653391058E+03  0.12653391058E+03  0.00000000000E+00 0.  1.
          1   -1    0    0  501    0 -0.00000000000E+00 -0.00000000000E+00 -0.35620513614E+02  0.35620513614E+02  0.00000000000E+00 0.  1.
          2    1    1    2  501    0  0.20576436690E+02 -0.10289046149E+02  0.12162509977E+03  0.12378173982E+03  0.00000000000E+00 0.  1.
          1    1    1    2  502    0 -0.20576436690E+02  0.10289046149E+02 -0.30711702802E+02  0.38372684380E+02  0.00000000000E+00 0.  1.
</event>
<event>
 4    1  0.8284550E+003  0.2721423E+02  0.7546771E-02  0.1445468E+00
          2   -1    0    0  502    0  0.00000000000E+00  0.00000000000E+00  0.11843681665E+03  0.11843681665E+03  0.00000000000E+00 0. -1.
          1   -1    0    0  501    0 -0.00000000000E+00 -0.00000000000E+00 -0.26814315294E+02  0.26814315294E+02  0.00000000000E+00 0.  1.
          2    1    1    2  501    0  0.27204571495E+02 -0.72510728925E+00  0.10940713749E+03  0.11274101394E+03  0.00000000000E+00 0. -1.
          1    1    1    2  502    0 -0.27204571495E+02  0.72510728925E+00 -0.17784636127E+02  0.32510118009E+02  0.00000000000E+00 0.  1.
</event>
<event>
 4    1  0.8284550E+003  0.2681227E+02  0.7546771E-02  0.1449503E+00
          2   -1    0    0  502    0  0.00000000000E+00  0.00000000000E+00  0.17424621000E+04  0.17424621000E+04  0.00000000000E+00 0. -1.
          1   -1    0    0  501    0 -0.00000000000E+00 -0.00000000000E+00 -0.37297043985E+01  0.37297043985E+01  0.00000000000E+00 0.  1.
          2    1    1    2  501    0 -0.23238326249E+02 -0.13374519423E+02  0.16927567932E+04  0.16929691251E+04  0.00000000000E+00 0. -1.
          1    1    1    2  502    0  0.23238326249E+02  0.13374519423E+02  0.45975602392E+02  0.53222679301E+02  0.00000000000E+00 0.  1.
</event>
<event>
 4    1  0.8284550E+003  0.5279397E+02  0.7546771E-02  0.1286493E+00
          2   -1    0    0  502    0  0.00000000000E+00  0.00000000000E+00  0.45126524920E+03  0.45126524920E+03  0.00000000000E+00 0. -1.
          1   -1    0    0  501    0 -0.00000000000E+00 -0.00000000000E+00 -0.20665032383E+03  0.20665032383E+03  0.00000000000E+00 0.  1.
          2    1    1    2  501    0  0.49310973405E+02  0.18858190187E+02  0.44631196865E+03  0.44942360507E+03  0.00000000000E+00 0. -1.
          1    1    1    2  502    0 -0.49310973405E+02 -0.18858190187E+02 -0.20169704328E+03  0.20849196796E+03  0.00000000000E+00 0.  1.
</event>
<event>
 4    1  0.8284550E+003  0.2855342E+02  0.7546771E-02  0.1432598E+00
          2   -1    0    0  502    0  0.00000000000E+00  0.00000000000E+00  0.47116322633E+03  0.47116322633E+03  0.00000000000E+00 0.  1.
          1   -1    0    0  501    0 -0.00000000000E+00 -0.00000000000E+00 -0.13667120309E+03  0.13667120309E+03  0.00000000000E+00 0. -1.
          2    1    1    2  501    0 -0.73712181005E+01 -0.27585555348E+02  0.46923315059E+03  0.47010110331E+03  0.00000000000E+00 0.  1.
          1    1    1    2  502    0  0.73712181005E+01  0.27585555348E+02 -0.13474112735E+03  0.13773332610E+03  0.00000000000E+00 0. -1.
</event>
<event>
 4    1  0.8284550E+003  0.2283896E+02  0.7546771E-02  0.1494530E+00
          2   -1    0    0  502    0  0.00000000000E+00  0.00000000000E+00  0.40130522642E+01  0.40130522642E+01  0.00000000000E+00 0. -1.
          1   -1    0    0  501    0 -0.00000000000E+00 -0.00000000000E+00 -0.11318143374E+04  0.11318143374E+04  0.00000000000E+00 0.  1.
          2    1    1    2  501    0 -0.22835216116E+02  0.41334710956E+00 -0.29591474966E+02  0.37380119603E+02  0.00000000000E+00 0. -1.
          1    1    1    2  502    0  0.22835216116E+02 -0.41334710956E+00 -0.10982098101E+04  0.10984472700E+04  0.00000000000E+00 0.  1.
</event>
<event>
 4    1  0.8284550E+003  0.3311589E+02  0.7546771E-02  0.1394316E+00
          2   -1    0    0  502    0  0.00000000000E+00  0.00000000000E+00  0.50352054389E+03  0.50352054389E+03  0.00000000000E+00 0.  1.
          1   -1    0    0  501    0 -0.00000000000E+00 -0.00000000000E+00 -0.15970634903E+02  0.15970634903E+02  0.00000000000E+00 0.  1.
          2    1    1    2  501    0 -0.24890735931E+02  0.21842928414E+02  0.48516029010E+03  0.48628918284E+03  0.00000000000E+00 0.  1.
          1    1    1    2  502    0  0.24890735931E+02 -0.21842928414E+02  0.23896188872E+01  0.33201995954E+02  0.00000000000E+00 0.  1.
</event>
<event>
 4    1  0.8284550E+003  0.1173653E+03  0.7546771E-02  0.1136713E+00
          2   -1    0    0  502    0  0.00000000000E+00  0.00000000000E+00  0.72169722548E+03  0.72169722548E+03  0.00000000000E+00 0.  1.
          1   -1    0    0  501    0 -0.00000000000E+00 -0.00000000000E+00 -0.24960383629E+03  0.24960383629E+03  0.00000000000E+00 0. -1.
          2    1    1    2  501    0  0.97584607095E+02  0.65206355614E+02  0.70275991271E+03  0.71249289068E+03  0.00000000000E+00 0.  1.
          1    1    1    2  502    0 -0.97584607095E+02 -0.65206355614E+02 -0.23066652351E+03  0.25880817109E+03  0.00000000000E+00 0. -1.
</event>
<event>
 4    1  0.8284550E+003  0.3382976E+02  0.7546771E-02  0.1388982E+00
          2   -1    0    0  502    0  0.00000000000E+00  0.00000000000E+00  0.93239593243E+03  0.93239593243E+03  0.00000000000E+00 0.  1.
          1   -1    0    0  501    0 -0.00000000000E+00 -0.00000000000E+00 -0.10442641508E+02  0.10442641508E+02  0.00000000000E+00 0. -1.
          2    1    1    2  501    0  0.33133256447E+02 -0.68293516180E+01  0.90382472505E+03  0.90445761998E+03  0.00000000000E+00 0.  1.
          1    1    1    2  502    0 -0.33133256447E+02  0.68293516180E+01  0.18128565873E+02  0.38380953960E+02  0.00000000000E+00 0. -1.
</event>
<event>
 4    1  0.8284550E+003  0.2130200E+02  0.7546771E-02  0.1514997E+00
          2   -1    0    0  502    0  0.00000000000E+00  0.00000000000E+00  0.14745876878E+04  0.14745876878E+04  0.00000000000E+00 0.  1.
          1   -1    0    0  501    0 -0.00000000000E+00 -0.00000000000E+00 -0.11159005104E+02  0.11159005104E+02  0.00000000000E+00 0. -1.
          2    1    1    2  501    0  0.21141010616E+02 -0.26139490994E+01  0.14642730285E+04  0.14644279692E+04  0.00000000000E+00 0.  1.
          1    1    1    2  502    0 -0.21141010616E+02  0.26139490994E+01 -0.84434579609E+00  0.21318723686E+02  0.00000000000E+00 0. -1.
</event>
<event>
 4    1  0.8284550E+003  0.2094339E+02  0.7546771E-02  0.1520075E+00
          2   -1    0    0  502    0  0.00000000000E+00  0.00000000000E+00  0.96245248088E+03  0.96245248088E+03  0.00000000000E+00 0.  1.
          1   -1    0    0  501    0 -0.00000000000E+00 -0.00000000000E+00 -0.13025187532E+01  0.13025187532E+01  0.00000000000E+00 0. -1.
          2    1    1    2  501    0  0.99627272034E+01 -0.18421990130E+02  0.86911010210E+03  0.86936240730E+03  0.00000000000E+00 0.  1.
          1    1    1    2  502    0 -0.99627272034E+01  0.18421990130E+02  0.92039860025E+02  0.94392592332E+02  0.00000000000E+00 0. -1.
</event>
<event>
 4    1  0.8284550E+003  0.2702295E+02  0.7546771E-02  0.1447378E+00
          2   -1    0    0  502    0  0.00000000000E+00  0.00000000000E+00  0.37661573030E+02  0.37661573030E+02  0.00000000000E+00 0. -1.
          1   -1    0    0  501    0 -0.00000000000E+00 -0.00000000000E+00 -0.19837825606E+02  0.19837825606E+02  0.00000000000E+00 0. -1.
          2    1    1    2  501    0 -0.19834855769E+02 -0.18352607284E+02  0.13233776346E+02  0.30089408998E+02  0.00000000000E+00 0. -1.
          1    1    1    2  502    0  0.19834855769E+02  0.18352607284E+02  0.45899710778E+01  0.27409989638E+02  0.00000000000E+00 0. -1.
</event>
<event>
 4    1  0.8284550E+003  0.2173188E+02  0.7546771E-02  0.1509067E+00
          2   -1    0    0  502    0  0.00000000000E+00  0.00000000000E+00  0.10925525408E+04  0.10925525408E+04  0.00000000000E+00 0.  1.
          1   -1    0    0  501    0 -0.00000000000E+00 -0.00000000000E+00 -0.96393410038E+00  0.96393410038E+00  0.00000000000E+00 0. -1.
          2    1    1    2  501    0  0.82936723669E+01  0.20087052457E+02  0.95185546790E+03  0.95210351667E+03  0.00000000000E+00 0.  1.
          1    1    1    2  502    0 -0.82936723669E+01 -0.20087052457E+02  0.13973313883E+03  0.14141295827E+03  0.00000000000E+00 0. -1.
</event>
<event>
 4    1  0.8284550E+003  0.2740140E+02  0.7546771E-02  0.1443617E+00
          2   -1    0    0  502    0  0.00000000000E+00  0.00000000000E+00  0.27051615389E+03  0.27051615389E+03  0.00000000000E+00 0.  1.
          1   -1    0    0  501    0 -0.00000000000E+00 -0.00000000000E+00 -0.19720701137E+03  0.19720701137E+03  0.00000000000E+00 0. -1.
          2    1    1    2  501    0  0.24767002423E+02  0.11723160278E+02  0.26886459077E+03  0.27025729420E+03  0.00000000000E+00 0.  1.
          1    1    1    2  502    0 -0.24767002423E+02 -0.11723160278E+02 -0.19555544825E+03  0.19746587106E+03  0.00000000000E+00 0. -1.
</event>
<event>
 4    1  0.8284550E+003  0.4689869E+02  0.7546771E-02  0.1312209E+00
          2   -1    0    0  502    0  0.00000000000E+00  0.00000000000E+00  0.35422532620E+04  0.35422532620E+04  0.00000000000E+00 0.  1.
          1   -1    0    0  501    0 -0.00000000000E+00 -0.00000000000E+00 -0.32027852134E+01  0.32027852134E+01  0.00000000000E+00 0.  1.
          2    1    1    2  501    0  0.45831935847E+02  0.99458940860E+01  0.33611630346E+04  0.33614902101E+04  0.00000000000E+00 0.  1.
          1    1    1    2  502    0 -0.45831935847E+02 -0.99458940860E+01  0.17788744218E+03  0.18396583715E+03  0.00000000000E+00 0.  1.
</event>
<event>
 4    1  0.8284550E+003  0.9660096E+02  0.7546771E-02  0.1169832E+00
          2   -1    0    0  502    0  0.00000000000E+00  0.00000000000E+00  0.80816739020E+02  0.80816739020E+02  0.00000000000E+00 0.  1.
          1   -1    0    0  501    0 -0.00000000000E+00 -0.00000000000E+00 -0.11553602551E+03  0.11553602551E+03  0.00000000000E+00 0. -1.
          2    1    1    2  501    0 -0.55390073999E+02  0.79143388910E+02 -0.19744239968E+02  0.98598028975E+02  0.00000000000E+00 0.  1.
          1    1    1    2  502    0  0.55390073999E+02 -0.79143388910E+02 -0.14975046527E+02  0.97754735559E+02  0.00000000000E+00 0. -1.
</event>
<event>
 4    1  0.8284550E+003  0.1473950E+03  0.7546771E-02  0.1100317E+00
          2   -1    0    0  502    0  0.00000000000E+00  0.00000000000E+00  0.11059762278E+03  0.11059762278E+03  0.00000000000E+00 0. -1.
          1   -1    0    0  501    0 -0.00000000000E+00 -0.00000000000E+00 -0.11875010799E+04  0.11875010799E+04  0.00000000000E+00 0.  1.
          2    1    1    2  501    0  0.50211865297E+02 -0.13857869089E+03  0.54489895566E+02  0.15714462671E+03  0.00000000000E+00 0. -1.
          1    1    1    2  502    0 -0.50211865297E+02  0.13857869089E+03 -0.11313933527E+04  0.11409540760E+04  0.00000000000E+00 0.  1.
</event>
<event>
 4    1  0.8284550E+003  0.2629492E+02  0.7546771E-02  0.1454822E+00
          2   -1    0    0  502    0  0.00000000000E+00  0.00000000000E+00  0.17685965411E+03  0.17685965411E+03  0.00000000000E+00 0.  1.
          1   -1    0    0  501    0 -0.00000000000E+00 -0.00000000000E+00 -0.50674015523E+01  0.50674015523E+01  0.00000000000E+00 0. -1.
          2    1    1    2  501    0 -0.17345670007E+02  0.19762349418E+02  0.12937929229E+03  0.13202433108E+03  0.00000000000E+00 0.  1.
          1    1    1    2  502    0  0.17345670007E+02 -0.19762349418E+02  0.42412960268E+02  0.49902724587E+02  0.00000000000E+00 0. -1.
</event>
<event>
 4    1  0.8284550E+003  0.2979958E+02  0.7546771E-02  0.1421346E+00
          2   -1    0    0  502    0  0.00000000000E+00  0.00000000000E+00  0.52822909530E+01  0.52822909530E+01  0.00000000000E+00 0. -1.
          1   -1    0    0  501    0 -0.00000000000E+00 -0.00000000000E+00 -0.45820292048E+03  0.45820292048E+03  0.00000000000E+00 0. -1.
          2    1    1    2  501    0 -0.23264276884E+02  0.18622252342E+02 -0.42067387357E+02  0.51552690912E+02  0.00000000000E+00 0. -1.
          1    1    1    2  502    0  0.23264276884E+02 -0.18622252342E+02 -0.41085324217E+03  0.41193252052E+03  0.00000000000E+00 0. -1.
</event>
<event>
 4    1  0.8284550E+003  0.4793334E+02  0.7546771E-02  0.1307390E+00
          2   -1    0    0  502    0  0.00000000000E+00  0.00000000000E+00  0.74108481200E+02  0.74108481200E+02  0.00000000000E+00 0.  1.
          1   -1    0    0  501    0 -0.00000000000E+00 -0.00000000000E+00 -0.46946376087E+02  0.46946376087E+02  0.00000000000E+00 0.  1.
          2    1    1    2  501    0 -0.46122001668E+02 -0.13052425341E+02  0.48853673425E+02  0.68441845769E+02  0.00000000000E+00 0.  1.
          1    1    1    2  502    0  0.46122001668E+02  0.13052425341E+02 -0.21691568312E+02  0.52613011518E+02  0.00000000000E+00 0.  1.
</event>
<event>
 4    1  0.8284550E+003  0.4404252E+02  0.7546771E-02  0.1326297E+00
          2   -1    0    0  502    0  0.00000000000E+00  0.00000000000E+00  0.14189863691E+03  0.14189863691E+03  0.00000000000E+00 0. -1.
          1   -1    0    0  501    0 -0.00000000000E+00 -0.00000000000E+00 -0.26640447594E+03  0.26640447594E+03  0.00000000000E+00 0.  1.
          2    1    1    2  501    0 -0.38214059398E+02 -0.21895878408E+02  0.13659188353E+03  0.14351685083E+03  0.00000000000E+00 0. -1.
          1    1    1    2  502    0  0.38214059398E+02  0.21895878408E+02 -0.26109772256E+03  0.26478626201E+03  0.00000000000E+00 0.  1.
</event>
<event>
 4    1  0.8284550E+003  0.3245159E+02  0.7546771E-02  0.1399423E+00
          2   -1    0    0  502    0  0.00000000000E+00  0.00000000000E+00  0.58339622280E+01  0.58339622280E+01  0.00000000000E+00 0. -1.
          1   -1    0    0  501    0 -0.00000000000E+00 -0.00000000000E+00 -0.18868515028E+03  0.18868515028E+03  0.00000000000E+00 0. -1.
          2    1    1    2  501    0  0.23331803281E+02  0.22555085620E+02 -0.11166680859E+03  0.11628663325E+03  0.00000000000E+00 0. -1.
          1    1    1    2  502    0 -0.23331803281E+02 -0.22555085620E+02 -0.71184379464E+02  0.78232479261E+02  0.00000000000E+00 0. -1.
</event>
<event>
 4    1  0.8284550E+003  0.3017997E+02  0.7546771E-02  0.1418039E+00
          2   -1    0    0  502    0  0.00000000000E+00  0.00000000000E+00  0.12117021600E+04  0.12117021600E+04  0.00000000000E+00 0. -1.
          1   -1    0    0  501    0 -0.00000000000E+00 -0.00000000000E+00 -0.85322696075E+00  0.85322696075E+00  0.00000000000E+00 0. -1.
          2    1    1    2  501    0 -0.16484729454E+02  0.25280114985E+02  0.81456614010E+03  0.81512503772E+03  0.00000000000E+00 0. -1.
          1    1    1    2  502    0  0.16484729454E+02 -0.25280114985E+02  0.39628279298E+03  0.39743034928E+03  0.00000000000E+00 0. -1.
</event>
<event>
 4    1  0.8284550E+003  0.2879168E+02  0.7546771E-02  0.1430395E+00
          2   -1    0    0  502    0  0.00000000000E+00  0.00000000000E+00  0.26008689743E+03  0.26008689743E+03  0.00000000000E+00 0.  1.
          1   -1    0    0  501    0 -0.00000000000E+00 -0.00000000000E+00 -0.42392247726E+01  0.42392247726E+01  0.00000000000E+00 0. -1.
          2    1    1    2  501    0  0.27433539021E+02  0.87385256901E+01  0.19376088863E+03  0.19588834283E+03  0.00000000000E+00 0.  1.
          1    1    1    2  502    0 -0.27433539021E+02 -0.87385256901E+01  0.62086784026E+02  0.68437779370E+02  0.00000000000E+00 0. -1.
</event>
<event>
 4    1  0.8284550E+003  0.2766086E+02  0.7546771E-02  0.1441080E+00
          2   -1    0    0  502    0  0.00000000000E+00  0.00000000000E+00  0.97804699934E+03  0.97804699934E+03  0.00000000000E+00 0.  1.
          1   -1    0    0  501    0 -0.00000000000E+00 -0.00000000000E+00 -0.13312411990E+02  0.13312411990E+02  0.00000000000E+00 0. -1.
          2    1    1    2  501    0 -0.12715185082E+02  0.24565164435E+02  0.96326232692E+03  0.96365939714E+03  0.00000000000E+00 0.  1.
          1    1    1    2  502    0  0.12715185082E+02 -0.24565164435E+02  0.14722604319E+01  0.27700014191E+02  0.00000000000E+00 0. -1.
</event>
<event>
 4    1  0.8284550E+003  0.3687644E+02  0.7546771E-02  0.1367830E+00
          2   -1    0    0  502    0  0.00000000000E+00  0.00000000000E+00  0.36253811370E+02  0.36253811370E+02  0.00000000000E+00 0. -1.
          1   -1    0    0  501    0 -0.00000000000E+00 -0.00000000000E+00 -0.37500017203E+03  0.37500017203E+03  0.00000000000E+00 0.  1.
          2    1    1    2  501    0  0.36855550534E+02  0.12410192171E+01  0.25698896875E+02  0.44947803445E+02  0.00000000000E+00 0. -1.
          1    1    1    2  502    0 -0.36855550534E+02 -0.12410192171E+01 -0.36444525754E+03  0.36630617996E+03  0.00000000000E+00 0.  1.
</event>
<event>
 4    1  0.8284550E+003  0.2165446E+02  0.7546771E-02  0.1510123E+00
          2   -1    0    0  502    0  0.00000000000E+00  0.00000000000E+00  0.33455028871E+03  0.33455028871E+03  0.00000000000E+00 0. -1.
          1   -1    0    0  501    0 -0.00000000000E+00 -0.00000000000E+00 -0.14097541267E+01  0.14097541267E+01  0.00000000000E+00 0. -1.
          2    1    1    2  501    0 -0.68639049328E+01  0.20537814949E+02  0.15381677284E+03  0.15533355929E+03  0.00000000000E+00 0. -1.
          1    1    1    2  502    0  0.68639049328E+01 -0.20537814949E+02  0.17932376174E+03  0.18062648355E+03  0.00000000000E+00 0. -1.
</event>
<event>
 4    1  0.8284550E+003  0.4279880E+02  0.7546771E-02  0.1332822E+00
          2   -1    0    0  502    0  0.00000000000E+00  0.00000000000E+00  0.81461650851E+02  0.81461650851E+02  0.00000000000E+00 0. -1.
          1   -1    0    0  501    0 -0.00000000000E+00 -0.00000000000E+00 -0.14246254094E+03  0.14246254094E+03  0.00000000000E+00 0. -1.
          2    1    1    2  501    0  0.25679602720E+02 -0.34238793966E+02  0.72246533580E+02  0.83972010947E+02  0.00000000000E+00 0. -1.
          1    1    1    2  502    0 -0.25679602720E+02  0.34238793966E+02 -0.13324742367E+03  0.13995218084E+03  0.00000000000E+00 0. -1.
</event>
<event>
 4    1  0.8284550E+003  0.4403814E+02  0.7546771E-02  0.1326320E+00
          2   -1    0    0  502    0  0.00000000000E+00  0.00000000000E+00  0.19858864391E+01  0.19858864391E+01  0.00000000000E+00 0. -1.
          1   -1    0    0  501    0 -0.00000000000E+00 -0.00000000000E+00 -0.17716791597E+04  0.17716791597E+04  0.00000000000E+00 0.  1.
          2    1    1    2  501    0  0.43487014742E+02 -0.69453007243E+01 -0.29074277074E+03  0.29405903555E+03  0.00000000000E+00 0. -1.
          1    1    1    2  502    0 -0.43487014742E+02  0.69453007243E+01 -0.14789505025E+04  0.14796060106E+04  0.00000000000E+00 0.  1.
</event>
<event>
 4    1  0.8284550E+003  0.2022884E+02  0.7546771E-02  0.1530566E+00
          2   -1    0    0  502    0  0.00000000000E+00  0.00000000000E+00  0.10861177242E+04  0.10861177242E+04  0.00000000000E+00 0.  1.
          1   -1    0    0  501    0 -0.00000000000E+00 -0.00000000000E+00 -0.27043743223E+01  0.27043743223E+01  0.00000000000E+00 0.  1.
          2    1    1    2  501    0  0.78919572189E+01  0.18625865813E+02  0.10467737132E+04  0.10469691555E+04  0.00000000000E+00 0.  1.
          1    1    1    2  502    0 -0.78919572189E+01 -0.18625865813E+02  0.36639636684E+02  0.41852943055E+02  0.00000000000E+00 0.  1.
</event>
<event>
 4    1  0.8284550E+003  0.2009603E+02  0.7546771E-02  0.1532573E+00
          2   -1    0    0  502    0  0.00000000000E+00  0.00000000000E+00  0.67947083216E+01  0.67947083216E+01  0.00000000000E+00 0. -1.
          1   -1    0    0  501    0 -0.00000000000E+00 -0.00000000000E+00 -0.12169163446E+03  0.12169163446E+03  0.00000000000E+00 0. -1.
          2    1    1    2  501    0  0.15611002257E+02 -0.12654924221E+02 -0.11498429676E+02  0.23153064235E+02  0.00000000000E+00 0. -1.
          1    1    1    2  502    0 -0.15611002257E+02  0.12654924221E+02 -0.10339849646E+03  0.10533327855E+03  0.00000000000E+00 0. -1.
</event>
<event>
 4    1  0.8284550E+003  0.2115435E+02  0.7546771E-02  0.1517072E+00
          2   -1    0    0  502    0  0.00000000000E+00  0.00000000000E+00  0.70365974905E+01  0.70365974905E+01  0.00000000000E+00 0. -1.
          1   -1    0    0  501    0 -0.00000000000E+00 -0.00000000000E+00 -0.24234536963E+03  0.24234536963E+03  0.00000000000E+00 0.  1.
          2    1    1    2  501    0 -0.17880464668E+02  0.11304672245E+02 -0.10566903836E+02  0.23646692961E+02  0.00000000000E+00 0. -1.
          1    1    1    2  502    0  0.17880464668E+02 -0.11304672245E+02 -0.22474186830E+03  0.22573527416E+03  0.00000000000E+00 0.  1.
</event>
<event>
 4    1  0.8969523E+003  0.2527517E+02  0.7546771E-02  0.1465748E+00
          2   -1    0    0  502    0  0.00000000000E+00  0.00000000000E+00  0.10444857609E+04  0.10444857609E+04  0.00000000000E+00 0. -1.
          1   -1    0    0  501    0 -0.00000000000E+00 -0.00000000000E+00 -0.20169224756E+03  0.20169224756E+03  0.00000000000E+00 0.  1.
          2    1    1    2  501    0 -0.20022144347E+02  0.15425559626E+02  0.10435402945E+04  0.10438463395E+04  0.00000000000E+00 0. -1.
          1    1    1    2  502    0  0.20022144347E+02 -0.15425559626E+02 -0.20074678113E+03  0.20233166902E+03  0.00000000000E+00 0.  1.
</event>
<event>
 4    1  0.8284550E+003  0.2977115E+02  0.7546771E-02  0.1421596E+00
          2   -1    0    0  502    0  0.00000000000E+00  0.00000000000E+00  0.56334331883E+02  0.56334331883E+02  0.00000000000E+00 0. -1.
          1   -1    0    0  501    0 -0.00000000000E+00 -0.00000000000E+00 -0.26304410434E+03  0.26304410434E+03  0.00000000000E+00 0. -1.
          2    1    1    2  501    0  0.27524039522E+02  0.11346735918E+02  0.51485024450E+02  0.59472925859E+02  0.00000000000E+00 0. -1.
          1    1    1    2  502    0 -0.27524039522E+02 -0.11346735918E+02 -0.25819479691E+03  0.25990551036E+03  0.00000000000E+00 0. -1.
</event>
<event>
 4    1  0.8284550E+003  0.2820160E+02  0.7546771E-02  0.1435897E+00
          2   -1    0    0  502    0  0.00000000000E+00  0.00000000000E+00  0.26768069936E+03  0.26768069936E+03  0.00000000000E+00 0. -1.
          1   -1    0    0  501    0 -0.00000000000E+00 -0.00000000000E+00 -0.32059670656E+01  0.32059670656E+01  0.00000000000E+00 0. -1.
          2    1    1    2  501    0  0.26470391340E+02  0.97287587486E+01  0.16889002046E+03  0.17122841287E+03  0.00000000000E+00 0. -1.
          1    1    1    2  502    0 -0.26470391340E+02 -0.97287587486E+01  0.95584711836E+02  0.99658253553E+02  0.00000000000E+00 0. -1.
</event>
<event>
 4    1  0.8284550E+003  0.2126374E+02  0.7546771E-02  0.1515532E+00
          2   -1    0    0  502    0  0.00000000000E+00  0.00000000000E+00  0.45185491273E+02  0.45185491273E+02  0.00000000000E+00 0. -1.
          1   -1    0    0  501    0 -0.00000000000E+00 -0.00000000000E+00 -0.36703046189E+02  0.36703046189E+02  0.00000000000E+00 0. -1.
          2    1    1    2  501    0  0.18829702421E+02 -0.98787221279E+01  0.39160875810E+02  0.44561429941E+02  0.00000000000E+00 0. -1.
          1    1    1    2  502    0 -0.18829702421E+02  0.98787221279E+01 -0.30678430726E+02  0.37327107522E+02  0.00000000000E+00 0. -1.
</event>
<event>
 4    1  0.8284550E+003  0.4206919E+02  0.7546771E-02  0.1336769E+00
          2   -1    0    0  502    0  0.00000000000E+00  0.00000000000E+00  0.31329844760E+02  0.31329844760E+02  0.00000000000E+00 0.  1.
          1   -1    0    0  501    0 -0.00000000000E+00 -0.00000000000E+00 -0.54768535955E+03  0.54768535955E+03  0.00000000000E+00 0. -1.
          2    1    1    2  501    0 -0.41134268539E+02  0.88197851052E+01  0.15993309845E+02  0.45006695251E+02  0.00000000000E+00 0.  1.
          1    1    1    2  502    0  0.41134268539E+02 -0.88197851052E+01 -0.53234882463E+03  0.53400850906E+03  0.00000000000E+00 0. -1.
</event>
<event>
 4    1  0.8284550E+003  0.3343914E+02  0.7546771E-02  0.1391881E+00
          2   -1    0    0  502    0  0.00000000000E+00  0.00000000000E+00  0.11821118951E+02  0.11821118951E+02  0.00000000000E+00 0. -1.
          1   -1    0    0  501    0 -0.00000000000E+00 -0.00000000000E+00 -0.96298915973E+02  0.96298915973E+02  0.00000000000E+00 0.  1.
          2    1    1    2  501    0 -0.31766257020E+02  0.10444193240E+02 -0.35040313196E+02  0.48435522154E+02  0.00000000000E+00 0. -1.
          1    1    1    2  502    0  0.31766257020E+02 -0.10444193240E+02 -0.49437483826E+02  0.59684512769E+02  0.00000000000E+00 0.  1.
</event>
<event>
 4    1  0.8284550E+003  0.2647303E+02  0.7546771E-02  0.1452975E+00
          2   -1    0    0  502    0  0.00000000000E+00  0.00000000000E+00  0.24698833116E+03  0.24698833116E+03  0.00000000000E+00 0. -1.
          1   -1    0    0  501    0 -0.00000000000E+00 -0.00000000000E+00 -0.70356001692E+02  0.70356001692E+02  0.00000000000E+00 0.  1.
          2    1    1    2  501    0  0.15365654547E+02  0.21557321114E+02  0.24375576752E+03  0.24518910179E+03  0.00000000000E+00 0. -1.
          1    1    1    2  502    0 -0.15365654547E+02 -0.21557321114E+02 -0.67123438058E+02  0.72155231064E+02  0.00000000000E+00 0.  1.
</event>
<event>
 4    1  0.8284550E+003  0.2133777E+02  0.7546771E-02  0.1514497E+00
          2   -1    0    0  502    0  0.00000000000E+00  0.00000000000E+00  0.24164276831E+01  0.24164276831E+01  0.00000000000E+00 0. -1.
          1   -1    0    0  501    0 -0.00000000000E+00 -0.00000000000E+00 -0.19130473991E+03  0.19130473991E+03  0.00000000000E+00 0. -1.
          2    1    1    2  501    0  0.11076713667E+02  0.18237509446E+02 -0.82547361248E+02  0.85260584008E+02  0.00000000000E+00 0. -1.
          1    1    1    2  502    0 -0.11076713667E+02 -0.18237509446E+02 -0.10634095098E+03  0.10846058359E+03  0.00000000000E+00 0. -1.
</event>
<event>
 4    1  0.8284550E+003  0.5127446E+02  0.7546771E-02  0.1292739E+00
          2   -1    0    0  502    0  0.00000000000E+00  0.00000000000E+00  0.25305096070E+04  0.25305096070E+04  0.00000000000E+00 0. -1.
          1   -1    0    0  501    0 -0.00000000000E+00 -0.00000000000E+00 -0.24194959620E+01  0.24194959620E+01  0.00000000000E+00 0. -1.
          2    1    1    2  501    0 -0.41539856533E+02 -0.30058450831E+02  0.22207019310E+04  0.22212937979E+04  0.00000000000E+00 0. -1.
          1    1    1    2  502    0  0.41539856533E+02  0.30058450831E+02  0.30738818001E+03  0.31163530505E+03  0.00000000000E+00 0. -1.
</event>
<event>
 4    1  0.8284550E+003  0.2889274E+02  0.7546771E-02  0.1429469E+00
          2   -1    0    0  502    0  0.00000000000E+00  0.00000000000E+00  0.31837147196E+03  0.31837147196E+03  0.00000000000E+00 0.  1.
          1   -1    0    0  501    0 -0.00000000000E+00 -0.00000000000E+00 -0.40876882233E+03  0.40876882233E+03  0.00000000000E+00 0.  1.
          2    1    1    2  501    0  0.15259950952E+01  0.28852412664E+02  0.31720352835E+03  0.31851666954E+03  0.00000000000E+00 0.  1.
          1    1    1    2  502    0 -0.15259950952E+01 -0.28852412664E+02 -0.40760087872E+03  0.40862362476E+03  0.00000000000E+00 0.  1.
</event>
<event>
 4    1  0.8284550E+003  0.2612702E+02  0.7546771E-02  0.1456580E+00
          2   -1    0    0  502    0  0.00000000000E+00  0.00000000000E+00  0.11728424384E+02  0.11728424384E+02  0.00000000000E+00 0. -1.
          1   -1    0    0  501    0 -0.00000000000E+00 -0.00000000000E+00 -0.90124922596E+03  0.90124922596E+03  0.00000000000E+00 0.  1.
          2    1    1    2  501    0  0.19067252922E+02  0.17862276733E+02 -0.32574837705E+01  0.26329304294E+02  0.00000000000E+00 0. -1.
          1    1    1    2  502    0 -0.19067252922E+02 -0.17862276733E+02 -0.88626331780E+03  0.88664834605E+03  0.00000000000E+00 0.  1.
</event>
<event>
 4    1  0.8284550E+003  0.2003318E+02  0.7546771E-02  0.1533529E+00
          2   -1    0    0  502    0  0.00000000000E+00  0.00000000000E+00  0.14046032396E+04  0.14046032396E+04  0.00000000000E+00 0.  1.
          1   -1    0    0  501    0 -0.00000000000E+00 -0.00000000000E+00 -0.64033315131E+00  0.64033315131E+00  0.00000000000E+00 0.  1.
          2    1    1    2  501    0  0.10787577872E+02 -0.16880648327E+02  0.12248516731E+04  0.12250154893E+04  0.00000000000E+00 0.  1.
          1    1    1    2  502    0 -0.10787577872E+02  0.16880648327E+02  0.17911123341E+03  0.18022808343E+03  0.00000000000E+00 0.  1.
</event>
<event>
 4    1  0.8284550E+003  0.4674174E+02  0.7546771E-02  0.1312953E+00
          2   -1    0    0  502    0  0.00000000000E+00  0.00000000000E+00  0.38365349877E+03  0.38365349877E+03  0.00000000000E+00 0.  1.
          1   -1    0    0  501    0 -0.00000000000E+00 -0.00000000000E+00 -0.94449571367E+02  0.94449571367E+02  0.00000000000E+00 0.  1.
          2    1    1    2  501    0 -0.38302571250E+02  0.26789989761E+02  0.37633483747E+03  0.37922645003E+03  0.00000000000E+00 0.  1.
          1    1    1    2  502    0  0.38302571250E+02 -0.26789989761E+02 -0.87130910060E+02  0.98876620106E+02  0.00000000000E+00 0.  1.
</event>
<event>
 4    1  0.8284550E+003  0.2184126E+02  0.7546771E-02  0.1507585E+00
          2   -1    0    0  502    0  0.00000000000E+00  0.00000000000E+00  0.51636354637E+02  0.51636354637E+02  0.00000000000E+00 0.  1.
          1   -1    0    0  501    0 -0.00000000000E+00 -0.00000000000E+00 -0.88406983500E+02  0.88406983500E+02  0.00000000000E+00 0.  1.
          2    1    1    2  501    0  0.21481148102E+02  0.39498089798E+01  0.47876821060E+02  0.52623480592E+02  0.00000000000E+00 0.  1.
          1    1    1    2  502    0 -0.21481148102E+02 -0.39498089798E+01 -0.84647449923E+02  0.87419857545E+02  0.00000000000E+00 0.  1.
</event>
<event>
 4    1  0.8284550E+003  0.2952372E+02  0.7546771E-02  0.1423781E+00
          2   -1    0    0  502    0  0.00000000000E+00  0.00000000000E+00  0.20893211399E+03  0.20893211399E+03  0.00000000000E+00 0.  1.
          1   -1    0    0  501    0 -0.00000000000E+00 -0.00000000000E+00 -0.62039708352E+02  0.62039708352E+02  0.00000000000E+00 0. -1.
          2    1    1    2  501    0 -0.28947407178E+02 -0.58049856181E+01  0.20429738956E+03  0.20641965415E+03  0.00000000000E+00 0.  1.
          1    1    1    2  502    0  0.28947407178E+02  0.58049856181E+01 -0.57404983914E+02  0.64552168194E+02  0.00000000000E+00 0. -1.
</event>
<event>
 4    1  0.8284550E+003  0.3630018E+02  0.7546771E-02  0.1371646E+00
          2   -1    0    0  502    0  0.00000000000E+00  0.00000000000E+00  0.59775397038E+03  0.59775397038E+03  0.00000000000E+00 0. -1.
          1   -1    0    0  501    0 -0.00000000000E+00 -0.00000000000E+00 -0.22957063460E+01  0.22957063460E+01  0.00000000000E+00 0.  1.
          2    1    1    2  501    0  0.14738479412E+01 -0.36270243141E+02  0.35755571016E+03  0.35939364022E+03  0.00000000000E+00 0. -1.
          1    1    1    2  502    0 -0.14738479412E+01  0.36270243141E+02  0.23790255388E+03  0.24065603651E+03  0.00000000000E+00 0.  1.
</event>
<event>
 4    1  0.8284550E+003  0.2792773E+02  0.7546771E-02  0.1438505E+00
          2   -1    0    0  502    0  0.00000000000E+00  0.00000000000E+00  0.24694244697E+02  0.24694244697E+02  0.00000000000E+00 0. -1.
          1   -1    0    0  501    0 -0.00000000000E+00 -0.00000000000E+00 -0.57534561576E+03  0.57534561576E+03  0.00000000000E+00 0.  1.
          2    1    1    2  501    0 -0.23652183647E+02 -0.14850326066E+02  0.16342952466E+02  0.32358153081E+02  0.00000000000E+00 0. -1.
          1    1    1    2  502    0  0.23652183647E+02  0.14850326066E+02 -0.56699432353E+03  0.56768170738E+03  0.00000000000E+00 0.  1.
</event>
<event>
 4    1  0.8284550E+003  0.2545924E+02  0.7546771E-02  0.1463731E+00
          2   -1    0    0  502    0  0.00000000000E+00  0.00000000000E+00  0.27871881528E+03  0.27871881528E+03  0.00000000000E+00 0.  1.
          1   -1    0    0  501    0 -0.00000000000E+00 -0.00000000000E+00 -0.30991329332E+03  0.30991329332E+03  0.00000000000E+00 0.  1.
          2    1    1    2  501    0  0.17830589562E+02 -0.18172583567E+02  0.27761248389E+03  0.27877744516E+03  0.00000000000E+00 0.  1.
          1    1    1    2  502    0 -0.17830589562E+02  0.18172583567E+02 -0.30880696194E+03  0.30985466344E+03  0.00000000000E+00 0.  1.
</event>
<event>
 4    1  0.8284550E+003  0.2337736E+02  0.7546771E-02  0.1487813E+00
          2   -1    0    0  502    0  0.00000000000E+00  0.00000000000E+00  0.69680501182E+00  0.69680501182E+00  0.00000000000E+00 0.  1.
          1   -1    0    0  501    0 -0.00000000000E+00 -0.00000000000E+00 -0.91713997643E+03  0.91713997643E+03  0.00000000000E+00 0. -1.
          2    1    1    2  501    0 -0.22446297690E+02  0.65318136050E+01 -0.28356305976E+03  0.28452505993E+03  0.00000000000E+00 0.  1.
          1    1    1    2  502    0  0.22446297690E+02 -0.65318136050E+01 -0.63288011166E+03  0.63331172151E+03  0.00000000000E+00 0. -1.
</event>
<event>
 4    1  0.8284550E+003  0.4325776E+02  0.7546771E-02  0.1330385E+00
          2   -1    0    0  502    0  0.00000000000E+00  0.00000000000E+00  0.24290798227E+02  0.24290798227E+02  0.00000000000E+00 0.  1.
          1   -1    0    0  501    0 -0.00000000000E+00 -0.00000000000E+00 -0.19374256730E+03  0.19374256730E+03  0.00000000000E+00 0.  1.
          2    1    1    2  501    0  0.31800600400E+02  0.29325000878E+02 -0.11416097176E+00  0.43257911358E+02  0.00000000000E+00 0.  1.
          1    1    1    2  502    0 -0.31800600400E+02 -0.29325000878E+02 -0.16933760810E+03  0.17477545417E+03  0.00000000000E+00 0.  1.
</event>
<event>
 4    1  0.8284550E+003  0.3951387E+02  0.7546771E-02  0.1351358E+00
          2   -1    0    0  502    0  0.00000000000E+00  0.00000000000E+00  0.14260295854E+04  0.14260295854E+04  0.00000000000E+00 0.  1.
          1   -1    0    0  501    0 -0.00000000000E+00 -0.00000000000E+00 -0.27565161273E+02  0.27565161273E+02  0.00000000000E+00 0.  1.
          2    1    1    2  501    0  0.15099510934E+02 -0.36515073958E+02  0.14114491116E+04  0.14120021035E+04  0.00000000000E+00 0.  1.
          1    1    1    2  502    0 -0.15099510934E+02  0.36515073958E+02 -0.12984687425E+02  0.41592643149E+02  0.00000000000E+00 0.  1.
</event>
<event>
 4    1  0.8284550E+003  0.2615815E+02  0.7546771E-02  0.1456253E+00
          2   -1    0    0  502    0  0.00000000000E+00  0.00000000000E+00  0.18084394398E+04  0.18084394398E+04  0.00000000000E+00 0. -1.
          1   -1    0    0  501    0 -0.00000000000E+00 -0.00000000000E+00 -0.46893983120E+00  0.46893983120E+00  0.00000000000E+00 0. -1.
          2    1    1    2  501    0  0.65866114842E+01 -0.25315309780E+02  0.50648793057E+03  0.50716296412E+03  0.00000000000E+00 0. -1.
          1    1    1    2  502    0 -0.65866114842E+01  0.25315309780E+02  0.13014825693E+04  0.13017454155E+04  0.00000000000E+00 0. -1.
</event>
<event>
 4    1  0.8284550E+003  0.2043492E+02  0.7546771E-02  0.1527488E+00
          2   -1    0    0  502    0  0.00000000000E+00  0.00000000000E+00  0.44119315488E+01  0.44119315488E+01  0.00000000000E+00 0. -1.
          1   -1    0    0  501    0 -0.00000000000E+00 -0.00000000000E+00 -0.17182276093E+03  0.17182276093E+03  0.00000000000E+00 0. -1.
          2    1    1    2  501    0 -0.81205773801E+01 -0.18752128142E+02 -0.24650622667E+02  0.32019357969E+02  0.00000000000E+00 0. -1.
          1    1    1    2  502    0  0.81205773801E+01  0.18752128142E+02 -0.14276020671E+03  0.14421533451E+03  0.00000000000E+00 0. -1.
</event>
<event>
 4    1  0.8284550E+003  0.2422394E+02  0.7546771E-02  0.1477676E+00
          2   -1    0    0  502    0  0.00000000000E+00  0.00000000000E+00  0.10995882238E+03  0.10995882238E+03  0.00000000000E+00 0.  1.
          1   -1    0    0  501    0 -0.00000000000E+00 -0.00000000000E+00 -0.77035484700E+02  0.77035484700E+02  0.00000000000E+00 0.  1.
          2    1    1    2  501    0  0.13748157034E+01  0.24184897596E+02  0.10666225683E+03  0.10937840930E+03  0.00000000000E+00 0.  1.
          1    1    1    2  502    0 -0.13748157034E+01 -0.24184897596E+02 -0.73738919150E+02  0.77615897775E+02  0.00000000000E+00 0.  1.
</event>
<event>
 4    1  0.8284550E+003  0.2419114E+02  0.7546771E-02  0.1478059E+00
          2   -1    0    0  502    0  0.00000000000E+00  0.00000000000E+00  0.11966333673E+04  0.11966333673E+04  0.00000000000E+00 0. -1.
          1   -1    0    0  501    0 -0.00000000000E+00 -0.00000000000E+00 -0.12444641062E+02  0.12444641062E+02  0.00000000000E+00 0. -1.
          2    1    1    2  501    0  0.13274335211E+02  0.20223832577E+02  0.11846357609E+04  0.11848827357E+04  0.00000000000E+00 0. -1.
          1    1    1    2  502    0 -0.13274335211E+02 -0.20223832577E+02 -0.44703464868E+00  0.24195272665E+02  0.00000000000E+00 0. -1.
</event>
<event>
 4    1  0.8284550E+003  0.2969693E+02  0.7546771E-02  0.1422249E+00
          2   -1    0    0  502    0  0.00000000000E+00  0.00000000000E+00  0.75299395017E+03  0.75299395017E+03  0.00000000000E+00 0.  1.
          1   -1    0    0  501    0 -0.00000000000E+00 -0.00000000000E+00 -0.77042034012E+01  0.77042034012E+01  0.00000000000E+00 0. -1.
          2    1    1    2  501    0  0.92571250191E+01  0.28217246934E+02  0.72289225713E+03  0.72350198535E+03  0.00000000000E+00 0.  1.
          1    1    1    2  502    0 -0.92571250191E+01 -0.28217246934E+02  0.22397489639E+02  0.37196168221E+02  0.00000000000E+00 0. -1.
</event>
<event>
 4    1  0.8284550E+003  0.3208273E+02  0.7546771E-02  0.1402321E+00
          2   -1    0    0  502    0  0.00000000000E+00  0.00000000000E+00  0.74615676678E+03  0.74615676678E+03  0.00000000000E+00 0. -1.
          1   -1    0    0  501    0 -0.00000000000E+00 -0.00000000000E+00 -0.35087783458E+01  0.35087783458E+01  0.00000000000E+00 0.  1.
          2    1    1    2  501    0  0.24526272229E+02 -0.20682449385E+02  0.66332123521E+03  0.66409665172E+03  0.00000000000E+00 0. -1.
          1    1    1    2  502    0 -0.24526272229E+02  0.20682449385E+02  0.79326753226E+02  0.85568893410E+02  0.00000000000E+00 0.  1.
</event>
<event>
 4    1  0.8284550E+003  0.2336644E+02  0.7546771E-02  0.1487947E+00
          2   -1    0    0  502    0  0.00000000000E+00  0.00000000000E+00  0.62134672103E+03  0.62134672103E+03  0.00000000000E+00 0.  1.
          1   -1    0    0  501    0 -0.00000000000E+00 -0.00000000000E+00 -0.11088210424E+01  0.11088210424E+01  0.00000000000E+00 0.  1.
          2    1    1    2  501    0 -0.23039195341E+02 -0.38968945405E+01  0.45189605977E+03  0.45249976701E+03  0.00000000000E+00 0.  1.
          1    1    1    2  502    0  0.23039195341E+02  0.38968945405E+01  0.16834184022E+03  0.16995577507E+03  0.00000000000E+00 0.  1.
</event>
<event>
 4    1  0.8284550E+003  0.2615428E+02  0.7546771E-02  0.1456294E+00
          2   -1    0    0  502    0  0.00000000000E+00  0.00000000000E+00  0.12725809300E+04  0.12725809300E+04  0.00000000000E+00 0. -1.
          1   -1    0    0  501    0 -0.00000000000E+00 -0.00000000000E+00 -0.10457485665E+02  0.10457485665E+02  0.00000000000E+00 0.  1.
          2    1    1    2  501    0 -0.22149218738E+02  0.13908935728E+02  0.12558760219E+04  0.12561483307E+04  0.00000000000E+00 0. -1.
          1    1    1    2  502    0  0.22149218738E+02 -0.13908935728E+02  0.62474224944E+01  0.26890085006E+02  0.00000000000E+00 0.  1.
</event>
<event>
 4    1  0.8284550E+003  0.4363233E+02  0.7546771E-02  0.1328421E+00
          2   -1    0    0  502    0  0.00000000000E+00  0.00000000000E+00  0.11282738558E+04  0.11282738558E+04  0.00000000000E+00 0. -1.
          1   -1    0    0  501    0 -0.00000000000E+00 -0.00000000000E+00 -0.21422476732E+03  0.21422476732E+03  0.00000000000E+00 0.  1.
          2    1    1    2  501    0  0.31841162623E+02 -0.29831543733E+02  0.11256250857E+04  0.11264704231E+04  0.00000000000E+00 0. -1.
          1    1    1    2  502    0 -0.31841162623E+02  0.29831543733E+02 -0.21157599716E+03  0.21602820004E+03  0.00000000000E+00 0.  1.
</event>
<event>
 4    1  0.8284550E+003  0.2861684E+02  0.7546771E-02  0.1432009E+00
          2   -1    0    0  502    0  0.00000000000E+00  0.00000000000E+00  0.17082266645E+03  0.17082266645E+03  0.00000000000E+00 0. -1.
          1   -1    0    0  501    0 -0.00000000000E+00 -0.00000000000E+00 -0.34627272140E+03  0.34627272140E+03  0.00000000000E+00 0. -1.
          2    1    1    2  501    0  0.25461141794E+02 -0.13063459155E+02  0.16902668702E+03  0.17143204085E+03  0.00000000000E+00 0. -1.
          1    1    1    2  502    0 -0.25461141794E+02  0.13063459155E+02 -0.34447674196E+03  0.34566334700E+03  0.00000000000E+00 0. -1.
</event>
<event>
 4    1  0.8284550E+003  0.5393635E+02  0.7546771E-02  0.1281952E+00
          2   -1    0    0  502    0  0.00000000000E+00  0.00000000000E+00  0.11579921749E+04  0.11579921749E+04  0.00000000000E+00 0. -1.
          1   -1    0    0  501    0 -0.00000000000E+00 -0.00000000000E+00 -0.67705722946E+02  0.67705722946E+02  0.00000000000E+00 0.  1.
          2    1    1    2  501    0  0.21765882519E+01 -0.53892409994E+02  0.11465148324E+04  0.11477828149E+04  0.00000000000E+00 0. -1.
          1    1    1    2  502    0 -0.21765882519E+01  0.53892409994E+02 -0.56228380383E+02  0.77915082955E+02  0.00000000000E+00 0.  1.
</event>
<event>
 4    1  0.8284550E+003  0.2401948E+02  0.7546771E-02  0.1480078E+00
          2   -1    0    0  502    0  0.00000000000E+00  0.00000000000E+00  0.15650770521E+03  0.15650770521E+03  0.00000000000E+00 0.  1.
          1   -1    0    0  501    0 -0.00000000000E+00 -0.00000000000E+00 -0.34431025062E+03  0.34431025062E+03  0.00000000000E+00 0.  1.
          2    1    1    2  501    0 -0.13184841941E+02  0.20077239810E+02  0.15516361414E+03  0.15701172812E+03  0.00000000000E+00 0.  1.
          1    1    1    2  502    0  0.13184841941E+02 -0.20077239810E+02 -0.34296615955E+03  0.34380622771E+03  0.00000000000E+00 0.  1.
</event>
<event>
 4    1  0.8284550E+003  0.2218757E+02  0.7546771E-02  0.1502960E+00
          2   -1    0    0  502    0  0.00000000000E+00  0.00000000000E+00  0.63948116170E+03  0.63948116170E+03  0.00000000000E+00 0. -1.
          1   -1    0    0  501    0 -0.00000000000E+00 -0.00000000000E+00 -0.46388576694E+01  0.46388576694E+01  0.00000000000E+00 0. -1.
          2    1    1    2  501    0 -0.11476140975E+02  0.18989116063E+02  0.61154652963E+03  0.61194889186E+03  0.00000000000E+00 0. -1.
          1    1    1    2  502    0  0.11476140975E+02 -0.18989116063E+02  0.23295774397E+02  0.32171127510E+02  0.00000000000E+00 0. -1.
</event>
<event>
 4    1  0.8284550E+003  0.2434140E+02  0.7546771E-02  0.1476308E+00
          2   -1    0    0  502    0  0.00000000000E+00  0.00000000000E+00  0.80960545288E+02  0.80960545288E+02  0.00000000000E+00 0.  1.
          1   -1    0    0  501    0 -0.00000000000E+00 -0.00000000000E+00 -0.56435840564E+02  0.56435840564E+02  0.00000000000E+00 0. -1.
          2    1    1    2  501    0 -0.71548579809E+01  0.23266110382E+02  0.76351656579E+02  0.80137877108E+02  0.00000000000E+00 0.  1.
          1    1    1    2  502    0  0.71548579809E+01 -0.23266110382E+02 -0.51826951855E+02  0.57258508744E+02  0.00000000000E+00 0. -1.
</event>
<event>
 4    1  0.8284550E+003  0.3359784E+02  0.7546771E-02  0.1390698E+00
          2   -1    0    0  502    0  0.00000000000E+00  0.00000000000E+00  0.64947828972E+00  0.64947828972E+00  0.00000000000E+00 0. -1.
          1   -1    0    0  501    0 -0.00000000000E+00 -0.00000000000E+00 -0.21781117712E+04  0.21781117712E+04  0.00000000000E+00 0. -1.
          2    1    1    2  501    0  0.47738057658E+01  0.33256961453E+02 -0.59905971091E+03  0.60000112662E+03  0.00000000000E+00 0. -1.
          1    1    1    2  502    0 -0.47738057658E+01 -0.33256961453E+02 -0.15784025820E+04  0.15787601229E+04  0.00000000000E+00 0. -1.
</event>
<event>
 4    1  0.8284550E+003  0.2161629E+02  0.7546771E-02  0.1510645E+00
          2   -1    0    0  502    0  0.00000000000E+00  0.00000000000E+00  0.94596311300E+01  0.94596311300E+01  0.00000000000E+00 0. -1.
          1   -1    0    0  501    0 -0.00000000000E+00 -0.00000000000E+00 -0.60512392257E+02  0.60512392257E+02  0.00000000000E+00 0. -1.
          2    1    1    2  501    0  0.11206587406E+02  0.18484485201E+02 -0.10530817893E+02  0.24044997815E+02  0.00000000000E+00 0. -1.
          1    1    1    2  502    0 -0.11206587406E+02 -0.18484485201E+02 -0.40521943234E+02  0.45927025572E+02  0.00000000000E+00 0. -1.
</event>
<event>
 4    1  0.8284550E+003  0.2003510E+02  0.7546771E-02  0.1533500E+00
          2   -1    0    0  502    0  0.00000000000E+00  0.00000000000E+00  0.94776204867E+01  0.94776204867E+01  0.00000000000E+00 0.  1.
          1   -1    0    0  501    0 -0.00000000000E+00 -0.00000000000E+00 -0.43330646567E+02  0.43330646567E+02  0.00000000000E+00 0.  1.
          2    1    1    2  501    0  0.10184844878E+02 -0.17253221091E+02 -0.20892832660E+02  0.28946764237E+02  0.00000000000E+00 0.  1.
          1    1    1    2  502    0 -0.10184844878E+02  0.17253221091E+02 -0.12960193421E+02  0.23861502817E+02  0.00000000000E+00 0.  1.
</event>
<event>
 4    1  0.8284550E+003  0.2225667E+02  0.7546771E-02  0.1502049E+00
          2   -1    0    0  502    0  0.00000000000E+00  0.00000000000E+00  0.91218192156E+01  0.91218192156E+01  0.00000000000E+00 0.  1.
          1   -1    0    0  501    0 -0.00000000000E+00 -0.00000000000E+00 -0.22689683996E+03  0.22689683996E+03  0.00000000000E+00 0. -1.
          2    1    1    2  501    0  0.11007811306E+02 -0.19343924454E+02 -0.59645199131E+01  0.23042022933E+02  0.00000000000E+00 0.  1.
          1    1    1    2  502    0 -0.11007811306E+02  0.19343924454E+02 -0.21181050083E+03  0.21297663625E+03  0.00000000000E+00 0. -1.
</event>
<event>
 4    1  0.8284550E+003  0.2206493E+02  0.7546771E-02  0.1504586E+00
          2   -1    0    0  502    0  0.00000000000E+00  0.00000000000E+00  0.74798651064E+03  0.74798651064E+03  0.00000000000E+00 0. -1.
          1   -1    0    0  501    0 -0.00000000000E+00 -0.00000000000E+00 -0.46822292971E+01  0.46822292971E+01  0.00000000000E+00 0.  1.
          2    1    1    2  501    0 -0.22031080903E+01  0.21954664796E+02  0.72085028624E+03  0.72118790628E+03  0.00000000000E+00 0. -1.
          1    1    1    2  502    0  0.22031080903E+01 -0.21954664796E+02  0.22453995095E+02  0.31480833650E+02  0.00000000000E+00 0.  1.
</event>
<event>
 4    1  0.8284550E+003  0.3547742E+02  0.7546771E-02  0.1377238E+00
          2   -1    0    0  502    0  0.00000000000E+00  0.00000000000E+00  0.19132996269E+01  0.19132996269E+01  0.00000000000E+00 0. -1.
          1   -1    0    0  501    0 -0.00000000000E+00 -0.00000000000E+00 -0.11313778862E+04  0.11313778862E+04  0.00000000000E+00 0. -1.
          2    1    1    2  501    0 -0.12268601372E+02  0.33288564244E+02 -0.19813897608E+03  0.20129009149E+03  0.00000000000E+00 0. -1.
          1    1    1    2  502    0  0.12268601372E+02 -0.33288564244E+02 -0.93132561050E+03  0.93200109435E+03  0.00000000000E+00 0. -1.
</event>
<event>
 4    1  0.8284550E+003  0.2712219E+02  0.7546771E-02  0.1446385E+00
          2   -1    0    0  502    0  0.00000000000E+00  0.00000000000E+00  0.16299462377E+03  0.16299462377E+03  0.00000000000E+00 0. -1.
          1   -1    0    0  501    0 -0.00000000000E+00 -0.00000000000E+00 -0.14605311303E+03  0.14605311303E+03  0.00000000000E+00 0. -1.
          2    1    1    2  501    0  0.26499288043E+02 -0.57793471666E+01  0.16058845835E+03  0.16286272156E+03  0.00000000000E+00 0. -1.
          1    1    1    2  502    0 -0.26499288043E+02  0.57793471666E+01 -0.14364694761E+03  0.14618501523E+03  0.00000000000E+00 0. -1.
</event>
<event>
 4    1  0.8284550E+003  0.2252533E+02  0.7546771E-02  0.1498546E+00
          2   -1    0    0  502    0  0.00000000000E+00  0.00000000000E+00  0.24088628088E+04  0.24088628088E+04  0.00000000000E+00 0.  1.
          1   -1    0    0  501    0 -0.00000000000E+00 -0.00000000000E+00 -0.21751539337E+00  0.21751539337E+00  0.00000000000E+00 0. -1.
          2    1    1    2  501    0 -0.41533490907E+00  0.22521495755E+02  0.14185574587E+04  0.14187362877E+04  0.00000000000E+00 0.  1.
          1    1    1    2  502    0  0.41533490907E+00 -0.22521495755E+02  0.99008783468E+03  0.99034403651E+03  0.00000000000E+00 0. -1.
</event>
<event>
 4    1  0.8284550E+003  0.3070961E+02  0.7546771E-02  0.1413528E+00
          2   -1    0    0  502    0  0.00000000000E+00  0.00000000000E+00  0.16348168692E+04  0.16348168692E+04  0.00000000000E+00 0.  1.
          1   -1    0    0  501    0 -0.00000000000E+00 -0.00000000000E+00 -0.19798511688E+01  0.19798511688E+01  0.00000000000E+00 0. -1.
          2    1    1    2  501    0  0.20143718505E+02  0.23179962544E+02  0.15053469142E+04  0.15056601250E+04  0.00000000000E+00 0.  1.
          1    1    1    2  502    0 -0.20143718505E+02 -0.23179962544E+02  0.12749010389E+03  0.13113659539E+03  0.00000000000E+00 0. -1.
</event>
<event>
 4    1  0.8284550E+003  0.2193507E+02  0.7546771E-02  0.1506322E+00
          2   -1    0    0  502    0  0.00000000000E+00  0.00000000000E+00  0.10257892911E+04  0.10257892911E+04  0.00000000000E+00 0. -1.
          1   -1    0    0  501    0 -0.00000000000E+00 -0.00000000000E+00 -0.85040518726E+00  0.85040518726E+00  0.00000000000E+00 0.  1.
          2    1    1    2  501    0 -0.13502552033E+00 -0.21934659362E+02  0.85621679007E+03  0.85649771693E+03  0.00000000000E+00 0. -1.
          1    1    1    2  502    0  0.13502552033E+00  0.21934659362E+02  0.16872209589E+03  0.17014197940E+03  0.00000000000E+00 0.  1.
</event>
<event>
 4    1  0.8284550E+003  0.5203878E+02  0.7546771E-02  0.1289567E+00
          2   -1    0    0  502    0  0.00000000000E+00  0.00000000000E+00  0.27230984994E+03  0.27230984994E+03  0.00000000000E+00 0.  1.
          1   -1    0    0  501    0 -0.00000000000E+00 -0.00000000000E+00 -0.57551758495E+02  0.57551758495E+02  0.00000000000E+00 0.  1.
          2    1    1    2  501    0 -0.38119509215E+02 -0.35425094901E+02  0.25738491184E+03  0.26259289246E+03  0.00000000000E+00 0.  1.
          1    1    1    2  502    0  0.38119509215E+02  0.35425094901E+02 -0.42626820392E+02  0.67268715970E+02  0.00000000000E+00 0.  1.
</event>
<event>
 4    1  0.8284550E+003  0.2749643E+02  0.7546771E-02  0.1442684E+00
          2   -1    0    0  502    0  0.00000000000E+00  0.00000000000E+00  0.17716158264E+04  0.17716158264E+04  0.00000000000E+00 0. -1.
          1   -1    0    0  501    0 -0.00000000000E+00 -0.00000000000E+00 -0.10724628521E+01  0.10724628521E+01  0.00000000000E+00 0. -1.
          2    1    1    2  501    0  0.87304217822E+01  0.26073615730E+02  0.15730172589E+04  0.15732575601E+04  0.00000000000E+00 0. -1.
          1    1    1    2  502    0 -0.87304217822E+01 -0.26073615730E+02  0.19752610464E+03  0.19943072912E+03  0.00000000000E+00 0. -1.
</event>
<event>
 4    1  0.8284550E+003  0.2312822E+02  0.7546771E-02  0.1490894E+00
          2   -1    0    0  502    0  0.00000000000E+00  0.00000000000E+00  0.21320570205E+04  0.21320570205E+04  0.00000000000E+00 0. -1.
          1   -1    0    0  501    0 -0.00000000000E+00 -0.00000000000E+00 -0.33193992276E+00  0.33193992276E+00  0.00000000000E+00 0.  1.
          2    1    1    2  501    0 -0.20759747388E+02  0.10195465705E+02  0.15927033529E+04  0.15928712707E+04  0.00000000000E+00 0. -1.
          1    1    1    2  502    0  0.20759747388E+02 -0.10195465705E+02  0.53902172766E+03  0.53951768972E+03  0.00000000000E+00 0.  1.
</event>
<event>
 4    1  0.8284550E+003  0.3332996E+02  0.7546771E-02  0.1392700E+00
          2   -1    0    0  502    0  0.00000000000E+00  0.00000000000E+00  0.68912368851E+02  0.68912368851E+02  0.00000000000E+00 0.  1.
          1   -1    0    0  501    0 -0.00000000000E+00 -0.00000000000E+00 -0.17383380589E+02  0.17383380589E+02  0.00000000000E+00 0.  1.
          2    1    1    2  501    0 -0.15789659661E+02  0.29352558880E+02  0.37395380053E+02  0.50092918804E+02  0.00000000000E+00 0.  1.
          1    1    1    2  502    0  0.15789659661E+02 -0.29352558880E+02  0.14133608209E+02  0.36202830636E+02  0.00000000000E+00 0.  1.
</event>
<event>
 4    1  0.8284550E+003  0.2156882E+02  0.7546771E-02  0.1511296E+00
          2   -1    0    0  502    0  0.00000000000E+00  0.00000000000E+00  0.15947338951E+04  0.15947338951E+04  0.00000000000E+00 0. -1.
          1   -1    0    0  501    0 -0.00000000000E+00 -0.00000000000E+00 -0.12844400831E+02  0.12844400831E+02  0.00000000000E+00 0.  1.
          2    1    1    2  501    0 -0.21501287764E+02  0.17054442110E+01  0.15855537418E+04  0.15857004389E+04  0.00000000000E+00 0. -1.
          1    1    1    2  502    0  0.21501287764E+02 -0.17054442110E+01 -0.36642475537E+01  0.21877856970E+02  0.00000000000E+00 0.  1.
</event>
<event>
 4    1  0.8284550E+003  0.2233448E+02  0.7546771E-02  0.1501029E+00
          2   -1    0    0  502    0  0.00000000000E+00  0.00000000000E+00  0.26422501598E+03  0.26422501598E+03  0.00000000000E+00 0. -1.
          1   -1    0    0  501    0 -0.00000000000E+00 -0.00000000000E+00 -0.20989331144E+02  0.20989331144E+02  0.00000000000E+00 0.  1.
          2    1    1    2  501    0  0.18954814858E+02 -0.11812872393E+02  0.25766049415E+03  0.25862667923E+03  0.00000000000E+00 0. -1.
          1    1    1    2  502    0 -0.18954814858E+02  0.11812872393E+02 -0.14424809316E+02  0.26587667899E+02  0.00000000000E+00 0.  1.
</event>
<event>
 4    1  0.8284550E+003  0.2095126E+02  0.7546771E-02  0.1519962E+00
          2   -1    0    0  502    0  0.00000000000E+00  0.00000000000E+00  0.13268500922E+03  0.13268500922E+03  0.00000000000E+00 0. -1.
          1   -1    0    0  501    0 -0.00000000000E+00 -0.00000000000E+00 -0.12307700453E+03  0.12307700453E+03  0.00000000000E+00 0.  1.
          2    1    1    2  501    0  0.18823330260E+02 -0.91998569391E+01  0.13095461254E+03  0.13262000481E+03  0.00000000000E+00 0. -1.
          1    1    1    2  502    0 -0.18823330260E+02  0.91998569391E+01 -0.12134660785E+03  0.12314200894E+03  0.00000000000E+00 0.  1.
</event>
<event>
 4    1  0.8284550E+003  0.2127206E+02  0.7546771E-02  0.1515416E+00
          2   -1    0    0  502    0  0.00000000000E+00  0.00000000000E+00  0.10748417590E+04  0.10748417590E+04  0.00000000000E+00 0. -1.
          1   -1    0    0  501    0 -0.00000000000E+00 -0.00000000000E+00 -0.19490692624E+02  0.19490692624E+02  0.00000000000E+00 0.  1.
          2    1    1    2  501    0 -0.12009143644E+02 -0.17557932509E+02  0.10689001926E+04  0.10691118381E+04  0.00000000000E+00 0. -1.
          1    1    1    2  502    0  0.12009143644E+02  0.17557932509E+02 -0.13549126255E+02  0.25220613540E+02  0.00000000000E+00 0.  1.
</event>
<event>
 4    1  0.8284550E+003  0.5775126E+02  0.7546771E-02  0.1267671E+00
          2   -1    0    0  502    0  0.00000000000E+00  0.00000000000E+00  0.17402126167E+04  0.17402126167E+04  0.00000000000E+00 0. -1.
          1   -1    0    0  501    0 -0.00000000000E+00 -0.00000000000E+00 -0.10713018444E+02  0.10713018444E+02  0.00000000000E+00 0. -1.
          2    1    1    2  501    0  0.13136656571E+02 -0.56237325423E+02  0.16580469540E+04  0.16590524133E+04  0.00000000000E+00 0. -1.
          1    1    1    2  502    0 -0.13136656571E+02  0.56237325423E+02  0.71452644298E+02  0.91873221854E+02  0.00000000000E+00 0. -1.
</event>
<event>
 4    1  0.8284550E+003  0.2945992E+02  0.7546771E-02  0.1424349E+00
          2   -1    0    0  502    0  0.00000000000E+00  0.00000000000E+00  0.19358102053E+04  0.19358102053E+04  0.00000000000E+00 0. -1.
          1   -1    0    0  501    0 -0.00000000000E+00 -0.00000000000E+00 -0.18248240489E+01  0.18248240489E+01  0.00000000000E+00 0.  1.
          2    1    1    2  501    0  0.21169345035E+02 -0.20487689775E+02  0.18084232107E+04  0.18086631515E+04  0.00000000000E+00 0. -1.
          1    1    1    2  502    0 -0.21169345035E+02  0.20487689775E+02  0.12556217049E+03  0.12897187779E+03  0.00000000000E+00 0.  1.
</event>
<event>
 4    1  0.8284550E+003  0.3658196E+02  0.7546771E-02  0.1369770E+00
          2   -1    0    0  502    0  0.00000000000E+00  0.00000000000E+00  0.10281075109E+03  0.10281075109E+03  0.00000000000E+00 0.  1.
          1   -1    0    0  501    0 -0.00000000000E+00 -0.00000000000E+00 -0.73820495533E+02  0.73820495533E+02  0.00000000000E+00 0. -1.
          2    1    1    2  501    0  0.18113001478E+02 -0.31783003314E+02  0.94647241779E+02  0.10147088498E+03  0.00000000000E+00 0.  1.
          1    1    1    2  502    0 -0.18113001478E+02  0.31783003314E+02 -0.65656986223E+02  0.75160361642E+02  0.00000000000E+00 0. -1.
</event>
<event>
 4    1  0.8284550E+003  0.2263022E+02  0.7546771E-02  0.1497194E+00
          2   -1    0    0  502    0  0.00000000000E+00  0.00000000000E+00  0.56756543404E+01  0.56756543404E+01  0.00000000000E+00 0. -1.
          1   -1    0    0  501    0 -0.00000000000E+00 -0.00000000000E+00 -0.68244455337E+03  0.68244455337E+03  0.00000000000E+00 0. -1.
          2    1    1    2  501    0 -0.21642194083E+02 -0.66138109569E+01 -0.17876103463E+02  0.28838899686E+02  0.00000000000E+00 0. -1.
          1    1    1    2  502    0  0.21642194083E+02  0.66138109569E+01 -0.65889279557E+03  0.65928130802E+03  0.00000000000E+00 0. -1.
</event>
<event>
 4    1  0.8284550E+003  0.2228912E+02  0.7546771E-02  0.1501623E+00
          2   -1    0    0  502    0  0.00000000000E+00  0.00000000000E+00  0.78657992486E+03  0.78657992486E+03  0.00000000000E+00 0.  1.
          1   -1    0    0  501    0 -0.00000000000E+00 -0.00000000000E+00 -0.20897557854E+01  0.20897557854E+01  0.00000000000E+00 0.  1.
          2    1    1    2  501    0  0.11727486208E+02 -0.18954443585E+02  0.72164171926E+03  0.72198585570E+03  0.00000000000E+00 0.  1.
          1    1    1    2  502    0 -0.11727486208E+02  0.18954443585E+02  0.62848449821E+02  0.66683824944E+02  0.00000000000E+00 0.  1.
</event>
<event>
 4    1  0.8284550E+003  0.2192123E+02  0.7546771E-02  0.1506508E+00
          2   -1    0    0  502    0  0.00000000000E+00  0.00000000000E+00  0.18359517474E+03  0.18359517474E+03  0.00000000000E+00 0. -1.
          1   -1    0    0  501    0 -0.00000000000E+00 -0.00000000000E+00 -0.79926943325E+02  0.79926943325E+02  0.00000000000E+00 0. -1.
          2    1    1    2  501    0  0.17629152974E+02  0.13028934792E+02  0.18141980901E+03  0.18273939717E+03  0.00000000000E+00 0. -1.
          1    1    1    2  502    0 -0.17629152974E+02 -0.13028934792E+02 -0.77751577596E+02  0.80782720894E+02  0.00000000000E+00 0. -1.
</event>
<event>
 4    1  0.8284550E+003  0.2474075E+02  0.7546771E-02  0.1471725E+00
          2   -1    0    0  502    0  0.00000000000E+00  0.00000000000E+00  0.55751047567E+02  0.55751047567E+02  0.00000000000E+00 0. -1.
          1   -1    0    0  501    0 -0.00000000000E+00 -0.00000000000E+00 -0.25934814068E+02  0.25934814068E+02  0.00000000000E+00 0.  1.
          2    1    1    2  501    0 -0.22714009994E+02  0.98070658457E+01  0.45923467843E+02  0.52163873411E+02  0.00000000000E+00 0. -1.
          1    1    1    2  502    0  0.22714009994E+02 -0.98070658457E+01 -0.16107234344E+02  0.29521988225E+02  0.00000000000E+00 0.  1.
</event>
<event>
 4    1  0.8284550E+003  0.2703134E+02  0.7546771E-02  0.1447294E+00
          2   -1    0    0  502    0  0.00000000000E+00  0.00000000000E+00  0.16116016882E+04  0.16116016882E+04  0.00000000000E+00 0.  1.
          1   -1    0    0  501    0 -0.00000000000E+00 -0.00000000000E+00 -0.31749779668E+01  0.31749779668E+01  0.00000000000E+00 0. -1.
          2    1    1    2  501    0 -0.51480895700E+01  0.26536592293E+02  0.15517333795E+04  0.15519688059E+04  0.00000000000E+00 0.  1.
          1    1    1    2  502    0  0.51480895700E+01 -0.26536592293E+02  0.56693330741E+02  0.62807860235E+02  0.00000000000E+00 0. -1.
</event>
<event>
 4    1  0.8284550E+003  0.2140578E+02  0.7546771E-02  0.1513550E+00
          2   -1    0    0  502    0  0.00000000000E+00  0.00000000000E+00  0.15194952853E+04  0.15194952853E+04  0.00000000000E+00 0.  1.
          1   -1    0    0  501    0 -0.00000000000E+00 -0.00000000000E+00 -0.84020441528E+01  0.84020441528E+01  0.00000000000E+00 0.  1.
          2    1    1    2  501    0 -0.61355393221E+01 -0.20507623692E+02  0.15056608226E+04  0.15058129765E+04  0.00000000000E+00 0.  1.
          1    1    1    2  502    0  0.61355393221E+01  0.20507623692E+02  0.54324184883E+01  0.22084352898E+02  0.00000000000E+00 0.  1.
</event>
<event>
 4    1  0.8284550E+003  0.2891789E+02  0.7546771E-02  0.1429239E+00
          2   -1    0    0  502    0  0.00000000000E+00  0.00000000000E+00  0.10074334833E+04  0.10074334833E+04  0.00000000000E+00 0. -1.
          1   -1    0    0  501    0 -0.00000000000E+00 -0.00000000000E+00 -0.44711503240E+01  0.44711503240E+01  0.00000000000E+00 0. -1.
          2    1    1    2  501    0 -0.25956153265E+02 -0.12748425030E+02  0.95805902931E+03  0.95849535621E+03  0.00000000000E+00 0. -1.
          1    1    1    2  502    0  0.25956153265E+02  0.12748425030E+02  0.44903303623E+02  0.53409277371E+02  0.00000000000E+00 0. -1.
</event>
<event>
 4    1  0.8284550E+003  0.6464424E+02  0.7546771E-02  0.1244820E+00
          2   -1    0    0  502    0  0.00000000000E+00  0.00000000000E+00  0.54571861076E+03  0.54571861076E+03  0.00000000000E+00 0.  1.
          1   -1    0    0  501    0 -0.00000000000E+00 -0.00000000000E+00 -0.96629108487E+01  0.96629108487E+01  0.00000000000E+00 0.  1.
          2    1    1    2  501    0 -0.63741150516E+02  0.10767734857E+02  0.39453106407E+03  0.39979199454E+03  0.00000000000E+00 0.  1.
          1    1    1    2  502    0  0.63741150516E+02 -0.10767734857E+02  0.14152463584E+03  0.15558952707E+03  0.00000000000E+00 0.  1.
</event>
<event>
 4    1  0.8284550E+003  0.2334209E+02  0.7546771E-02  0.1488247E+00
          2   -1    0    0  502    0  0.00000000000E+00  0.00000000000E+00  0.21752779820E+02  0.21752779820E+02  0.00000000000E+00 0.  1.
          1   -1    0    0  501    0 -0.00000000000E+00 -0.00000000000E+00 -0.31921294359E+03  0.31921294359E+03  0.00000000000E+00 0.  1.
          2    1    1    2  501    0  0.51538460792E+01  0.22766003038E+02  0.14927563274E+02  0.27707132097E+02  0.00000000000E+00 0.  1.
          1    1    1    2  502    0 -0.51538460792E+01 -0.22766003038E+02 -0.31238772705E+03  0.31325859132E+03  0.00000000000E+00 0.  1.
</event>
<event>
 4    1  0.8284550E+003  0.2253282E+02  0.7546771E-02  0.1498449E+00
          2   -1    0    0  502    0  0.00000000000E+00  0.00000000000E+00  0.12792270843E+02  0.12792270843E+02  0.00000000000E+00 0.  1.
          1   -1    0    0  501    0 -0.00000000000E+00 -0.00000000000E+00 -0.74060388073E+02  0.74060388073E+02  0.00000000000E+00 0. -1.
          2    1    1    2  501    0 -0.23863869186E+01 -0.22406092211E+02 -0.10504550323E+01  0.22557288544E+02  0.00000000000E+00 0.  1.
          1    1    1    2  502    0  0.23863869186E+01  0.22406092211E+02 -0.60217662198E+02  0.64295370372E+02  0.00000000000E+00 0. -1.
</event>
<event>
 4    1  0.8284550E+003  0.2076089E+02  0.7546771E-02  0.1522706E+00
          2   -1    0    0  502    0  0.00000000000E+00  0.00000000000E+00  0.47413211855E+03  0.47413211855E+03  0.00000000000E+00 0. -1.
          1   -1    0    0  501    0 -0.00000000000E+00 -0.00000000000E+00 -0.18624916307E+02  0.18624916307E+02  0.00000000000E+00 0.  1.
          2    1    1    2  501    0 -0.83628462506E+01  0.19002036218E+02  0.46804418143E+03  0.46850439737E+03  0.00000000000E+00 0. -1.
          1    1    1    2  502    0  0.83628462506E+01 -0.19002036218E+02 -0.12536979194E+02  0.24252637488E+02  0.00000000000E+00 0.  1.
</event>
<event>
 4    1  0.8284550E+003  0.2230626E+02  0.7546771E-02  0.1501398E+00
          2   -1    0    0  502    0  0.00000000000E+00  0.00000000000E+00  0.32405071014E+02  0.32405071014E+02  0.00000000000E+00 0. -1.
          1   -1    0    0  501    0 -0.00000000000E+00 -0.00000000000E+00 -0.85567337733E+03  0.85567337733E+03  0.00000000000E+00 0.  1.
          2    1    1    2  501    0 -0.21881349157E+00  0.22305184557E+02  0.28402995088E+02  0.36115083655E+02  0.00000000000E+00 0. -1.
          1    1    1    2  502    0  0.21881349157E+00 -0.22305184557E+02 -0.85167130141E+03  0.85196336469E+03  0.00000000000E+00 0.  1.
</event>
<event>
 4    1  0.8284550E+003  0.1074457E+03  0.7546771E-02  0.1151495E+00
          2   -1    0    0  502    0  0.00000000000E+00  0.00000000000E+00  0.36423218366E+02  0.36423218366E+02  0.00000000000E+00 0. -1.
          1   -1    0    0  501    0 -0.00000000000E+00 -0.00000000000E+00 -0.77717391451E+03  0.77717391451E+03  0.00000000000E+00 0.  1.
          2    1    1    2  501    0  0.16707437162E+02 -0.10613881629E+03 -0.57334012198E+02  0.12178577804E+03  0.00000000000E+00 0. -1.
          1    1    1    2  502    0 -0.16707437162E+02  0.10613881629E+03 -0.68341668394E+03  0.69181135483E+03  0.00000000000E+00 0.  1.
</event>
<event>
 4    1  0.8284550E+003  0.2329425E+02  0.7546771E-02  0.1488836E+00
          2   -1    0    0  502    0  0.00000000000E+00  0.00000000000E+00  0.87095614367E+02  0.87095614367E+02  0.00000000000E+00 0. -1.
          1   -1    0    0  501    0 -0.00000000000E+00 -0.00000000000E+00 -0.25051249858E+03  0.25051249858E+03  0.00000000000E+00 0. -1.
          2    1    1    2  501    0  0.23038017621E+02 -0.34455204177E+01  0.84983340505E+02  0.88118045997E+02  0.00000000000E+00 0. -1.
          1    1    1    2  502    0 -0.23038017621E+02  0.34455204177E+01 -0.24840022472E+03  0.24949006695E+03  0.00000000000E+00 0. -1.
</event>
<event>
 4    1  0.8284550E+003  0.4800480E+02  0.7546771E-02  0.1307063E+00
          2   -1    0    0  502    0  0.00000000000E+00  0.00000000000E+00  0.16683335117E+04  0.16683335117E+04  0.00000000000E+00 0. -1.
          1   -1    0    0  501    0 -0.00000000000E+00 -0.00000000000E+00 -0.92790022084E+01  0.92790022084E+01  0.00000000000E+00 0.  1.
          2    1    1    2  501    0  0.26230385862E+02  0.40204823002E+02  0.16033857127E+04  0.16041041751E+04  0.00000000000E+00 0. -1.
          1    1    1    2  502    0 -0.26230385862E+02 -0.40204823002E+02  0.55668796771E+02  0.73508338772E+02  0.00000000000E+00 0.  1.
</event>
<event>
 4    1  0.8284550E+003  0.2045792E+02  0.7546771E-02  0.1527147E+00
          2   -1    0    0  502    0  0.00000000000E+00  0.00000000000E+00  0.12340938441E+04  0.12340938441E+04  0.00000000000E+00 0. -1.
          1   -1    0    0  501    0 -0.00000000000E+00 -0.00000000000E+00 -0.30447834029E+02  0.30447834029E+02  0.00000000000E+00 0. -1.
          2    1    1    2  501    0 -0.51633592649E+01  0.19795615673E+02  0.12305627758E+04  0.12307328190E+04  0.00000000000E+00 0. -1.
          1    1    1    2  502    0  0.51633592649E+01 -0.19795615673E+02 -0.26916765703E+02  0.33808859115E+02  0.00000000000E+00 0. -1.
</event>
<event>
 4    1  0.8284550E+003  0.4446333E+02  0.7546771E-02  0.1324145E+00
          2   -1    0    0  502    0  0.00000000000E+00  0.00000000000E+00  0.18430585229E+04  0.18430585229E+04  0.00000000000E+00 0. -1.
          1   -1    0    0  501    0 -0.00000000000E+00 -0.00000000000E+00 -0.38095612767E+01  0.38095612767E+01  0.00000000000E+00 0. -1.
          2    1    1    2  501    0  0.18401299240E+02  0.40476902050E+02  0.17023282717E+04  0.17029088443E+04  0.00000000000E+00 0. -1.
          1    1    1    2  502    0 -0.18401299240E+02 -0.40476902050E+02  0.13692068996E+03  0.14395923990E+03  0.00000000000E+00 0. -1.
</event>
<event>
 4    1  0.8284550E+003  0.2226398E+02  0.7546771E-02  0.1501953E+00
          2   -1    0    0  502    0  0.00000000000E+00  0.00000000000E+00  0.67288940324E+01  0.67288940324E+01  0.00000000000E+00 0. -1.
          1   -1    0    0  501    0 -0.00000000000E+00 -0.00000000000E+00 -0.74420843537E+03  0.74420843537E+03  0.00000000000E+00 0.  1.
          2    1    1    2  501    0 -0.22244968292E+02  0.91993881890E+00 -0.12338029439E+02  0.25454113070E+02  0.00000000000E+00 0. -1.
          1    1    1    2  502    0  0.22244968292E+02 -0.91993881890E+00 -0.72514151190E+03  0.72548321633E+03  0.00000000000E+00 0.  1.
</event>
<event>
 4    1  0.8284550E+003  0.2123194E+02  0.7546771E-02  0.1515979E+00
          2   -1    0    0  502    0  0.00000000000E+00  0.00000000000E+00  0.18476883474E+04  0.18476883474E+04  0.00000000000E+00 0. -1.
          1   -1    0    0  501    0 -0.00000000000E+00 -0.00000000000E+00 -0.26330268798E+00  0.26330268798E+00  0.00000000000E+00 0.  1.
          2    1    1    2  501    0 -0.20682207094E+02 -0.48001829979E+01  0.11740283776E+04  0.11742203485E+04  0.00000000000E+00 0. -1.
          1    1    1    2  502    0  0.20682207094E+02  0.48001829979E+01  0.67339666714E+03  0.67373130160E+03  0.00000000000E+00 0.  1.
</event>
<event>
 4    1  0.8284550E+003  0.3261258E+02  0.7546771E-02  0.1398172E+00
          2   -1    0    0  502    0  0.00000000000E+00  0.00000000000E+00  0.11206361021E+04  0.11206361021E+04  0.00000000000E+00 0.  1.
          1   -1    0    0  501    0 -0.00000000000E+00 -0.00000000000E+00 -0.95097913578E+00  0.95097913578E+00  0.00000000000E+00 0.  1.
          2    1    1    2  501    0  0.33934847776E+01  0.32435544792E+02  0.58486218807E+03  0.58577073957E+03  0.00000000000E+00 0.  1.
          1    1    1    2  502    0 -0.33934847776E+01 -0.32435544792E+02  0.53482293491E+03  0.53581634168E+03  0.00000000000E+00 0.  1.
</event>
<event>
 4    1  0.8284550E+003  0.3575636E+02  0.7546771E-02  0.1375322E+00
          2   -1    0    0  502    0  0.00000000000E+00  0.00000000000E+00  0.20577102635E+04  0.20577102635E+04  0.00000000000E+00 0. -1.
          1   -1    0    0  501    0 -0.00000000000E+00 -0.00000000000E+00 -0.93404154167E+02  0.93404154167E+02  0.00000000000E+00 0.  1.
          2    1    1    2  501    0  0.27438715727E+02  0.22926711466E+02  0.20541269589E+04  0.20544381423E+04  0.00000000000E+00 0. -1.
          1    1    1    2  502    0 -0.27438715727E+02 -0.22926711466E+02 -0.89820849525E+02  0.96676275418E+02  0.00000000000E+00 0.  1.
</event>
<event>
 4    1  0.8284550E+003  0.6499214E+02  0.7546771E-02  0.1243753E+00
          2   -1    0    0  502    0  0.00000000000E+00  0.00000000000E+00  0.28168988321E+04  0.28168988321E+04  0.00000000000E+00 0.  1.
          1   -1    0    0  501    0 -0.00000000000E+00 -0.00000000000E+00 -0.60160902298E+01  0.60160902298E+01  0.00000000000E+00 0. -1.
          2    1    1    2  501    0 -0.52454219176E+02  0.38373607926E+02  0.26284099561E+04  0.26292133569E+04  0.00000000000E+00 0.  1.
          1    1    1    2  502    0  0.52454219176E+02 -0.38373607926E+02  0.18247278578E+03  0.19370156541E+03  0.00000000000E+00 0. -1.
</event>
<event>
 4    1  0.8284550E+003  0.2211310E+02  0.7546771E-02  0.1503946E+00
          2   -1    0    0  502    0  0.00000000000E+00  0.00000000000E+00  0.17225362142E+02  0.17225362142E+02  0.00000000000E+00 0. -1.
          1   -1    0    0  501    0 -0.00000000000E+00 -0.00000000000E+00 -0.77141658802E+02  0.77141658802E+02  0.00000000000E+00 0.  1.
          2    1    1    2  501    0 -0.11441140433E+02 -0.18923251565E+02  0.75521498628E+01  0.23367158829E+02  0.00000000000E+00 0. -1.
          1    1    1    2  502    0  0.11441140433E+02  0.18923251565E+02 -0.67468446523E+02  0.70999862116E+02  0.00000000000E+00 0.  1.
</event>
<event>
 4    1  0.8284550E+003  0.2164618E+02  0.7546771E-02  0.1510236E+00
          2   -1    0    0  502    0  0.00000000000E+00  0.00000000000E+00  0.10628589181E+02  0.10628589181E+02  0.00000000000E+00 0.  1.
          1   -1    0    0  501    0 -0.00000000000E+00 -0.00000000000E+00 -0.27446128632E+03  0.27446128632E+03  0.00000000000E+00 0.  1.
          2    1    1    2  501    0 -0.16211201192E+02 -0.14344135907E+02 -0.13201608687E+01  0.21686403661E+02  0.00000000000E+00 0.  1.
          1    1    1    2  502    0  0.16211201192E+02  0.14344135907E+02 -0.26251253627E+03  0.26340347184E+03  0.00000000000E+00 0.  1.
</event>
<event>
 4    1  0.8284550E+003  0.3447193E+02  0.7546771E-02  0.1384314E+00
          2   -1    0    0  502    0  0.00000000000E+00  0.00000000000E+00  0.89189825035E+03  0.89189825035E+03  0.00000000000E+00 0. -1.
          1   -1    0    0  501    0 -0.00000000000E+00 -0.00000000000E+00 -0.51133580758E+02  0.51133580758E+02  0.00000000000E+00 0.  1.
          2    1    1    2  501    0  0.93099300033E+01 -0.33190952148E+02  0.88571476765E+03  0.88638533592E+03  0.00000000000E+00 0. -1.
          1    1    1    2  502    0 -0.93099300033E+01  0.33190952148E+02 -0.44950098060E+02  0.56646495185E+02  0.00000000000E+00 0.  1.
</event>
<event>
 4    1  0.8954333E+003  0.2442915E+02  0.7546771E-02  0.1475292E+00
          2   -1    0    0  502    0  0.00000000000E+00  0.00000000000E+00  0.10170336618E+04  0.10170336618E+04  0.00000000000E+00 0.  1.
          1   -1    0    0  501    0 -0.00000000000E+00 -0.00000000000E+00 -0.13826402979E+03  0.13826402979E+03  0.00000000000E+00 0. -1.
          2    1    1    2  501    0 -0.21716276353E+02 -0.11188687328E+02  0.10158065967E+04  0.10161003028E+04  0.00000000000E+00 0.  1.
          1    1    1    2  502    0  0.21716276353E+02  0.11188687328E+02 -0.13703696465E+03  0.13919738886E+03  0.00000000000E+00 0. -1.
</event>
<event>
 4    1  0.8284550E+003  0.2298335E+02  0.7546771E-02  0.1492707E+00
          2   -1    0    0  502    0  0.00000000000E+00  0.00000000000E+00  0.40664607099E+02  0.40664607099E+02  0.00000000000E+00 0. -1.
          1   -1    0    0  501    0 -0.00000000000E+00 -0.00000000000E+00 -0.16663438900E+02  0.16663438900E+02  0.00000000000E+00 0. -1.
          2    1    1    2  501    0 -0.11717065443E+02 -0.19772321196E+02  0.25458868255E+02  0.34298517182E+02  0.00000000000E+00 0. -1.
          1    1    1    2  502    0  0.11717065443E+02  0.19772321196E+02 -0.14577000557E+01  0.23029528817E+02  0.00000000000E+00 0. -1.
</event>
<event>
 4    1  0.8284550E+003  0.4138279E+02  0.7546771E-02  0.1340568E+00
          2   -1    0    0  502    0  0.00000000000E+00  0.00000000000E+00  0.25278683019E+03  0.25278683019E+03  0.00000000000E+00 0.  1.
          1   -1    0    0  501    0 -0.00000000000E+00 -0.00000000000E+00 -0.56271009241E+02  0.56271009241E+02  0.00000000000E+00 0. -1.
          2    1    1    2  501    0  0.92356362980E+01  0.40339042270E+02  0.24318653323E+03  0.24668243807E+03  0.00000000000E+00 0.  1.
          1    1    1    2  502    0 -0.92356362980E+01 -0.40339042270E+02 -0.46670712284E+02  0.62375401355E+02  0.00000000000E+00 0. -1.
</event>
<event>
 4    1  0.8284550E+003  0.5367008E+02  0.7546771E-02  0.1282999E+00
          2   -1    0    0  502    0  0.00000000000E+00  0.00000000000E+00  0.26755378881E+04  0.26755378881E+04  0.00000000000E+00 0.  1.
          1   -1    0    0  501    0 -0.00000000000E+00 -0.00000000000E+00 -0.84612542800E+01  0.84612542800E+01  0.00000000000E+00 0. -1.
          2    1    1    2  501    0 -0.22005051701E+02  0.48951563617E+02  0.25872571680E+04  0.25878137745E+04  0.00000000000E+00 0.  1.
          1    1    1    2  502    0  0.22005051701E+02 -0.48951563617E+02  0.79819465864E+02  0.96185367971E+02  0.00000000000E+00 0. -1.
</event>
<event>
 4    1  0.8284550E+003  0.6886858E+02  0.7546771E-02  0.1232353E+00
          2   -1    0    0  502    0  0.00000000000E+00  0.00000000000E+00  0.15263747306E+03  0.15263747306E+03  0.00000000000E+00 0.  1.
          1   -1    0    0  501    0 -0.00000000000E+00 -0.00000000000E+00 -0.58656241245E+02  0.58656241245E+02  0.00000000000E+00 0. -1.
          2    1    1    2  501    0 -0.68866441337E+02 -0.54260364678E+00  0.11943809937E+03  0.13787073925E+03  0.00000000000E+00 0.  1.
          1    1    1    2  502    0  0.68866441337E+02  0.54260364678E+00 -0.25456867547E+02  0.73422975059E+02  0.00000000000E+00 0. -1.
</event>
<event>
 4    1  0.8284550E+003  0.2947578E+02  0.7546771E-02  0.1424207E+00
          2   -1    0    0  502    0  0.00000000000E+00  0.00000000000E+00  0.12828553203E+03  0.12828553203E+03  0.00000000000E+00 0. -1.
          1   -1    0    0  501    0 -0.00000000000E+00 -0.00000000000E+00 -0.44325341275E+02  0.44325341275E+02  0.00000000000E+00 0. -1.
          2    1    1    2  501    0 -0.99643073537E+01 -0.27740478998E+02  0.12141898371E+03  0.12494555294E+03  0.00000000000E+00 0. -1.
          1    1    1    2  502    0  0.99643073537E+01  0.27740478998E+02 -0.37458792950E+02  0.47665320363E+02  0.00000000000E+00 0. -1.
</event>
<event>
 4    1  0.8284550E+003  0.2064209E+02  0.7546771E-02  0.1524437E+00
          2   -1    0    0  502    0  0.00000000000E+00  0.00000000000E+00  0.11765034294E+03  0.11765034294E+03  0.00000000000E+00 0. -1.
          1   -1    0    0  501    0 -0.00000000000E+00 -0.00000000000E+00 -0.53537134195E+01  0.53537134195E+01  0.00000000000E+00 0. -1.
          2    1    1    2  501    0 -0.20639233521E+02 -0.34362748640E+00  0.91129586433E+02  0.93438201843E+02  0.00000000000E+00 0. -1.
          1    1    1    2  502    0  0.20639233521E+02  0.34362748640E+00  0.21167043085E+02  0.29565854514E+02  0.00000000000E+00 0. -1.
</event>
<event>
 4    1  0.8284550E+003  0.2343457E+02  0.7546771E-02  0.1487112E+00
          2   -1    0    0  502    0  0.00000000000E+00  0.00000000000E+00  0.16693088474E+01  0.16693088474E+01  0.00000000000E+00 0. -1.
          1   -1    0    0  501    0 -0.00000000000E+00 -0.00000000000E+00 -0.33704542797E+03  0.33704542797E+03  0.00000000000E+00 0. -1.
          2    1    1    2  501    0 -0.23434515566E+02 -0.43365402562E-01 -0.19387745932E+03  0.19528862648E+03  0.00000000000E+00 0. -1.
          1    1    1    2  502    0  0.23434515566E+02  0.43365402562E-01 -0.14149865980E+03  0.14342611034E+03  0.00000000000E+00 0. -1.
</event>
<event>
 4    1  0.8284550E+003  0.4815580E+02  0.7546771E-02  0.1306373E+00
          2   -1    0    0  502    0  0.00000000000E+00  0.00000000000E+00  0.12973778495E+02  0.12973778495E+02  0.00000000000E+00 0. -1.
          1   -1    0    0  501    0 -0.00000000000E+00 -0.00000000000E+00 -0.20190622450E+03  0.20190622450E+03  0.00000000000E+00 0. -1.
          2    1    1    2  501    0 -0.21700003686E+02 -0.42989430468E+02 -0.58076059219E+02  0.75444084900E+02  0.00000000000E+00 0. -1.
          1    1    1    2  502    0  0.21700003686E+02  0.42989430468E+02 -0.13085638678E+03  0.13943591809E+03  0.00000000000E+00 0. -1.
</event>
<event>
 4    1  0.8284550E+003  0.5340387E+02  0.7546771E-02  0.1284053E+00
          2   -1    0    0  502    0  0.00000000000E+00  0.00000000000E+00  0.84281535930E+03  0.84281535930E+03  0.00000000000E+00 0. -1.
          1   -1    0    0  501    0 -0.00000000000E+00 -0.00000000000E+00 -0.42089985515E+01  0.42089985515E+01  0.00000000000E+00 0. -1.
          2    1    1    2  501    0  0.32725709410E+01 -0.53303506448E+02  0.60681929692E+03  0.60916470075E+03  0.00000000000E+00 0. -1.
          1    1    1    2  502    0 -0.32725709410E+01  0.53303506448E+02  0.23178706383E+03  0.23785965710E+03  0.00000000000E+00 0. -1.
</event>
<event>
 4    1  0.8284550E+003  0.2277738E+02  0.7546771E-02  0.1495313E+00
          2   -1    0    0  502    0  0.00000000000E+00  0.00000000000E+00  0.12519684845E+03  0.12519684845E+03  0.00000000000E+00 0. -1.
          1   -1    0    0  501    0 -0.00000000000E+00 -0.00000000000E+00 -0.23340673374E+02  0.23340673374E+02  0.00000000000E+00 0.  1.
          2    1    1    2  501    0 -0.22660855783E+02 -0.23010373970E+01  0.11828203753E+03  0.12045517656E+03  0.00000000000E+00 0. -1.
          1    1    1    2  502    0  0.22660855783E+02  0.23010373970E+01 -0.16425862456E+02  0.28082345261E+02  0.00000000000E+00 0.  1.
</event>
<event>
 4    1  0.8284550E+003  0.3519775E+02  0.7546771E-02  0.1379178E+00
          2   -1    0    0  502    0  0.00000000000E+00  0.00000000000E+00  0.90522595718E+00  0.90522595718E+00  0.00000000000E+00 0. -1.
          1   -1    0    0  501    0 -0.00000000000E+00 -0.00000000000E+00 -0.19665988300E+04  0.19665988300E+04  0.00000000000E+00 0.  1.
          2    1    1    2  501    0  0.14388101462E+02 -0.32122639145E+02 -0.44036863223E+03  0.44177303411E+03  0.00000000000E+00 0. -1.
          1    1    1    2  502    0 -0.14388101462E+02  0.32122639145E+02 -0.15253249719E+04  0.15257310219E+04  0.00000000000E+00 0.  1.
</event>
<event>
 4    1  0.8284550E+003  0.3123433E+02  0.7546771E-02  0.1409165E+00
          2   -1    0    0  502    0  0.00000000000E+00  0.00000000000E+00  0.17263412517E+02  0.17263412517E+02  0.00000000000E+00 0. -1.
          1   -1    0    0  501    0 -0.00000000000E+00 -0.00000000000E+00 -0.20082805193E+03  0.20082805193E+03  0.00000000000E+00 0. -1.
          2    1    1    2  501    0  0.53983828949E+00  0.31229668535E+02  0.65649285603E+00  0.31241232451E+02  0.00000000000E+00 0. -1.
          1    1    1    2  502    0 -0.53983828949E+00 -0.31229668535E+02 -0.18422113226E+03  0.18685023199E+03  0.00000000000E+00 0. -1.
</event>
<event>
 4    1  0.8284550E+003  0.5572801E+02  0.7546771E-02  0.1275081E+00
          2   -1    0    0  502    0  0.00000000000E+00  0.00000000000E+00  0.39292824542E+03  0.39292824542E+03  0.00000000000E+00 0.  1.
          1   -1    0    0  501    0 -0.00000000000E+00 -0.00000000000E+00 -0.69662798738E+02  0.69662798738E+02  0.00000000000E+00 0.  1.
          2    1    1    2  501    0 -0.17746090841E+02 -0.52826956448E+02  0.37941223760E+03  0.38348305974E+03  0.00000000000E+00 0.  1.
          1    1    1    2  502    0  0.17746090841E+02  0.52826956448E+02 -0.56146790920E+02  0.79107984415E+02  0.00000000000E+00 0.  1.
</event>
<event>
 4    1  0.8284550E+003  0.2482076E+02  0.7546771E-02  0.1470819E+00
          2   -1    0    0  502    0  0.00000000000E+00  0.00000000000E+00  0.96750721012E+03  0.96750721012E+03  0.00000000000E+00 0. -1.
          1   -1    0    0  501    0 -0.00000000000E+00 -0.00000000000E+00 -0.61590351605E+01  0.61590351605E+01  0.00000000000E+00 0. -1.
          2    1    1    2  501    0 -0.21269796933E+02  0.12793189515E+02  0.94165484311E+03  0.94198190721E+03  0.00000000000E+00 0. -1.
          1    1    1    2  502    0  0.21269796933E+02 -0.12793189515E+02  0.19693331848E+02  0.31684338069E+02  0.00000000000E+00 0. -1.
</event>
<event>
 4    1  0.8284550E+003  0.3472201E+02  0.7546771E-02  0.1382528E+00
          2   -1    0    0  502    0  0.00000000000E+00  0.00000000000E+00  0.37882682710E+03  0.37882682710E+03  0.00000000000E+00 0.  1.
          1   -1    0    0  501    0 -0.00000000000E+00 -0.00000000000E+00 -0.10924275808E+02  0.10924275808E+02  0.00000000000E+00 0. -1.
          2    1    1    2  501    0 -0.27476169258E+02  0.21229187739E+02  0.34800314470E+03  0.34973104953E+03  0.00000000000E+00 0.  1.
          1    1    1    2  502    0  0.27476169258E+02 -0.21229187739E+02  0.19899406594E+02  0.40020053373E+02  0.00000000000E+00 0. -1.
</event>
<event>
 4    1  0.8284550E+003  0.2707446E+02  0.7546771E-02  0.1446862E+00
          2   -1    0    0  502    0  0.00000000000E+00  0.00000000000E+00  0.22546072282E+03  0.22546072282E+03  0.00000000000E+00 0. -1.
          1   -1    0    0  501    0 -0.00000000000E+00 -0.00000000000E+00 -0.39985668146E+02  0.39985668146E+02  0.00000000000E+00 0.  1.
          2    1    1    2  501    0  0.17088302444E+02  0.21000385133E+02  0.21995047325E+03  0.22161055240E+03  0.00000000000E+00 0. -1.
          1    1    1    2  502    0 -0.17088302444E+02 -0.21000385133E+02 -0.34475418575E+02  0.43835838558E+02  0.00000000000E+00 0.  1.
</event>
<event>
 4    1  0.8284550E+003  0.3228606E+02  0.7546771E-02  0.1400718E+00
          2   -1    0    0  502    0  0.00000000000E+00  0.00000000000E+00  0.28793423113E+01  0.28793423113E+01  0.00000000000E+00 0.  1.
          1   -1    0    0  501    0 -0.00000000000E+00 -0.00000000000E+00 -0.38593084964E+03  0.38593084964E+03  0.00000000000E+00 0.  1.
          2    1    1    2  501    0  0.29748432279E+02 -0.12546687395E+02 -0.23991197948E+03  0.24207467130E+03  0.00000000000E+00 0.  1.
          1    1    1    2  502    0 -0.29748432279E+02  0.12546687395E+02 -0.14313952785E+03  0.14673552065E+03  0.00000000000E+00 0.  1.
</event>
<event>
 4    1  0.8284550E+003  0.3204805E+02  0.7546771E-02  0.1402596E+00
          2   -1    0    0  502    0  0.00000000000E+00  0.00000000000E+00  0.68347862810E+03  0.68347862810E+03  0.00000000000E+00 0.  1.
          1   -1    0    0  501    0 -0.00000000000E+00 -0.00000000000E+00 -0.10745447758E+02  0.10745447758E+02  0.00000000000E+00 0.  1.
          2    1    1    2  501    0 -0.23945904135E+02  0.21299558884E+02  0.65829364708E+03  0.65907329131E+03  0.00000000000E+00 0.  1.
          1    1    1    2  502    0  0.23945904135E+02 -0.21299558884E+02  0.14439533262E+02  0.35150784548E+02  0.00000000000E+00 0.  1.
</event>
<event>
 4    1  0.8284550E+003  0.2279763E+02  0.7546771E-02  0.1495055E+00
          2   -1    0    0  502    0  0.00000000000E+00  0.00000000000E+00  0.10775379494E+01  0.10775379494E+01  0.00000000000E+00 0.  1.
          1   -1    0    0  501    0 -0.00000000000E+00 -0.00000000000E+00 -0.13254181497E+04  0.13254181497E+04  0.00000000000E+00 0.  1.
          2    1    1    2  501    0  0.10321344291E+02 -0.20327364119E+02 -0.13319528385E+03  0.13513221496E+03  0.00000000000E+00 0.  1.
          1    1    1    2  502    0 -0.10321344291E+02  0.20327364119E+02 -0.11911453279E+04  0.11913634727E+04  0.00000000000E+00 0.  1.
</event>
<event>
 4    1  0.8284550E+003  0.3745612E+02  0.7546771E-02  0.1364074E+00
          2   -1    0    0  502    0  0.00000000000E+00  0.00000000000E+00  0.41481003377E+02  0.41481003377E+02  0.00000000000E+00 0.  1.
          1   -1    0    0  501    0 -0.00000000000E+00 -0.00000000000E+00 -0.59912756377E+03  0.59912756377E+03  0.00000000000E+00 0. -1.
          2    1    1    2  501    0 -0.36220341621E+02 -0.95418887531E+01  0.32308816966E+02  0.49465345868E+02  0.00000000000E+00 0.  1.
          1    1    1    2  502    0  0.36220341621E+02  0.95418887531E+01 -0.58995537736E+03  0.59114322128E+03  0.00000000000E+00 0. -1.
</event>
<event>
 4    1  0.8284550E+003  0.2813836E+02  0.7546771E-02  0.1436496E+00
          2   -1    0    0  502    0  0.00000000000E+00  0.00000000000E+00  0.14922425299E+04  0.14922425299E+04  0.00000000000E+00 0. -1.
          1   -1    0    0  501    0 -0.00000000000E+00 -0.00000000000E+00 -0.58019671484E+01  0.58019671484E+01  0.00000000000E+00 0.  1.
          2    1    1    2  501    0  0.71372282652E+01 -0.27218141058E+02  0.14571725499E+04  0.14574442038E+04  0.00000000000E+00 0. -1.
          1    1    1    2  502    0 -0.71372282652E+01  0.27218141058E+02  0.29268012877E+02  0.40600293197E+02  0.00000000000E+00 0.  1.
</event>
<event>
 4    1  0.8284550E+003  0.4230939E+02  0.7546771E-02  0.1335460E+00
          2   -1    0    0  502    0  0.00000000000E+00  0.00000000000E+00  0.35677050850E+03  0.35677050850E+03  0.00000000000E+00 0. -1.
          1   -1    0    0  501    0 -0.00000000000E+00 -0.00000000000E+00 -0.50868336586E+02  0.50868336586E+02  0.00000000000E+00 0. -1.
          2    1    1    2  501    0 -0.15314171414E+02 -0.39440597370E+02  0.34645759712E+03  0.34903144725E+03  0.00000000000E+00 0. -1.
          1    1    1    2  502    0  0.15314171414E+02  0.39440597370E+02 -0.40555425208E+02  0.58607397833E+02  0.00000000000E+00 0. -1.
</event>
<event>
 4    1  0.8284550E+003  0.2011839E+02  0.7546771E-02  0.1532234E+00
          2   -1    0    0  502    0  0.00000000000E+00  0.00000000000E+00  0.12713855428E+04  0.12713855428E+04  0.00000000000E+00 0. -1.
          1   -1    0    0  501    0 -0.00000000000E+00 -0.00000000000E+00 -0.10055780825E+01  0.10055780825E+01  0.00000000000E+00 0. -1.
          2    1    1    2  501    0  0.20118255853E+02 -0.73199978535E-01  0.11611251264E+04  0.11612994053E+04  0.00000000000E+00 0. -1.
          1    1    1    2  502    0 -0.20118255853E+02  0.73199978535E-01  0.10925483832E+03  0.11109171559E+03  0.00000000000E+00 0. -1.
</event>
<event>
 4    1  0.8284550E+003  0.2502093E+02  0.7546771E-02  0.1468569E+00
          2   -1    0    0  502    0  0.00000000000E+00  0.00000000000E+00  0.33081376670E+01  0.33081376670E+01  0.00000000000E+00 0. -1.
          1   -1    0    0  501    0 -0.00000000000E+00 -0.00000000000E+00 -0.33165473984E+03  0.33165473984E+03  0.00000000000E+00 0. -1.
          2    1    1    2  501    0 -0.16990346204E+02 -0.18367767307E+02 -0.54425900517E+02  0.59901797862E+02  0.00000000000E+00 0. -1.
          1    1    1    2  502    0  0.16990346204E+02  0.18367767307E+02 -0.27392070166E+03  0.27506107965E+03  0.00000000000E+00 0. -1.
</event>
<event>
 4    1  0.8284550E+003  0.2711492E+02  0.7546771E-02  0.1446457E+00
          2   -1    0    0  502    0  0.00000000000E+00  0.00000000000E+00  0.22930573383E+03  0.22930573383E+03  0.00000000000E+00 0.  1.
          1   -1    0    0  501    0 -0.00000000000E+00 -0.00000000000E+00 -0.17927440877E+02  0.17927440877E+02  0.00000000000E+00 0.  1.
          2    1    1    2  501    0 -0.27114395737E+02 -0.16782882787E+00  0.21770735294E+03  0.21938940300E+03  0.00000000000E+00 0.  1.
          1    1    1    2  502    0  0.27114395737E+02  0.16782882787E+00 -0.63290599881E+01  0.27843771710E+02  0.00000000000E+00 0.  1.
</event>
<event>
 4    1  0.8284550E+003  0.3830787E+02  0.7546771E-02  0.1358697E+00
          2   -1    0    0  502    0  0.00000000000E+00  0.00000000000E+00  0.26443156761E+03  0.26443156761E+03  0.00000000000E+00 0. -1.
          1   -1    0    0  501    0 -0.00000000000E+00 -0.00000000000E+00 -0.21587805220E+02  0.21587805220E+02  0.00000000000E+00 0.  1.
          2    1    1    2  501    0  0.31850461708E+02  0.21284764114E+02  0.24468663263E+03  0.24766719864E+03  0.00000000000E+00 0. -1.
          1    1    1    2  502    0 -0.31850461708E+02 -0.21284764114E+02 -0.18428702398E+01  0.38352174191E+02  0.00000000000E+00 0.  1.
</event>
<event>
 4    1  0.8284550E+003  0.2098893E+02  0.7546771E-02  0.1519423E+00
          2   -1    0    0  502    0  0.00000000000E+00  0.00000000000E+00  0.10623379865E+04  0.10623379865E+04  0.00000000000E+00 0.  1.
          1   -1    0    0  501    0 -0.00000000000E+00 -0.00000000000E+00 -0.85987455195E+02  0.85987455195E+02  0.00000000000E+00 0. -1.
          2    1    1    2  501    0 -0.19749522694E+02 -0.71057528951E+01  0.10609518292E+04  0.10611594221E+04  0.00000000000E+00 0.  1.
          1    1    1    2  502    0  0.19749522694E+02  0.71057528951E+01 -0.84601297849E+02  0.87166019575E+02  0.00000000000E+00 0. -1.
</event>
<event>
 4    1  0.8284550E+003  0.2116319E+02  0.7546771E-02  0.1516948E+00
          2   -1    0    0  502    0  0.00000000000E+00  0.00000000000E+00  0.26366555788E+03  0.26366555788E+03  0.00000000000E+00 0. -1.
          1   -1    0    0  501    0 -0.00000000000E+00 -0.00000000000E+00 -0.16904786171E+03  0.16904786171E+03  0.00000000000E+00 0. -1.
          2    1    1    2  501    0 -0.13510975616E+01 -0.21120015232E+02  0.26257578855E+03  0.26342726746E+03  0.00000000000E+00 0. -1.
          1    1    1    2  502    0  0.13510975616E+01  0.21120015232E+02 -0.16795809238E+03  0.16928615213E+03  0.00000000000E+00 0. -1.
</event>
<event>
 4    1  0.8284550E+003  0.2782335E+02  0.7546771E-02  0.1439508E+00
          2   -1    0    0  502    0  0.00000000000E+00  0.00000000000E+00  0.35123422545E+02  0.35123422545E+02  0.00000000000E+00 0. -1.
          1   -1    0    0  501    0 -0.00000000000E+00 -0.00000000000E+00 -0.31728442149E+03  0.31728442149E+03  0.00000000000E+00 0. -1.
          2    1    1    2  501    0 -0.21180170807E+02  0.18042702918E+02  0.28893173275E+02  0.40111771663E+02  0.00000000000E+00 0. -1.
          1    1    1    2  502    0  0.21180170807E+02 -0.18042702918E+02 -0.31105417222E+03  0.31229607238E+03  0.00000000000E+00 0. -1.
</event>
<event>
 4    1  0.8284550E+003  0.3959869E+02  0.7546771E-02  0.1350854E+00
          2   -1    0    0  502    0  0.00000000000E+00  0.00000000000E+00  0.22440328433E+01  0.22440328433E+01  0.00000000000E+00 0.  1.
          1   -1    0    0  501    0 -0.00000000000E+00 -0.00000000000E+00 -0.90001437502E+03  0.90001437502E+03  0.00000000000E+00 0.  1.
          2    1    1    2  501    0  0.17345157464E+02  0.35597776427E+02 -0.23556039688E+03  0.23886556209E+03  0.00000000000E+00 0.  1.
          1    1    1    2  502    0 -0.17345157464E+02 -0.35597776427E+02 -0.66220994530E+03  0.66339284577E+03  0.00000000000E+00 0.  1.
</event>
<event>
 4    1  0.8284550E+003  0.3518323E+02  0.7546771E-02  0.1379280E+00
          2   -1    0    0  502    0  0.00000000000E+00  0.00000000000E+00  0.14277893284E+03  0.14277893284E+03  0.00000000000E+00 0.  1.
          1   -1    0    0  501    0 -0.00000000000E+00 -0.00000000000E+00 -0.17285108901E+03  0.17285108901E+03  0.00000000000E+00 0.  1.
          2    1    1    2  501    0 -0.22906072114E+01 -0.35108589971E+02  0.13877022194E+03  0.14316086920E+03  0.00000000000E+00 0.  1.
          1    1    1    2  502    0  0.22906072114E+01  0.35108589971E+02 -0.16884237811E+03  0.17246915265E+03  0.00000000000E+00 0.  1.
</event>
<event>
 4    1  0.8284550E+003  0.2706730E+02  0.7546771E-02  0.1446933E+00
          2   -1    0    0  502    0  0.00000000000E+00  0.00000000000E+00  0.10739693873E+04  0.10739693873E+04  0.00000000000E+00 0.  1.
          1   -1    0    0  501    0 -0.00000000000E+00 -0.00000000000E+00 -0.11131368552E+02  0.11131368552E+02  0.00000000000E+00 0.  1.
          2    1    1    2  501    0 -0.25789113604E+02 -0.82195130146E+01  0.10570816403E+04  0.10574281219E+04  0.00000000000E+00 0.  1.
          1    1    1    2  502    0  0.25789113604E+02  0.82195130146E+01  0.57563784245E+01  0.27672633905E+02  0.00000000000E+00 0.  1.
</event>
<event>
 4    1  0.8284550E+003  0.8338280E+02  0.7546771E-02  0.1196205E+00
          2   -1    0    0  502    0  0.00000000000E+00  0.00000000000E+00  0.17795705339E+04  0.17795705339E+04  0.00000000000E+00 0.  1.
          1   -1    0    0  501    0 -0.00000000000E+00 -0.00000000000E+00 -0.81025725818E+01  0.81025725818E+01  0.00000000000E+00 0. -1.
          2    1    1    2  501    0  0.65987668434E+02 -0.50973706924E+02  0.15289323117E+04  0.15312043315E+04  0.00000000000E+00 0.  1.
          1    1    1    2  502    0 -0.65987668434E+02  0.50973706924E+02  0.24253564967E+03  0.25646877499E+03  0.00000000000E+00 0. -1.
</event>
<event>
 4    1  0.9439252E+003  0.2764188E+02  0.7546771E-02  0.1441265E+00
          2   -1    0    0  502    0  0.00000000000E+00  0.00000000000E+00  0.15222467553E+04  0.15222467553E+04  0.00000000000E+00 0.  1.
          1   -1    0    0  501    0 -0.00000000000E+00 -0.00000000000E+00 -0.15892954890E+03  0.15892954890E+03  0.00000000000E+00 0. -1.
          2    1    1    2  501    0  0.27452617170E+02  0.32291657083E+01  0.15209183148E+04  0.15211694823E+04  0.00000000000E+00 0.  1.
          1    1    1    2  502    0 -0.27452617170E+02 -0.32291657083E+01 -0.15760110836E+03  0.16000682191E+03  0.00000000000E+00 0. -1.
</event>
<event>
 4    1  0.8284550E+003  0.2289373E+02  0.7546771E-02  0.1493837E+00
          2   -1    0    0  502    0  0.00000000000E+00  0.00000000000E+00  0.10334318613E+04  0.10334318613E+04  0.00000000000E+00 0. -1.
          1   -1    0    0  501    0 -0.00000000000E+00 -0.00000000000E+00 -0.15611129982E+01  0.15611129982E+01  0.00000000000E+00 0. -1.
          2    1    1    2  501    0  0.22307388962E+02  0.51481512192E+01  0.94114130231E+03  0.94141971191E+03  0.00000000000E+00 0. -1.
          1    1    1    2  502    0 -0.22307388962E+02 -0.51481512192E+01  0.90729445942E+02  0.93573262336E+02  0.00000000000E+00 0. -1.
</event>
<event>
 4    1  0.8284550E+003  0.2805226E+02  0.7546771E-02  0.1437315E+00
          2   -1    0    0  502    0  0.00000000000E+00  0.00000000000E+00  0.72027079721E+02  0.72027079721E+02  0.00000000000E+00 0.  1.
          1   -1    0    0  501    0 -0.00000000000E+00 -0.00000000000E+00 -0.11123074684E+03  0.11123074684E+03  0.00000000000E+00 0.  1.
          2    1    1    2  501    0 -0.20674423235E+02  0.18960426097E+02  0.67410738143E+02  0.73014636553E+02  0.00000000000E+00 0.  1.
          1    1    1    2  502    0  0.20674423235E+02 -0.18960426097E+02 -0.10661440526E+03  0.11024319001E+03  0.00000000000E+00 0.  1.
</event>
<event>
 4    1  0.8284550E+003  0.2770969E+02  0.7546771E-02  0.1440606E+00
          2   -1    0    0  502    0  0.00000000000E+00  0.00000000000E+00  0.97982902652E+01  0.97982902652E+01  0.00000000000E+00 0. -1.
          1   -1    0    0  501    0 -0.00000000000E+00 -0.00000000000E+00 -0.11909113114E+04  0.11909113114E+04  0.00000000000E+00 0. -1.
          2    1    1    2  501    0  0.97708323251E+01  0.25929866581E+02 -0.10289817564E+02  0.29558543447E+02  0.00000000000E+00 0. -1.
          1    1    1    2  502    0 -0.97708323251E+01 -0.25929866581E+02 -0.11708232036E+04  0.11711510582E+04  0.00000000000E+00 0. -1.
</event>
<event>
 4    1  0.8284550E+003  0.2080167E+02  0.7546771E-02  0.1522116E+00
          2   -1    0    0  502    0  0.00000000000E+00  0.00000000000E+00  0.96546904340E+01  0.96546904340E+01  0.00000000000E+00 0. -1.
          1   -1    0    0  501    0 -0.00000000000E+00 -0.00000000000E+00 -0.99789316986E+03  0.99789316986E+03  0.00000000000E+00 0.  1.
          2    1    1    2  501    0 -0.43813742930E+01  0.20335015539E+02 -0.17883161078E+01  0.20878394866E+02  0.00000000000E+00 0. -1.
          1    1    1    2  502    0  0.43813742930E+01 -0.20335015539E+02 -0.98645016332E+03  0.98666946543E+03  0.00000000000E+00 0.  1.
</event>
<event>
 4    1  0.8284550E+003  0.2986842E+02  0.7546771E-02  0.1420743E+00
          2   -1    0    0  502    0  0.00000000000E+00  0.00000000000E+00  0.85746522746E+03  0.85746522746E+03  0.00000000000E+00 0. -1.
          1   -1    0    0  501    0 -0.00000000000E+00 -0.00000000000E+00 -0.21885865106E+02  0.21885865106E+02  0.00000000000E+00 0.  1.
          2    1    1    2  501    0  0.23641379268E+02  0.18253974974E+02  0.84688725419E+03  0.84741379723E+03  0.00000000000E+00 0. -1.
          1    1    1    2  502    0 -0.23641379268E+02 -0.18253974974E+02 -0.11307891835E+02  0.31937295343E+02  0.00000000000E+00 0.  1.
</event>
<event>
 4    1  0.8284550E+003  0.3670170E+02  0.7546771E-02  0.1368979E+00
          2   -1    0    0  502    0  0.00000000000E+00  0.00000000000E+00  0.47000098794E+03  0.47000098794E+03  0.00000000000E+00 0. -1.
          1   -1    0    0  501    0 -0.00000000000E+00 -0.00000000000E+00 -0.36125791758E+03  0.36125791758E+03  0.00000000000E+00 0.  1.
          2    1    1    2  501    0 -0.15926554736E+02  0.33065993505E+02  0.46834903924E+03  0.46978488442E+03  0.00000000000E+00 0. -1.
          1    1    1    2  502    0  0.15926554736E+02 -0.33065993505E+02 -0.35960596888E+03  0.36147402109E+03  0.00000000000E+00 0.  1.
</event>
<event>
 4    1  0.8284550E+003  0.2017556E+02  0.7546771E-02  0.1531369E+00
          2   -1    0    0  502    0  0.00000000000E+00  0.00000000000E+00  0.48161784654E+02  0.48161784654E+02  0.00000000000E+00 0. -1.
          1   -1    0    0  501    0 -0.00000000000E+00 -0.00000000000E+00 -0.35882347176E+02  0.35882347176E+02  0.00000000000E+00 0.  1.
          2    1    1    2  501    0 -0.82120869419E+01 -0.18428636674E+02  0.42881003320E+02  0.47390225440E+02  0.00000000000E+00 0. -1.
          1    1    1    2  502    0  0.82120869419E+01  0.18428636674E+02 -0.30601565842E+02  0.36653906389E+02  0.00000000000E+00 0.  1.
</event>
<event>
 4    1  0.1805608E+004  0.2634772E+02  0.7546771E-02  0.1454273E+00
          2   -1    0    0  502    0  0.00000000000E+00  0.00000000000E+00  0.85867712943E+03  0.85867712943E+03  0.00000000000E+00 0. -1.
          1   -1    0    0  501    0 -0.00000000000E+00 -0.00000000000E+00 -0.50238945280E+03  0.50238945280E+03  0.00000000000E+00 0.  1.
          2    1    1    2  501    0 -0.25799110896E+02 -0.53486706173E+01  0.85812934472E+03  0.85853373531E+03  0.00000000000E+00 0. -1.
          1    1    1    2  502    0  0.25799110896E+02  0.53486706173E+01 -0.50184166809E+03  0.50253284692E+03  0.00000000000E+00 0.  1.
</event>
<event>
 4    1  0.8284550E+003  0.2531322E+02  0.7546771E-02  0.1465330E+00
          2   -1    0    0  502    0  0.00000000000E+00  0.00000000000E+00  0.43682249981E+03  0.43682249981E+03  0.00000000000E+00 0.  1.
          1   -1    0    0  501    0 -0.00000000000E+00 -0.00000000000E+00 -0.82107476458E+01  0.82107476458E+01  0.00000000000E+00 0. -1.
          2    1    1    2  501    0 -0.21598257573E+02  0.13201297159E+02  0.41596884666E+03  0.41673833561E+03  0.00000000000E+00 0.  1.
          1    1    1    2  502    0  0.21598257573E+02 -0.13201297159E+02  0.12642905511E+02  0.28294911851E+02  0.00000000000E+00 0. -1.
</event>
<event>
 4    1  0.8284550E+003  0.2581586E+02  0.7546771E-02  0.1459880E+00
          2   -1    0    0  502    0  0.00000000000E+00  0.00000000000E+00  0.84362671128E+03  0.84362671128E+03  0.00000000000E+00 0.  1.
          1   -1    0    0  501    0 -0.00000000000E+00 -0.00000000000E+00 -0.23868286184E+01  0.23868286184E+01  0.00000000000E+00 0.  1.
          2    1    1    2  501    0  0.21645452562E+02 -0.14068867786E+02  0.76661260668E+03  0.76704716112E+03  0.00000000000E+00 0.  1.
          1    1    1    2  502    0 -0.21645452562E+02  0.14068867786E+02  0.74627275982E+02  0.78966378781E+02  0.00000000000E+00 0.  1.
</event>
<event>
 4    1  0.8284550E+003  0.2625774E+02  0.7546771E-02  0.1455210E+00
          2   -1    0    0  502    0  0.00000000000E+00  0.00000000000E+00  0.79112846542E+00  0.79112846542E+00  0.00000000000E+00 0.  1.
          1   -1    0    0  501    0 -0.00000000000E+00 -0.00000000000E+00 -0.88972838705E+03  0.88972838705E+03  0.00000000000E+00 0.  1.
          2    1    1    2  501    0 -0.26220466588E+02 -0.13986453664E+01 -0.38073780779E+03  0.38164217188E+03  0.00000000000E+00 0.  1.
          1    1    1    2  502    0  0.26220466588E+02  0.13986453664E+01 -0.50819945079E+03  0.50887734363E+03  0.00000000000E+00 0.  1.
</event>
<event>
 4    1  0.8284550E+003  0.3179027E+02  0.7546771E-02  0.1404652E+00
          2   -1    0    0  502    0  0.00000000000E+00  0.00000000000E+00  0.39435998356E+03  0.39435998356E+03  0.00000000000E+00 0. -1.
          1   -1    0    0  501    0 -0.00000000000E+00 -0.00000000000E+00 -0.25439839306E+02  0.25439839306E+02  0.00000000000E+00 0.  1.
          2    1    1    2  501    0  0.18314419752E+02  0.25984671093E+02  0.38350726522E+03  0.38482261313E+03  0.00000000000E+00 0. -1.
          1    1    1    2  502    0 -0.18314419752E+02 -0.25984671093E+02 -0.14587120966E+02  0.34977209733E+02  0.00000000000E+00 0.  1.
</event>
<event>
 4    1  0.8284550E+003  0.4443138E+02  0.7546771E-02  0.1324307E+00
          2   -1    0    0  502    0  0.00000000000E+00  0.00000000000E+00  0.18652389980E+03  0.18652389980E+03  0.00000000000E+00 0. -1.
          1   -1    0    0  501    0 -0.00000000000E+00 -0.00000000000E+00 -0.15052292155E+04  0.15052292155E+04  0.00000000000E+00 0.  1.
          2    1    1    2  501    0 -0.12287814312E+02  0.42698445207E+02  0.18354480080E+03  0.18884607887E+03  0.00000000000E+00 0. -1.
          1    1    1    2  502    0  0.12287814312E+02 -0.42698445207E+02 -0.15022501165E+04  0.15029070364E+04  0.00000000000E+00 0.  1.
</event>
<event>
 4    1  0.8284550E+003  0.3311212E+02  0.7546771E-02  0.1394344E+00
          2   -1    0    0  502    0  0.00000000000E+00  0.00000000000E+00  0.11763649908E+02  0.11763649908E+02  0.00000000000E+00 0.  1.
          1   -1    0    0  501    0 -0.00000000000E+00 -0.00000000000E+00 -0.96813303242E+02  0.96813303242E+02  0.00000000000E+00 0.  1.
          2    1    1    2  501    0  0.13966696444E+02  0.30022390555E+02 -0.32041816869E+02  0.46077006982E+02  0.00000000000E+00 0.  1.
          1    1    1    2  502    0 -0.13966696444E+02 -0.30022390555E+02 -0.53007836466E+02  0.62499946168E+02  0.00000000000E+00 0.  1.
</event>
<event>
 4    1  0.8284550E+003  0.1437406E+03  0.7546771E-02  0.1104211E+00
          2   -1    0    0  502    0  0.00000000000E+00  0.00000000000E+00  0.30026173581E+03  0.30026173581E+03  0.00000000000E+00 0.  1.
          1   -1    0    0  501    0 -0.00000000000E+00 -0.00000000000E+00 -0.23720140305E+03  0.23720140305E+03  0.00000000000E+00 0. -1.
          2    1    1    2  501    0 -0.10262227233E+03  0.10064809304E+03  0.25795209018E+03  0.29529756220E+03  0.00000000000E+00 0.  1.
          1    1    1    2  502    0  0.10262227233E+03 -0.10064809304E+03 -0.19489175742E+03  0.24216557667E+03  0.00000000000E+00 0. -1.
</event>
<event>
 4    1  0.8284550E+003  0.4142827E+02  0.7546771E-02  0.1340314E+00
          2   -1    0    0  502    0  0.00000000000E+00  0.00000000000E+00  0.28164536987E+03  0.28164536987E+03  0.00000000000E+00 0. -1.
          1   -1    0    0  501    0 -0.00000000000E+00 -0.00000000000E+00 -0.24541285240E+02  0.24541285240E+02  0.00000000000E+00 0.  1.
          2    1    1    2  501    0  0.31558904390E+02 -0.26839089115E+02  0.26128407768E+03  0.26454804932E+03  0.00000000000E+00 0. -1.
          1    1    1    2  502    0 -0.31558904390E+02  0.26839089115E+02 -0.41799930434E+01  0.41638605796E+02  0.00000000000E+00 0.  1.
</event>
<event>
 4    1  0.8284550E+003  0.2386825E+02  0.7546771E-02  0.1481874E+00
          2   -1    0    0  502    0  0.00000000000E+00  0.00000000000E+00  0.28403886582E+03  0.28403886582E+03  0.00000000000E+00 0.  1.
          1   -1    0    0  501    0 -0.00000000000E+00 -0.00000000000E+00 -0.29349854239E+02  0.29349854239E+02  0.00000000000E+00 0.  1.
          2    1    1    2  501    0  0.21069290704E+02 -0.11215104733E+02  0.27859009800E+03  0.27961068701E+03  0.00000000000E+00 0.  1.
          1    1    1    2  502    0 -0.21069290704E+02  0.11215104733E+02 -0.23901086418E+02  0.33778033052E+02  0.00000000000E+00 0.  1.
</event>
<event>
 4    1  0.8284550E+003  0.2063202E+02  0.7546771E-02  0.1524584E+00
          2   -1    0    0  502    0  0.00000000000E+00  0.00000000000E+00  0.14811330625E+03  0.14811330625E+03  0.00000000000E+00 0. -1.
          1   -1    0    0  501    0 -0.00000000000E+00 -0.00000000000E+00 -0.74481324761E+01  0.74481324761E+01  0.00000000000E+00 0. -1.
          2    1    1    2  501    0  0.16536492113E+02 -0.12337936659E+02  0.13128652809E+03  0.13289782809E+03  0.00000000000E+00 0. -1.
          1    1    1    2  502    0 -0.16536492113E+02  0.12337936659E+02  0.93786456864E+01  0.22663610641E+02  0.00000000000E+00 0. -1.
</event>
<event>
 4    1  0.8284550E+003  0.2235197E+02  0.7546771E-02  0.1500800E+00
          2   -1    0    0  502    0  0.00000000000E+00  0.00000000000E+00  0.34036325478E+03  0.34036325478E+03  0.00000000000E+00 0. -1.
          1   -1    0    0  501    0 -0.00000000000E+00 -0.00000000000E+00 -0.77590881494E+01  0.77590881494E+01  0.00000000000E+00 0. -1.
          2    1    1    2  501    0 -0.40503314794E+00  0.22348295248E+02  0.32303629196E+03  0.32380867232E+03  0.00000000000E+00 0. -1.
          1    1    1    2  502    0  0.40503314794E+00 -0.22348295248E+02  0.95678746708E+01  0.24313670600E+02  0.00000000000E+00 0. -1.
</event>
<event>
 4    1  0.8284550E+003  0.5480546E+02  0.7546771E-02  0.1278582E+00
          2   -1    0    0  502    0  0.00000000000E+00  0.00000000000E+00  0.44565438195E+03  0.44565438195E+03  0.00000000000E+00 0. -1.
          1   -1    0    0  501    0 -0.00000000000E+00 -0.00000000000E+00 -0.60153606655E+02  0.60153606655E+02  0.00000000000E+00 0. -1.
          2    1    1    2  501    0  0.33113757709E+02 -0.43670556875E+02  0.43106543340E+03  0.43453543740E+03  0.00000000000E+00 0. -1.
          1    1    1    2  502    0 -0.33113757709E+02  0.43670556875E+02 -0.45564658101E+02  0.71272551205E+02  0.00000000000E+00 0. -1.
</event>
<event>
 4    1  0.8284550E+003  0.2370114E+02  0.7546771E-02  0.1483877E+00
          2   -1    0    0  502    0  0.00000000000E+00  0.00000000000E+00  0.10490628029E+04  0.10490628029E+04  0.00000000000E+00 0.  1.
          1   -1    0    0  501    0 -0.00000000000E+00 -0.00000000000E+00 -0.87871574313E+01  0.87871574313E+01  0.00000000000E+00 0. -1.
          2    1    1    2  501    0  0.25610348915E+01  0.23562367537E+02  0.10326936777E+04  0.10329656219E+04  0.00000000000E+00 0.  1.
          1    1    1    2  502    0 -0.25610348915E+01 -0.23562367537E+02  0.75819677595E+01  0.24884338423E+02  0.00000000000E+00 0. -1.
</event>
<event>
 4    1  0.8284550E+003  0.2625555E+02  0.7546771E-02  0.1455233E+00
          2   -1    0    0  502    0  0.00000000000E+00  0.00000000000E+00  0.89247513321E+02  0.89247513321E+02  0.00000000000E+00 0.  1.
          1   -1    0    0  501    0 -0.00000000000E+00 -0.00000000000E+00 -0.16784948013E+02  0.16784948013E+02  0.00000000000E+00 0.  1.
          2    1    1    2  501    0  0.20180214786E+02 -0.16796208686E+02  0.75183670102E+02  0.79636285354E+02  0.00000000000E+00 0.  1.
          1    1    1    2  502    0 -0.20180214786E+02  0.16796208686E+02 -0.27211047939E+01  0.26396175979E+02  0.00000000000E+00 0.  1.
</event>
<event>
 4    1  0.8284550E+003  0.2214826E+02  0.7546771E-02  0.1503480E+00
          2   -1    0    0  502    0  0.00000000000E+00  0.00000000000E+00  0.12254524790E+03  0.12254524790E+03  0.00000000000E+00 0.  1.
          1   -1    0    0  501    0 -0.00000000000E+00 -0.00000000000E+00 -0.10697579970E+02  0.10697579970E+02  0.00000000000E+00 0.  1.
          2    1    1    2  501    0 -0.19962694077E+02 -0.95935632613E+01  0.10862661589E+03  0.11086156814E+03  0.00000000000E+00 0.  1.
          1    1    1    2  502    0  0.19962694077E+02  0.95935632613E+01  0.32210520395E+01  0.22381259730E+02  0.00000000000E+00 0.  1.
</event>
<event>
 4    1  0.8284550E+003  0.4487322E+02  0.7546771E-02  0.1322075E+00
          2   -1    0    0  502    0  0.00000000000E+00  0.00000000000E+00  0.58385616462E+03  0.58385616462E+03  0.00000000000E+00 0.  1.
          1   -1    0    0  501    0 -0.00000000000E+00 -0.00000000000E+00 -0.16027116972E+02  0.16027116972E+02  0.00000000000E+00 0.  1.
          2    1    1    2  501    0  0.91378588104E+01  0.43932967045E+02  0.54963207460E+03  0.55146080865E+03  0.00000000000E+00 0.  1.
          1    1    1    2  502    0 -0.91378588104E+01 -0.43932967045E+02  0.18196973048E+02  0.48422472934E+02  0.00000000000E+00 0.  1.
</event>
<event>
 4    1  0.8284550E+003  0.6009916E+02  0.7546771E-02  0.1259496E+00
          2   -1    0    0  502    0  0.00000000000E+00  0.00000000000E+00  0.23609010085E+04  0.23609010085E+04  0.00000000000E+00 0. -1.
          1   -1    0    0  501    0 -0.00000000000E+00 -0.00000000000E+00 -0.18392478095E+01  0.18392478095E+01  0.00000000000E+00 0.  1.
          2    1    1    2  501    0  0.59937301897E+02 -0.44078074823E+01  0.16640370953E+04  0.16651220266E+04  0.00000000000E+00 0. -1.
          1    1    1    2  502    0 -0.59937301897E+02  0.44078074823E+01  0.69502466537E+03  0.69761822969E+03  0.00000000000E+00 0.  1.
</event>
<event>
 4    1  0.8284550E+003  0.2096964E+02  0.7546771E-02  0.1519699E+00
          2   -1    0    0  502    0  0.00000000000E+00  0.00000000000E+00  0.87083787167E+03  0.87083787167E+03  0.00000000000E+00 0. -1.
          1   -1    0    0  501    0 -0.00000000000E+00 -0.00000000000E+00 -0.16784410851E+01  0.16784410851E+01  0.00000000000E+00 0. -1.
          2    1    1    2  501    0  0.20842526120E+02  0.23053966890E+01  0.79935988491E+03  0.79963488628E+03  0.00000000000E+00 0. -1.
          1    1    1    2  502    0 -0.20842526120E+02 -0.23053966890E+01  0.69799545672E+02  0.72881426475E+02  0.00000000000E+00 0. -1.
</event>
<event>
 4    1  0.8284550E+003  0.4511337E+02  0.7546771E-02  0.1320873E+00
          2   -1    0    0  502    0  0.00000000000E+00  0.00000000000E+00  0.67983629779E+03  0.67983629779E+03  0.00000000000E+00 0.  1.
          1   -1    0    0  501    0 -0.00000000000E+00 -0.00000000000E+00 -0.97199455245E+01  0.97199455245E+01  0.00000000000E+00 0.  1.
          2    1    1    2  501    0 -0.44910823008E+02 -0.42701434133E+01  0.62186838526E+03  0.62350261004E+03  0.00000000000E+00 0.  1.
          1    1    1    2  502    0  0.44910823008E+02  0.42701434133E+01  0.48247967012E+02  0.66053633275E+02  0.00000000000E+00 0.  1.
</event>
<event>
 4    1  0.8284550E+003  0.2307870E+02  0.7546771E-02  0.1491512E+00
          2   -1    0    0  502    0  0.00000000000E+00  0.00000000000E+00  0.41045055634E+03  0.41045055634E+03  0.00000000000E+00 0. -1.
          1   -1    0    0  501    0 -0.00000000000E+00 -0.00000000000E+00 -0.13110132455E+01  0.13110132455E+01  0.00000000000E+00 0. -1.
          2    1    1    2  501    0  0.20020754150E+02  0.11480238285E+02  0.22534559222E+03  0.22652430863E+03  0.00000000000E+00 0. -1.
          1    1    1    2  502    0 -0.20020754150E+02 -0.11480238285E+02  0.18379395087E+03  0.18523726095E+03  0.00000000000E+00 0. -1.
</event>
<event>
 4    1  0.8284550E+003  0.3683378E+02  0.7546771E-02  0.1368110E+00
          2   -1    0    0  502    0  0.00000000000E+00  0.00000000000E+00  0.11308977932E+03  0.11308977932E+03  0.00000000000E+00 0. -1.
          1   -1    0    0  501    0 -0.00000000000E+00 -0.00000000000E+00 -0.15106855032E+02  0.15106855032E+02  0.00000000000E+00 0. -1.
          2    1    1    2  501    0  0.18490236759E+02 -0.31856532001E+02  0.78074261799E+02  0.86326808362E+02  0.00000000000E+00 0. -1.
          1    1    1    2  502    0 -0.18490236759E+02  0.31856532001E+02  0.19908662493E+02  0.41869825994E+02  0.00000000000E+00 0. -1.
</event>
<event>
 4    1  0.8455412E+003  0.2601215E+02  0.7546771E-02  0.1457792E+00
          2   -1    0    0  502    0  0.00000000000E+00  0.00000000000E+00  0.81727652659E+03  0.81727652659E+03  0.00000000000E+00 0.  1.
          1   -1    0    0  501    0 -0.00000000000E+00 -0.00000000000E+00 -0.20538484636E+03  0.20538484636E+03  0.00000000000E+00 0.  1.
          2    1    1    2  501    0  0.23254178938E+02 -0.11656558990E+02  0.81624489311E+03  0.81665926661E+03  0.00000000000E+00 0.  1.
          1    1    1    2  502    0 -0.23254178938E+02  0.11656558990E+02 -0.20435321288E+03  0.20600210635E+03  0.00000000000E+00 0.  1.
</event>
<event>
 4    1  0.8284550E+003  0.2842615E+02  0.7546771E-02  0.1433785E+00
          2   -1    0    0  502    0  0.00000000000E+00  0.00000000000E+00  0.22280463710E+03  0.22280463710E+03  0.00000000000E+00 0. -1.
          1   -1    0    0  501    0 -0.00000000000E+00 -0.00000000000E+00 -0.65304011525E+02  0.65304011525E+02  0.00000000000E+00 0. -1.
          2    1    1    2  501    0  0.20510741525E+02  0.19681352669E+02  0.21874742516E+03  0.22058667724E+03  0.00000000000E+00 0. -1.
          1    1    1    2  502    0 -0.20510741525E+02 -0.19681352669E+02 -0.61246799584E+02  0.67521971388E+02  0.00000000000E+00 0. -1.
</event>
<event>
 4    1  0.8284550E+003  0.2745363E+02  0.7546771E-02  0.1443104E+00
          2   -1    0    0  502    0  0.00000000000E+00  0.00000000000E+00  0.13658448259E+03  0.13658448259E+03  0.00000000000E+00 0.  1.
          1   -1    0    0  501    0 -0.00000000000E+00 -0.00000000000E+00 -0.12681214085E+02  0.12681214085E+02  0.00000000000E+00 0.  1.
          2    1    1    2  501    0  0.92790985784E+01  0.25837955841E+02  0.11804315941E+03  0.12119360180E+03  0.00000000000E+00 0.  1.
          1    1    1    2  502    0 -0.92790985784E+01 -0.25837955841E+02  0.58601090972E+01  0.28072094883E+02  0.00000000000E+00 0.  1.
</event>
<event>
 4    1  0.8284550E+003  0.5133258E+02  0.7546771E-02  0.1292496E+00
          2   -1    0    0  502    0  0.00000000000E+00  0.00000000000E+00  0.25807967953E+03  0.25807967953E+03  0.00000000000E+00 0.  1.
          1   -1    0    0  501    0 -0.00000000000E+00 -0.00000000000E+00 -0.39133840643E+03  0.39133840643E+03  0.00000000000E+00 0. -1.
          2    1    1    2  501    0 -0.23380116049E+02  0.45699058058E+02  0.25381579797E+03  0.25895461578E+03  0.00000000000E+00 0.  1.
          1    1    1    2  502    0  0.23380116049E+02 -0.45699058058E+02 -0.38707452488E+03  0.39046347018E+03  0.00000000000E+00 0. -1.
</event>
<event>
 4    1  0.8284550E+003  0.3670852E+02  0.7546771E-02  0.1368934E+00
          2   -1    0    0  502    0  0.00000000000E+00  0.00000000000E+00  0.85689610667E+03  0.85689610667E+03  0.00000000000E+00 0.  1.
          1   -1    0    0  501    0 -0.00000000000E+00 -0.00000000000E+00 -0.25335540124E+02  0.25335540124E+02  0.00000000000E+00 0.  1.
          2    1    1    2  501    0 -0.66604778836E+01  0.36099215888E+02  0.84298698873E+03  0.84378586058E+03  0.00000000000E+00 0.  1.
          1    1    1    2  502    0  0.66604778836E+01 -0.36099215888E+02 -0.11426422185E+02  0.38445786210E+02  0.00000000000E+00 0.  1.
</event>
<event>
 4    1  0.8284550E+003  0.2014468E+02  0.7546771E-02  0.1531836E+00
          2   -1    0    0  502    0  0.00000000000E+00  0.00000000000E+00  0.98334268596E+00  0.98334268596E+00  0.00000000000E+00 0.  1.
          1   -1    0    0  501    0 -0.00000000000E+00 -0.00000000000E+00 -0.74982705679E+03  0.74982705679E+03  0.00000000000E+00 0.  1.
          2    1    1    2  501    0 -0.17192680111E+02  0.10498556900E+02 -0.12269587166E+03  0.12433858962E+03  0.00000000000E+00 0.  1.
          1    1    1    2  502    0  0.17192680111E+02 -0.10498556900E+02 -0.62614784245E+03  0.62647180986E+03  0.00000000000E+00 0.  1.
</event>
<event>
 4    1  0.8284550E+003  0.2126401E+02  0.7546771E-02  0.1515529E+00
          2   -1    0    0  502    0  0.00000000000E+00  0.00000000000E+00  0.96224277143E+02  0.96224277143E+02  0.00000000000E+00 0.  1.
          1   -1    0    0  501    0 -0.00000000000E+00 -0.00000000000E+00 -0.12055141437E+03  0.12055141437E+03  0.00000000000E+00 0. -1.
          2    1    1    2  501    0 -0.18473814618E+02  0.10529774374E+02  0.94090843353E+02  0.96463696684E+02  0.00000000000E+00 0.  1.
          1    1    1    2  502    0  0.18473814618E+02 -0.10529774374E+02 -0.11841798058E+03  0.12031199483E+03  0.00000000000E+00 0. -1.
</event>
<event>
 4    1  0.8284550E+003  0.2121146E+02  0.7546771E-02  0.1516267E+00
          2   -1    0    0  502    0  0.00000000000E+00  0.00000000000E+00  0.39153212764E+02  0.39153212764E+02  0.00000000000E+00 0. -1.
          1   -1    0    0  501    0 -0.00000000000E+00 -0.00000000000E+00 -0.11450478326E+04  0.11450478326E+04  0.00000000000E+00 0. -1.
          2    1    1    2  501    0  0.19630846280E+02  0.80346676244E+01  0.36174632846E+02  0.41934831239E+02  0.00000000000E+00 0. -1.
          1    1    1    2  502    0 -0.19630846280E+02 -0.80346676244E+01 -0.11420692527E+04  0.11422662142E+04  0.00000000000E+00 0. -1.
</event>
<event>
 4    1  0.8284550E+003  0.4689724E+02  0.7546771E-02  0.1312216E+00
          2   -1    0    0  502    0  0.00000000000E+00  0.00000000000E+00  0.34737171652E+01  0.34737171652E+01  0.00000000000E+00 0.  1.
          1   -1    0    0  501    0 -0.00000000000E+00 -0.00000000000E+00 -0.10067099985E+04  0.10067099985E+04  0.00000000000E+00 0. -1.
          2    1    1    2  501    0 -0.26021310320E+02 -0.39015923368E+02 -0.19393485301E+03  0.19952463026E+03  0.00000000000E+00 0.  1.
          1    1    1    2  502    0  0.26021310320E+02  0.39015923368E+02 -0.80930142833E+03  0.81065908542E+03  0.00000000000E+00 0. -1.
</event>
<event>
 4    1  0.8284550E+003  0.2914172E+02  0.7546771E-02  0.1427204E+00
          2   -1    0    0  502    0  0.00000000000E+00  0.00000000000E+00  0.13518558030E+02  0.13518558030E+02  0.00000000000E+00 0. -1.
          1   -1    0    0  501    0 -0.00000000000E+00 -0.00000000000E+00 -0.10425182224E+03  0.10425182224E+03  0.00000000000E+00 0. -1.
          2    1    1    2  501    0 -0.24887973839E+02 -0.15160090053E+02 -0.82447646996E+01  0.30285569454E+02  0.00000000000E+00 0. -1.
          1    1    1    2  502    0  0.24887973839E+02  0.15160090053E+02 -0.82488499515E+02  0.87484810821E+02  0.00000000000E+00 0. -1.
</event>
<event>
 4    1  0.8284550E+003  0.2854528E+02  0.7546771E-02  0.1432674E+00
          2   -1    0    0  502    0  0.00000000000E+00  0.00000000000E+00  0.79835182058E+00  0.79835182058E+00  0.00000000000E+00 0. -1.
          1   -1    0    0  501    0 -0.00000000000E+00 -0.00000000000E+00 -0.10910965610E+04  0.10910965610E+04  0.00000000000E+00 0.  1.
          2    1    1    2  501    0 -0.20054730385E+02 -0.20313568975E+02 -0.40642034961E+03  0.40742156776E+03  0.00000000000E+00 0. -1.
          1    1    1    2  502    0  0.20054730385E+02  0.20313568975E+02 -0.68387785960E+03  0.68447334510E+03  0.00000000000E+00 0.  1.
</event>
<event>
 4    1  0.8284550E+003  0.3574749E+02  0.7546771E-02  0.1375383E+00
          2   -1    0    0  502    0  0.00000000000E+00  0.00000000000E+00  0.58498544568E+03  0.58498544568E+03  0.00000000000E+00 0. -1.
          1   -1    0    0  501    0 -0.00000000000E+00 -0.00000000000E+00 -0.58773237866E+02  0.58773237866E+02  0.00000000000E+00 0.  1.
          2    1    1    2  501    0 -0.67064369816E+01 -0.35112774615E+02  0.57894703732E+03  0.58004961448E+03  0.00000000000E+00 0. -1.
          1    1    1    2  502    0  0.67064369816E+01  0.35112774615E+02 -0.52734829506E+02  0.63709069065E+02  0.00000000000E+00 0.  1.
</event>
<event>
 4    1  0.8284550E+003  0.4323059E+02  0.7546771E-02  0.1330528E+00
          2   -1    0    0  502    0  0.00000000000E+00  0.00000000000E+00  0.28480971958E+04  0.28480971958E+04  0.00000000000E+00 0. -1.
          1   -1    0    0  501    0 -0.00000000000E+00 -0.00000000000E+00 -0.40489674839E+01  0.40489674839E+01  0.00000000000E+00 0. -1.
          2    1    1    2  501    0  0.24040286656E+01  0.43163693967E+02  0.27274359023E+04  0.27277784890E+04  0.00000000000E+00 0. -1.
          1    1    1    2  502    0 -0.24040286656E+01 -0.43163693967E+02  0.11661232600E+03  0.12436767428E+03  0.00000000000E+00 0. -1.
</event>
<event>
 4    1  0.8284550E+003  0.3699366E+02  0.7546771E-02  0.1367064E+00
          2   -1    0    0  502    0  0.00000000000E+00  0.00000000000E+00  0.15712092771E+03  0.15712092771E+03  0.00000000000E+00 0.  1.
          1   -1    0    0  501    0 -0.00000000000E+00 -0.00000000000E+00 -0.30861183039E+02  0.30861183039E+02  0.00000000000E+00 0.  1.
          2    1    1    2  501    0  0.20462830336E+02 -0.30818878040E+02  0.14276015233E+03  0.14747539376E+03  0.00000000000E+00 0.  1.
          1    1    1    2  502    0 -0.20462830336E+02  0.30818878040E+02 -0.16500407659E+02  0.40506716997E+02  0.00000000000E+00 0.  1.
</event>
<event>
 4    1  0.8284550E+003  0.2073719E+02  0.7546771E-02  0.1523050E+00
          2   -1    0    0  502    0  0.00000000000E+00  0.00000000000E+00  0.31827023891E+01  0.31827023891E+01  0.00000000000E+00 0. -1.
          1   -1    0    0  501    0 -0.00000000000E+00 -0.00000000000E+00 -0.45067567576E+03  0.45067567576E+03  0.00000000000E+00 0.  1.
          2    1    1    2  501    0 -0.16827692508E+02 -0.12118579088E+02 -0.33857550017E+02  0.39703461907E+02  0.00000000000E+00 0. -1.
          1    1    1    2  502    0  0.16827692508E+02  0.12118579088E+02 -0.41363542336E+03  0.41415491624E+03  0.00000000000E+00 0.  1.
</event>
<event>
 4    1  0.8284550E+003  0.2422718E+02  0.7546771E-02  0.1477638E+00
          2   -1    0    0  502    0  0.00000000000E+00  0.00000000000E+00  0.13287591190E+01  0.13287591190E+01  0.00000000000E+00 0. -1.
          1   -1    0    0  501    0 -0.00000000000E+00 -0.00000000000E+00 -0.47261269483E+03  0.47261269483E+03  0.00000000000E+00 0. -1.
          2    1    1    2  501    0 -0.19930826449E+02  0.13773813986E+02 -0.29621559433E+03  0.29720470070E+03  0.00000000000E+00 0. -1.
          1    1    1    2  502    0  0.19930826449E+02 -0.13773813986E+02 -0.17506834138E+03  0.17673675324E+03  0.00000000000E+00 0. -1.
</event>
<event>
 4    1  0.8284550E+003  0.2523959E+02  0.7546771E-02  0.1466141E+00
          2   -1    0    0  502    0  0.00000000000E+00  0.00000000000E+00  0.24609331123E+03  0.24609331123E+03  0.00000000000E+00 0.  1.
          1   -1    0    0  501    0 -0.00000000000E+00 -0.00000000000E+00 -0.49131773768E+01  0.49131773768E+01  0.00000000000E+00 0.  1.
          2    1    1    2  501    0  0.13100304446E+02 -0.21573567621E+02  0.20691691149E+03  0.20845058181E+03  0.00000000000E+00 0.  1.
          1    1    1    2  502    0 -0.13100304446E+02  0.21573567621E+02  0.34263222355E+02  0.42555906789E+02  0.00000000000E+00 0.  1.
</event>
<event>
 4    1  0.8284550E+003  0.2108727E+02  0.7546771E-02  0.1518022E+00
          2   -1    0    0  502    0  0.00000000000E+00  0.00000000000E+00  0.14095431274E+04  0.14095431274E+04  0.00000000000E+00 0.  1.
          1   -1    0    0  501    0 -0.00000000000E+00 -0.00000000000E+00 -0.10550075338E+02  0.10550075338E+02  0.00000000000E+00 0. -1.
          2    1    1    2  501    0 -0.17582359779E+02 -0.11641891608E+02  0.13988464882E+04  0.13990054220E+04  0.00000000000E+00 0.  1.
          1    1    1    2  502    0  0.17582359779E+02  0.11641891608E+02  0.14656378627E+00  0.21087780740E+02  0.00000000000E+00 0. -1.
</event>
<event>
 4    1  0.8284550E+003  0.2305518E+02  0.7546771E-02  0.1491806E+00
          2   -1    0    0  502    0  0.00000000000E+00  0.00000000000E+00  0.64070317348E+03  0.64070317348E+03  0.00000000000E+00 0.  1.
          1   -1    0    0  501    0 -0.00000000000E+00 -0.00000000000E+00 -0.11282126680E+02  0.11282126680E+02  0.00000000000E+00 0. -1.
          2    1    1    2  501    0  0.18204837438E+02  0.14146561480E+02  0.62848853923E+03  0.62891126978E+03  0.00000000000E+00 0.  1.
          1    1    1    2  502    0 -0.18204837438E+02 -0.14146561480E+02  0.93250757028E+00  0.23074030385E+02  0.00000000000E+00 0. -1.
</event>
<event>
 4    1  0.8284550E+003  0.2118981E+02  0.7546771E-02  0.1516572E+00
          2   -1    0    0  502    0  0.00000000000E+00  0.00000000000E+00  0.63171454778E+02  0.63171454778E+02  0.00000000000E+00 0. -1.
          1   -1    0    0  501    0 -0.00000000000E+00 -0.00000000000E+00 -0.37212825145E+02  0.37212825145E+02  0.00000000000E+00 0.  1.
          2    1    1    2  501    0  0.11712201104E+02 -0.17658781112E+02  0.58124256972E+02  0.61866286891E+02  0.00000000000E+00 0. -1.
          1    1    1    2  502    0 -0.11712201104E+02  0.17658781112E+02 -0.32165627340E+02  0.38517993032E+02  0.00000000000E+00 0.  1.
</event>
<event>
 4    1  0.8284550E+003  0.3064359E+02  0.7546771E-02  0.1414085E+00
          2   -1    0    0  502    0  0.00000000000E+00  0.00000000000E+00  0.12288590817E+04  0.12288590817E+04  0.00000000000E+00 0. -1.
          1   -1    0    0  501    0 -0.00000000000E+00 -0.00000000000E+00 -0.25476300645E+01  0.25476300645E+01  0.00000000000E+00 0.  1.
          2    1    1    2  501    0  0.30626234190E+02 -0.10311168334E+01  0.11283105714E+04  0.11287266166E+04  0.00000000000E+00 0. -1.
          1    1    1    2  502    0 -0.30626234190E+02  0.10311168334E+01  0.98000880296E+02  0.10268009525E+03  0.00000000000E+00 0.  1.
</event>
<event>
 4    1  0.8284550E+003  0.2325690E+02  0.7546771E-02  0.1489297E+00
          2   -1    0    0  502    0  0.00000000000E+00  0.00000000000E+00  0.29058005325E+02  0.29058005325E+02  0.00000000000E+00 0.  1.
          1   -1    0    0  501    0 -0.00000000000E+00 -0.00000000000E+00 -0.76589518134E+02  0.76589518134E+02  0.00000000000E+00 0.  1.
          2    1    1    2  501    0 -0.19372798901E+02  0.12867708020E+02  0.22192896829E+02  0.32146662604E+02  0.00000000000E+00 0.  1.
          1    1    1    2  502    0  0.19372798901E+02 -0.12867708020E+02 -0.69724409638E+02  0.73500860854E+02  0.00000000000E+00 0.  1.
</event>
<event>
 4    1  0.8284550E+003  0.2613747E+02  0.7546771E-02  0.1456470E+00
          2   -1    0    0  502    0  0.00000000000E+00  0.00000000000E+00  0.43279791864E+01  0.43279791864E+01  0.00000000000E+00 0. -1.
          1   -1    0    0  501    0 -0.00000000000E+00 -0.00000000000E+00 -0.16148480331E+04  0.16148480331E+04  0.00000000000E+00 0. -1.
          2    1    1    2  501    0  0.25533490011E+02 -0.55864178739E+01 -0.36257320538E+02  0.44696313824E+02  0.00000000000E+00 0. -1.
          1    1    1    2  502    0 -0.25533490011E+02  0.55864178739E+01 -0.15742627333E+04  0.15744796984E+04  0.00000000000E+00 0. -1.
</event>
<event>
 4    1  0.8284550E+003  0.5637886E+02  0.7546771E-02  0.1272658E+00
          2   -1    0    0  502    0  0.00000000000E+00  0.00000000000E+00  0.45590407003E+03  0.45590407003E+03  0.00000000000E+00 0. -1.
          1   -1    0    0  501    0 -0.00000000000E+00 -0.00000000000E+00 -0.70601211631E+01  0.70601211631E+01  0.00000000000E+00 0. -1.
          2    1    1    2  501    0 -0.44587106877E+02  0.34504579622E+02  0.25027917446E+03  0.25655066026E+03  0.00000000000E+00 0. -1.
          1    1    1    2  502    0  0.44587106877E+02 -0.34504579622E+02  0.19856477441E+03  0.20641353093E+03  0.00000000000E+00 0. -1.
</event>
<event>
 4    1  0.8284550E+003  0.2115990E+02  0.7546771E-02  0.1516994E+00
          2   -1    0    0  502    0  0.00000000000E+00  0.00000000000E+00  0.63728991322E+00  0.63728991322E+00  0.00000000000E+00 0.  1.
          1   -1    0    0  501    0 -0.00000000000E+00 -0.00000000000E+00 -0.70288014437E+03  0.70288014437E+03  0.00000000000E+00 0. -1.
          2    1    1    2  501    0  0.10960050328E+02 -0.18100226989E+02 -0.35850770798E+03  0.35913161598E+03  0.00000000000E+00 0.  1.
          1    1    1    2  502    0 -0.10960050328E+02  0.18100226989E+02 -0.34373514648E+03  0.34438581830E+03  0.00000000000E+00 0. -1.
</event>
<event>
 4    1  0.8284550E+003  0.7775203E+02  0.7546771E-02  0.1209165E+00
          2   -1    0    0  502    0  0.00000000000E+00  0.00000000000E+00  0.13468163496E+04  0.13468163496E+04  0.00000000000E+00 0.  1.
          1   -1    0    0  501    0 -0.00000000000E+00 -0.00000000000E+00 -0.54672688608E+01  0.54672688608E+01  0.00000000000E+00 0.  1.
          2    1    1    2  501    0  0.41341723121E+02 -0.65850089328E+02  0.38461145618E+03  0.39239182530E+03  0.00000000000E+00 0.  1.
          1    1    1    2  502    0 -0.41341723121E+02  0.65850089328E+02  0.95673762452E+03  0.95989179312E+03  0.00000000000E+00 0.  1.
</event>
<event>
 4    1  0.8284550E+003  0.5649348E+02  0.7546771E-02  0.1272236E+00
          2   -1    0    0  502    0  0.00000000000E+00  0.00000000000E+00  0.54574554093E+03  0.54574554093E+03  0.00000000000E+00 0.  1.
          1   -1    0    0  501    0 -0.00000000000E+00 -0.00000000000E+00 -0.30747286236E+02  0.30747286236E+02  0.00000000000E+00 0. -1.
          2    1    1    2  501    0  0.10478118831E+01  0.56483757053E+02  0.51688963612E+03  0.51996769962E+03  0.00000000000E+00 0.  1.
          1    1    1    2  502    0 -0.10478118831E+01 -0.56483757053E+02 -0.18913814240E+01  0.56525127547E+02  0.00000000000E+00 0. -1.
</event>
<event>
 4    1  0.8284550E+003  0.3461513E+02  0.7546771E-02  0.1383289E+00
          2   -1    0    0  502    0  0.00000000000E+00  0.00000000000E+00  0.39633228487E+02  0.39633228487E+02  0.00000000000E+00 0.  1.
          1   -1    0    0  501    0 -0.00000000000E+00 -0.00000000000E+00 -0.74418945257E+02  0.74418945257E+02  0.00000000000E+00 0.  1.
          2    1    1    2  501    0  0.30594690060E+02 -0.16191741806E+02  0.26548840787E+02  0.43623944224E+02  0.00000000000E+00 0.  1.
          1    1    1    2  502    0 -0.30594690060E+02  0.16191741806E+02 -0.61334557556E+02  0.70428229519E+02  0.00000000000E+00 0.  1.
</event>
<event>
 4    1  0.8284550E+003  0.2519427E+02  0.7546771E-02  0.1466642E+00
          2   -1    0    0  502    0  0.00000000000E+00  0.00000000000E+00  0.22326382007E+01  0.22326382007E+01  0.00000000000E+00 0.  1.
          1   -1    0    0  501    0 -0.00000000000E+00 -0.00000000000E+00 -0.28668270109E+03  0.28668270109E+03  0.00000000000E+00 0.  1.
          2    1    1    2  501    0 -0.21387315345E+02 -0.13316665158E+02 -0.15538009417E+03  0.15740941679E+03  0.00000000000E+00 0.  1.
          1    1    1    2  502    0  0.21387315345E+02  0.13316665158E+02 -0.12906996871E+03  0.13150592250E+03  0.00000000000E+00 0.  1.
</event>
<event>
 4    1  0.8284550E+003  0.2008566E+02  0.7546771E-02  0.1532730E+00
          2   -1    0    0  502    0  0.00000000000E+00  0.00000000000E+00  0.12580947466E+01  0.12580947466E+01  0.00000000000E+00 0.  1.
          1   -1    0    0  501    0 -0.00000000000E+00 -0.00000000000E+00 -0.61596429684E+03  0.61596429684E+03  0.00000000000E+00 0.  1.
          2    1    1    2  501    0 -0.12896575860E+02  0.15398445609E+02 -0.93674459784E+02  0.95803644043E+02  0.00000000000E+00 0.  1.
          1    1    1    2  502    0  0.12896575860E+02 -0.15398445609E+02 -0.52103174231E+03  0.52141874754E+03  0.00000000000E+00 0.  1.
</event>
<event>
 4    1  0.8284550E+003  0.2536942E+02  0.7546771E-02  0.1464713E+00
          2   -1    0    0  502    0  0.00000000000E+00  0.00000000000E+00  0.13426271430E+01  0.13426271430E+01  0.00000000000E+00 0.  1.
          1   -1    0    0  501    0 -0.00000000000E+00 -0.00000000000E+00 -0.54664573369E+03  0.54664573369E+03  0.00000000000E+00 0.  1.
          2    1    1    2  501    0  0.10452750121E+02  0.23115954704E+02 -0.17652654438E+03  0.17834020360E+03  0.00000000000E+00 0.  1.
          1    1    1    2  502    0 -0.10452750121E+02 -0.23115954704E+02 -0.36877656216E+03  0.36964815724E+03  0.00000000000E+00 0.  1.
</event>
<event>
 4    1  0.8284550E+003  0.2049999E+02  0.7546771E-02  0.1526525E+00
          2   -1    0    0  502    0  0.00000000000E+00  0.00000000000E+00  0.37254385558E+03  0.37254385558E+03  0.00000000000E+00 0.  1.
          1   -1    0    0  501    0 -0.00000000000E+00 -0.00000000000E+00 -0.11778636060E+01  0.11778636060E+01  0.00000000000E+00 0.  1.
          2    1    1    2  501    0 -0.10238105021E+02  0.17760360986E+02  0.14725641718E+03  0.14867649988E+03  0.00000000000E+00 0.  1.
          1    1    1    2  502    0  0.10238105021E+02 -0.17760360986E+02  0.22410957480E+03  0.22504521931E+03  0.00000000000E+00 0.  1.
</event>
<event>
 4    1  0.8284550E+003  0.2109221E+02  0.7546771E-02  0.1517952E+00
          2   -1    0    0  502    0  0.00000000000E+00  0.00000000000E+00  0.36604847248E+03  0.36604847248E+03  0.00000000000E+00 0.  1.
          1   -1    0    0  501    0 -0.00000000000E+00 -0.00000000000E+00 -0.12253527392E+01  0.12253527392E+01  0.00000000000E+00 0.  1.
          2    1    1    2  501    0 -0.91869754170E-01 -0.21092007300E+02  0.19899366291E+03  0.20010836836E+03  0.00000000000E+00 0.  1.
          1    1    1    2  502    0  0.91869754170E-01  0.21092007300E+02  0.16582945684E+03  0.16716545686E+03  0.00000000000E+00 0.  1.
</event>
<event>
 4    1  0.8284550E+003  0.2880816E+02  0.7546771E-02  0.1430244E+00
          2   -1    0    0  502    0  0.00000000000E+00  0.00000000000E+00  0.17396824535E+02  0.17396824535E+02  0.00000000000E+00 0.  1.
          1   -1    0    0  501    0 -0.00000000000E+00 -0.00000000000E+00 -0.70754252426E+03  0.70754252426E+03  0.00000000000E+00 0.  1.
          2    1    1    2  501    0 -0.27816060337E+01  0.28673557538E+02  0.49641953338E+01  0.29232746524E+02  0.00000000000E+00 0.  1.
          1    1    1    2  502    0  0.27816060337E+01 -0.28673557538E+02 -0.69510989506E+03  0.69570660227E+03  0.00000000000E+00 0.  1.
</event>
<event>
 4    1  0.8284550E+003  0.2025184E+02  0.7546771E-02  0.1530220E+00
          2   -1    0    0  502    0  0.00000000000E+00  0.00000000000E+00  0.41714527959E+03  0.41714527959E+03  0.00000000000E+00 0. -1.
          1   -1    0    0  501    0 -0.00000000000E+00 -0.00000000000E+00 -0.11692601306E+02  0.11692601306E+02  0.00000000000E+00 0. -1.
          2    1    1    2  501    0 -0.14326629593E+02  0.14313788274E+02  0.40793240309E+03  0.40843479570E+03  0.00000000000E+00 0. -1.
          1    1    1    2  502    0  0.14326629593E+02 -0.14313788274E+02 -0.24797248073E+01  0.20403085192E+02  0.00000000000E+00 0. -1.
</event>
<event>
 4    1  0.8284550E+003  0.2886445E+02  0.7546771E-02  0.1429728E+00
          2   -1    0    0  502    0  0.00000000000E+00  0.00000000000E+00  0.27877664613E+02  0.27877664613E+02  0.00000000000E+00 0.  1.
          1   -1    0    0  501    0 -0.00000000000E+00 -0.00000000000E+00 -0.19439393618E+03  0.19439393618E+03  0.00000000000E+00 0. -1.
          2    1    1    2  501    0  0.95025004343E+01  0.27255434591E+02  0.18978334272E+02  0.34544658067E+02  0.00000000000E+00 0.  1.
          1    1    1    2  502    0 -0.95025004343E+01 -0.27255434591E+02 -0.18549460584E+03  0.18772694273E+03  0.00000000000E+00 0. -1.
</event>
<event>
 4    1  0.8284550E+003  0.3129362E+02  0.7546771E-02  0.1408678E+00
          2   -1    0    0  502    0  0.00000000000E+00  0.00000000000E+00  0.91440671496E+03  0.91440671496E+03  0.00000000000E+00 0.  1.
          1   -1    0    0  501    0 -0.00000000000E+00 -0.00000000000E+00 -0.35670088954E+02  0.35670088954E+02  0.00000000000E+00 0.  1.
          2    1    1    2  501    0  0.22258659922E+02  0.21996431469E+02  0.90722109906E+03  0.90776065872E+03  0.00000000000E+00 0.  1.
          1    1    1    2  502    0 -0.22258659922E+02 -0.21996431469E+02 -0.28484473054E+02  0.42316145194E+02  0.00000000000E+00 0.  1.
</event>
<event>
 4    1  0.8284550E+003  0.2674334E+02  0.7546771E-02  0.1450203E+00
          2   -1    0    0  502    0  0.00000000000E+00  0.00000000000E+00  0.13576594624E+02  0.13576594624E+02  0.00000000000E+00 0.  1.
          1   -1    0    0  501    0 -0.00000000000E+00 -0.00000000000E+00 -0.27627519541E+03  0.27627519541E+03  0.00000000000E+00 0.  1.
          2    1    1    2  501    0 -0.23107585147E+02  0.13462759252E+02 -0.97052592523E+00  0.26760947266E+02  0.00000000000E+00 0.  1.
          1    1    1    2  502    0  0.23107585147E+02 -0.13462759252E+02 -0.26172807486E+03  0.26309084277E+03  0.00000000000E+00 0.  1.
</event>
<event>
 4    1  0.8284550E+003  0.2688950E+02  0.7546771E-02  0.1448721E+00
          2   -1    0    0  502    0  0.00000000000E+00  0.00000000000E+00  0.46782767077E+02  0.46782767077E+02  0.00000000000E+00 0. -1.
          1   -1    0    0  501    0 -0.00000000000E+00 -0.00000000000E+00 -0.14979213575E+03  0.14979213575E+03  0.00000000000E+00 0.  1.
          2    1    1    2  501    0 -0.26450799904E+02  0.48373898647E+01  0.41574164890E+02  0.49512183779E+02  0.00000000000E+00 0. -1.
          1    1    1    2  502    0  0.26450799904E+02 -0.48373898647E+01 -0.14458353357E+03  0.14706271905E+03  0.00000000000E+00 0.  1.
</event>
<event>
 4    1  0.8284550E+003  0.2743645E+02  0.7546771E-02  0.1443272E+00
          2   -1    0    0  502    0  0.00000000000E+00  0.00000000000E+00  0.68140425697E+01  0.68140425697E+01  0.00000000000E+00 0. -1.
          1   -1    0    0  501    0 -0.00000000000E+00 -0.00000000000E+00 -0.35929553986E+03  0.35929553986E+03  0.00000000000E+00 0.  1.
          2    1    1    2  501    0  0.27886469125E+01 -0.27294362010E+02 -0.23905222688E+02  0.36389812048E+02  0.00000000000E+00 0. -1.
          1    1    1    2  502    0 -0.27886469125E+01  0.27294362010E+02 -0.32857627460E+03  0.32971977038E+03  0.00000000000E+00 0.  1.
</event>
<event>
 4    1  0.8284550E+003  0.2136864E+02  0.7546771E-02  0.1514066E+00
          2   -1    0    0  502    0  0.00000000000E+00  0.00000000000E+00  0.18822405335E+03  0.18822405335E+03  0.00000000000E+00 0. -1.
          1   -1    0    0  501    0 -0.00000000000E+00 -0.00000000000E+00 -0.11392593226E+03  0.11392593226E+03  0.00000000000E+00 0.  1.
          2    1    1    2  501    0  0.20259740889E+02  0.67942468168E+01  0.18660690675E+03  0.18782640000E+03  0.00000000000E+00 0. -1.
          1    1    1    2  502    0 -0.20259740889E+02 -0.67942468168E+01 -0.11230878565E+03  0.11432358561E+03  0.00000000000E+00 0.  1.
</event>
<event>
 4    1  0.8284550E+003  0.2310851E+02  0.7546771E-02  0.1491140E+00
          2   -1    0    0  502    0  0.00000000000E+00  0.00000000000E+00  0.29920173764E+03  0.29920173764E+03  0.00000000000E+00 0.  1.
          1   -1    0    0  501    0 -0.00000000000E+00 -0.00000000000E+00 -0.26205492056E+01  0.26205492056E+01  0.00000000000E+00 0.  1.
          2    1    1    2  501    0  0.22410984133E+02 -0.56348133993E+01  0.23351686699E+03  0.23465747484E+03  0.00000000000E+00 0.  1.
          1    1    1    2  502    0 -0.22410984133E+02  0.56348133993E+01  0.63064321449E+02  0.67164812005E+02  0.00000000000E+00 0.  1.
</event>
<event>
 4    1  0.8284550E+003  0.2901995E+02  0.7546771E-02  0.1428308E+00
          2   -1    0    0  502    0  0.00000000000E+00  0.00000000000E+00  0.11116760943E+03  0.11116760943E+03  0.00000000000E+00 0. -1.
          1   -1    0    0  501    0 -0.00000000000E+00 -0.00000000000E+00 -0.12017241325E+02  0.12017241325E+02  0.00000000000E+00 0. -1.
          2    1    1    2  501    0 -0.21786522361E+02 -0.19170425959E+02  0.87020562155E+02  0.91731870284E+02  0.00000000000E+00 0. -1.
          1    1    1    2  502    0  0.21786522361E+02  0.19170425959E+02  0.12129805950E+02  0.31452980470E+02  0.00000000000E+00 0. -1.
</event>
<event>
 4    1  0.8284550E+003  0.2072099E+02  0.7546771E-02  0.1523286E+00
          2   -1    0    0  502    0  0.00000000000E+00  0.00000000000E+00  0.30409710405E+02  0.30409710405E+02  0.00000000000E+00 0. -1.
          1   -1    0    0  501    0 -0.00000000000E+00 -0.00000000000E+00 -0.51700341638E+02  0.51700341638E+02  0.00000000000E+00 0.  1.
          2    1    1    2  501    0 -0.73311678717E+01 -0.19380752484E+02  0.24357649613E+02  0.31978972527E+02  0.00000000000E+00 0. -1.
          1    1    1    2  502    0  0.73311678717E+01  0.19380752484E+02 -0.45648280846E+02  0.50131079516E+02  0.00000000000E+00 0.  1.
</event>
<event>
 4    1  0.8284550E+003  0.2036907E+02  0.7546771E-02  0.1528467E+00
          2   -1    0    0  502    0  0.00000000000E+00  0.00000000000E+00  0.94847142750E+03  0.94847142750E+03  0.00000000000E+00 0.  1.
          1   -1    0    0  501    0 -0.00000000000E+00 -0.00000000000E+00 -0.23160402892E+01  0.23160402892E+01  0.00000000000E+00 0.  1.
          2    1    1    2  501    0 -0.53364303667E+01  0.19657604717E+02  0.90122936404E+03  0.90145951962E+03  0.00000000000E+00 0.  1.
          1    1    1    2  502    0  0.53364303667E+01 -0.19657604717E+02  0.44926023172E+02  0.49327948167E+02  0.00000000000E+00 0.  1.
</event>
<event>
 4    1  0.8284550E+003  0.2720829E+02  0.7546771E-02  0.1445527E+00
          2   -1    0    0  502    0  0.00000000000E+00  0.00000000000E+00  0.37257401270E+03  0.37257401270E+03  0.00000000000E+00 0.  1.
          1   -1    0    0  501    0 -0.00000000000E+00 -0.00000000000E+00 -0.57596110814E+02  0.57596110814E+02  0.00000000000E+00 0.  1.
          2    1    1    2  501    0 -0.13225454430E+02  0.23777688187E+02  0.36883142430E+03  0.36983362563E+03  0.00000000000E+00 0.  1.
          1    1    1    2  502    0  0.13225454430E+02 -0.23777688187E+02 -0.53853522411E+02  0.60336497880E+02  0.00000000000E+00 0.  1.
</event>
<event>
 4    1  0.8284550E+003  0.2316035E+02  0.7546771E-02  0.1490494E+00
          2   -1    0    0  502    0  0.00000000000E+00  0.00000000000E+00  0.63706202530E+02  0.63706202530E+02  0.00000000000E+00 0.  1.
          1   -1    0    0  501    0 -0.00000000000E+00 -0.00000000000E+00 -0.94153034959E+01  0.94153034959E+01  0.00000000000E+00 0.  1.
          2    1    1    2  501    0  0.17929166316E+02  0.14661067208E+02  0.39032950317E+02  0.45386926608E+02  0.00000000000E+00 0.  1.
          1    1    1    2  502    0 -0.17929166316E+02 -0.14661067208E+02  0.15257948717E+02  0.27734579418E+02  0.00000000000E+00 0.  1.
</event>
<event>
 4    1  0.8284550E+003  0.5187953E+02  0.7546771E-02  0.1290223E+00
          2   -1    0    0  502    0  0.00000000000E+00  0.00000000000E+00  0.14834808382E+04  0.14834808382E+04  0.00000000000E+00 0.  1.
          1   -1    0    0  501    0 -0.00000000000E+00 -0.00000000000E+00 -0.47943013759E+01  0.47943013759E+01  0.00000000000E+00 0.  1.
          2    1    1    2  501    0  0.66258598815E+00 -0.51875293982E+02  0.13260195228E+04  0.13270340086E+04  0.00000000000E+00 0.  1.
          1    1    1    2  502    0 -0.66258598815E+00  0.51875293982E+02  0.15266701402E+03  0.16124113097E+03  0.00000000000E+00 0.  1.
</event>
<event>
 4    1  0.8284550E+003  0.2168919E+02  0.7546771E-02  0.1509648E+00
          2   -1    0    0  502    0  0.00000000000E+00  0.00000000000E+00  0.12201220911E+04  0.12201220911E+04  0.00000000000E+00 0. -1.
          1   -1    0    0  501    0 -0.00000000000E+00 -0.00000000000E+00 -0.38622695819E+01  0.38622695819E+01  0.00000000000E+00 0.  1.
          2    1    1    2  501    0  0.46492715488E+01  0.21185025906E+02  0.11887729988E+04  0.11889708423E+04  0.00000000000E+00 0. -1.
          1    1    1    2  502    0 -0.46492715488E+01 -0.21185025906E+02  0.27486822640E+02  0.35013518352E+02  0.00000000000E+00 0.  1.
</event>
<event>
 4    1  0.8284550E+003  0.2482202E+02  0.7546771E-02  0.1470804E+00
          2   -1    0    0  502    0  0.00000000000E+00  0.00000000000E+00  0.41502696381E+03  0.41502696381E+03  0.00000000000E+00 0. -1.
          1   -1    0    0  501    0 -0.00000000000E+00 -0.00000000000E+00 -0.38835842245E+01  0.38835842245E+01  0.00000000000E+00 0.  1.
          2    1    1    2  501    0  0.23893883856E+02 -0.67242230866E+01  0.37019531398E+03  0.37102655344E+03  0.00000000000E+00 0. -1.
          1    1    1    2  502    0 -0.23893883856E+02  0.67242230866E+01  0.40948065602E+02  0.47883994595E+02  0.00000000000E+00 0.  1.
</event>
<event>
 4    1  0.8284550E+003  0.3171376E+02  0.7546771E-02  0.1405266E+00
          2   -1    0    0  502    0  0.00000000000E+00  0.00000000000E+00  0.73844641608E+02  0.73844641608E+02  0.00000000000E+00 0.  1.
          1   -1    0    0  501    0 -0.00000000000E+00 -0.00000000000E+00 -0.37745453645E+03  0.37745453645E+03  0.00000000000E+00 0. -1.
          2    1    1    2  501    0 -0.31398856813E+02  0.44580363089E+01  0.69736096013E+02  0.76608650843E+02  0.00000000000E+00 0.  1.
          1    1    1    2  502    0  0.31398856813E+02 -0.44580363089E+01 -0.37334599085E+03  0.37469052721E+03  0.00000000000E+00 0. -1.
</event>
<event>
 4    1  0.8284550E+003  0.2103909E+02  0.7546771E-02  0.1518707E+00
          2   -1    0    0  502    0  0.00000000000E+00  0.00000000000E+00  0.27857849549E+03  0.27857849549E+03  0.00000000000E+00 0. -1.
          1   -1    0    0  501    0 -0.00000000000E+00 -0.00000000000E+00 -0.28678562499E+01  0.28678562499E+01  0.00000000000E+00 0. -1.
          2    1    1    2  501    0  0.17265136069E+02  0.12023251217E+02  0.23182951452E+03  0.23278223149E+03  0.00000000000E+00 0. -1.
          1    1    1    2  502    0 -0.17265136069E+02 -0.12023251217E+02  0.43881124720E+02  0.48664120253E+02  0.00000000000E+00 0. -1.
</event>
<event>
 4    1  0.8284550E+003  0.2283854E+02  0.7546771E-02  0.1494536E+00
          2   -1    0    0  502    0  0.00000000000E+00  0.00000000000E+00  0.36950028943E+02  0.36950028943E+02  0.00000000000E+00 0.  1.
          1   -1    0    0  501    0 -0.00000000000E+00 -0.00000000000E+00 -0.10174897346E+04  0.10174897346E+04  0.00000000000E+00 0.  1.
          2    1    1    2  501    0 -0.21693529144E+02  0.71406933501E+01  0.33280015246E+02  0.40362830959E+02  0.00000000000E+00 0.  1.
          1    1    1    2  502    0  0.21693529144E+02 -0.71406933501E+01 -0.10138197209E+04  0.10140769326E+04  0.00000000000E+00 0.  1.
</event>
<event>
 4    1  0.8284550E+003  0.2432690E+02  0.7546771E-02  0.1476476E+00
          2   -1    0    0  502    0  0.00000000000E+00  0.00000000000E+00  0.77894453988E+00  0.77894453988E+00  0.00000000000E+00 0. -1.
          1   -1    0    0  501    0 -0.00000000000E+00 -0.00000000000E+00 -0.94090657967E+03  0.94090657967E+03  0.00000000000E+00 0. -1.
          2    1    1    2  501    0 -0.24067526673E+02 -0.35428859337E+01 -0.26346027915E+03  0.26458102080E+03  0.00000000000E+00 0. -1.
          1    1    1    2  502    0  0.24067526673E+02  0.35428859337E+01 -0.67666735598E+03  0.67710450341E+03  0.00000000000E+00 0. -1.
</event>
<event>
 4    1  0.8284550E+003  0.4001601E+02  0.7546771E-02  0.1348392E+00
          2   -1    0    0  502    0  0.00000000000E+00  0.00000000000E+00  0.14080023649E+04  0.14080023649E+04  0.00000000000E+00 0. -1.
          1   -1    0    0  501    0 -0.00000000000E+00 -0.00000000000E+00 -0.14062324167E+01  0.14062324167E+01  0.00000000000E+00 0. -1.
          2    1    1    2  501    0 -0.18392581172E+02 -0.35538622286E+02  0.10114912980E+04  0.10122825330E+04  0.00000000000E+00 0. -1.
          1    1    1    2  502    0  0.18392581172E+02  0.35538622286E+02  0.39510483446E+03  0.39712606428E+03  0.00000000000E+00 0. -1.
</event>
<event>
 4    1  0.8284550E+003  0.2298847E+02  0.7546771E-02  0.1492643E+00
          2   -1    0    0  502    0  0.00000000000E+00  0.00000000000E+00  0.97245107590E+02  0.97245107590E+02  0.00000000000E+00 0.  1.
          1   -1    0    0  501    0 -0.00000000000E+00 -0.00000000000E+00 -0.76645762451E+01  0.76645762451E+01  0.00000000000E+00 0.  1.
          2    1    1    2  501    0  0.73891847049E+01 -0.21768548796E+02  0.73085294784E+02  0.76615468941E+02  0.00000000000E+00 0.  1.
          1    1    1    2  502    0 -0.73891847049E+01  0.21768548796E+02  0.16495236561E+02  0.28294214895E+02  0.00000000000E+00 0.  1.
</event>
<event>
 4    1  0.8284550E+003  0.2584511E+02  0.7546771E-02  0.1459567E+00
          2   -1    0    0  502    0  0.00000000000E+00  0.00000000000E+00  0.31552228924E+02  0.31552228924E+02  0.00000000000E+00 0.  1.
          1   -1    0    0  501    0 -0.00000000000E+00 -0.00000000000E+00 -0.14550997705E+03  0.14550997705E+03  0.00000000000E+00 0. -1.
          2    1    1    2  501    0 -0.24815768524E+02 -0.72213292984E+01  0.24859005242E+02  0.35860007054E+02  0.00000000000E+00 0.  1.
          1    1    1    2  502    0  0.24815768524E+02  0.72213292984E+01 -0.13881675337E+03  0.14120219892E+03  0.00000000000E+00 0. -1.
</event>
<event>
 4    1  0.8284550E+003  0.3186169E+02  0.7546771E-02  0.1404080E+00
          2   -1    0    0  502    0  0.00000000000E+00  0.00000000000E+00  0.62247068918E+03  0.62247068918E+03  0.00000000000E+00 0. -1.
          1   -1    0    0  501    0 -0.00000000000E+00 -0.00000000000E+00 -0.24657469809E+02  0.24657469809E+02  0.00000000000E+00 0. -1.
          2    1    1    2  501    0 -0.14253248443E+02 -0.28495824439E+02  0.61158724036E+03  0.61241662263E+03  0.00000000000E+00 0. -1.
          1    1    1    2  502    0  0.14253248443E+02  0.28495824439E+02 -0.13774020996E+02  0.34711536353E+02  0.00000000000E+00 0. -1.
</event>
<event>
 4    1  0.8284550E+003  0.2233968E+02  0.7546771E-02  0.1500960E+00
          2   -1    0    0  502    0  0.00000000000E+00  0.00000000000E+00  0.48287729503E+02  0.48287729503E+02  0.00000000000E+00 0.  1.
          1   -1    0    0  501    0 -0.00000000000E+00 -0.00000000000E+00 -0.11736929518E+02  0.11736929518E+02  0.00000000000E+00 0.  1.
          2    1    1    2  501    0 -0.11985847042E+02 -0.18852081229E+02  0.28647351776E+02  0.36328119409E+02  0.00000000000E+00 0.  1.
          1    1    1    2  502    0  0.11985847042E+02  0.18852081229E+02  0.79034482082E+01  0.23696539612E+02  0.00000000000E+00 0.  1.
</event>
<event>
 4    1  0.1473284E+004  0.3014905E+02  0.7546771E-02  0.1418306E+00
          2   -1    0    0  502    0  0.00000000000E+00  0.00000000000E+00  0.18911548701E+04  0.18911548701E+04  0.00000000000E+00 0. -1.
          1   -1    0    0  501    0 -0.00000000000E+00 -0.00000000000E+00 -0.21622014230E+04  0.21622014230E+04  0.00000000000E+00 0. -1.
          2    1    1    2  501    0  0.29904116274E+02 -0.38352342469E+01  0.18909296004E+04  0.18911699339E+04  0.00000000000E+00 0. -1.
          1    1    1    2  502    0 -0.29904116274E+02  0.38352342469E+01 -0.21619761532E+04  0.21621863593E+04  0.00000000000E+00 0. -1.
</event>
<event>
 4    1  0.8284550E+003  0.2459074E+02  0.7546771E-02  0.1473434E+00
          2   -1    0    0  502    0  0.00000000000E+00  0.00000000000E+00  0.22215988879E+03  0.22215988879E+03  0.00000000000E+00 0. -1.
          1   -1    0    0  501    0 -0.00000000000E+00 -0.00000000000E+00 -0.13224193782E+02  0.13224193782E+02  0.00000000000E+00 0.  1.
          2    1    1    2  501    0 -0.18752061816E+02  0.15907999158E+02  0.20935055719E+03  0.21078984808E+03  0.00000000000E+00 0. -1.
          1    1    1    2  502    0  0.18752061816E+02 -0.15907999158E+02 -0.41486217921E+00  0.24594234491E+02  0.00000000000E+00 0.  1.
</event>
<event>
 4    1  0.8284550E+003  0.3724211E+02  0.7546771E-02  0.1365452E+00
          2   -1    0    0  502    0  0.00000000000E+00  0.00000000000E+00  0.27630981986E+04  0.27630981986E+04  0.00000000000E+00 0.  1.
          1   -1    0    0  501    0 -0.00000000000E+00 -0.00000000000E+00 -0.12335517456E+01  0.12335517456E+01  0.00000000000E+00 0. -1.
          2    1    1    2  501    0 -0.37232748134E+02 -0.83517479940E+00  0.24453566083E+04  0.24456401854E+04  0.00000000000E+00 0.  1.
          1    1    1    2  502    0  0.37232748134E+02  0.83517479940E+00  0.31650803857E+03  0.31869156488E+03  0.00000000000E+00 0. -1.
</event>
<event>
 4    1  0.8284550E+003  0.3769923E+02  0.7546771E-02  0.1362522E+00
          2   -1    0    0  502    0  0.00000000000E+00  0.00000000000E+00  0.51895781078E+01  0.51895781078E+01  0.00000000000E+00 0.  1.
          1   -1    0    0  501    0 -0.00000000000E+00 -0.00000000000E+00 -0.15957768412E+04  0.15957768412E+04  0.00000000000E+00 0.  1.
          2    1    1    2  501    0  0.31716235876E+02  0.20379217183E+02 -0.66729536587E+02  0.76642437098E+02  0.00000000000E+00 0.  1.
          1    1    1    2  502    0 -0.31716235876E+02 -0.20379217183E+02 -0.15238577265E+04  0.15243239822E+04  0.00000000000E+00 0.  1.
</event>
<event>
 4    1  0.8284550E+003  0.2259116E+02  0.7546771E-02  0.1497697E+00
          2   -1    0    0  502    0  0.00000000000E+00  0.00000000000E+00  0.23241592442E+02  0.23241592442E+02  0.00000000000E+00 0. -1.
          1   -1    0    0  501    0 -0.00000000000E+00 -0.00000000000E+00 -0.81954969186E+03  0.81954969186E+03  0.00000000000E+00 0. -1.
          2    1    1    2  501    0 -0.78974851203E+01  0.21165780473E+02  0.17557845434E+02  0.28611858914E+02  0.00000000000E+00 0. -1.
          1    1    1    2  502    0  0.78974851203E+01 -0.21165780473E+02 -0.81386594486E+03  0.81417942539E+03  0.00000000000E+00 0. -1.
</event>
<event>
 4    1  0.8284550E+003  0.2118062E+02  0.7546771E-02  0.1516702E+00
          2   -1    0    0  502    0  0.00000000000E+00  0.00000000000E+00  0.11008584636E+03  0.11008584636E+03  0.00000000000E+00 0.  1.
          1   -1    0    0  501    0 -0.00000000000E+00 -0.00000000000E+00 -0.13234062030E+04  0.13234062030E+04  0.00000000000E+00 0. -1.
          2    1    1    2  501    0 -0.61454458137E+01  0.20269485649E+02  0.10898145604E+03  0.11102061211E+03  0.00000000000E+00 0.  1.
          1    1    1    2  502    0  0.61454458137E+01 -0.20269485649E+02 -0.13223018127E+04  0.13224714373E+04  0.00000000000E+00 0. -1.
</event>
<event>
 4    1  0.8284550E+003  0.2157915E+02  0.7546771E-02  0.1511154E+00
          2   -1    0    0  502    0  0.00000000000E+00  0.00000000000E+00  0.23390957688E+02  0.23390957688E+02  0.00000000000E+00 0.  1.
          1   -1    0    0  501    0 -0.00000000000E+00 -0.00000000000E+00 -0.14840598147E+03  0.14840598147E+03  0.00000000000E+00 0.  1.
          2    1    1    2  501    0  0.20487600479E+02  0.67762652520E+01  0.17422233276E+02  0.27734342546E+02  0.00000000000E+00 0.  1.
          1    1    1    2  502    0 -0.20487600479E+02 -0.67762652520E+01 -0.14243725706E+03  0.14406259661E+03  0.00000000000E+00 0.  1.
</event>
<event>
 4    1  0.8284550E+003  0.2278548E+02  0.7546771E-02  0.1495210E+00
          2   -1    0    0  502    0  0.00000000000E+00  0.00000000000E+00  0.75755534156E+02  0.75755534156E+02  0.00000000000E+00 0. -1.
          1   -1    0    0  501    0 -0.00000000000E+00 -0.00000000000E+00 -0.10894999220E+02  0.10894999220E+02  0.00000000000E+00 0. -1.
          2    1    1    2  501    0  0.15874601051E+02  0.16345497755E+02  0.58818336692E+02  0.63077531552E+02  0.00000000000E+00 0. -1.
          1    1    1    2  502    0 -0.15874601051E+02 -0.16345497755E+02  0.60421982446E+01  0.23573001824E+02  0.00000000000E+00 0. -1.
</event>
<event>
 4    1  0.8284550E+003  0.2013726E+02  0.7546771E-02  0.1531948E+00
          2   -1    0    0  502    0  0.00000000000E+00  0.00000000000E+00  0.12480830627E+01  0.12480830627E+01  0.00000000000E+00 0.  1.
          1   -1    0    0  501    0 -0.00000000000E+00 -0.00000000000E+00 -0.39013449645E+03  0.39013449645E+03  0.00000000000E+00 0.  1.
          2    1    1    2  501    0 -0.16054555991E+02  0.12155680439E+02 -0.11442590331E+03  0.11618432202E+03  0.00000000000E+00 0.  1.
          1    1    1    2  502    0  0.16054555991E+02 -0.12155680439E+02 -0.27446051007E+03  0.27519825749E+03  0.00000000000E+00 0.  1.
</event>
<event>
 4    1  0.8284550E+003  0.2344579E+02  0.7546771E-02  0.1486975E+00
          2   -1    0    0  502    0  0.00000000000E+00  0.00000000000E+00  0.66116846728E+03  0.66116846728E+03  0.00000000000E+00 0.  1.
          1   -1    0    0  501    0 -0.00000000000E+00 -0.00000000000E+00 -0.40922629216E+01  0.40922629216E+01  0.00000000000E+00 0. -1.
          2    1    1    2  501    0  0.23086508475E+02  0.40887813994E+01  0.62546219499E+03  0.62590147976E+03  0.00000000000E+00 0.  1.
          1    1    1    2  502    0 -0.23086508475E+02 -0.40887813994E+01  0.31614009374E+02  0.39359250445E+02  0.00000000000E+00 0. -1.
</event>
<event>
 4    1  0.8284550E+003  0.2279747E+02  0.7546771E-02  0.1495057E+00
          2   -1    0    0  502    0  0.00000000000E+00  0.00000000000E+00  0.69301627528E+03  0.69301627528E+03  0.00000000000E+00 0.  1.
          1   -1    0    0  501    0 -0.00000000000E+00 -0.00000000000E+00 -0.18998488620E+02  0.18998488620E+02  0.00000000000E+00 0.  1.
          2    1    1    2  501    0  0.18731068546E+02 -0.12995060413E+02  0.68591901991E+03  0.68629776803E+03  0.00000000000E+00 0.  1.
          1    1    1    2  502    0 -0.18731068546E+02  0.12995060413E+02 -0.11901233248E+02  0.25716995875E+02  0.00000000000E+00 0.  1.
</event>
<event>
 4    1  0.8284550E+003  0.2303416E+02  0.7546771E-02  0.1492070E+00
          2   -1    0    0  502    0  0.00000000000E+00  0.00000000000E+00  0.26432721999E+02  0.26432721999E+02  0.00000000000E+00 0.  1.
          1   -1    0    0  501    0 -0.00000000000E+00 -0.00000000000E+00 -0.34028984680E+03  0.34028984680E+03  0.00000000000E+00 0.  1.
          2    1    1    2  501    0  0.22950093723E+02 -0.19661645004E+01  0.20942593847E+02  0.31131412461E+02  0.00000000000E+00 0.  1.
          1    1    1    2  502    0 -0.22950093723E+02  0.19661645004E+01 -0.33479971865E+03  0.33559115634E+03  0.00000000000E+00 0.  1.
</event>
<event>
 4    1  0.8284550E+003  0.2448665E+02  0.7546771E-02  0.1474629E+00
          2   -1    0    0  502    0  0.00000000000E+00  0.00000000000E+00  0.16822121795E+03  0.16822121795E+03  0.00000000000E+00 0. -1.
          1   -1    0    0  501    0 -0.00000000000E+00 -0.00000000000E+00 -0.24109687011E+02  0.24109687011E+02  0.00000000000E+00 0. -1.
          2    1    1    2  501    0  0.16290598035E+02  0.18281480751E+02  0.16082860822E+03  0.16268201298E+03  0.00000000000E+00 0. -1.
          1    1    1    2  502    0 -0.16290598035E+02 -0.18281480751E+02 -0.16717077286E+02  0.29648891982E+02  0.00000000000E+00 0. -1.
</event>
<event>
 4    1  0.8284550E+003  0.2498388E+02  0.7546771E-02  0.1468984E+00
          2   -1    0    0  502    0  0.00000000000E+00  0.00000000000E+00  0.66068137518E+03  0.66068137518E+03  0.00000000000E+00 0.  1.
          1   -1    0    0  501    0 -0.00000000000E+00 -0.00000000000E+00 -0.50141880197E+02  0.50141880197E+02  0.00000000000E+00 0. -1.
          2    1    1    2  501    0 -0.23935377846E+02  0.71618243698E+01  0.65731712002E+03  0.65779175300E+03  0.00000000000E+00 0.  1.
          1    1    1    2  502    0  0.23935377846E+02 -0.71618243698E+01 -0.46777625034E+02  0.53031502381E+02  0.00000000000E+00 0. -1.
</event>
<event>
 4    1  0.8284550E+003  0.2532574E+02  0.7546771E-02  0.1465192E+00
          2   -1    0    0  502    0  0.00000000000E+00  0.00000000000E+00  0.11649407133E+03  0.11649407133E+03  0.00000000000E+00 0.  1.
          1   -1    0    0  501    0 -0.00000000000E+00 -0.00000000000E+00 -0.24732634923E+02  0.24732634923E+02  0.00000000000E+00 0.  1.
          2    1    1    2  501    0  0.11837120277E+02 -0.22389185790E+02  0.10814020553E+03  0.11106618346E+03  0.00000000000E+00 0.  1.
          1    1    1    2  502    0 -0.11837120277E+02  0.22389185790E+02 -0.16378769125E+02  0.30160522788E+02  0.00000000000E+00 0.  1.
</event>
<event>
 4    1  0.8284550E+003  0.2317617E+02  0.7546771E-02  0.1490298E+00
          2   -1    0    0  502    0  0.00000000000E+00  0.00000000000E+00  0.32342480562E+03  0.32342480562E+03  0.00000000000E+00 0.  1.
          1   -1    0    0  501    0 -0.00000000000E+00 -0.00000000000E+00 -0.80993864594E+01  0.80993864594E+01  0.00000000000E+00 0.  1.
          2    1    1    2  501    0  0.43032322208E+01  0.22773168271E+02  0.30545621997E+03  0.30633419222E+03  0.00000000000E+00 0.  1.
          1    1    1    2  502    0 -0.43032322208E+01 -0.22773168271E+02  0.98691991920E+01  0.25189999868E+02  0.00000000000E+00 0.  1.
</event>
<event>
 4    1  0.8284550E+003  0.2651929E+02  0.7546771E-02  0.1452498E+00
          2   -1    0    0  502    0  0.00000000000E+00  0.00000000000E+00  0.99451449736E+03  0.99451449736E+03  0.00000000000E+00 0. -1.
          1   -1    0    0  501    0 -0.00000000000E+00 -0.00000000000E+00 -0.10363166213E+03  0.10363166213E+03  0.00000000000E+00 0. -1.
          2    1    1    2  501    0  0.46144284503E+01 -0.26114739359E+02  0.99263793490E+03  0.99299211596E+03  0.00000000000E+00 0. -1.
          1    1    1    2  502    0 -0.46144284503E+01  0.26114739359E+02 -0.10175509967E+03  0.10515404353E+03  0.00000000000E+00 0. -1.
</event>
<event>
 4    1  0.8284550E+003  0.3784955E+02  0.7546771E-02  0.1361570E+00
          2   -1    0    0  502    0  0.00000000000E+00  0.00000000000E+00  0.13343174502E+02  0.13343174502E+02  0.00000000000E+00 0.  1.
          1   -1    0    0  501    0 -0.00000000000E+00 -0.00000000000E+00 -0.55290644274E+03  0.55290644274E+03  0.00000000000E+00 0.  1.
          2    1    1    2  501    0  0.36497164075E+02  0.10027238583E+02 -0.15628068948E+02  0.40949054179E+02  0.00000000000E+00 0.  1.
          1    1    1    2  502    0 -0.36497164075E+02 -0.10027238583E+02 -0.52393519929E+03  0.52530056306E+03  0.00000000000E+00 0.  1.
</event>
<event>
 4    1  0.8284550E+003  0.2871875E+02  0.7546771E-02  0.1431067E+00
          2   -1    0    0  502    0  0.00000000000E+00  0.00000000000E+00  0.28124700861E+03  0.28124700861E+03  0.00000000000E+00 0.  1.
          1   -1    0    0  501    0 -0.00000000000E+00 -0.00000000000E+00 -0.63510851924E+01  0.63510851924E+01  0.00000000000E+00 0.  1.
          2    1    1    2  501    0 -0.10999717014E+02 -0.26528712129E+02  0.24294811700E+03  0.24463964089E+03  0.00000000000E+00 0.  1.
          1    1    1    2  502    0  0.10999717014E+02  0.26528712129E+02  0.31947806417E+02  0.42958452910E+02  0.00000000000E+00 0.  1.
</event>
<event>
 4    1  0.8284550E+003  0.3031128E+02  0.7546771E-02  0.1416910E+00
          2   -1    0    0  502    0  0.00000000000E+00  0.00000000000E+00  0.15823720812E+04  0.15823720812E+04  0.00000000000E+00 0.  1.
          1   -1    0    0  501    0 -0.00000000000E+00 -0.00000000000E+00 -0.22330842354E+02  0.22330842354E+02  0.00000000000E+00 0.  1.
          2    1    1    2  501    0 -0.28393970616E+02  0.10609243947E+02  0.15718722954E+04  0.15721645228E+04  0.00000000000E+00 0.  1.
          1    1    1    2  502    0  0.28393970616E+02 -0.10609243947E+02 -0.11831056573E+02  0.32538400761E+02  0.00000000000E+00 0.  1.
</event>
<event>
 4    1  0.8284550E+003  0.2445011E+02  0.7546771E-02  0.1475050E+00
          2   -1    0    0  502    0  0.00000000000E+00  0.00000000000E+00  0.60151556254E+03  0.60151556254E+03  0.00000000000E+00 0. -1.
          1   -1    0    0  501    0 -0.00000000000E+00 -0.00000000000E+00 -0.14738119951E+01  0.14738119951E+01  0.00000000000E+00 0. -1.
          2    1    1    2  501    0  0.21933038527E+02 -0.10805081064E+02  0.47207626331E+03  0.47270900810E+03  0.00000000000E+00 0. -1.
          1    1    1    2  502    0 -0.21933038527E+02  0.10805081064E+02  0.12796548724E+03  0.13028036644E+03  0.00000000000E+00 0. -1.
</event>
<event>
 4    1  0.8284550E+003  0.2719766E+02  0.7546771E-02  0.1445633E+00
          2   -1    0    0  502    0  0.00000000000E+00  0.00000000000E+00  0.30069016413E+02  0.30069016413E+02  0.00000000000E+00 0.  1.
          1   -1    0    0  501    0 -0.00000000000E+00 -0.00000000000E+00 -0.42393323817E+03  0.42393323817E+03  0.00000000000E+00 0.  1.
          2    1    1    2  501    0  0.27099522584E+02 -0.23083298398E+01  0.23384247070E+02  0.35868308044E+02  0.00000000000E+00 0.  1.
          1    1    1    2  502    0 -0.27099522584E+02  0.23083298398E+01 -0.41724846883E+03  0.41813394654E+03  0.00000000000E+00 0.  1.
</event>
<event>
 4    1  0.8284550E+003  0.2921619E+02  0.7546771E-02  0.1426532E+00
          2   -1    0    0  502    0  0.00000000000E+00  0.00000000000E+00  0.60064306420E+01  0.60064306420E+01  0.00000000000E+00 0. -1.
          1   -1    0    0  501    0 -0.00000000000E+00 -0.00000000000E+00 -0.24869013011E+03  0.24869013011E+03  0.00000000000E+00 0. -1.
          2    1    1    2  501    0  0.28542046832E+02  0.62399997392E+01 -0.37974152984E+02  0.47912653120E+02  0.00000000000E+00 0. -1.
          1    1    1    2  502    0 -0.28542046832E+02 -0.62399997392E+01 -0.20470954649E+03  0.20678390763E+03  0.00000000000E+00 0. -1.
</event>
<event>
 4    1  0.8284550E+003  0.7691118E+02  0.7546771E-02  0.1211206E+00
          2   -1    0    0  502    0  0.00000000000E+00  0.00000000000E+00  0.36084498317E+03  0.36084498317E+03  0.00000000000E+00 0.  1.
          1   -1    0    0  501    0 -0.00000000000E+00 -0.00000000000E+00 -0.20750460579E+03  0.20750460579E+03  0.00000000000E+00 0.  1.
          2    1    1    2  501    0 -0.35682929170E+02  0.68132649643E+02  0.34938907997E+03  0.35775418737E+03  0.00000000000E+00 0.  1.
          1    1    1    2  502    0  0.35682929170E+02 -0.68132649643E+02 -0.19604870259E+03  0.21059540158E+03  0.00000000000E+00 0.  1.
</event>
<event>
 4    1  0.8284550E+003  0.2918666E+02  0.7546771E-02  0.1426798E+00
          2   -1    0    0  502    0  0.00000000000E+00  0.00000000000E+00  0.68636693932E+02  0.68636693932E+02  0.00000000000E+00 0.  1.
          1   -1    0    0  501    0 -0.00000000000E+00 -0.00000000000E+00 -0.97449489558E+02  0.97449489558E+02  0.00000000000E+00 0. -1.
          2    1    1    2  501    0  0.24816918858E+02  0.15361700540E+02  0.63168475341E+02  0.69585325910E+02  0.00000000000E+00 0.  1.
          1    1    1    2  502    0 -0.24816918858E+02 -0.15361700540E+02 -0.91981270967E+02  0.96500857581E+02  0.00000000000E+00 0. -1.
</event>
<event>
 4    1  0.8284550E+003  0.2570236E+02  0.7546771E-02  0.1461097E+00
          2   -1    0    0  502    0  0.00000000000E+00  0.00000000000E+00  0.28076984063E+02  0.28076984063E+02  0.00000000000E+00 0. -1.
          1   -1    0    0  501    0 -0.00000000000E+00 -0.00000000000E+00 -0.34478412105E+02  0.34478412105E+02  0.00000000000E+00 0. -1.
          2    1    1    2  501    0 -0.23484461316E+02 -0.10444690437E+02  0.14425739677E+02  0.29473945220E+02  0.00000000000E+00 0. -1.
          1    1    1    2  502    0  0.23484461316E+02  0.10444690437E+02 -0.20827167719E+02  0.33081450948E+02  0.00000000000E+00 0. -1.
</event>
<event>
 4    1  0.8284550E+003  0.2071776E+02  0.7546771E-02  0.1523333E+00
          2   -1    0    0  502    0  0.00000000000E+00  0.00000000000E+00  0.80029537591E+02  0.80029537591E+02  0.00000000000E+00 0.  1.
          1   -1    0    0  501    0 -0.00000000000E+00 -0.00000000000E+00 -0.96768722078E+02  0.96768722078E+02  0.00000000000E+00 0.  1.
          2    1    1    2  501    0  0.64218336209E+01 -0.19697350310E+02  0.77544889204E+02  0.80264783049E+02  0.00000000000E+00 0.  1.
          1    1    1    2  502    0 -0.64218336209E+01  0.19697350310E+02 -0.94284073691E+02  0.96533476619E+02  0.00000000000E+00 0.  1.
</event>
<event>
 4    1  0.8284550E+003  0.6185389E+02  0.7546771E-02  0.1253661E+00
          2   -1    0    0  502    0  0.00000000000E+00  0.00000000000E+00  0.10326007549E+04  0.10326007549E+04  0.00000000000E+00 0.  1.
          1   -1    0    0  501    0 -0.00000000000E+00 -0.00000000000E+00 -0.14970612907E+04  0.14970612907E+04  0.00000000000E+00 0. -1.
          2    1    1    2  501    0 -0.12649004688E+01  0.61840952564E+02  0.10310346045E+04  0.10328883091E+04  0.00000000000E+00 0.  1.
          1    1    1    2  502    0  0.12649004688E+01 -0.61840952564E+02 -0.14954951403E+04  0.14967737365E+04  0.00000000000E+00 0. -1.
</event>
<event>
 4    1  0.8284550E+003  0.2001608E+02  0.7546771E-02  0.1533790E+00
          2   -1    0    0  502    0  0.00000000000E+00  0.00000000000E+00  0.31829865969E+03  0.31829865969E+03  0.00000000000E+00 0. -1.
          1   -1    0    0  501    0 -0.00000000000E+00 -0.00000000000E+00 -0.17208734953E+01  0.17208734953E+01  0.00000000000E+00 0. -1.
          2    1    1    2  501    0 -0.55693594664E+01 -0.19225646320E+02  0.75366185064E+02  0.77978875937E+02  0.00000000000E+00 0. -1.
          1    1    1    2  502    0  0.55693594664E+01  0.19225646320E+02  0.24121160113E+03  0.24204065725E+03  0.00000000000E+00 0. -1.
</event>
<event>
 4    1  0.8284550E+003  0.3546706E+02  0.7546771E-02  0.1377309E+00
          2   -1    0    0  502    0  0.00000000000E+00  0.00000000000E+00  0.81651710001E+03  0.81651710001E+03  0.00000000000E+00 0.  1.
          1   -1    0    0  501    0 -0.00000000000E+00 -0.00000000000E+00 -0.39612680036E+02  0.39612680036E+02  0.00000000000E+00 0.  1.
          2    1    1    2  501    0  0.11645154012E+02 -0.33500790264E+02  0.80811058373E+03  0.80888851401E+03  0.00000000000E+00 0.  1.
          1    1    1    2  502    0 -0.11645154012E+02  0.33500790264E+02 -0.31206163757E+02  0.47241266036E+02  0.00000000000E+00 0.  1.
</event>
<event>
 4    1  0.8284550E+003  0.9678958E+02  0.7546771E-02  0.1169490E+00
          2   -1    0    0  502    0  0.00000000000E+00  0.00000000000E+00  0.99701258455E+02  0.99701258455E+02  0.00000000000E+00 0. -1.
          1   -1    0    0  501    0 -0.00000000000E+00 -0.00000000000E+00 -0.13566538895E+03  0.13566538895E+03  0.00000000000E+00 0.  1.
          2    1    1    2  501    0  0.35230166827E+02 -0.90150192471E+02  0.47265040509E+02  0.10771353634E+03  0.00000000000E+00 0. -1.
          1    1    1    2  502    0 -0.35230166827E+02  0.90150192471E+02 -0.83229171001E+02  0.12765311106E+03  0.00000000000E+00 0.  1.
</event>
<event>
 4    1  0.8284550E+003  0.2153559E+02  0.7546771E-02  0.1511754E+00
          2   -1    0    0  502    0  0.00000000000E+00  0.00000000000E+00  0.47095404780E+03  0.47095404780E+03  0.00000000000E+00 0. -1.
          1   -1    0    0  501    0 -0.00000000000E+00 -0.00000000000E+00 -0.34473261313E+01  0.34473261313E+01  0.00000000000E+00 0.  1.
          2    1    1    2  501    0  0.20133626254E+02 -0.76432190210E+01  0.43423184623E+03  0.43476554369E+03  0.00000000000E+00 0. -1.
          1    1    1    2  502    0 -0.20133626254E+02  0.76432190210E+01  0.33274875438E+02  0.39635830237E+02  0.00000000000E+00 0.  1.
</event>
<event>
 4    1  0.8284550E+003  0.2199108E+02  0.7546771E-02  0.1505571E+00
          2   -1    0    0  502    0  0.00000000000E+00  0.00000000000E+00  0.15137856602E+04  0.15137856602E+04  0.00000000000E+00 0.  1.
          1   -1    0    0  501    0 -0.00000000000E+00 -0.00000000000E+00 -0.25236162788E+01  0.25236162788E+01  0.00000000000E+00 0. -1.
          2    1    1    2  501    0  0.12473503558E+02 -0.18111298455E+02  0.14641744142E+04  0.14643395517E+04  0.00000000000E+00 0.  1.
          1    1    1    2  502    0 -0.12473503558E+02  0.18111298455E+02  0.47087629726E+02  0.51969724801E+02  0.00000000000E+00 0. -1.
</event>
<event>
 4    1  0.8284550E+003  0.2650794E+02  0.7546771E-02  0.1452614E+00
          2   -1    0    0  502    0  0.00000000000E+00  0.00000000000E+00  0.28991117745E+03  0.28991117745E+03  0.00000000000E+00 0. -1.
          1   -1    0    0  501    0 -0.00000000000E+00 -0.00000000000E+00 -0.82206028958E+02  0.82206028958E+02  0.00000000000E+00 0. -1.
          2    1    1    2  501    0 -0.25772863011E+02 -0.61992462254E+01  0.28714779889E+03  0.28836873882E+03  0.00000000000E+00 0. -1.
          1    1    1    2  502    0  0.25772863011E+02  0.61992462254E+01 -0.79442650396E+02  0.83748467589E+02  0.00000000000E+00 0. -1.
</event>
<event>
 4    1  0.8284550E+003  0.2500416E+02  0.7546771E-02  0.1468757E+00
          2   -1    0    0  502    0  0.00000000000E+00  0.00000000000E+00  0.42535858527E+01  0.42535858527E+01  0.00000000000E+00 0.  1.
          1   -1    0    0  501    0 -0.00000000000E+00 -0.00000000000E+00 -0.17938000111E+03  0.17938000111E+03  0.00000000000E+00 0.  1.
          2    1    1    2  501    0 -0.19183829992E+02 -0.16037105153E+02 -0.48543647402E+02  0.54604887857E+02  0.00000000000E+00 0.  1.
          1    1    1    2  502    0  0.19183829992E+02  0.16037105153E+02 -0.12658276786E+03  0.12902869911E+03  0.00000000000E+00 0.  1.
</event>
<event>
 4    1  0.8284550E+003  0.2098649E+02  0.7546771E-02  0.1519458E+00
          2   -1    0    0  502    0  0.00000000000E+00  0.00000000000E+00  0.71044629801E+02  0.71044629801E+02  0.00000000000E+00 0.  1.
          1   -1    0    0  501    0 -0.00000000000E+00 -0.00000000000E+00 -0.55999733884E+03  0.55999733884E+03  0.00000000000E+00 0. -1.
          2    1    1    2  501    0  0.14364170881E+02  0.15300432539E+02  0.69293301756E+02  0.72401618139E+02  0.00000000000E+00 0.  1.
          1    1    1    2  502    0 -0.14364170881E+02 -0.15300432539E+02 -0.55824601080E+03  0.55864035050E+03  0.00000000000E+00 0. -1.
</event>
<event>
 4    1  0.8284550E+003  0.2031709E+02  0.7546771E-02  0.1529242E+00
          2   -1    0    0  502    0  0.00000000000E+00  0.00000000000E+00  0.30468514528E+01  0.30468514528E+01  0.00000000000E+00 0. -1.
          1   -1    0    0  501    0 -0.00000000000E+00 -0.00000000000E+00 -0.40652645115E+03  0.40652645115E+03  0.00000000000E+00 0. -1.
          2    1    1    2  501    0 -0.13128494990E+02  0.15505703439E+02 -0.34522984480E+02  0.40057716825E+02  0.00000000000E+00 0. -1.
          1    1    1    2  502    0  0.13128494990E+02 -0.15505703439E+02 -0.36895661521E+03  0.36951558577E+03  0.00000000000E+00 0. -1.
</event>
<event>
 4    1  0.8284550E+003  0.2124842E+02  0.7546771E-02  0.1515747E+00
          2   -1    0    0  502    0  0.00000000000E+00  0.00000000000E+00  0.32067477432E+02  0.32067477432E+02  0.00000000000E+00 0. -1.
          1   -1    0    0  501    0 -0.00000000000E+00 -0.00000000000E+00 -0.25066128220E+03  0.25066128220E+03  0.00000000000E+00 0.  1.
          2    1    1    2  501    0  0.92020963464E+01  0.19152460309E+02  0.28039914430E+02  0.35181417173E+02  0.00000000000E+00 0. -1.
          1    1    1    2  502    0 -0.92020963464E+01 -0.19152460309E+02 -0.24663371919E+03  0.24754734245E+03  0.00000000000E+00 0.  1.
</event>
<event>
 4    1  0.8284550E+003  0.3880906E+02  0.7546771E-02  0.1355610E+00
          2   -1    0    0  502    0  0.00000000000E+00  0.00000000000E+00  0.96053169584E+02  0.96053169584E+02  0.00000000000E+00 0.  1.
          1   -1    0    0  501    0 -0.00000000000E+00 -0.00000000000E+00 -0.29437183369E+02  0.29437183369E+02  0.00000000000E+00 0.  1.
          2    1    1    2  501    0 -0.28166222322E+02  0.26698447063E+02  0.76201557896E+02  0.85515031317E+02  0.00000000000E+00 0.  1.
          1    1    1    2  502    0  0.28166222322E+02 -0.26698447063E+02 -0.95855716809E+01  0.39975321636E+02  0.00000000000E+00 0.  1.
</event>
<event>
 4    1  0.8284550E+003  0.2269502E+02  0.7546771E-02  0.1496364E+00
          2   -1    0    0  502    0  0.00000000000E+00  0.00000000000E+00  0.55998412106E+01  0.55998412106E+01  0.00000000000E+00 0.  1.
          1   -1    0    0  501    0 -0.00000000000E+00 -0.00000000000E+00 -0.92034864029E+02  0.92034864029E+02  0.00000000000E+00 0.  1.
          2    1    1    2  501    0  0.16547504832E+02  0.15532010634E+02 -0.44428896146E+02  0.49889779346E+02  0.00000000000E+00 0.  1.
          1    1    1    2  502    0 -0.16547504832E+02 -0.15532010634E+02 -0.42006126673E+02  0.47744925893E+02  0.00000000000E+00 0.  1.
</event>
<event>
 4    1  0.8284550E+003  0.2195665E+02  0.7546771E-02  0.1506032E+00
          2   -1    0    0  502    0  0.00000000000E+00  0.00000000000E+00  0.86160662191E+02  0.86160662191E+02  0.00000000000E+00 0.  1.
          1   -1    0    0  501    0 -0.00000000000E+00 -0.00000000000E+00 -0.65018418855E+02  0.65018418855E+02  0.00000000000E+00 0. -1.
          2    1    1    2  501    0  0.64997674392E+01  0.20972546018E+02  0.82834993745E+02  0.85695570784E+02  0.00000000000E+00 0.  1.
          1    1    1    2  502    0 -0.64997674392E+01 -0.20972546018E+02 -0.61692750409E+02  0.65483510262E+02  0.00000000000E+00 0. -1.
</event>
<event>
 4    1  0.8284550E+003  0.6499293E+02  0.7546771E-02  0.1243751E+00
          2   -1    0    0  502    0  0.00000000000E+00  0.00000000000E+00  0.16017580070E+04  0.16017580070E+04  0.00000000000E+00 0.  1.
          1   -1    0    0  501    0 -0.00000000000E+00 -0.00000000000E+00 -0.21481594061E+02  0.21481594061E+02  0.00000000000E+00 0. -1.
          2    1    1    2  501    0 -0.57704950167E+02 -0.29903510459E+02  0.15503087017E+04  0.15516704392E+04  0.00000000000E+00 0.  1.
          1    1    1    2  502    0  0.57704950167E+02  0.29903510459E+02  0.29967711167E+02  0.71569161824E+02  0.00000000000E+00 0. -1.
</event>
<event>
 4    1  0.8284550E+003  0.2364062E+02  0.7546771E-02  0.1484607E+00
          2   -1    0    0  502    0  0.00000000000E+00  0.00000000000E+00  0.19306875045E+04  0.19306875045E+04  0.00000000000E+00 0. -1.
          1   -1    0    0  501    0 -0.00000000000E+00 -0.00000000000E+00 -0.33676409337E+00  0.33676409337E+00  0.00000000000E+00 0. -1.
          2    1    1    2  501    0  0.21033091566E+02  0.10792939899E+02  0.60335531358E+03  0.60381827806E+03  0.00000000000E+00 0. -1.
          1    1    1    2  502    0 -0.21033091566E+02 -0.10792939899E+02  0.13269954268E+04  0.13272059905E+04  0.00000000000E+00 0. -1.
</event>
<event>
 4    1  0.8284550E+003  0.2650831E+02  0.7546771E-02  0.1452611E+00
          2   -1    0    0  502    0  0.00000000000E+00  0.00000000000E+00  0.17308513438E+02  0.17308513438E+02  0.00000000000E+00 0.  1.
          1   -1    0    0  501    0 -0.00000000000E+00 -0.00000000000E+00 -0.75922064178E+03  0.75922064178E+03  0.00000000000E+00 0.  1.
          2    1    1    2  501    0  0.21733098231E+02 -0.15177705807E+02  0.67850245178E+01  0.27362873935E+02  0.00000000000E+00 0.  1.
          1    1    1    2  502    0 -0.21733098231E+02  0.15177705807E+02 -0.74869715286E+03  0.74916628128E+03  0.00000000000E+00 0.  1.
</event>
<event>
 4    1  0.8284550E+003  0.2836127E+02  0.7546771E-02  0.1434393E+00
          2   -1    0    0  502    0  0.00000000000E+00  0.00000000000E+00  0.35881263264E+01  0.35881263264E+01  0.00000000000E+00 0. -1.
          1   -1    0    0  501    0 -0.00000000000E+00 -0.00000000000E+00 -0.22945209878E+03  0.22945209878E+03  0.00000000000E+00 0.  1.
          2    1    1    2  501    0  0.26061434599E+02  0.11187638748E+02 -0.95258265193E+02  0.99390636992E+02  0.00000000000E+00 0. -1.
          1    1    1    2  502    0 -0.26061434599E+02 -0.11187638748E+02 -0.13060570726E+03  0.13364958811E+03  0.00000000000E+00 0.  1.
</event>
<event>
 4    1  0.8284550E+003  0.2309926E+02  0.7546771E-02  0.1491255E+00
          2   -1    0    0  502    0  0.00000000000E+00  0.00000000000E+00  0.51859431673E+00  0.51859431673E+00  0.00000000000E+00 0.  1.
          1   -1    0    0  501    0 -0.00000000000E+00 -0.00000000000E+00 -0.11891060973E+04  0.11891060973E+04  0.00000000000E+00 0.  1.
          2    1    1    2  501    0  0.21373352826E+02  0.87610326244E+01 -0.37595826866E+03  0.37666722140E+03  0.00000000000E+00 0.  1.
          1    1    1    2  502    0 -0.21373352826E+02 -0.87610326244E+01 -0.81262923429E+03  0.81295747018E+03  0.00000000000E+00 0.  1.
</event>
<event>
 4    1  0.8284550E+003  0.2142297E+02  0.7546771E-02  0.1513311E+00
          2   -1    0    0  502    0  0.00000000000E+00  0.00000000000E+00  0.15544502445E+02  0.15544502445E+02  0.00000000000E+00 0. -1.
          1   -1    0    0  501    0 -0.00000000000E+00 -0.00000000000E+00 -0.53012631448E+02  0.53012631448E+02  0.00000000000E+00 0. -1.
          2    1    1    2  501    0  0.21394419679E+02  0.11056392288E+01  0.40828664979E+01  0.21808563234E+02  0.00000000000E+00 0. -1.
          1    1    1    2  502    0 -0.21394419679E+02 -0.11056392288E+01 -0.41550995502E+02  0.46748570659E+02  0.00000000000E+00 0. -1.
</event>
<event>
 4    1  0.8284550E+003  0.2840754E+02  0.7546771E-02  0.1433959E+00
          2   -1    0    0  502    0  0.00000000000E+00  0.00000000000E+00  0.11125609148E+03  0.11125609148E+03  0.00000000000E+00 0. -1.
          1   -1    0    0  501    0 -0.00000000000E+00 -0.00000000000E+00 -0.37305580963E+03  0.37305580963E+03  0.00000000000E+00 0. -1.
          2    1    1    2  501    0 -0.20157077413E+02 -0.20017008479E+02  0.10889038193E+03  0.11253489981E+03  0.00000000000E+00 0. -1.
          1    1    1    2  502    0  0.20157077413E+02  0.20017008479E+02 -0.37069010008E+03  0.37177700130E+03  0.00000000000E+00 0. -1.
</event>
<event>
 4    1  0.8284550E+003  0.6774824E+02  0.7546771E-02  0.1235560E+00
          2   -1    0    0  502    0  0.00000000000E+00  0.00000000000E+00  0.81809997004E+02  0.81809997004E+02  0.00000000000E+00 0. -1.
          1   -1    0    0  501    0 -0.00000000000E+00 -0.00000000000E+00 -0.24971383042E+03  0.24971383042E+03  0.00000000000E+00 0. -1.
          2    1    1    2  501    0 -0.67657154764E+02 -0.35118608573E+01  0.62006036174E+02  0.91839927480E+02  0.00000000000E+00 0. -1.
          1    1    1    2  502    0  0.67657154764E+02  0.35118608573E+01 -0.22990986959E+03  0.23968389994E+03  0.00000000000E+00 0. -1.
</event>
<event>
 4    1  0.8284550E+003  0.2207026E+02  0.7546771E-02  0.1504515E+00
          2   -1    0    0  502    0  0.00000000000E+00  0.00000000000E+00  0.95958034368E+02  0.95958034368E+02  0.00000000000E+00 0.  1.
          1   -1    0    0  501    0 -0.00000000000E+00 -0.00000000000E+00 -0.10413453391E+02  0.10413453391E+02  0.00000000000E+00 0. -1.
          2    1    1    2  501    0 -0.14682959008E+02 -0.16477470648E+02  0.80848985052E+02  0.83807247349E+02  0.00000000000E+00 0.  1.
          1    1    1    2  502    0  0.14682959008E+02  0.16477470648E+02  0.46955959252E+01  0.22564240410E+02  0.00000000000E+00 0. -1.
</event>
<event>
 4    1  0.8284550E+003  0.2933227E+02  0.7546771E-02  0.1425489E+00
          2   -1    0    0  502    0  0.00000000000E+00  0.00000000000E+00  0.71836353758E+03  0.71836353758E+03  0.00000000000E+00 0. -1.
          1   -1    0    0  501    0 -0.00000000000E+00 -0.00000000000E+00 -0.87491355150E+01  0.87491355150E+01  0.00000000000E+00 0.  1.
          2    1    1    2  501    0  0.15956442357E+02 -0.24612481072E+02  0.69256390293E+03  0.69318478194E+03  0.00000000000E+00 0. -1.
          1    1    1    2  502    0 -0.15956442357E+02  0.24612481072E+02  0.17050499136E+02  0.33927891152E+02  0.00000000000E+00 0.  1.
</event>
<event>
 4    1  0.8284550E+003  0.2015345E+02  0.7546771E-02  0.1531703E+00
          2   -1    0    0  502    0  0.00000000000E+00  0.00000000000E+00  0.26963760366E+03  0.26963760366E+03  0.00000000000E+00 0.  1.
          1   -1    0    0  501    0 -0.00000000000E+00 -0.00000000000E+00 -0.16246240332E+01  0.16246240332E+01  0.00000000000E+00 0. -1.
          2    1    1    2  501    0  0.13952999198E+02 -0.14542187214E+02  0.17060611801E+03  0.17179234237E+03  0.00000000000E+00 0.  1.
          1    1    1    2  502    0 -0.13952999198E+02  0.14542187214E+02  0.97406861622E+02  0.99469885325E+02  0.00000000000E+00 0. -1.
</event>
<event>
 4    1  0.8284550E+003  0.2716770E+02  0.7546771E-02  0.1445931E+00
          2   -1    0    0  502    0  0.00000000000E+00  0.00000000000E+00  0.70958983691E+02  0.70958983691E+02  0.00000000000E+00 0. -1.
          1   -1    0    0  501    0 -0.00000000000E+00 -0.00000000000E+00 -0.22649307274E+02  0.22649307274E+02  0.00000000000E+00 0.  1.
          2    1    1    2  501    0 -0.17929226526E+02 -0.20411436291E+02  0.58572790216E+02  0.64566675995E+02  0.00000000000E+00 0. -1.
          1    1    1    2  502    0  0.17929226526E+02  0.20411436291E+02 -0.10263113799E+02  0.29041614971E+02  0.00000000000E+00 0.  1.
</event>
<event>
 4    1  0.8284550E+003  0.3285459E+02  0.7546771E-02  0.1396308E+00
          2   -1    0    0  502    0  0.00000000000E+00  0.00000000000E+00  0.33010822671E+04  0.33010822671E+04  0.00000000000E+00 0. -1.
          1   -1    0    0  501    0 -0.00000000000E+00 -0.00000000000E+00 -0.36812095916E+00  0.36812095916E+00  0.00000000000E+00 0.  1.
          2    1    1    2  501    0 -0.31601384904E+02  0.89875935373E+01  0.22021274343E+04  0.22023725074E+04  0.00000000000E+00 0. -1.
          1    1    1    2  502    0  0.31601384904E+02 -0.89875935373E+01  0.10985867118E+04  0.10990778806E+04  0.00000000000E+00 0.  1.
</event>
<event>
 4    1  0.8284550E+003  0.2815140E+02  0.7546771E-02  0.1436373E+00
          2   -1    0    0  502    0  0.00000000000E+00  0.00000000000E+00  0.10047047232E+04  0.10047047232E+04  0.00000000000E+00 0.  1.
          1   -1    0    0  501    0 -0.00000000000E+00 -0.00000000000E+00 -0.13856038644E+01  0.13856038644E+01  0.00000000000E+00 0.  1.
          2    1    1    2  501    0  0.61426650942E+01  0.27473057460E+02  0.83180615341E+03  0.83228239083E+03  0.00000000000E+00 0.  1.
          1    1    1    2  502    0 -0.61426650942E+01 -0.27473057460E+02  0.17151296597E+03  0.17380793629E+03  0.00000000000E+00 0.  1.
</event>
<event>
 4    1  0.8284550E+003  0.3804047E+02  0.7546771E-02  0.1360368E+00
          2   -1    0    0  502    0  0.00000000000E+00  0.00000000000E+00  0.13161345233E+03  0.13161345233E+03  0.00000000000E+00 0.  1.
          1   -1    0    0  501    0 -0.00000000000E+00 -0.00000000000E+00 -0.22401955951E+02  0.22401955951E+02  0.00000000000E+00 0.  1.
          2    1    1    2  501    0  0.37904573416E+02  0.32126373673E+01  0.10955703296E+03  0.11597336417E+03  0.00000000000E+00 0.  1.
          1    1    1    2  502    0 -0.37904573416E+02 -0.32126373673E+01 -0.34553658575E+00  0.38042044112E+02  0.00000000000E+00 0.  1.
</event>
<event>
 4    1  0.8284550E+003  0.3086698E+02  0.7546771E-02  0.1412209E+00
          2   -1    0    0  502    0  0.00000000000E+00  0.00000000000E+00  0.13195837498E+03  0.13195837498E+03  0.00000000000E+00 0.  1.
          1   -1    0    0  501    0 -0.00000000000E+00 -0.00000000000E+00 -0.57797179658E+02  0.57797179658E+02  0.00000000000E+00 0.  1.
          2    1    1    2  501    0 -0.93303535032E+01 -0.29423034405E+02  0.12583450357E+03  0.12956501356E+03  0.00000000000E+00 0.  1.
          1    1    1    2  502    0  0.93303535032E+01  0.29423034405E+02 -0.51673308248E+02  0.60190541078E+02  0.00000000000E+00 0.  1.
</event>
<event>
 4    1  0.8284550E+003  0.2163989E+02  0.7546771E-02  0.1510322E+00
          2   -1    0    0  502    0  0.00000000000E+00  0.00000000000E+00  0.46437549841E+02  0.46437549841E+02  0.00000000000E+00 0. -1.
          1   -1    0    0  501    0 -0.00000000000E+00 -0.00000000000E+00 -0.12813248360E+03  0.12813248360E+03  0.00000000000E+00 0.  1.
          2    1    1    2  501    0  0.16004554462E+02  0.14564997304E+02  0.42932453012E+02  0.48077858018E+02  0.00000000000E+00 0. -1.
          1    1    1    2  502    0 -0.16004554462E+02 -0.14564997304E+02 -0.12462738677E+03  0.12649217542E+03  0.00000000000E+00 0.  1.
</event>
<event>
 4    1  0.8284550E+003  0.2010486E+02  0.7546771E-02  0.1532439E+00
          2   -1    0    0  502    0  0.00000000000E+00  0.00000000000E+00  0.31995442954E+03  0.31995442954E+03  0.00000000000E+00 0. -1.
          1   -1    0    0  501    0 -0.00000000000E+00 -0.00000000000E+00 -0.54553096828E+01  0.54553096828E+01  0.00000000000E+00 0.  1.
          2    1    1    2  501    0  0.11731583375E+02  0.16327134908E+02  0.29987626835E+03  0.30054946631E+03  0.00000000000E+00 0. -1.
          1    1    1    2  502    0 -0.11731583375E+02 -0.16327134908E+02  0.14622851505E+02  0.24860272906E+02  0.00000000000E+00 0.  1.
</event>
<event>
 4    1  0.8284550E+003  0.2463215E+02  0.7546771E-02  0.1472961E+00
          2   -1    0    0  502    0  0.00000000000E+00  0.00000000000E+00  0.51544197952E+02  0.51544197952E+02  0.00000000000E+00 0.  1.
          1   -1    0    0  501    0 -0.00000000000E+00 -0.00000000000E+00 -0.12716227897E+03  0.12716227897E+03  0.00000000000E+00 0.  1.
          2    1    1    2  501    0  0.10437700491E+02  0.22311364788E+02  0.47308107108E+02  0.53336662704E+02  0.00000000000E+00 0.  1.
          1    1    1    2  502    0 -0.10437700491E+02 -0.22311364788E+02 -0.12292618813E+03  0.12536981422E+03  0.00000000000E+00 0.  1.
</event>
<event>
 4    1  0.8284550E+003  0.2676779E+02  0.7546771E-02  0.1449955E+00
          2   -1    0    0  502    0  0.00000000000E+00  0.00000000000E+00  0.87522677061E+03  0.87522677061E+03  0.00000000000E+00 0.  1.
          1   -1    0    0  501    0 -0.00000000000E+00 -0.00000000000E+00 -0.34247672867E+02  0.34247672867E+02  0.00000000000E+00 0.  1.
          2    1    1    2  501    0 -0.25978655959E+02 -0.64516490190E+01  0.86975884403E+03  0.87017065057E+03  0.00000000000E+00 0.  1.
          1    1    1    2  502    0  0.25978655959E+02  0.64516490190E+01 -0.28779746288E+02  0.39303792908E+02  0.00000000000E+00 0.  1.
</event>
<event>
 4    1  0.8284550E+003  0.2062725E+02  0.7546771E-02  0.1524654E+00
          2   -1    0    0  502    0  0.00000000000E+00  0.00000000000E+00  0.12804691849E+02  0.12804691849E+02  0.00000000000E+00 0.  1.
          1   -1    0    0  501    0 -0.00000000000E+00 -0.00000000000E+00 -0.44534307673E+03  0.44534307673E+03  0.00000000000E+00 0. -1.
          2    1    1    2  501    0 -0.19034960044E+02 -0.79469230148E+01  0.40930123657E+01  0.21029408919E+02  0.00000000000E+00 0.  1.
          1    1    1    2  502    0  0.19034960044E+02  0.79469230148E+01 -0.43663139724E+03  0.43711835966E+03  0.00000000000E+00 0. -1.
</event>
<event>
 4    1  0.8284550E+003  0.2020626E+02  0.7546771E-02  0.1530906E+00
          2   -1    0    0  502    0  0.00000000000E+00  0.00000000000E+00  0.51642487857E+02  0.51642487857E+02  0.00000000000E+00 0.  1.
          1   -1    0    0  501    0 -0.00000000000E+00 -0.00000000000E+00 -0.47235243884E+02  0.47235243884E+02  0.00000000000E+00 0. -1.
          2    1    1    2  501    0  0.24949320019E+01 -0.20051636305E+02  0.47315658907E+02  0.51449629562E+02  0.00000000000E+00 0.  1.
          1    1    1    2  502    0 -0.24949320019E+01  0.20051636305E+02 -0.42908414934E+02  0.47428102180E+02  0.00000000000E+00 0. -1.
</event>
<event>
 4    1  0.8284550E+003  0.2472406E+02  0.7546771E-02  0.1471914E+00
          2   -1    0    0  502    0  0.00000000000E+00  0.00000000000E+00  0.28435139265E+03  0.28435139265E+03  0.00000000000E+00 0. -1.
          1   -1    0    0  501    0 -0.00000000000E+00 -0.00000000000E+00 -0.11844017549E+03  0.11844017549E+03  0.00000000000E+00 0.  1.
          2    1    1    2  501    0  0.23898786127E+01 -0.24608282052E+02  0.28251532068E+03  0.28359510836E+03  0.00000000000E+00 0. -1.
          1    1    1    2  502    0 -0.23898786127E+01  0.24608282052E+02 -0.11660410353E+03  0.11919645978E+03  0.00000000000E+00 0.  1.
</event>
<event>
 4    1  0.8284550E+003  0.3008454E+02  0.7546771E-02  0.1418863E+00
          2   -1    0    0  502    0  0.00000000000E+00  0.00000000000E+00  0.11340871058E+04  0.11340871058E+04  0.00000000000E+00 0.  1.
          1   -1    0    0  501    0 -0.00000000000E+00 -0.00000000000E+00 -0.37659412158E+01  0.37659412158E+01  0.00000000000E+00 0. -1.
          2    1    1    2  501    0 -0.84526940795E+01  0.28872682307E+02  0.10702194586E+04  0.10706422229E+04  0.00000000000E+00 0.  1.
          1    1    1    2  502    0  0.84526940795E+01 -0.28872682307E+02  0.60101706008E+02  0.67210824172E+02  0.00000000000E+00 0. -1.
</event>
<event>
 4    1  0.8284550E+003  0.2068468E+02  0.7546771E-02  0.1523815E+00
          2   -1    0    0  502    0  0.00000000000E+00  0.00000000000E+00  0.77903494235E+03  0.77903494235E+03  0.00000000000E+00 0.  1.
          1   -1    0    0  501    0 -0.00000000000E+00 -0.00000000000E+00 -0.19964337847E+02  0.19964337847E+02  0.00000000000E+00 0. -1.
          2    1    1    2  501    0  0.13036543554E+02  0.16059403809E+02  0.77350156598E+03  0.77377808737E+03  0.00000000000E+00 0.  1.
          1    1    1    2  502    0 -0.13036543554E+02 -0.16059403809E+02 -0.14430961477E+02  0.25221192828E+02  0.00000000000E+00 0. -1.
</event>
<event>
 4    1  0.8284550E+003  0.2389536E+02  0.7546771E-02  0.1481551E+00
          2   -1    0    0  502    0  0.00000000000E+00  0.00000000000E+00  0.52033765530E+02  0.52033765530E+02  0.00000000000E+00 0.  1.
          1   -1    0    0  501    0 -0.00000000000E+00 -0.00000000000E+00 -0.13711752351E+04  0.13711752351E+04  0.00000000000E+00 0. -1.
          2    1    1    2  501    0 -0.15749871058E+02  0.17970248451E+02  0.49180585439E+02  0.54678316103E+02  0.00000000000E+00 0.  1.
          1    1    1    2  502    0  0.15749871058E+02 -0.17970248451E+02 -0.13683220551E+04  0.13685306846E+04  0.00000000000E+00 0. -1.
</event>
<event>
 4    1  0.8284550E+003  0.2083273E+02  0.7546771E-02  0.1521667E+00
          2   -1    0    0  502    0  0.00000000000E+00  0.00000000000E+00  0.38883593751E+02  0.38883593751E+02  0.00000000000E+00 0.  1.
          1   -1    0    0  501    0 -0.00000000000E+00 -0.00000000000E+00 -0.17410516407E+03  0.17410516407E+03  0.00000000000E+00 0. -1.
          2    1    1    2  501    0 -0.65466404781E+01 -0.19777360805E+02  0.35413470516E+02  0.41086693661E+02  0.00000000000E+00 0.  1.
          1    1    1    2  502    0  0.65466404781E+01  0.19777360805E+02 -0.17063504084E+03  0.17190206416E+03  0.00000000000E+00 0. -1.
</event>
<event>
 4    1  0.8284550E+003  0.2250021E+02  0.7546771E-02  0.1498871E+00
          2   -1    0    0  502    0  0.00000000000E+00  0.00000000000E+00  0.34611859566E+02  0.34611859566E+02  0.00000000000E+00 0. -1.
          1   -1    0    0  501    0 -0.00000000000E+00 -0.00000000000E+00 -0.14632222541E+02  0.14632222541E+02  0.00000000000E+00 0.  1.
          2    1    1    2  501    0  0.21636242659E+02 -0.61751051985E+01  0.95135259868E+01  0.24428796477E+02  0.00000000000E+00 0. -1.
          1    1    1    2  502    0 -0.21636242659E+02  0.61751051985E+01  0.10466111038E+02  0.24815285630E+02  0.00000000000E+00 0.  1.
</event>
<event>
 4    1  0.8284550E+003  0.2794626E+02  0.7546771E-02  0.1438327E+00
          2   -1    0    0  502    0  0.00000000000E+00  0.00000000000E+00  0.19841988501E+04  0.19841988501E+04  0.00000000000E+00 0. -1.
          1   -1    0    0  501    0 -0.00000000000E+00 -0.00000000000E+00 -0.41812766876E+00  0.41812766876E+00  0.00000000000E+00 0. -1.
          2    1    1    2  501    0  0.13122808183E+02 -0.24673575698E+02  0.12321957041E+04  0.12325125747E+04  0.00000000000E+00 0. -1.
          1    1    1    2  502    0 -0.13122808183E+02  0.24673575698E+02  0.75158501831E+03  0.75210440311E+03  0.00000000000E+00 0. -1.
</event>
<event>
 4    1  0.8284550E+003  0.2308839E+03  0.7546771E-02  0.1035166E+00
          2   -1    0    0  502    0  0.00000000000E+00  0.00000000000E+00  0.95423812706E+03  0.95423812706E+03  0.00000000000E+00 0.  1.
          1   -1    0    0  501    0 -0.00000000000E+00 -0.00000000000E+00 -0.67313258393E+02  0.67313258393E+02  0.00000000000E+00 0.  1.
          2    1    1    2  501    0  0.82815523062E+02  0.21552019176E+03  0.65411777062E+03  0.69366953354E+03  0.00000000000E+00 0.  1.
          1    1    1    2  502    0 -0.82815523062E+02 -0.21552019176E+03  0.23280709804E+03  0.32788185191E+03  0.00000000000E+00 0.  1.
</event>
<event>
 4    1  0.8284550E+003  0.2388685E+02  0.7546771E-02  0.1481652E+00
          2   -1    0    0  502    0  0.00000000000E+00  0.00000000000E+00  0.18571079574E+02  0.18571079574E+02  0.00000000000E+00 0. -1.
          1   -1    0    0  501    0 -0.00000000000E+00 -0.00000000000E+00 -0.12130326550E+04  0.12130326550E+04  0.00000000000E+00 0. -1.
          2    1    1    2  501    0  0.21653394247E+02 -0.10085234552E+02  0.10722419984E+02  0.26183042770E+02  0.00000000000E+00 0. -1.
          1    1    1    2  502    0 -0.21653394247E+02  0.10085234552E+02 -0.12051839954E+04  0.12054206918E+04  0.00000000000E+00 0. -1.
</event>
<event>
 4    1  0.8284550E+003  0.2122107E+02  0.7546771E-02  0.1516132E+00
          2   -1    0    0  502    0  0.00000000000E+00  0.00000000000E+00  0.10903096324E+02  0.10903096324E+02  0.00000000000E+00 0. -1.
          1   -1    0    0  501    0 -0.00000000000E+00 -0.00000000000E+00 -0.74619975509E+02  0.74619975509E+02  0.00000000000E+00 0.  1.
          2    1    1    2  501    0  0.89370835749E+01 -0.19247398388E+02 -0.32853893593E+01  0.21473881595E+02  0.00000000000E+00 0. -1.
          1    1    1    2  502    0 -0.89370835749E+01  0.19247398388E+02 -0.60431489826E+02  0.64049190238E+02  0.00000000000E+00 0.  1.
</event>
<event>
 4    1  0.8284550E+003  0.2994657E+02  0.7546771E-02  0.1420061E+00
          2   -1    0    0  502    0  0.00000000000E+00  0.00000000000E+00  0.62309871222E+03  0.62309871222E+03  0.00000000000E+00 0. -1.
          1   -1    0    0  501    0 -0.00000000000E+00 -0.00000000000E+00 -0.15271361072E+01  0.15271361072E+01  0.00000000000E+00 0. -1.
          2    1    1    2  501    0 -0.23650979265E+02  0.18369200364E+02  0.23586451159E+03  0.23775799497E+03  0.00000000000E+00 0. -1.
          1    1    1    2  502    0  0.23650979265E+02 -0.18369200364E+02  0.38570706452E+03  0.38686785336E+03  0.00000000000E+00 0. -1.
</event>
<event>
 4    1  0.8284550E+003  0.2448358E+02  0.7546771E-02  0.1474664E+00
          2   -1    0    0  502    0  0.00000000000E+00  0.00000000000E+00  0.92965622423E+02  0.92965622423E+02  0.00000000000E+00 0. -1.
          1   -1    0    0  501    0 -0.00000000000E+00 -0.00000000000E+00 -0.73228454529E+01  0.73228454529E+01  0.00000000000E+00 0. -1.
          2    1    1    2  501    0 -0.20383280128E+02 -0.13563469007E+02  0.60152941481E+02  0.64944762445E+02  0.00000000000E+00 0. -1.
          1    1    1    2  502    0  0.20383280128E+02  0.13563469007E+02  0.25489835489E+02  0.35343705430E+02  0.00000000000E+00 0. -1.
</event>
<event>
 4    1  0.8284550E+003  0.2824511E+02  0.7546771E-02  0.1435486E+00
          2   -1    0    0  502    0  0.00000000000E+00  0.00000000000E+00  0.20855605636E+03  0.20855605636E+03  0.00000000000E+00 0. -1.
          1   -1    0    0  501    0 -0.00000000000E+00 -0.00000000000E+00 -0.39877430857E+02  0.39877430857E+02  0.00000000000E+00 0.  1.
          2    1    1    2  501    0 -0.27923714698E+02  0.42488420550E+01  0.20244807275E+03  0.20440892510E+03  0.00000000000E+00 0. -1.
          1    1    1    2  502    0  0.27923714698E+02 -0.42488420550E+01 -0.33769447251E+02  0.44024562111E+02  0.00000000000E+00 0.  1.
</event>
<event>
 4    1  0.8284550E+003  0.2001912E+02  0.7546771E-02  0.1533743E+00
          2   -1    0    0  502    0  0.00000000000E+00  0.00000000000E+00  0.29533887275E+03  0.29533887275E+03  0.00000000000E+00 0. -1.
          1   -1    0    0  501    0 -0.00000000000E+00 -0.00000000000E+00 -0.15602705895E+01  0.15602705895E+01  0.00000000000E+00 0.  1.
          2    1    1    2  501    0  0.18930405418E+02 -0.65119186591E+01  0.20047521967E+03  0.20147227858E+03  0.00000000000E+00 0. -1.
          1    1    1    2  502    0 -0.18930405418E+02  0.65119186591E+01  0.93303382486E+02  0.95426864757E+02  0.00000000000E+00 0.  1.
</event>
<event>
 4    1  0.8284550E+003  0.1445654E+03  0.7546771E-02  0.1103321E+00
          2   -1    0    0  502    0  0.00000000000E+00  0.00000000000E+00  0.71327331216E+03  0.71327331216E+03  0.00000000000E+00 0.  1.
          1   -1    0    0  501    0 -0.00000000000E+00 -0.00000000000E+00 -0.88862279266E+02  0.88862279266E+02  0.00000000000E+00 0.  1.
          2    1    1    2  501    0  0.56617117344E+02  0.13301756021E+03  0.64056032890E+03  0.65667092540E+03  0.00000000000E+00 0.  1.
          1    1    1    2  502    0 -0.56617117344E+02 -0.13301756021E+03 -0.16149296006E+02  0.14546466603E+03  0.00000000000E+00 0.  1.
</event>
<event>
 4    1  0.8284550E+003  0.3260131E+02  0.7546771E-02  0.1398259E+00
          2   -1    0    0  502    0  0.00000000000E+00  0.00000000000E+00  0.45513800222E+02  0.45513800222E+02  0.00000000000E+00 0. -1.
          1   -1    0    0  501    0 -0.00000000000E+00 -0.00000000000E+00 -0.77290766599E+02  0.77290766599E+02  0.00000000000E+00 0.  1.
          2    1    1    2  501    0  0.21320878831E+02  0.24663041169E+02  0.35405991000E+02  0.48129301600E+02  0.00000000000E+00 0. -1.
          1    1    1    2  502    0 -0.21320878831E+02 -0.24663041169E+02 -0.67182957378E+02  0.74675265221E+02  0.00000000000E+00 0.  1.
</event>
<event>
 4    1  0.9359492E+003  0.2016756E+02  0.7546771E-02  0.1531490E+00
          2   -1    0    0  502    0  0.00000000000E+00  0.00000000000E+00  0.63642342814E+03  0.63642342814E+03  0.00000000000E+00 0. -1.
          1   -1    0    0  501    0 -0.00000000000E+00 -0.00000000000E+00 -0.39782672518E+02  0.39782672518E+02  0.00000000000E+00 0. -1.
          2    1    1    2  501    0  0.93732026536E+01 -0.17857025755E+02  0.63369670977E+03  0.63401754729E+03  0.00000000000E+00 0. -1.
          1    1    1    2  502    0 -0.93732026536E+01  0.17857025755E+02 -0.37055954153E+02  0.42188553364E+02  0.00000000000E+00 0. -1.
</event>
<event>
 4    1  0.8284550E+003  0.5041841E+02  0.7546771E-02  0.1296369E+00
          2   -1    0    0  502    0  0.00000000000E+00  0.00000000000E+00  0.57578403967E+02  0.57578403967E+02  0.00000000000E+00 0.  1.
          1   -1    0    0  501    0 -0.00000000000E+00 -0.00000000000E+00 -0.84170057303E+02  0.84170057303E+02  0.00000000000E+00 0.  1.
          2    1    1    2  501    0  0.50296601447E+02  0.35025108564E+01  0.35575606423E+02  0.61706073216E+02  0.00000000000E+00 0.  1.
          1    1    1    2  502    0 -0.50296601447E+02 -0.35025108564E+01 -0.62167259759E+02  0.80042388054E+02  0.00000000000E+00 0.  1.
</event>
<event>
 4    1  0.8284550E+003  0.2201949E+02  0.7546771E-02  0.1505192E+00
          2   -1    0    0  502    0  0.00000000000E+00  0.00000000000E+00  0.12976945977E+03  0.12976945977E+03  0.00000000000E+00 0. -1.
          1   -1    0    0  501    0 -0.00000000000E+00 -0.00000000000E+00 -0.38066936592E+01  0.38066936592E+01  0.00000000000E+00 0. -1.
          2    1    1    2  501    0 -0.16351306899E+02 -0.14747611919E+02  0.53899000806E+02  0.58223359423E+02  0.00000000000E+00 0. -1.
          1    1    1    2  502    0  0.16351306899E+02  0.14747611919E+02  0.72063765307E+02  0.75352794008E+02  0.00000000000E+00 0. -1.
</event>
<event>
 4    1  0.8284550E+003  0.2111568E+02  0.7546771E-02  0.1517620E+00
          2   -1    0    0  502    0  0.00000000000E+00  0.00000000000E+00  0.10115998532E+04  0.10115998532E+04  0.00000000000E+00 0.  1.
          1   -1    0    0  501    0 -0.00000000000E+00 -0.00000000000E+00 -0.16458441758E+01  0.16458441758E+01  0.00000000000E+00 0. -1.
          2    1    1    2  501    0  0.15166003798E+02  0.14692316532E+02  0.93848715418E+03  0.93872467230E+03  0.00000000000E+00 0.  1.
          1    1    1    2  502    0 -0.15166003798E+02 -0.14692316532E+02  0.71466854884E+02  0.74521025109E+02  0.00000000000E+00 0. -1.
</event>
<event>
 4    1  0.8284550E+003  0.2630364E+02  0.7546771E-02  0.1454731E+00
          2   -1    0    0  502    0  0.00000000000E+00  0.00000000000E+00  0.41899345300E+02  0.41899345300E+02  0.00000000000E+00 0.  1.
          1   -1    0    0  501    0 -0.00000000000E+00 -0.00000000000E+00 -0.47272025182E+03  0.47272025182E+03  0.00000000000E+00 0.  1.
          2    1    1    2  501    0 -0.15593139413E+02  0.21183382329E+02  0.37365256172E+02  0.45695120663E+02  0.00000000000E+00 0.  1.
          1    1    1    2  502    0  0.15593139413E+02 -0.21183382329E+02 -0.46818616269E+03  0.46892447646E+03  0.00000000000E+00 0.  1.
</event>
<event>
 4    1  0.8284550E+003  0.2229933E+02  0.7546771E-02  0.1501489E+00
          2   -1    0    0  502    0  0.00000000000E+00  0.00000000000E+00  0.33176137025E+03  0.33176137025E+03  0.00000000000E+00 0. -1.
          1   -1    0    0  501    0 -0.00000000000E+00 -0.00000000000E+00 -0.22828745801E+01  0.22828745801E+01  0.00000000000E+00 0.  1.
          2    1    1    2  501    0  0.18932895400E+02  0.11781584586E+02  0.26262016577E+03  0.26356519446E+03  0.00000000000E+00 0. -1.
          1    1    1    2  502    0 -0.18932895400E+02 -0.11781584586E+02  0.66858329902E+02  0.70479050369E+02  0.00000000000E+00 0.  1.
</event>
<event>
 4    1  0.8284550E+003  0.2409688E+02  0.7546771E-02  0.1479166E+00
          2   -1    0    0  502    0  0.00000000000E+00  0.00000000000E+00  0.58860461506E+02  0.58860461506E+02  0.00000000000E+00 0.  1.
          1   -1    0    0  501    0 -0.00000000000E+00 -0.00000000000E+00 -0.20083714958E+02  0.20083714958E+02  0.00000000000E+00 0.  1.
          2    1    1    2  501    0  0.23276510708E+02  0.62340610962E+01  0.47544042489E+02  0.53301927214E+02  0.00000000000E+00 0.  1.
          1    1    1    2  502    0 -0.23276510708E+02 -0.62340610962E+01 -0.87672959405E+01  0.25642249250E+02  0.00000000000E+00 0.  1.
</event>
<event>
 4    1  0.8284550E+003  0.4192274E+02  0.7546771E-02  0.1337573E+00
          2   -1    0    0  502    0  0.00000000000E+00  0.00000000000E+00  0.69548959911E+02  0.69548959911E+02  0.00000000000E+00 0. -1.
          1   -1    0    0  501    0 -0.00000000000E+00 -0.00000000000E+00 -0.17059981873E+03  0.17059981873E+03  0.00000000000E+00 0.  1.
          2    1    1    2  501    0  0.99967879412E+01 -0.40713395574E+02  0.60299679359E+02  0.73440912843E+02  0.00000000000E+00 0. -1.
          1    1    1    2  502    0 -0.99967879412E+01  0.40713395574E+02 -0.16135053818E+03  0.16670786580E+03  0.00000000000E+00 0.  1.
</event>
<event>
 4    1  0.8284550E+003  0.2568950E+02  0.7546771E-02  0.1461236E+00
          2   -1    0    0  502    0  0.00000000000E+00  0.00000000000E+00  0.93348401823E+02  0.93348401823E+02  0.00000000000E+00 0. -1.
          1   -1    0    0  501    0 -0.00000000000E+00 -0.00000000000E+00 -0.11140067550E+02  0.11140067550E+02  0.00000000000E+00 0.  1.
          2    1    1    2  501    0 -0.23763819495E+02  0.97586593462E+01  0.72683882700E+02  0.77090189736E+02  0.00000000000E+00 0. -1.
          1    1    1    2  502    0  0.23763819495E+02 -0.97586593462E+01  0.95244515728E+01  0.27398279636E+02  0.00000000000E+00 0.  1.
</event>
<event>
 4    1  0.8284550E+003  0.2651116E+02  0.7546771E-02  0.1452581E+00
          2   -1    0    0  502    0  0.00000000000E+00  0.00000000000E+00  0.35636687380E+02  0.35636687380E+02  0.00000000000E+00 0. -1.
          1   -1    0    0  501    0 -0.00000000000E+00 -0.00000000000E+00 -0.59480572445E+03  0.59480572445E+03  0.00000000000E+00 0. -1.
          2    1    1    2  501    0  0.19831969490E+02 -0.17593588249E+02  0.30366622805E+02  0.40310955606E+02  0.00000000000E+00 0. -1.
          1    1    1    2  502    0 -0.19831969490E+02  0.17593588249E+02 -0.58953565988E+03  0.59013145623E+03  0.00000000000E+00 0. -1.
</event>
<event>
 4    1  0.8284550E+003  0.2059412E+02  0.7546771E-02  0.1525139E+00
          2   -1    0    0  502    0  0.00000000000E+00  0.00000000000E+00  0.10337892442E+02  0.10337892442E+02  0.00000000000E+00 0. -1.
          1   -1    0    0  501    0 -0.00000000000E+00 -0.00000000000E+00 -0.80184325863E+03  0.80184325863E+03  0.00000000000E+00 0. -1.
          2    1    1    2  501    0  0.12046897835E+02  0.16702997294E+02 -0.18712384921E+00  0.20594972235E+02  0.00000000000E+00 0. -1.
          1    1    1    2  502    0 -0.12046897835E+02 -0.16702997294E+02 -0.79131824234E+03  0.79158617884E+03  0.00000000000E+00 0. -1.
</event>
<event>
 4    1  0.8284550E+003  0.2469480E+02  0.7546771E-02  0.1472247E+00
          2   -1    0    0  502    0  0.00000000000E+00  0.00000000000E+00  0.16860643241E+03  0.16860643241E+03  0.00000000000E+00 0.  1.
          1   -1    0    0  501    0 -0.00000000000E+00 -0.00000000000E+00 -0.22277828506E+02  0.22277828506E+02  0.00000000000E+00 0. -1.
          2    1    1    2  501    0 -0.21070530146E+02 -0.12878900208E+02  0.16051578296E+03  0.16240427916E+03  0.00000000000E+00 0.  1.
          1    1    1    2  502    0  0.21070530146E+02  0.12878900208E+02 -0.14187179055E+02  0.28479981754E+02  0.00000000000E+00 0. -1.
</event>
<event>
 4    1  0.8284550E+003  0.3664264E+02  0.7546771E-02  0.1369369E+00
          2   -1    0    0  502    0  0.00000000000E+00  0.00000000000E+00  0.54354691738E+03  0.54354691738E+03  0.00000000000E+00 0. -1.
          1   -1    0    0  501    0 -0.00000000000E+00 -0.00000000000E+00 -0.85570568523E+01  0.85570568523E+01  0.00000000000E+00 0. -1.
          2    1    1    2  501    0  0.34989619943E+02  0.10881626597E+02  0.50031709001E+03  0.50165712778E+03  0.00000000000E+00 0. -1.
          1    1    1    2  502    0 -0.34989619943E+02 -0.10881626597E+02  0.34672770520E+02  0.50446846450E+02  0.00000000000E+00 0. -1.
</event>
<event>
 4    1  0.8284550E+003  0.3122851E+02  0.7546771E-02  0.1409213E+00
          2   -1    0    0  502    0  0.00000000000E+00  0.00000000000E+00  0.14688968028E+04  0.14688968028E+04  0.00000000000E+00 0. -1.
          1   -1    0    0  501    0 -0.00000000000E+00 -0.00000000000E+00 -0.13078101854E+01  0.13078101854E+01  0.00000000000E+00 0. -1.
          2    1    1    2  501    0  0.23977544057E+02 -0.20007427694E+02  0.12495972642E+04  0.12499874170E+04  0.00000000000E+00 0. -1.
          1    1    1    2  502    0 -0.23977544057E+02  0.20007427694E+02  0.21799172834E+03  0.22021719599E+03  0.00000000000E+00 0. -1.
</event>
<event>
 4    1  0.8284550E+003  0.7754718E+02  0.7546771E-02  0.1209659E+00
          2   -1    0    0  502    0  0.00000000000E+00  0.00000000000E+00  0.54496986804E+03  0.54496986804E+03  0.00000000000E+00 0. -1.
          1   -1    0    0  501    0 -0.00000000000E+00 -0.00000000000E+00 -0.16221941924E+03  0.16221941924E+03  0.00000000000E+00 0.  1.
          2    1    1    2  501    0  0.39659622222E+02 -0.66638417797E+02  0.53273177701E+03  0.53834627388E+03  0.00000000000E+00 0. -1.
          1    1    1    2  502    0 -0.39659622222E+02  0.66638417797E+02 -0.14998132822E+03  0.16884301340E+03  0.00000000000E+00 0.  1.
</event>
<event>
 4    1  0.8284550E+003  0.5832295E+02  0.7546771E-02  0.1265640E+00
          2   -1    0    0  502    0  0.00000000000E+00  0.00000000000E+00  0.82215972963E+01  0.82215972963E+01  0.00000000000E+00 0.  1.
          1   -1    0    0  501    0 -0.00000000000E+00 -0.00000000000E+00 -0.84836735886E+03  0.84836735886E+03  0.00000000000E+00 0.  1.
          2    1    1    2  501    0  0.34450434667E+02  0.47060964155E+02 -0.11351585722E+03  0.12762216358E+03  0.00000000000E+00 0.  1.
          1    1    1    2  502    0 -0.34450434667E+02 -0.47060964155E+02 -0.72662990434E+03  0.72896679258E+03  0.00000000000E+00 0.  1.
</event>
<event>
 4    1  0.8284550E+003  0.2251016E+02  0.7546771E-02  0.1498742E+00
          2   -1    0    0  502    0  0.00000000000E+00  0.00000000000E+00  0.95483743750E+00  0.95483743750E+00  0.00000000000E+00 0. -1.
          1   -1    0    0  501    0 -0.00000000000E+00 -0.00000000000E+00 -0.11904653782E+04  0.11904653782E+04  0.00000000000E+00 0.  1.
          2    1    1    2  501    0  0.20195181635E+02 -0.99429381669E+01 -0.15126927513E+03  0.15293495670E+03  0.00000000000E+00 0. -1.
          1    1    1    2  502    0 -0.20195181635E+02  0.99429381669E+01 -0.10382412656E+04  0.10384852590E+04  0.00000000000E+00 0.  1.
</event>
<event>
 4    1  0.8284550E+003  0.2067544E+02  0.7546771E-02  0.1523950E+00
          2   -1    0    0  502    0  0.00000000000E+00  0.00000000000E+00  0.20175816055E+03  0.20175816055E+03  0.00000000000E+00 0. -1.
          1   -1    0    0  501    0 -0.00000000000E+00 -0.00000000000E+00 -0.13217551422E+03  0.13217551422E+03  0.00000000000E+00 0. -1.
          2    1    1    2  501    0 -0.20420043413E+02 -0.32396932764E+01  0.20041453405E+03  0.20147818553E+03  0.00000000000E+00 0. -1.
          1    1    1    2  502    0  0.20420043413E+02  0.32396932764E+01 -0.13083188772E+03  0.13245548924E+03  0.00000000000E+00 0. -1.
</event>
<event>
 4    1  0.8284550E+003  0.2042548E+02  0.7546771E-02  0.1527628E+00
          2   -1    0    0  502    0  0.00000000000E+00  0.00000000000E+00  0.13275732461E+03  0.13275732461E+03  0.00000000000E+00 0. -1.
          1   -1    0    0  501    0 -0.00000000000E+00 -0.00000000000E+00 -0.22167190820E+02  0.22167190820E+02  0.00000000000E+00 0. -1.
          2    1    1    2  501    0  0.20418500530E+02  0.53384959379E+00  0.12705677079E+03  0.12868808478E+03  0.00000000000E+00 0. -1.
          1    1    1    2  502    0 -0.20418500530E+02 -0.53384959379E+00 -0.16466637002E+02  0.26236430654E+02  0.00000000000E+00 0. -1.
</event>
<event>
 4    1  0.8284550E+003  0.5047148E+02  0.7546771E-02  0.1296141E+00
          2   -1    0    0  502    0  0.00000000000E+00  0.00000000000E+00  0.25985558894E+01  0.25985558894E+01  0.00000000000E+00 0. -1.
          1   -1    0    0  501    0 -0.00000000000E+00 -0.00000000000E+00 -0.12179656915E+04  0.12179656915E+04  0.00000000000E+00 0. -1.
          2    1    1    2  501    0  0.41613239942E+02  0.28560609400E+02 -0.33809943598E+03  0.34184586989E+03  0.00000000000E+00 0. -1.
          1    1    1    2  502    0 -0.41613239942E+02 -0.28560609400E+02 -0.87726769960E+03  0.87871837747E+03  0.00000000000E+00 0. -1.
</event>
<event>
 4    1  0.8284550E+003  0.2072583E+02  0.7546771E-02  0.1523216E+00
          2   -1    0    0  502    0  0.00000000000E+00  0.00000000000E+00  0.88661081070E+03  0.88661081070E+03  0.00000000000E+00 0. -1.
          1   -1    0    0  501    0 -0.00000000000E+00 -0.00000000000E+00 -0.79462087578E+00  0.79462087578E+00  0.00000000000E+00 0. -1.
          2    1    1    2  501    0 -0.19179818424E+02 -0.78545798012E+01  0.72009967517E+03  0.72039787759E+03  0.00000000000E+00 0. -1.
          1    1    1    2  502    0  0.19179818424E+02  0.78545798012E+01  0.16571651466E+03  0.16700755399E+03  0.00000000000E+00 0. -1.
</event>
<event>
 4    1  0.8284550E+003  0.2069432E+02  0.7546771E-02  0.1523674E+00
          2   -1    0    0  502    0  0.00000000000E+00  0.00000000000E+00  0.14904418129E+04  0.14904418129E+04  0.00000000000E+00 0. -1.
          1   -1    0    0  501    0 -0.00000000000E+00 -0.00000000000E+00 -0.43339460324E+02  0.43339460324E+02  0.00000000000E+00 0.  1.
          2    1    1    2  501    0  0.82825742713E+01 -0.18964545043E+02  0.14878953991E+04  0.14880393051E+04  0.00000000000E+00 0. -1.
          1    1    1    2  502    0 -0.82825742713E+01  0.18964545043E+02 -0.40793046486E+02  0.45741968113E+02  0.00000000000E+00 0.  1.
</event>
<event>
 4    1  0.8284550E+003  0.2503965E+02  0.7546771E-02  0.1468360E+00
          2   -1    0    0  502    0  0.00000000000E+00  0.00000000000E+00  0.63106113004E+03  0.63106113004E+03  0.00000000000E+00 0.  1.
          1   -1    0    0  501    0 -0.00000000000E+00 -0.00000000000E+00 -0.11253717771E+02  0.11253717771E+02  0.00000000000E+00 0.  1.
          2    1    1    2  501    0 -0.12652762720E+00 -0.25039331505E+02  0.61655684205E+03  0.61706508864E+03  0.00000000000E+00 0.  1.
          1    1    1    2  502    0  0.12652762720E+00  0.25039331505E+02  0.32505702130E+01  0.25249759171E+02  0.00000000000E+00 0.  1.
</event>
<event>
 4    1  0.8284550E+003  0.2371999E+02  0.7546771E-02  0.1483650E+00
          2   -1    0    0  502    0  0.00000000000E+00  0.00000000000E+00  0.65618031532E+02  0.65618031532E+02  0.00000000000E+00 0. -1.
          1   -1    0    0  501    0 -0.00000000000E+00 -0.00000000000E+00 -0.45827792354E+02  0.45827792354E+02  0.00000000000E+00 0. -1.
          2    1    1    2  501    0  0.66475015018E+01  0.22769470709E+02  0.60135393399E+02  0.64644439914E+02  0.00000000000E+00 0. -1.
          1    1    1    2  502    0 -0.66475015018E+01 -0.22769470709E+02 -0.40345154221E+02  0.46801383972E+02  0.00000000000E+00 0. -1.
</event>
<event>
 4    1  0.1035110E+004  0.2022460E+02  0.7546771E-02  0.1530630E+00
          2   -1    0    0  502    0  0.00000000000E+00  0.00000000000E+00  0.48576443846E+03  0.48576443846E+03  0.00000000000E+00 0. -1.
          1   -1    0    0  501    0 -0.00000000000E+00 -0.00000000000E+00 -0.10450787931E+03  0.10450787931E+03  0.00000000000E+00 0. -1.
          2    1    1    2  501    0  0.20167747125E+02 -0.15154367189E+01  0.48457304518E+03  0.48499491821E+03  0.00000000000E+00 0. -1.
          1    1    1    2  502    0 -0.20167747125E+02  0.15154367189E+01 -0.10331648603E+03  0.10527739956E+03  0.00000000000E+00 0. -1.
</event>
<event>
 4    1  0.8284550E+003  0.2101774E+02  0.7546771E-02  0.1519012E+00
          2   -1    0    0  502    0  0.00000000000E+00  0.00000000000E+00  0.27683196891E+00  0.27683196891E+00  0.00000000000E+00 0.  1.
          1   -1    0    0  501    0 -0.00000000000E+00 -0.00000000000E+00 -0.17088591551E+04  0.17088591551E+04  0.00000000000E+00 0.  1.
          2    1    1    2  501    0 -0.20853642563E+02  0.26212333233E+01 -0.63440031851E+03  0.63474838275E+03  0.00000000000E+00 0.  1.
          1    1    1    2  502    0  0.20853642563E+02 -0.26212333233E+01 -0.10741820047E+04  0.10743876044E+04  0.00000000000E+00 0.  1.
</event>
<event>
 4    1  0.8284550E+003  0.6398797E+02  0.7546771E-02  0.1246853E+00
          2   -1    0    0  502    0  0.00000000000E+00  0.00000000000E+00  0.10119749141E+04  0.10119749141E+04  0.00000000000E+00 0. -1.
          1   -1    0    0  501    0 -0.00000000000E+00 -0.00000000000E+00 -0.65336024303E+01  0.65336024303E+01  0.00000000000E+00 0. -1.
          2    1    1    2  501    0  0.63295699713E+02 -0.93869734078E+01  0.81695084641E+03  0.81945295552E+03  0.00000000000E+00 0. -1.
          1    1    1    2  502    0 -0.63295699713E+02  0.93869734078E+01  0.18849046523E+03  0.19905556097E+03  0.00000000000E+00 0. -1.
</event>
<event>
 4    1  0.8284550E+003  0.2932791E+02  0.7546771E-02  0.1425528E+00
          2   -1    0    0  502    0  0.00000000000E+00  0.00000000000E+00  0.42220290073E+03  0.42220290073E+03  0.00000000000E+00 0.  1.
          1   -1    0    0  501    0 -0.00000000000E+00 -0.00000000000E+00 -0.91960268486E+01  0.91960268486E+01  0.00000000000E+00 0. -1.
          2    1    1    2  501    0  0.25402486918E+02 -0.14657418069E+02  0.39681660456E+03  0.39789891166E+03  0.00000000000E+00 0.  1.
          1    1    1    2  502    0 -0.25402486918E+02  0.14657418069E+02  0.16190269329E+02  0.33500015926E+02  0.00000000000E+00 0. -1.
</event>
<event>
 4    1  0.8284550E+003  0.4674375E+02  0.7546771E-02  0.1312943E+00
          2   -1    0    0  502    0  0.00000000000E+00  0.00000000000E+00  0.87335518283E+03  0.87335518283E+03  0.00000000000E+00 0.  1.
          1   -1    0    0  501    0 -0.00000000000E+00 -0.00000000000E+00 -0.25820388479E+01  0.25820388479E+01  0.00000000000E+00 0.  1.
          2    1    1    2  501    0 -0.11871617816E+02 -0.45211089145E+02  0.51258322732E+03  0.51471015418E+03  0.00000000000E+00 0.  1.
          1    1    1    2  502    0  0.11871617816E+02  0.45211089145E+02  0.35818991667E+03  0.36122706750E+03  0.00000000000E+00 0.  1.
</event>
<event>
 4    1  0.8284550E+003  0.2211317E+02  0.7546771E-02  0.1503945E+00
          2   -1    0    0  502    0  0.00000000000E+00  0.00000000000E+00  0.11333991204E+01  0.11333991204E+01  0.00000000000E+00 0. -1.
          1   -1    0    0  501    0 -0.00000000000E+00 -0.00000000000E+00 -0.44823220037E+03  0.44823220037E+03  0.00000000000E+00 0. -1.
          2    1    1    2  501    0  0.84714127844E+01 -0.20426141155E+02 -0.18005926025E+03  0.18141204282E+03  0.00000000000E+00 0. -1.
          1    1    1    2  502    0 -0.84714127844E+01  0.20426141155E+02 -0.26703954100E+03  0.26795355667E+03  0.00000000000E+00 0. -1.
</event>
<event>
 4    1  0.8284550E+003  0.2821519E+02  0.7546771E-02  0.1435769E+00
          2   -1    0    0  502    0  0.00000000000E+00  0.00000000000E+00  0.86721901035E+03  0.86721901035E+03  0.00000000000E+00 0.  1.
          1   -1    0    0  501    0 -0.00000000000E+00 -0.00000000000E+00 -0.13096740092E+02  0.13096740092E+02  0.00000000000E+00 0.  1.
          2    1    1    2  501    0 -0.22343628597E+02  0.17229596429E+02  0.85151282346E+03  0.85198015543E+03  0.00000000000E+00 0.  1.
          1    1    1    2  502    0  0.22343628597E+02 -0.17229596429E+02  0.26094467981E+01  0.28335595011E+02  0.00000000000E+00 0.  1.
</event>
<event>
 4    1  0.8284550E+003  0.2064667E+02  0.7546771E-02  0.1524370E+00
          2   -1    0    0  502    0  0.00000000000E+00  0.00000000000E+00  0.59587293721E+03  0.59587293721E+03  0.00000000000E+00 0. -1.
          1   -1    0    0  501    0 -0.00000000000E+00 -0.00000000000E+00 -0.15414346719E+01  0.15414346719E+01  0.00000000000E+00 0.  1.
          2    1    1    2  501    0 -0.11965278525E+02 -0.16826078673E+02  0.51583284451E+03  0.51624587968E+03  0.00000000000E+00 0. -1.
          1    1    1    2  502    0  0.11965278525E+02  0.16826078673E+02  0.78498658024E+02  0.81168492196E+02  0.00000000000E+00 0.  1.
</event>
<event>
 4    1  0.8284550E+003  0.2506262E+02  0.7546771E-02  0.1468104E+00
          2   -1    0    0  502    0  0.00000000000E+00  0.00000000000E+00  0.22833074918E+04  0.22833074918E+04  0.00000000000E+00 0.  1.
          1   -1    0    0  501    0 -0.00000000000E+00 -0.00000000000E+00 -0.28131313036E+00  0.28131313036E+00  0.00000000000E+00 0.  1.
          2    1    1    2  501    0  0.82797978833E+01 -0.23655437378E+02  0.13112185820E+04  0.13114580834E+04  0.00000000000E+00 0.  1.
          1    1    1    2  502    0 -0.82797978833E+01  0.23655437378E+02  0.97180759666E+03  0.97213072151E+03  0.00000000000E+00 0.  1.
</event>
<event>
 4    1  0.8284550E+003  0.3674627E+02  0.7546771E-02  0.1368685E+00
          2   -1    0    0  502    0  0.00000000000E+00  0.00000000000E+00  0.54602119176E+02  0.54602119176E+02  0.00000000000E+00 0. -1.
          1   -1    0    0  501    0 -0.00000000000E+00 -0.00000000000E+00 -0.83270342913E+03  0.83270342913E+03  0.00000000000E+00 0. -1.
          2    1    1    2  501    0  0.87007882223E+01 -0.35701328761E+02  0.47964674990E+02  0.60422666591E+02  0.00000000000E+00 0. -1.
          1    1    1    2  502    0 -0.87007882223E+01  0.35701328761E+02 -0.82606598494E+03  0.82688288171E+03  0.00000000000E+00 0. -1.
</event>
<event>
 4    1  0.8284550E+003  0.2604341E+02  0.7546771E-02  0.1457461E+00
          2   -1    0    0  502    0  0.00000000000E+00  0.00000000000E+00  0.10916010193E+01  0.10916010193E+01  0.00000000000E+00 0. -1.
          1   -1    0    0  501    0 -0.00000000000E+00 -0.00000000000E+00 -0.93008872505E+03  0.93008872505E+03  0.00000000000E+00 0. -1.
          2    1    1    2  501    0 -0.24110361392E+02  0.98463120178E+01 -0.19624740163E+03  0.19796793183E+03  0.00000000000E+00 0. -1.
          1    1    1    2  502    0  0.24110361392E+02 -0.98463120178E+01 -0.73274972240E+03  0.73321239423E+03  0.00000000000E+00 0. -1.
</event>
<event>
 4    1  0.8284550E+003  0.2064908E+02  0.7546771E-02  0.1524335E+00
          2   -1    0    0  502    0  0.00000000000E+00  0.00000000000E+00  0.11239604947E+04  0.11239604947E+04  0.00000000000E+00 0. -1.
          1   -1    0    0  501    0 -0.00000000000E+00 -0.00000000000E+00 -0.49119487021E+00  0.49119487021E+00  0.00000000000E+00 0. -1.
          2    1    1    2  501    0  0.56100840403E+01 -0.19872379021E+02  0.83000613997E+03  0.83026295647E+03  0.00000000000E+00 0. -1.
          1    1    1    2  502    0 -0.56100840403E+01  0.19872379021E+02  0.29346315988E+03  0.29418873312E+03  0.00000000000E+00 0. -1.
</event>
<event>
 4    1  0.8284550E+003  0.2989702E+02  0.7546771E-02  0.1420494E+00
          2   -1    0    0  502    0  0.00000000000E+00  0.00000000000E+00  0.20357371857E+03  0.20357371857E+03  0.00000000000E+00 0.  1.
          1   -1    0    0  501    0 -0.00000000000E+00 -0.00000000000E+00 -0.74014986132E+02  0.74014986132E+02  0.00000000000E+00 0. -1.
          2    1    1    2  501    0 -0.17697588770E+02 -0.24096208012E+02  0.19939401723E+03  0.20162293023E+03  0.00000000000E+00 0.  1.
          1    1    1    2  502    0  0.17697588770E+02  0.24096208012E+02 -0.69835284792E+02  0.75965774470E+02  0.00000000000E+00 0. -1.
</event>
<event>
 4    1  0.8284550E+003  0.2147947E+02  0.7546771E-02  0.1512528E+00
          2   -1    0    0  502    0  0.00000000000E+00  0.00000000000E+00  0.23486748691E+03  0.23486748691E+03  0.00000000000E+00 0. -1.
          1   -1    0    0  501    0 -0.00000000000E+00 -0.00000000000E+00 -0.32962629749E+01  0.32962629749E+01  0.00000000000E+00 0.  1.
          2    1    1    2  501    0  0.21066829872E+02 -0.41900143369E+01  0.19148088855E+03  0.19268185753E+03  0.00000000000E+00 0. -1.
          1    1    1    2  502    0 -0.21066829872E+02  0.41900143369E+01  0.40090335388E+02  0.45481892359E+02  0.00000000000E+00 0.  1.
</event>
<event>
 4    1  0.8284550E+003  0.2783514E+02  0.7546771E-02  0.1439395E+00
          2   -1    0    0  502    0  0.00000000000E+00  0.00000000000E+00  0.11154792199E+02  0.11154792199E+02  0.00000000000E+00 0. -1.
          1   -1    0    0  501    0 -0.00000000000E+00 -0.00000000000E+00 -0.97997365348E+02  0.97997365348E+02  0.00000000000E+00 0. -1.
          2    1    1    2  501    0  0.21201752763E+02  0.18035545024E+02 -0.13969378787E+02  0.31143839652E+02  0.00000000000E+00 0. -1.
          1    1    1    2  502    0 -0.21201752763E+02 -0.18035545024E+02 -0.72873194361E+02  0.78008317896E+02  0.00000000000E+00 0. -1.
</event>
<event>
 4    1  0.8284550E+003  0.2068506E+02  0.7546771E-02  0.1523809E+00
          2   -1    0    0  502    0  0.00000000000E+00  0.00000000000E+00  0.78373882993E+01  0.78373882993E+01  0.00000000000E+00 0. -1.
          1   -1    0    0  501    0 -0.00000000000E+00 -0.00000000000E+00 -0.17618145548E+03  0.17618145548E+03  0.00000000000E+00 0. -1.
          2    1    1    2  501    0  0.17079265693E+02 -0.11669206490E+02 -0.77361657453E+01  0.22084382653E+02  0.00000000000E+00 0. -1.
          1    1    1    2  502    0 -0.17079265693E+02  0.11669206490E+02 -0.16060790144E+03  0.16193446113E+03  0.00000000000E+00 0. -1.
</event>
<event>
 4    1  0.8284550E+003  0.2117958E+02  0.7546771E-02  0.1516716E+00
          2   -1    0    0  502    0  0.00000000000E+00  0.00000000000E+00  0.14610690412E+02  0.14610690412E+02  0.00000000000E+00 0. -1.
          1   -1    0    0  501    0 -0.00000000000E+00 -0.00000000000E+00 -0.27758400130E+03  0.27758400130E+03  0.00000000000E+00 0.  1.
          2    1    1    2  501    0  0.92405977061E+00 -0.21159408751E+02  0.62945571714E+01  0.22095155920E+02  0.00000000000E+00 0. -1.
          1    1    1    2  502    0 -0.92405977061E+00  0.21159408751E+02 -0.26926786806E+03  0.27009953579E+03  0.00000000000E+00 0.  1.
</event>
<event>
 4    1  0.8284550E+003  0.3586474E+02  0.7546771E-02  0.1374584E+00
          2   -1    0    0  502    0  0.00000000000E+00  0.00000000000E+00  0.61788090889E+03  0.61788090889E+03  0.00000000000E+00 0. -1.
          1   -1    0    0  501    0 -0.00000000000E+00 -0.00000000000E+00 -0.21703967364E+01  0.21703967364E+01  0.00000000000E+00 0.  1.
          2    1    1    2  501    0  0.35617358780E+02  0.42051875467E+01  0.37050720669E+03  0.37223899588E+03  0.00000000000E+00 0. -1.
          1    1    1    2  502    0 -0.35617358780E+02 -0.42051875467E+01  0.24520330546E+03  0.24781230974E+03  0.00000000000E+00 0.  1.
</event>
<event>
 4    1  0.8284550E+003  0.6474480E+02  0.7546771E-02  0.1244511E+00
          2   -1    0    0  502    0  0.00000000000E+00  0.00000000000E+00  0.29904863914E+02  0.29904863914E+02  0.00000000000E+00 0. -1.
          1   -1    0    0  501    0 -0.00000000000E+00 -0.00000000000E+00 -0.17679005495E+03  0.17679005495E+03  0.00000000000E+00 0. -1.
          2    1    1    2  501    0  0.42410208283E+02  0.48920942195E+02 -0.12047602788E+03  0.13677118719E+03  0.00000000000E+00 0. -1.
          1    1    1    2  502    0 -0.42410208283E+02 -0.48920942195E+02 -0.26409163149E+02  0.69923731666E+02  0.00000000000E+00 0. -1.
</event>
<event>
 4    1  0.8284550E+003  0.2907249E+02  0.7546771E-02  0.1427831E+00
          2   -1    0    0  502    0  0.00000000000E+00  0.00000000000E+00  0.13858399528E+04  0.13858399528E+04  0.00000000000E+00 0.  1.
          1   -1    0    0  501    0 -0.00000000000E+00 -0.00000000000E+00 -0.83369294776E+00  0.83369294776E+00  0.00000000000E+00 0.  1.
          2    1    1    2  501    0 -0.89598251457E+00 -0.29058681163E+02  0.10517344868E+04  0.10521362271E+04  0.00000000000E+00 0.  1.
          1    1    1    2  502    0  0.89598251457E+00  0.29058681163E+02  0.33327177312E+03  0.33453741868E+03  0.00000000000E+00 0.  1.
</event>
<event>
 4    1  0.8284550E+003  0.2244990E+02  0.7546771E-02  0.1499524E+00
          2   -1    0    0  502    0  0.00000000000E+00  0.00000000000E+00  0.12719177757E+04  0.12719177757E+04  0.00000000000E+00 0.  1.
          1   -1    0    0  501    0 -0.00000000000E+00 -0.00000000000E+00 -0.64049391073E+00  0.64049391073E+00  0.00000000000E+00 0.  1.
          2    1    1    2  501    0 -0.19232272362E+02  0.11580921757E+02  0.10285563572E+04  0.10288013306E+04  0.00000000000E+00 0.  1.
          1    1    1    2  502    0  0.19232272362E+02 -0.11580921757E+02  0.24272092459E+03  0.24375693894E+03  0.00000000000E+00 0.  1.
</event>
<event>
 4    1  0.8284550E+003  0.2009861E+02  0.7546771E-02  0.1532534E+00
          2   -1    0    0  502    0  0.00000000000E+00  0.00000000000E+00  0.80582630037E+01  0.80582630037E+01  0.00000000000E+00 0.  1.
          1   -1    0    0  501    0 -0.00000000000E+00 -0.00000000000E+00 -0.50228993444E+02  0.50228993444E+02  0.00000000000E+00 0.  1.
          2    1    1    2  501    0 -0.16265433972E+02 -0.11806329406E+02 -0.22384810948E+02  0.30083774987E+02  0.00000000000E+00 0.  1.
          1    1    1    2  502    0  0.16265433972E+02  0.11806329406E+02 -0.19785919493E+02  0.28203481461E+02  0.00000000000E+00 0.  1.
</event>
<event>
 4    1  0.8284550E+003  0.4088522E+02  0.7546771E-02  0.1343375E+00
          2   -1    0    0  502    0  0.00000000000E+00  0.00000000000E+00  0.31629853996E+01  0.31629853996E+01  0.00000000000E+00 0. -1.
          1   -1    0    0  501    0 -0.00000000000E+00 -0.00000000000E+00 -0.14154036658E+04  0.14154036658E+04  0.00000000000E+00 0.  1.
          2    1    1    2  501    0  0.20298673649E+02  0.35490352449E+02 -0.14465798427E+03  0.15032476071E+03  0.00000000000E+00 0. -1.
          1    1    1    2  502    0 -0.20298673649E+02 -0.35490352449E+02 -0.12675826961E+04  0.12682418905E+04  0.00000000000E+00 0.  1.
</event>
<event>
 4    1  0.8284550E+003  0.3554906E+02  0.7546771E-02  0.1376744E+00
          2   -1    0    0  502    0  0.00000000000E+00  0.00000000000E+00  0.28865019874E+03  0.28865019874E+03  0.00000000000E+00 0.  1.
          1   -1    0    0  501    0 -0.00000000000E+00 -0.00000000000E+00 -0.15919201799E+02  0.15919201799E+02  0.00000000000E+00 0.  1.
          2    1    1    2  501    0 -0.22101226783E+02  0.27843692268E+02  0.26602953165E+03  0.26839420101E+03  0.00000000000E+00 0.  1.
          1    1    1    2  502    0  0.22101226783E+02 -0.27843692268E+02  0.67014652963E+01  0.36175199537E+02  0.00000000000E+00 0.  1.
</event>
<event>
 4    1  0.8284550E+003  0.2325561E+02  0.7546771E-02  0.1489313E+00
          2   -1    0    0  502    0  0.00000000000E+00  0.00000000000E+00  0.76090934768E+03  0.76090934768E+03  0.00000000000E+00 0.  1.
          1   -1    0    0  501    0 -0.00000000000E+00 -0.00000000000E+00 -0.27877644122E+01  0.27877644122E+01  0.00000000000E+00 0.  1.
          2    1    1    2  501    0  0.49233836225E+01  0.22728474078E+02  0.70865678361E+03  0.70903826427E+03  0.00000000000E+00 0.  1.
          1    1    1    2  502    0 -0.49233836225E+01 -0.22728474078E+02  0.49464799654E+02  0.54658847820E+02  0.00000000000E+00 0.  1.
</event>
<event>
 4    1  0.8284550E+003  0.2315006E+02  0.7546771E-02  0.1490622E+00
          2   -1    0    0  502    0  0.00000000000E+00  0.00000000000E+00  0.32295753747E+02  0.32295753747E+02  0.00000000000E+00 0. -1.
          1   -1    0    0  501    0 -0.00000000000E+00 -0.00000000000E+00 -0.17372265231E+03  0.17372265231E+03  0.00000000000E+00 0. -1.
          2    1    1    2  501    0 -0.22519144104E+02  0.53678339077E+01  0.27252483241E+02  0.35757842983E+02  0.00000000000E+00 0. -1.
          1    1    1    2  502    0  0.22519144104E+02 -0.53678339077E+01 -0.16867938180E+03  0.17026056307E+03  0.00000000000E+00 0. -1.
</event>
<event>
 4    1  0.8284550E+003  0.2483851E+02  0.7546771E-02  0.1470618E+00
          2   -1    0    0  502    0  0.00000000000E+00  0.00000000000E+00  0.16863140124E+04  0.16863140124E+04  0.00000000000E+00 0.  1.
          1   -1    0    0  501    0 -0.00000000000E+00 -0.00000000000E+00 -0.84478332366E+02  0.84478332366E+02  0.00000000000E+00 0.  1.
          2    1    1    2  501    0 -0.13956658045E+02  0.20546617644E+02  0.16843946982E+04  0.16845778257E+04  0.00000000000E+00 0.  1.
          1    1    1    2  502    0  0.13956658045E+02 -0.20546617644E+02 -0.82559018173E+02  0.86214518975E+02  0.00000000000E+00 0.  1.
</event>
<event>
 4    1  0.8284550E+003  0.4874504E+02  0.7546771E-02  0.1303707E+00
          2   -1    0    0  502    0  0.00000000000E+00  0.00000000000E+00  0.12810786553E+04  0.12810786553E+04  0.00000000000E+00 0.  1.
          1   -1    0    0  501    0 -0.00000000000E+00 -0.00000000000E+00 -0.72466999244E+01  0.72466999244E+01  0.00000000000E+00 0.  1.
          2    1    1    2  501    0  0.43066659069E+02 -0.22832915696E+02  0.11925622317E+04  0.11935580235E+04  0.00000000000E+00 0.  1.
          1    1    1    2  502    0 -0.43066659069E+02  0.22832915696E+02  0.81269723707E+02  0.94767331681E+02  0.00000000000E+00 0.  1.
</event>
<event>
 4    1  0.8284550E+003  0.4099308E+02  0.7546771E-02  0.1342763E+00
          2   -1    0    0  502    0  0.00000000000E+00  0.00000000000E+00  0.93462494811E+03  0.93462494811E+03  0.00000000000E+00 0.  1.
          1   -1    0    0  501    0 -0.00000000000E+00 -0.00000000000E+00 -0.56115560261E+01  0.56115560261E+01  0.00000000000E+00 0. -1.
          2    1    1    2  501    0  0.40794128305E+01  0.40789595438E+02  0.85206042949E+03  0.85304595903E+03  0.00000000000E+00 0.  1.
          1    1    1    2  502    0 -0.40794128305E+01 -0.40789595438E+02  0.76952962598E+02  0.87190545116E+02  0.00000000000E+00 0. -1.
</event>
<event>
 4    1  0.8284550E+003  0.7956925E+02  0.7546771E-02  0.1204851E+00
          2   -1    0    0  502    0  0.00000000000E+00  0.00000000000E+00  0.32942480332E+03  0.32942480332E+03  0.00000000000E+00 0. -1.
          1   -1    0    0  501    0 -0.00000000000E+00 -0.00000000000E+00 -0.29813462655E+03  0.29813462655E+03  0.00000000000E+00 0.  1.
          2    1    1    2  501    0  0.98744996004E+01 -0.78954162284E+02  0.31914247730E+03  0.32891212550E+03  0.00000000000E+00 0. -1.
          1    1    1    2  502    0 -0.98744996004E+01  0.78954162284E+02 -0.28785230053E+03  0.29864730437E+03  0.00000000000E+00 0.  1.
</event>
<event>
 4    1  0.8284550E+003  0.2109081E+02  0.7546771E-02  0.1517972E+00
          2   -1    0    0  502    0  0.00000000000E+00  0.00000000000E+00  0.30525796088E+03  0.30525796088E+03  0.00000000000E+00 0.  1.
          1   -1    0    0  501    0 -0.00000000000E+00 -0.00000000000E+00 -0.14205068403E+02  0.14205068403E+02  0.00000000000E+00 0.  1.
          2    1    1    2  501    0 -0.33343979739E+01 -0.20825559456E+02  0.29684344462E+03  0.29759175518E+03  0.00000000000E+00 0.  1.
          1    1    1    2  502    0  0.33343979739E+01  0.20825559456E+02 -0.57905521492E+01  0.21871274098E+02  0.00000000000E+00 0.  1.
</event>
<event>
 4    1  0.8284550E+003  0.2399927E+02  0.7546771E-02  0.1480318E+00
          2   -1    0    0  502    0  0.00000000000E+00  0.00000000000E+00  0.36809919852E+01  0.36809919852E+01  0.00000000000E+00 0. -1.
          1   -1    0    0  501    0 -0.00000000000E+00 -0.00000000000E+00 -0.98806680703E+03  0.98806680703E+03  0.00000000000E+00 0. -1.
          2    1    1    2  501    0 -0.23192753247E+00 -0.23998148164E+02 -0.37273468521E+02  0.44331437618E+02  0.00000000000E+00 0. -1.
          1    1    1    2  502    0  0.23192753247E+00  0.23998148164E+02 -0.94711234653E+03  0.94741636140E+03  0.00000000000E+00 0. -1.
</event>
<event>
 4    1  0.8284550E+003  0.2502352E+02  0.7546771E-02  0.1468540E+00
          2   -1    0    0  502    0  0.00000000000E+00  0.00000000000E+00  0.35683721154E+00  0.35683721154E+00  0.00000000000E+00 0. -1.
          1   -1    0    0  501    0 -0.00000000000E+00 -0.00000000000E+00 -0.19281404038E+04  0.19281404038E+04  0.00000000000E+00 0.  1.
          2    1    1    2  501    0 -0.21477532719E+02 -0.12841024616E+02 -0.67477369311E+03  0.67523752357E+03  0.00000000000E+00 0. -1.
          1    1    1    2  502    0  0.21477532719E+02  0.12841024616E+02 -0.12530098735E+04  0.12532597175E+04  0.00000000000E+00 0.  1.
</event>
<event>
 4    1  0.8284550E+003  0.2422796E+02  0.7546771E-02  0.1477629E+00
          2   -1    0    0  502    0  0.00000000000E+00  0.00000000000E+00  0.44183632892E+01  0.44183632892E+01  0.00000000000E+00 0. -1.
          1   -1    0    0  501    0 -0.00000000000E+00 -0.00000000000E+00 -0.24578619751E+03  0.24578619751E+03  0.00000000000E+00 0.  1.
          2    1    1    2  501    0  0.13510593287E+02 -0.20111135277E+02 -0.35883727115E+02  0.43297064159E+02  0.00000000000E+00 0. -1.
          1    1    1    2  502    0 -0.13510593287E+02  0.20111135277E+02 -0.20548410710E+03  0.20690749664E+03  0.00000000000E+00 0.  1.
</event>
<event>
 4    1  0.8284550E+003  0.3258350E+02  0.7546771E-02  0.1398397E+00
          2   -1    0    0  502    0  0.00000000000E+00  0.00000000000E+00  0.31663179691E+03  0.31663179691E+03  0.00000000000E+00 0. -1.
          1   -1    0    0  501    0 -0.00000000000E+00 -0.00000000000E+00 -0.77041385998E+03  0.77041385998E+03  0.00000000000E+00 0.  1.
          2    1    1    2  501    0  0.30059772510E+02  0.12573576963E+02  0.31544772499E+03  0.31712608212E+03  0.00000000000E+00 0. -1.
          1    1    1    2  502    0 -0.30059772510E+02 -0.12573576963E+02 -0.76922978806E+03  0.76991957476E+03  0.00000000000E+00 0.  1.
</event>
<event>
 4    1  0.8284550E+003  0.6010148E+02  0.7546771E-02  0.1259488E+00
          2   -1    0    0  502    0  0.00000000000E+00  0.00000000000E+00  0.45410668679E+03  0.45410668679E+03  0.00000000000E+00 0.  1.
          1   -1    0    0  501    0 -0.00000000000E+00 -0.00000000000E+00 -0.37948058240E+03  0.37948058240E+03  0.00000000000E+00 0.  1.
          2    1    1    2  501    0  0.40066317093E+02 -0.44798197391E+02  0.44971523648E+03  0.45371354639E+03  0.00000000000E+00 0.  1.
          1    1    1    2  502    0 -0.40066317093E+02  0.44798197391E+02 -0.37508913209E+03  0.37987372280E+03  0.00000000000E+00 0.  1.
</event>
<event>
 4    1  0.9590641E+003  0.2217355E+02  0.7546771E-02  0.1503145E+00
          2   -1    0    0  502    0  0.00000000000E+00  0.00000000000E+00  0.53534506420E+03  0.53534506420E+03  0.00000000000E+00 0.  1.
          1   -1    0    0  501    0 -0.00000000000E+00 -0.00000000000E+00 -0.43053537289E+03  0.43053537289E+03  0.00000000000E+00 0. -1.
          2    1    1    2  501    0  0.20766628146E+02 -0.77726220939E+01  0.53482968943E+03  0.53528913981E+03  0.00000000000E+00 0.  1.
          1    1    1    2  502    0 -0.20766628146E+02  0.77726220939E+01 -0.43001999813E+03  0.43059129727E+03  0.00000000000E+00 0. -1.
</event>
<event>
 4    1  0.8284550E+003  0.3074473E+02  0.7546771E-02  0.1413233E+00
          2   -1    0    0  502    0  0.00000000000E+00  0.00000000000E+00  0.13593295532E+02  0.13593295532E+02  0.00000000000E+00 0.  1.
          1   -1    0    0  501    0 -0.00000000000E+00 -0.00000000000E+00 -0.12823421979E+03  0.12823421979E+03  0.00000000000E+00 0. -1.
          2    1    1    2  501    0  0.27946236978E+02  0.12815857643E+02 -0.93430384908E+01  0.32133016301E+02  0.00000000000E+00 0.  1.
          1    1    1    2  502    0 -0.27946236978E+02 -0.12815857643E+02 -0.10529788577E+03  0.10969449902E+03  0.00000000000E+00 0. -1.
</event>
<event>
 4    1  0.8284550E+003  0.2064697E+02  0.7546771E-02  0.1524365E+00
          2   -1    0    0  502    0  0.00000000000E+00  0.00000000000E+00  0.73653903659E+03  0.73653903659E+03  0.00000000000E+00 0.  1.
          1   -1    0    0  501    0 -0.00000000000E+00 -0.00000000000E+00 -0.20665341800E+03  0.20665341800E+03  0.00000000000E+00 0. -1.
          2    1    1    2  501    0 -0.12313464612E+02 -0.16573348353E+02  0.73587816217E+03  0.73616775727E+03  0.00000000000E+00 0.  1.
          1    1    1    2  502    0  0.12313464612E+02  0.16573348353E+02 -0.20599254358E+03  0.20702469732E+03  0.00000000000E+00 0. -1.
</event>
<event>
 4    1  0.8284550E+003  0.4003868E+02  0.7546771E-02  0.1348259E+00
          2   -1    0    0  502    0  0.00000000000E+00  0.00000000000E+00  0.57714661690E+02  0.57714661690E+02  0.00000000000E+00 0.  1.
          1   -1    0    0  501    0 -0.00000000000E+00 -0.00000000000E+00 -0.12419816473E+03  0.12419816473E+03  0.00000000000E+00 0. -1.
          2    1    1    2  501    0 -0.41236051000E+01  0.39825768094E+02  0.46900889396E+02  0.61666760491E+02  0.00000000000E+00 0.  1.
          1    1    1    2  502    0  0.41236051000E+01 -0.39825768094E+02 -0.11338439243E+03  0.12024606593E+03  0.00000000000E+00 0. -1.
</event>
<event>
 4    1  0.8284550E+003  0.2381639E+02  0.7546771E-02  0.1482493E+00
          2   -1    0    0  502    0  0.00000000000E+00  0.00000000000E+00  0.23132487806E+04  0.23132487806E+04  0.00000000000E+00 0.  1.
          1   -1    0    0  501    0 -0.00000000000E+00 -0.00000000000E+00 -0.31398730154E+00  0.31398730154E+00  0.00000000000E+00 0.  1.
          2    1    1    2  501    0 -0.16822275041E+02  0.16859168819E+02  0.16978859470E+04  0.16980529760E+04  0.00000000000E+00 0.  1.
          1    1    1    2  502    0  0.16822275041E+02 -0.16859168819E+02  0.61504884634E+03  0.61550979188E+03  0.00000000000E+00 0.  1.
</event>
<event>
 4    1  0.8284550E+003  0.2086561E+02  0.7546771E-02  0.1521192E+00
          2   -1    0    0  502    0  0.00000000000E+00  0.00000000000E+00  0.21829036965E+01  0.21829036965E+01  0.00000000000E+00 0.  1.
          1   -1    0    0  501    0 -0.00000000000E+00 -0.00000000000E+00 -0.99585591843E+03  0.99585591843E+03  0.00000000000E+00 0. -1.
          2    1    1    2  501    0 -0.54895988993E+01 -0.20130520195E+02 -0.50577239004E+02  0.54712253149E+02  0.00000000000E+00 0.  1.
          1    1    1    2  502    0  0.54895988993E+01  0.20130520195E+02 -0.94309577573E+03  0.94332656898E+03  0.00000000000E+00 0. -1.
</event>
<event>
 4    1  0.8284550E+003  0.2481748E+02  0.7546771E-02  0.1470856E+00
          2   -1    0    0  502    0  0.00000000000E+00  0.00000000000E+00  0.84184407850E+01  0.84184407850E+01  0.00000000000E+00 0. -1.
          1   -1    0    0  501    0 -0.00000000000E+00 -0.00000000000E+00 -0.48145858666E+03  0.48145858666E+03  0.00000000000E+00 0.  1.
          2    1    1    2  501    0  0.13021346608E+02 -0.21127038021E+02 -0.10958217162E+02  0.27129130587E+02  0.00000000000E+00 0. -1.
          1    1    1    2  502    0 -0.13021346608E+02  0.21127038021E+02 -0.46208192871E+03  0.46274789686E+03  0.00000000000E+00 0.  1.
</event>
<event>
 4    1  0.8284550E+003  0.2527087E+02  0.7546771E-02  0.1465796E+00
          2   -1    0    0  502    0  0.00000000000E+00  0.00000000000E+00  0.44893538114E+02  0.44893538114E+02  0.00000000000E+00 0.  1.
          1   -1    0    0  501    0 -0.00000000000E+00 -0.00000000000E+00 -0.87876870216E+02  0.87876870216E+02  0.00000000000E+00 0.  1.
          2    1    1    2  501    0  0.14251696580E+02 -0.20868784440E+02  0.39283404475E+02  0.46709772924E+02  0.00000000000E+00 0.  1.
          1    1    1    2  502    0 -0.14251696580E+02  0.20868784440E+02 -0.82266736578E+02  0.86060635406E+02  0.00000000000E+00 0.  1.
</event>
<event>
 4    1  0.8284550E+003  0.3016011E+02  0.7546771E-02  0.1418210E+00
          2   -1    0    0  502    0  0.00000000000E+00  0.00000000000E+00  0.75006727532E+03  0.75006727532E+03  0.00000000000E+00 0.  1.
          1   -1    0    0  501    0 -0.00000000000E+00 -0.00000000000E+00 -0.33321444273E+01  0.33321444273E+01  0.00000000000E+00 0.  1.
          2    1    1    2  501    0  0.27929971964E+02  0.11381947368E+02  0.67379591661E+03  0.67447058446E+03  0.00000000000E+00 0.  1.
          1    1    1    2  502    0 -0.27929971964E+02 -0.11381947368E+02  0.72939214280E+02  0.78928835286E+02  0.00000000000E+00 0.  1.
</event>
<event>
 4    1  0.8284550E+003  0.4354089E+02  0.7546771E-02  0.1328899E+00
          2   -1    0    0  502    0  0.00000000000E+00  0.00000000000E+00  0.16342969879E+02  0.16342969879E+02  0.00000000000E+00 0.  1.
          1   -1    0    0  501    0 -0.00000000000E+00 -0.00000000000E+00 -0.14680635461E+03  0.14680635461E+03  0.00000000000E+00 0.  1.
          2    1    1    2  501    0  0.20538713674E+02 -0.38392323539E+02 -0.27864339541E+02  0.51693623245E+02  0.00000000000E+00 0.  1.
          1    1    1    2  502    0 -0.20538713674E+02  0.38392323539E+02 -0.10259904519E+03  0.11145570125E+03  0.00000000000E+00 0.  1.
</event>
<event>
 4    1  0.8284550E+003  0.2429511E+02  0.7546771E-02  0.1476846E+00
          2   -1    0    0  502    0  0.00000000000E+00  0.00000000000E+00  0.25383042420E+03  0.25383042420E+03  0.00000000000E+00 0.  1.
          1   -1    0    0  501    0 -0.00000000000E+00 -0.00000000000E+00 -0.37625006271E+01  0.37625006271E+01  0.00000000000E+00 0.  1.
          2    1    1    2  501    0  0.21435936473E+02 -0.11434727590E+02  0.20463379376E+03  0.20607096331E+03  0.00000000000E+00 0.  1.
          1    1    1    2  502    0 -0.21435936473E+02  0.11434727590E+02  0.45434129808E+02  0.51521961521E+02  0.00000000000E+00 0.  1.
</event>
<event>
 4    1  0.8284550E+003  0.4941339E+02  0.7546771E-02  0.1300736E+00
          2   -1    0    0  502    0  0.00000000000E+00  0.00000000000E+00  0.10956933302E+03  0.10956933302E+03  0.00000000000E+00 0.  1.
          1   -1    0    0  501    0 -0.00000000000E+00 -0.00000000000E+00 -0.11580471217E+04  0.11580471217E+04  0.00000000000E+00 0.  1.
          2    1    1    2  501    0 -0.41115459456E+02  0.27408069696E+02  0.10344150615E+03  0.11463781437E+03  0.00000000000E+00 0.  1.
          1    1    1    2  502    0  0.41115459456E+02 -0.27408069696E+02 -0.11519192948E+04  0.11529786403E+04  0.00000000000E+00 0.  1.
</event>
<event>
 4    1  0.8284550E+003  0.2128375E+02  0.7546771E-02  0.1515252E+00
          2   -1    0    0  502    0  0.00000000000E+00  0.00000000000E+00  0.66161622174E+03  0.66161622174E+03  0.00000000000E+00 0.  1.
          1   -1    0    0  501    0 -0.00000000000E+00 -0.00000000000E+00 -0.14596761511E+02  0.14596761511E+02  0.00000000000E+00 0. -1.
          2    1    1    2  501    0  0.14417045616E+02  0.15657163938E+02  0.65359127914E+03  0.65393773263E+03  0.00000000000E+00 0.  1.
          1    1    1    2  502    0 -0.14417045616E+02 -0.15657163938E+02 -0.65718189045E+01  0.22275250629E+02  0.00000000000E+00 0. -1.
</event>
<event>
 4    1  0.8284550E+003  0.2569955E+02  0.7546771E-02  0.1461128E+00
          2   -1    0    0  502    0  0.00000000000E+00  0.00000000000E+00  0.44714780529E+03  0.44714780529E+03  0.00000000000E+00 0. -1.
          1   -1    0    0  501    0 -0.00000000000E+00 -0.00000000000E+00 -0.45064990596E+01  0.45064990596E+01  0.00000000000E+00 0. -1.
          2    1    1    2  501    0  0.88050983727E+01  0.24144092196E+02  0.40647639119E+03  0.40728801055E+03  0.00000000000E+00 0. -1.
          1    1    1    2  502    0 -0.88050983727E+01 -0.24144092196E+02  0.36164915037E+02  0.44366293794E+02  0.00000000000E+00 0. -1.
</event>
<event>
 4    1  0.8284550E+003  0.2753602E+02  0.7546771E-02  0.1442297E+00
          2   -1    0    0  502    0  0.00000000000E+00  0.00000000000E+00  0.10852058934E+04  0.10852058934E+04  0.00000000000E+00 0. -1.
          1   -1    0    0  501    0 -0.00000000000E+00 -0.00000000000E+00 -0.11536198187E+01  0.11536198187E+01  0.00000000000E+00 0. -1.
          2    1    1    2  501    0  0.24998911925E+02 -0.11544982914E+02  0.88312490232E+03  0.88355408738E+03  0.00000000000E+00 0. -1.
          1    1    1    2  502    0 -0.24998911925E+02  0.11544982914E+02  0.20092737131E+03  0.20280542589E+03  0.00000000000E+00 0. -1.
</event>
<event>
 4    1  0.8284550E+003  0.4274263E+02  0.7546771E-02  0.1333123E+00
          2   -1    0    0  502    0  0.00000000000E+00  0.00000000000E+00  0.74553210357E+02  0.74553210357E+02  0.00000000000E+00 0.  1.
          1   -1    0    0  501    0 -0.00000000000E+00 -0.00000000000E+00 -0.10619637880E+03  0.10619637880E+03  0.00000000000E+00 0.  1.
          2    1    1    2  501    0 -0.15386677884E+02  0.39877089262E+02  0.63443217869E+02  0.76498196043E+02  0.00000000000E+00 0.  1.
          1    1    1    2  502    0  0.15386677884E+02 -0.39877089262E+02 -0.95086386306E+02  0.10425139311E+03  0.00000000000E+00 0.  1.
</event>
<event>
 4    1  0.8284550E+003  0.6523373E+02  0.7546771E-02  0.1243017E+00
          2   -1    0    0  502    0  0.00000000000E+00  0.00000000000E+00  0.36481803646E+03  0.36481803646E+03  0.00000000000E+00 0.  1.
          1   -1    0    0  501    0 -0.00000000000E+00 -0.00000000000E+00 -0.47847278483E+02  0.47847278483E+02  0.00000000000E+00 0. -1.
          2    1    1    2  501    0 -0.59192947284E+02  0.27415942435E+02  0.33791328836E+03  0.34415233452E+03  0.00000000000E+00 0.  1.
          1    1    1    2  502    0  0.59192947284E+02 -0.27415942435E+02 -0.20942530379E+02  0.68512980423E+02  0.00000000000E+00 0. -1.
</event>
<event>
 4    1  0.8284550E+003  0.2100654E+02  0.7546771E-02  0.1519171E+00
          2   -1    0    0  502    0  0.00000000000E+00  0.00000000000E+00  0.60078597807E+02  0.60078597807E+02  0.00000000000E+00 0. -1.
          1   -1    0    0  501    0 -0.00000000000E+00 -0.00000000000E+00 -0.33312396090E+02  0.33312396090E+02  0.00000000000E+00 0. -1.
          2    1    1    2  501    0  0.19906373806E+02  0.67090234386E+01  0.54610565430E+02  0.58511439653E+02  0.00000000000E+00 0. -1.
          1    1    1    2  502    0 -0.19906373806E+02 -0.67090234386E+01 -0.27844363714E+02  0.34879554244E+02  0.00000000000E+00 0. -1.
</event>
<event>
 4    1  0.8284550E+003  0.3503490E+02  0.7546771E-02  0.1380318E+00
          2   -1    0    0  502    0  0.00000000000E+00  0.00000000000E+00  0.10440059448E+03  0.10440059448E+03  0.00000000000E+00 0. -1.
          1   -1    0    0  501    0 -0.00000000000E+00 -0.00000000000E+00 -0.75750829200E+02  0.75750829200E+02  0.00000000000E+00 0.  1.
          2    1    1    2  501    0 -0.34485774650E+02 -0.61786499891E+01  0.97115828132E+02  0.10324208659E+03  0.00000000000E+00 0. -1.
          1    1    1    2  502    0  0.34485774650E+02  0.61786499891E+01 -0.68466062855E+02  0.76909337091E+02  0.00000000000E+00 0.  1.
</event>
<event>
 4    1  0.8284550E+003  0.3993762E+02  0.7546771E-02  0.1348852E+00
          2   -1    0    0  502    0  0.00000000000E+00  0.00000000000E+00  0.10446615147E+02  0.10446615147E+02  0.00000000000E+00 0.  1.
          1   -1    0    0  501    0 -0.00000000000E+00 -0.00000000000E+00 -0.15833883277E+03  0.15833883277E+03  0.00000000000E+00 0.  1.
          2    1    1    2  501    0  0.13378398339E+02 -0.37630174962E+02 -0.89897272989E+02  0.98369361595E+02  0.00000000000E+00 0.  1.
          1    1    1    2  502    0 -0.13378398339E+02  0.37630174962E+02 -0.57994944635E+02  0.70416086322E+02  0.00000000000E+00 0.  1.
</event>
<event>
 4    1  0.8284550E+003  0.2066220E+02  0.7546771E-02  0.1524143E+00
          2   -1    0    0  502    0  0.00000000000E+00  0.00000000000E+00  0.12200878475E+04  0.12200878475E+04  0.00000000000E+00 0.  1.
          1   -1    0    0  501    0 -0.00000000000E+00 -0.00000000000E+00 -0.35044335014E+00  0.35044335014E+00  0.00000000000E+00 0.  1.
          2    1    1    2  501    0  0.95737772578E+00  0.20640012072E+02  0.63356944737E+03  0.63390627960E+03  0.00000000000E+00 0.  1.
          1    1    1    2  502    0 -0.95737772578E+00 -0.20640012072E+02  0.58616795680E+03  0.58653201128E+03  0.00000000000E+00 0.  1.
</event>
<event>
 4    1  0.8284550E+003  0.2056842E+02  0.7546771E-02  0.1525517E+00
          2   -1    0    0  502    0  0.00000000000E+00  0.00000000000E+00  0.13593401049E+02  0.13593401049E+02  0.00000000000E+00 0.  1.
          1   -1    0    0  501    0 -0.00000000000E+00 -0.00000000000E+00 -0.10834034431E+03  0.10834034431E+03  0.00000000000E+00 0. -1.
          2    1    1    2  501    0 -0.13701493017E+02 -0.15340433972E+02  0.40969604953E+01  0.20972479840E+02  0.00000000000E+00 0.  1.
          1    1    1    2  502    0  0.13701493017E+02  0.15340433972E+02 -0.98843903760E+02  0.10096126552E+03  0.00000000000E+00 0. -1.
</event>
<event>
 4    1  0.8284550E+003  0.2147764E+02  0.7546771E-02  0.1512553E+00
          2   -1    0    0  502    0  0.00000000000E+00  0.00000000000E+00  0.13500564242E+04  0.13500564242E+04  0.00000000000E+00 0. -1.
          1   -1    0    0  501    0 -0.00000000000E+00 -0.00000000000E+00 -0.14878116096E+01  0.14878116096E+01  0.00000000000E+00 0. -1.
          2    1    1    2  501    0 -0.18554379923E+02  0.10817771470E+02  0.12674052692E+04  0.12675872379E+04  0.00000000000E+00 0. -1.
          1    1    1    2  502    0  0.18554379923E+02 -0.10817771470E+02  0.81163343355E+02  0.83956997913E+02  0.00000000000E+00 0. -1.
</event>
<event>
 4    1  0.9655980E+003  0.2457718E+02  0.7546771E-02  0.1473589E+00
          2   -1    0    0  502    0  0.00000000000E+00  0.00000000000E+00  0.53751293686E+03  0.53751293686E+03  0.00000000000E+00 0.  1.
          1   -1    0    0  501    0 -0.00000000000E+00 -0.00000000000E+00 -0.31528410361E+03  0.31528410361E+03  0.00000000000E+00 0. -1.
          2    1    1    2  501    0  0.24154629408E+02  0.45378067441E+01  0.53675235436E+03  0.53731473805E+03  0.00000000000E+00 0.  1.
          1    1    1    2  502    0 -0.24154629408E+02 -0.45378067441E+01 -0.31452352111E+03  0.31548230243E+03  0.00000000000E+00 0. -1.
</event>
<event>
 4    1  0.8284550E+003  0.2243874E+02  0.7546771E-02  0.1499669E+00
          2   -1    0    0  502    0  0.00000000000E+00  0.00000000000E+00  0.38851522533E+01  0.38851522533E+01  0.00000000000E+00 0. -1.
          1   -1    0    0  501    0 -0.00000000000E+00 -0.00000000000E+00 -0.70499190182E+03  0.70499190182E+03  0.00000000000E+00 0.  1.
          2    1    1    2  501    0  0.22418089954E+02  0.96242868470E+00 -0.30345101598E+02  0.37740193656E+02  0.00000000000E+00 0. -1.
          1    1    1    2  502    0 -0.22418089954E+02 -0.96242868470E+00 -0.67076164797E+03  0.67113686042E+03  0.00000000000E+00 0.  1.
</event>
<event>
 4    1  0.8284550E+003  0.3602252E+02  0.7546771E-02  0.1373514E+00
          2   -1    0    0  502    0  0.00000000000E+00  0.00000000000E+00  0.10870438537E+02  0.10870438537E+02  0.00000000000E+00 0. -1.
          1   -1    0    0  501    0 -0.00000000000E+00 -0.00000000000E+00 -0.25540249984E+03  0.25540249984E+03  0.00000000000E+00 0. -1.
          2    1    1    2  501    0  0.35600703368E+02 -0.54965170547E+01 -0.25102513233E+02  0.43906240453E+02  0.00000000000E+00 0. -1.
          1    1    1    2  502    0 -0.35600703368E+02  0.54965170547E+01 -0.21942954807E+03  0.22236669793E+03  0.00000000000E+00 0. -1.
</event>
<event>
 4    1  0.8284550E+003  0.3195499E+02  0.7546771E-02  0.1403335E+00
          2   -1    0    0  502    0  0.00000000000E+00  0.00000000000E+00  0.10851325077E+04  0.10851325077E+04  0.00000000000E+00 0. -1.
          1   -1    0    0  501    0 -0.00000000000E+00 -0.00000000000E+00 -0.10639369743E+03  0.10639369743E+03  0.00000000000E+00 0. -1.
          2    1    1    2  501    0 -0.17548833418E+02 -0.26705058332E+02  0.10824920092E+04  0.10829635597E+04  0.00000000000E+00 0. -1.
          1    1    1    2  502    0  0.17548833418E+02  0.26705058332E+02 -0.10375319892E+03  0.10856264542E+03  0.00000000000E+00 0. -1.
</event>
<event>
 4    1  0.8284550E+003  0.3816012E+02  0.7546771E-02  0.1359618E+00
          2   -1    0    0  502    0  0.00000000000E+00  0.00000000000E+00  0.56863209571E+03  0.56863209571E+03  0.00000000000E+00 0. -1.
          1   -1    0    0  501    0 -0.00000000000E+00 -0.00000000000E+00 -0.54716090378E+01  0.54716090378E+01  0.00000000000E+00 0.  1.
          2    1    1    2  501    0  0.30114178161E+02  0.23437814803E+02  0.49094529839E+03  0.49242611720E+03  0.00000000000E+00 0. -1.
          1    1    1    2  502    0 -0.30114178161E+02 -0.23437814803E+02  0.72215188282E+02  0.81677587548E+02  0.00000000000E+00 0.  1.
</event>
<event>
 4    1  0.8284550E+003  0.2513704E+02  0.7546771E-02  0.1467276E+00
          2   -1    0    0  502    0  0.00000000000E+00  0.00000000000E+00  0.16616125891E+03  0.16616125891E+03  0.00000000000E+00 0.  1.
          1   -1    0    0  501    0 -0.00000000000E+00 -0.00000000000E+00 -0.49594622135E+03  0.49594622135E+03  0.00000000000E+00 0.  1.
          2    1    1    2  501    0 -0.25110748668E+02  0.11494212014E+01  0.16488960951E+03  0.16679464678E+03  0.00000000000E+00 0.  1.
          1    1    1    2  502    0  0.25110748668E+02 -0.11494212014E+01 -0.49467457196E+03  0.49531283348E+03  0.00000000000E+00 0.  1.
</event>
<event>
 4    1  0.8284550E+003  0.3805354E+02  0.7546771E-02  0.1360286E+00
          2   -1    0    0  502    0  0.00000000000E+00  0.00000000000E+00  0.39714562818E+03  0.39714562818E+03  0.00000000000E+00 0.  1.
          1   -1    0    0  501    0 -0.00000000000E+00 -0.00000000000E+00 -0.27947809749E+02  0.27947809749E+02  0.00000000000E+00 0.  1.
          2    1    1    2  501    0  0.64592791996E+01 -0.37501329910E+02  0.38279635137E+03  0.38468314059E+03  0.00000000000E+00 0.  1.
          1    1    1    2  502    0 -0.64592791996E+01  0.37501329910E+02 -0.13598532939E+02  0.40410297337E+02  0.00000000000E+00 0.  1.
</event>
<event>
 4    1  0.8284550E+003  0.5855460E+02  0.7546771E-02  0.1264824E+00
          2   -1    0    0  502    0  0.00000000000E+00  0.00000000000E+00  0.98654296569E+03  0.98654296569E+03  0.00000000000E+00 0. -1.
          1   -1    0    0  501    0 -0.00000000000E+00 -0.00000000000E+00 -0.88678943460E+01  0.88678943460E+01  0.00000000000E+00 0.  1.
          2    1    1    2  501    0  0.16027444975E+02  0.56318400706E+02  0.87694908981E+03  0.87890178483E+03  0.00000000000E+00 0. -1.
          1    1    1    2  502    0 -0.16027444975E+02 -0.56318400706E+02  0.10072598153E+03  0.11650907521E+03  0.00000000000E+00 0.  1.
</event>
<event>
 4    1  0.8284550E+003  0.2077315E+02  0.7546771E-02  0.1522528E+00
          2   -1    0    0  502    0  0.00000000000E+00  0.00000000000E+00  0.16825607485E+03  0.16825607485E+03  0.00000000000E+00 0.  1.
          1   -1    0    0  501    0 -0.00000000000E+00 -0.00000000000E+00 -0.13349508124E+02  0.13349508124E+02  0.00000000000E+00 0. -1.
          2    1    1    2  501    0 -0.20073584156E+02 -0.53455761324E+01  0.15906886225E+03  0.16041953404E+03  0.00000000000E+00 0.  1.
          1    1    1    2  502    0  0.20073584156E+02  0.53455761324E+01 -0.41622955279E+01  0.21186048926E+02  0.00000000000E+00 0. -1.
</event>
<event>
 4    1  0.8284550E+003  0.2078923E+02  0.7546771E-02  0.1522295E+00
          2   -1    0    0  502    0  0.00000000000E+00  0.00000000000E+00  0.92661886175E+03  0.92661886175E+03  0.00000000000E+00 0.  1.
          1   -1    0    0  501    0 -0.00000000000E+00 -0.00000000000E+00 -0.46656867974E+00  0.46656867974E+00  0.00000000000E+00 0. -1.
          2    1    1    2  501    0 -0.14980259664E+02  0.14414714970E+02  0.47139235991E+03  0.47185055809E+03  0.00000000000E+00 0.  1.
          1    1    1    2  502    0  0.14980259664E+02 -0.14414714970E+02  0.45475993316E+03  0.45523487234E+03  0.00000000000E+00 0. -1.
</event>
<event>
 4    1  0.8284550E+003  0.2250604E+02  0.7546771E-02  0.1498796E+00
          2   -1    0    0  502    0  0.00000000000E+00  0.00000000000E+00  0.37740617890E+03  0.37740617890E+03  0.00000000000E+00 0.  1.
          1   -1    0    0  501    0 -0.00000000000E+00 -0.00000000000E+00 -0.45201472321E+02  0.45201472321E+02  0.00000000000E+00 0.  1.
          2    1    1    2  501    0  0.13939012240E+02  0.17669911170E+02  0.37424554508E+03  0.37492165826E+03  0.00000000000E+00 0.  1.
          1    1    1    2  502    0 -0.13939012240E+02 -0.17669911170E+02 -0.42040838498E+02  0.47685992960E+02  0.00000000000E+00 0.  1.
</event>
<event>
 4    1  0.8284550E+003  0.4611488E+02  0.7546771E-02  0.1315957E+00
          2   -1    0    0  502    0  0.00000000000E+00  0.00000000000E+00  0.35948867092E+04  0.35948867092E+04  0.00000000000E+00 0. -1.
          1   -1    0    0  501    0 -0.00000000000E+00 -0.00000000000E+00 -0.15058860439E+01  0.15058860439E+01  0.00000000000E+00 0.  1.
          2    1    1    2  501    0  0.20523449887E+01 -0.46069184620E+02  0.31978648437E+04  0.31981973267E+04  0.00000000000E+00 0. -1.
          1    1    1    2  502    0 -0.20523449887E+01  0.46069184620E+02  0.39551597947E+03  0.39819526857E+03  0.00000000000E+00 0.  1.
</event>
<event>
 4    1  0.8284550E+003  0.2554250E+02  0.7546771E-02  0.1462825E+00
          2   -1    0    0  502    0  0.00000000000E+00  0.00000000000E+00  0.19877807120E+03  0.19877807120E+03  0.00000000000E+00 0.  1.
          1   -1    0    0  501    0 -0.00000000000E+00 -0.00000000000E+00 -0.58915958356E+02  0.58915958356E+02  0.00000000000E+00 0.  1.
          2    1    1    2  501    0 -0.62479420309E+01  0.24766560462E+02  0.19513767467E+03  0.19680226465E+03  0.00000000000E+00 0.  1.
          1    1    1    2  502    0  0.62479420309E+01 -0.24766560462E+02 -0.55275561831E+02  0.60891764899E+02  0.00000000000E+00 0.  1.
</event>
<event>
 4    1  0.8284550E+003  0.2878291E+02  0.7546771E-02  0.1430476E+00
          2   -1    0    0  502    0  0.00000000000E+00  0.00000000000E+00  0.19008494415E+04  0.19008494415E+04  0.00000000000E+00 0.  1.
          1   -1    0    0  501    0 -0.00000000000E+00 -0.00000000000E+00 -0.45240813723E+01  0.45240813723E+01  0.00000000000E+00 0.  1.
          2    1    1    2  501    0  0.16389244584E+02 -0.23661118833E+02  0.18537982670E+04  0.18540217017E+04  0.00000000000E+00 0.  1.
          1    1    1    2  502    0 -0.16389244584E+02  0.23661118833E+02  0.42527093201E+02  0.51351821181E+02  0.00000000000E+00 0.  1.
</event>
<event>
 4    1  0.8284550E+003  0.2519990E+02  0.7546771E-02  0.1466579E+00
          2   -1    0    0  502    0  0.00000000000E+00  0.00000000000E+00  0.25966810821E+03  0.25966810821E+03  0.00000000000E+00 0. -1.
          1   -1    0    0  501    0 -0.00000000000E+00 -0.00000000000E+00 -0.19652583224E+02  0.19652583224E+02  0.00000000000E+00 0. -1.
          2    1    1    2  501    0 -0.19451448670E+02 -0.16021114947E+02  0.25068986484E+03  0.25195325621E+03  0.00000000000E+00 0. -1.
          1    1    1    2  502    0  0.19451448670E+02  0.16021114947E+02 -0.10674339855E+02  0.27367435226E+02  0.00000000000E+00 0. -1.
</event>
<event>
 4    1  0.8284550E+003  0.2084790E+02  0.7546771E-02  0.1521448E+00
          2   -1    0    0  502    0  0.00000000000E+00  0.00000000000E+00  0.58631976753E+03  0.58631976753E+03  0.00000000000E+00 0. -1.
          1   -1    0    0  501    0 -0.00000000000E+00 -0.00000000000E+00 -0.65469618695E+02  0.65469618695E+02  0.00000000000E+00 0.  1.
          2    1    1    2  501    0 -0.17859860970E+02 -0.10754553957E+02  0.58446950946E+03  0.58484121140E+03  0.00000000000E+00 0. -1.
          1    1    1    2  502    0  0.17859860970E+02  0.10754553957E+02 -0.63619360629E+02  0.66948174819E+02  0.00000000000E+00 0.  1.
</event>
<event>
 4    1  0.8284550E+003  0.2099240E+02  0.7546771E-02  0.1519373E+00
          2   -1    0    0  502    0  0.00000000000E+00  0.00000000000E+00  0.43186670686E+02  0.43186670686E+02  0.00000000000E+00 0. -1.
          1   -1    0    0  501    0 -0.00000000000E+00 -0.00000000000E+00 -0.28646523386E+02  0.28646523386E+02  0.00000000000E+00 0.  1.
          2    1    1    2  501    0 -0.20924558681E+02  0.16863280414E+01  0.36088368639E+02  0.41749864782E+02  0.00000000000E+00 0. -1.
          1    1    1    2  502    0  0.20924558681E+02 -0.16863280414E+01 -0.21548221340E+02  0.30083329290E+02  0.00000000000E+00 0.  1.
</event>
<event>
 4    1  0.8284550E+003  0.2234572E+02  0.7546771E-02  0.1500882E+00
          2   -1    0    0  502    0  0.00000000000E+00  0.00000000000E+00  0.35825602695E+03  0.35825602695E+03  0.00000000000E+00 0.  1.
          1   -1    0    0  501    0 -0.00000000000E+00 -0.00000000000E+00 -0.17794792489E+03  0.17794792489E+03  0.00000000000E+00 0. -1.
          2    1    1    2  501    0 -0.67833100883E+01  0.21291258424E+02  0.35720400449E+03  0.35790226572E+03  0.00000000000E+00 0.  1.
          1    1    1    2  502    0  0.67833100883E+01 -0.21291258424E+02 -0.17689590243E+03  0.17830168613E+03  0.00000000000E+00 0. -1.
</event>
<event>
 4    1  0.8284550E+003  0.2271950E+02  0.7546771E-02  0.1496051E+00
          2   -1    0    0  502    0  0.00000000000E+00  0.00000000000E+00  0.11680859764E+03  0.11680859764E+03  0.00000000000E+00 0.  1.
          1   -1    0    0  501    0 -0.00000000000E+00 -0.00000000000E+00 -0.45127602565E+01  0.45127602565E+01  0.00000000000E+00 0.  1.
          2    1    1    2  501    0 -0.90612865044E+01  0.20834316155E+02  0.64892243150E+02  0.68754482500E+02  0.00000000000E+00 0.  1.
          1    1    1    2  502    0  0.90612865044E+01 -0.20834316155E+02  0.47403594234E+02  0.52566875397E+02  0.00000000000E+00 0.  1.
</event>
<event>
 4    1  0.8284550E+003  0.2596127E+02  0.7546771E-02  0.1458331E+00
          2   -1    0    0  502    0  0.00000000000E+00  0.00000000000E+00  0.15220174299E+02  0.15220174299E+02  0.00000000000E+00 0.  1.
          1   -1    0    0  501    0 -0.00000000000E+00 -0.00000000000E+00 -0.47794969972E+03  0.47794969972E+03  0.00000000000E+00 0.  1.
          2    1    1    2  501    0  0.17042625939E+02  0.19584089759E+02  0.35193945269E+01  0.26198736771E+02  0.00000000000E+00 0.  1.
          1    1    1    2  502    0 -0.17042625939E+02 -0.19584089759E+02 -0.46624891995E+03  0.46697113725E+03  0.00000000000E+00 0.  1.
</event>
<event>
 4    1  0.8284550E+003  0.2977673E+02  0.7546771E-02  0.1421547E+00
          2   -1    0    0  502    0  0.00000000000E+00  0.00000000000E+00  0.39658965118E+03  0.39658965118E+03  0.00000000000E+00 0. -1.
          1   -1    0    0  501    0 -0.00000000000E+00 -0.00000000000E+00 -0.23959198959E+02  0.23959198959E+02  0.00000000000E+00 0.  1.
          2    1    1    2  501    0 -0.13242522442E+02  0.26670011552E+02  0.38653881217E+03  0.38768403014E+03  0.00000000000E+00 0. -1.
          1    1    1    2  502    0  0.13242522442E+02 -0.26670011552E+02 -0.13908359947E+02  0.32864819994E+02  0.00000000000E+00 0.  1.
</event>
<event>
 4    1  0.8284550E+003  0.2568799E+02  0.7546771E-02  0.1461252E+00
          2   -1    0    0  502    0  0.00000000000E+00  0.00000000000E+00  0.11022414709E+02  0.11022414709E+02  0.00000000000E+00 0.  1.
          1   -1    0    0  501    0 -0.00000000000E+00 -0.00000000000E+00 -0.24434602024E+03  0.24434602024E+03  0.00000000000E+00 0.  1.
          2    1    1    2  501    0  0.25264574930E+02  0.46447738006E+01 -0.57165455341E+01  0.26316374425E+02  0.00000000000E+00 0.  1.
          1    1    1    2  502    0 -0.25264574930E+02 -0.46447738006E+01 -0.22760706000E+03  0.22905206053E+03  0.00000000000E+00 0.  1.
</event>
<event>
 4    1  0.8284550E+003  0.2266071E+02  0.7546771E-02  0.1496803E+00
          2   -1    0    0  502    0  0.00000000000E+00  0.00000000000E+00  0.29647305522E+02  0.29647305522E+02  0.00000000000E+00 0. -1.
          1   -1    0    0  501    0 -0.00000000000E+00 -0.00000000000E+00 -0.85392385666E+03  0.85392385666E+03  0.00000000000E+00 0. -1.
          2    1    1    2  501    0 -0.21277587382E+02 -0.77956315902E+01  0.25143877436E+02  0.33848517976E+02  0.00000000000E+00 0. -1.
          1    1    1    2  502    0  0.21277587382E+02  0.77956315902E+01 -0.84942042858E+03  0.84972264421E+03  0.00000000000E+00 0. -1.
</event>
<event>
 4    1  0.8284550E+003  0.2639865E+02  0.7546771E-02  0.1453744E+00
          2   -1    0    0  502    0  0.00000000000E+00  0.00000000000E+00  0.29638088309E+03  0.29638088309E+03  0.00000000000E+00 0. -1.
          1   -1    0    0  501    0 -0.00000000000E+00 -0.00000000000E+00 -0.26914261436E+02  0.26914261436E+02  0.00000000000E+00 0.  1.
          2    1    1    2  501    0 -0.73066208442E+01 -0.25367338599E+02  0.28915847494E+03  0.29036100325E+03  0.00000000000E+00 0. -1.
          1    1    1    2  502    0  0.73066208442E+01  0.25367338599E+02 -0.19691853289E+02  0.32934141278E+02  0.00000000000E+00 0.  1.
</event>
<event>
 4    1  0.8284550E+003  0.2388091E+02  0.7546771E-02  0.1481723E+00
          2   -1    0    0  502    0  0.00000000000E+00  0.00000000000E+00  0.55046975031E+03  0.55046975031E+03  0.00000000000E+00 0. -1.
          1   -1    0    0  501    0 -0.00000000000E+00 -0.00000000000E+00 -0.22001921299E+01  0.22001921299E+01  0.00000000000E+00 0. -1.
          2    1    1    2  501    0  0.47229318620E+01  0.23409219398E+02  0.47514315594E+03  0.47574290985E+03  0.00000000000E+00 0. -1.
          1    1    1    2  502    0 -0.47229318620E+01 -0.23409219398E+02  0.73126402245E+02  0.76927032592E+02  0.00000000000E+00 0. -1.
</event>
<event>
 4    1  0.8284550E+003  0.4992036E+02  0.7546771E-02  0.1298518E+00
          2   -1    0    0  502    0  0.00000000000E+00  0.00000000000E+00  0.13397084174E+04  0.13397084174E+04  0.00000000000E+00 0. -1.
          1   -1    0    0  501    0 -0.00000000000E+00 -0.00000000000E+00 -0.28727731364E+01  0.28727731364E+01  0.00000000000E+00 0. -1.
          2    1    1    2  501    0 -0.15248178749E+01  0.49897062667E+02  0.10669711962E+04  0.10681383691E+04  0.00000000000E+00 0. -1.
          1    1    1    2  502    0  0.15248178749E+01 -0.49897062667E+02  0.26986444803E+03  0.27444282145E+03  0.00000000000E+00 0. -1.
</event>
<event>
 4    1  0.8284550E+003  0.5472985E+02  0.7546771E-02  0.1278872E+00
          2   -1    0    0  502    0  0.00000000000E+00  0.00000000000E+00  0.42439407098E+03  0.42439407098E+03  0.00000000000E+00 0.  1.
          1   -1    0    0  501    0 -0.00000000000E+00 -0.00000000000E+00 -0.12532094153E+02  0.12532094153E+02  0.00000000000E+00 0.  1.
          2    1    1    2  501    0 -0.36482561916E+01 -0.54608119675E+02  0.35031660732E+03  0.35456604726E+03  0.00000000000E+00 0.  1.
          1    1    1    2  502    0  0.36482561916E+01  0.54608119675E+02  0.61545369504E+02  0.82360117867E+02  0.00000000000E+00 0.  1.
</event>
<event>
 4    1  0.8284550E+003  0.2346512E+02  0.7546771E-02  0.1486739E+00
          2   -1    0    0  502    0  0.00000000000E+00  0.00000000000E+00  0.67403559111E+01  0.67403559111E+01  0.00000000000E+00 0.  1.
          1   -1    0    0  501    0 -0.00000000000E+00 -0.00000000000E+00 -0.82177762196E+02  0.82177762196E+02  0.00000000000E+00 0.  1.
          2    1    1    2  501    0  0.17055803919E+02  0.16115540305E+02 -0.41148383512E+02  0.47368771910E+02  0.00000000000E+00 0.  1.
          1    1    1    2  502    0 -0.17055803919E+02 -0.16115540305E+02 -0.34289022774E+02  0.41549346197E+02  0.00000000000E+00 0.  1.
</event>
<event>
 4    1  0.8284550E+003  0.2813499E+02  0.7546771E-02  0.1436528E+00
          2   -1    0    0  502    0  0.00000000000E+00  0.00000000000E+00  0.10415272960E+02  0.10415272960E+02  0.00000000000E+00 0.  1.
          1   -1    0    0  501    0 -0.00000000000E+00 -0.00000000000E+00 -0.44600677469E+03  0.44600677469E+03  0.00000000000E+00 0.  1.
          2    1    1    2  501    0 -0.22098174803E+02  0.17414033589E+02 -0.99363059593E+01  0.29838030625E+02  0.00000000000E+00 0.  1.
          1    1    1    2  502    0  0.22098174803E+02 -0.17414033589E+02 -0.42565519577E+03  0.42658401703E+03  0.00000000000E+00 0.  1.
</event>
<event>
 4    1  0.8284550E+003  0.4445629E+02  0.7546771E-02  0.1324181E+00
          2   -1    0    0  502    0  0.00000000000E+00  0.00000000000E+00  0.81653726147E+02  0.81653726147E+02  0.00000000000E+00 0. -1.
          1   -1    0    0  501    0 -0.00000000000E+00 -0.00000000000E+00 -0.73538801811E+02  0.73538801811E+02  0.00000000000E+00 0.  1.
          2    1    1    2  501    0 -0.42702712481E+02 -0.12362860663E+02  0.67613733762E+02  0.80919583354E+02  0.00000000000E+00 0. -1.
          1    1    1    2  502    0  0.42702712481E+02  0.12362860663E+02 -0.59498809426E+02  0.74272944604E+02  0.00000000000E+00 0.  1.
</event>
<event>
 4    1  0.8284550E+003  0.2287556E+02  0.7546771E-02  0.1494067E+00
          2   -1    0    0  502    0  0.00000000000E+00  0.00000000000E+00  0.10162737015E+04  0.10162737015E+04  0.00000000000E+00 0.  1.
          1   -1    0    0  501    0 -0.00000000000E+00 -0.00000000000E+00 -0.54557479408E+01  0.54557479408E+01  0.00000000000E+00 0.  1.
          2    1    1    2  501    0  0.22651566055E+02  0.31934072665E+01  0.99156871958E+03  0.99183255489E+03  0.00000000000E+00 0.  1.
          1    1    1    2  502    0 -0.22651566055E+02 -0.31934072665E+01  0.19249233973E+02  0.29896894542E+02  0.00000000000E+00 0.  1.
</event>
<event>
 4    1  0.8284550E+003  0.3296614E+02  0.7546771E-02  0.1395455E+00
          2   -1    0    0  502    0  0.00000000000E+00  0.00000000000E+00  0.82158357170E+03  0.82158357170E+03  0.00000000000E+00 0.  1.
          1   -1    0    0  501    0 -0.00000000000E+00 -0.00000000000E+00 -0.12607045500E+02  0.12607045500E+02  0.00000000000E+00 0. -1.
          2    1    1    2  501    0  0.31361538966E+02  0.10159739898E+02  0.79909589211E+03  0.79977560055E+03  0.00000000000E+00 0.  1.
          1    1    1    2  502    0 -0.31361538966E+02 -0.10159739898E+02  0.98806340872E+01  0.34415016651E+02  0.00000000000E+00 0. -1.
</event>
<event>
 4    1  0.8284550E+003  0.2555159E+02  0.7546771E-02  0.1462726E+00
          2   -1    0    0  502    0  0.00000000000E+00  0.00000000000E+00  0.35598575907E+03  0.35598575907E+03  0.00000000000E+00 0.  1.
          1   -1    0    0  501    0 -0.00000000000E+00 -0.00000000000E+00 -0.12062955849E+02  0.12062955849E+02  0.00000000000E+00 0.  1.
          2    1    1    2  501    0  0.21990784203E+02 -0.13011115722E+02  0.34142005255E+03  0.34237484721E+03  0.00000000000E+00 0.  1.
          1    1    1    2  502    0 -0.21990784203E+02  0.13011115722E+02  0.25027506756E+01  0.25673867709E+02  0.00000000000E+00 0.  1.
</event>
<event>
 4    1  0.8284550E+003  0.3860939E+02  0.7546771E-02  0.1356833E+00
          2   -1    0    0  502    0  0.00000000000E+00  0.00000000000E+00  0.38734773850E+03  0.38734773850E+03  0.00000000000E+00 0.  1.
          1   -1    0    0  501    0 -0.00000000000E+00 -0.00000000000E+00 -0.18976324765E+02  0.18976324765E+02  0.00000000000E+00 0. -1.
          2    1    1    2  501    0  0.25655753131E+00 -0.38608539957E+02  0.36558081665E+03  0.36761395333E+03  0.00000000000E+00 0.  1.
          1    1    1    2  502    0 -0.25655753131E+00  0.38608539957E+02  0.27905970867E+01  0.38710109938E+02  0.00000000000E+00 0. -1.
</event>
<event>
 4    1  0.8284550E+003  0.2423733E+02  0.7546771E-02  0.1477519E+00
          2   -1    0    0  502    0  0.00000000000E+00  0.00000000000E+00  0.19371127105E+04  0.19371127105E+04  0.00000000000E+00 0. -1.
          1   -1    0    0  501    0 -0.00000000000E+00 -0.00000000000E+00 -0.68959310095E+00  0.68959310095E+00  0.00000000000E+00 0. -1.
          2    1    1    2  501    0  0.24236868349E+02 -0.14958245895E+00  0.16934221923E+04  0.16935956334E+04  0.00000000000E+00 0. -1.
          1    1    1    2  502    0 -0.24236868349E+02  0.14958245895E+00  0.24300092510E+03  0.24420667018E+03  0.00000000000E+00 0. -1.
</event>
<event>
 4    1  0.8284550E+003  0.3623307E+02  0.7546771E-02  0.1372096E+00
          2   -1    0    0  502    0  0.00000000000E+00  0.00000000000E+00  0.36690520754E+01  0.36690520754E+01  0.00000000000E+00 0. -1.
          1   -1    0    0  501    0 -0.00000000000E+00 -0.00000000000E+00 -0.17864401160E+04  0.17864401160E+04  0.00000000000E+00 0.  1.
          2    1    1    2  501    0  0.33568622504E+02 -0.13637559287E+02 -0.90971494392E+02  0.97921643327E+02  0.00000000000E+00 0. -1.
          1    1    1    2  502    0 -0.33568622504E+02  0.13637559287E+02 -0.16917995695E+04  0.16921875247E+04  0.00000000000E+00 0.  1.
</event>
<event>
 4    1  0.8284550E+003  0.2465408E+02  0.7546771E-02  0.1472711E+00
          2   -1    0    0  502    0  0.00000000000E+00  0.00000000000E+00  0.11834615804E+04  0.11834615804E+04  0.00000000000E+00 0.  1.
          1   -1    0    0  501    0 -0.00000000000E+00 -0.00000000000E+00 -0.59081066236E+00  0.59081066236E+00  0.00000000000E+00 0. -1.
          2    1    1    2  501    0  0.24647344713E+02 -0.57627592383E+00  0.80545844170E+03  0.80583566873E+03  0.00000000000E+00 0.  1.
          1    1    1    2  502    0 -0.24647344713E+02  0.57627592383E+00  0.37741232804E+03  0.37821672233E+03  0.00000000000E+00 0. -1.
</event>
<event>
 4    1  0.8284550E+003  0.2920609E+02  0.7546771E-02  0.1426623E+00
          2   -1    0    0  502    0  0.00000000000E+00  0.00000000000E+00  0.96913472192E+01  0.96913472192E+01  0.00000000000E+00 0. -1.
          1   -1    0    0  501    0 -0.00000000000E+00 -0.00000000000E+00 -0.13794516703E+04  0.13794516703E+04  0.00000000000E+00 0. -1.
          2    1    1    2  501    0 -0.56711568131E+01  0.28650198236E+02 -0.12832507260E+02  0.31900926650E+02  0.00000000000E+00 0. -1.
          1    1    1    2  502    0  0.56711568131E+01 -0.28650198236E+02 -0.13569278158E+04  0.13572420909E+04  0.00000000000E+00 0. -1.
</event>
<event>
 4    1  0.8284550E+003  0.3150612E+02  0.7546771E-02  0.1406945E+00
          2   -1    0    0  502    0  0.00000000000E+00  0.00000000000E+00  0.55008256032E+02  0.55008256032E+02  0.00000000000E+00 0. -1.
          1   -1    0    0  501    0 -0.00000000000E+00 -0.00000000000E+00 -0.67056892569E+03  0.67056892569E+03  0.00000000000E+00 0. -1.
          2    1    1    2  501    0 -0.27334106563E+02 -0.15667876415E+02  0.50093591130E+02  0.59177728963E+02  0.00000000000E+00 0. -1.
          1    1    1    2  502    0  0.27334106563E+02  0.15667876415E+02 -0.66565426079E+03  0.66639945276E+03  0.00000000000E+00 0. -1.
</event>
<event>
 4    1  0.8284550E+003  0.4011696E+02  0.7546771E-02  0.1347802E+00
          2   -1    0    0  502    0  0.00000000000E+00  0.00000000000E+00  0.85284054800E+03  0.85284054800E+03  0.00000000000E+00 0. -1.
          1   -1    0    0  501    0 -0.00000000000E+00 -0.00000000000E+00 -0.11546993142E+03  0.11546993142E+03  0.00000000000E+00 0.  1.
          2    1    1    2  501    0 -0.36832963639E+02 -0.15896655776E+02  0.84886808947E+03  0.84981551186E+03  0.00000000000E+00 0. -1.
          1    1    1    2  502    0  0.36832963639E+02  0.15896655776E+02 -0.11149747289E+03  0.11849496755E+03  0.00000000000E+00 0.  1.
</event>
<event>
 4    1  0.1337212E+004  0.2520811E+02  0.7546771E-02  0.1466489E+00
          2   -1    0    0  502    0  0.00000000000E+00  0.00000000000E+00  0.39435906401E+03  0.39435906401E+03  0.00000000000E+00 0. -1.
          1   -1    0    0  501    0 -0.00000000000E+00 -0.00000000000E+00 -0.10476373412E+04  0.10476373412E+04  0.00000000000E+00 0.  1.
          2    1    1    2  501    0 -0.48355190516E+01 -0.24739981590E+02  0.39380437554E+03  0.39461035862E+03  0.00000000000E+00 0. -1.
          1    1    1    2  502    0  0.48355190516E+01  0.24739981590E+02 -0.10470826528E+04  0.10473860466E+04  0.00000000000E+00 0.  1.
</event>
<event>
 4    1  0.8284550E+003  0.2298038E+02  0.7546771E-02  0.1492745E+00
          2   -1    0    0  502    0  0.00000000000E+00  0.00000000000E+00  0.74466823595E+03  0.74466823595E+03  0.00000000000E+00 0. -1.
          1   -1    0    0  501    0 -0.00000000000E+00 -0.00000000000E+00 -0.78775518563E+01  0.78775518563E+01  0.00000000000E+00 0. -1.
          2    1    1    2  501    0 -0.14700738385E+02  0.17663125951E+02  0.72733199526E+03  0.72769494231E+03  0.00000000000E+00 0. -1.
          1    1    1    2  502    0  0.14700738385E+02 -0.17663125951E+02  0.94586888255E+01  0.24850845493E+02  0.00000000000E+00 0. -1.
</event>
<event>
 4    1  0.8284550E+003  0.2269622E+02  0.7546771E-02  0.1496348E+00
          2   -1    0    0  502    0  0.00000000000E+00  0.00000000000E+00  0.17420006520E+03  0.17420006520E+03  0.00000000000E+00 0. -1.
          1   -1    0    0  501    0 -0.00000000000E+00 -0.00000000000E+00 -0.33823515313E+01  0.33823515313E+01  0.00000000000E+00 0. -1.
          2    1    1    2  501    0 -0.20207473956E+02 -0.10333231075E+02  0.53923332604E+02  0.58505072150E+02  0.00000000000E+00 0. -1.
          1    1    1    2  502    0  0.20207473956E+02  0.10333231075E+02  0.11689438106E+03  0.11907734458E+03  0.00000000000E+00 0. -1.
</event>
<event>
 4    1  0.8284550E+003  0.2100004E+02  0.7546771E-02  0.1519264E+00
          2   -1    0    0  502    0  0.00000000000E+00  0.00000000000E+00  0.37088623989E+03  0.37088623989E+03  0.00000000000E+00 0. -1.
          1   -1    0    0  501    0 -0.00000000000E+00 -0.00000000000E+00 -0.50840229655E+01  0.50840229655E+01  0.00000000000E+00 0. -1.
          2    1    1    2  501    0 -0.11875429473E+02 -0.17319807190E+02  0.34744133207E+03  0.34807539525E+03  0.00000000000E+00 0. -1.
          1    1    1    2  502    0  0.11875429473E+02  0.17319807190E+02  0.18360884858E+02  0.27894867611E+02  0.00000000000E+00 0. -1.
</event>
<event>
 4    1  0.8284550E+003  0.3293484E+02  0.7546771E-02  0.1395694E+00
          2   -1    0    0  502    0  0.00000000000E+00  0.00000000000E+00  0.81884878492E+01  0.81884878492E+01  0.00000000000E+00 0. -1.
          1   -1    0    0  501    0 -0.00000000000E+00 -0.00000000000E+00 -0.66134035940E+03  0.66134035940E+03  0.00000000000E+00 0. -1.
          2    1    1    2  501    0  0.30488610517E+02  0.12455853105E+02 -0.27209801858E+02  0.42720919524E+02  0.00000000000E+00 0. -1.
          1    1    1    2  502    0 -0.30488610517E+02 -0.12455853105E+02 -0.62594206969E+03  0.62680792772E+03  0.00000000000E+00 0. -1.
</event>
<event>
 4    1  0.8284550E+003  0.2202018E+02  0.7546771E-02  0.1505182E+00
          2   -1    0    0  502    0  0.00000000000E+00  0.00000000000E+00  0.45311999886E+03  0.45311999886E+03  0.00000000000E+00 0.  1.
          1   -1    0    0  501    0 -0.00000000000E+00 -0.00000000000E+00 -0.18071341589E+01  0.18071341589E+01  0.00000000000E+00 0.  1.
          2    1    1    2  501    0  0.79849524011E+01 -0.20521429075E+02  0.37092020882E+03  0.37157326307E+03  0.00000000000E+00 0.  1.
          1    1    1    2  502    0 -0.79849524011E+01  0.20521429075E+02  0.80392655883E+02  0.83353869953E+02  0.00000000000E+00 0.  1.
</event>
<event>
 4    1  0.8284550E+003  0.2301957E+02  0.7546771E-02  0.1492253E+00
          2   -1    0    0  502    0  0.00000000000E+00  0.00000000000E+00  0.96945776287E+02  0.96945776287E+02  0.00000000000E+00 0. -1.
          1   -1    0    0  501    0 -0.00000000000E+00 -0.00000000000E+00 -0.14610185394E+02  0.14610185394E+02  0.00000000000E+00 0. -1.
          2    1    1    2  501    0  0.18141026923E+02 -0.14170520627E+02  0.85295230660E+02  0.88346912148E+02  0.00000000000E+00 0. -1.
          1    1    1    2  502    0 -0.18141026923E+02  0.14170520627E+02 -0.29596397673E+01  0.23209049533E+02  0.00000000000E+00 0. -1.
</event>
<event>
 4    1  0.8284550E+003  0.2546577E+02  0.7546771E-02  0.1463660E+00
          2   -1    0    0  502    0  0.00000000000E+00  0.00000000000E+00  0.60421515267E+03  0.60421515267E+03  0.00000000000E+00 0. -1.
          1   -1    0    0  501    0 -0.00000000000E+00 -0.00000000000E+00 -0.68410882889E+02  0.68410882889E+02  0.00000000000E+00 0. -1.
          2    1    1    2  501    0  0.21771907961E+02  0.13209443514E+02  0.60156650628E+03  0.60210527888E+03  0.00000000000E+00 0. -1.
          1    1    1    2  502    0 -0.21771907961E+02 -0.13209443514E+02 -0.65762236496E+02  0.70520756684E+02  0.00000000000E+00 0. -1.
</event>
<event>
 4    1  0.8284550E+003  0.2073065E+02  0.7546771E-02  0.1523145E+00
          2   -1    0    0  502    0  0.00000000000E+00  0.00000000000E+00  0.13730596932E+03  0.13730596932E+03  0.00000000000E+00 0.  1.
          1   -1    0    0  501    0 -0.00000000000E+00 -0.00000000000E+00 -0.20204377696E+03  0.20204377696E+03  0.00000000000E+00 0.  1.
          2    1    1    2  501    0  0.17299495336E+02  0.11423108616E+02  0.13598658780E+03  0.13755766795E+03  0.00000000000E+00 0.  1.
          1    1    1    2  502    0 -0.17299495336E+02 -0.11423108616E+02 -0.20072439544E+03  0.20179207833E+03  0.00000000000E+00 0.  1.
</event>
<event>
 4    1  0.8284550E+003  0.2631850E+02  0.7546771E-02  0.1454577E+00
          2   -1    0    0  502    0  0.00000000000E+00  0.00000000000E+00  0.34495654255E+03  0.34495654255E+03  0.00000000000E+00 0. -1.
          1   -1    0    0  501    0 -0.00000000000E+00 -0.00000000000E+00 -0.49532600866E+01  0.49532600866E+01  0.00000000000E+00 0. -1.
          2    1    1    2  501    0  0.18840421610E+02 -0.18376667176E+02  0.30491171280E+03  0.30604544758E+03  0.00000000000E+00 0. -1.
          1    1    1    2  502    0 -0.18840421610E+02  0.18376667176E+02  0.35091569664E+02  0.43864355056E+02  0.00000000000E+00 0. -1.
</event>
<event>
 4    1  0.8284550E+003  0.2929704E+02  0.7546771E-02  0.1425805E+00
          2   -1    0    0  502    0  0.00000000000E+00  0.00000000000E+00  0.87341601815E+02  0.87341601815E+02  0.00000000000E+00 0. -1.
          1   -1    0    0  501    0 -0.00000000000E+00 -0.00000000000E+00 -0.12745574424E+02  0.12745574424E+02  0.00000000000E+00 0. -1.
          2    1    1    2  501    0 -0.29249654448E+02  0.16655984277E+01  0.61244682392E+02  0.67891292702E+02  0.00000000000E+00 0. -1.
          1    1    1    2  502    0  0.29249654448E+02 -0.16655984277E+01  0.13351344999E+02  0.32195883537E+02  0.00000000000E+00 0. -1.
</event>
<event>
 4    1  0.8284550E+003  0.2038035E+02  0.7546771E-02  0.1528299E+00
          2   -1    0    0  502    0  0.00000000000E+00  0.00000000000E+00  0.13893779378E+04  0.13893779378E+04  0.00000000000E+00 0. -1.
          1   -1    0    0  501    0 -0.00000000000E+00 -0.00000000000E+00 -0.10447264258E+01  0.10447264258E+01  0.00000000000E+00 0. -1.
          2    1    1    2  501    0 -0.17330142588E+02  0.10724961717E+02  0.12815464184E+04  0.12817084618E+04  0.00000000000E+00 0. -1.
          1    1    1    2  502    0  0.17330142588E+02 -0.10724961717E+02  0.10678679295E+03  0.10871420236E+03  0.00000000000E+00 0. -1.
</event>
<event>
 4    1  0.8284550E+003  0.2122142E+02  0.7546771E-02  0.1516127E+00
          2   -1    0    0  502    0  0.00000000000E+00  0.00000000000E+00  0.71457356203E+03  0.71457356203E+03  0.00000000000E+00 0.  1.
          1   -1    0    0  501    0 -0.00000000000E+00 -0.00000000000E+00 -0.44633088350E+02  0.44633088350E+02  0.00000000000E+00 0. -1.
          2    1    1    2  501    0  0.51565751392E+01 -0.20585393043E+02  0.71188397070E+03  0.71220020810E+03  0.00000000000E+00 0.  1.
          1    1    1    2  502    0 -0.51565751392E+01  0.20585393043E+02 -0.41943497020E+02  0.47006442283E+02  0.00000000000E+00 0. -1.
</event>
<event>
 4    1  0.8284550E+003  0.4105185E+02  0.7546771E-02  0.1342430E+00
          2   -1    0    0  502    0  0.00000000000E+00  0.00000000000E+00  0.38763316551E+02  0.38763316551E+02  0.00000000000E+00 0. -1.
          1   -1    0    0  501    0 -0.00000000000E+00 -0.00000000000E+00 -0.53911075489E+02  0.53911075489E+02  0.00000000000E+00 0. -1.
          2    1    1    2  501    0 -0.36451481035E+02  0.18882381159E+02  0.12812909925E+02  0.43004946792E+02  0.00000000000E+00 0. -1.
          1    1    1    2  502    0  0.36451481035E+02 -0.18882381159E+02 -0.27960668864E+02  0.49669445247E+02  0.00000000000E+00 0. -1.
</event>
<event>
 4    1  0.8284550E+003  0.2943385E+02  0.7546771E-02  0.1424581E+00
          2   -1    0    0  502    0  0.00000000000E+00  0.00000000000E+00  0.26827609627E+02  0.26827609627E+02  0.00000000000E+00 0.  1.
          1   -1    0    0  501    0 -0.00000000000E+00 -0.00000000000E+00 -0.13877700526E+03  0.13877700526E+03  0.00000000000E+00 0. -1.
          2    1    1    2  501    0  0.23686448946E+02  0.17472937127E+02  0.16556576957E+02  0.33770869637E+02  0.00000000000E+00 0.  1.
          1    1    1    2  502    0 -0.23686448946E+02 -0.17472937127E+02 -0.12850597259E+03  0.13183374525E+03  0.00000000000E+00 0. -1.
</event>
<event>
 4    1  0.8284550E+003  0.3768340E+02  0.7546771E-02  0.1362623E+00
          2   -1    0    0  502    0  0.00000000000E+00  0.00000000000E+00  0.61272763487E+03  0.61272763487E+03  0.00000000000E+00 0. -1.
          1   -1    0    0  501    0 -0.00000000000E+00 -0.00000000000E+00 -0.22085805236E+03  0.22085805236E+03  0.00000000000E+00 0. -1.
          2    1    1    2  501    0 -0.10252781836E+02 -0.36261809553E+02  0.61053506494E+03  0.61169690525E+03  0.00000000000E+00 0. -1.
          1    1    1    2  502    0  0.10252781836E+02  0.36261809553E+02 -0.21866548243E+03  0.22188878199E+03  0.00000000000E+00 0. -1.
</event>
<event>
 4    1  0.8284550E+003  0.2587915E+02  0.7546771E-02  0.1459204E+00
          2   -1    0    0  502    0  0.00000000000E+00  0.00000000000E+00  0.11280562105E+02  0.11280562105E+02  0.00000000000E+00 0.  1.
          1   -1    0    0  501    0 -0.00000000000E+00 -0.00000000000E+00 -0.81738691064E+02  0.81738691064E+02  0.00000000000E+00 0.  1.
          2    1    1    2  501    0 -0.25275478297E+02 -0.55570404312E+01 -0.10898831827E+02  0.28080509908E+02  0.00000000000E+00 0.  1.
          1    1    1    2  502    0  0.25275478297E+02  0.55570404312E+01 -0.59559297132E+02  0.64938743261E+02  0.00000000000E+00 0.  1.
</event>
<event>
 4    1  0.8284550E+003  0.3494968E+02  0.7546771E-02  0.1380917E+00
          2   -1    0    0  502    0  0.00000000000E+00  0.00000000000E+00  0.16478346479E+02  0.16478346479E+02  0.00000000000E+00 0. -1.
          1   -1    0    0  501    0 -0.00000000000E+00 -0.00000000000E+00 -0.39079061060E+03  0.39079061060E+03  0.00000000000E+00 0. -1.
          2    1    1    2  501    0 -0.33884945622E+02 -0.85609982372E+01 -0.38492565153E+01  0.35161015434E+02  0.00000000000E+00 0. -1.
          1    1    1    2  502    0  0.33884945622E+02  0.85609982372E+01 -0.37046300760E+03  0.37210794164E+03  0.00000000000E+00 0. -1.
</event>
<event>
 4    1  0.8284550E+003  0.2334814E+02  0.7546771E-02  0.1488172E+00
          2   -1    0    0  502    0  0.00000000000E+00  0.00000000000E+00  0.22381183608E+02  0.22381183608E+02  0.00000000000E+00 0.  1.
          1   -1    0    0  501    0 -0.00000000000E+00 -0.00000000000E+00 -0.25695532053E+03  0.25695532053E+03  0.00000000000E+00 0.  1.
          2    1    1    2  501    0 -0.52042495945E+01 -0.22760739787E+02  0.15596812394E+02  0.28078391093E+02  0.00000000000E+00 0.  1.
          1    1    1    2  502    0  0.52042495945E+01  0.22760739787E+02 -0.25017094932E+03  0.25125811305E+03  0.00000000000E+00 0.  1.
</event>
<event>
 4    1  0.8284550E+003  0.2077723E+02  0.7546771E-02  0.1522469E+00
          2   -1    0    0  502    0  0.00000000000E+00  0.00000000000E+00  0.16729598971E+01  0.16729598971E+01  0.00000000000E+00 0.  1.
          1   -1    0    0  501    0 -0.00000000000E+00 -0.00000000000E+00 -0.66091463477E+03  0.66091463477E+03  0.00000000000E+00 0.  1.
          2    1    1    2  501    0  0.13449178949E+02  0.15837073817E+02 -0.70963562934E+02  0.73942684464E+02  0.00000000000E+00 0.  1.
          1    1    1    2  502    0 -0.13449178949E+02 -0.15837073817E+02 -0.58827811194E+03  0.58864491021E+03  0.00000000000E+00 0.  1.
</event>
<event>
 4    1  0.8284550E+003  0.2612513E+02  0.7546771E-02  0.1456600E+00
          2   -1    0    0  502    0  0.00000000000E+00  0.00000000000E+00  0.30408350458E+03  0.30408350458E+03  0.00000000000E+00 0. -1.
          1   -1    0    0  501    0 -0.00000000000E+00 -0.00000000000E+00 -0.81501193183E+02  0.81501193183E+02  0.00000000000E+00 0. -1.
          2    1    1    2  501    0 -0.25570988875E+02  0.53522690646E+01  0.30141024434E+03  0.30254034053E+03  0.00000000000E+00 0. -1.
          1    1    1    2  502    0  0.25570988875E+02 -0.53522690646E+01 -0.78827932942E+02  0.83044357233E+02  0.00000000000E+00 0. -1.
</event>
<event>
 4    1  0.8284550E+003  0.3531826E+02  0.7546771E-02  0.1378339E+00
          2   -1    0    0  502    0  0.00000000000E+00  0.00000000000E+00  0.10374959667E+03  0.10374959667E+03  0.00000000000E+00 0.  1.
          1   -1    0    0  501    0 -0.00000000000E+00 -0.00000000000E+00 -0.25084190978E+04  0.25084190978E+04  0.00000000000E+00 0. -1.
          2    1    1    2  501    0  0.92546689266E+01 -0.34084172161E+02  0.10061577184E+03  0.10663448425E+03  0.00000000000E+00 0.  1.
          1    1    1    2  502    0 -0.92546689266E+01  0.34084172161E+02 -0.25052852729E+04  0.25055342102E+04  0.00000000000E+00 0. -1.
</event>
<event>
 4    1  0.8284550E+003  0.2550641E+02  0.7546771E-02  0.1463217E+00
          2   -1    0    0  502    0  0.00000000000E+00  0.00000000000E+00  0.44722507016E+03  0.44722507016E+03  0.00000000000E+00 0. -1.
          1   -1    0    0  501    0 -0.00000000000E+00 -0.00000000000E+00 -0.66095943610E+01  0.66095943610E+01  0.00000000000E+00 0. -1.
          2    1    1    2  501    0 -0.14128778693E+02  0.21235689165E+02  0.42070430842E+03  0.42147679889E+03  0.00000000000E+00 0. -1.
          1    1    1    2  502    0  0.14128778693E+02 -0.21235689165E+02  0.19911167381E+02  0.32357865630E+02  0.00000000000E+00 0. -1.
</event>
<event>
 4    1  0.8284550E+003  0.2792797E+02  0.7546771E-02  0.1438503E+00
          2   -1    0    0  502    0  0.00000000000E+00  0.00000000000E+00  0.95656680713E+03  0.95656680713E+03  0.00000000000E+00 0.  1.
          1   -1    0    0  501    0 -0.00000000000E+00 -0.00000000000E+00 -0.94432684649E+00  0.94432684649E+00  0.00000000000E+00 0.  1.
          2    1    1    2  501    0 -0.25784839771E+02 -0.10729071923E+02  0.30090288555E+03  0.30219615728E+03  0.00000000000E+00 0.  1.
          1    1    1    2  502    0  0.25784839771E+02  0.10729071923E+02  0.65471959474E+03  0.65531497669E+03  0.00000000000E+00 0.  1.
</event>
<event>
 4    1  0.8284550E+003  0.2868755E+02  0.7546771E-02  0.1431355E+00
          2   -1    0    0  502    0  0.00000000000E+00  0.00000000000E+00  0.27404999881E+03  0.27404999881E+03  0.00000000000E+00 0. -1.
          1   -1    0    0  501    0 -0.00000000000E+00 -0.00000000000E+00 -0.30826761147E+01  0.30826761147E+01  0.00000000000E+00 0.  1.
          2    1    1    2  501    0 -0.12072008638E+02 -0.26023870739E+02  0.15775914221E+03  0.16034625718E+03  0.00000000000E+00 0. -1.
          1    1    1    2  502    0  0.12072008638E+02  0.26023870739E+02  0.11320818048E+03  0.11678641774E+03  0.00000000000E+00 0.  1.
</event>
<event>
 4    1  0.8284550E+003  0.3029403E+02  0.7546771E-02  0.1417058E+00
          2   -1    0    0  502    0  0.00000000000E+00  0.00000000000E+00  0.49497913512E+01  0.49497913512E+01  0.00000000000E+00 0. -1.
          1   -1    0    0  501    0 -0.00000000000E+00 -0.00000000000E+00 -0.47216974376E+03  0.47216974376E+03  0.00000000000E+00 0.  1.
          2    1    1    2  501    0  0.26338055790E+02 -0.14967804575E+02 -0.47697248265E+02  0.56504476359E+02  0.00000000000E+00 0. -1.
          1    1    1    2  502    0 -0.26338055790E+02  0.14967804575E+02 -0.41952270414E+03  0.42061505875E+03  0.00000000000E+00 0.  1.
</event>
<event>
 4    1  0.8284550E+003  0.2130570E+02  0.7546771E-02  0.1514945E+00
          2   -1    0    0  502    0  0.00000000000E+00  0.00000000000E+00  0.28509872496E+01  0.28509872496E+01  0.00000000000E+00 0. -1.
          1   -1    0    0  501    0 -0.00000000000E+00 -0.00000000000E+00 -0.22403479724E+03  0.22403479724E+03  0.00000000000E+00 0. -1.
          2    1    1    2  501    0 -0.31242188681E+01 -0.21075390170E+02 -0.49573865323E+02  0.53958325933E+02  0.00000000000E+00 0. -1.
          1    1    1    2  502    0  0.31242188681E+01  0.21075390170E+02 -0.17160994467E+03  0.17292745856E+03  0.00000000000E+00 0. -1.
</event>
<event>
 4    1  0.8284550E+003  0.2990896E+02  0.7546771E-02  0.1420389E+00
          2   -1    0    0  502    0  0.00000000000E+00  0.00000000000E+00  0.17265779000E+04  0.17265779000E+04  0.00000000000E+00 0.  1.
          1   -1    0    0  501    0 -0.00000000000E+00 -0.00000000000E+00 -0.83488277508E+00  0.83488277508E+00  0.00000000000E+00 0. -1.
          2    1    1    2  501    0 -0.69516598446E+01  0.29089868995E+02  0.13948961692E+04  0.13952167821E+04  0.00000000000E+00 0.  1.
          1    1    1    2  502    0  0.69516598446E+01 -0.29089868995E+02  0.33084684804E+03  0.33219600075E+03  0.00000000000E+00 0. -1.
</event>
<event>
 4    1  0.8284550E+003  0.8214396E+02  0.7546771E-02  0.1198956E+00
          2   -1    0    0  502    0  0.00000000000E+00  0.00000000000E+00  0.34900724439E+04  0.34900724439E+04  0.00000000000E+00 0. -1.
          1   -1    0    0  501    0 -0.00000000000E+00 -0.00000000000E+00 -0.33016540360E+01  0.33016540360E+01  0.00000000000E+00 0.  1.
          2    1    1    2  501    0 -0.63818686605E+02 -0.51718520260E+02  0.28678250197E+04  0.28690012153E+04  0.00000000000E+00 0. -1.
          1    1    1    2  502    0  0.63818686605E+02  0.51718520260E+02  0.61894577023E+03  0.62437288264E+03  0.00000000000E+00 0.  1.
</event>
<event>
 4    1  0.8284550E+003  0.2788932E+02  0.7546771E-02  0.1438874E+00
          2   -1    0    0  502    0  0.00000000000E+00  0.00000000000E+00  0.20273144513E+01  0.20273144513E+01  0.00000000000E+00 0. -1.
          1   -1    0    0  501    0 -0.00000000000E+00 -0.00000000000E+00 -0.16734003493E+04  0.16734003493E+04  0.00000000000E+00 0.  1.
          2    1    1    2  501    0  0.15751458418E+02 -0.23015339051E+02 -0.10024918465E+03  0.10405629869E+03  0.00000000000E+00 0. -1.
          1    1    1    2  502    0 -0.15751458418E+02  0.23015339051E+02 -0.15711238502E+04  0.15713713650E+04  0.00000000000E+00 0.  1.
</event>
<event>
 4    1  0.8488498E+003  0.2221977E+02  0.7546771E-02  0.1502535E+00
          2   -1    0    0  502    0  0.00000000000E+00  0.00000000000E+00  0.27238470471E+03  0.27238470471E+03  0.00000000000E+00 0.  1.
          1   -1    0    0  501    0 -0.00000000000E+00 -0.00000000000E+00 -0.10904140070E+04  0.10904140070E+04  0.00000000000E+00 0.  1.
          2    1    1    2  501    0  0.90269376472E+01 -0.20303512209E+02  0.27181812981E+03  0.27272479518E+03  0.00000000000E+00 0.  1.
          1    1    1    2  502    0 -0.90269376472E+01  0.20303512209E+02 -0.10898474321E+04  0.10900739165E+04  0.00000000000E+00 0.  1.
</event>
<event>
 4    1  0.8284550E+003  0.3869462E+02  0.7546771E-02  0.1356310E+00
          2   -1    0    0  502    0  0.00000000000E+00  0.00000000000E+00  0.31139732849E+03  0.31139732849E+03  0.00000000000E+00 0.  1.
          1   -1    0    0  501    0 -0.00000000000E+00 -0.00000000000E+00 -0.86023773839E+02  0.86023773839E+02  0.00000000000E+00 0. -1.
          2    1    1    2  501    0  0.17832713195E+02 -0.34340468720E+02  0.30576408356E+03  0.30820277132E+03  0.00000000000E+00 0.  1.
          1    1    1    2  502    0 -0.17832713195E+02  0.34340468720E+02 -0.80390528905E+02  0.89218331017E+02  0.00000000000E+00 0. -1.
</event>
<event>
 4    1  0.8284550E+003  0.2178212E+02  0.7546771E-02  0.1508385E+00
          2   -1    0    0  502    0  0.00000000000E+00  0.00000000000E+00  0.42983207941E+03  0.42983207941E+03  0.00000000000E+00 0.  1.
          1   -1    0    0  501    0 -0.00000000000E+00 -0.00000000000E+00 -0.22971988978E+02  0.22971988978E+02  0.00000000000E+00 0.  1.
          2    1    1    2  501    0 -0.61712012735E+00 -0.21773379393E+02  0.42432568903E+03  0.42488439752E+03  0.00000000000E+00 0.  1.
          1    1    1    2  502    0  0.61712012735E+00  0.21773379393E+02 -0.17465598592E+02  0.27919670872E+02  0.00000000000E+00 0.  1.
</event>
<event>
 4    1  0.8284550E+003  0.2222199E+02  0.7546771E-02  0.1502506E+00
          2   -1    0    0  502    0  0.00000000000E+00  0.00000000000E+00  0.14232219285E+04  0.14232219285E+04  0.00000000000E+00 0. -1.
          1   -1    0    0  501    0 -0.00000000000E+00 -0.00000000000E+00 -0.31825628412E+01  0.31825628412E+01  0.00000000000E+00 0.  1.
          2    1    1    2  501    0 -0.17916742689E+02  0.13145606422E+02  0.13832227291E+04  0.13834012198E+04  0.00000000000E+00 0. -1.
          1    1    1    2  502    0  0.17916742689E+02 -0.13145606422E+02  0.36816636621E+02  0.43003271606E+02  0.00000000000E+00 0.  1.
</event>
<event>
 4    1  0.8284550E+003  0.2885405E+02  0.7546771E-02  0.1429823E+00
          2   -1    0    0  502    0  0.00000000000E+00  0.00000000000E+00  0.81094296591E+03  0.81094296591E+03  0.00000000000E+00 0. -1.
          1   -1    0    0  501    0 -0.00000000000E+00 -0.00000000000E+00 -0.10859499002E+03  0.10859499002E+03  0.00000000000E+00 0. -1.
          2    1    1    2  501    0  0.22987995449E+02 -0.17438706664E+02  0.80876448703E+03  0.80927903217E+03  0.00000000000E+00 0. -1.
          1    1    1    2  502    0 -0.22987995449E+02  0.17438706664E+02 -0.10641651114E+03  0.11025892376E+03  0.00000000000E+00 0. -1.
</event>
<event>
 4    1  0.8284550E+003  0.3119670E+02  0.7546771E-02  0.1409474E+00
          2   -1    0    0  502    0  0.00000000000E+00  0.00000000000E+00  0.82949811132E+03  0.82949811132E+03  0.00000000000E+00 0. -1.
          1   -1    0    0  501    0 -0.00000000000E+00 -0.00000000000E+00 -0.22165086634E+01  0.22165086634E+01  0.00000000000E+00 0.  1.
          2    1    1    2  501    0  0.14658921334E+02  0.27538162272E+02  0.69893909565E+03  0.69963497181E+03  0.00000000000E+00 0. -1.
          1    1    1    2  502    0 -0.14658921334E+02 -0.27538162272E+02  0.12834250700E+03  0.13207964816E+03  0.00000000000E+00 0.  1.
</event>
<event>
 4    1  0.8284550E+003  0.2051842E+02  0.7546771E-02  0.1526253E+00
          2   -1    0    0  502    0  0.00000000000E+00  0.00000000000E+00  0.53033360216E+02  0.53033360216E+02  0.00000000000E+00 0.  1.
          1   -1    0    0  501    0 -0.00000000000E+00 -0.00000000000E+00 -0.11948706527E+02  0.11948706527E+02  0.00000000000E+00 0. -1.
          2    1    1    2  501    0  0.20482695098E+02 -0.12103197192E+01  0.39365207874E+02  0.44391725167E+02  0.00000000000E+00 0.  1.
          1    1    1    2  502    0 -0.20482695098E+02  0.12103197192E+01  0.17194458149E+01  0.20590341576E+02  0.00000000000E+00 0. -1.
</event>
<event>
 4    1  0.8284550E+003  0.2591686E+02  0.7546771E-02  0.1458803E+00
          2   -1    0    0  502    0  0.00000000000E+00  0.00000000000E+00  0.94366537369E+02  0.94366537369E+02  0.00000000000E+00 0. -1.
          1   -1    0    0  501    0 -0.00000000000E+00 -0.00000000000E+00 -0.12754884325E+03  0.12754884325E+03  0.00000000000E+00 0.  1.
          2    1    1    2  501    0  0.11946858013E+02  0.22999049576E+02  0.91226119344E+02  0.94836114157E+02  0.00000000000E+00 0. -1.
          1    1    1    2  502    0 -0.11946858013E+02 -0.22999049576E+02 -0.12440842522E+03  0.12707926646E+03  0.00000000000E+00 0.  1.
</event>
<event>
 4    1  0.8284550E+003  0.2093911E+02  0.7546771E-02  0.1520136E+00
          2   -1    0    0  502    0  0.00000000000E+00  0.00000000000E+00  0.43307789416E+03  0.43307789416E+03  0.00000000000E+00 0.  1.
          1   -1    0    0  501    0 -0.00000000000E+00 -0.00000000000E+00 -0.10638959262E+02  0.10638959262E+02  0.00000000000E+00 0.  1.
          2    1    1    2  501    0 -0.17373116357E+02 -0.11688512143E+02  0.42225810876E+03  0.42277695881E+03  0.00000000000E+00 0.  1.
          1    1    1    2  502    0  0.17373116357E+02  0.11688512143E+02  0.18082613436E+00  0.20939894607E+02  0.00000000000E+00 0.  1.
</event>
<event>
 4    1  0.8284550E+003  0.7291571E+02  0.7546771E-02  0.1221324E+00
          2   -1    0    0  502    0  0.00000000000E+00  0.00000000000E+00  0.34511655419E+03  0.34511655419E+03  0.00000000000E+00 0. -1.
          1   -1    0    0  501    0 -0.00000000000E+00 -0.00000000000E+00 -0.21157121052E+03  0.21157121052E+03  0.00000000000E+00 0.  1.
          2    1    1    2  501    0  0.21966515450E+02 -0.69528213975E+02  0.33479126273E+03  0.34263959190E+03  0.00000000000E+00 0. -1.
          1    1    1    2  502    0 -0.21966515450E+02  0.69528213975E+02 -0.20124591907E+03  0.21404817280E+03  0.00000000000E+00 0.  1.
</event>
<event>
 4    1  0.8284550E+003  0.4490608E+02  0.7546771E-02  0.1321910E+00
          2   -1    0    0  502    0  0.00000000000E+00  0.00000000000E+00  0.46269084840E+03  0.46269084840E+03  0.00000000000E+00 0. -1.
          1   -1    0    0  501    0 -0.00000000000E+00 -0.00000000000E+00 -0.23370168298E+02  0.23370168298E+02  0.00000000000E+00 0.  1.
          2    1    1    2  501    0  0.85674250105E+00 -0.44897903950E+02  0.43886108239E+03  0.44115258746E+03  0.00000000000E+00 0. -1.
          1    1    1    2  502    0 -0.85674250105E+00  0.44897903950E+02  0.45959771577E+00  0.44908429241E+02  0.00000000000E+00 0.  1.
</event>
<event>
 4    1  0.8284550E+003  0.2074408E+02  0.7546771E-02  0.1522950E+00
          2   -1    0    0  502    0  0.00000000000E+00  0.00000000000E+00  0.42846720576E+03  0.42846720576E+03  0.00000000000E+00 0. -1.
          1   -1    0    0  501    0 -0.00000000000E+00 -0.00000000000E+00 -0.35345355357E+02  0.35345355357E+02  0.00000000000E+00 0.  1.
          2    1    1    2  501    0  0.13174604612E+02 -0.16023321542E+02  0.42514872293E+03  0.42565450032E+03  0.00000000000E+00 0. -1.
          1    1    1    2  502    0 -0.13174604612E+02  0.16023321542E+02 -0.32026872523E+02  0.38158060794E+02  0.00000000000E+00 0.  1.
</event>
<event>
 4    1  0.8284550E+003  0.2259530E+02  0.7546771E-02  0.1497643E+00
          2   -1    0    0  502    0  0.00000000000E+00  0.00000000000E+00  0.15025409570E+02  0.15025409570E+02  0.00000000000E+00 0. -1.
          1   -1    0    0  501    0 -0.00000000000E+00 -0.00000000000E+00 -0.79073018799E+02  0.79073018799E+02  0.00000000000E+00 0. -1.
          2    1    1    2  501    0 -0.11926913252E+02 -0.19191048808E+02  0.35064184927E+01  0.22865751348E+02  0.00000000000E+00 0. -1.
          1    1    1    2  502    0  0.11926913252E+02  0.19191048808E+02 -0.67554027722E+02  0.71232677020E+02  0.00000000000E+00 0. -1.
</event>
<event>
 4    1  0.8284550E+003  0.5650984E+02  0.7546771E-02  0.1272175E+00
          2   -1    0    0  502    0  0.00000000000E+00  0.00000000000E+00  0.14373937220E+04  0.14373937220E+04  0.00000000000E+00 0.  1.
          1   -1    0    0  501    0 -0.00000000000E+00 -0.00000000000E+00 -0.29617823288E+02  0.29617823288E+02  0.00000000000E+00 0. -1.
          2    1    1    2  501    0 -0.55241593188E+01  0.56239179933E+02  0.14093473941E+04  0.14104798613E+04  0.00000000000E+00 0.  1.
          1    1    1    2  502    0  0.55241593188E+01 -0.56239179933E+02 -0.15714954591E+01  0.56531683981E+02  0.00000000000E+00 0. -1.
</event>
<event>
 4    1  0.8284550E+003  0.2042465E+02  0.7546771E-02  0.1527640E+00
          2   -1    0    0  502    0  0.00000000000E+00  0.00000000000E+00  0.86990477051E+01  0.86990477051E+01  0.00000000000E+00 0.  1.
          1   -1    0    0  501    0 -0.00000000000E+00 -0.00000000000E+00 -0.21581610549E+03  0.21581610549E+03  0.00000000000E+00 0.  1.
          2    1    1    2  501    0 -0.16082390929E+02  0.12590590155E+02 -0.45555489344E+01  0.20926521081E+02  0.00000000000E+00 0.  1.
          1    1    1    2  502    0  0.16082390929E+02 -0.12590590155E+02 -0.20256150885E+03  0.20358863211E+03  0.00000000000E+00 0.  1.
</event>
<event>
 4    1  0.8284550E+003  0.2811363E+02  0.7546771E-02  0.1436731E+00
          2   -1    0    0  502    0  0.00000000000E+00  0.00000000000E+00  0.11625610815E+03  0.11625610815E+03  0.00000000000E+00 0. -1.
          1   -1    0    0  501    0 -0.00000000000E+00 -0.00000000000E+00 -0.46405884964E+03  0.46405884964E+03  0.00000000000E+00 0.  1.
          2    1    1    2  501    0  0.41798655425E+01 -0.27801166246E+02  0.11412282656E+03  0.11753465728E+03  0.00000000000E+00 0. -1.
          1    1    1    2  502    0 -0.41798655425E+01  0.27801166246E+02 -0.46192556805E+03  0.46278030051E+03  0.00000000000E+00 0.  1.
</event>
<event>
 4    1  0.8284550E+003  0.2550813E+02  0.7546771E-02  0.1463199E+00
          2   -1    0    0  502    0  0.00000000000E+00  0.00000000000E+00  0.15242703550E+04  0.15242703550E+04  0.00000000000E+00 0. -1.
          1   -1    0    0  501    0 -0.00000000000E+00 -0.00000000000E+00 -0.17428995726E+01  0.17428995726E+01  0.00000000000E+00 0.  1.
          2    1    1    2  501    0  0.21790113476E+02  0.13261053620E+02  0.14242812837E+04  0.14245096839E+04  0.00000000000E+00 0. -1.
          1    1    1    2  502    0 -0.21790113476E+02 -0.13261053620E+02  0.98246171686E+02  0.10150357057E+03  0.00000000000E+00 0.  1.
</event>
<event>
 4    1  0.8284550E+003  0.3205577E+02  0.7546771E-02  0.1402534E+00
          2   -1    0    0  502    0  0.00000000000E+00  0.00000000000E+00  0.17962703779E+03  0.17962703779E+03  0.00000000000E+00 0.  1.
          1   -1    0    0  501    0 -0.00000000000E+00 -0.00000000000E+00 -0.37116887014E+02  0.37116887014E+02  0.00000000000E+00 0. -1.
          2    1    1    2  501    0 -0.14267984112E+02 -0.28705349305E+02  0.17092643600E+03  0.17390635116E+03  0.00000000000E+00 0.  1.
          1    1    1    2  502    0  0.14267984112E+02  0.28705349305E+02 -0.28416285229E+02  0.42837573642E+02  0.00000000000E+00 0. -1.
</event>
<event>
 4    1  0.8284550E+003  0.3601058E+02  0.7546771E-02  0.1373594E+00
          2   -1    0    0  502    0  0.00000000000E+00  0.00000000000E+00  0.21794186851E+04  0.21794186851E+04  0.00000000000E+00 0.  1.
          1   -1    0    0  501    0 -0.00000000000E+00 -0.00000000000E+00 -0.19000508622E+01  0.19000508622E+01  0.00000000000E+00 0.  1.
          2    1    1    2  501    0  0.32765424695E+02 -0.14939515506E+02  0.19926577307E+04  0.19929830892E+04  0.00000000000E+00 0.  1.
          1    1    1    2  502    0 -0.32765424695E+02  0.14939515506E+02  0.18486090357E+03  0.18833564678E+03  0.00000000000E+00 0.  1.
</event>
<event>
 4    1  0.8284550E+003  0.2477259E+02  0.7546771E-02  0.1471364E+00
          2   -1    0    0  502    0  0.00000000000E+00  0.00000000000E+00  0.10034854530E+03  0.10034854530E+03  0.00000000000E+00 0.  1.
          1   -1    0    0  501    0 -0.00000000000E+00 -0.00000000000E+00 -0.12933219344E+03  0.12933219344E+03  0.00000000000E+00 0. -1.
          2    1    1    2  501    0  0.16930380943E+02  0.18084339564E+02  0.97600543197E+02  0.10069531850E+03  0.00000000000E+00 0.  1.
          1    1    1    2  502    0 -0.16930380943E+02 -0.18084339564E+02 -0.12658419134E+03  0.12898542024E+03  0.00000000000E+00 0. -1.
</event>
<event>
 4    1  0.8284550E+003  0.2737858E+02  0.7546771E-02  0.1443842E+00
          2   -1    0    0  502    0  0.00000000000E+00  0.00000000000E+00  0.17512562599E+04  0.17512562599E+04  0.00000000000E+00 0. -1.
          1   -1    0    0  501    0 -0.00000000000E+00 -0.00000000000E+00 -0.20892968717E+02  0.20892968717E+02  0.00000000000E+00 0. -1.
          2    1    1    2  501    0  0.90507632836E+01  0.25839317191E+02  0.17421329196E+04  0.17423480410E+04  0.00000000000E+00 0. -1.
          1    1    1    2  502    0 -0.90507632836E+01 -0.25839317191E+02 -0.11769628392E+02  0.29801187583E+02  0.00000000000E+00 0. -1.
</event>
<event>
 4    1  0.8284550E+003  0.2242515E+02  0.7546771E-02  0.1499846E+00
          2   -1    0    0  502    0  0.00000000000E+00  0.00000000000E+00  0.46680726744E+03  0.46680726744E+03  0.00000000000E+00 0.  1.
          1   -1    0    0  501    0 -0.00000000000E+00 -0.00000000000E+00 -0.65547001157E+01  0.65547001157E+01  0.00000000000E+00 0. -1.
          2    1    1    2  501    0 -0.48677799909E+01  0.21890453592E+02  0.44648507403E+03  0.44704788174E+03  0.00000000000E+00 0.  1.
          1    1    1    2  502    0  0.48677799909E+01 -0.21890453592E+02  0.13767493294E+02  0.26314085811E+02  0.00000000000E+00 0. -1.
</event>
<event>
 4    1  0.8284550E+003  0.2376708E+02  0.7546771E-02  0.1483084E+00
          2   -1    0    0  502    0  0.00000000000E+00  0.00000000000E+00  0.12096402978E+04  0.12096402978E+04  0.00000000000E+00 0.  1.
          1   -1    0    0  501    0 -0.00000000000E+00 -0.00000000000E+00 -0.59907795078E+00  0.59907795078E+00  0.00000000000E+00 0. -1.
          2    1    1    2  501    0  0.21026790799E+02 -0.11079173152E+02  0.88867400079E+03  0.88899176244E+03  0.00000000000E+00 0.  1.
          1    1    1    2  502    0 -0.21026790799E+02  0.11079173152E+02  0.32036721905E+03  0.32124761330E+03  0.00000000000E+00 0. -1.
</event>
<event>
 4    1  0.8284550E+003  0.2869673E+02  0.7546771E-02  0.1431270E+00
          2   -1    0    0  502    0  0.00000000000E+00  0.00000000000E+00  0.91225578831E+00  0.91225578831E+00  0.00000000000E+00 0.  1.
          1   -1    0    0  501    0 -0.00000000000E+00 -0.00000000000E+00 -0.21772804926E+04  0.21772804926E+04  0.00000000000E+00 0.  1.
          2    1    1    2  501    0 -0.16435133365E+02 -0.23524215080E+02 -0.25490389700E+03  0.25651413024E+03  0.00000000000E+00 0.  1.
          1    1    1    2  502    0  0.16435133365E+02  0.23524215080E+02 -0.19214643398E+04  0.19216786182E+04  0.00000000000E+00 0.  1.
</event>
<event>
 4    1  0.8284550E+003  0.2359055E+02  0.7546771E-02  0.1485213E+00
          2   -1    0    0  502    0  0.00000000000E+00  0.00000000000E+00  0.23533738990E+02  0.23533738990E+02  0.00000000000E+00 0.  1.
          1   -1    0    0  501    0 -0.00000000000E+00 -0.00000000000E+00 -0.16926493324E+03  0.16926493324E+03  0.00000000000E+00 0.  1.
          2    1    1    2  501    0 -0.19512107447E+01 -0.23509718264E+02  0.16546695896E+02  0.28815051992E+02  0.00000000000E+00 0.  1.
          1    1    1    2  502    0  0.19512107447E+01  0.23509718264E+02 -0.16227789014E+03  0.16398362024E+03  0.00000000000E+00 0.  1.
</event>
<event>
 4    1  0.8284550E+003  0.2128725E+02  0.7546771E-02  0.1515203E+00
          2   -1    0    0  502    0  0.00000000000E+00  0.00000000000E+00  0.79746115467E+03  0.79746115467E+03  0.00000000000E+00 0. -1.
          1   -1    0    0  501    0 -0.00000000000E+00 -0.00000000000E+00 -0.13895296526E+03  0.13895296526E+03  0.00000000000E+00 0.  1.
          2    1    1    2  501    0 -0.21270196098E+02 -0.85184306545E+00  0.79650282644E+03  0.79678723597E+03  0.00000000000E+00 0. -1.
          1    1    1    2  502    0  0.21270196098E+02  0.85184306545E+00 -0.13799463702E+03  0.13962688396E+03  0.00000000000E+00 0.  1.
</event>
<event>
 4    1  0.8284550E+003  0.2412887E+02  0.7546771E-02  0.1478789E+00
          2   -1    0    0  502    0  0.00000000000E+00  0.00000000000E+00  0.11764930100E+04  0.11764930100E+04  0.00000000000E+00 0. -1.
          1   -1    0    0  501    0 -0.00000000000E+00 -0.00000000000E+00 -0.68397655634E+01  0.68397655634E+01  0.00000000000E+00 0. -1.
          2    1    1    2  501    0  0.18047147271E+02  0.16015706749E+02  0.11546874205E+04  0.11549394969E+04  0.00000000000E+00 0. -1.
          1    1    1    2  502    0 -0.18047147271E+02 -0.16015706749E+02  0.14965823895E+02  0.28393278644E+02  0.00000000000E+00 0. -1.
</event>
<event>
 4    1  0.8284550E+003  0.2990593E+02  0.7546771E-02  0.1420416E+00
          2   -1    0    0  502    0  0.00000000000E+00  0.00000000000E+00  0.13162418583E+03  0.13162418583E+03  0.00000000000E+00 0.  1.
          1   -1    0    0  501    0 -0.00000000000E+00 -0.00000000000E+00 -0.74820419532E+01  0.74820419532E+01  0.00000000000E+00 0.  1.
          2    1    1    2  501    0  0.27671839828E+01  0.29777628525E+02  0.83150103690E+02  0.88364609496E+02  0.00000000000E+00 0.  1.
          1    1    1    2  502    0 -0.27671839828E+01 -0.29777628525E+02  0.40992040188E+02  0.50741618288E+02  0.00000000000E+00 0.  1.
</event>
<event>
 4    1  0.8284550E+003  0.2143899E+02  0.7546771E-02  0.1513089E+00
          2   -1    0    0  502    0  0.00000000000E+00  0.00000000000E+00  0.45534761103E+02  0.45534761103E+02  0.00000000000E+00 0.  1.
          1   -1    0    0  501    0 -0.00000000000E+00 -0.00000000000E+00 -0.62102511404E+03  0.62102511404E+03  0.00000000000E+00 0.  1.
          2    1    1    2  501    0 -0.46037464367E+01 -0.20938860545E+02  0.42815122141E+02  0.47882826213E+02  0.00000000000E+00 0.  1.
          1    1    1    2  502    0  0.46037464367E+01  0.20938860545E+02 -0.61830547508E+03  0.61867704893E+03  0.00000000000E+00 0.  1.
</event>
<event>
 4    1  0.8284550E+003  0.2322483E+02  0.7546771E-02  0.1489694E+00
          2   -1    0    0  502    0  0.00000000000E+00  0.00000000000E+00  0.12491031444E+04  0.12491031444E+04  0.00000000000E+00 0.  1.
          1   -1    0    0  501    0 -0.00000000000E+00 -0.00000000000E+00 -0.13642159112E+03  0.13642159112E+03  0.00000000000E+00 0.  1.
          2    1    1    2  501    0 -0.13935939765E+02 -0.18579078950E+02  0.12480058531E+04  0.12482219361E+04  0.00000000000E+00 0.  1.
          1    1    1    2  502    0  0.13935939765E+02  0.18579078950E+02 -0.13532429981E+03  0.13730279936E+03  0.00000000000E+00 0.  1.
</event>
<event>
 4    1  0.8284550E+003  0.2284156E+02  0.7546771E-02  0.1494497E+00
          2   -1    0    0  502    0  0.00000000000E+00  0.00000000000E+00  0.10257937798E+04  0.10257937798E+04  0.00000000000E+00 0. -1.
          1   -1    0    0  501    0 -0.00000000000E+00 -0.00000000000E+00 -0.12209544959E+02  0.12209544959E+02  0.00000000000E+00 0. -1.
          2    1    1    2  501    0 -0.19325587156E+02 -0.12176154943E+02  0.10148686618E+04  0.10151256758E+04  0.00000000000E+00 0. -1.
          1    1    1    2  502    0  0.19325587156E+02  0.12176154943E+02 -0.12844269355E+01  0.22877648932E+02  0.00000000000E+00 0. -1.
</event>
<event>
 4    1  0.8284550E+003  0.5046400E+02  0.7546771E-02  0.1296173E+00
          2   -1    0    0  502    0  0.00000000000E+00  0.00000000000E+00  0.87888154073E+03  0.87888154073E+03  0.00000000000E+00 0. -1.
          1   -1    0    0  501    0 -0.00000000000E+00 -0.00000000000E+00 -0.79662459859E+02  0.79662459859E+02  0.00000000000E+00 0.  1.
          2    1    1    2  501    0 -0.39851374655E+02  0.30959380463E+02  0.87008452272E+03  0.87154672392E+03  0.00000000000E+00 0. -1.
          1    1    1    2  502    0  0.39851374655E+02 -0.30959380463E+02 -0.70865441845E+02  0.86997276672E+02  0.00000000000E+00 0.  1.
</event>
<event>
 4    1  0.8284550E+003  0.6693356E+02  0.7546771E-02  0.1237935E+00
          2   -1    0    0  502    0  0.00000000000E+00  0.00000000000E+00  0.62023786439E+03  0.62023786439E+03  0.00000000000E+00 0. -1.
          1   -1    0    0  501    0 -0.00000000000E+00 -0.00000000000E+00 -0.28743197600E+02  0.28743197600E+02  0.00000000000E+00 0.  1.
          2    1    1    2  501    0  0.62490343757E+02 -0.23980370294E+02  0.57652050777E+03  0.58039296783E+03  0.00000000000E+00 0. -1.
          1    1    1    2  502    0 -0.62490343757E+02  0.23980370294E+02  0.14974159017E+02  0.68588094161E+02  0.00000000000E+00 0.  1.
</event>
<event>
 4    1  0.8284550E+003  0.2800758E+02  0.7546771E-02  0.1437741E+00
          2   -1    0    0  502    0  0.00000000000E+00  0.00000000000E+00  0.42413605658E+01  0.42413605658E+01  0.00000000000E+00 0. -1.
          1   -1    0    0  501    0 -0.00000000000E+00 -0.00000000000E+00 -0.58742677468E+03  0.58742677468E+03  0.00000000000E+00 0. -1.
          2    1    1    2  501    0  0.25247301846E+02  0.12124295455E+02 -0.46718176370E+02  0.54470292768E+02  0.00000000000E+00 0. -1.
          1    1    1    2  502    0 -0.25247301846E+02 -0.12124295455E+02 -0.53646723774E+03  0.53719784248E+03  0.00000000000E+00 0. -1.
</event>
<event>
 4    1  0.8284550E+003  0.3563590E+02  0.7546771E-02  0.1376147E+00
          2   -1    0    0  502    0  0.00000000000E+00  0.00000000000E+00  0.73275863934E+03  0.73275863934E+03  0.00000000000E+00 0.  1.
          1   -1    0    0  501    0 -0.00000000000E+00 -0.00000000000E+00 -0.74076654942E+02  0.74076654942E+02  0.00000000000E+00 0. -1.
          2    1    1    2  501    0  0.20403729014E+02 -0.29216517660E+02  0.72801162370E+03  0.72888328373E+03  0.00000000000E+00 0.  1.
          1    1    1    2  502    0 -0.20403729014E+02  0.29216517660E+02 -0.69329639306E+02  0.77952010546E+02  0.00000000000E+00 0. -1.
</event>
<event>
 4    1  0.8284550E+003  0.2391906E+02  0.7546771E-02  0.1481269E+00
          2   -1    0    0  502    0  0.00000000000E+00  0.00000000000E+00  0.95189336028E+02  0.95189336028E+02  0.00000000000E+00 0. -1.
          1   -1    0    0  501    0 -0.00000000000E+00 -0.00000000000E+00 -0.81979931528E+03  0.81979931528E+03  0.00000000000E+00 0. -1.
          2    1    1    2  501    0 -0.19015178291E+02  0.14510154053E+02  0.93509192443E+02  0.96519897676E+02  0.00000000000E+00 0. -1.
          1    1    1    2  502    0  0.19015178291E+02 -0.14510154053E+02 -0.81811917170E+03  0.81846875363E+03  0.00000000000E+00 0. -1.
</event>
<event>
 4    1  0.8284550E+003  0.2462599E+02  0.7546771E-02  0.1473031E+00
          2   -1    0    0  502    0  0.00000000000E+00  0.00000000000E+00  0.38034823374E+03  0.38034823374E+03  0.00000000000E+00 0.  1.
          1   -1    0    0  501    0 -0.00000000000E+00 -0.00000000000E+00 -0.37972222923E+01  0.37972222923E+01  0.00000000000E+00 0. -1.
          2    1    1    2  501    0  0.16794191013E+02  0.18010961480E+02  0.33456704901E+03  0.33547212979E+03  0.00000000000E+00 0.  1.
          1    1    1    2  502    0 -0.16794191013E+02 -0.18010961480E+02  0.41983962444E+02  0.48673326245E+02  0.00000000000E+00 0. -1.
</event>
<event>
 4    1  0.8284550E+003  0.2682004E+02  0.7546771E-02  0.1449424E+00
          2   -1    0    0  502    0  0.00000000000E+00  0.00000000000E+00  0.30590518085E+01  0.30590518085E+01  0.00000000000E+00 0.  1.
          1   -1    0    0  501    0 -0.00000000000E+00 -0.00000000000E+00 -0.47830926058E+03  0.47830926058E+03  0.00000000000E+00 0.  1.
          2    1    1    2  501    0  0.10665530961E+02 -0.24608145551E+02 -0.66014217301E+02  0.71254412242E+02  0.00000000000E+00 0.  1.
          1    1    1    2  502    0 -0.10665530961E+02  0.24608145551E+02 -0.40923599147E+03  0.41011390014E+03  0.00000000000E+00 0.  1.
</event>
<event>
 4    1  0.8284550E+003  0.2101318E+02  0.7546771E-02  0.1519077E+00
          2   -1    0    0  502    0  0.00000000000E+00  0.00000000000E+00  0.69799041363E+03  0.69799041363E+03  0.00000000000E+00 0. -1.
          1   -1    0    0  501    0 -0.00000000000E+00 -0.00000000000E+00 -0.10112475833E+01  0.10112475833E+01  0.00000000000E+00 0. -1.
          2    1    1    2  501    0  0.14311807814E+02  0.15385893062E+02  0.56235132715E+03  0.56274378602E+03  0.00000000000E+00 0. -1.
          1    1    1    2  502    0 -0.14311807814E+02 -0.15385893062E+02  0.13462783889E+03  0.13625787519E+03  0.00000000000E+00 0. -1.
</event>
<event>
 4    1  0.8284550E+003  0.6984683E+02  0.7546771E-02  0.1229609E+00
          2   -1    0    0  502    0  0.00000000000E+00  0.00000000000E+00  0.14540144990E+04  0.14540144990E+04  0.00000000000E+00 0.  1.
          1   -1    0    0  501    0 -0.00000000000E+00 -0.00000000000E+00 -0.77264955647E+01  0.77264955647E+01  0.00000000000E+00 0.  1.
          2    1    1    2  501    0  0.18396199106E+02 -0.67380706038E+02  0.12728770394E+04  0.12747919584E+04  0.00000000000E+00 0.  1.
          1    1    1    2  502    0 -0.18396199106E+02  0.67380706038E+02  0.17341096405E+03  0.18694903621E+03  0.00000000000E+00 0.  1.
</event>
<event>
 4    1  0.8284550E+003  0.2672419E+02  0.7546771E-02  0.1450398E+00
          2   -1    0    0  502    0  0.00000000000E+00  0.00000000000E+00  0.42978511742E+01  0.42978511742E+01  0.00000000000E+00 0. -1.
          1   -1    0    0  501    0 -0.00000000000E+00 -0.00000000000E+00 -0.20007709228E+03  0.20007709228E+03  0.00000000000E+00 0. -1.
          2    1    1    2  501    0  0.20083238563E+02 -0.17630825192E+02 -0.55823591137E+02  0.61890676160E+02  0.00000000000E+00 0. -1.
          1    1    1    2  502    0 -0.20083238563E+02  0.17630825192E+02 -0.13995564997E+03  0.14248426730E+03  0.00000000000E+00 0. -1.
</event>
<event>
 4    1  0.8284550E+003  0.2148802E+02  0.7546771E-02  0.1512410E+00
          2   -1    0    0  502    0  0.00000000000E+00  0.00000000000E+00  0.54910292200E+00  0.54910292200E+00  0.00000000000E+00 0. -1.
          1   -1    0    0  501    0 -0.00000000000E+00 -0.00000000000E+00 -0.97142376336E+03  0.97142376336E+03  0.00000000000E+00 0. -1.
          2    1    1    2  501    0  0.19241229900E+02 -0.95660997892E+01 -0.30728926870E+03  0.30803965629E+03  0.00000000000E+00 0. -1.
          1    1    1    2  502    0 -0.19241229900E+02  0.95660997892E+01 -0.66358539174E+03  0.66393320999E+03  0.00000000000E+00 0. -1.
</event>
<event>
 4    1  0.8284550E+003  0.2328752E+02  0.7546771E-02  0.1488919E+00
          2   -1    0    0  502    0  0.00000000000E+00  0.00000000000E+00  0.91616025776E+03  0.91616025776E+03  0.00000000000E+00 0.  1.
          1   -1    0    0  501    0 -0.00000000000E+00 -0.00000000000E+00 -0.67409301859E+02  0.67409301859E+02  0.00000000000E+00 0.  1.
          2    1    1    2  501    0 -0.16892035451E+02  0.16030208289E+02  0.91399626035E+03  0.91429288107E+03  0.00000000000E+00 0.  1.
          1    1    1    2  502    0  0.16892035451E+02 -0.16030208289E+02 -0.65245304444E+02  0.69276678554E+02  0.00000000000E+00 0.  1.
</event>
<event>
 4    1  0.8284550E+003  0.2337566E+02  0.7546771E-02  0.1487834E+00
          2   -1    0    0  502    0  0.00000000000E+00  0.00000000000E+00  0.16074216838E+01  0.16074216838E+01  0.00000000000E+00 0. -1.
          1   -1    0    0  501    0 -0.00000000000E+00 -0.00000000000E+00 -0.11039423240E+04  0.11039423240E+04  0.00000000000E+00 0.  1.
          2    1    1    2  501    0  0.20737486456E+02 -0.10787871113E+02 -0.91309818318E+02  0.94254466361E+02  0.00000000000E+00 0. -1.
          1    1    1    2  502    0 -0.20737486456E+02  0.10787871113E+02 -0.10110250840E+04  0.10112952793E+04  0.00000000000E+00 0.  1.
</event>
<event>
 4    1  0.8284550E+003  0.2082178E+02  0.7546771E-02  0.1521825E+00
          2   -1    0    0  502    0  0.00000000000E+00  0.00000000000E+00  0.11917348721E+04  0.11917348721E+04  0.00000000000E+00 0.  1.
          1   -1    0    0  501    0 -0.00000000000E+00 -0.00000000000E+00 -0.77442449118E+00  0.77442449118E+00  0.00000000000E+00 0.  1.
          2    1    1    2  501    0 -0.20761182582E+02 -0.15873949267E+01  0.10296580109E+04  0.10298685188E+04  0.00000000000E+00 0.  1.
          1    1    1    2  502    0  0.20761182582E+02  0.15873949267E+01  0.16130243667E+03  0.16264077779E+03  0.00000000000E+00 0.  1.
</event>
<event>
 4    1  0.8284550E+003  0.2070675E+02  0.7546771E-02  0.1523493E+00
          2   -1    0    0  502    0  0.00000000000E+00  0.00000000000E+00  0.11137072579E+02  0.11137072579E+02  0.00000000000E+00 0.  1.
          1   -1    0    0  501    0 -0.00000000000E+00 -0.00000000000E+00 -0.14615080532E+03  0.14615080532E+03  0.00000000000E+00 0. -1.
          2    1    1    2  501    0 -0.16945647117E+02  0.11900187959E+02 -0.11382212454E-01  0.20706751538E+02  0.00000000000E+00 0.  1.
          1    1    1    2  502    0  0.16945647117E+02 -0.11900187959E+02 -0.13500235053E+03  0.13658112636E+03  0.00000000000E+00 0. -1.
</event>
<event>
 4    1  0.8284550E+003  0.3460585E+02  0.7546771E-02  0.1383356E+00
          2   -1    0    0  502    0  0.00000000000E+00  0.00000000000E+00  0.19933626193E+03  0.19933626193E+03  0.00000000000E+00 0.  1.
          1   -1    0    0  501    0 -0.00000000000E+00 -0.00000000000E+00 -0.69450705856E+01  0.69450705856E+01  0.00000000000E+00 0.  1.
          2    1    1    2  501    0 -0.27970058117E+02  0.20377454649E+02  0.13408632025E+03  0.13847998443E+03  0.00000000000E+00 0.  1.
          1    1    1    2  502    0  0.27970058117E+02 -0.20377454649E+02  0.58304871092E+02  0.67801348085E+02  0.00000000000E+00 0.  1.
</event>
<event>
 4    1  0.8284550E+003  0.3206978E+02  0.7546771E-02  0.1402423E+00
          2   -1    0    0  502    0  0.00000000000E+00  0.00000000000E+00  0.78265209963E+03  0.78265209963E+03  0.00000000000E+00 0. -1.
          1   -1    0    0  501    0 -0.00000000000E+00 -0.00000000000E+00 -0.13652810257E+01  0.13652810257E+01  0.00000000000E+00 0. -1.
          2    1    1    2  501    0  0.11362036076E+02  0.29989560961E+02  0.31473108367E+03  0.31636075082E+03  0.00000000000E+00 0. -1.
          1    1    1    2  502    0 -0.11362036076E+02 -0.29989560961E+02  0.46655573493E+03  0.46765662983E+03  0.00000000000E+00 0. -1.
</event>
<event>
 4    1  0.8284550E+003  0.2457984E+02  0.7546771E-02  0.1473559E+00
          2   -1    0    0  502    0  0.00000000000E+00  0.00000000000E+00  0.29356524503E+03  0.29356524503E+03  0.00000000000E+00 0. -1.
          1   -1    0    0  501    0 -0.00000000000E+00 -0.00000000000E+00 -0.27962701955E+02  0.27962701955E+02  0.00000000000E+00 0. -1.
          2    1    1    2  501    0 -0.20800400151E+02  0.13096249717E+02  0.28753612470E+03  0.28858480801E+03  0.00000000000E+00 0. -1.
          1    1    1    2  502    0  0.20800400151E+02 -0.13096249717E+02 -0.21933581625E+02  0.32943138982E+02  0.00000000000E+00 0. -1.
</event>
<event>
 4    1  0.8284550E+003  0.3240267E+02  0.7546771E-02  0.1399804E+00
          2   -1    0    0  502    0  0.00000000000E+00  0.00000000000E+00  0.17600565194E+03  0.17600565194E+03  0.00000000000E+00 0.  1.
          1   -1    0    0  501    0 -0.00000000000E+00 -0.00000000000E+00 -0.15560971536E+02  0.15560971536E+02  0.00000000000E+00 0.  1.
          2    1    1    2  501    0  0.32314648479E+02  0.23867225579E+01  0.15543801463E+03  0.15877943614E+03  0.00000000000E+00 0.  1.
          1    1    1    2  502    0 -0.32314648479E+02 -0.23867225579E+01  0.50066657764E+01  0.32787187331E+02  0.00000000000E+00 0.  1.
</event>
<event>
 4    1  0.8284550E+003  0.2118051E+02  0.7546771E-02  0.1516703E+00
          2   -1    0    0  502    0  0.00000000000E+00  0.00000000000E+00  0.72845771124E+03  0.72845771124E+03  0.00000000000E+00 0. -1.
          1   -1    0    0  501    0 -0.00000000000E+00 -0.00000000000E+00 -0.10705549159E+01  0.10705549159E+01  0.00000000000E+00 0.  1.
          2    1    1    2  501    0  0.69818768864E+01 -0.19996682009E+02  0.60141971112E+03  0.60179255796E+03  0.00000000000E+00 0. -1.
          1    1    1    2  502    0 -0.69818768864E+01  0.19996682009E+02  0.12596744521E+03  0.12773570820E+03  0.00000000000E+00 0.  1.
</event>
<event>
 4    1  0.1965889E+004  0.2787101E+02  0.7546771E-02  0.1439049E+00
          2   -1    0    0  502    0  0.00000000000E+00  0.00000000000E+00  0.12102518745E+04  0.12102518745E+04  0.00000000000E+00 0.  1.
          1   -1    0    0  501    0 -0.00000000000E+00 -0.00000000000E+00 -0.60330928772E+03  0.60330928772E+03  0.00000000000E+00 0.  1.
          2    1    1    2  501    0  0.24526580843E+02  0.13237834898E+02  0.12097693965E+04  0.12100904041E+04  0.00000000000E+00 0.  1.
          1    1    1    2  502    0 -0.24526580843E+02 -0.13237834898E+02 -0.60282680969E+03  0.60347075813E+03  0.00000000000E+00 0.  1.
</event>
<event>
 4    1  0.8284550E+003  0.3275160E+02  0.7546771E-02  0.1397099E+00
          2   -1    0    0  502    0  0.00000000000E+00  0.00000000000E+00  0.16740243334E+01  0.16740243334E+01  0.00000000000E+00 0. -1.
          1   -1    0    0  501    0 -0.00000000000E+00 -0.00000000000E+00 -0.97736349006E+03  0.97736349006E+03  0.00000000000E+00 0.  1.
          2    1    1    2  501    0  0.32114861956E+02  0.64267470570E+01 -0.20057290742E+03  0.20322932522E+03  0.00000000000E+00 0. -1.
          1    1    1    2  502    0 -0.32114861956E+02 -0.64267470570E+01 -0.77511655830E+03  0.77580818917E+03  0.00000000000E+00 0.  1.
</event>
<event>
 4    1  0.8284550E+003  0.5899320E+02  0.7546771E-02  0.1263292E+00
          2   -1    0    0  502    0  0.00000000000E+00  0.00000000000E+00  0.54528806172E+02  0.54528806172E+02  0.00000000000E+00 0. -1.
          1   -1    0    0  501    0 -0.00000000000E+00 -0.00000000000E+00 -0.24629276667E+03  0.24629276667E+03  0.00000000000E+00 0.  1.
          2    1    1    2  501    0  0.42545840437E+02  0.40866239411E+02  0.33581858229E+02  0.67881803631E+02  0.00000000000E+00 0. -1.
          1    1    1    2  502    0 -0.42545840437E+02 -0.40866239411E+02 -0.22534581872E+03  0.23293976921E+03  0.00000000000E+00 0.  1.
</event>
<event>
 4    1  0.8284550E+003  0.2929460E+02  0.7546771E-02  0.1425827E+00
          2   -1    0    0  502    0  0.00000000000E+00  0.00000000000E+00  0.57000529129E+01  0.57000529129E+01  0.00000000000E+00 0.  1.
          1   -1    0    0  501    0 -0.00000000000E+00 -0.00000000000E+00 -0.42180111199E+03  0.42180111199E+03  0.00000000000E+00 0.  1.
          2    1    1    2  501    0  0.16480370623E+02 -0.24219227469E+02 -0.36641021458E+02  0.46912024562E+02  0.00000000000E+00 0.  1.
          1    1    1    2  502    0 -0.16480370623E+02  0.24219227469E+02 -0.37946003762E+03  0.38058914034E+03  0.00000000000E+00 0.  1.
</event>
<event>
 4    1  0.8284550E+003  0.2930326E+02  0.7546771E-02  0.1425749E+00
          2   -1    0    0  502    0  0.00000000000E+00  0.00000000000E+00  0.87824080285E+02  0.87824080285E+02  0.00000000000E+00 0. -1.
          1   -1    0    0  501    0 -0.00000000000E+00 -0.00000000000E+00 -0.16876859635E+02  0.16876859635E+02  0.00000000000E+00 0. -1.
          2    1    1    2  501    0 -0.27473024840E+02 -0.10193814555E+02  0.69427612313E+02  0.75358306115E+02  0.00000000000E+00 0. -1.
          1    1    1    2  502    0  0.27473024840E+02  0.10193814555E+02  0.15196083373E+01  0.29342633804E+02  0.00000000000E+00 0. -1.
</event>
<event>
 4    1  0.8284550E+003  0.3147697E+02  0.7546771E-02  0.1407182E+00
          2   -1    0    0  502    0  0.00000000000E+00  0.00000000000E+00  0.92564026237E+02  0.92564026237E+02  0.00000000000E+00 0.  1.
          1   -1    0    0  501    0 -0.00000000000E+00 -0.00000000000E+00 -0.18336159084E+02  0.18336159084E+02  0.00000000000E+00 0.  1.
          2    1    1    2  501    0 -0.20142454513E+02  0.24188447592E+02  0.72888436022E+02  0.79394732674E+02  0.00000000000E+00 0.  1.
          1    1    1    2  502    0  0.20142454513E+02 -0.24188447592E+02  0.13394311311E+01  0.31505452647E+02  0.00000000000E+00 0.  1.
</event>
<event>
 4    1  0.8284550E+003  0.2455616E+02  0.7546771E-02  0.1473830E+00
          2   -1    0    0  502    0  0.00000000000E+00  0.00000000000E+00  0.96580372960E+01  0.96580372960E+01  0.00000000000E+00 0. -1.
          1   -1    0    0  501    0 -0.00000000000E+00 -0.00000000000E+00 -0.28143593099E+03  0.28143593099E+03  0.00000000000E+00 0.  1.
          2    1    1    2  501    0 -0.24530636737E+02  0.11194197924E+01 -0.74975757666E+01  0.25675258163E+02  0.00000000000E+00 0. -1.
          1    1    1    2  502    0  0.24530636737E+02 -0.11194197924E+01 -0.26428031792E+03  0.26541871012E+03  0.00000000000E+00 0.  1.
</event>
<event>
 4    1  0.8284550E+003  0.2315956E+02  0.7546771E-02  0.1490504E+00
          2   -1    0    0  502    0  0.00000000000E+00  0.00000000000E+00  0.11578285159E+03  0.11578285159E+03  0.00000000000E+00 0. -1.
          1   -1    0    0  501    0 -0.00000000000E+00 -0.00000000000E+00 -0.11001364375E+04  0.11001364375E+04  0.00000000000E+00 0.  1.
          2    1    1    2  501    0 -0.52496893662E+00  0.23153611308E+02  0.11450148748E+03  0.11682018637E+03  0.00000000000E+00 0. -1.
          1    1    1    2  502    0  0.52496893662E+00 -0.23153611308E+02 -0.10988550734E+04  0.10990991027E+04  0.00000000000E+00 0.  1.
</event>
<event>
 4    1  0.8284550E+003  0.2305595E+02  0.7546771E-02  0.1491797E+00
          2   -1    0    0  502    0  0.00000000000E+00  0.00000000000E+00  0.92825519838E+03  0.92825519838E+03  0.00000000000E+00 0.  1.
          1   -1    0    0  501    0 -0.00000000000E+00 -0.00000000000E+00 -0.93550330276E+02  0.93550330276E+02  0.00000000000E+00 0. -1.
          2    1    1    2  501    0 -0.22960506463E+02 -0.20957253784E+01  0.92668906835E+03  0.92697583913E+03  0.00000000000E+00 0.  1.
          1    1    1    2  502    0  0.22960506463E+02  0.20957253784E+01 -0.91984200245E+02  0.94829689532E+02  0.00000000000E+00 0. -1.
</event>
<event>
 4    1  0.8284550E+003  0.2547870E+02  0.7546771E-02  0.1463519E+00
          2   -1    0    0  502    0  0.00000000000E+00  0.00000000000E+00  0.26068160313E+03  0.26068160313E+03  0.00000000000E+00 0.  1.
          1   -1    0    0  501    0 -0.00000000000E+00 -0.00000000000E+00 -0.60423029893E+01  0.60423029893E+01  0.00000000000E+00 0.  1.
          2    1    1    2  501    0 -0.25263737867E+02  0.33026852467E+01  0.22957122100E+03  0.23098075611E+03  0.00000000000E+00 0.  1.
          1    1    1    2  502    0  0.25263737867E+02 -0.33026852467E+01  0.25068079137E+02  0.35743150007E+02  0.00000000000E+00 0.  1.
</event>
<event>
 4    1  0.8284550E+003  0.3617709E+02  0.7546771E-02  0.1372472E+00
          2   -1    0    0  502    0  0.00000000000E+00  0.00000000000E+00  0.27213290172E+03  0.27213290172E+03  0.00000000000E+00 0. -1.
          1   -1    0    0  501    0 -0.00000000000E+00 -0.00000000000E+00 -0.52149692786E+01  0.52149692786E+01  0.00000000000E+00 0.  1.
          2    1    1    2  501    0 -0.32167069083E+02  0.16554803467E+02  0.17213387341E+03  0.17589443489E+03  0.00000000000E+00 0. -1.
          1    1    1    2  502    0  0.32167069083E+02 -0.16554803467E+02  0.94784059040E+02  0.10145343611E+03  0.00000000000E+00 0.  1.
</event>
<event>
 4    1  0.8284550E+003  0.2622648E+02  0.7546771E-02  0.1455537E+00
          2   -1    0    0  502    0  0.00000000000E+00  0.00000000000E+00  0.95052976540E+02  0.95052976540E+02  0.00000000000E+00 0.  1.
          1   -1    0    0  501    0 -0.00000000000E+00 -0.00000000000E+00 -0.10054988256E+03  0.10054988256E+03  0.00000000000E+00 0. -1.
          2    1    1    2  501    0  0.24598551890E+02  0.90961133382E+01  0.91468042106E+02  0.95153721733E+02  0.00000000000E+00 0.  1.
          1    1    1    2  502    0 -0.24598551890E+02 -0.90961133382E+01 -0.96964948122E+02  0.10044913736E+03  0.00000000000E+00 0. -1.
</event>
<event>
 4    1  0.1613895E+004  0.2538139E+02  0.7546771E-02  0.1464582E+00
          2   -1    0    0  502    0  0.00000000000E+00  0.00000000000E+00  0.17178516969E+04  0.17178516969E+04  0.00000000000E+00 0.  1.
          1   -1    0    0  501    0 -0.00000000000E+00 -0.00000000000E+00 -0.36827811654E+03  0.36827811654E+03  0.00000000000E+00 0. -1.
          2    1    1    2  501    0  0.23465415117E+02 -0.96741593508E+01  0.17173204931E+04  0.17175080468E+04  0.00000000000E+00 0.  1.
          1    1    1    2  502    0 -0.23465415117E+02  0.96741593508E+01 -0.36774691267E+03  0.36862176664E+03  0.00000000000E+00 0. -1.
</event>
<event>
 4    1  0.8284550E+003  0.6550726E+02  0.7546771E-02  0.1242188E+00
          2   -1    0    0  502    0  0.00000000000E+00  0.00000000000E+00  0.82113527824E+03  0.82113527824E+03  0.00000000000E+00 0.  1.
          1   -1    0    0  501    0 -0.00000000000E+00 -0.00000000000E+00 -0.65005278533E+02  0.65005278533E+02  0.00000000000E+00 0. -1.
          2    1    1    2  501    0  0.46494600713E+02  0.46145996205E+02  0.80295241861E+03  0.80562012600E+03  0.00000000000E+00 0.  1.
          1    1    1    2  502    0 -0.46494600713E+02 -0.46145996205E+02 -0.46822418899E+02  0.80520430779E+02  0.00000000000E+00 0. -1.
</event>
<event>
 4    1  0.8284550E+003  0.3191465E+02  0.7546771E-02  0.1403657E+00
          2   -1    0    0  502    0  0.00000000000E+00  0.00000000000E+00  0.12059499696E+03  0.12059499696E+03  0.00000000000E+00 0.  1.
          1   -1    0    0  501    0 -0.00000000000E+00 -0.00000000000E+00 -0.64703758556E+02  0.64703758556E+02  0.00000000000E+00 0.  1.
          2    1    1    2  501    0 -0.31607374706E+02  0.44180183613E+01  0.11433671350E+03  0.11870732528E+03  0.00000000000E+00 0.  1.
          1    1    1    2  502    0  0.31607374706E+02 -0.44180183613E+01 -0.58445475092E+02  0.66591430235E+02  0.00000000000E+00 0.  1.
</event>
<event>
 4    1  0.8284550E+003  0.3056088E+02  0.7546771E-02  0.1414784E+00
          2   -1    0    0  502    0  0.00000000000E+00  0.00000000000E+00  0.86923860522E+02  0.86923860522E+02  0.00000000000E+00 0.  1.
          1   -1    0    0  501    0 -0.00000000000E+00 -0.00000000000E+00 -0.52658662529E+03  0.52658662529E+03  0.00000000000E+00 0.  1.
          2    1    1    2  501    0 -0.19680685455E+02 -0.23380287681E+02  0.83778160338E+02  0.89178177721E+02  0.00000000000E+00 0.  1.
          1    1    1    2  502    0  0.19680685455E+02  0.23380287681E+02 -0.52344092511E+03  0.52433230809E+03  0.00000000000E+00 0.  1.
</event>
<event>
 4    1  0.8284550E+003  0.3016523E+02  0.7546771E-02  0.1418166E+00
          2   -1    0    0  502    0  0.00000000000E+00  0.00000000000E+00  0.57693626636E+03  0.57693626636E+03  0.00000000000E+00 0.  1.
          1   -1    0    0  501    0 -0.00000000000E+00 -0.00000000000E+00 -0.22733673394E+01  0.22733673394E+01  0.00000000000E+00 0. -1.
          2    1    1    2  501    0 -0.52316563968E+01  0.29708090363E+02  0.44759303189E+03  0.44860836267E+03  0.00000000000E+00 0.  1.
          1    1    1    2  502    0  0.52316563968E+01 -0.29708090363E+02  0.12706986712E+03  0.13060127102E+03  0.00000000000E+00 0. -1.
</event>
<event>
 4    1  0.8284550E+003  0.2395110E+02  0.7546771E-02  0.1480888E+00
          2   -1    0    0  502    0  0.00000000000E+00  0.00000000000E+00  0.20056279946E+03  0.20056279946E+03  0.00000000000E+00 0.  1.
          1   -1    0    0  501    0 -0.00000000000E+00 -0.00000000000E+00 -0.69515869396E+01  0.69515869396E+01  0.00000000000E+00 0.  1.
          2    1    1    2  501    0  0.23533433465E+02 -0.44533730339E+01  0.17640506406E+03  0.17802359857E+03  0.00000000000E+00 0.  1.
          1    1    1    2  502    0 -0.23533433465E+02  0.44533730339E+01  0.17206148465E+02  0.29490787833E+02  0.00000000000E+00 0.  1.
</event>
<event>
 4    1  0.8284550E+003  0.4524991E+02  0.7546771E-02  0.1320194E+00
          2   -1    0    0  502    0  0.00000000000E+00  0.00000000000E+00  0.11452818471E+04  0.11452818471E+04  0.00000000000E+00 0.  1.
          1   -1    0    0  501    0 -0.00000000000E+00 -0.00000000000E+00 -0.74097640828E+02  0.74097640828E+02  0.00000000000E+00 0. -1.
          2    1    1    2  501    0 -0.40074233039E+02  0.21014533223E+02  0.11378816832E+04  0.11387810500E+04  0.00000000000E+00 0.  1.
          1    1    1    2  502    0  0.40074233039E+02 -0.21014533223E+02 -0.66697476982E+02  0.80598437925E+02  0.00000000000E+00 0. -1.
</event>
<event>
 4    1  0.8284550E+003  0.4399353E+02  0.7546771E-02  0.1326549E+00
          2   -1    0    0  502    0  0.00000000000E+00  0.00000000000E+00  0.70958229492E+02  0.70958229492E+02  0.00000000000E+00 0. -1.
          1   -1    0    0  501    0 -0.00000000000E+00 -0.00000000000E+00 -0.53628532147E+03  0.53628532147E+03  0.00000000000E+00 0. -1.
          2    1    1    2  501    0 -0.37995193765E+02 -0.22176478886E+02  0.63136326747E+02  0.76952106665E+02  0.00000000000E+00 0. -1.
          1    1    1    2  502    0  0.37995193765E+02  0.22176478886E+02 -0.52846341873E+03  0.53029144430E+03  0.00000000000E+00 0. -1.
</event>
<event>
 4    1  0.8284550E+003  0.1949292E+03  0.7546771E-02  0.1058791E+00
          2   -1    0    0  502    0  0.00000000000E+00  0.00000000000E+00  0.41946253413E+03  0.41946253413E+03  0.00000000000E+00 0. -1.
          1   -1    0    0  501    0 -0.00000000000E+00 -0.00000000000E+00 -0.20843392891E+04  0.20843392891E+04  0.00000000000E+00 0.  1.
          2    1    1    2  501    0 -0.19287651756E+03 -0.28214052867E+02  0.39195640271E+03  0.43775244766E+03  0.00000000000E+00 0. -1.
          1    1    1    2  502    0  0.19287651756E+03  0.28214052867E+02 -0.20568331577E+04  0.20660493756E+04  0.00000000000E+00 0.  1.
</event>
<event>
 4    1  0.8284550E+003  0.2053434E+02  0.7546771E-02  0.1526018E+00
          2   -1    0    0  502    0  0.00000000000E+00  0.00000000000E+00  0.14974387854E+04  0.14974387854E+04  0.00000000000E+00 0. -1.
          1   -1    0    0  501    0 -0.00000000000E+00 -0.00000000000E+00 -0.17576316697E+01  0.17576316697E+01  0.00000000000E+00 0. -1.
          2    1    1    2  501    0 -0.17538061731E+02 -0.10680616374E+02  0.14347735567E+04  0.14349204920E+04  0.00000000000E+00 0. -1.
          1    1    1    2  502    0  0.17538061731E+02  0.10680616374E+02  0.60907596998E+02  0.64275925100E+02  0.00000000000E+00 0. -1.
</event>
<event>
 4    1  0.8284550E+003  0.2830139E+02  0.7546771E-02  0.1434956E+00
          2   -1    0    0  502    0  0.00000000000E+00  0.00000000000E+00  0.92106552541E+03  0.92106552541E+03  0.00000000000E+00 0. -1.
          1   -1    0    0  501    0 -0.00000000000E+00 -0.00000000000E+00 -0.14594750072E+03  0.14594750072E+03  0.00000000000E+00 0. -1.
          2    1    1    2  501    0  0.28109374025E+02  0.32911491927E+01  0.91947373315E+03  0.91990918819E+03  0.00000000000E+00 0. -1.
          1    1    1    2  502    0 -0.28109374025E+02 -0.32911491927E+01 -0.14435570845E+03  0.14710383793E+03  0.00000000000E+00 0. -1.
</event>
<event>
 4    1  0.8284550E+003  0.2490915E+02  0.7546771E-02  0.1469822E+00
          2   -1    0    0  502    0  0.00000000000E+00  0.00000000000E+00  0.63402931318E+01  0.63402931318E+01  0.00000000000E+00 0. -1.
          1   -1    0    0  501    0 -0.00000000000E+00 -0.00000000000E+00 -0.93288490784E+03  0.93288490784E+03  0.00000000000E+00 0.  1.
          2    1    1    2  501    0  0.24601623956E+02  0.39020261032E+01 -0.18973412335E+02  0.31312235382E+02  0.00000000000E+00 0. -1.
          1    1    1    2  502    0 -0.24601623956E+02 -0.39020261032E+01 -0.90757120237E+03  0.90791296559E+03  0.00000000000E+00 0.  1.
</event>
<event>
 4    1  0.8284550E+003  0.4796604E+02  0.7546771E-02  0.1307240E+00
          2   -1    0    0  502    0  0.00000000000E+00  0.00000000000E+00  0.20663614587E+03  0.20663614587E+03  0.00000000000E+00 0.  1.
          1   -1    0    0  501    0 -0.00000000000E+00 -0.00000000000E+00 -0.20293168029E+03  0.20293168029E+03  0.00000000000E+00 0. -1.
          2    1    1    2  501    0  0.32496961443E+02 -0.35280142339E+02  0.20093895227E+03  0.20658461580E+03  0.00000000000E+00 0.  1.
          1    1    1    2  502    0 -0.32496961443E+02  0.35280142339E+02 -0.19723448669E+03  0.20298321035E+03  0.00000000000E+00 0. -1.
</event>
<event>
 4    1  0.8284550E+003  0.2225602E+02  0.7546771E-02  0.1502058E+00
          2   -1    0    0  502    0  0.00000000000E+00  0.00000000000E+00  0.10815798889E+04  0.10815798889E+04  0.00000000000E+00 0.  1.
          1   -1    0    0  501    0 -0.00000000000E+00 -0.00000000000E+00 -0.23407660562E+02  0.23407660562E+02  0.00000000000E+00 0.  1.
          2    1    1    2  501    0  0.16171793091E+02  0.15290629767E+02  0.10761484409E+04  0.10763785566E+04  0.00000000000E+00 0.  1.
          1    1    1    2  502    0 -0.16171793091E+02 -0.15290629767E+02 -0.17976212607E+02  0.28608992820E+02  0.00000000000E+00 0.  1.
</event>
<event>
 4    1  0.8284550E+003  0.2029330E+02  0.7546771E-02  0.1529598E+00
          2   -1    0    0  502    0  0.00000000000E+00  0.00000000000E+00  0.96581873961E+03  0.96581873961E+03  0.00000000000E+00 0.  1.
          1   -1    0    0  501    0 -0.00000000000E+00 -0.00000000000E+00 -0.10457445566E+01  0.10457445566E+01  0.00000000000E+00 0.  1.
          2    1    1    2  501    0 -0.62135724170E+01  0.19318635921E+02  0.85442808209E+03  0.85466903866E+03  0.00000000000E+00 0.  1.
          1    1    1    2  502    0  0.62135724170E+01 -0.19318635921E+02  0.11034491297E+03  0.11219544551E+03  0.00000000000E+00 0.  1.
</event>
<event>
 4    1  0.8284550E+003  0.2098036E+02  0.7546771E-02  0.1519545E+00
          2   -1    0    0  502    0  0.00000000000E+00  0.00000000000E+00  0.10006403970E+02  0.10006403970E+02  0.00000000000E+00 0.  1.
          1   -1    0    0  501    0 -0.00000000000E+00 -0.00000000000E+00 -0.65405733393E+03  0.65405733393E+03  0.00000000000E+00 0. -1.
          2    1    1    2  501    0 -0.10143145220E+02  0.18365514283E+02 -0.13535197107E+01  0.21023975015E+02  0.00000000000E+00 0.  1.
          1    1    1    2  502    0  0.10143145220E+02 -0.18365514283E+02 -0.64269741024E+03  0.64303976288E+03  0.00000000000E+00 0. -1.
</event>
<event>
 4    1  0.8284550E+003  0.2762886E+02  0.7546771E-02  0.1441391E+00
          2   -1    0    0  502    0  0.00000000000E+00  0.00000000000E+00  0.12763752469E+03  0.12763752469E+03  0.00000000000E+00 0.  1.
          1   -1    0    0  501    0 -0.00000000000E+00 -0.00000000000E+00 -0.12311547993E+02  0.12311547993E+02  0.00000000000E+00 0.  1.
          2    1    1    2  501    0  0.47531971651E+01  0.27216929030E+02  0.10784137492E+03  0.11132437403E+03  0.00000000000E+00 0.  1.
          1    1    1    2  502    0 -0.47531971651E+01 -0.27216929030E+02  0.74846017763E+01  0.28624698651E+02  0.00000000000E+00 0.  1.
</event>
<event>
 4    1  0.8284550E+003  0.2565059E+02  0.7546771E-02  0.1461655E+00
          2   -1    0    0  502    0  0.00000000000E+00  0.00000000000E+00  0.51058476433E+03  0.51058476433E+03  0.00000000000E+00 0. -1.
          1   -1    0    0  501    0 -0.00000000000E+00 -0.00000000000E+00 -0.68246977091E+01  0.68246977091E+01  0.00000000000E+00 0. -1.
          2    1    1    2  501    0  0.17336414498E+02  0.18905059263E+02  0.48488411837E+03  0.48556210805E+03  0.00000000000E+00 0. -1.
          1    1    1    2  502    0 -0.17336414498E+02 -0.18905059263E+02  0.18875948255E+02  0.31847353986E+02  0.00000000000E+00 0. -1.
</event>
<event>
 4    1  0.8284550E+003  0.2405227E+02  0.7546771E-02  0.1479691E+00
          2   -1    0    0  502    0  0.00000000000E+00  0.00000000000E+00  0.70850880079E+02  0.70850880079E+02  0.00000000000E+00 0.  1.
          1   -1    0    0  501    0 -0.00000000000E+00 -0.00000000000E+00 -0.51154665671E+03  0.51154665671E+03  0.00000000000E+00 0.  1.
          2    1    1    2  501    0  0.24030174667E+02 -0.10307112590E+01  0.68517504486E+02  0.72616527603E+02  0.00000000000E+00 0.  1.
          1    1    1    2  502    0 -0.24030174667E+02  0.10307112590E+01 -0.50921328112E+03  0.50978100919E+03  0.00000000000E+00 0.  1.
</event>
<event>
 4    1  0.8284550E+003  0.5564758E+02  0.7546771E-02  0.1275383E+00
          2   -1    0    0  502    0  0.00000000000E+00  0.00000000000E+00  0.44573075587E+03  0.44573075587E+03  0.00000000000E+00 0.  1.
          1   -1    0    0  501    0 -0.00000000000E+00 -0.00000000000E+00 -0.18009520827E+03  0.18009520827E+03  0.00000000000E+00 0. -1.
          2    1    1    2  501    0 -0.54439313114E+02 -0.11533202976E+02  0.43963592422E+03  0.44314376837E+03  0.00000000000E+00 0.  1.
          1    1    1    2  502    0  0.54439313114E+02  0.11533202976E+02 -0.17400037662E+03  0.18268219576E+03  0.00000000000E+00 0. -1.
</event>
<event>
 4    1  0.8284550E+003  0.2520617E+02  0.7546771E-02  0.1466510E+00
          2   -1    0    0  502    0  0.00000000000E+00  0.00000000000E+00  0.81208439576E+01  0.81208439576E+01  0.00000000000E+00 0. -1.
          1   -1    0    0  501    0 -0.00000000000E+00 -0.00000000000E+00 -0.80574602816E+02  0.80574602816E+02  0.00000000000E+00 0. -1.
          2    1    1    2  501    0 -0.23889196463E+02  0.80409672990E+01 -0.28673294842E+02  0.38177332277E+02  0.00000000000E+00 0. -1.
          1    1    1    2  502    0  0.23889196463E+02 -0.80409672990E+01 -0.43780464017E+02  0.50518114496E+02  0.00000000000E+00 0. -1.
</event>
<event>
 4    1  0.8284550E+003  0.3195272E+02  0.7546771E-02  0.1403353E+00
          2   -1    0    0  502    0  0.00000000000E+00  0.00000000000E+00  0.14098901568E+03  0.14098901568E+03  0.00000000000E+00 0. -1.
          1   -1    0    0  501    0 -0.00000000000E+00 -0.00000000000E+00 -0.25800719632E+03  0.25800719632E+03  0.00000000000E+00 0. -1.
          2    1    1    2  501    0  0.45694457933E+00  0.31949447580E+02  0.13816941794E+03  0.14181595134E+03  0.00000000000E+00 0. -1.
          1    1    1    2  502    0 -0.45694457933E+00 -0.31949447580E+02 -0.25518759859E+03  0.25718026066E+03  0.00000000000E+00 0. -1.
</event>
<event>
 4    1  0.1099401E+004  0.2030670E+02  0.7546771E-02  0.1529398E+00
          2   -1    0    0  502    0  0.00000000000E+00  0.00000000000E+00  0.47315183057E+03  0.47315183057E+03  0.00000000000E+00 0. -1.
          1   -1    0    0  501    0 -0.00000000000E+00 -0.00000000000E+00 -0.86733536424E+02  0.86733536424E+02  0.00000000000E+00 0. -1.
          2    1    1    2  501    0  0.20287639298E+02 -0.87962393780E+00  0.47174181034E+03  0.47217867134E+03  0.00000000000E+00 0. -1.
          1    1    1    2  502    0 -0.20287639298E+02  0.87962393780E+00 -0.85323516194E+02  0.87706695652E+02  0.00000000000E+00 0. -1.
</event>
<event>
 4    1  0.8284550E+003  0.2069672E+02  0.7546771E-02  0.1523639E+00
          2   -1    0    0  502    0  0.00000000000E+00  0.00000000000E+00  0.29388651528E+03  0.29388651528E+03  0.00000000000E+00 0.  1.
          1   -1    0    0  501    0 -0.00000000000E+00 -0.00000000000E+00 -0.14928254970E+01  0.14928254970E+01  0.00000000000E+00 0.  1.
          2    1    1    2  501    0 -0.17836378481E+02  0.10498465582E+02  0.16889991269E+03  0.17016325891E+03  0.00000000000E+00 0.  1.
          1    1    1    2  502    0  0.17836378481E+02 -0.10498465582E+02  0.12349377709E+03  0.12521608186E+03  0.00000000000E+00 0.  1.
</event>
<event>
 4    1  0.8284550E+003  0.2846750E+02  0.7546771E-02  0.1433399E+00
          2   -1    0    0  502    0  0.00000000000E+00  0.00000000000E+00  0.22280343909E+01  0.22280343909E+01  0.00000000000E+00 0.  1.
          1   -1    0    0  501    0 -0.00000000000E+00 -0.00000000000E+00 -0.95997781418E+03  0.95997781418E+03  0.00000000000E+00 0. -1.
          2    1    1    2  501    0 -0.28428484100E+02  0.14898740933E+01 -0.99715743658E+02  0.10369970090E+03  0.00000000000E+00 0.  1.
          1    1    1    2  502    0  0.28428484100E+02 -0.14898740933E+01 -0.85803403613E+03  0.85850614767E+03  0.00000000000E+00 0. -1.
</event>
<event>
 4    1  0.8284550E+003  0.2230294E+02  0.7546771E-02  0.1501442E+00
          2   -1    0    0  502    0  0.00000000000E+00  0.00000000000E+00  0.47330370784E+02  0.47330370784E+02  0.00000000000E+00 0.  1.
          1   -1    0    0  501    0 -0.00000000000E+00 -0.00000000000E+00 -0.10527297749E+02  0.10527297749E+02  0.00000000000E+00 0.  1.
          2    1    1    2  501    0  0.19996903881E+02 -0.98764754836E+01  0.19589314259E+02  0.29684375789E+02  0.00000000000E+00 0.  1.
          1    1    1    2  502    0 -0.19996903881E+02  0.98764754836E+01  0.17213758776E+02  0.28173292744E+02  0.00000000000E+00 0.  1.
</event>
<event>
 4    1  0.8284550E+003  0.3214050E+02  0.7546771E-02  0.1401864E+00
          2   -1    0    0  502    0  0.00000000000E+00  0.00000000000E+00  0.49445470896E+03  0.49445470896E+03  0.00000000000E+00 0.  1.
          1   -1    0    0  501    0 -0.00000000000E+00 -0.00000000000E+00 -0.20929806667E+01  0.20929806667E+01  0.00000000000E+00 0.  1.
          2    1    1    2  501    0 -0.26537634021E+02  0.18131872603E+02  0.23561776346E+03  0.23779979244E+03  0.00000000000E+00 0.  1.
          1    1    1    2  502    0  0.26537634021E+02 -0.18131872603E+02  0.25674396482E+03  0.25874789718E+03  0.00000000000E+00 0.  1.
</event>
<event>
 4    1  0.8284550E+003  0.2001981E+02  0.7546771E-02  0.1533733E+00
          2   -1    0    0  502    0  0.00000000000E+00  0.00000000000E+00  0.46595004379E+02  0.46595004379E+02  0.00000000000E+00 0. -1.
          1   -1    0    0  501    0 -0.00000000000E+00 -0.00000000000E+00 -0.89635912160E+02  0.89635912160E+02  0.00000000000E+00 0.  1.
          2    1    1    2  501    0  0.15422539442E+02  0.12764714319E+02  0.43244353078E+02  0.47653611906E+02  0.00000000000E+00 0. -1.
          1    1    1    2  502    0 -0.15422539442E+02 -0.12764714319E+02 -0.86285260859E+02  0.88577304633E+02  0.00000000000E+00 0.  1.
</event>
<event>
 4    1  0.8284550E+003  0.2959093E+02  0.7546771E-02  0.1423185E+00
          2   -1    0    0  502    0  0.00000000000E+00  0.00000000000E+00  0.20834495388E+03  0.20834495388E+03  0.00000000000E+00 0.  1.
          1   -1    0    0  501    0 -0.00000000000E+00 -0.00000000000E+00 -0.40846504408E+02  0.40846504408E+02  0.00000000000E+00 0.  1.
          2    1    1    2  501    0 -0.11103704692E+02 -0.27428649806E+02  0.20176108379E+03  0.20391948906E+03  0.00000000000E+00 0.  1.
          1    1    1    2  502    0  0.11103704692E+02  0.27428649806E+02 -0.34262634311E+02  0.45271969230E+02  0.00000000000E+00 0.  1.
</event>
<event>
 4    1  0.8284550E+003  0.2840156E+02  0.7546771E-02  0.1434015E+00
          2   -1    0    0  502    0  0.00000000000E+00  0.00000000000E+00  0.36190376233E+01  0.36190376233E+01  0.00000000000E+00 0.  1.
          1   -1    0    0  501    0 -0.00000000000E+00 -0.00000000000E+00 -0.87325000966E+03  0.87325000966E+03  0.00000000000E+00 0.  1.
          2    1    1    2  501    0  0.19883788159E+02  0.20280130746E+02 -0.56449378995E+02  0.63191622257E+02  0.00000000000E+00 0.  1.
          1    1    1    2  502    0 -0.19883788159E+02 -0.20280130746E+02 -0.81318159305E+03  0.81367742503E+03  0.00000000000E+00 0.  1.
</event>
<event>
 4    1  0.8284550E+003  0.2465638E+02  0.7546771E-02  0.1472684E+00
          2   -1    0    0  502    0  0.00000000000E+00  0.00000000000E+00  0.30355835068E+02  0.30355835068E+02  0.00000000000E+00 0.  1.
          1   -1    0    0  501    0 -0.00000000000E+00 -0.00000000000E+00 -0.27743435586E+02  0.27743435586E+02  0.00000000000E+00 0. -1.
          2    1    1    2  501    0  0.13005692502E+02 -0.20947294358E+02  0.16626529954E+02  0.29738504950E+02  0.00000000000E+00 0.  1.
          1    1    1    2  502    0 -0.13005692502E+02  0.20947294358E+02 -0.14014130472E+02  0.28360765703E+02  0.00000000000E+00 0. -1.
</event>
<event>
 4    1  0.8284550E+003  0.2371420E+02  0.7546771E-02  0.1483719E+00
          2   -1    0    0  502    0  0.00000000000E+00  0.00000000000E+00  0.43659578671E+02  0.43659578671E+02  0.00000000000E+00 0. -1.
          1   -1    0    0  501    0 -0.00000000000E+00 -0.00000000000E+00 -0.12896164887E+02  0.12896164887E+02  0.00000000000E+00 0. -1.
          2    1    1    2  501    0 -0.23706309709E+02 -0.61137267412E+00  0.14400264538E+02  0.27744017650E+02  0.00000000000E+00 0. -1.
          1    1    1    2  502    0  0.23706309709E+02  0.61137267412E+00  0.16363149246E+02  0.28811725909E+02  0.00000000000E+00 0. -1.
</event>
<event>
 4    1  0.8284550E+003  0.2264140E+02  0.7546771E-02  0.1497051E+00
          2   -1    0    0  502    0  0.00000000000E+00  0.00000000000E+00  0.42022850559E+01  0.42022850559E+01  0.00000000000E+00 0.  1.
          1   -1    0    0  501    0 -0.00000000000E+00 -0.00000000000E+00 -0.23517977908E+03  0.23517977908E+03  0.00000000000E+00 0. -1.
          2    1    1    2  501    0 -0.15007520086E+02  0.16953091277E+02 -0.32452643887E+02  0.39570279986E+02  0.00000000000E+00 0.  1.
          1    1    1    2  502    0  0.15007520086E+02 -0.16953091277E+02 -0.19852485014E+03  0.19981178415E+03  0.00000000000E+00 0. -1.
</event>
<event>
 4    1  0.8284550E+003  0.2062297E+02  0.7546771E-02  0.1524716E+00
          2   -1    0    0  502    0  0.00000000000E+00  0.00000000000E+00  0.51027976861E+03  0.51027976861E+03  0.00000000000E+00 0.  1.
          1   -1    0    0  501    0 -0.00000000000E+00 -0.00000000000E+00 -0.10221819964E+02  0.10221819964E+02  0.00000000000E+00 0.  1.
          2    1    1    2  501    0  0.18335432499E+02  0.94402848979E+01  0.49944387473E+03  0.49986947403E+03  0.00000000000E+00 0.  1.
          1    1    1    2  502    0 -0.18335432499E+02 -0.94402848979E+01  0.61407392089E+00  0.20632114546E+02  0.00000000000E+00 0.  1.
</event>
<event>
 4    1  0.8284550E+003  0.2091175E+02  0.7546771E-02  0.1520529E+00
          2   -1    0    0  502    0  0.00000000000E+00  0.00000000000E+00  0.11435274136E+03  0.11435274136E+03  0.00000000000E+00 0. -1.
          1   -1    0    0  501    0 -0.00000000000E+00 -0.00000000000E+00 -0.15643350516E+02  0.15643350516E+02  0.00000000000E+00 0.  1.
          2    1    1    2  501    0  0.19894517736E+02 -0.64427910820E+01  0.10585223900E+03  0.10789809032E+03  0.00000000000E+00 0. -1.
          1    1    1    2  502    0 -0.19894517736E+02  0.64427910820E+01 -0.71428481591E+01  0.22098001555E+02  0.00000000000E+00 0.  1.
</event>
<event>
 4    1  0.8284550E+003  0.2195474E+02  0.7546771E-02  0.1506058E+00
          2   -1    0    0  502    0  0.00000000000E+00  0.00000000000E+00  0.42455666804E+03  0.42455666804E+03  0.00000000000E+00 0. -1.
          1   -1    0    0  501    0 -0.00000000000E+00 -0.00000000000E+00 -0.15077870052E+01  0.15077870052E+01  0.00000000000E+00 0.  1.
          2    1    1    2  501    0  0.21931298554E+02 -0.10143691007E+01  0.31740468204E+03  0.31816307608E+03  0.00000000000E+00 0. -1.
          1    1    1    2  502    0 -0.21931298554E+02  0.10143691007E+01  0.10564419900E+03  0.10790137897E+03  0.00000000000E+00 0.  1.
</event>
<event>
 4    1  0.8284550E+003  0.2599571E+02  0.7546771E-02  0.1457966E+00
          2   -1    0    0  502    0  0.00000000000E+00  0.00000000000E+00  0.43724285786E+03  0.43724285786E+03  0.00000000000E+00 0. -1.
          1   -1    0    0  501    0 -0.00000000000E+00 -0.00000000000E+00 -0.28438855833E+03  0.28438855833E+03  0.00000000000E+00 0.  1.
          2    1    1    2  501    0  0.73532404258E+01  0.24934053483E+02  0.43626107517E+03  0.43703489892E+03  0.00000000000E+00 0. -1.
          1    1    1    2  502    0 -0.73532404258E+01 -0.24934053483E+02 -0.28340677563E+03  0.28459651727E+03  0.00000000000E+00 0.  1.
</event>
<event>
 4    1  0.8284550E+003  0.2390513E+02  0.7546771E-02  0.1481435E+00
          2   -1    0    0  502    0  0.00000000000E+00  0.00000000000E+00  0.26543269425E+02  0.26543269425E+02  0.00000000000E+00 0.  1.
          1   -1    0    0  501    0 -0.00000000000E+00 -0.00000000000E+00 -0.45140818078E+02  0.45140818078E+02  0.00000000000E+00 0. -1.
          2    1    1    2  501    0 -0.14587597310E+02  0.18938246401E+02  0.16623374017E+02  0.29116863425E+02  0.00000000000E+00 0.  1.
          1    1    1    2  502    0  0.14587597310E+02 -0.18938246401E+02 -0.35220922670E+02  0.42567224078E+02  0.00000000000E+00 0. -1.
</event>
<event>
 4    1  0.8284550E+003  0.2324380E+02  0.7546771E-02  0.1489459E+00
          2   -1    0    0  502    0  0.00000000000E+00  0.00000000000E+00  0.11851486939E+04  0.11851486939E+04  0.00000000000E+00 0. -1.
          1   -1    0    0  501    0 -0.00000000000E+00 -0.00000000000E+00 -0.16840309632E+01  0.16840309632E+01  0.00000000000E+00 0.  1.
          2    1    1    2  501    0  0.23188528093E+02 -0.16019420802E+01  0.10985037092E+04  0.10987495953E+04  0.00000000000E+00 0. -1.
          1    1    1    2  502    0 -0.23188528093E+02  0.16019420802E+01  0.84960953800E+02  0.88083129623E+02  0.00000000000E+00 0.  1.
</event>
<event>
 4    1  0.8284550E+003  0.2029944E+02  0.7546771E-02  0.1529506E+00
          2   -1    0    0  502    0  0.00000000000E+00  0.00000000000E+00  0.13617080186E+02  0.13617080186E+02  0.00000000000E+00 0. -1.
          1   -1    0    0  501    0 -0.00000000000E+00 -0.00000000000E+00 -0.67315500282E+02  0.67315500282E+02  0.00000000000E+00 0.  1.
          2    1    1    2  501    0 -0.15133012188E+02  0.13529938405E+02  0.31739206857E+01  0.20546071733E+02  0.00000000000E+00 0. -1.
          1    1    1    2  502    0  0.15133012188E+02 -0.13529938405E+02 -0.56872340782E+02  0.60386508735E+02  0.00000000000E+00 0.  1.
</event>
<event>
 4    1  0.8284550E+003  0.4177620E+02  0.7546771E-02  0.1338380E+00
          2   -1    0    0  502    0  0.00000000000E+00  0.00000000000E+00  0.25494078493E+02  0.25494078493E+02  0.00000000000E+00 0. -1.
          1   -1    0    0  501    0 -0.00000000000E+00 -0.00000000000E+00 -0.15952064376E+03  0.15952064376E+03  0.00000000000E+00 0.  1.
          2    1    1    2  501    0 -0.40711994112E+02 -0.93693458529E+01  0.28807469230E+01  0.41875408166E+02  0.00000000000E+00 0. -1.
          1    1    1    2  502    0  0.40711994112E+02  0.93693458529E+01 -0.13690731219E+03  0.14313931408E+03  0.00000000000E+00 0.  1.
</event>
<event>
 4    1  0.8284550E+003  0.5323969E+02  0.7546771E-02  0.1284706E+00
          2   -1    0    0  502    0  0.00000000000E+00  0.00000000000E+00  0.11996620300E+04  0.11996620300E+04  0.00000000000E+00 0.  1.
          1   -1    0    0  501    0 -0.00000000000E+00 -0.00000000000E+00 -0.67298694954E+02  0.67298694954E+02  0.00000000000E+00 0.  1.
          2    1    1    2  501    0  0.53000485859E+02  0.50411720599E+01  0.11884425773E+04  0.11896344919E+04  0.00000000000E+00 0.  1.
          1    1    1    2  502    0 -0.53000485859E+02 -0.50411720599E+01 -0.56079242181E+02  0.77326233069E+02  0.00000000000E+00 0.  1.
</event>
<event>
 4    1  0.8284550E+003  0.2528651E+02  0.7546771E-02  0.1465624E+00
          2   -1    0    0  502    0  0.00000000000E+00  0.00000000000E+00  0.16447883076E+04  0.16447883076E+04  0.00000000000E+00 0.  1.
          1   -1    0    0  501    0 -0.00000000000E+00 -0.00000000000E+00 -0.75475454066E+00  0.75475454066E+00  0.00000000000E+00 0.  1.
          2    1    1    2  501    0  0.37255818810E+01  0.25010551780E+02  0.13949724102E+04  0.13952015742E+04  0.00000000000E+00 0.  1.
          1    1    1    2  502    0 -0.37255818810E+01 -0.25010551780E+02  0.24906114285E+03  0.25034148784E+03  0.00000000000E+00 0.  1.
</event>
<event>
 4    1  0.8284550E+003  0.2971685E+02  0.7546771E-02  0.1422073E+00
          2   -1    0    0  502    0  0.00000000000E+00  0.00000000000E+00  0.71337211215E+02  0.71337211215E+02  0.00000000000E+00 0.  1.
          1   -1    0    0  501    0 -0.00000000000E+00 -0.00000000000E+00 -0.61974941939E+02  0.61974941939E+02  0.00000000000E+00 0. -1.
          2    1    1    2  501    0 -0.93157692477E-01  0.29716707389E+02  0.64309686333E+02  0.70843680965E+02  0.00000000000E+00 0.  1.
          1    1    1    2  502    0  0.93157692477E-01 -0.29716707389E+02 -0.54947417056E+02  0.62468472189E+02  0.00000000000E+00 0. -1.
</event>
<event>
 4    1  0.8284550E+003  0.3962789E+02  0.7546771E-02  0.1350680E+00
          2   -1    0    0  502    0  0.00000000000E+00  0.00000000000E+00  0.23577789317E+02  0.23577789317E+02  0.00000000000E+00 0.  1.
          1   -1    0    0  501    0 -0.00000000000E+00 -0.00000000000E+00 -0.66608153378E+02  0.66608153378E+02  0.00000000000E+00 0.  1.
          2    1    1    2  501    0 -0.18524502271E+02  0.35031566692E+02 -0.21884172013E+02  0.45269027314E+02  0.00000000000E+00 0.  1.
          1    1    1    2  502    0  0.18524502271E+02 -0.35031566692E+02 -0.21146192047E+02  0.44916915381E+02  0.00000000000E+00 0.  1.
</event>
<event>
 4    1  0.8284550E+003  0.3074233E+02  0.7546771E-02  0.1413253E+00
          2   -1    0    0  502    0  0.00000000000E+00  0.00000000000E+00  0.47862521300E+01  0.47862521300E+01  0.00000000000E+00 0.  1.
          1   -1    0    0  501    0 -0.00000000000E+00 -0.00000000000E+00 -0.99076624542E+03  0.99076624542E+03  0.00000000000E+00 0. -1.
          2    1    1    2  501    0 -0.30741214783E+02  0.26149305152E+00 -0.47570564950E+02  0.56639644372E+02  0.00000000000E+00 0.  1.
          1    1    1    2  502    0  0.30741214783E+02 -0.26149305152E+00 -0.93840942834E+03  0.93891285318E+03  0.00000000000E+00 0. -1.
</event>
<event>
 4    1  0.8284550E+003  0.2046642E+02  0.7546771E-02  0.1527021E+00
          2   -1    0    0  502    0  0.00000000000E+00  0.00000000000E+00  0.37407064411E+03  0.37407064411E+03  0.00000000000E+00 0. -1.
          1   -1    0    0  501    0 -0.00000000000E+00 -0.00000000000E+00 -0.15017648911E+02  0.15017648911E+02  0.00000000000E+00 0. -1.
          2    1    1    2  501    0  0.17107263403E+02  0.11234593289E+02  0.36667717152E+03  0.36724790355E+03  0.00000000000E+00 0. -1.
          1    1    1    2  502    0 -0.17107263403E+02 -0.11234593289E+02 -0.76241763248E+01  0.21840389468E+02  0.00000000000E+00 0. -1.
</event>
<event>
 4    1  0.8284550E+003  0.2175101E+02  0.7546771E-02  0.1508807E+00
          2   -1    0    0  502    0  0.00000000000E+00  0.00000000000E+00  0.11526165030E+02  0.11526165030E+02  0.00000000000E+00 0.  1.
          1   -1    0    0  501    0 -0.00000000000E+00 -0.00000000000E+00 -0.18159343330E+03  0.18159343330E+03  0.00000000000E+00 0. -1.
          2    1    1    2  501    0  0.17299049365E+02 -0.13185191453E+02 -0.84826785114E-01  0.21751174179E+02  0.00000000000E+00 0.  1.
          1    1    1    2  502    0 -0.17299049365E+02  0.13185191453E+02 -0.16998244148E+03  0.17136842415E+03  0.00000000000E+00 0. -1.
</event>
<event>
 4    1  0.8284550E+003  0.2203103E+02  0.7546771E-02  0.1505038E+00
          2   -1    0    0  502    0  0.00000000000E+00  0.00000000000E+00  0.19680325361E+03  0.19680325361E+03  0.00000000000E+00 0. -1.
          1   -1    0    0  501    0 -0.00000000000E+00 -0.00000000000E+00 -0.41674365339E+01  0.41674365339E+01  0.00000000000E+00 0. -1.
          2    1    1    2  501    0  0.16033211117E+02 -0.15109674072E+02  0.16051925610E+03  0.16202406515E+03  0.00000000000E+00 0. -1.
          1    1    1    2  502    0 -0.16033211117E+02  0.15109674072E+02  0.32116560970E+02  0.38946624986E+02  0.00000000000E+00 0. -1.
</event>
<event>
 4    1  0.8284550E+003  0.6066638E+02  0.7546771E-02  0.1257585E+00
          2   -1    0    0  502    0  0.00000000000E+00  0.00000000000E+00  0.10117801840E+04  0.10117801840E+04  0.00000000000E+00 0.  1.
          1   -1    0    0  501    0 -0.00000000000E+00 -0.00000000000E+00 -0.48353637032E+01  0.48353637032E+01  0.00000000000E+00 0.  1.
          2    1    1    2  501    0 -0.25658765684E+01 -0.60612094532E+02  0.75646351708E+03  0.75889226007E+03  0.00000000000E+00 0.  1.
          1    1    1    2  502    0  0.25658765684E+01  0.60612094532E+02  0.25048130326E+03  0.25772328767E+03  0.00000000000E+00 0.  1.
</event>
<event>
 4    1  0.8284550E+003  0.3187477E+02  0.7546771E-02  0.1403975E+00
          2   -1    0    0  502    0  0.00000000000E+00  0.00000000000E+00  0.69073554564E+03  0.69073554564E+03  0.00000000000E+00 0. -1.
          1   -1    0    0  501    0 -0.00000000000E+00 -0.00000000000E+00 -0.72004966202E+01  0.72004966202E+01  0.00000000000E+00 0.  1.
          2    1    1    2  501    0 -0.51945676408E+01  0.31448651883E+02  0.65305849325E+03  0.65383590972E+03  0.00000000000E+00 0. -1.
          1    1    1    2  502    0  0.51945676408E+01 -0.31448651883E+02  0.30476555774E+02  0.44100132541E+02  0.00000000000E+00 0.  1.
</event>
<event>
 4    1  0.8284550E+003  0.2129397E+02  0.7546771E-02  0.1515109E+00
          2   -1    0    0  502    0  0.00000000000E+00  0.00000000000E+00  0.46464131468E+02  0.46464131468E+02  0.00000000000E+00 0. -1.
          1   -1    0    0  501    0 -0.00000000000E+00 -0.00000000000E+00 -0.10142093693E+02  0.10142093693E+02  0.00000000000E+00 0.  1.
          2    1    1    2  501    0 -0.16335242181E+02 -0.13659891485E+02  0.12658605458E+02  0.24772425489E+02  0.00000000000E+00 0. -1.
          1    1    1    2  502    0  0.16335242181E+02  0.13659891485E+02  0.23663432317E+02  0.31833799671E+02  0.00000000000E+00 0.  1.
</event>
<event>
 4    1  0.8284550E+003  0.2217836E+02  0.7546771E-02  0.1503081E+00
          2   -1    0    0  502    0  0.00000000000E+00  0.00000000000E+00  0.54843401763E+00  0.54843401763E+00  0.00000000000E+00 0. -1.
          1   -1    0    0  501    0 -0.00000000000E+00 -0.00000000000E+00 -0.10007098506E+04  0.10007098506E+04  0.00000000000E+00 0.  1.
          2    1    1    2  501    0 -0.86596923994E+01 -0.20417873075E+02 -0.33882244964E+03  0.33954754040E+03  0.00000000000E+00 0. -1.
          1    1    1    2  502    0  0.86596923994E+01  0.20417873075E+02 -0.66133896698E+03  0.66171074425E+03  0.00000000000E+00 0.  1.
</event>
<event>
 4    1  0.8284550E+003  0.2117892E+02  0.7546771E-02  0.1516726E+00
          2   -1    0    0  502    0  0.00000000000E+00  0.00000000000E+00  0.71275893541E+01  0.71275893541E+01  0.00000000000E+00 0.  1.
          1   -1    0    0  501    0 -0.00000000000E+00 -0.00000000000E+00 -0.74659767428E+02  0.74659767428E+02  0.00000000000E+00 0. -1.
          2    1    1    2  501    0 -0.13681880998E+02  0.16166407218E+02 -0.17557755634E+02  0.27510386636E+02  0.00000000000E+00 0.  1.
          1    1    1    2  502    0  0.13681880998E+02 -0.16166407218E+02 -0.49974422440E+02  0.54276970145E+02  0.00000000000E+00 0. -1.
</event>
<event>
 4    1  0.8284550E+003  0.2042508E+02  0.7546771E-02  0.1527634E+00
          2   -1    0    0  502    0  0.00000000000E+00  0.00000000000E+00  0.22224937213E+02  0.22224937213E+02  0.00000000000E+00 0.  1.
          1   -1    0    0  501    0 -0.00000000000E+00 -0.00000000000E+00 -0.31754260901E+03  0.31754260901E+03  0.00000000000E+00 0.  1.
          2    1    1    2  501    0  0.19164120051E+02  0.70654498802E+01  0.17127259700E+02  0.26655714287E+02  0.00000000000E+00 0.  1.
          1    1    1    2  502    0 -0.19164120051E+02 -0.70654498802E+01 -0.31244493150E+03  0.31311183193E+03  0.00000000000E+00 0.  1.
</event>
<event>
 4    1  0.8284550E+003  0.2235978E+02  0.7546771E-02  0.1500698E+00
          2   -1    0    0  502    0  0.00000000000E+00  0.00000000000E+00  0.49972182660E+03  0.49972182660E+03  0.00000000000E+00 0. -1.
          1   -1    0    0  501    0 -0.00000000000E+00 -0.00000000000E+00 -0.36082454504E+02  0.36082454504E+02  0.00000000000E+00 0. -1.
          2    1    1    2  501    0  0.21702755100E+02 -0.53805467965E+01  0.49598158888E+03  0.49648534356E+03  0.00000000000E+00 0. -1.
          1    1    1    2  502    0 -0.21702755100E+02  0.53805467965E+01 -0.32342216786E+02  0.39318937541E+02  0.00000000000E+00 0. -1.
</event>
<event>
 4    1  0.8284550E+003  0.3163977E+02  0.7546771E-02  0.1405863E+00
          2   -1    0    0  502    0  0.00000000000E+00  0.00000000000E+00  0.81149254362E+03  0.81149254362E+03  0.00000000000E+00 0. -1.
          1   -1    0    0  501    0 -0.00000000000E+00 -0.00000000000E+00 -0.47078962643E+01  0.47078962643E+01  0.00000000000E+00 0. -1.
          2    1    1    2  501    0  0.26809141442E+02  0.16803117123E+02  0.75397096607E+03  0.75463454234E+03  0.00000000000E+00 0. -1.
          1    1    1    2  502    0 -0.26809141442E+02 -0.16803117123E+02  0.52813681281E+02  0.61565897544E+02  0.00000000000E+00 0. -1.
</event>
<event>
 4    1  0.8284550E+003  0.2008078E+02  0.7546771E-02  0.1532804E+00
          2   -1    0    0  502    0  0.00000000000E+00  0.00000000000E+00  0.10768903122E+04  0.10768903122E+04  0.00000000000E+00 0.  1.
          1   -1    0    0  501    0 -0.00000000000E+00 -0.00000000000E+00 -0.47083271563E+00  0.47083271563E+00  0.00000000000E+00 0.  1.
          2    1    1    2  501    0  0.12491469917E+02 -0.15722629321E+02  0.78193766040E+03  0.78219546320E+03  0.00000000000E+00 0.  1.
          1    1    1    2  502    0 -0.12491469917E+02  0.15722629321E+02  0.29448181907E+03  0.29516568171E+03  0.00000000000E+00 0.  1.
</event>
<event>
 4    1  0.8284550E+003  0.2541732E+02  0.7546771E-02  0.1464189E+00
          2   -1    0    0  502    0  0.00000000000E+00  0.00000000000E+00  0.18863862388E+04  0.18863862388E+04  0.00000000000E+00 0. -1.
          1   -1    0    0  501    0 -0.00000000000E+00 -0.00000000000E+00 -0.35834205691E+00  0.35834205691E+00  0.00000000000E+00 0.  1.
          2    1    1    2  501    0  0.24095655723E+02  0.80894741621E+01  0.11415236618E+04  0.11418065995E+04  0.00000000000E+00 0. -1.
          1    1    1    2  502    0 -0.24095655723E+02 -0.80894741621E+01  0.74450423490E+03  0.74493798131E+03  0.00000000000E+00 0.  1.
</event>
<event>
 4    1  0.8284550E+003  0.2093654E+02  0.7546771E-02  0.1520173E+00
          2   -1    0    0  502    0  0.00000000000E+00  0.00000000000E+00  0.18194451752E+03  0.18194451752E+03  0.00000000000E+00 0.  1.
          1   -1    0    0  501    0 -0.00000000000E+00 -0.00000000000E+00 -0.28411367654E+03  0.28411367654E+03  0.00000000000E+00 0. -1.
          2    1    1    2  501    0  0.14463576614E+02 -0.15137486688E+02  0.18095441009E+03  0.18216156862E+03  0.00000000000E+00 0.  1.
          1    1    1    2  502    0 -0.14463576614E+02  0.15137486688E+02 -0.28312356911E+03  0.28389662544E+03  0.00000000000E+00 0. -1.
</event>
<event>
 4    1  0.8284550E+003  0.3271658E+02  0.7546771E-02  0.1397368E+00
          2   -1    0    0  502    0  0.00000000000E+00  0.00000000000E+00  0.43877817433E+04  0.43877817433E+04  0.00000000000E+00 0. -1.
          1   -1    0    0  501    0 -0.00000000000E+00 -0.00000000000E+00 -0.24553661952E+00  0.24553661952E+00  0.00000000000E+00 0. -1.
          2    1    1    2  501    0  0.32105381929E+02 -0.62942892604E+01  0.20170753787E+04  0.20173406894E+04  0.00000000000E+00 0. -1.
          1    1    1    2  502    0 -0.32105381929E+02  0.62942892604E+01  0.23704608280E+04  0.23706865905E+04  0.00000000000E+00 0. -1.
</event>
<event>
 4    1  0.8284550E+003  0.1187316E+03  0.7546771E-02  0.1134805E+00
          2   -1    0    0  502    0  0.00000000000E+00  0.00000000000E+00  0.74571476460E+02  0.74571476460E+02  0.00000000000E+00 0. -1.
          1   -1    0    0  501    0 -0.00000000000E+00 -0.00000000000E+00 -0.25333109455E+03  0.25333109455E+03  0.00000000000E+00 0. -1.
          2    1    1    2  501    0 -0.11453649630E+03  0.31282462024E+02 -0.67880916242E+01  0.11892552124E+03  0.00000000000E+00 0. -1.
          1    1    1    2  502    0  0.11453649630E+03 -0.31282462024E+02 -0.17197152647E+03  0.20897704977E+03  0.00000000000E+00 0. -1.
</event>
<event>
 4    1  0.8284550E+003  0.2680339E+02  0.7546771E-02  0.1449593E+00
          2   -1    0    0  502    0  0.00000000000E+00  0.00000000000E+00  0.14286211822E+04  0.14286211822E+04  0.00000000000E+00 0. -1.
          1   -1    0    0  501    0 -0.00000000000E+00 -0.00000000000E+00 -0.88207824861E+01  0.88207824861E+01  0.00000000000E+00 0.  1.
          2    1    1    2  501    0  0.12587289187E+02 -0.23663932412E+02  0.14078332158E+04  0.14080883442E+04  0.00000000000E+00 0. -1.
          1    1    1    2  502    0 -0.12587289187E+02  0.23663932412E+02  0.11967183946E+02  0.29353620524E+02  0.00000000000E+00 0.  1.
</event>
<event>
 4    1  0.8284550E+003  0.2455057E+02  0.7546771E-02  0.1473894E+00
          2   -1    0    0  502    0  0.00000000000E+00  0.00000000000E+00  0.44382299460E+03  0.44382299460E+03  0.00000000000E+00 0. -1.
          1   -1    0    0  501    0 -0.00000000000E+00 -0.00000000000E+00 -0.10769711767E+02  0.10769711767E+02  0.00000000000E+00 0. -1.
          2    1    1    2  501    0  0.13640200893E+02 -0.20412625610E+02  0.42900943268E+03  0.42971132600E+03  0.00000000000E+00 0. -1.
          1    1    1    2  502    0 -0.13640200893E+02  0.20412625610E+02  0.40438501485E+01  0.24881380362E+02  0.00000000000E+00 0. -1.
</event>
<event>
 4    1  0.8284550E+003  0.3503497E+02  0.7546771E-02  0.1380317E+00
          2   -1    0    0  502    0  0.00000000000E+00  0.00000000000E+00  0.44442910709E+03  0.44442910709E+03  0.00000000000E+00 0.  1.
          1   -1    0    0  501    0 -0.00000000000E+00 -0.00000000000E+00 -0.27795517884E+01  0.27795517884E+01  0.00000000000E+00 0.  1.
          2    1    1    2  501    0  0.21447374554E+02 -0.27703037993E+02  0.20298228300E+03  0.20598362896E+03  0.00000000000E+00 0.  1.
          1    1    1    2  502    0 -0.21447374554E+02  0.27703037993E+02  0.23866727230E+03  0.24122502991E+03  0.00000000000E+00 0.  1.
</event>
<event>
 4    1  0.8284550E+003  0.2364101E+02  0.7546771E-02  0.1484602E+00
          2   -1    0    0  502    0  0.00000000000E+00  0.00000000000E+00  0.79417298603E+03  0.79417298603E+03  0.00000000000E+00 0.  1.
          1   -1    0    0  501    0 -0.00000000000E+00 -0.00000000000E+00 -0.16711204326E+03  0.16711204326E+03  0.00000000000E+00 0. -1.
          2    1    1    2  501    0  0.23148463600E+02  0.48006254877E+01  0.79315986963E+03  0.79351211469E+03  0.00000000000E+00 0.  1.
          1    1    1    2  502    0 -0.23148463600E+02 -0.48006254877E+01 -0.16609892686E+03  0.16777291460E+03  0.00000000000E+00 0. -1.
</event>
<event>
 4    1  0.8284550E+003  0.2657291E+02  0.7546771E-02  0.1451946E+00
          2   -1    0    0  502    0  0.00000000000E+00  0.00000000000E+00  0.33064916951E+03  0.33064916951E+03  0.00000000000E+00 0. -1.
          1   -1    0    0  501    0 -0.00000000000E+00 -0.00000000000E+00 -0.35180029522E+01  0.35180029522E+01  0.00000000000E+00 0. -1.
          2    1    1    2  501    0  0.16331277653E+02 -0.20962084860E+02  0.26830496712E+03  0.26961764596E+03  0.00000000000E+00 0. -1.
          1    1    1    2  502    0 -0.16331277653E+02  0.20962084860E+02  0.58826199439E+02  0.64549526504E+02  0.00000000000E+00 0. -1.
</event>
<event>
 4    1  0.8284550E+003  0.3312371E+02  0.7546771E-02  0.1394257E+00
          2   -1    0    0  502    0  0.00000000000E+00  0.00000000000E+00  0.74183023677E+03  0.74183023677E+03  0.00000000000E+00 0. -1.
          1   -1    0    0  501    0 -0.00000000000E+00 -0.00000000000E+00 -0.20340155136E+01  0.20340155136E+01  0.00000000000E+00 0.  1.
          2    1    1    2  501    0  0.24522449472E+02  0.22267238363E+02  0.56417985625E+03  0.56515138736E+03  0.00000000000E+00 0. -1.
          1    1    1    2  502    0 -0.24522449472E+02 -0.22267238363E+02  0.17561636500E+03  0.17871286492E+03  0.00000000000E+00 0.  1.
</event>
<event>
 4    1  0.8284550E+003  0.3051253E+02  0.7546771E-02  0.1415194E+00
          2   -1    0    0  502    0  0.00000000000E+00  0.00000000000E+00  0.41968087352E+02  0.41968087352E+02  0.00000000000E+00 0.  1.
          1   -1    0    0  501    0 -0.00000000000E+00 -0.00000000000E+00 -0.24399163382E+02  0.24399163382E+02  0.00000000000E+00 0.  1.
          2    1    1    2  501    0 -0.16052028316E+02  0.25948930791E+02  0.18783355033E+02  0.35830560260E+02  0.00000000000E+00 0.  1.
          1    1    1    2  502    0  0.16052028316E+02 -0.25948930791E+02 -0.12144310635E+01  0.30536690474E+02  0.00000000000E+00 0.  1.
</event>
<event>
 4    1  0.8284550E+003  0.2012288E+02  0.7546771E-02  0.1532165E+00
          2   -1    0    0  502    0  0.00000000000E+00  0.00000000000E+00  0.22914182932E+02  0.22914182932E+02  0.00000000000E+00 0. -1.
          1   -1    0    0  501    0 -0.00000000000E+00 -0.00000000000E+00 -0.14625950459E+03  0.14625950459E+03  0.00000000000E+00 0.  1.
          2    1    1    2  501    0 -0.11608467047E+02 -0.16436967501E+02  0.17639689709E+02  0.26759840449E+02  0.00000000000E+00 0. -1.
          1    1    1    2  502    0  0.11608467047E+02  0.16436967501E+02 -0.14098501137E+03  0.14241384707E+03  0.00000000000E+00 0.  1.
</event>
<event>
 4    1  0.8284550E+003  0.5227069E+02  0.7546771E-02  0.1288617E+00
          2   -1    0    0  502    0  0.00000000000E+00  0.00000000000E+00  0.48096027784E+03  0.48096027784E+03  0.00000000000E+00 0. -1.
          1   -1    0    0  501    0 -0.00000000000E+00 -0.00000000000E+00 -0.64027001160E+01  0.64027001160E+01  0.00000000000E+00 0.  1.
          2    1    1    2  501    0 -0.40025566610E+02 -0.33618087920E+02  0.15545297151E+03  0.16400563457E+03  0.00000000000E+00 0. -1.
          1    1    1    2  502    0  0.40025566610E+02  0.33618087920E+02  0.31910460621E+03  0.32335734339E+03  0.00000000000E+00 0.  1.
</event>
<event>
 4    1  0.8284550E+003  0.2523075E+02  0.7546771E-02  0.1466238E+00
          2   -1    0    0  502    0  0.00000000000E+00  0.00000000000E+00  0.45800115365E+03  0.45800115365E+03  0.00000000000E+00 0. -1.
          1   -1    0    0  501    0 -0.00000000000E+00 -0.00000000000E+00 -0.16982697825E+01  0.16982697825E+01  0.00000000000E+00 0. -1.
          2    1    1    2  501    0 -0.23321214439E+02 -0.96286919197E+01  0.32608996407E+03  0.32706460435E+03  0.00000000000E+00 0. -1.
          1    1    1    2  502    0  0.23321214439E+02  0.96286919197E+01  0.13021291980E+03  0.13263481908E+03  0.00000000000E+00 0. -1.
</event>
<event>
 4    1  0.8284550E+003  0.2139896E+02  0.7546771E-02  0.1513644E+00
          2   -1    0    0  502    0  0.00000000000E+00  0.00000000000E+00  0.57475159805E+03  0.57475159805E+03  0.00000000000E+00 0. -1.
          1   -1    0    0  501    0 -0.00000000000E+00 -0.00000000000E+00 -0.83584675036E+00  0.83584675036E+00  0.00000000000E+00 0. -1.
          2    1    1    2  501    0  0.18503674829E+02  0.10748449844E+02  0.22469001793E+03  0.22570671083E+03  0.00000000000E+00 0. -1.
          1    1    1    2  502    0 -0.18503674829E+02 -0.10748449844E+02  0.34922573337E+03  0.34988073397E+03  0.00000000000E+00 0. -1.
</event>
<event>
 4    1  0.8284550E+003  0.3421665E+02  0.7546771E-02  0.1386156E+00
          2   -1    0    0  502    0  0.00000000000E+00  0.00000000000E+00  0.55812738759E+02  0.55812738759E+02  0.00000000000E+00 0. -1.
          1   -1    0    0  501    0 -0.00000000000E+00 -0.00000000000E+00 -0.76889358410E+02  0.76889358410E+02  0.00000000000E+00 0. -1.
          2    1    1    2  501    0  0.32184450822E+02 -0.11616371206E+02  0.46042468389E+02  0.57364517344E+02  0.00000000000E+00 0. -1.
          1    1    1    2  502    0 -0.32184450822E+02  0.11616371206E+02 -0.67119088040E+02  0.75337579826E+02  0.00000000000E+00 0. -1.
</event>
<event>
 4    1  0.8284550E+003  0.4739577E+02  0.7546771E-02  0.1309876E+00
          2   -1    0    0  502    0  0.00000000000E+00  0.00000000000E+00  0.50177334953E+03  0.50177334953E+03  0.00000000000E+00 0.  1.
          1   -1    0    0  501    0 -0.00000000000E+00 -0.00000000000E+00 -0.95521037821E+02  0.95521037821E+02  0.00000000000E+00 0. -1.
          2    1    1    2  501    0 -0.45529467231E+02 -0.13169171616E+02  0.49469093253E+03  0.49695621355E+03  0.00000000000E+00 0.  1.
          1    1    1    2  502    0  0.45529467231E+02  0.13169171616E+02 -0.88438620820E+02  0.10033817379E+03  0.00000000000E+00 0. -1.
</event>
<event>
 4    1  0.8284550E+003  0.6228736E+02  0.7546771E-02  0.1252253E+00
          2   -1    0    0  502    0  0.00000000000E+00  0.00000000000E+00  0.69083974881E+02  0.69083974881E+02  0.00000000000E+00 0. -1.
          1   -1    0    0  501    0 -0.00000000000E+00 -0.00000000000E+00 -0.17496524331E+04  0.17496524331E+04  0.00000000000E+00 0. -1.
          2    1    1    2  501    0  0.58691785474E+02 -0.20856411083E+02  0.54370738813E+02  0.82679458177E+02  0.00000000000E+00 0. -1.
          1    1    1    2  502    0 -0.58691785474E+02  0.20856411083E+02 -0.17349391970E+04  0.17360569498E+04  0.00000000000E+00 0. -1.
</event>
<event>
 4    1  0.8284550E+003  0.2109870E+02  0.7546771E-02  0.1517860E+00
          2   -1    0    0  502    0  0.00000000000E+00  0.00000000000E+00  0.55884469005E+03  0.55884469005E+03  0.00000000000E+00 0. -1.
          1   -1    0    0  501    0 -0.00000000000E+00 -0.00000000000E+00 -0.19548838172E+01  0.19548838172E+01  0.00000000000E+00 0.  1.
          2    1    1    2  501    0 -0.65412581724E+01 -0.20059089311E+02  0.49428473505E+03  0.49473483244E+03  0.00000000000E+00 0. -1.
          1    1    1    2  502    0  0.65412581724E+01  0.20059089311E+02  0.62605071178E+02  0.66064741426E+02  0.00000000000E+00 0.  1.
</event>
<event>
 4    1  0.8284550E+003  0.2413008E+02  0.7546771E-02  0.1478775E+00
          2   -1    0    0  502    0  0.00000000000E+00  0.00000000000E+00  0.36166890388E+03  0.36166890388E+03  0.00000000000E+00 0. -1.
          1   -1    0    0  501    0 -0.00000000000E+00 -0.00000000000E+00 -0.24457106787E+01  0.24457106787E+01  0.00000000000E+00 0.  1.
          2    1    1    2  501    0 -0.42124578147E+01  0.23759543708E+02  0.28603873509E+03  0.28705473117E+03  0.00000000000E+00 0. -1.
          1    1    1    2  502    0  0.42124578147E+01 -0.23759543708E+02  0.73184458108E+02  0.77059883380E+02  0.00000000000E+00 0.  1.
</event>
<event>
 4    1  0.8284550E+003  0.2107128E+02  0.7546771E-02  0.1518250E+00
          2   -1    0    0  502    0  0.00000000000E+00  0.00000000000E+00  0.44798791180E+01  0.44798791180E+01  0.00000000000E+00 0. -1.
          1   -1    0    0  501    0 -0.00000000000E+00 -0.00000000000E+00 -0.13543508756E+04  0.13543508756E+04  0.00000000000E+00 0.  1.
          2    1    1    2  501    0  0.23980366614E+01  0.20934374931E+02 -0.20851692527E+02  0.29644421310E+02  0.00000000000E+00 0. -1.
          1    1    1    2  502    0 -0.23980366614E+01 -0.20934374931E+02 -0.13290193039E+04  0.13291863334E+04  0.00000000000E+00 0.  1.
</event>
<event>
 4    1  0.8284550E+003  0.3825444E+02  0.7546771E-02  0.1359030E+00
          2   -1    0    0  502    0  0.00000000000E+00  0.00000000000E+00  0.27132375888E+03  0.27132375888E+03  0.00000000000E+00 0. -1.
          1   -1    0    0  501    0 -0.00000000000E+00 -0.00000000000E+00 -0.56704657949E+01  0.56704657949E+01  0.00000000000E+00 0.  1.
          2    1    1    2  501    0 -0.17665674647E+02 -0.33931194783E+02  0.16343178079E+03  0.16784918531E+03  0.00000000000E+00 0. -1.
          1    1    1    2  502    0  0.17665674647E+02  0.33931194783E+02  0.10222151230E+03  0.10914503936E+03  0.00000000000E+00 0.  1.
</event>
<event>
 4    1  0.8284550E+003  0.2915334E+02  0.7546771E-02  0.1427099E+00
          2   -1    0    0  502    0  0.00000000000E+00  0.00000000000E+00  0.11932714960E+03  0.11932714960E+03  0.00000000000E+00 0.  1.
          1   -1    0    0  501    0 -0.00000000000E+00 -0.00000000000E+00 -0.11271970553E+02  0.11271970553E+02  0.00000000000E+00 0.  1.
          2    1    1    2  501    0 -0.20762651214E+02 -0.20465327372E+02  0.93646490848E+02  0.98079470625E+02  0.00000000000E+00 0.  1.
          1    1    1    2  502    0  0.20762651214E+02  0.20465327372E+02  0.14408688200E+02  0.32519649529E+02  0.00000000000E+00 0.  1.
</event>
<event>
 4    1  0.8284550E+003  0.2545459E+02  0.7546771E-02  0.1463782E+00
          2   -1    0    0  502    0  0.00000000000E+00  0.00000000000E+00  0.21627261018E+03  0.21627261018E+03  0.00000000000E+00 0.  1.
          1   -1    0    0  501    0 -0.00000000000E+00 -0.00000000000E+00 -0.62600160072E+01  0.62600160072E+01  0.00000000000E+00 0.  1.
          2    1    1    2  501    0 -0.21820830775E+02  0.13106770799E+02  0.18535099743E+03  0.18709069551E+03  0.00000000000E+00 0.  1.
          1    1    1    2  502    0  0.21820830775E+02 -0.13106770799E+02  0.24661596740E+02  0.35441930679E+02  0.00000000000E+00 0.  1.
</event>
<event>
 4    1  0.8284550E+003  0.2742448E+02  0.7546771E-02  0.1443390E+00
          2   -1    0    0  502    0  0.00000000000E+00  0.00000000000E+00  0.10874949575E+02  0.10874949575E+02  0.00000000000E+00 0. -1.
          1   -1    0    0  501    0 -0.00000000000E+00 -0.00000000000E+00 -0.55318723845E+03  0.55318723845E+03  0.00000000000E+00 0. -1.
          2    1    1    2  501    0 -0.17180218841E+01 -0.27370609013E+02 -0.73431303065E+01  0.28390551239E+02  0.00000000000E+00 0. -1.
          1    1    1    2  502    0  0.17180218841E+01  0.27370609013E+02 -0.53496915857E+03  0.53567163679E+03  0.00000000000E+00 0. -1.
</event>
<event>
 4    1  0.8284550E+003  0.2215306E+02  0.7546771E-02  0.1503416E+00
          2   -1    0    0  502    0  0.00000000000E+00  0.00000000000E+00  0.28701000991E+02  0.28701000991E+02  0.00000000000E+00 0. -1.
          1   -1    0    0  501    0 -0.00000000000E+00 -0.00000000000E+00 -0.20024988236E+02  0.20024988236E+02  0.00000000000E+00 0.  1.
          2    1    1    2  501    0  0.60747682571E+01  0.21303875963E+02  0.13650844452E+02  0.26021212398E+02  0.00000000000E+00 0. -1.
          1    1    1    2  502    0 -0.60747682571E+01 -0.21303875963E+02 -0.49748316970E+01  0.22704776829E+02  0.00000000000E+00 0.  1.
</event>
<event>
 4    1  0.8284550E+003  0.2738776E+02  0.7546771E-02  0.1443751E+00
          2   -1    0    0  502    0  0.00000000000E+00  0.00000000000E+00  0.26879736463E+02  0.26879736463E+02  0.00000000000E+00 0.  1.
          1   -1    0    0  501    0 -0.00000000000E+00 -0.00000000000E+00 -0.48175863466E+03  0.48175863466E+03  0.00000000000E+00 0.  1.
          2    1    1    2  501    0 -0.12426511090E+02  0.24406375095E+02  0.19404278684E+02  0.33565091306E+02  0.00000000000E+00 0.  1.
          1    1    1    2  502    0  0.12426511090E+02 -0.24406375095E+02 -0.47428317688E+03  0.47507327982E+03  0.00000000000E+00 0.  1.
</event>
<event>
 4    1  0.8284550E+003  0.2182042E+02  0.7546771E-02  0.1507866E+00
          2   -1    0    0  502    0  0.00000000000E+00  0.00000000000E+00  0.83324668089E+00  0.83324668089E+00  0.00000000000E+00 0.  1.
          1   -1    0    0  501    0 -0.00000000000E+00 -0.00000000000E+00 -0.72565998916E+03  0.72565998916E+03  0.00000000000E+00 0. -1.
          2    1    1    2  501    0  0.10070519227E+02 -0.19357569719E+02 -0.19494280956E+03  0.19616021478E+03  0.00000000000E+00 0.  1.
          1    1    1    2  502    0 -0.10070519227E+02  0.19357569719E+02 -0.52988393292E+03  0.53033302107E+03  0.00000000000E+00 0. -1.
</event>
<event>
 4    1  0.8284550E+003  0.2294470E+02  0.7546771E-02  0.1493194E+00
          2   -1    0    0  502    0  0.00000000000E+00  0.00000000000E+00  0.23541501072E+03  0.23541501072E+03  0.00000000000E+00 0.  1.
          1   -1    0    0  501    0 -0.00000000000E+00 -0.00000000000E+00 -0.55581876306E+01  0.55581876306E+01  0.00000000000E+00 0.  1.
          2    1    1    2  501    0  0.22752447646E+02  0.29639905010E+01  0.20807446686E+03  0.20933571810E+03  0.00000000000E+00 0.  1.
          1    1    1    2  502    0 -0.22752447646E+02 -0.29639905010E+01  0.21782356223E+02  0.31637480244E+02  0.00000000000E+00 0.  1.
</event>
<event>
 4    1  0.8284550E+003  0.2508681E+02  0.7546771E-02  0.1467835E+00
          2   -1    0    0  502    0  0.00000000000E+00  0.00000000000E+00  0.18597509158E+02  0.18597509158E+02  0.00000000000E+00 0.  1.
          1   -1    0    0  501    0 -0.00000000000E+00 -0.00000000000E+00 -0.10354232083E+03  0.10354232083E+03  0.00000000000E+00 0.  1.
          2    1    1    2  501    0 -0.48395416554E+01 -0.24615585017E+02  0.76336902462E+01  0.26222536413E+02  0.00000000000E+00 0.  1.
          1    1    1    2  502    0  0.48395416554E+01  0.24615585017E+02 -0.92578501914E+02  0.95917293570E+02  0.00000000000E+00 0.  1.
</event>
<event>
 4    1  0.8284550E+003  0.2978937E+02  0.7546771E-02  0.1421436E+00
          2   -1    0    0  502    0  0.00000000000E+00  0.00000000000E+00  0.56304241525E+03  0.56304241525E+03  0.00000000000E+00 0. -1.
          1   -1    0    0  501    0 -0.00000000000E+00 -0.00000000000E+00 -0.23421867139E+01  0.23421867139E+01  0.00000000000E+00 0. -1.
          2    1    1    2  501    0 -0.27329177788E+02  0.11854234095E+02  0.44202567184E+03  0.44302833024E+03  0.00000000000E+00 0. -1.
          1    1    1    2  502    0  0.27329177788E+02 -0.11854234095E+02  0.11867455669E+03  0.12235627172E+03  0.00000000000E+00 0. -1.
</event>
<event>
 4    1  0.8284550E+003  0.3013031E+02  0.7546771E-02  0.1418467E+00
          2   -1    0    0  502    0  0.00000000000E+00  0.00000000000E+00  0.54631282797E+02  0.54631282797E+02  0.00000000000E+00 0. -1.
          1   -1    0    0  501    0 -0.00000000000E+00 -0.00000000000E+00 -0.29682162643E+02  0.29682162643E+02  0.00000000000E+00 0. -1.
          2    1    1    2  501    0 -0.13713735354E+02  0.26828513650E+02  0.40442988751E+02  0.50432836735E+02  0.00000000000E+00 0. -1.
          1    1    1    2  502    0  0.13713735354E+02 -0.26828513650E+02 -0.15493868597E+02  0.33880608704E+02  0.00000000000E+00 0. -1.
</event>
<event>
 4    1  0.8284550E+003  0.3054572E+02  0.7546771E-02  0.1414912E+00
          2   -1    0    0  502    0  0.00000000000E+00  0.00000000000E+00  0.69059814121E+01  0.69059814121E+01  0.00000000000E+00 0.  1.
          1   -1    0    0  501    0 -0.00000000000E+00 -0.00000000000E+00 -0.13582374194E+03  0.13582374194E+03  0.00000000000E+00 0.  1.
          2    1    1    2  501    0  0.23530553954E+02  0.19477007128E+02 -0.59271764794E+02  0.66679703643E+02  0.00000000000E+00 0.  1.
          1    1    1    2  502    0 -0.23530553954E+02 -0.19477007128E+02 -0.69645995735E+02  0.76050019710E+02  0.00000000000E+00 0.  1.
</event>
<event>
 4    1  0.8284550E+003  0.2658172E+02  0.7546771E-02  0.1451856E+00
          2   -1    0    0  502    0  0.00000000000E+00  0.00000000000E+00  0.10309890901E+04  0.10309890901E+04  0.00000000000E+00 0.  1.
          1   -1    0    0  501    0 -0.00000000000E+00 -0.00000000000E+00 -0.69409237395E+00  0.69409237395E+00  0.00000000000E+00 0. -1.
          2    1    1    2  501    0 -0.10514110242E+02  0.24413955873E+02  0.57304199539E+03  0.57365818763E+03  0.00000000000E+00 0.  1.
          1    1    1    2  502    0  0.10514110242E+02 -0.24413955873E+02  0.45725300235E+03  0.45802499486E+03  0.00000000000E+00 0. -1.
</event>
<event>
 4    1  0.8284550E+003  0.2246820E+02  0.7546771E-02  0.1499286E+00
          2   -1    0    0  502    0  0.00000000000E+00  0.00000000000E+00  0.57780623699E+02  0.57780623699E+02  0.00000000000E+00 0.  1.
          1   -1    0    0  501    0 -0.00000000000E+00 -0.00000000000E+00 -0.11996531896E+02  0.11996531896E+02  0.00000000000E+00 0. -1.
          2    1    1    2  501    0 -0.70170211212E+01 -0.21344350638E+02  0.41078326499E+02  0.46821456593E+02  0.00000000000E+00 0.  1.
          1    1    1    2  502    0  0.70170211212E+01  0.21344350638E+02  0.47057653041E+01  0.22955699002E+02  0.00000000000E+00 0. -1.
</event>
<event>
 4    1  0.8284550E+003  0.3295654E+02  0.7546771E-02  0.1395528E+00
          2   -1    0    0  502    0  0.00000000000E+00  0.00000000000E+00  0.56549029803E+03  0.56549029803E+03  0.00000000000E+00 0. -1.
          1   -1    0    0  501    0 -0.00000000000E+00 -0.00000000000E+00 -0.27834321101E+02  0.27834321101E+02  0.00000000000E+00 0. -1.
          2    1    1    2  501    0 -0.14421555824E+02  0.29633636150E+02  0.55507183663E+03  0.55604934806E+03  0.00000000000E+00 0. -1.
          1    1    1    2  502    0  0.14421555824E+02 -0.29633636150E+02 -0.17415859701E+02  0.37275271065E+02  0.00000000000E+00 0. -1.
</event>
<event>
 4    1  0.8284550E+003  0.2783524E+02  0.7546771E-02  0.1439394E+00
          2   -1    0    0  502    0  0.00000000000E+00  0.00000000000E+00  0.11340223931E+04  0.11340223931E+04  0.00000000000E+00 0. -1.
          1   -1    0    0  501    0 -0.00000000000E+00 -0.00000000000E+00 -0.75711112743E+01  0.75711112743E+01  0.00000000000E+00 0.  1.
          2    1    1    2  501    0 -0.25929832343E+01  0.27714206177E+02  0.11076586277E+04  0.11080083196E+04  0.00000000000E+00 0. -1.
          1    1    1    2  502    0  0.25929832343E+01 -0.27714206177E+02  0.18792654088E+02  0.33585184736E+02  0.00000000000E+00 0.  1.
</event>
<event>
 4    1  0.8284550E+003  0.2113270E+02  0.7546771E-02  0.1517379E+00
          2   -1    0    0  502    0  0.00000000000E+00  0.00000000000E+00  0.21726965767E+02  0.21726965767E+02  0.00000000000E+00 0.  1.
          1   -1    0    0  501    0 -0.00000000000E+00 -0.00000000000E+00 -0.22111839977E+03  0.22111839977E+03  0.00000000000E+00 0.  1.
          2    1    1    2  501    0 -0.12872813669E+02  0.16759529340E+02  0.15945739870E+02  0.26473718580E+02  0.00000000000E+00 0.  1.
          1    1    1    2  502    0  0.12872813669E+02 -0.16759529340E+02 -0.21533717388E+03  0.21637164696E+03  0.00000000000E+00 0.  1.
</event>
<event>
 4    1  0.8284550E+003  0.2088994E+02  0.7546771E-02  0.1520842E+00
          2   -1    0    0  502    0  0.00000000000E+00  0.00000000000E+00  0.13364199298E+04  0.13364199298E+04  0.00000000000E+00 0. -1.
          1   -1    0    0  501    0 -0.00000000000E+00 -0.00000000000E+00 -0.18857395866E+03  0.18857395866E+03  0.00000000000E+00 0.  1.
          2    1    1    2  501    0 -0.20700580495E+02  0.28063615827E+01  0.13357594705E+04  0.13359228094E+04  0.00000000000E+00 0. -1.
          1    1    1    2  502    0  0.20700580495E+02 -0.28063615827E+01 -0.18791349935E+03  0.18907107906E+03  0.00000000000E+00 0.  1.
</event>
<event>
 4    1  0.8284550E+003  0.2066784E+02  0.7546771E-02  0.1524061E+00
          2   -1    0    0  502    0  0.00000000000E+00  0.00000000000E+00  0.31256358334E+03  0.31256358334E+03  0.00000000000E+00 0. -1.
          1   -1    0    0  501    0 -0.00000000000E+00 -0.00000000000E+00 -0.27597552030E+02  0.27597552030E+02  0.00000000000E+00 0.  1.
          2    1    1    2  501    0  0.11065342724E+02  0.17456164811E+02  0.30829891672E+03  0.30899090853E+03  0.00000000000E+00 0. -1.
          1    1    1    2  502    0 -0.11065342724E+02 -0.17456164811E+02 -0.23332885415E+02  0.31170226841E+02  0.00000000000E+00 0.  1.
</event>
<event>
 4    1  0.8284550E+003  0.3665884E+02  0.7546771E-02  0.1369262E+00
          2   -1    0    0  502    0  0.00000000000E+00  0.00000000000E+00  0.39661032692E+03  0.39661032692E+03  0.00000000000E+00 0. -1.
          1   -1    0    0  501    0 -0.00000000000E+00 -0.00000000000E+00 -0.58050264641E+01  0.58050264641E+01  0.00000000000E+00 0. -1.
          2    1    1    2  501    0  0.15282997861E+02 -0.33321170281E+02  0.32522459733E+03  0.32728414127E+03  0.00000000000E+00 0. -1.
          1    1    1    2  502    0 -0.15282997861E+02  0.33321170281E+02  0.65580703124E+02  0.75131212121E+02  0.00000000000E+00 0. -1.
</event>
<event>
 4    1  0.8284550E+003  0.2795373E+02  0.7546771E-02  0.1438256E+00
          2   -1    0    0  502    0  0.00000000000E+00  0.00000000000E+00  0.10261384258E+02  0.10261384258E+02  0.00000000000E+00 0. -1.
          1   -1    0    0  501    0 -0.00000000000E+00 -0.00000000000E+00 -0.12343856622E+03  0.12343856622E+03  0.00000000000E+00 0. -1.
          2    1    1    2  501    0 -0.27922430580E+02 -0.13223631000E+01 -0.15212349056E+02  0.31824932638E+02  0.00000000000E+00 0. -1.
          1    1    1    2  502    0  0.27922430580E+02  0.13223631000E+01 -0.97964832903E+02  0.10187501784E+03  0.00000000000E+00 0. -1.
</event>
<event>
 4    1  0.8284550E+003  0.3120793E+02  0.7546771E-02  0.1409382E+00
          2   -1    0    0  502    0  0.00000000000E+00  0.00000000000E+00  0.15727680011E+03  0.15727680011E+03  0.00000000000E+00 0.  1.
          1   -1    0    0  501    0 -0.00000000000E+00 -0.00000000000E+00 -0.10789973367E+03  0.10789973367E+03  0.00000000000E+00 0.  1.
          2    1    1    2  501    0  0.28753816228E+02 -0.12130666396E+02  0.15341588942E+03  0.15655788113E+03  0.00000000000E+00 0.  1.
          1    1    1    2  502    0 -0.28753816228E+02  0.12130666396E+02 -0.10403882298E+03  0.10861865265E+03  0.00000000000E+00 0.  1.
</event>
<event>
 4    1  0.8284550E+003  0.3657019E+02  0.7546771E-02  0.1369848E+00
          2   -1    0    0  502    0  0.00000000000E+00  0.00000000000E+00  0.26163697172E+04  0.26163697172E+04  0.00000000000E+00 0. -1.
          1   -1    0    0  501    0 -0.00000000000E+00 -0.00000000000E+00 -0.10487941565E+02  0.10487941565E+02  0.00000000000E+00 0.  1.
          2    1    1    2  501    0 -0.30993607935E+02 -0.19410690119E+02  0.25839631819E+04  0.25842219534E+04  0.00000000000E+00 0. -1.
          1    1    1    2  502    0  0.30993607935E+02  0.19410690119E+02  0.21918593653E+02  0.42635705359E+02  0.00000000000E+00 0.  1.
</event>
<event>
 4    1  0.8284550E+003  0.2622930E+02  0.7546771E-02  0.1455507E+00
          2   -1    0    0  502    0  0.00000000000E+00  0.00000000000E+00  0.69321306150E+03  0.69321306150E+03  0.00000000000E+00 0.  1.
          1   -1    0    0  501    0 -0.00000000000E+00 -0.00000000000E+00 -0.15280229531E+02  0.15280229531E+02  0.00000000000E+00 0. -1.
          2    1    1    2  501    0 -0.25004020057E+02 -0.79230715135E+01  0.68151584517E+03  0.68202039801E+03  0.00000000000E+00 0.  1.
          1    1    1    2  502    0  0.25004020057E+02  0.79230715135E+01 -0.35830132047E+01  0.26472893020E+02  0.00000000000E+00 0. -1.
</event>
<event>
 4    1  0.8284550E+003  0.2076370E+02  0.7546771E-02  0.1522666E+00
          2   -1    0    0  502    0  0.00000000000E+00  0.00000000000E+00  0.11531149409E+04  0.11531149409E+04  0.00000000000E+00 0. -1.
          1   -1    0    0  501    0 -0.00000000000E+00 -0.00000000000E+00 -0.14607782393E+01  0.14607782393E+01  0.00000000000E+00 0. -1.
          2    1    1    2  501    0  0.20673200137E+02 -0.19364665913E+01  0.10737864908E+04  0.10739872247E+04  0.00000000000E+00 0. -1.
          1    1    1    2  502    0 -0.20673200137E+02  0.19364665913E+01  0.77867671897E+02  0.80588494424E+02  0.00000000000E+00 0. -1.
</event>
<event>
 4    1  0.8284550E+003  0.3030532E+02  0.7546771E-02  0.1416961E+00
          2   -1    0    0  502    0  0.00000000000E+00  0.00000000000E+00  0.75534601101E+01  0.75534601101E+01  0.00000000000E+00 0. -1.
          1   -1    0    0  501    0 -0.00000000000E+00 -0.00000000000E+00 -0.13194938533E+03  0.13194938533E+03  0.00000000000E+00 0.  1.
          2    1    1    2  501    0  0.25014013247E+02  0.17108819661E+02 -0.42652251811E+02  0.52322338953E+02  0.00000000000E+00 0. -1.
          1    1    1    2  502    0 -0.25014013247E+02 -0.17108819661E+02 -0.81743673406E+02  0.87180506484E+02  0.00000000000E+00 0.  1.
</event>
<event>
 4    1  0.8284550E+003  0.2795522E+02  0.7546771E-02  0.1438242E+00
          2   -1    0    0  502    0  0.00000000000E+00  0.00000000000E+00  0.16925728430E+03  0.16925728430E+03  0.00000000000E+00 0.  1.
          1   -1    0    0  501    0 -0.00000000000E+00 -0.00000000000E+00 -0.11405712630E+04  0.11405712630E+04  0.00000000000E+00 0.  1.
          2    1    1    2  501    0  0.17426694200E+02  0.21858737905E+02  0.16793034653E+03  0.17024128576E+03  0.00000000000E+00 0.  1.
          1    1    1    2  502    0 -0.17426694200E+02 -0.21858737905E+02 -0.11392443253E+04  0.11395872616E+04  0.00000000000E+00 0.  1.
</event>
<event>
 4    1  0.8284550E+003  0.4164672E+02  0.7546771E-02  0.1339097E+00
          2   -1    0    0  502    0  0.00000000000E+00  0.00000000000E+00  0.22535273211E+02  0.22535273211E+02  0.00000000000E+00 0.  1.
          1   -1    0    0  501    0 -0.00000000000E+00 -0.00000000000E+00 -0.27727783437E+03  0.27727783437E+03  0.00000000000E+00 0.  1.
          2    1    1    2  501    0  0.41634372159E+02 -0.10141588234E+01  0.42489282833E-01  0.41646743793E+02  0.00000000000E+00 0.  1.
          1    1    1    2  502    0 -0.41634372159E+02  0.10141588234E+01 -0.25478505044E+03  0.25816636379E+03  0.00000000000E+00 0.  1.
</event>
<event>
 4    1  0.8284550E+003  0.2010040E+02  0.7546771E-02  0.1532506E+00
          2   -1    0    0  502    0  0.00000000000E+00  0.00000000000E+00  0.94143304283E+03  0.94143304283E+03  0.00000000000E+00 0.  1.
          1   -1    0    0  501    0 -0.00000000000E+00 -0.00000000000E+00 -0.44098343569E+00  0.44098343569E+00  0.00000000000E+00 0. -1.
          2    1    1    2  501    0 -0.30411325491E+01 -0.19869009253E+02  0.54760619053E+03  0.54797496834E+03  0.00000000000E+00 0.  1.
          1    1    1    2  502    0  0.30411325491E+01  0.19869009253E+02  0.39338586887E+03  0.39389905793E+03  0.00000000000E+00 0. -1.
</event>
<event>
 4    1  0.8284550E+003  0.2053975E+02  0.7546771E-02  0.1525938E+00
          2   -1    0    0  502    0  0.00000000000E+00  0.00000000000E+00  0.20203508897E+02  0.20203508897E+02  0.00000000000E+00 0. -1.
          1   -1    0    0  501    0 -0.00000000000E+00 -0.00000000000E+00 -0.46589268738E+02  0.46589268738E+02  0.00000000000E+00 0. -1.
          2    1    1    2  501    0 -0.15517391114E+02  0.13457046121E+02  0.11614902275E+02  0.23596344466E+02  0.00000000000E+00 0. -1.
          1    1    1    2  502    0  0.15517391114E+02 -0.13457046121E+02 -0.38000662116E+02  0.43196433169E+02  0.00000000000E+00 0. -1.
</event>
<event>
 4    1  0.8284550E+003  0.2801504E+02  0.7546771E-02  0.1437670E+00
          2   -1    0    0  502    0  0.00000000000E+00  0.00000000000E+00  0.56640882425E+02  0.56640882425E+02  0.00000000000E+00 0.  1.
          1   -1    0    0  501    0 -0.00000000000E+00 -0.00000000000E+00 -0.71912638896E+02  0.71912638896E+02  0.00000000000E+00 0.  1.
          2    1    1    2  501    0 -0.21756107136E+02  0.17649773910E+02  0.50117255387E+02  0.57415868924E+02  0.00000000000E+00 0.  1.
          1    1    1    2  502    0  0.21756107136E+02 -0.17649773910E+02 -0.65389011858E+02  0.71137652397E+02  0.00000000000E+00 0.  1.
</event>
<event>
 4    1  0.8284550E+003  0.2642430E+02  0.7546771E-02  0.1453478E+00
          2   -1    0    0  502    0  0.00000000000E+00  0.00000000000E+00  0.10742472157E+04  0.10742472157E+04  0.00000000000E+00 0. -1.
          1   -1    0    0  501    0 -0.00000000000E+00 -0.00000000000E+00 -0.19587327771E+01  0.19587327771E+01  0.00000000000E+00 0.  1.
          2    1    1    2  501    0 -0.26259894670E+02 -0.29430157441E+01  0.97599561842E+03  0.97635326117E+03  0.00000000000E+00 0. -1.
          1    1    1    2  502    0  0.26259894670E+02  0.29430157441E+01  0.96292864524E+02  0.99852687335E+02  0.00000000000E+00 0.  1.
</event>
<event>
 4    1  0.9095763E+003  0.2678113E+02  0.7546771E-02  0.1449819E+00
          2   -1    0    0  502    0  0.00000000000E+00  0.00000000000E+00  0.18362566255E+04  0.18362566255E+04  0.00000000000E+00 0.  1.
          1   -1    0    0  501    0 -0.00000000000E+00 -0.00000000000E+00 -0.23846136072E+03  0.23846136072E+03  0.00000000000E+00 0. -1.
          2    1    1    2  501    0 -0.20602467086E+02  0.17110445111E+02  0.18354066949E+04  0.18356020714E+04  0.00000000000E+00 0.  1.
          1    1    1    2  502    0  0.20602467086E+02 -0.17110445111E+02 -0.23761143011E+03  0.23911591478E+03  0.00000000000E+00 0. -1.
</event>
<event>
 4    1  0.8284550E+003  0.2646715E+02  0.7546771E-02  0.1453035E+00
          2   -1    0    0  502    0  0.00000000000E+00  0.00000000000E+00  0.33975927412E+03  0.33975927412E+03  0.00000000000E+00 0. -1.
          1   -1    0    0  501    0 -0.00000000000E+00 -0.00000000000E+00 -0.46905529987E+01  0.46905529987E+01  0.00000000000E+00 0. -1.
          2    1    1    2  501    0 -0.26435284887E+02 -0.12983671946E+01  0.29646620940E+03  0.29764529790E+03  0.00000000000E+00 0. -1.
          1    1    1    2  502    0  0.26435284887E+02  0.12983671946E+01  0.38602511719E+02  0.46804529219E+02  0.00000000000E+00 0. -1.
</event>
<event>
 4    1  0.8284550E+003  0.2066183E+02  0.7546771E-02  0.1524148E+00
          2   -1    0    0  502    0  0.00000000000E+00  0.00000000000E+00  0.77442403400E+01  0.77442403400E+01  0.00000000000E+00 0.  1.
          1   -1    0    0  501    0 -0.00000000000E+00 -0.00000000000E+00 -0.16394212255E+03  0.16394212255E+03  0.00000000000E+00 0. -1.
          2    1    1    2  501    0 -0.20633505719E+02  0.10815204144E+01 -0.81620100256E+01  0.22215527280E+02  0.00000000000E+00 0.  1.
          1    1    1    2  502    0  0.20633505719E+02 -0.10815204144E+01 -0.14803587218E+03  0.14947083561E+03  0.00000000000E+00 0. -1.
</event>
<event>
 4    1  0.8284550E+003  0.2346828E+02  0.7546771E-02  0.1486700E+00
          2   -1    0    0  502    0  0.00000000000E+00  0.00000000000E+00  0.42085798582E+03  0.42085798582E+03  0.00000000000E+00 0. -1.
          1   -1    0    0  501    0 -0.00000000000E+00 -0.00000000000E+00 -0.13566475785E+01  0.13566475785E+01  0.00000000000E+00 0. -1.
          2    1    1    2  501    0  0.20656424834E+02 -0.11138746242E+02  0.17004622737E+03  0.17165802922E+03  0.00000000000E+00 0. -1.
          1    1    1    2  502    0 -0.20656424834E+02  0.11138746242E+02  0.24945511087E+03  0.25055660417E+03  0.00000000000E+00 0. -1.
</event>
<event>
 4    1  0.8284550E+003  0.2123818E+02  0.7546771E-02  0.1515891E+00
          2   -1    0    0  502    0  0.00000000000E+00  0.00000000000E+00  0.45898757680E+01  0.45898757680E+01  0.00000000000E+00 0.  1.
          1   -1    0    0  501    0 -0.00000000000E+00 -0.00000000000E+00 -0.10591920000E+04  0.10591920000E+04  0.00000000000E+00 0.  1.
          2    1    1    2  501    0 -0.17825010411E+02 -0.11546827600E+02 -0.20685335981E+02  0.29646978740E+02  0.00000000000E+00 0.  1.
          1    1    1    2  502    0  0.17825010411E+02  0.11546827600E+02 -0.10339167883E+04  0.10341348971E+04  0.00000000000E+00 0.  1.
</event>
<event>
 4    1  0.8284550E+003  0.2309024E+02  0.7546771E-02  0.1491368E+00
          2   -1    0    0  502    0  0.00000000000E+00  0.00000000000E+00  0.10719205482E+02  0.10719205482E+02  0.00000000000E+00 0. -1.
          1   -1    0    0  501    0 -0.00000000000E+00 -0.00000000000E+00 -0.16518462593E+03  0.16518462593E+03  0.00000000000E+00 0.  1.
          2    1    1    2  501    0  0.22849364508E+01  0.22976911305E+02 -0.37052119559E+01  0.23385636261E+02  0.00000000000E+00 0. -1.
          1    1    1    2  502    0 -0.22849364508E+01 -0.22976911305E+02 -0.15076020849E+03  0.15251819515E+03  0.00000000000E+00 0.  1.
</event>
<event>
 4    1  0.8284550E+003  0.4378415E+02  0.7546771E-02  0.1327632E+00
          2   -1    0    0  502    0  0.00000000000E+00  0.00000000000E+00  0.50977089918E+03  0.50977089918E+03  0.00000000000E+00 0. -1.
          1   -1    0    0  501    0 -0.00000000000E+00 -0.00000000000E+00 -0.44051280978E+02  0.44051280978E+02  0.00000000000E+00 0. -1.
          2    1    1    2  501    0 -0.17220579515E+02 -0.40255481226E+02  0.49768744336E+03  0.49960969106E+03  0.00000000000E+00 0. -1.
          1    1    1    2  502    0  0.17220579515E+02  0.40255481226E+02 -0.31967825163E+02  0.54212489089E+02  0.00000000000E+00 0. -1.
</event>
<event>
 4    1  0.8284550E+003  0.2754293E+02  0.7546771E-02  0.1442229E+00
          2   -1    0    0  502    0  0.00000000000E+00  0.00000000000E+00  0.18430503442E+04  0.18430503442E+04  0.00000000000E+00 0. -1.
          1   -1    0    0  501    0 -0.00000000000E+00 -0.00000000000E+00 -0.96652417867E+00  0.96652417867E+00  0.00000000000E+00 0. -1.
          2    1    1    2  501    0 -0.26775030916E+02 -0.64584006420E+01  0.16196642163E+04  0.16198983878E+04  0.00000000000E+00 0. -1.
          1    1    1    2  502    0  0.26775030916E+02  0.64584006420E+01  0.22241960372E+03  0.22411848058E+03  0.00000000000E+00 0. -1.
</event>
<event>
 4    1  0.8284550E+003  0.2784623E+02  0.7546771E-02  0.1439288E+00
          2   -1    0    0  502    0  0.00000000000E+00  0.00000000000E+00  0.28043003489E+03  0.28043003489E+03  0.00000000000E+00 0. -1.
          1   -1    0    0  501    0 -0.00000000000E+00 -0.00000000000E+00 -0.31982120923E+02  0.31982120923E+02  0.00000000000E+00 0.  1.
          2    1    1    2  501    0 -0.24739386649E+02 -0.12781830599E+02  0.27352484349E+03  0.27493863397E+03  0.00000000000E+00 0. -1.
          1    1    1    2  502    0  0.24739386649E+02  0.12781830599E+02 -0.25076929520E+02  0.37473521843E+02  0.00000000000E+00 0.  1.
</event>
<event>
 4    1  0.8284550E+003  0.2237678E+02  0.7546771E-02  0.1500476E+00
          2   -1    0    0  502    0  0.00000000000E+00  0.00000000000E+00  0.86226279909E+00  0.86226279909E+00  0.00000000000E+00 0. -1.
          1   -1    0    0  501    0 -0.00000000000E+00 -0.00000000000E+00 -0.10630831150E+04  0.10630831150E+04  0.00000000000E+00 0.  1.
          2    1    1    2  501    0 -0.21956717612E+02  0.43154354284E+01 -0.17276698017E+03  0.17421007396E+03  0.00000000000E+00 0. -1.
          1    1    1    2  502    0  0.21956717612E+02 -0.43154354284E+01 -0.88945387205E+03  0.88973530386E+03  0.00000000000E+00 0.  1.
</event>
<event>
 4    1  0.8284550E+003  0.2188002E+02  0.7546771E-02  0.1507062E+00
          2   -1    0    0  502    0  0.00000000000E+00  0.00000000000E+00  0.51643367163E+03  0.51643367163E+03  0.00000000000E+00 0. -1.
          1   -1    0    0  501    0 -0.00000000000E+00 -0.00000000000E+00 -0.84614871699E+01  0.84614871699E+01  0.00000000000E+00 0.  1.
          2    1    1    2  501    0 -0.15957034202E+02 -0.14970245279E+02  0.50164046746E+03  0.50211741035E+03  0.00000000000E+00 0. -1.
          1    1    1    2  502    0  0.15957034202E+02  0.14970245279E+02  0.63317169996E+01  0.22777748448E+02  0.00000000000E+00 0.  1.
</event>
<event>
 4    1  0.8284550E+003  0.2308275E+02  0.7546771E-02  0.1491462E+00
          2   -1    0    0  502    0  0.00000000000E+00  0.00000000000E+00  0.93714556834E+03  0.93714556834E+03  0.00000000000E+00 0.  1.
          1   -1    0    0  501    0 -0.00000000000E+00 -0.00000000000E+00 -0.35216296163E+01  0.35216296163E+01  0.00000000000E+00 0. -1.
          2    1    1    2  501    0  0.18939258854E+02  0.13195377623E+02  0.89750891339E+03  0.89780569342E+03  0.00000000000E+00 0.  1.
          1    1    1    2  502    0 -0.18939258854E+02 -0.13195377623E+02  0.36115025334E+02  0.42861504540E+02  0.00000000000E+00 0. -1.
</event>
<event>
 4    1  0.8284550E+003  0.4568140E+02  0.7546771E-02  0.1318067E+00
          2   -1    0    0  502    0  0.00000000000E+00  0.00000000000E+00  0.16216966649E+03  0.16216966649E+03  0.00000000000E+00 0.  1.
          1   -1    0    0  501    0 -0.00000000000E+00 -0.00000000000E+00 -0.13259671531E+02  0.13259671531E+02  0.00000000000E+00 0.  1.
          2    1    1    2  501    0 -0.35251412744E+02  0.29053854222E+02  0.59378394317E+02  0.74917169309E+02  0.00000000000E+00 0.  1.
          1    1    1    2  502    0  0.35251412744E+02 -0.29053854222E+02  0.89531600642E+02  0.10051216871E+03  0.00000000000E+00 0.  1.
</event>
<event>
 4    1  0.8284550E+003  0.2841413E+02  0.7546771E-02  0.1433898E+00
          2   -1    0    0  502    0  0.00000000000E+00  0.00000000000E+00  0.10129867782E+02  0.10129867782E+02  0.00000000000E+00 0.  1.
          1   -1    0    0  501    0 -0.00000000000E+00 -0.00000000000E+00 -0.79754293728E+02  0.79754293728E+02  0.00000000000E+00 0.  1.
          2    1    1    2  501    0 -0.23745930028E+02  0.15604252324E+02 -0.35972576673E+02  0.45840900471E+02  0.00000000000E+00 0.  1.
          1    1    1    2  502    0  0.23745930028E+02 -0.15604252324E+02 -0.33651849272E+02  0.44043261039E+02  0.00000000000E+00 0.  1.
</event>
<event>
 4    1  0.8284550E+003  0.2250338E+02  0.7546771E-02  0.1498830E+00
          2   -1    0    0  502    0  0.00000000000E+00  0.00000000000E+00  0.81868376206E+03  0.81868376206E+03  0.00000000000E+00 0.  1.
          1   -1    0    0  501    0 -0.00000000000E+00 -0.00000000000E+00 -0.26056090069E+02  0.26056090069E+02  0.00000000000E+00 0. -1.
          2    1    1    2  501    0 -0.13457039166E+02  0.18036355981E+02  0.81364024212E+03  0.81395137793E+03  0.00000000000E+00 0.  1.
          1    1    1    2  502    0  0.13457039166E+02 -0.18036355981E+02 -0.21012570127E+02  0.30788474200E+02  0.00000000000E+00 0. -1.
</event>
<event>
 4    1  0.8284550E+003  0.3250856E+02  0.7546771E-02  0.1398979E+00
          2   -1    0    0  502    0  0.00000000000E+00  0.00000000000E+00  0.44640803249E+01  0.44640803249E+01  0.00000000000E+00 0. -1.
          1   -1    0    0  501    0 -0.00000000000E+00 -0.00000000000E+00 -0.26139140979E+03  0.26139140979E+03  0.00000000000E+00 0. -1.
          2    1    1    2  501    0  0.16313644016E+02 -0.28118862608E+02 -0.16928923119E+03  0.17238227638E+03  0.00000000000E+00 0. -1.
          1    1    1    2  502    0 -0.16313644016E+02  0.28118862608E+02 -0.87638098280E+02  0.93473213732E+02  0.00000000000E+00 0. -1.
</event>
<event>
 4    1  0.8284550E+003  0.3590500E+02  0.7546771E-02  0.1374310E+00
          2   -1    0    0  502    0  0.00000000000E+00  0.00000000000E+00  0.55455670990E+02  0.55455670990E+02  0.00000000000E+00 0. -1.
          1   -1    0    0  501    0 -0.00000000000E+00 -0.00000000000E+00 -0.45986954353E+02  0.45986954353E+02  0.00000000000E+00 0.  1.
          2    1    1    2  501    0 -0.35201787973E+02  0.70712800521E+01  0.40401599860E+02  0.54050514792E+02  0.00000000000E+00 0. -1.
          1    1    1    2  502    0  0.35201787973E+02 -0.70712800521E+01 -0.30932883223E+02  0.47392110552E+02  0.00000000000E+00 0.  1.
</event>
<event>
 4    1  0.8284550E+003  0.5729914E+02  0.7546771E-02  0.1269296E+00
          2   -1    0    0  502    0  0.00000000000E+00  0.00000000000E+00  0.29950500358E+03  0.29950500358E+03  0.00000000000E+00 0.  1.
          1   -1    0    0  501    0 -0.00000000000E+00 -0.00000000000E+00 -0.44256819121E+02  0.44256819121E+02  0.00000000000E+00 0. -1.
          2    1    1    2  501    0  0.52981425231E+02  0.21821097751E+02  0.27670618825E+03  0.28257654953E+03  0.00000000000E+00 0.  1.
          1    1    1    2  502    0 -0.52981425231E+02 -0.21821097751E+02 -0.21458003792E+02  0.61185273174E+02  0.00000000000E+00 0. -1.
</event>
<event>
 4    1  0.8284550E+003  0.4436217E+02  0.7546771E-02  0.1324660E+00
          2   -1    0    0  502    0  0.00000000000E+00  0.00000000000E+00  0.49953606225E+01  0.49953606225E+01  0.00000000000E+00 0. -1.
          1   -1    0    0  501    0 -0.00000000000E+00 -0.00000000000E+00 -0.16156146154E+04  0.16156146154E+04  0.00000000000E+00 0. -1.
          2    1    1    2  501    0 -0.79567788488E+01  0.43642778441E+02 -0.10069318680E+03  0.11003236027E+03  0.00000000000E+00 0. -1.
          1    1    1    2  502    0  0.79567788488E+01 -0.43642778441E+02 -0.15099260680E+04  0.15105776158E+04  0.00000000000E+00 0. -1.
</event>
<event>
 4    1  0.8284550E+003  0.3547336E+02  0.7546771E-02  0.1377266E+00
          2   -1    0    0  502    0  0.00000000000E+00  0.00000000000E+00  0.78822526836E+03  0.78822526836E+03  0.00000000000E+00 0.  1.
          1   -1    0    0  501    0 -0.00000000000E+00 -0.00000000000E+00 -0.14232769707E+02  0.14232769707E+02  0.00000000000E+00 0. -1.
          2    1    1    2  501    0 -0.33401113082E+02  0.11946756255E+02  0.76505386454E+03  0.76587582217E+03  0.00000000000E+00 0.  1.
          1    1    1    2  502    0  0.33401113082E+02 -0.11946756255E+02  0.89386341162E+01  0.36582215898E+02  0.00000000000E+00 0. -1.
</event>
<event>
 4    1  0.8284550E+003  0.2949362E+02  0.7546771E-02  0.1424049E+00
          2   -1    0    0  502    0  0.00000000000E+00  0.00000000000E+00  0.38748973877E+01  0.38748973877E+01  0.00000000000E+00 0. -1.
          1   -1    0    0  501    0 -0.00000000000E+00 -0.00000000000E+00 -0.30072438876E+03  0.30072438876E+03  0.00000000000E+00 0.  1.
          2    1    1    2  501    0  0.29473501988E+02 -0.10892963590E+01 -0.71743110468E+02  0.77568987267E+02  0.00000000000E+00 0. -1.
          1    1    1    2  502    0 -0.29473501988E+02  0.10892963590E+01 -0.22510638091E+03  0.22703029888E+03  0.00000000000E+00 0.  1.
</event>
<event>
 4    1  0.8284550E+003  0.2135023E+02  0.7546771E-02  0.1514323E+00
          2   -1    0    0  502    0  0.00000000000E+00  0.00000000000E+00  0.70576849790E+03  0.70576849790E+03  0.00000000000E+00 0. -1.
          1   -1    0    0  501    0 -0.00000000000E+00 -0.00000000000E+00 -0.48177225741E+02  0.48177225741E+02  0.00000000000E+00 0.  1.
          2    1    1    2  501    0 -0.82372856369E+01 -0.19697189815E+02  0.70323311292E+03  0.70355713575E+03  0.00000000000E+00 0. -1.
          1    1    1    2  502    0  0.82372856369E+01  0.19697189815E+02 -0.45641840761E+02  0.50388587888E+02  0.00000000000E+00 0.  1.
</event>
<event>
 4    1  0.8284550E+003  0.4125411E+02  0.7546771E-02  0.1341289E+00
          2   -1    0    0  502    0  0.00000000000E+00  0.00000000000E+00  0.23161577696E+03  0.23161577696E+03  0.00000000000E+00 0.  1.
          1   -1    0    0  501    0 -0.00000000000E+00 -0.00000000000E+00 -0.90471919613E+02  0.90471919613E+02  0.00000000000E+00 0.  1.
          2    1    1    2  501    0  0.33869876642E+02 -0.23552770123E+02  0.22493747364E+03  0.22868924018E+03  0.00000000000E+00 0.  1.
          1    1    1    2  502    0 -0.33869876642E+02  0.23552770123E+02 -0.83793616298E+02  0.93398456393E+02  0.00000000000E+00 0.  1.
</event>
<event>
 4    1  0.8284550E+003  0.2446440E+02  0.7546771E-02  0.1474885E+00
          2   -1    0    0  502    0  0.00000000000E+00  0.00000000000E+00  0.10622991210E+03  0.10622991210E+03  0.00000000000E+00 0.  1.
          1   -1    0    0  501    0 -0.00000000000E+00 -0.00000000000E+00 -0.28606218371E+03  0.28606218371E+03  0.00000000000E+00 0.  1.
          2    1    1    2  501    0  0.14490617642E+02  0.19711129682E+02  0.10428873296E+03  0.10711977621E+03  0.00000000000E+00 0.  1.
          1    1    1    2  502    0 -0.14490617642E+02 -0.19711129682E+02 -0.28412100456E+03  0.28517231960E+03  0.00000000000E+00 0.  1.
</event>
<event>
 4    1  0.8284550E+003  0.2659936E+02  0.7546771E-02  0.1451675E+00
          2   -1    0    0  502    0  0.00000000000E+00  0.00000000000E+00  0.38542693178E+02  0.38542693178E+02  0.00000000000E+00 0.  1.
          1   -1    0    0  501    0 -0.00000000000E+00 -0.00000000000E+00 -0.44509361990E+02  0.44509361990E+02  0.00000000000E+00 0. -1.
          2    1    1    2  501    0  0.20150637230E+02  0.17363110014E+02  0.28847695494E+02  0.39239206229E+02  0.00000000000E+00 0.  1.
          1    1    1    2  502    0 -0.20150637230E+02 -0.17363110014E+02 -0.34814364305E+02  0.43812848939E+02  0.00000000000E+00 0. -1.
</event>
<event>
 4    1  0.8284550E+003  0.2286432E+02  0.7546771E-02  0.1494209E+00
          2   -1    0    0  502    0  0.00000000000E+00  0.00000000000E+00  0.89314769014E+01  0.89314769014E+01  0.00000000000E+00 0.  1.
          1   -1    0    0  501    0 -0.00000000000E+00 -0.00000000000E+00 -0.77704254255E+03  0.77704254255E+03  0.00000000000E+00 0.  1.
          2    1    1    2  501    0 -0.12431514507E+02  0.19189435493E+02 -0.61594620297E+01  0.23679441716E+02  0.00000000000E+00 0.  1.
          1    1    1    2  502    0  0.12431514507E+02 -0.19189435493E+02 -0.76195160362E+03  0.76229457774E+03  0.00000000000E+00 0.  1.
</event>
<event>
 4    1  0.8284550E+003  0.4034297E+02  0.7546771E-02  0.1346488E+00
          2   -1    0    0  502    0  0.00000000000E+00  0.00000000000E+00  0.23850081958E+02  0.23850081958E+02  0.00000000000E+00 0.  1.
          1   -1    0    0  501    0 -0.00000000000E+00 -0.00000000000E+00 -0.16399368379E+03  0.16399368379E+03  0.00000000000E+00 0.  1.
          2    1    1    2  501    0  0.35607046065E+02 -0.18965588462E+02  0.16958172581E+01  0.40378596699E+02  0.00000000000E+00 0.  1.
          1    1    1    2  502    0 -0.35607046065E+02  0.18965588462E+02 -0.14183941909E+03  0.14746516905E+03  0.00000000000E+00 0.  1.
</event>
<event>
 4    1  0.8284550E+003  0.2080095E+02  0.7546771E-02  0.1522126E+00
          2   -1    0    0  502    0  0.00000000000E+00  0.00000000000E+00  0.14512016182E+04  0.14512016182E+04  0.00000000000E+00 0.  1.
          1   -1    0    0  501    0 -0.00000000000E+00 -0.00000000000E+00 -0.98860534506E+00  0.98860534506E+00  0.00000000000E+00 0. -1.
          2    1    1    2  501    0  0.18733666218E+02 -0.90404183025E+01  0.13319113557E+04  0.13320737738E+04  0.00000000000E+00 0.  1.
          1    1    1    2  502    0 -0.18733666218E+02  0.90404183025E+01  0.11830165721E+03  0.12011644979E+03  0.00000000000E+00 0. -1.
</event>
<event>
 4    1  0.8284550E+003  0.4324695E+02  0.7546771E-02  0.1330442E+00
          2   -1    0    0  502    0  0.00000000000E+00  0.00000000000E+00  0.13581927400E+02  0.13581927400E+02  0.00000000000E+00 0.  1.
          1   -1    0    0  501    0 -0.00000000000E+00 -0.00000000000E+00 -0.40490724525E+03  0.40490724525E+03  0.00000000000E+00 0. -1.
          2    1    1    2  501    0 -0.41561784817E+02 -0.11954789206E+02 -0.25683165626E+02  0.50298349264E+02  0.00000000000E+00 0.  1.
          1    1    1    2  502    0  0.41561784817E+02  0.11954789206E+02 -0.36564215222E+03  0.36819082338E+03  0.00000000000E+00 0. -1.
</event>
<event>
 4    1  0.8284550E+003  0.2541670E+02  0.7546771E-02  0.1464195E+00
          2   -1    0    0  502    0  0.00000000000E+00  0.00000000000E+00  0.66819735760E+00  0.66819735760E+00  0.00000000000E+00 0. -1.
          1   -1    0    0  501    0 -0.00000000000E+00 -0.00000000000E+00 -0.10996483493E+04  0.10996483493E+04  0.00000000000E+00 0. -1.
          2    1    1    2  501    0  0.52169966615E+01 -0.24875506285E+02 -0.74071824824E+03  0.74115418851E+03  0.00000000000E+00 0. -1.
          1    1    1    2  502    0 -0.52169966615E+01  0.24875506285E+02 -0.35826190367E+03  0.35916235812E+03  0.00000000000E+00 0. -1.
</event>
<event>
 4    1  0.8284550E+003  0.6257139E+02  0.7546771E-02  0.1251338E+00
          2   -1    0    0  502    0  0.00000000000E+00  0.00000000000E+00  0.27290047947E+02  0.27290047947E+02  0.00000000000E+00 0. -1.
          1   -1    0    0  501    0 -0.00000000000E+00 -0.00000000000E+00 -0.36353702887E+03  0.36353702887E+03  0.00000000000E+00 0.  1.
          2    1    1    2  501    0 -0.49951207898E+02 -0.37683623038E+02 -0.16081930867E+02  0.64605008445E+02  0.00000000000E+00 0. -1.
          1    1    1    2  502    0  0.49951207898E+02  0.37683623038E+02 -0.32016505005E+03  0.32622206837E+03  0.00000000000E+00 0.  1.
</event>
<event>
 4    1  0.8284550E+003  0.5902234E+02  0.7546771E-02  0.1263191E+00
          2   -1    0    0  502    0  0.00000000000E+00  0.00000000000E+00  0.15352808691E+02  0.15352808691E+02  0.00000000000E+00 0.  1.
          1   -1    0    0  501    0 -0.00000000000E+00 -0.00000000000E+00 -0.15548872770E+04  0.15548872770E+04  0.00000000000E+00 0.  1.
          2    1    1    2  501    0 -0.44856726209E+02 -0.38360280302E+02 -0.44191642916E+02  0.73732884757E+02  0.00000000000E+00 0.  1.
          1    1    1    2  502    0  0.44856726209E+02  0.38360280302E+02 -0.14953428253E+04  0.14965072009E+04  0.00000000000E+00 0.  1.
</event>
<event>
 4    1  0.8284550E+003  0.3691440E+02  0.7546771E-02  0.1367582E+00
          2   -1    0    0  502    0  0.00000000000E+00  0.00000000000E+00  0.19688510280E+04  0.19688510280E+04  0.00000000000E+00 0.  1.
          1   -1    0    0  501    0 -0.00000000000E+00 -0.00000000000E+00 -0.12937133853E+01  0.12937133853E+01  0.00000000000E+00 0. -1.
          2    1    1    2  501    0 -0.31597506510E+02  0.19085871135E+02  0.16555201056E+04  0.16559316088E+04  0.00000000000E+00 0.  1.
          1    1    1    2  502    0  0.31597506510E+02 -0.19085871135E+02  0.31203720894E+03  0.31421313253E+03  0.00000000000E+00 0. -1.
</event>
<event>
 4    1  0.8284550E+003  0.6057470E+02  0.7546771E-02  0.1257892E+00
          2   -1    0    0  502    0  0.00000000000E+00  0.00000000000E+00  0.35793608964E+02  0.35793608964E+02  0.00000000000E+00 0.  1.
          1   -1    0    0  501    0 -0.00000000000E+00 -0.00000000000E+00 -0.10694020081E+03  0.10694020081E+03  0.00000000000E+00 0.  1.
          2    1    1    2  501    0  0.59360430468E+02 -0.12067888719E+02 -0.21051767129E+02  0.64128554815E+02  0.00000000000E+00 0.  1.
          1    1    1    2  502    0 -0.59360430468E+02  0.12067888719E+02 -0.50094824715E+02  0.78605254956E+02  0.00000000000E+00 0.  1.
</event>
<event>
 4    1  0.8284550E+003  0.6153253E+02  0.7546771E-02  0.1254713E+00
          2   -1    0    0  502    0  0.00000000000E+00  0.00000000000E+00  0.65778947680E+03  0.65778947680E+03  0.00000000000E+00 0. -1.
          1   -1    0    0  501    0 -0.00000000000E+00 -0.00000000000E+00 -0.87705347188E+03  0.87705347188E+03  0.00000000000E+00 0.  1.
          2    1    1    2  501    0 -0.55623555320E+02 -0.26311073499E+02  0.65526707161E+03  0.65814982157E+03  0.00000000000E+00 0. -1.
          1    1    1    2  502    0  0.55623555320E+02  0.26311073499E+02 -0.87453106670E+03  0.87669312711E+03  0.00000000000E+00 0.  1.
</event>
<event>
 4    1  0.8284550E+003  0.3360054E+02  0.7546771E-02  0.1390678E+00
          2   -1    0    0  502    0  0.00000000000E+00  0.00000000000E+00  0.97961712628E+03  0.97961712628E+03  0.00000000000E+00 0. -1.
          1   -1    0    0  501    0 -0.00000000000E+00 -0.00000000000E+00 -0.92957204928E+01  0.92957204928E+01  0.00000000000E+00 0.  1.
          2    1    1    2  501    0  0.22257521094E+02  0.25171391518E+02  0.94795173353E+03  0.94854703905E+03  0.00000000000E+00 0. -1.
          1    1    1    2  502    0 -0.22257521094E+02 -0.25171391518E+02  0.22369672266E+02  0.40365807727E+02  0.00000000000E+00 0.  1.
</event>
<event>
 4    1  0.8284550E+003  0.4329761E+02  0.7546771E-02  0.1330175E+00
          2   -1    0    0  502    0  0.00000000000E+00  0.00000000000E+00  0.31431670248E+04  0.31431670248E+04  0.00000000000E+00 0. -1.
          1   -1    0    0  501    0 -0.00000000000E+00 -0.00000000000E+00 -0.48126651098E+01  0.48126651098E+01  0.00000000000E+00 0.  1.
          2    1    1    2  501    0  0.42959197068E+02 -0.54027950487E+01  0.30424102347E+04  0.30427183109E+04  0.00000000000E+00 0. -1.
          1    1    1    2  502    0 -0.42959197068E+02  0.54027950487E+01  0.95944124984E+02  0.10526137908E+03  0.00000000000E+00 0.  1.
</event>
<event>
 4    1  0.8284550E+003  0.2178384E+02  0.7546771E-02  0.1508361E+00
          2   -1    0    0  502    0  0.00000000000E+00  0.00000000000E+00  0.82579527159E+00  0.82579527159E+00  0.00000000000E+00 0. -1.
          1   -1    0    0  501    0 -0.00000000000E+00 -0.00000000000E+00 -0.11322493867E+04  0.11322493867E+04  0.00000000000E+00 0. -1.
          2    1    1    2  501    0  0.51209109954E+01 -0.21173376709E+02 -0.16813371572E+03  0.16953902787E+03  0.00000000000E+00 0. -1.
          1    1    1    2  502    0 -0.51209109954E+01  0.21173376709E+02 -0.96328987571E+03  0.96353615409E+03  0.00000000000E+00 0. -1.
</event>
<event>
 4    1  0.8284550E+003  0.2184694E+02  0.7546771E-02  0.1507508E+00
          2   -1    0    0  502    0  0.00000000000E+00  0.00000000000E+00  0.87786444355E+03  0.87786444355E+03  0.00000000000E+00 0. -1.
          1   -1    0    0  501    0 -0.00000000000E+00 -0.00000000000E+00 -0.22578594008E+01  0.22578594008E+01  0.00000000000E+00 0. -1.
          2    1    1    2  501    0 -0.10871773282E+02 -0.18949762935E+02  0.82123766402E+03  0.82152820389E+03  0.00000000000E+00 0. -1.
          1    1    1    2  502    0  0.10871773282E+02  0.18949762935E+02  0.54368920126E+02  0.58594099065E+02  0.00000000000E+00 0. -1.
</event>
<event>
 4    1  0.8284550E+003  0.2990181E+02  0.7546771E-02  0.1420452E+00
          2   -1    0    0  502    0  0.00000000000E+00  0.00000000000E+00  0.44013497122E+02  0.44013497122E+02  0.00000000000E+00 0. -1.
          1   -1    0    0  501    0 -0.00000000000E+00 -0.00000000000E+00 -0.12706328994E+03  0.12706328994E+03  0.00000000000E+00 0. -1.
          2    1    1    2  501    0 -0.12440994185E+02  0.27190809336E+02  0.36878022693E+02  0.47477436814E+02  0.00000000000E+00 0. -1.
          1    1    1    2  502    0  0.12440994185E+02 -0.27190809336E+02 -0.11992781551E+03  0.12359935025E+03  0.00000000000E+00 0. -1.
</event>
<event>
 4    1  0.8284550E+003  0.2760577E+02  0.7546771E-02  0.1441616E+00
          2   -1    0    0  502    0  0.00000000000E+00  0.00000000000E+00  0.18358573587E+04  0.18358573587E+04  0.00000000000E+00 0.  1.
          1   -1    0    0  501    0 -0.00000000000E+00 -0.00000000000E+00 -0.94387502113E+00  0.94387502113E+00  0.00000000000E+00 0.  1.
          2    1    1    2  501    0 -0.27446798523E+02 -0.29583260447E+01  0.16048531246E+04  0.16050905364E+04  0.00000000000E+00 0.  1.
          1    1    1    2  502    0  0.27446798523E+02  0.29583260447E+01  0.23006035904E+03  0.23171069730E+03  0.00000000000E+00 0.  1.
</event>
<event>
 4    1  0.8284550E+003  0.3936686E+02  0.7546771E-02  0.1352236E+00
          2   -1    0    0  502    0  0.00000000000E+00  0.00000000000E+00  0.21428571590E+03  0.21428571590E+03  0.00000000000E+00 0. -1.
          1   -1    0    0  501    0 -0.00000000000E+00 -0.00000000000E+00 -0.20241444372E+03  0.20241444372E+03  0.00000000000E+00 0.  1.
          2    1    1    2  501    0  0.39352774701E+02 -0.10531451499E+01  0.21052973901E+03  0.21417871276E+03  0.00000000000E+00 0. -1.
          1    1    1    2  502    0 -0.39352774701E+02  0.10531451499E+01 -0.19865846684E+03  0.20252144686E+03  0.00000000000E+00 0.  1.
</event>
<event>
 4    1  0.8284550E+003  0.2070349E+02  0.7546771E-02  0.1523541E+00
          2   -1    0    0  502    0  0.00000000000E+00  0.00000000000E+00  0.73256728398E+03  0.73256728398E+03  0.00000000000E+00 0. -1.
          1   -1    0    0  501    0 -0.00000000000E+00 -0.00000000000E+00 -0.20414975471E+01  0.20414975471E+01  0.00000000000E+00 0.  1.
          2    1    1    2  501    0  0.16743638224E+02 -0.12177230499E+02  0.67549716744E+03  0.67581436622E+03  0.00000000000E+00 0. -1.
          1    1    1    2  502    0 -0.16743638224E+02  0.12177230499E+02  0.55028618996E+02  0.58794415314E+02  0.00000000000E+00 0.  1.
</event>
<event>
 4    1  0.8284550E+003  0.4189560E+02  0.7546771E-02  0.1337722E+00
          2   -1    0    0  502    0  0.00000000000E+00  0.00000000000E+00  0.39097207515E+02  0.39097207515E+02  0.00000000000E+00 0.  1.
          1   -1    0    0  501    0 -0.00000000000E+00 -0.00000000000E+00 -0.11809086558E+04  0.11809086558E+04  0.00000000000E+00 0. -1.
          2    1    1    2  501    0  0.36491182757E+02  0.20582389380E+02  0.27389700906E+02  0.50054339345E+02  0.00000000000E+00 0.  1.
          1    1    1    2  502    0 -0.36491182757E+02 -0.20582389380E+02 -0.11692011492E+04  0.11699515240E+04  0.00000000000E+00 0. -1.
</event>
<event>
 4    1  0.8284550E+003  0.2199254E+02  0.7546771E-02  0.1505552E+00
          2   -1    0    0  502    0  0.00000000000E+00  0.00000000000E+00  0.14721753818E+03  0.14721753818E+03  0.00000000000E+00 0.  1.
          1   -1    0    0  501    0 -0.00000000000E+00 -0.00000000000E+00 -0.30353383893E+02  0.30353383893E+02  0.00000000000E+00 0. -1.
          2    1    1    2  501    0 -0.21972552358E+02 -0.93738808647E+00  0.14227493520E+03  0.14396467949E+03  0.00000000000E+00 0.  1.
          1    1    1    2  502    0  0.21972552358E+02  0.93738808647E+00 -0.25410780918E+02  0.33606242581E+02  0.00000000000E+00 0. -1.
</event>
<event>
 4    1  0.8284550E+003  0.4352276E+02  0.7546771E-02  0.1328993E+00
          2   -1    0    0  502    0  0.00000000000E+00  0.00000000000E+00  0.27213766473E+04  0.27213766473E+04  0.00000000000E+00 0. -1.
          1   -1    0    0  501    0 -0.00000000000E+00 -0.00000000000E+00 -0.88914411477E+00  0.88914411477E+00  0.00000000000E+00 0.  1.
          2    1    1    2  501    0 -0.67578019615E+00  0.43517508642E+02  0.19945403009E+04  0.19950150982E+04  0.00000000000E+00 0. -1.
          1    1    1    2  502    0  0.67578019615E+00 -0.43517508642E+02  0.72594720234E+03  0.72725069324E+03  0.00000000000E+00 0.  1.
</event>
<event>
 4    1  0.8284550E+003  0.2155364E+02  0.7546771E-02  0.1511505E+00
          2   -1    0    0  502    0  0.00000000000E+00  0.00000000000E+00  0.40109002236E+02  0.40109002236E+02  0.00000000000E+00 0. -1.
          1   -1    0    0  501    0 -0.00000000000E+00 -0.00000000000E+00 -0.51466542446E+03  0.51466542446E+03  0.00000000000E+00 0.  1.
          2    1    1    2  501    0  0.20838407737E+02  0.55063570993E+01  0.36969975856E+02  0.42794138855E+02  0.00000000000E+00 0. -1.
          1    1    1    2  502    0 -0.20838407737E+02 -0.55063570993E+01 -0.51152639808E+03  0.51198028785E+03  0.00000000000E+00 0.  1.
</event>
<event>
 4    1  0.8284550E+003  0.2165649E+02  0.7546771E-02  0.1510095E+00
          2   -1    0    0  502    0  0.00000000000E+00  0.00000000000E+00  0.51038699556E+03  0.51038699556E+03  0.00000000000E+00 0.  1.
          1   -1    0    0  501    0 -0.00000000000E+00 -0.00000000000E+00 -0.15829947846E+02  0.15829947846E+02  0.00000000000E+00 0.  1.
          2    1    1    2  501    0  0.16781744010E+02 -0.13688556444E+02  0.50263620027E+03  0.50310252766E+03  0.00000000000E+00 0.  1.
          1    1    1    2  502    0 -0.16781744010E+02  0.13688556444E+02 -0.80791525572E+01  0.23114415752E+02  0.00000000000E+00 0.  1.
</event>
<event>
 4    1  0.8284550E+003  0.3329219E+02  0.7546771E-02  0.1392984E+00
          2   -1    0    0  502    0  0.00000000000E+00  0.00000000000E+00  0.55026374623E+02  0.55026374623E+02  0.00000000000E+00 0. -1.
          1   -1    0    0  501    0 -0.00000000000E+00 -0.00000000000E+00 -0.43479227712E+02  0.43479227712E+02  0.00000000000E+00 0.  1.
          2    1    1    2  501    0  0.29615580672E+02  0.15208142514E+02  0.41857164834E+02  0.53482637044E+02  0.00000000000E+00 0. -1.
          1    1    1    2  502    0 -0.29615580672E+02 -0.15208142514E+02 -0.30310017922E+02  0.45022965292E+02  0.00000000000E+00 0.  1.
</event>
<event>
 4    1  0.8284550E+003  0.2057925E+02  0.7546771E-02  0.1525358E+00
          2   -1    0    0  502    0  0.00000000000E+00  0.00000000000E+00  0.11694397584E+03  0.11694397584E+03  0.00000000000E+00 0. -1.
          1   -1    0    0  501    0 -0.00000000000E+00 -0.00000000000E+00 -0.68861865467E+03  0.68861865467E+03  0.00000000000E+00 0.  1.
          2    1    1    2  501    0 -0.81928165855E+01 -0.18878120492E+02  0.11588346763E+03  0.11769657491E+03  0.00000000000E+00 0. -1.
          1    1    1    2  502    0  0.81928165855E+01  0.18878120492E+02 -0.68755814646E+03  0.68786605559E+03  0.00000000000E+00 0.  1.
</event>
<event>
 4    1  0.8284550E+003  0.3187285E+02  0.7546771E-02  0.1403991E+00
          2   -1    0    0  502    0  0.00000000000E+00  0.00000000000E+00  0.11584846421E+03  0.11584846421E+03  0.00000000000E+00 0.  1.
          1   -1    0    0  501    0 -0.00000000000E+00 -0.00000000000E+00 -0.13120921539E+03  0.13120921539E+03  0.00000000000E+00 0. -1.
          2    1    1    2  501    0 -0.29051764244E+02  0.13110044072E+02  0.11164922544E+03  0.11610955086E+03  0.00000000000E+00 0.  1.
          1    1    1    2  502    0  0.29051764244E+02 -0.13110044072E+02 -0.12700997661E+03  0.13094812874E+03  0.00000000000E+00 0. -1.
</event>
<event>
 4    1  0.8284550E+003  0.2369365E+02  0.7546771E-02  0.1483967E+00
          2   -1    0    0  502    0  0.00000000000E+00  0.00000000000E+00  0.20458229458E+01  0.20458229458E+01  0.00000000000E+00 0. -1.
          1   -1    0    0  501    0 -0.00000000000E+00 -0.00000000000E+00 -0.70223207961E+03  0.70223207961E+03  0.00000000000E+00 0.  1.
          2    1    1    2  501    0 -0.22653615733E+02  0.69428234225E+01 -0.75236247145E+02  0.78878907113E+02  0.00000000000E+00 0. -1.
          1    1    1    2  502    0  0.22653615733E+02 -0.69428234225E+01 -0.62495000952E+03  0.62539899544E+03  0.00000000000E+00 0.  1.
</event>
<event>
 4    1  0.8284550E+003  0.2042208E+02  0.7546771E-02  0.1527678E+00
          2   -1    0    0  502    0  0.00000000000E+00  0.00000000000E+00  0.12892124254E+03  0.12892124254E+03  0.00000000000E+00 0.  1.
          1   -1    0    0  501    0 -0.00000000000E+00 -0.00000000000E+00 -0.86721615434E+02  0.86721615434E+02  0.00000000000E+00 0. -1.
          2    1    1    2  501    0  0.18473910993E+02 -0.87049389706E+01  0.12689107812E+03  0.12852395518E+03  0.00000000000E+00 0.  1.
          1    1    1    2  502    0 -0.18473910993E+02  0.87049389706E+01 -0.84691451010E+02  0.87118902794E+02  0.00000000000E+00 0. -1.
</event>
<event>
 4    1  0.8284550E+003  0.2003790E+02  0.7546771E-02  0.1533457E+00
          2   -1    0    0  502    0  0.00000000000E+00  0.00000000000E+00  0.15064882300E+03  0.15064882300E+03  0.00000000000E+00 0. -1.
          1   -1    0    0  501    0 -0.00000000000E+00 -0.00000000000E+00 -0.75247806096E+02  0.75247806096E+02  0.00000000000E+00 0. -1.
          2    1    1    2  501    0 -0.16830647447E+02  0.10874125767E+02  0.14863049292E+03  0.14997513371E+03  0.00000000000E+00 0. -1.
          1    1    1    2  502    0  0.16830647447E+02 -0.10874125767E+02 -0.73229476016E+02  0.75921495390E+02  0.00000000000E+00 0. -1.
</event>
<event>
 4    1  0.8284550E+003  0.2546143E+02  0.7546771E-02  0.1463707E+00
          2   -1    0    0  502    0  0.00000000000E+00  0.00000000000E+00  0.46182707508E+03  0.46182707508E+03  0.00000000000E+00 0. -1.
          1   -1    0    0  501    0 -0.00000000000E+00 -0.00000000000E+00 -0.76424845410E+02  0.76424845410E+02  0.00000000000E+00 0. -1.
          2    1    1    2  501    0 -0.79655477210E+00 -0.25448963342E+02  0.45934402655E+03  0.46004914842E+03  0.00000000000E+00 0. -1.
          1    1    1    2  502    0  0.79655477210E+00  0.25448963342E+02 -0.73941796877E+02  0.78202772074E+02  0.00000000000E+00 0. -1.
</event>
<event>
 4    1  0.8284550E+003  0.2080378E+02  0.7546771E-02  0.1522085E+00
          2   -1    0    0  502    0  0.00000000000E+00  0.00000000000E+00  0.19680319022E+03  0.19680319022E+03  0.00000000000E+00 0. -1.
          1   -1    0    0  501    0 -0.00000000000E+00 -0.00000000000E+00 -0.19797126163E+03  0.19797126163E+03  0.00000000000E+00 0. -1.
          2    1    1    2  501    0  0.94942038615E+01  0.18511001278E+02  0.19570380420E+03  0.19680644312E+03  0.00000000000E+00 0. -1.
          1    1    1    2  502    0 -0.94942038615E+01 -0.18511001278E+02 -0.19687187561E+03  0.19796800873E+03  0.00000000000E+00 0. -1.
</event>
<event>
 4    1  0.8284550E+003  0.2475736E+02  0.7546771E-02  0.1471536E+00
          2   -1    0    0  502    0  0.00000000000E+00  0.00000000000E+00  0.92539405712E+03  0.92539405712E+03  0.00000000000E+00 0.  1.
          1   -1    0    0  501    0 -0.00000000000E+00 -0.00000000000E+00 -0.66580947361E+00  0.66580947361E+00  0.00000000000E+00 0.  1.
          2    1    1    2  501    0  0.24628583126E+02 -0.25218787094E+01  0.49578099693E+03  0.49639875493E+03  0.00000000000E+00 0.  1.
          1    1    1    2  502    0 -0.24628583126E+02  0.25218787094E+01  0.42894725072E+03  0.42966111166E+03  0.00000000000E+00 0.  1.
</event>
<event>
 4    1  0.8284550E+003  0.3877784E+02  0.7546771E-02  0.1355800E+00
          2   -1    0    0  502    0  0.00000000000E+00  0.00000000000E+00  0.49743664122E+03  0.49743664122E+03  0.00000000000E+00 0. -1.
          1   -1    0    0  501    0 -0.00000000000E+00 -0.00000000000E+00 -0.16545449647E+02  0.16545449647E+02  0.00000000000E+00 0. -1.
          2    1    1    2  501    0 -0.37300688775E+02 -0.10600910064E+02  0.47277670626E+03  0.47436434801E+03  0.00000000000E+00 0. -1.
          1    1    1    2  502    0  0.37300688775E+02  0.10600910064E+02  0.81144853085E+01  0.39617742857E+02  0.00000000000E+00 0. -1.
</event>
<event>
 4    1  0.8284550E+003  0.2512693E+02  0.7546771E-02  0.1467388E+00
          2   -1    0    0  502    0  0.00000000000E+00  0.00000000000E+00  0.14767409696E+02  0.14767409696E+02  0.00000000000E+00 0.  1.
          1   -1    0    0  501    0 -0.00000000000E+00 -0.00000000000E+00 -0.53245922061E+02  0.53245922061E+02  0.00000000000E+00 0. -1.
          2    1    1    2  501    0  0.12033200205E+02 -0.22058217178E+02 -0.41435795098E+01  0.25466293476E+02  0.00000000000E+00 0.  1.
          1    1    1    2  502    0 -0.12033200205E+02  0.22058217178E+02 -0.34334932855E+02  0.42547038280E+02  0.00000000000E+00 0. -1.
</event>
<event>
 4    1  0.8284550E+003  0.3620533E+02  0.7546771E-02  0.1372282E+00
          2   -1    0    0  502    0  0.00000000000E+00  0.00000000000E+00  0.76998328051E+02  0.76998328051E+02  0.00000000000E+00 0. -1.
          1   -1    0    0  501    0 -0.00000000000E+00 -0.00000000000E+00 -0.25225376004E+02  0.25225376004E+02  0.00000000000E+00 0. -1.
          2    1    1    2  501    0  0.49304080608E+01 -0.35868054640E+02  0.55030119189E+02  0.65872151060E+02  0.00000000000E+00 0. -1.
          1    1    1    2  502    0 -0.49304080608E+01  0.35868054640E+02 -0.32571671430E+01  0.36351552995E+02  0.00000000000E+00 0. -1.
</event>
<event>
 4    1  0.8284550E+003  0.2686469E+02  0.7546771E-02  0.1448972E+00
          2   -1    0    0  502    0  0.00000000000E+00  0.00000000000E+00  0.40205023839E+02  0.40205023839E+02  0.00000000000E+00 0. -1.
          1   -1    0    0  501    0 -0.00000000000E+00 -0.00000000000E+00 -0.18103039569E+02  0.18103039569E+02  0.00000000000E+00 0. -1.
          2    1    1    2  501    0 -0.45830229808E+01 -0.26470882841E+02  0.13724663773E+02  0.30167501283E+02  0.00000000000E+00 0. -1.
          1    1    1    2  502    0  0.45830229808E+01  0.26470882841E+02  0.83773204968E+01  0.28140562125E+02  0.00000000000E+00 0. -1.
</event>
<event>
 4    1  0.8284550E+003  0.4616663E+02  0.7546771E-02  0.1315707E+00
          2   -1    0    0  502    0  0.00000000000E+00  0.00000000000E+00  0.22014810995E+04  0.22014810995E+04  0.00000000000E+00 0. -1.
          1   -1    0    0  501    0 -0.00000000000E+00 -0.00000000000E+00 -0.86362066030E+01  0.86362066030E+01  0.00000000000E+00 0.  1.
          2    1    1    2  501    0 -0.44963408894E+01 -0.45947152512E+02  0.21377001052E+04  0.21381985636E+04  0.00000000000E+00 0. -1.
          1    1    1    2  502    0  0.44963408894E+01  0.45947152512E+02  0.55144787763E+02  0.71918742500E+02  0.00000000000E+00 0.  1.
</event>
<event>
 4    1  0.8284550E+003  0.2188136E+02  0.7546771E-02  0.1507044E+00
          2   -1    0    0  502    0  0.00000000000E+00  0.00000000000E+00  0.16533835998E+04  0.16533835998E+04  0.00000000000E+00 0.  1.
          1   -1    0    0  501    0 -0.00000000000E+00 -0.00000000000E+00 -0.33680012681E+00  0.33680012681E+00  0.00000000000E+00 0.  1.
          2    1    1    2  501    0  0.13549950993E+02 -0.17181169993E+02  0.11361157382E+04  0.11363264339E+04  0.00000000000E+00 0.  1.
          1    1    1    2  502    0 -0.13549950993E+02  0.17181169993E+02  0.51693106147E+03  0.51739396603E+03  0.00000000000E+00 0.  1.
</event>
<event>
 4    1  0.8284550E+003  0.2752787E+02  0.7546771E-02  0.1442376E+00
          2   -1    0    0  502    0  0.00000000000E+00  0.00000000000E+00  0.20678956461E+04  0.20678956461E+04  0.00000000000E+00 0. -1.
          1   -1    0    0  501    0 -0.00000000000E+00 -0.00000000000E+00 -0.47143956513E+00  0.47143956513E+00  0.00000000000E+00 0. -1.
          2    1    1    2  501    0  0.27400833271E+02  0.26415358301E+01  0.15217512517E+04  0.15220002153E+04  0.00000000000E+00 0. -1.
          1    1    1    2  502    0 -0.27400833271E+02 -0.26415358301E+01  0.54567295486E+03  0.54636687037E+03  0.00000000000E+00 0. -1.
</event>
<event>
 4    1  0.8284550E+003  0.2405436E+02  0.7546771E-02  0.1479667E+00
          2   -1    0    0  502    0  0.00000000000E+00  0.00000000000E+00  0.12976383127E+04  0.12976383127E+04  0.00000000000E+00 0. -1.
          1   -1    0    0  501    0 -0.00000000000E+00 -0.00000000000E+00 -0.17804200509E+01  0.17804200509E+01  0.00000000000E+00 0.  1.
          2    1    1    2  501    0 -0.23306926121E+02 -0.59497481229E+01  0.12104269946E+04  0.12106659827E+04  0.00000000000E+00 0. -1.
          1    1    1    2  502    0  0.23306926121E+02  0.59497481229E+01  0.85430898094E+02  0.88752750138E+02  0.00000000000E+00 0.  1.
</event>
<event>
 4    1  0.8284550E+003  0.2920004E+02  0.7546771E-02  0.1426678E+00
          2   -1    0    0  502    0  0.00000000000E+00  0.00000000000E+00  0.45001958259E+02  0.45001958259E+02  0.00000000000E+00 0.  1.
          1   -1    0    0  501    0 -0.00000000000E+00 -0.00000000000E+00 -0.66789245028E+02  0.66789245028E+02  0.00000000000E+00 0.  1.
          2    1    1    2  501    0 -0.27734130144E+02  0.91356697645E+01  0.36413978655E+02  0.46675692586E+02  0.00000000000E+00 0.  1.
          1    1    1    2  502    0  0.27734130144E+02 -0.91356697645E+01 -0.58201265424E+02  0.65115510701E+02  0.00000000000E+00 0.  1.
</event>
<event>
 4    1  0.8284550E+003  0.2931890E+02  0.7546771E-02  0.1425609E+00
          2   -1    0    0  502    0  0.00000000000E+00  0.00000000000E+00  0.24002416236E+01  0.24002416236E+01  0.00000000000E+00 0.  1.
          1   -1    0    0  501    0 -0.00000000000E+00 -0.00000000000E+00 -0.10626025172E+04  0.10626025172E+04  0.00000000000E+00 0.  1.
          2    1    1    2  501    0 -0.17334649156E+02  0.23645463566E+02 -0.96522964007E+02  0.10087755246E+03  0.00000000000E+00 0.  1.
          1    1    1    2  502    0  0.17334649156E+02 -0.23645463566E+02 -0.96367931152E+03  0.96412520632E+03  0.00000000000E+00 0.  1.
</event>
<event>
 4    1  0.8284550E+003  0.2774814E+02  0.7546771E-02  0.1440234E+00
          2   -1    0    0  502    0  0.00000000000E+00  0.00000000000E+00  0.77321796052E+03  0.77321796052E+03  0.00000000000E+00 0. -1.
          1   -1    0    0  501    0 -0.00000000000E+00 -0.00000000000E+00 -0.20226538819E+01  0.20226538819E+01  0.00000000000E+00 0.  1.
          2    1    1    2  501    0  0.23942857628E+02  0.14024941682E+02  0.66178455302E+03  0.66236602723E+03  0.00000000000E+00 0. -1.
          1    1    1    2  502    0 -0.23942857628E+02 -0.14024941682E+02  0.10941075362E+03  0.11287458717E+03  0.00000000000E+00 0.  1.
</event>
<event>
 4    1  0.8284550E+003  0.2552372E+02  0.7546771E-02  0.1463029E+00
          2   -1    0    0  502    0  0.00000000000E+00  0.00000000000E+00  0.10554723430E+04  0.10554723430E+04  0.00000000000E+00 0. -1.
          1   -1    0    0  501    0 -0.00000000000E+00 -0.00000000000E+00 -0.29883430717E+02  0.29883430717E+02  0.00000000000E+00 0.  1.
          2    1    1    2  501    0 -0.22027518161E+02  0.12893751898E+02  0.10498387830E+04  0.10501490041E+04  0.00000000000E+00 0. -1.
          1    1    1    2  502    0  0.22027518161E+02 -0.12893751898E+02 -0.24249870776E+02  0.35206769619E+02  0.00000000000E+00 0.  1.
</event>
<event>
 4    1  0.8284550E+003  0.2162398E+02  0.7546771E-02  0.1510539E+00
          2   -1    0    0  502    0  0.00000000000E+00  0.00000000000E+00  0.40154168470E+03  0.40154168470E+03  0.00000000000E+00 0. -1.
          1   -1    0    0  501    0 -0.00000000000E+00 -0.00000000000E+00 -0.84969938313E+01  0.84969938313E+01  0.00000000000E+00 0. -1.
          2    1    1    2  501    0 -0.21391564045E+02  0.31618983419E+01  0.38697539618E+03  0.38757909369E+03  0.00000000000E+00 0. -1.
          1    1    1    2  502    0  0.21391564045E+02 -0.31618983419E+01  0.60692946879E+01  0.22459584845E+02  0.00000000000E+00 0. -1.
</event>
<event>
 4    1  0.8284550E+003  0.2476599E+02  0.7546771E-02  0.1471438E+00
          2   -1    0    0  502    0  0.00000000000E+00  0.00000000000E+00  0.10269713861E+03  0.10269713861E+03  0.00000000000E+00 0. -1.
          1   -1    0    0  501    0 -0.00000000000E+00 -0.00000000000E+00 -0.59942510814E+03  0.59942510814E+03  0.00000000000E+00 0. -1.
          2    1    1    2  501    0 -0.24670201869E+02  0.21761444988E+01  0.10094383610E+03  0.10393754140E+03  0.00000000000E+00 0. -1.
          1    1    1    2  502    0  0.24670201869E+02 -0.21761444988E+01 -0.59767180564E+03  0.59818470535E+03  0.00000000000E+00 0. -1.
</event>
<event>
 4    1  0.8284550E+003  0.2093002E+02  0.7546771E-02  0.1520266E+00
          2   -1    0    0  502    0  0.00000000000E+00  0.00000000000E+00  0.43322469976E+03  0.43322469976E+03  0.00000000000E+00 0. -1.
          1   -1    0    0  501    0 -0.00000000000E+00 -0.00000000000E+00 -0.35198574682E+02  0.35198574682E+02  0.00000000000E+00 0. -1.
          2    1    1    2  501    0 -0.20912374884E+02 -0.85923609216E+00  0.42983600332E+03  0.43034527471E+03  0.00000000000E+00 0. -1.
          1    1    1    2  502    0  0.20912374884E+02  0.85923609216E+00 -0.31809878244E+02  0.38077999735E+02  0.00000000000E+00 0. -1.
</event>
<event>
 4    1  0.8284550E+003  0.3645050E+02  0.7546771E-02  0.1370643E+00
          2   -1    0    0  502    0  0.00000000000E+00  0.00000000000E+00  0.17185044124E+03  0.17185044124E+03  0.00000000000E+00 0.  1.
          1   -1    0    0  501    0 -0.00000000000E+00 -0.00000000000E+00 -0.75390696193E+03  0.75390696193E+03  0.00000000000E+00 0.  1.
          2    1    1    2  501    0 -0.36421839011E+02  0.14453055158E+01  0.16947089791E+03  0.17334654454E+03  0.00000000000E+00 0.  1.
          1    1    1    2  502    0  0.36421839011E+02 -0.14453055158E+01 -0.75152741861E+03  0.75241085863E+03  0.00000000000E+00 0.  1.
</event>
<event>
 4    1  0.8284550E+003  0.2090550E+02  0.7546771E-02  0.1520618E+00
          2   -1    0    0  502    0  0.00000000000E+00  0.00000000000E+00  0.21245730056E+03  0.21245730056E+03  0.00000000000E+00 0. -1.
          1   -1    0    0  501    0 -0.00000000000E+00 -0.00000000000E+00 -0.32171392607E+02  0.32171392607E+02  0.00000000000E+00 0.  1.
          2    1    1    2  501    0 -0.73574019177E+01 -0.19568051978E+02  0.20848225566E+03  0.20952778085E+03  0.00000000000E+00 0. -1.
          1    1    1    2  502    0  0.73574019177E+01  0.19568051978E+02 -0.28196347712E+02  0.35100912317E+02  0.00000000000E+00 0.  1.
</event>
<event>
 4    1  0.8284550E+003  0.2275143E+02  0.7546771E-02  0.1495643E+00
          2   -1    0    0  502    0  0.00000000000E+00  0.00000000000E+00  0.10301073706E+04  0.10301073706E+04  0.00000000000E+00 0. -1.
          1   -1    0    0  501    0 -0.00000000000E+00 -0.00000000000E+00 -0.72957346207E+00  0.72957346207E+00  0.00000000000E+00 0. -1.
          2    1    1    2  501    0  0.21884866373E+02 -0.62193269320E+01  0.80223672867E+03  0.80255927895E+03  0.00000000000E+00 0. -1.
          1    1    1    2  502    0 -0.21884866373E+02  0.62193269320E+01  0.22714106844E+03  0.22827766509E+03  0.00000000000E+00 0. -1.
</event>
<event>
 4    1  0.8284550E+003  0.2161104E+02  0.7546771E-02  0.1510717E+00
          2   -1    0    0  502    0  0.00000000000E+00  0.00000000000E+00  0.68580698169E+02  0.68580698169E+02  0.00000000000E+00 0. -1.
          1   -1    0    0  501    0 -0.00000000000E+00 -0.00000000000E+00 -0.46586117510E+02  0.46586117510E+02  0.00000000000E+00 0.  1.
          2    1    1    2  501    0  0.21225617156E+02 -0.40632994697E+01  0.64205676481E+02  0.67745155683E+02  0.00000000000E+00 0. -1.
          1    1    1    2  502    0 -0.21225617156E+02  0.40632994697E+01 -0.42211095822E+02  0.47421659996E+02  0.00000000000E+00 0.  1.
</event>
<event>
 4    1  0.8284550E+003  0.3267293E+02  0.7546771E-02  0.1397705E+00
          2   -1    0    0  502    0  0.00000000000E+00  0.00000000000E+00  0.47881069074E+03  0.47881069074E+03  0.00000000000E+00 0. -1.
          1   -1    0    0  501    0 -0.00000000000E+00 -0.00000000000E+00 -0.65501974881E+01  0.65501974881E+01  0.00000000000E+00 0. -1.
          2    1    1    2  501    0 -0.30497079202E+02 -0.11723838124E+02  0.43322872758E+03  0.43445903216E+03  0.00000000000E+00 0. -1.
          1    1    1    2  502    0  0.30497079202E+02  0.11723838124E+02  0.39031765669E+02  0.50901856071E+02  0.00000000000E+00 0. -1.
</event>
<event>
 4    1  0.8284550E+003  0.3533938E+02  0.7546771E-02  0.1378193E+00
          2   -1    0    0  502    0  0.00000000000E+00  0.00000000000E+00  0.92037175433E+01  0.92037175433E+01  0.00000000000E+00 0.  1.
          1   -1    0    0  501    0 -0.00000000000E+00 -0.00000000000E+00 -0.43986745466E+03  0.43986745466E+03  0.00000000000E+00 0.  1.
          2    1    1    2  501    0  0.35335169140E+02 -0.54571093080E+00 -0.28613836813E+02  0.45471129695E+02  0.00000000000E+00 0.  1.
          1    1    1    2  502    0 -0.35335169140E+02  0.54571093080E+00 -0.40204990030E+03  0.40360004251E+03  0.00000000000E+00 0.  1.
</event>
<event>
 4    1  0.8284550E+003  0.3077674E+02  0.7546771E-02  0.1412964E+00
          2   -1    0    0  502    0  0.00000000000E+00  0.00000000000E+00  0.18543148645E+03  0.18543148645E+03  0.00000000000E+00 0.  1.
          1   -1    0    0  501    0 -0.00000000000E+00 -0.00000000000E+00 -0.10180185868E+02  0.10180185868E+02  0.00000000000E+00 0. -1.
          2    1    1    2  501    0 -0.24698291808E+02 -0.18363059567E+02  0.15666219729E+03  0.15965666799E+03  0.00000000000E+00 0.  1.
          1    1    1    2  502    0  0.24698291808E+02  0.18363059567E+02  0.18589103294E+02  0.35955004327E+02  0.00000000000E+00 0. -1.
</event>
<event>
 4    1  0.8284550E+003  0.3130395E+02  0.7546771E-02  0.1408594E+00
          2   -1    0    0  502    0  0.00000000000E+00  0.00000000000E+00  0.46418561814E+01  0.46418561814E+01  0.00000000000E+00 0.  1.
          1   -1    0    0  501    0 -0.00000000000E+00 -0.00000000000E+00 -0.87536441369E+03  0.87536441369E+03  0.00000000000E+00 0. -1.
          2    1    1    2  501    0  0.79810386171E+01  0.30269461772E+02 -0.52070032121E+02  0.60755456862E+02  0.00000000000E+00 0.  1.
          1    1    1    2  502    0 -0.79810386171E+01 -0.30269461772E+02 -0.81865252538E+03  0.81925081300E+03  0.00000000000E+00 0. -1.
</event>
<event>
 4    1  0.8284550E+003  0.2537028E+02  0.7546771E-02  0.1464703E+00
          2   -1    0    0  502    0  0.00000000000E+00  0.00000000000E+00  0.11226005715E+04  0.11226005715E+04  0.00000000000E+00 0.  1.
          1   -1    0    0  501    0 -0.00000000000E+00 -0.00000000000E+00 -0.10443173582E+01  0.10443173582E+01  0.00000000000E+00 0. -1.
          2    1    1    2  501    0 -0.23698037837E+02  0.90583840139E+01  0.93806773201E+03  0.93841074224E+03  0.00000000000E+00 0.  1.
          1    1    1    2  502    0  0.23698037837E+02 -0.90583840139E+01  0.18348852214E+03  0.18523414662E+03  0.00000000000E+00 0. -1.
</event>
<event>
 4    1  0.8284550E+003  0.2310748E+02  0.7546771E-02  0.1491153E+00
          2   -1    0    0  502    0  0.00000000000E+00  0.00000000000E+00  0.23400568162E+03  0.23400568162E+03  0.00000000000E+00 0.  1.
          1   -1    0    0  501    0 -0.00000000000E+00 -0.00000000000E+00 -0.48116631293E+03  0.48116631293E+03  0.00000000000E+00 0. -1.
          2    1    1    2  501    0  0.51802804351E+00 -0.23101671265E+02  0.23315679476E+03  0.23429905358E+03  0.00000000000E+00 0.  1.
          1    1    1    2  502    0 -0.51802804351E+00  0.23101671265E+02 -0.48031742607E+03  0.48087294096E+03  0.00000000000E+00 0. -1.
</event>
<event>
 4    1  0.8284550E+003  0.6170600E+02  0.7546771E-02  0.1254144E+00
          2   -1    0    0  502    0  0.00000000000E+00  0.00000000000E+00  0.42630154816E+01  0.42630154816E+01  0.00000000000E+00 0. -1.
          1   -1    0    0  501    0 -0.00000000000E+00 -0.00000000000E+00 -0.90208815812E+03  0.90208815812E+03  0.00000000000E+00 0.  1.
          2    1    1    2  501    0 -0.61669381488E+02  0.21247258892E+01 -0.49395386300E+03  0.49779317577E+03  0.00000000000E+00 0. -1.
          1    1    1    2  502    0  0.61669381488E+02 -0.21247258892E+01 -0.40387127964E+03  0.40855799783E+03  0.00000000000E+00 0.  1.
</event>
<event>
 4    1  0.8284550E+003  0.4586519E+02  0.7546771E-02  0.1317169E+00
          2   -1    0    0  502    0  0.00000000000E+00  0.00000000000E+00  0.10254920037E+04  0.10254920037E+04  0.00000000000E+00 0.  1.
          1   -1    0    0  501    0 -0.00000000000E+00 -0.00000000000E+00 -0.27631467758E+01  0.27631467758E+01  0.00000000000E+00 0.  1.
          2    1    1    2  501    0  0.31007037624E+02 -0.33796147271E+02  0.77231303450E+03  0.77367372917E+03  0.00000000000E+00 0.  1.
          1    1    1    2  502    0 -0.31007037624E+02  0.33796147271E+02  0.25041582243E+03  0.25458142131E+03  0.00000000000E+00 0.  1.
</event>
<event>
 4    1  0.8284550E+003  0.3443260E+02  0.7546771E-02  0.1384597E+00
          2   -1    0    0  502    0  0.00000000000E+00  0.00000000000E+00  0.89904842338E+02  0.89904842338E+02  0.00000000000E+00 0.  1.
          1   -1    0    0  501    0 -0.00000000000E+00 -0.00000000000E+00 -0.92986792081E+02  0.92986792081E+02  0.00000000000E+00 0. -1.
          2    1    1    2  501    0  0.19046917808E+02  0.28684823850E+02  0.83172639874E+02  0.90018288258E+02  0.00000000000E+00 0.  1.
          1    1    1    2  502    0 -0.19046917808E+02 -0.28684823850E+02 -0.86254589616E+02  0.92873346161E+02  0.00000000000E+00 0. -1.
</event>
<event>
 4    1  0.8284550E+003  0.2551121E+02  0.7546771E-02  0.1463165E+00
          2   -1    0    0  502    0  0.00000000000E+00  0.00000000000E+00  0.39272321711E+02  0.39272321711E+02  0.00000000000E+00 0. -1.
          1   -1    0    0  501    0 -0.00000000000E+00 -0.00000000000E+00 -0.54476294442E+03  0.54476294442E+03  0.00000000000E+00 0. -1.
          2    1    1    2  501    0 -0.22190847355E+02  0.12585243236E+02  0.34796338881E+02  0.43146346927E+02  0.00000000000E+00 0. -1.
          1    1    1    2  502    0  0.22190847355E+02 -0.12585243236E+02 -0.54028696159E+03  0.54088891921E+03  0.00000000000E+00 0. -1.
</event>
<event>
 4    1  0.8284550E+003  0.2390009E+02  0.7546771E-02  0.1481495E+00
          2   -1    0    0  502    0  0.00000000000E+00  0.00000000000E+00  0.22336112948E+03  0.22336112948E+03  0.00000000000E+00 0.  1.
          1   -1    0    0  501    0 -0.00000000000E+00 -0.00000000000E+00 -0.13166349240E+02  0.13166349240E+02  0.00000000000E+00 0.  1.
          2    1    1    2  501    0  0.23728163370E+02 -0.28615274711E+01  0.21125618846E+03  0.21260383637E+03  0.00000000000E+00 0.  1.
          1    1    1    2  502    0 -0.23728163370E+02  0.28615274711E+01 -0.10614082115E+01  0.23923642360E+02  0.00000000000E+00 0.  1.
</event>
<event>
 4    1  0.8284550E+003  0.2814856E+02  0.7546771E-02  0.1436400E+00
          2   -1    0    0  502    0  0.00000000000E+00  0.00000000000E+00  0.42563819685E+02  0.42563819685E+02  0.00000000000E+00 0.  1.
          1   -1    0    0  501    0 -0.00000000000E+00 -0.00000000000E+00 -0.97719779980E+02  0.97719779980E+02  0.00000000000E+00 0. -1.
          2    1    1    2  501    0  0.26354376531E+02 -0.98887843009E+01  0.35530252147E+02  0.45329240396E+02  0.00000000000E+00 0.  1.
          1    1    1    2  502    0 -0.26354376531E+02  0.98887843009E+01 -0.90686212442E+02  0.94954359269E+02  0.00000000000E+00 0. -1.
</event>
<event>
 4    1  0.8284550E+003  0.2391693E+02  0.7546771E-02  0.1481294E+00
          2   -1    0    0  502    0  0.00000000000E+00  0.00000000000E+00  0.86349127109E+02  0.86349127109E+02  0.00000000000E+00 0.  1.
          1   -1    0    0  501    0 -0.00000000000E+00 -0.00000000000E+00 -0.10326982679E+04  0.10326982679E+04  0.00000000000E+00 0.  1.
          2    1    1    2  501    0 -0.10601826743E+02  0.21438771667E+02  0.84551638285E+02  0.87869216439E+02  0.00000000000E+00 0.  1.
          1    1    1    2  502    0  0.10601826743E+02 -0.21438771667E+02 -0.10309007791E+04  0.10311781786E+04  0.00000000000E+00 0.  1.
</event>
<event>
 4    1  0.8284550E+003  0.2453745E+02  0.7546771E-02  0.1474045E+00
          2   -1    0    0  502    0  0.00000000000E+00  0.00000000000E+00  0.90797396439E+03  0.90797396439E+03  0.00000000000E+00 0.  1.
          1   -1    0    0  501    0 -0.00000000000E+00 -0.00000000000E+00 -0.12521731738E+01  0.12521731738E+01  0.00000000000E+00 0. -1.
          2    1    1    2  501    0 -0.23763778677E+02  0.61130601478E+01  0.76517131856E+03  0.76556465006E+03  0.00000000000E+00 0.  1.
          1    1    1    2  502    0  0.23763778677E+02 -0.61130601478E+01  0.14155047266E+03  0.14366148750E+03  0.00000000000E+00 0. -1.
</event>
<event>
 4    1  0.8284550E+003  0.2107394E+02  0.7546771E-02  0.1518212E+00
          2   -1    0    0  502    0  0.00000000000E+00  0.00000000000E+00  0.53709721535E+01  0.53709721535E+01  0.00000000000E+00 0. -1.
          1   -1    0    0  501    0 -0.00000000000E+00 -0.00000000000E+00 -0.96127482646E+03  0.96127482646E+03  0.00000000000E+00 0. -1.
          2    1    1    2  501    0  0.37118443228E+00 -0.21070666023E+02 -0.15883681086E+02  0.26389431017E+02  0.00000000000E+00 0. -1.
          1    1    1    2  502    0 -0.37118443228E+00  0.21070666023E+02 -0.94002017322E+03  0.94025636760E+03  0.00000000000E+00 0. -1.
</event>
<event>
 4    1  0.8284550E+003  0.2707812E+02  0.7546771E-02  0.1446825E+00
          2   -1    0    0  502    0  0.00000000000E+00  0.00000000000E+00  0.14413239363E+03  0.14413239363E+03  0.00000000000E+00 0. -1.
          1   -1    0    0  501    0 -0.00000000000E+00 -0.00000000000E+00 -0.22007742603E+02  0.22007742603E+02  0.00000000000E+00 0.  1.
          2    1    1    2  501    0  0.18176814251E+02  0.20070580280E+02  0.13390140590E+03  0.13661190018E+03  0.00000000000E+00 0. -1.
          1    1    1    2  502    0 -0.18176814251E+02 -0.20070580280E+02 -0.11776754873E+02  0.29528236053E+02  0.00000000000E+00 0.  1.
</event>
<event>
 4    1  0.8284550E+003  0.6674381E+02  0.7546771E-02  0.1238494E+00
          2   -1    0    0  502    0  0.00000000000E+00  0.00000000000E+00  0.11676640626E+03  0.11676640626E+03  0.00000000000E+00 0.  1.
          1   -1    0    0  501    0 -0.00000000000E+00 -0.00000000000E+00 -0.65127768512E+02  0.65127768512E+02  0.00000000000E+00 0.  1.
          2    1    1    2  501    0 -0.61641528141E+02 -0.25594096890E+02  0.84352482090E+02  0.10756429250E+03  0.00000000000E+00 0.  1.
          1    1    1    2  502    0  0.61641528141E+02  0.25594096890E+02 -0.32713844337E+02  0.74329882272E+02  0.00000000000E+00 0.  1.
</event>
<event>
 4    1  0.8284550E+003  0.2808246E+02  0.7546771E-02  0.1437027E+00
          2   -1    0    0  502    0  0.00000000000E+00  0.00000000000E+00  0.12462093082E+02  0.12462093082E+02  0.00000000000E+00 0. -1.
          1   -1    0    0  501    0 -0.00000000000E+00 -0.00000000000E+00 -0.10317763309E+03  0.10317763309E+03  0.00000000000E+00 0. -1.
          2    1    1    2  501    0 -0.12706965077E+02  0.25043110769E+02 -0.94037254560E+01  0.29615104439E+02  0.00000000000E+00 0. -1.
          1    1    1    2  502    0  0.12706965077E+02 -0.25043110769E+02 -0.81311814556E+02  0.86024621737E+02  0.00000000000E+00 0. -1.
</event>
<event>
 4    1  0.8284550E+003  0.3399991E+02  0.7546771E-02  0.1387734E+00
          2   -1    0    0  502    0  0.00000000000E+00  0.00000000000E+00  0.18838542305E+02  0.18838542305E+02  0.00000000000E+00 0. -1.
          1   -1    0    0  501    0 -0.00000000000E+00 -0.00000000000E+00 -0.23120869772E+03  0.23120869772E+03  0.00000000000E+00 0. -1.
          2    1    1    2  501    0  0.21863203674E+02 -0.26038327153E+02  0.97103321204E+00  0.34013777522E+02  0.00000000000E+00 0. -1.
          1    1    1    2  502    0 -0.21863203674E+02  0.26038327153E+02 -0.21334118863E+03  0.21603346250E+03  0.00000000000E+00 0. -1.
</event>
<event>
 4    1  0.8284550E+003  0.2117485E+02  0.7546771E-02  0.1516783E+00
          2   -1    0    0  502    0  0.00000000000E+00  0.00000000000E+00  0.10669166599E+01  0.10669166599E+01  0.00000000000E+00 0.  1.
          1   -1    0    0  501    0 -0.00000000000E+00 -0.00000000000E+00 -0.60238603876E+03  0.60238603876E+03  0.00000000000E+00 0. -1.
          2    1    1    2  501    0 -0.19702128206E+02  0.77589027816E+01 -0.13475019716E+03  0.13640377584E+03  0.00000000000E+00 0.  1.
          1    1    1    2  502    0  0.19702128206E+02 -0.77589027816E+01 -0.46656892494E+03  0.46704917958E+03  0.00000000000E+00 0. -1.
</event>
<event>
 4    1  0.8284550E+003  0.2981715E+02  0.7546771E-02  0.1421192E+00
          2   -1    0    0  502    0  0.00000000000E+00  0.00000000000E+00  0.21198153761E+02  0.21198153761E+02  0.00000000000E+00 0.  1.
          1   -1    0    0  501    0 -0.00000000000E+00 -0.00000000000E+00 -0.29673416231E+03  0.29673416231E+03  0.00000000000E+00 0. -1.
          2    1    1    2  501    0  0.23570775245E+02  0.18261466905E+02  0.95362046629E+01  0.31304980731E+02  0.00000000000E+00 0.  1.
          1    1    1    2  502    0 -0.23570775245E+02 -0.18261466905E+02 -0.28507221321E+03  0.28662733534E+03  0.00000000000E+00 0. -1.
</event>
<event>
 4    1  0.8284550E+003  0.6953208E+02  0.7546771E-02  0.1230486E+00
          2   -1    0    0  502    0  0.00000000000E+00  0.00000000000E+00  0.11871659223E+02  0.11871659223E+02  0.00000000000E+00 0.  1.
          1   -1    0    0  501    0 -0.00000000000E+00 -0.00000000000E+00 -0.41082244368E+03  0.41082244368E+03  0.00000000000E+00 0. -1.
          2    1    1    2  501    0 -0.12862828968E+02  0.68331968653E+02 -0.17976164995E+03  0.19274065763E+03  0.00000000000E+00 0.  1.
          1    1    1    2  502    0  0.12862828968E+02 -0.68331968653E+02 -0.21918913451E+03  0.22995344528E+03  0.00000000000E+00 0. -1.
</event>
<event>
 4    1  0.8284550E+003  0.3858189E+02  0.7546771E-02  0.1357002E+00
          2   -1    0    0  502    0  0.00000000000E+00  0.00000000000E+00  0.21276682055E+03  0.21276682055E+03  0.00000000000E+00 0.  1.
          1   -1    0    0  501    0 -0.00000000000E+00 -0.00000000000E+00 -0.53408174961E+02  0.53408174961E+02  0.00000000000E+00 0.  1.
          2    1    1    2  501    0  0.92550686335E+00 -0.38570783227E+02  0.20374405922E+03  0.20736490433E+03  0.00000000000E+00 0.  1.
          1    1    1    2  502    0 -0.92550686335E+00  0.38570783227E+02 -0.44385413628E+02  0.58810091180E+02  0.00000000000E+00 0.  1.
</event>
<event>
 4    1  0.8284550E+003  0.3134150E+02  0.7546771E-02  0.1408286E+00
          2   -1    0    0  502    0  0.00000000000E+00  0.00000000000E+00  0.39922698491E+02  0.39922698491E+02  0.00000000000E+00 0.  1.
          1   -1    0    0  501    0 -0.00000000000E+00 -0.00000000000E+00 -0.37578294928E+03  0.37578294928E+03  0.00000000000E+00 0.  1.
          2    1    1    2  501    0  0.16571884512E+02  0.26601922858E+02  0.33002816232E+02  0.45513465428E+02  0.00000000000E+00 0.  1.
          1    1    1    2  502    0 -0.16571884512E+02 -0.26601922858E+02 -0.36886306702E+03  0.37019218234E+03  0.00000000000E+00 0.  1.
</event>
<event>
 4    1  0.8284550E+003  0.2758763E+02  0.7546771E-02  0.1441793E+00
          2   -1    0    0  502    0  0.00000000000E+00  0.00000000000E+00  0.93794307138E+03  0.93794307138E+03  0.00000000000E+00 0.  1.
          1   -1    0    0  501    0 -0.00000000000E+00 -0.00000000000E+00 -0.25550839764E+01  0.25550839764E+01  0.00000000000E+00 0. -1.
          2    1    1    2  501    0 -0.26756933643E+02  0.67189251411E+01  0.85616195753E+03  0.85660631271E+03  0.00000000000E+00 0.  1.
          1    1    1    2  502    0  0.26756933643E+02 -0.67189251411E+01  0.79226029870E+02  0.83891842643E+02  0.00000000000E+00 0. -1.
</event>
<event>
 4    1  0.8284550E+003  0.2612456E+02  0.7546771E-02  0.1456606E+00
          2   -1    0    0  502    0  0.00000000000E+00  0.00000000000E+00  0.11329632730E+02  0.11329632730E+02  0.00000000000E+00 0.  1.
          1   -1    0    0  501    0 -0.00000000000E+00 -0.00000000000E+00 -0.36948295618E+03  0.36948295618E+03  0.00000000000E+00 0. -1.
          2    1    1    2  501    0 -0.14693793008E+02 -0.21600581449E+02 -0.48822263489E+01  0.26576847179E+02  0.00000000000E+00 0.  1.
          1    1    1    2  502    0  0.14693793008E+02  0.21600581449E+02 -0.35327109710E+03  0.35423574173E+03  0.00000000000E+00 0. -1.
</event>
<event>
 4    1  0.8284550E+003  0.2226347E+02  0.7546771E-02  0.1501960E+00
          2   -1    0    0  502    0  0.00000000000E+00  0.00000000000E+00  0.12830652554E+01  0.12830652554E+01  0.00000000000E+00 0. -1.
          1   -1    0    0  501    0 -0.00000000000E+00 -0.00000000000E+00 -0.75216828964E+03  0.75216828964E+03  0.00000000000E+00 0.  1.
          2    1    1    2  501    0  0.12194719680E+02 -0.18626615397E+02 -0.11270413625E+03  0.11488204523E+03  0.00000000000E+00 0. -1.
          1    1    1    2  502    0 -0.12194719680E+02  0.18626615397E+02 -0.63818108813E+03  0.63856930966E+03  0.00000000000E+00 0.  1.
</event>
<event>
 4    1  0.8284550E+003  0.2118402E+02  0.7546771E-02  0.1516654E+00
          2   -1    0    0  502    0  0.00000000000E+00  0.00000000000E+00  0.84401636901E+03  0.84401636901E+03  0.00000000000E+00 0.  1.
          1   -1    0    0  501    0 -0.00000000000E+00 -0.00000000000E+00 -0.14798050521E+03  0.14798050521E+03  0.00000000000E+00 0.  1.
          2    1    1    2  501    0  0.21169655717E+02 -0.77993758140E+00  0.84312449758E+03  0.84339058629E+03  0.00000000000E+00 0.  1.
          1    1    1    2  502    0 -0.21169655717E+02  0.77993758140E+00 -0.14708863378E+03  0.14860628793E+03  0.00000000000E+00 0.  1.
</event>
<event>
 4    1  0.8284550E+003  0.2102210E+02  0.7546771E-02  0.1518949E+00
          2   -1    0    0  502    0  0.00000000000E+00  0.00000000000E+00  0.14541078693E+04  0.14541078693E+04  0.00000000000E+00 0.  1.
          1   -1    0    0  501    0 -0.00000000000E+00 -0.00000000000E+00 -0.41323853393E+00  0.41323853393E+00  0.00000000000E+00 0.  1.
          2    1    1    2  501    0  0.15512478909E+02 -0.14187736714E+02  0.11009074518E+04  0.11011081447E+04  0.00000000000E+00 0.  1.
          1    1    1    2  502    0 -0.15512478909E+02  0.14187736714E+02  0.35278717894E+03  0.35341296311E+03  0.00000000000E+00 0.  1.
</event>
<event>
 4    1  0.8284550E+003  0.2184823E+02  0.7546771E-02  0.1507491E+00
          2   -1    0    0  502    0  0.00000000000E+00  0.00000000000E+00  0.58694244508E+03  0.58694244508E+03  0.00000000000E+00 0.  1.
          1   -1    0    0  501    0 -0.00000000000E+00 -0.00000000000E+00 -0.94276298311E+01  0.94276298311E+01  0.00000000000E+00 0. -1.
          2    1    1    2  501    0  0.14944067891E+02  0.15938001433E+02  0.57379096222E+03  0.57420676884E+03  0.00000000000E+00 0.  1.
          1    1    1    2  502    0 -0.14944067891E+02 -0.15938001433E+02  0.37238530323E+01  0.22163306076E+02  0.00000000000E+00 0. -1.
</event>
<event>
 4    1  0.8284550E+003  0.2635461E+02  0.7546771E-02  0.1454201E+00
          2   -1    0    0  502    0  0.00000000000E+00  0.00000000000E+00  0.19962420453E+04  0.19962420453E+04  0.00000000000E+00 0.  1.
          1   -1    0    0  501    0 -0.00000000000E+00 -0.00000000000E+00 -0.10275036449E+01  0.10275036449E+01  0.00000000000E+00 0. -1.
          2    1    1    2  501    0  0.13731870082E+02 -0.22494471673E+02  0.18097477918E+04  0.18099396773E+04  0.00000000000E+00 0.  1.
          1    1    1    2  502    0 -0.13731870082E+02  0.22494471673E+02  0.18546674991E+03  0.18732987171E+03  0.00000000000E+00 0. -1.
</event>
<event>
 4    1  0.8284550E+003  0.2024632E+02  0.7546771E-02  0.1530303E+00
          2   -1    0    0  502    0  0.00000000000E+00  0.00000000000E+00  0.94768096060E+00  0.94768096060E+00  0.00000000000E+00 0. -1.
          1   -1    0    0  501    0 -0.00000000000E+00 -0.00000000000E+00 -0.93580055151E+03  0.93580055151E+03  0.00000000000E+00 0.  1.
          2    1    1    2  501    0  0.24732061032E+01 -0.20094689823E+02 -0.12395063686E+03  0.12559328678E+03  0.00000000000E+00 0. -1.
          1    1    1    2  502    0 -0.24732061032E+01  0.20094689823E+02 -0.81090223369E+03  0.81115494569E+03  0.00000000000E+00 0.  1.
</event>
<event>
 4    1  0.8284550E+003  0.2623931E+02  0.7546771E-02  0.1455403E+00
          2   -1    0    0  502    0  0.00000000000E+00  0.00000000000E+00  0.11536019618E+03  0.11536019618E+03  0.00000000000E+00 0.  1.
          1   -1    0    0  501    0 -0.00000000000E+00 -0.00000000000E+00 -0.48611398042E+03  0.48611398042E+03  0.00000000000E+00 0. -1.
          2    1    1    2  501    0  0.22484513370E+02  0.13525837741E+02  0.11350834081E+03  0.11650169553E+03  0.00000000000E+00 0.  1.
          1    1    1    2  502    0 -0.22484513370E+02 -0.13525837741E+02 -0.48426212505E+03  0.48497248106E+03  0.00000000000E+00 0. -1.
</event>
<event>
 4    1  0.8284550E+003  0.6139510E+02  0.7546771E-02  0.1255165E+00
          2   -1    0    0  502    0  0.00000000000E+00  0.00000000000E+00  0.11044631582E+04  0.11044631582E+04  0.00000000000E+00 0. -1.
          1   -1    0    0  501    0 -0.00000000000E+00 -0.00000000000E+00 -0.54038139386E+01  0.54038139386E+01  0.00000000000E+00 0. -1.
          2    1    1    2  501    0  0.61241224962E+02 -0.43436422881E+01  0.21268968451E+03  0.22137356834E+03  0.00000000000E+00 0. -1.
          1    1    1    2  502    0 -0.61241224962E+02  0.43436422881E+01  0.88636965970E+03  0.88849340375E+03  0.00000000000E+00 0. -1.
</event>
<event>
 4    1  0.1824850E+004  0.2868092E+02  0.7546771E-02  0.1431416E+00
          2   -1    0    0  502    0  0.00000000000E+00  0.00000000000E+00  0.16671354605E+04  0.16671354605E+04  0.00000000000E+00 0.  1.
          1   -1    0    0  501    0 -0.00000000000E+00 -0.00000000000E+00 -0.77553238774E+03  0.77553238774E+03  0.00000000000E+00 0. -1.
          2    1    1    2  501    0  0.28394789563E+02  0.40411753462E+01  0.16667468729E+04  0.16669936214E+04  0.00000000000E+00 0.  1.
          1    1    1    2  502    0 -0.28394789563E+02 -0.40411753462E+01 -0.77514380022E+03  0.77567422685E+03  0.00000000000E+00 0. -1.
</event>
<event>
 4    1  0.8284550E+003  0.2972221E+02  0.7546771E-02  0.1422026E+00
          2   -1    0    0  502    0  0.00000000000E+00  0.00000000000E+00  0.39782200716E+01  0.39782200716E+01  0.00000000000E+00 0.  1.
          1   -1    0    0  501    0 -0.00000000000E+00 -0.00000000000E+00 -0.22548132409E+03  0.22548132409E+03  0.00000000000E+00 0.  1.
          2    1    1    2  501    0  0.28609196722E+02 -0.80575204837E+01 -0.96622317799E+02  0.10109046478E+03  0.00000000000E+00 0.  1.
          1    1    1    2  502    0 -0.28609196722E+02  0.80575204837E+01 -0.12488078622E+03  0.12836907938E+03  0.00000000000E+00 0.  1.
</event>
<event>
 4    1  0.8284550E+003  0.2216288E+02  0.7546771E-02  0.1503286E+00
          2   -1    0    0  502    0  0.00000000000E+00  0.00000000000E+00  0.13021901627E+04  0.13021901627E+04  0.00000000000E+00 0.  1.
          1   -1    0    0  501    0 -0.00000000000E+00 -0.00000000000E+00 -0.19737271256E+01  0.19737271256E+01  0.00000000000E+00 0.  1.
          2    1    1    2  501    0  0.18070047111E+02 -0.12832253731E+02  0.12365785110E+04  0.12367771049E+04  0.00000000000E+00 0.  1.
          1    1    1    2  502    0 -0.18070047111E+02  0.12832253731E+02  0.63637924569E+02  0.67386784920E+02  0.00000000000E+00 0.  1.
</event>
<event>
 4    1  0.8284550E+003  0.2002154E+02  0.7546771E-02  0.1533707E+00
          2   -1    0    0  502    0  0.00000000000E+00  0.00000000000E+00  0.66997435778E+02  0.66997435778E+02  0.00000000000E+00 0.  1.
          1   -1    0    0  501    0 -0.00000000000E+00 -0.00000000000E+00 -0.18514802595E+02  0.18514802595E+02  0.00000000000E+00 0.  1.
          2    1    1    2  501    0  0.82851138310E+01 -0.18226872860E+02  0.59416897688E+02  0.62699519427E+02  0.00000000000E+00 0.  1.
          1    1    1    2  502    0 -0.82851138310E+01  0.18226872860E+02 -0.10934264505E+02  0.22812718946E+02  0.00000000000E+00 0.  1.
</event>
<event>
 4    1  0.8284550E+003  0.4506157E+02  0.7546771E-02  0.1321132E+00
          2   -1    0    0  502    0  0.00000000000E+00  0.00000000000E+00  0.16790226115E+04  0.16790226115E+04  0.00000000000E+00 0.  1.
          1   -1    0    0  501    0 -0.00000000000E+00 -0.00000000000E+00 -0.14815091000E+02  0.14815091000E+02  0.00000000000E+00 0.  1.
          2    1    1    2  501    0 -0.44185272789E+02 -0.88434786190E+01  0.16437196722E+04  0.16443372240E+04  0.00000000000E+00 0.  1.
          1    1    1    2  502    0  0.44185272789E+02  0.88434786190E+01  0.20487848326E+02  0.49500478529E+02  0.00000000000E+00 0.  1.
</event>
<event>
 4    1  0.8284550E+003  0.3116768E+02  0.7546771E-02  0.1409713E+00
          2   -1    0    0  502    0  0.00000000000E+00  0.00000000000E+00  0.16435579073E+04  0.16435579073E+04  0.00000000000E+00 0. -1.
          1   -1    0    0  501    0 -0.00000000000E+00 -0.00000000000E+00 -0.77755785537E+00  0.77755785537E+00  0.00000000000E+00 0. -1.
          2    1    1    2  501    0  0.21486675140E+02  0.22577581116E+02  0.12240543629E+04  0.12244511047E+04  0.00000000000E+00 0. -1.
          1    1    1    2  502    0 -0.21486675140E+02 -0.22577581116E+02  0.41872598649E+03  0.41988436044E+03  0.00000000000E+00 0. -1.
</event>
<event>
 4    1  0.8284550E+003  0.2330313E+02  0.7546771E-02  0.1488726E+00
          2   -1    0    0  502    0  0.00000000000E+00  0.00000000000E+00  0.29331084649E+02  0.29331084649E+02  0.00000000000E+00 0. -1.
          1   -1    0    0  501    0 -0.00000000000E+00 -0.00000000000E+00 -0.25381780465E+03  0.25381780465E+03  0.00000000000E+00 0. -1.
          2    1    1    2  501    0 -0.42279424423E+01  0.22916382834E+02  0.24069957392E+02  0.33502223036E+02  0.00000000000E+00 0. -1.
          1    1    1    2  502    0  0.42279424423E+01 -0.22916382834E+02 -0.24855667739E+03  0.24964666626E+03  0.00000000000E+00 0. -1.
</event>
<event>
 4    1  0.8284550E+003  0.2541385E+02  0.7546771E-02  0.1464227E+00
          2   -1    0    0  502    0  0.00000000000E+00  0.00000000000E+00  0.14648089118E+03  0.14648089118E+03  0.00000000000E+00 0. -1.
          1   -1    0    0  501    0 -0.00000000000E+00 -0.00000000000E+00 -0.20269612914E+03  0.20269612914E+03  0.00000000000E+00 0.  1.
          2    1    1    2  501    0  0.15184354042E+02  0.20378886896E+02  0.14457155964E+03  0.14678828119E+03  0.00000000000E+00 0. -1.
          1    1    1    2  502    0 -0.15184354042E+02 -0.20378886896E+02 -0.20078679760E+03  0.20238873913E+03  0.00000000000E+00 0.  1.
</event>
<event>
 4    1  0.8284550E+003  0.2229157E+02  0.7546771E-02  0.1501591E+00
          2   -1    0    0  502    0  0.00000000000E+00  0.00000000000E+00  0.12621571174E+03  0.12621571174E+03  0.00000000000E+00 0.  1.
          1   -1    0    0  501    0 -0.00000000000E+00 -0.00000000000E+00 -0.22968923768E+02  0.22968923768E+02  0.00000000000E+00 0.  1.
          2    1    1    2  501    0  0.47575911367E+01 -0.21777954196E+02  0.11952262862E+03  0.12158360380E+03  0.00000000000E+00 0.  1.
          1    1    1    2  502    0 -0.47575911367E+01  0.21777954196E+02 -0.16275840646E+02  0.27601031704E+02  0.00000000000E+00 0.  1.
</event>
<event>
 4    1  0.8284550E+003  0.3775178E+02  0.7546771E-02  0.1362189E+00
          2   -1    0    0  502    0  0.00000000000E+00  0.00000000000E+00  0.59191279828E+01  0.59191279828E+01  0.00000000000E+00 0. -1.
          1   -1    0    0  501    0 -0.00000000000E+00 -0.00000000000E+00 -0.24512736594E+03  0.24512736594E+03  0.00000000000E+00 0.  1.
          2    1    1    2  501    0  0.15851148813E+02  0.34262780513E+02 -0.10288433359E+03  0.10959189361E+03  0.00000000000E+00 0. -1.
          1    1    1    2  502    0 -0.15851148813E+02 -0.34262780513E+02 -0.13632390436E+03  0.14145460031E+03  0.00000000000E+00 0.  1.
</event>
<event>
 4    1  0.8284550E+003  0.2418613E+02  0.7546771E-02  0.1478118E+00
          2   -1    0    0  502    0  0.00000000000E+00  0.00000000000E+00  0.14099759647E+02  0.14099759647E+02  0.00000000000E+00 0.  1.
          1   -1    0    0  501    0 -0.00000000000E+00 -0.00000000000E+00 -0.51579483971E+02  0.51579483971E+02  0.00000000000E+00 0.  1.
          2    1    1    2  501    0  0.47563991030E+01  0.23713812553E+02 -0.33265697626E+02  0.41128759728E+02  0.00000000000E+00 0.  1.
          1    1    1    2  502    0 -0.47563991030E+01 -0.23713812553E+02 -0.42140266970E+01  0.24550483890E+02  0.00000000000E+00 0.  1.
</event>
<event>
 4    1  0.8284550E+003  0.2113640E+02  0.7546771E-02  0.1517326E+00
          2   -1    0    0  502    0  0.00000000000E+00  0.00000000000E+00  0.11989582923E+03  0.11989582923E+03  0.00000000000E+00 0. -1.
          1   -1    0    0  501    0 -0.00000000000E+00 -0.00000000000E+00 -0.15275773065E+02  0.15275773065E+02  0.00000000000E+00 0.  1.
          2    1    1    2  501    0 -0.58393954084E+01 -0.20313765631E+02  0.11107765075E+03  0.11307073940E+03  0.00000000000E+00 0. -1.
          1    1    1    2  502    0  0.58393954084E+01  0.20313765631E+02 -0.64575945836E+01  0.22100862894E+02  0.00000000000E+00 0.  1.
</event>
<event>
 4    1  0.8284550E+003  0.2063327E+02  0.7546771E-02  0.1524566E+00
          2   -1    0    0  502    0  0.00000000000E+00  0.00000000000E+00  0.30099645193E+02  0.30099645193E+02  0.00000000000E+00 0.  1.
          1   -1    0    0  501    0 -0.00000000000E+00 -0.00000000000E+00 -0.82858688717E+03  0.82858688717E+03  0.00000000000E+00 0. -1.
          2    1    1    2  501    0  0.77956016495E+01  0.19103940327E+02  0.26419399559E+02  0.33521882616E+02  0.00000000000E+00 0.  1.
          1    1    1    2  502    0 -0.77956016495E+01 -0.19103940327E+02 -0.82490664153E+03  0.82516464974E+03  0.00000000000E+00 0. -1.
</event>
<event>
 4    1  0.8284550E+003  0.3289962E+02  0.7546771E-02  0.1395963E+00
          2   -1    0    0  502    0  0.00000000000E+00  0.00000000000E+00  0.22451350962E+04  0.22451350962E+04  0.00000000000E+00 0.  1.
          1   -1    0    0  501    0 -0.00000000000E+00 -0.00000000000E+00 -0.19522141786E+01  0.19522141786E+01  0.00000000000E+00 0. -1.
          2    1    1    2  501    0  0.20755477315E+02 -0.25526357109E+02  0.20965842593E+04  0.20968423740E+04  0.00000000000E+00 0.  1.
          1    1    1    2  502    0 -0.20755477315E+02  0.25526357109E+02  0.14659862271E+03  0.15024493644E+03  0.00000000000E+00 0. -1.
</event>
<event>
 4    1  0.8284550E+003  0.3136990E+02  0.7546771E-02  0.1408054E+00
          2   -1    0    0  502    0  0.00000000000E+00  0.00000000000E+00  0.18783417295E+04  0.18783417295E+04  0.00000000000E+00 0.  1.
          1   -1    0    0  501    0 -0.00000000000E+00 -0.00000000000E+00 -0.39481795183E+01  0.39481795183E+01  0.00000000000E+00 0.  1.
          2    1    1    2  501    0  0.13467192017E+02  0.28332053629E+02  0.18136776228E+04  0.18139488939E+04  0.00000000000E+00 0.  1.
          1    1    1    2  502    0 -0.13467192017E+02 -0.28332053629E+02  0.60715927223E+02  0.68341015080E+02  0.00000000000E+00 0.  1.
</event>
<event>
 4    1  0.8284550E+003  0.5694931E+02  0.7546771E-02  0.1270565E+00
          2   -1    0    0  502    0  0.00000000000E+00  0.00000000000E+00  0.90600567316E+01  0.90600567316E+01  0.00000000000E+00 0.  1.
          1   -1    0    0  501    0 -0.00000000000E+00 -0.00000000000E+00 -0.41019937108E+03  0.41019937108E+03  0.00000000000E+00 0.  1.
          2    1    1    2  501    0  0.35804092543E+02  0.44286461245E+02 -0.12576735666E+03  0.13806031905E+03  0.00000000000E+00 0.  1.
          1    1    1    2  502    0 -0.35804092543E+02 -0.44286461245E+02 -0.27537195768E+03  0.28119910877E+03  0.00000000000E+00 0.  1.
</event>
<event>
 4    1  0.8284550E+003  0.2423817E+02  0.7546771E-02  0.1477509E+00
          2   -1    0    0  502    0  0.00000000000E+00  0.00000000000E+00  0.11562759107E+04  0.11562759107E+04  0.00000000000E+00 0. -1.
          1   -1    0    0  501    0 -0.00000000000E+00 -0.00000000000E+00 -0.29757500639E+01  0.29757500639E+01  0.00000000000E+00 0.  1.
          2    1    1    2  501    0  0.23016089721E+02 -0.75992474281E+01  0.11044780759E+04  0.11047440017E+04  0.00000000000E+00 0. -1.
          1    1    1    2  502    0 -0.23016089721E+02  0.75992474281E+01  0.48822084644E+02  0.54507659062E+02  0.00000000000E+00 0.  1.
</event>
<event>
 4    1  0.8284550E+003  0.4144474E+02  0.7546771E-02  0.1340222E+00
          2   -1    0    0  502    0  0.00000000000E+00  0.00000000000E+00  0.11219933369E+04  0.11219933369E+04  0.00000000000E+00 0.  1.
          1   -1    0    0  501    0 -0.00000000000E+00 -0.00000000000E+00 -0.30878241678E+02  0.30878241678E+02  0.00000000000E+00 0. -1.
          2    1    1    2  501    0 -0.29418962603E+02 -0.29192306497E+02  0.11075221975E+04  0.11082973807E+04  0.00000000000E+00 0.  1.
          1    1    1    2  502    0  0.29418962603E+02  0.29192306497E+02 -0.16407102210E+02  0.44574197942E+02  0.00000000000E+00 0. -1.
</event>
<event>
 4    1  0.8284550E+003  0.4320186E+02  0.7546771E-02  0.1330680E+00
          2   -1    0    0  502    0  0.00000000000E+00  0.00000000000E+00  0.20649714025E+04  0.20649714025E+04  0.00000000000E+00 0.  1.
          1   -1    0    0  501    0 -0.00000000000E+00 -0.00000000000E+00 -0.41630149441E+02  0.41630149441E+02  0.00000000000E+00 0.  1.
          2    1    1    2  501    0 -0.31693527352E+02 -0.29358485477E+02  0.20534744724E+04  0.20539288715E+04  0.00000000000E+00 0.  1.
          1    1    1    2  502    0  0.31693527352E+02  0.29358485477E+02 -0.30133219416E+02  0.52672680375E+02  0.00000000000E+00 0.  1.
</event>
<event>
 4    1  0.8284550E+003  0.2732953E+02  0.7546771E-02  0.1444326E+00
          2   -1    0    0  502    0  0.00000000000E+00  0.00000000000E+00  0.63950762323E+02  0.63950762323E+02  0.00000000000E+00 0. -1.
          1   -1    0    0  501    0 -0.00000000000E+00 -0.00000000000E+00 -0.13658479203E+04  0.13658479203E+04  0.00000000000E+00 0.  1.
          2    1    1    2  501    0 -0.17007316299E+02  0.21392854817E+02  0.60887653245E+02  0.66739863370E+02  0.00000000000E+00 0. -1.
          1    1    1    2  502    0  0.17007316299E+02 -0.21392854817E+02 -0.13627848112E+04  0.13630588192E+04  0.00000000000E+00 0.  1.
</event>
<event>
 4    1  0.8284550E+003  0.2270103E+02  0.7546771E-02  0.1496287E+00
          2   -1    0    0  502    0  0.00000000000E+00  0.00000000000E+00  0.93669363233E+03  0.93669363233E+03  0.00000000000E+00 0. -1.
          1   -1    0    0  501    0 -0.00000000000E+00 -0.00000000000E+00 -0.78399557421E+00  0.78399557421E+00  0.00000000000E+00 0. -1.
          2    1    1    2  501    0 -0.24139865026E+01 -0.22572317188E+02  0.72394539830E+03  0.72430123330E+03  0.00000000000E+00 0. -1.
          1    1    1    2  502    0  0.24139865026E+01  0.22572317188E+02  0.21196423845E+03  0.21317639461E+03  0.00000000000E+00 0. -1.
</event>
<event>
 4    1  0.8284550E+003  0.3020105E+02  0.7546771E-02  0.1417857E+00
          2   -1    0    0  502    0  0.00000000000E+00  0.00000000000E+00  0.26530807053E+02  0.26530807053E+02  0.00000000000E+00 0.  1.
          1   -1    0    0  501    0 -0.00000000000E+00 -0.00000000000E+00 -0.84581327477E+03  0.84581327477E+03  0.00000000000E+00 0. -1.
          2    1    1    2  501    0  0.23706782086E+02 -0.18710736406E+02  0.17574504453E+02  0.34942329351E+02  0.00000000000E+00 0.  1.
          1    1    1    2  502    0 -0.23706782086E+02  0.18710736406E+02 -0.83685697217E+03  0.83740175247E+03  0.00000000000E+00 0. -1.
</event>
<event>
 4    1  0.8284550E+003  0.7950804E+02  0.7546771E-02  0.1204994E+00
          2   -1    0    0  502    0  0.00000000000E+00  0.00000000000E+00  0.11004635180E+04  0.11004635180E+04  0.00000000000E+00 0.  1.
          1   -1    0    0  501    0 -0.00000000000E+00 -0.00000000000E+00 -0.57742196524E+01  0.57742196524E+01  0.00000000000E+00 0.  1.
          2    1    1    2  501    0 -0.71757470260E+02 -0.34240244324E+02  0.58707747254E+03  0.59243690604E+03  0.00000000000E+00 0.  1.
          1    1    1    2  502    0  0.71757470260E+02  0.34240244324E+02  0.50761182577E+03  0.51380083158E+03  0.00000000000E+00 0.  1.
</event>
<event>
 4    1  0.8284550E+003  0.2192996E+02  0.7546771E-02  0.1506390E+00
          2   -1    0    0  502    0  0.00000000000E+00  0.00000000000E+00  0.12115391731E+02  0.12115391731E+02  0.00000000000E+00 0.  1.
          1   -1    0    0  501    0 -0.00000000000E+00 -0.00000000000E+00 -0.74882984958E+02  0.74882984958E+02  0.00000000000E+00 0.  1.
          2    1    1    2  501    0  0.47021281949E+01  0.21419925428E+02 -0.15653247680E+01  0.21985755765E+02  0.00000000000E+00 0.  1.
          1    1    1    2  502    0 -0.47021281949E+01 -0.21419925428E+02 -0.61202268459E+02  0.65012620924E+02  0.00000000000E+00 0.  1.
</event>
<event>
 4    1  0.8284550E+003  0.6781680E+02  0.7546771E-02  0.1235361E+00
          2   -1    0    0  502    0  0.00000000000E+00  0.00000000000E+00  0.45215371528E+03  0.45215371528E+03  0.00000000000E+00 0. -1.
          1   -1    0    0  501    0 -0.00000000000E+00 -0.00000000000E+00 -0.14368366543E+02  0.14368366543E+02  0.00000000000E+00 0. -1.
          2    1    1    2  501    0  0.18248974973E+02 -0.65315335392E+02  0.34495836296E+03  0.35156136064E+03  0.00000000000E+00 0. -1.
          1    1    1    2  502    0 -0.18248974973E+02  0.65315335392E+02  0.92826985782E+02  0.11496072118E+03  0.00000000000E+00 0. -1.
</event>
<event>
 4    1  0.8284550E+003  0.2519708E+02  0.7546771E-02  0.1466611E+00
          2   -1    0    0  502    0  0.00000000000E+00  0.00000000000E+00  0.10712628249E+04  0.10712628249E+04  0.00000000000E+00 0. -1.
          1   -1    0    0  501    0 -0.00000000000E+00 -0.00000000000E+00 -0.93420801162E+00  0.93420801162E+00  0.00000000000E+00 0.  1.
          2    1    1    2  501    0  0.10814959881E+02  0.22758062474E+02  0.85931712303E+03  0.85968646069E+03  0.00000000000E+00 0. -1.
          1    1    1    2  502    0 -0.10814959881E+02 -0.22758062474E+02  0.21101149389E+03  0.21251057225E+03  0.00000000000E+00 0.  1.
</event>
<event>
 4    1  0.8284550E+003  0.2359309E+02  0.7546771E-02  0.1485182E+00
          2   -1    0    0  502    0  0.00000000000E+00  0.00000000000E+00  0.17689895431E+02  0.17689895431E+02  0.00000000000E+00 0.  1.
          1   -1    0    0  501    0 -0.00000000000E+00 -0.00000000000E+00 -0.33272237538E+03  0.33272237538E+03  0.00000000000E+00 0. -1.
          2    1    1    2  501    0  0.11255086736E+02 -0.20735404307E+02  0.91993747257E+01  0.25323160635E+02  0.00000000000E+00 0.  1.
          1    1    1    2  502    0 -0.11255086736E+02  0.20735404307E+02 -0.32423185468E+03  0.32508911018E+03  0.00000000000E+00 0. -1.
</event>
<event>
 4    1  0.8284550E+003  0.2529266E+02  0.7546771E-02  0.1465556E+00
          2   -1    0    0  502    0  0.00000000000E+00  0.00000000000E+00  0.17448855977E+04  0.17448855977E+04  0.00000000000E+00 0. -1.
          1   -1    0    0  501    0 -0.00000000000E+00 -0.00000000000E+00 -0.12691108183E+01  0.12691108183E+01  0.00000000000E+00 0.  1.
          2    1    1    2  501    0 -0.23006871468E+02  0.10507256074E+02  0.16080546021E+04  0.16082535005E+04  0.00000000000E+00 0. -1.
          1    1    1    2  502    0  0.23006871468E+02 -0.10507256074E+02  0.13556188481E+03  0.13790120804E+03  0.00000000000E+00 0.  1.
</event>
<event>
 4    1  0.8284550E+003  0.2235967E+02  0.7546771E-02  0.1500699E+00
          2   -1    0    0  502    0  0.00000000000E+00  0.00000000000E+00  0.77832991788E+03  0.77832991788E+03  0.00000000000E+00 0. -1.
          1   -1    0    0  501    0 -0.00000000000E+00 -0.00000000000E+00 -0.17287530638E+01  0.17287530638E+01  0.00000000000E+00 0.  1.
          2    1    1    2  501    0  0.22372509509E+01  0.22247458366E+02  0.69749219326E+03  0.69785049571E+03  0.00000000000E+00 0. -1.
          1    1    1    2  502    0 -0.22372509509E+01 -0.22247458366E+02  0.79108971553E+02  0.82208175236E+02  0.00000000000E+00 0.  1.
</event>
<event>
 4    1  0.8284550E+003  0.2214482E+02  0.7546771E-02  0.1503525E+00
          2   -1    0    0  502    0  0.00000000000E+00  0.00000000000E+00  0.16142756214E+01  0.16142756214E+01  0.00000000000E+00 0.  1.
          1   -1    0    0  501    0 -0.00000000000E+00 -0.00000000000E+00 -0.54842108745E+03  0.54842108745E+03  0.00000000000E+00 0.  1.
          2    1    1    2  501    0  0.96914572140E+01  0.19911523931E+02 -0.89722682878E+02  0.92415112135E+02  0.00000000000E+00 0.  1.
          1    1    1    2  502    0 -0.96914572140E+01 -0.19911523931E+02 -0.45708412895E+03  0.45762025094E+03  0.00000000000E+00 0.  1.
</event>
<event>
 4    1  0.8284550E+003  0.2679844E+02  0.7546771E-02  0.1449643E+00
          2   -1    0    0  502    0  0.00000000000E+00  0.00000000000E+00  0.46932061024E+02  0.46932061024E+02  0.00000000000E+00 0. -1.
          1   -1    0    0  501    0 -0.00000000000E+00 -0.00000000000E+00 -0.34167697294E+03  0.34167697294E+03  0.00000000000E+00 0.  1.
          2    1    1    2  501    0  0.19650619806E+02  0.18221125534E+02  0.42531249592E+02  0.50269906170E+02  0.00000000000E+00 0. -1.
          1    1    1    2  502    0 -0.19650619806E+02 -0.18221125534E+02 -0.33727616151E+03  0.33833912780E+03  0.00000000000E+00 0.  1.
</event>
<event>
 4    1  0.8284550E+003  0.4233431E+02  0.7546771E-02  0.1335324E+00
          2   -1    0    0  502    0  0.00000000000E+00  0.00000000000E+00  0.25213653398E+01  0.25213653398E+01  0.00000000000E+00 0. -1.
          1   -1    0    0  501    0 -0.00000000000E+00 -0.00000000000E+00 -0.10066055210E+04  0.10066055210E+04  0.00000000000E+00 0. -1.
          2    1    1    2  501    0 -0.21355370606E+02 -0.36553278032E+02 -0.22852334216E+03  0.23241151413E+03  0.00000000000E+00 0. -1.
          1    1    1    2  502    0  0.21355370606E+02  0.36553278032E+02 -0.77556081346E+03  0.77671537217E+03  0.00000000000E+00 0. -1.
</event>
<event>
 4    1  0.8284550E+003  0.2602381E+02  0.7546771E-02  0.1457668E+00
          2   -1    0    0  502    0  0.00000000000E+00  0.00000000000E+00  0.22557416780E+03  0.22557416780E+03  0.00000000000E+00 0. -1.
          1   -1    0    0  501    0 -0.00000000000E+00 -0.00000000000E+00 -0.38512633379E+02  0.38512633379E+02  0.00000000000E+00 0. -1.
          2    1    1    2  501    0  0.15608768452E+02  0.20823182508E+02  0.22032296849E+03  0.22185456729E+03  0.00000000000E+00 0. -1.
          1    1    1    2  502    0 -0.15608768452E+02 -0.20823182508E+02 -0.33261434074E+02  0.42232233886E+02  0.00000000000E+00 0. -1.
</event>
<event>
 4    1  0.8284550E+003  0.4321194E+02  0.7546771E-02  0.1330626E+00
          2   -1    0    0  502    0  0.00000000000E+00  0.00000000000E+00  0.18993071248E+03  0.18993071248E+03  0.00000000000E+00 0.  1.
          1   -1    0    0  501    0 -0.00000000000E+00 -0.00000000000E+00 -0.11208905178E+03  0.11208905178E+03  0.00000000000E+00 0.  1.
          2    1    1    2  501    0 -0.18399121517E+02 -0.39099162282E+02  0.18315621599E+03  0.18818467424E+03  0.00000000000E+00 0.  1.
          1    1    1    2  502    0  0.18399121517E+02  0.39099162282E+02 -0.10531455529E+03  0.11383509002E+03  0.00000000000E+00 0.  1.
</event>
<event>
 4    1  0.8284550E+003  0.2022443E+02  0.7546771E-02  0.1530632E+00
          2   -1    0    0  502    0  0.00000000000E+00  0.00000000000E+00  0.46032977683E+02  0.46032977683E+02  0.00000000000E+00 0.  1.
          1   -1    0    0  501    0 -0.00000000000E+00 -0.00000000000E+00 -0.33888710045E+02  0.33888710045E+02  0.00000000000E+00 0. -1.
          2    1    1    2  501    0  0.19220793912E+02 -0.62919389767E+01  0.40396676043E+02  0.45176529858E+02  0.00000000000E+00 0.  1.
          1    1    1    2  502    0 -0.19220793912E+02  0.62919389767E+01 -0.28252408406E+02  0.34745157870E+02  0.00000000000E+00 0. -1.
</event>
<event>
 4    1  0.8284550E+003  0.2728211E+02  0.7546771E-02  0.1444795E+00
          2   -1    0    0  502    0  0.00000000000E+00  0.00000000000E+00  0.28570697213E+01  0.28570697213E+01  0.00000000000E+00 0. -1.
          1   -1    0    0  501    0 -0.00000000000E+00 -0.00000000000E+00 -0.28165103251E+03  0.28165103251E+03  0.00000000000E+00 0. -1.
          2    1    1    2  501    0 -0.12931283004E+02  0.24022816107E+02 -0.10042922507E+03  0.10406893399E+03  0.00000000000E+00 0. -1.
          1    1    1    2  502    0  0.12931283004E+02 -0.24022816107E+02 -0.17836473772E+03  0.18043916824E+03  0.00000000000E+00 0. -1.
</event>
<event>
 4    1  0.8284550E+003  0.3078893E+02  0.7546771E-02  0.1412862E+00
          2   -1    0    0  502    0  0.00000000000E+00  0.00000000000E+00  0.31946351102E+00  0.31946351102E+00  0.00000000000E+00 0. -1.
          1   -1    0    0  501    0 -0.00000000000E+00 -0.00000000000E+00 -0.30694135600E+04  0.30694135600E+04  0.00000000000E+00 0. -1.
          2    1    1    2  501    0  0.22022468591E+02  0.21516715855E+02 -0.12546549187E+04  0.12550326383E+04  0.00000000000E+00 0. -1.
          1    1    1    2  502    0 -0.22022468591E+02 -0.21516715855E+02 -0.18144391778E+04  0.18147003852E+04  0.00000000000E+00 0. -1.
</event>
<event>
 4    1  0.8284550E+003  0.2929956E+02  0.7546771E-02  0.1425782E+00
          2   -1    0    0  502    0  0.00000000000E+00  0.00000000000E+00  0.75984376042E+03  0.75984376042E+03  0.00000000000E+00 0. -1.
          1   -1    0    0  501    0 -0.00000000000E+00 -0.00000000000E+00 -0.14615925875E+02  0.14615925875E+02  0.00000000000E+00 0. -1.
          2    1    1    2  501    0 -0.24748306415E+02 -0.15683920487E+02  0.74457663881E+03  0.74515289377E+03  0.00000000000E+00 0. -1.
          1    1    1    2  502    0  0.24748306415E+02  0.15683920487E+02  0.65119573452E+00  0.29306792525E+02  0.00000000000E+00 0. -1.
</event>
<event>
 4    1  0.8284550E+003  0.2924746E+02  0.7546771E-02  0.1426251E+00
          2   -1    0    0  502    0  0.00000000000E+00  0.00000000000E+00  0.28620613501E+03  0.28620613501E+03  0.00000000000E+00 0.  1.
          1   -1    0    0  501    0 -0.00000000000E+00 -0.00000000000E+00 -0.44354771062E+03  0.44354771062E+03  0.00000000000E+00 0.  1.
          2    1    1    2  501    0  0.27621658380E+02 -0.96155056020E+01  0.28497471297E+03  0.28647164082E+03  0.00000000000E+00 0.  1.
          1    1    1    2  502    0 -0.27621658380E+02  0.96155056020E+01 -0.44231628858E+03  0.44328220481E+03  0.00000000000E+00 0.  1.
</event>
<event>
 4    1  0.8284550E+003  0.4566658E+02  0.7546771E-02  0.1318139E+00
          2   -1    0    0  502    0  0.00000000000E+00  0.00000000000E+00  0.38540778624E+02  0.38540778624E+02  0.00000000000E+00 0.  1.
          1   -1    0    0  501    0 -0.00000000000E+00 -0.00000000000E+00 -0.70240717622E+03  0.70240717622E+03  0.00000000000E+00 0. -1.
          2    1    1    2  501    0 -0.25618186215E+02 -0.37804039468E+02  0.23985121809E+02  0.51582195894E+02  0.00000000000E+00 0.  1.
          1    1    1    2  502    0  0.25618186215E+02  0.37804039468E+02 -0.68785151940E+03  0.68936575895E+03  0.00000000000E+00 0. -1.
</event>
<event>
 4    1  0.8284550E+003  0.2668767E+02  0.7546771E-02  0.1450771E+00
          2   -1    0    0  502    0  0.00000000000E+00  0.00000000000E+00  0.31901600345E+03  0.31901600345E+03  0.00000000000E+00 0.  1.
          1   -1    0    0  501    0 -0.00000000000E+00 -0.00000000000E+00 -0.36263906574E+01  0.36263906574E+01  0.00000000000E+00 0.  1.
          2    1    1    2  501    0  0.14535592186E+02  0.22381875085E+02  0.25770736922E+03  0.25908554557E+03  0.00000000000E+00 0.  1.
          1    1    1    2  502    0 -0.14535592186E+02 -0.22381875085E+02  0.57682243571E+02  0.63556848537E+02  0.00000000000E+00 0.  1.
</event>
<event>
 4    1  0.8284550E+003  0.2118839E+02  0.7546771E-02  0.1516592E+00
          2   -1    0    0  502    0  0.00000000000E+00  0.00000000000E+00  0.63955361429E+02  0.63955361429E+02  0.00000000000E+00 0.  1.
          1   -1    0    0  501    0 -0.00000000000E+00 -0.00000000000E+00 -0.89456606086E+01  0.89456606086E+01  0.00000000000E+00 0. -1.
          2    1    1    2  501    0  0.19911818442E+02  0.72434394326E+01  0.44417835668E+02  0.49212722480E+02  0.00000000000E+00 0.  1.
          1    1    1    2  502    0 -0.19911818442E+02 -0.72434394326E+01  0.10591865152E+02  0.23688299557E+02  0.00000000000E+00 0. -1.
</event>
<event>
 4    1  0.8284550E+003  0.2218221E+02  0.7546771E-02  0.1503031E+00
          2   -1    0    0  502    0  0.00000000000E+00  0.00000000000E+00  0.72484053178E+02  0.72484053178E+02  0.00000000000E+00 0. -1.
          1   -1    0    0  501    0 -0.00000000000E+00 -0.00000000000E+00 -0.16252258891E+02  0.16252258891E+02  0.00000000000E+00 0. -1.
          2    1    1    2  501    0  0.21268565404E+02  0.63006695576E+01  0.61972921002E+02  0.65823196890E+02  0.00000000000E+00 0. -1.
          1    1    1    2  502    0 -0.21268565404E+02 -0.63006695576E+01 -0.57411267151E+01  0.22913115179E+02  0.00000000000E+00 0. -1.
</event>
<event>
 4    1  0.8284550E+003  0.2974698E+02  0.7546771E-02  0.1421808E+00
          2   -1    0    0  502    0  0.00000000000E+00  0.00000000000E+00  0.86029423100E+02  0.86029423100E+02  0.00000000000E+00 0. -1.
          1   -1    0    0  501    0 -0.00000000000E+00 -0.00000000000E+00 -0.23436719733E+03  0.23436719733E+03  0.00000000000E+00 0.  1.
          2    1    1    2  501    0 -0.90439741814E+01 -0.28338832615E+02  0.82474621800E+02  0.87675231074E+02  0.00000000000E+00 0. -1.
          1    1    1    2  502    0  0.90439741814E+01  0.28338832615E+02 -0.23081239603E+03  0.23272138935E+03  0.00000000000E+00 0.  1.
</event>
<event>
 4    1  0.8284550E+003  0.4665585E+02  0.7546771E-02  0.1313361E+00
          2   -1    0    0  502    0  0.00000000000E+00  0.00000000000E+00  0.21764858115E+03  0.21764858115E+03  0.00000000000E+00 0.  1.
          1   -1    0    0  501    0 -0.00000000000E+00 -0.00000000000E+00 -0.11081282547E+02  0.11081282547E+02  0.00000000000E+00 0.  1.
          2    1    1    2  501    0 -0.25963239220E+02 -0.38764367757E+02  0.67580315030E+02  0.82121038583E+02  0.00000000000E+00 0.  1.
          1    1    1    2  502    0  0.25963239220E+02  0.38764367757E+02  0.13898698357E+03  0.14660882511E+03  0.00000000000E+00 0.  1.
</event>
<event>
 4    1  0.8284550E+003  0.2157505E+02  0.7546771E-02  0.1511211E+00
          2   -1    0    0  502    0  0.00000000000E+00  0.00000000000E+00  0.13244270258E+04  0.13244270258E+04  0.00000000000E+00 0.  1.
          1   -1    0    0  501    0 -0.00000000000E+00 -0.00000000000E+00 -0.89575495336E+02  0.89575495336E+02  0.00000000000E+00 0. -1.
          2    1    1    2  501    0 -0.20427759934E+01  0.21478120615E+02  0.13230386629E+04  0.13232145654E+04  0.00000000000E+00 0.  1.
          1    1    1    2  502    0  0.20427759934E+01 -0.21478120615E+02 -0.88187132374E+02  0.90787955783E+02  0.00000000000E+00 0. -1.
</event>
<event>
 4    1  0.8284550E+003  0.2503509E+02  0.7546771E-02  0.1468411E+00
          2   -1    0    0  502    0  0.00000000000E+00  0.00000000000E+00  0.10879039005E+04  0.10879039005E+04  0.00000000000E+00 0. -1.
          1   -1    0    0  501    0 -0.00000000000E+00 -0.00000000000E+00 -0.33770613744E+01  0.33770613744E+01  0.00000000000E+00 0. -1.
          2    1    1    2  501    0 -0.12176763930E+02 -0.21874237032E+02  0.10391870402E+04  0.10394885571E+04  0.00000000000E+00 0. -1.
          1    1    1    2  502    0  0.12176763930E+02  0.21874237032E+02  0.45339798926E+02  0.51792404773E+02  0.00000000000E+00 0. -1.
</event>
<event>
 4    1  0.8284550E+003  0.2102838E+02  0.7546771E-02  0.1518860E+00
          2   -1    0    0  502    0  0.00000000000E+00  0.00000000000E+00  0.12765515443E+04  0.12765515443E+04  0.00000000000E+00 0. -1.
          1   -1    0    0  501    0 -0.00000000000E+00 -0.00000000000E+00 -0.29192902229E+01  0.29192902229E+01  0.00000000000E+00 0. -1.
          2    1    1    2  501    0  0.16561803919E+02 -0.12957595352E+02  0.12373986722E+04  0.12375773376E+04  0.00000000000E+00 0. -1.
          1    1    1    2  502    0 -0.16561803919E+02  0.12957595352E+02  0.36233581805E+02  0.41893496832E+02  0.00000000000E+00 0. -1.
</event>
<event>
 4    1  0.8284550E+003  0.2783573E+02  0.7546771E-02  0.1439389E+00
          2   -1    0    0  502    0  0.00000000000E+00  0.00000000000E+00  0.23243974129E+03  0.23243974129E+03  0.00000000000E+00 0. -1.
          1   -1    0    0  501    0 -0.00000000000E+00 -0.00000000000E+00 -0.16972490679E+03  0.16972490679E+03  0.00000000000E+00 0. -1.
          2    1    1    2  501    0 -0.17585153898E+02 -0.21577541028E+02  0.23045528517E+03  0.23213027889E+03  0.00000000000E+00 0. -1.
          1    1    1    2  502    0  0.17585153898E+02  0.21577541028E+02 -0.16774045067E+03  0.17003436919E+03  0.00000000000E+00 0. -1.
</event>
<event>
 4    1  0.8284550E+003  0.4035997E+02  0.7546771E-02  0.1346389E+00
          2   -1    0    0  502    0  0.00000000000E+00  0.00000000000E+00  0.10187237500E+04  0.10187237500E+04  0.00000000000E+00 0.  1.
          1   -1    0    0  501    0 -0.00000000000E+00 -0.00000000000E+00 -0.84285869168E+01  0.84285869168E+01  0.00000000000E+00 0.  1.
          2    1    1    2  501    0 -0.28121947465E+02  0.28949671793E+02  0.96744882990E+03  0.96829033141E+03  0.00000000000E+00 0.  1.
          1    1    1    2  502    0  0.28121947465E+02 -0.28949671793E+02  0.42846333216E+02  0.58862005540E+02  0.00000000000E+00 0.  1.
</event>
<event>
 4    1  0.8284550E+003  0.3399128E+02  0.7546771E-02  0.1387797E+00
          2   -1    0    0  502    0  0.00000000000E+00  0.00000000000E+00  0.11723662110E+04  0.11723662110E+04  0.00000000000E+00 0.  1.
          1   -1    0    0  501    0 -0.00000000000E+00 -0.00000000000E+00 -0.22203031973E+01  0.22203031973E+01  0.00000000000E+00 0.  1.
          2    1    1    2  501    0 -0.29246975546E+02 -0.17321130148E+02  0.10230402791E+04  0.10236048162E+04  0.00000000000E+00 0.  1.
          1    1    1    2  502    0  0.29246975546E+02  0.17321130148E+02  0.14710562872E+03  0.15098169800E+03  0.00000000000E+00 0.  1.
</event>
<event>
 4    1  0.8284550E+003  0.2859779E+02  0.7546771E-02  0.1432186E+00
          2   -1    0    0  502    0  0.00000000000E+00  0.00000000000E+00  0.12405682155E+04  0.12405682155E+04  0.00000000000E+00 0.  1.
          1   -1    0    0  501    0 -0.00000000000E+00 -0.00000000000E+00 -0.14223313430E+02  0.14223313430E+02  0.00000000000E+00 0. -1.
          2    1    1    2  501    0  0.42092267294E+01  0.28286321818E+02  0.12258560295E+04  0.12261895607E+04  0.00000000000E+00 0.  1.
          1    1    1    2  502    0 -0.42092267294E+01 -0.28286321818E+02  0.48887254619E+00  0.28601968255E+02  0.00000000000E+00 0. -1.
</event>
<event>
 4    1  0.8284550E+003  0.2356266E+02  0.7546771E-02  0.1485551E+00
          2   -1    0    0  502    0  0.00000000000E+00  0.00000000000E+00  0.18811192073E+02  0.18811192073E+02  0.00000000000E+00 0. -1.
          1   -1    0    0  501    0 -0.00000000000E+00 -0.00000000000E+00 -0.16417407585E+04  0.16417407585E+04  0.00000000000E+00 0.  1.
          2    1    1    2  501    0 -0.16495396646E+02  0.16825603238E+02  0.11314227695E+02  0.26138301077E+02  0.00000000000E+00 0. -1.
          1    1    1    2  502    0  0.16495396646E+02 -0.16825603238E+02 -0.16342437941E+04  0.16344136495E+04  0.00000000000E+00 0.  1.
</event>
<event>
 4    1  0.8284550E+003  0.2575145E+02  0.7546771E-02  0.1460570E+00
          2   -1    0    0  502    0  0.00000000000E+00  0.00000000000E+00  0.25025294338E+03  0.25025294338E+03  0.00000000000E+00 0.  1.
          1   -1    0    0  501    0 -0.00000000000E+00 -0.00000000000E+00 -0.66816592935E+02  0.66816592935E+02  0.00000000000E+00 0.  1.
          2    1    1    2  501    0 -0.24339342242E+02 -0.84103187087E+01  0.24707749044E+03  0.24841582745E+03  0.00000000000E+00 0.  1.
          1    1    1    2  502    0  0.24339342242E+02  0.84103187087E+01 -0.63641139998E+02  0.68653708871E+02  0.00000000000E+00 0.  1.
</event>
<event>
 4    1  0.8284550E+003  0.2153194E+02  0.7546771E-02  0.1511804E+00
          2   -1    0    0  502    0  0.00000000000E+00  0.00000000000E+00  0.71062434496E+03  0.71062434496E+03  0.00000000000E+00 0.  1.
          1   -1    0    0  501    0 -0.00000000000E+00 -0.00000000000E+00 -0.41718816748E+01  0.41718816748E+01  0.00000000000E+00 0.  1.
          2    1    1    2  501    0  0.10511502252E+01  0.21506271344E+02  0.68149114359E+03  0.68183121329E+03  0.00000000000E+00 0.  1.
          1    1    1    2  502    0 -0.10511502252E+01 -0.21506271344E+02  0.24961319694E+02  0.32965013345E+02  0.00000000000E+00 0.  1.
</event>
<event>
 4    1  0.8284550E+003  0.2106284E+02  0.7546771E-02  0.1518369E+00
          2   -1    0    0  502    0  0.00000000000E+00  0.00000000000E+00  0.43708435451E+02  0.43708435451E+02  0.00000000000E+00 0. -1.
          1   -1    0    0  501    0 -0.00000000000E+00 -0.00000000000E+00 -0.14202335996E+02  0.14202335996E+02  0.00000000000E+00 0.  1.
          2    1    1    2  501    0  0.15789312485E+02  0.13940620426E+02  0.30219794446E+02  0.36835842096E+02  0.00000000000E+00 0. -1.
          1    1    1    2  502    0 -0.15789312485E+02 -0.13940620426E+02 -0.71369499082E+00  0.21074929351E+02  0.00000000000E+00 0.  1.
</event>
<event>
 4    1  0.8284550E+003  0.2331449E+02  0.7546771E-02  0.1488586E+00
          2   -1    0    0  502    0  0.00000000000E+00  0.00000000000E+00  0.77037833826E+03  0.77037833826E+03  0.00000000000E+00 0. -1.
          1   -1    0    0  501    0 -0.00000000000E+00 -0.00000000000E+00 -0.31898583124E+01  0.31898583124E+01  0.00000000000E+00 0. -1.
          2    1    1    2  501    0 -0.16478106020E+02 -0.16493564118E+02  0.72493079538E+03  0.72530560712E+03  0.00000000000E+00 0. -1.
          1    1    1    2  502    0  0.16478106020E+02  0.16493564118E+02  0.42257684571E+02  0.48262589452E+02  0.00000000000E+00 0. -1.
</event>
<event>
 4    1  0.8284550E+003  0.5337979E+02  0.7546771E-02  0.1284148E+00
          2   -1    0    0  502    0  0.00000000000E+00  0.00000000000E+00  0.81694170428E+03  0.81694170428E+03  0.00000000000E+00 0.  1.
          1   -1    0    0  501    0 -0.00000000000E+00 -0.00000000000E+00 -0.91173589469E+01  0.91173589469E+01  0.00000000000E+00 0.  1.
          2    1    1    2  501    0 -0.29895689833E+01 -0.53296005357E+02  0.72846122376E+03  0.73041437297E+03  0.00000000000E+00 0.  1.
          1    1    1    2  502    0  0.29895689833E+01  0.53296005357E+02  0.79363121572E+02  0.95644690262E+02  0.00000000000E+00 0.  1.
</event>
<event>
 4    1  0.8284550E+003  0.2346878E+02  0.7546771E-02  0.1486694E+00
          2   -1    0    0  502    0  0.00000000000E+00  0.00000000000E+00  0.45098226292E+02  0.45098226292E+02  0.00000000000E+00 0. -1.
          1   -1    0    0  501    0 -0.00000000000E+00 -0.00000000000E+00 -0.16986298735E+03  0.16986298735E+03  0.00000000000E+00 0. -1.
          2    1    1    2  501    0 -0.50838806030E+01 -0.22911523188E+02  0.41162284749E+02  0.47382670066E+02  0.00000000000E+00 0. -1.
          1    1    1    2  502    0  0.50838806030E+01  0.22911523188E+02 -0.16592704580E+03  0.16757854357E+03  0.00000000000E+00 0. -1.
</event>
<event>
 4    1  0.8284550E+003  0.2939222E+02  0.7546771E-02  0.1424953E+00
          2   -1    0    0  502    0  0.00000000000E+00  0.00000000000E+00  0.41906861995E+03  0.41906861995E+03  0.00000000000E+00 0. -1.
          1   -1    0    0  501    0 -0.00000000000E+00 -0.00000000000E+00 -0.11568379884E+02  0.11568379884E+02  0.00000000000E+00 0. -1.
          2    1    1    2  501    0  0.18622912821E+02 -0.22739603210E+02  0.39894323204E+03  0.40002450529E+03  0.00000000000E+00 0. -1.
          1    1    1    2  502    0 -0.18622912821E+02  0.22739603210E+02  0.85570080201E+01  0.30612494546E+02  0.00000000000E+00 0. -1.
</event>
<event>
 4    1  0.8284550E+003  0.2286392E+02  0.7546771E-02  0.1494214E+00
          2   -1    0    0  502    0  0.00000000000E+00  0.00000000000E+00  0.40176491357E+03  0.40176491357E+03  0.00000000000E+00 0.  1.
          1   -1    0    0  501    0 -0.00000000000E+00 -0.00000000000E+00 -0.89900788392E+02  0.89900788392E+02  0.00000000000E+00 0. -1.
          2    1    1    2  501    0 -0.73512964187E+01 -0.21649882485E+02  0.39997942975E+03  0.40063237911E+03  0.00000000000E+00 0.  1.
          1    1    1    2  502    0  0.73512964187E+01  0.21649882485E+02 -0.88115304567E+02  0.91033322853E+02  0.00000000000E+00 0. -1.
</event>
<event>
 4    1  0.8284550E+003  0.2091779E+02  0.7546771E-02  0.1520442E+00
          2   -1    0    0  502    0  0.00000000000E+00  0.00000000000E+00  0.82100685379E+02  0.82100685379E+02  0.00000000000E+00 0.  1.
          1   -1    0    0  501    0 -0.00000000000E+00 -0.00000000000E+00 -0.29815821498E+03  0.29815821498E+03  0.00000000000E+00 0. -1.
          2    1    1    2  501    0 -0.20371984005E+02 -0.47472306892E+01  0.80393772789E+02  0.83070528076E+02  0.00000000000E+00 0.  1.
          1    1    1    2  502    0  0.20371984005E+02  0.47472306892E+01 -0.29645130239E+03  0.29718837228E+03  0.00000000000E+00 0. -1.
</event>
<event>
 4    1  0.8284550E+003  0.2630725E+02  0.7546771E-02  0.1454694E+00
          2   -1    0    0  502    0  0.00000000000E+00  0.00000000000E+00  0.57439797680E+03  0.57439797680E+03  0.00000000000E+00 0.  1.
          1   -1    0    0  501    0 -0.00000000000E+00 -0.00000000000E+00 -0.23679939001E+01  0.23679939001E+01  0.00000000000E+00 0.  1.
          2    1    1    2  501    0  0.15220661635E+02  0.21457003012E+02  0.48812761028E+03  0.48883600055E+03  0.00000000000E+00 0.  1.
          1    1    1    2  502    0 -0.15220661635E+02 -0.21457003012E+02  0.83902372622E+02  0.87929970150E+02  0.00000000000E+00 0.  1.
</event>
<event>
 4    1  0.8284550E+003  0.2436269E+02  0.7546771E-02  0.1476061E+00
          2   -1    0    0  502    0  0.00000000000E+00  0.00000000000E+00  0.16373859717E+03  0.16373859717E+03  0.00000000000E+00 0. -1.
          1   -1    0    0  501    0 -0.00000000000E+00 -0.00000000000E+00 -0.49730472830E+03  0.49730472830E+03  0.00000000000E+00 0. -1.
          2    1    1    2  501    0  0.16947094989E+02  0.17502471749E+02  0.16253178341E+03  0.16434756209E+03  0.00000000000E+00 0. -1.
          1    1    1    2  502    0 -0.16947094989E+02 -0.17502471749E+02 -0.49609791454E+03  0.49669576338E+03  0.00000000000E+00 0. -1.
</event>
<event>
 4    1  0.8284550E+003  0.2577922E+02  0.7546771E-02  0.1460272E+00
          2   -1    0    0  502    0  0.00000000000E+00  0.00000000000E+00  0.75720521825E+03  0.75720521825E+03  0.00000000000E+00 0.  1.
          1   -1    0    0  501    0 -0.00000000000E+00 -0.00000000000E+00 -0.58449511385E+02  0.58449511385E+02  0.00000000000E+00 0.  1.
          2    1    1    2  501    0 -0.62689862073E+01 -0.25005359177E+02  0.75413173403E+03  0.75457222347E+03  0.00000000000E+00 0.  1.
          1    1    1    2  502    0  0.62689862073E+01  0.25005359177E+02 -0.55376027157E+02  0.61082506164E+02  0.00000000000E+00 0.  1.
</event>
<event>
 4    1  0.8284550E+003  0.4465597E+02  0.7546771E-02  0.1323169E+00
          2   -1    0    0  502    0  0.00000000000E+00  0.00000000000E+00  0.20758793687E+04  0.20758793687E+04  0.00000000000E+00 0.  1.
          1   -1    0    0  501    0 -0.00000000000E+00 -0.00000000000E+00 -0.27579693440E+02  0.27579693440E+02  0.00000000000E+00 0. -1.
          2    1    1    2  501    0 -0.28563030739E+02 -0.34326500637E+02  0.20574005743E+04  0.20578851471E+04  0.00000000000E+00 0.  1.
          1    1    1    2  502    0  0.28563030739E+02  0.34326500637E+02 -0.91008990501E+01  0.45573915067E+02  0.00000000000E+00 0. -1.
</event>
<event>
 4    1  0.8284550E+003  0.2024838E+02  0.7546771E-02  0.1530272E+00
          2   -1    0    0  502    0  0.00000000000E+00  0.00000000000E+00  0.38871452102E+02  0.38871452102E+02  0.00000000000E+00 0. -1.
          1   -1    0    0  501    0 -0.00000000000E+00 -0.00000000000E+00 -0.12459657940E+02  0.12459657940E+02  0.00000000000E+00 0. -1.
          2    1    1    2  501    0 -0.10392393352E+02  0.17378008394E+02  0.23260348676E+02  0.30838949980E+02  0.00000000000E+00 0. -1.
          1    1    1    2  502    0  0.10392393352E+02 -0.17378008394E+02  0.31514454859E+01  0.20492160061E+02  0.00000000000E+00 0. -1.
</event>
<event>
 4    1  0.8284550E+003  0.2233378E+02  0.7546771E-02  0.1501038E+00
          2   -1    0    0  502    0  0.00000000000E+00  0.00000000000E+00  0.11683239222E+03  0.11683239222E+03  0.00000000000E+00 0. -1.
          1   -1    0    0  501    0 -0.00000000000E+00 -0.00000000000E+00 -0.13478655196E+03  0.13478655196E+03  0.00000000000E+00 0. -1.
          2    1    1    2  501    0 -0.14706520348E+02 -0.16808217469E+02  0.11482386011E+03  0.11697571016E+03  0.00000000000E+00 0. -1.
          1    1    1    2  502    0  0.14706520348E+02  0.16808217469E+02 -0.13277801985E+03  0.13464323403E+03  0.00000000000E+00 0. -1.
</event>
<event>
 4    1  0.8284550E+003  0.2229600E+02  0.7546771E-02  0.1501533E+00
          2   -1    0    0  502    0  0.00000000000E+00  0.00000000000E+00  0.12475837473E+03  0.12475837473E+03  0.00000000000E+00 0. -1.
          1   -1    0    0  501    0 -0.00000000000E+00 -0.00000000000E+00 -0.28504499395E+02  0.28504499395E+02  0.00000000000E+00 0.  1.
          2    1    1    2  501    0  0.17333634290E+02  0.14023431098E+02  0.11920075702E+03  0.12126801710E+03  0.00000000000E+00 0. -1.
          1    1    1    2  502    0 -0.17333634290E+02 -0.14023431098E+02 -0.22946881680E+02  0.31994857029E+02  0.00000000000E+00 0.  1.
</event>
<event>
 4    1  0.8284550E+003  0.2231068E+02  0.7546771E-02  0.1501340E+00
          2   -1    0    0  502    0  0.00000000000E+00  0.00000000000E+00  0.45797557079E+02  0.45797557079E+02  0.00000000000E+00 0.  1.
          1   -1    0    0  501    0 -0.00000000000E+00 -0.00000000000E+00 -0.38619461169E+02  0.38619461169E+02  0.00000000000E+00 0.  1.
          2    1    1    2  501    0 -0.17474636755E+02 -0.13870962755E+02  0.39368462063E+02  0.45250882231E+02  0.00000000000E+00 0.  1.
          1    1    1    2  502    0  0.17474636755E+02  0.13870962755E+02 -0.32190366153E+02  0.39166136017E+02  0.00000000000E+00 0.  1.
</event>
<event>
 4    1  0.8284550E+003  0.2288660E+02  0.7546771E-02  0.1493927E+00
          2   -1    0    0  502    0  0.00000000000E+00  0.00000000000E+00  0.71423095367E+02  0.71423095367E+02  0.00000000000E+00 0.  1.
          1   -1    0    0  501    0 -0.00000000000E+00 -0.00000000000E+00 -0.11959899667E+02  0.11959899667E+02  0.00000000000E+00 0. -1.
          2    1    1    2  501    0  0.19388705453E+02  0.12160373151E+02  0.55661163564E+02  0.60182735926E+02  0.00000000000E+00 0.  1.
          1    1    1    2  502    0 -0.19388705453E+02 -0.12160373151E+02  0.38020321364E+01  0.23200259108E+02  0.00000000000E+00 0. -1.
</event>
<event>
 4    1  0.8284550E+003  0.2120263E+02  0.7546771E-02  0.1516391E+00
          2   -1    0    0  502    0  0.00000000000E+00  0.00000000000E+00  0.14492544454E+04  0.14492544454E+04  0.00000000000E+00 0.  1.
          1   -1    0    0  501    0 -0.00000000000E+00 -0.00000000000E+00 -0.24311372479E+01  0.24311372479E+01  0.00000000000E+00 0. -1.
          2    1    1    2  501    0  0.12905195456E+02 -0.16822829126E+02  0.14013687944E+04  0.14015291826E+04  0.00000000000E+00 0.  1.
          1    1    1    2  502    0 -0.12905195456E+02  0.16822829126E+02  0.45454513778E+02  0.50156400114E+02  0.00000000000E+00 0. -1.
</event>
<event>
 4    1  0.8284550E+003  0.2468684E+02  0.7546771E-02  0.1472337E+00
          2   -1    0    0  502    0  0.00000000000E+00  0.00000000000E+00  0.46853363498E+00  0.46853363498E+00  0.00000000000E+00 0. -1.
          1   -1    0    0  501    0 -0.00000000000E+00 -0.00000000000E+00 -0.21248657661E+04  0.21248657661E+04  0.00000000000E+00 0. -1.
          2    1    1    2  501    0  0.20687407223E+02 -0.13471125959E+02 -0.40039601444E+03  0.40115633914E+03  0.00000000000E+00 0. -1.
          1    1    1    2  502    0 -0.20687407223E+02  0.13471125959E+02 -0.17240012181E+04  0.17241779606E+04  0.00000000000E+00 0. -1.
</event>
<event>
 4    1  0.8284550E+003  0.2678478E+02  0.7546771E-02  0.1449782E+00
          2   -1    0    0  502    0  0.00000000000E+00  0.00000000000E+00  0.25396926876E+02  0.25396926876E+02  0.00000000000E+00 0. -1.
          1   -1    0    0  501    0 -0.00000000000E+00 -0.00000000000E+00 -0.31502442078E+02  0.31502442078E+02  0.00000000000E+00 0. -1.
          2    1    1    2  501    0  0.24977418270E+01  0.26668053055E+02 -0.12196284000E+02  0.29430819074E+02  0.00000000000E+00 0. -1.
          1    1    1    2  502    0 -0.24977418270E+01 -0.26668053055E+02  0.60907687989E+01  0.27468549880E+02  0.00000000000E+00 0. -1.
</event>
<event>
 4    1  0.8284550E+003  0.3239259E+02  0.7546771E-02  0.1399883E+00
          2   -1    0    0  502    0  0.00000000000E+00  0.00000000000E+00  0.20170968342E+04  0.20170968342E+04  0.00000000000E+00 0.  1.
          1   -1    0    0  501    0 -0.00000000000E+00 -0.00000000000E+00 -0.16731351498E+01  0.16731351498E+01  0.00000000000E+00 0.  1.
          2    1    1    2  501    0  0.38118556750E+00  0.32390349025E+02  0.18456173728E+04  0.18459016136E+04  0.00000000000E+00 0.  1.
          1    1    1    2  502    0 -0.38118556750E+00 -0.32390349025E+02  0.16980632616E+03  0.17286835574E+03  0.00000000000E+00 0.  1.
</event>
<event>
 4    1  0.8284550E+003  0.2428948E+02  0.7546771E-02  0.1476911E+00
          2   -1    0    0  502    0  0.00000000000E+00  0.00000000000E+00  0.64430068853E+02  0.64430068853E+02  0.00000000000E+00 0.  1.
          1   -1    0    0  501    0 -0.00000000000E+00 -0.00000000000E+00 -0.32808788900E+03  0.32808788900E+03  0.00000000000E+00 0. -1.
          2    1    1    2  501    0 -0.90343570207E+01 -0.22546822780E+02  0.61671907560E+02  0.66282750443E+02  0.00000000000E+00 0.  1.
          1    1    1    2  502    0  0.90343570207E+01  0.22546822780E+02 -0.32532972771E+03  0.32623520741E+03  0.00000000000E+00 0. -1.
</event>
<event>
 4    1  0.8284550E+003  0.2232809E+02  0.7546771E-02  0.1501112E+00
          2   -1    0    0  502    0  0.00000000000E+00  0.00000000000E+00  0.11634433246E+03  0.11634433246E+03  0.00000000000E+00 0. -1.
          1   -1    0    0  501    0 -0.00000000000E+00 -0.00000000000E+00 -0.16498692745E+03  0.16498692745E+03  0.00000000000E+00 0. -1.
          2    1    1    2  501    0  0.98040462476E+01 -0.20060520043E+02  0.11450561795E+03  0.11666224895E+03  0.00000000000E+00 0. -1.
          1    1    1    2  502    0 -0.98040462476E+01  0.20060520043E+02 -0.16314821294E+03  0.16466901096E+03  0.00000000000E+00 0. -1.
</event>
<event>
 4    1  0.8284550E+003  0.2109047E+02  0.7546771E-02  0.1517977E+00
          2   -1    0    0  502    0  0.00000000000E+00  0.00000000000E+00  0.10193628326E+03  0.10193628326E+03  0.00000000000E+00 0. -1.
          1   -1    0    0  501    0 -0.00000000000E+00 -0.00000000000E+00 -0.10159354657E+02  0.10159354657E+02  0.00000000000E+00 0.  1.
          2    1    1    2  501    0  0.39207960223E+01 -0.20722821525E+02  0.88221663582E+02  0.90707606619E+02  0.00000000000E+00 0. -1.
          1    1    1    2  502    0 -0.39207960223E+01  0.20722821525E+02  0.35552650205E+01  0.21388031297E+02  0.00000000000E+00 0.  1.
</event>
<event>
 4    1  0.8284550E+003  0.2966254E+02  0.7546771E-02  0.1422552E+00
          2   -1    0    0  502    0  0.00000000000E+00  0.00000000000E+00  0.63111233641E+03  0.63111233641E+03  0.00000000000E+00 0.  1.
          1   -1    0    0  501    0 -0.00000000000E+00 -0.00000000000E+00 -0.16066967142E+01  0.16066967142E+01  0.00000000000E+00 0.  1.
          2    1    1    2  501    0 -0.22135076743E+02  0.19746004709E+02  0.42981681029E+03  0.43083913092E+03  0.00000000000E+00 0.  1.
          1    1    1    2  502    0  0.22135076743E+02 -0.19746004709E+02  0.19968882941E+03  0.20187990221E+03  0.00000000000E+00 0.  1.
</event>
<event>
 4    1  0.8284550E+003  0.2078193E+02  0.7546771E-02  0.1522401E+00
          2   -1    0    0  502    0  0.00000000000E+00  0.00000000000E+00  0.11547596092E+02  0.11547596092E+02  0.00000000000E+00 0.  1.
          1   -1    0    0  501    0 -0.00000000000E+00 -0.00000000000E+00 -0.57730754777E+02  0.57730754777E+02  0.00000000000E+00 0. -1.
          2    1    1    2  501    0  0.12563861591E+02  0.16554087341E+02 -0.25358461503E+01  0.20936067956E+02  0.00000000000E+00 0.  1.
          1    1    1    2  502    0 -0.12563861591E+02 -0.16554087341E+02 -0.43647312534E+02  0.48342282913E+02  0.00000000000E+00 0. -1.
</event>
<event>
 4    1  0.8284550E+003  0.2472980E+02  0.7546771E-02  0.1471849E+00
          2   -1    0    0  502    0  0.00000000000E+00  0.00000000000E+00  0.60195387704E+03  0.60195387704E+03  0.00000000000E+00 0. -1.
          1   -1    0    0  501    0 -0.00000000000E+00 -0.00000000000E+00 -0.60448578160E+01  0.60448578160E+01  0.00000000000E+00 0. -1.
          2    1    1    2  501    0 -0.18433746953E+02 -0.16485146145E+02  0.57523281830E+03  0.57576415164E+03  0.00000000000E+00 0. -1.
          1    1    1    2  502    0  0.18433746953E+02  0.16485146145E+02  0.20676200925E+02  0.32234583212E+02  0.00000000000E+00 0. -1.
</event>
<event>
 4    1  0.8284550E+003  0.2283680E+02  0.7546771E-02  0.1494558E+00
          2   -1    0    0  502    0  0.00000000000E+00  0.00000000000E+00  0.29234553881E+03  0.29234553881E+03  0.00000000000E+00 0. -1.
          1   -1    0    0  501    0 -0.00000000000E+00 -0.00000000000E+00 -0.71593999175E+01  0.71593999175E+01  0.00000000000E+00 0. -1.
          2    1    1    2  501    0 -0.22296306649E+02 -0.49390422009E+01  0.27235417223E+03  0.27330992400E+03  0.00000000000E+00 0. -1.
          1    1    1    2  502    0  0.22296306649E+02  0.49390422009E+01  0.12831966667E+02  0.26195014728E+02  0.00000000000E+00 0. -1.
</event>
<event>
 4    1  0.8284550E+003  0.2915905E+02  0.7546771E-02  0.1427048E+00
          2   -1    0    0  502    0  0.00000000000E+00  0.00000000000E+00  0.17215781463E+03  0.17215781463E+03  0.00000000000E+00 0. -1.
          1   -1    0    0  501    0 -0.00000000000E+00 -0.00000000000E+00 -0.24617023836E+02  0.24617023836E+02  0.00000000000E+00 0. -1.
          2    1    1    2  501    0  0.15105730545E+02  0.24941269838E+02  0.16173641377E+03  0.16434390033E+03  0.00000000000E+00 0. -1.
          1    1    1    2  502    0 -0.15105730545E+02 -0.24941269838E+02 -0.14195622979E+02  0.32430938133E+02  0.00000000000E+00 0. -1.
</event>
<event>
 4    1  0.8284550E+003  0.2441238E+02  0.7546771E-02  0.1475486E+00
          2   -1    0    0  502    0  0.00000000000E+00  0.00000000000E+00  0.20876489614E+03  0.20876489614E+03  0.00000000000E+00 0.  1.
          1   -1    0    0  501    0 -0.00000000000E+00 -0.00000000000E+00 -0.60694538078E+01  0.60694538078E+01  0.00000000000E+00 0.  1.
          2    1    1    2  501    0 -0.18637147628E+02 -0.15767719544E+02  0.17952342088E+03  0.18117566861E+03  0.00000000000E+00 0.  1.
          1    1    1    2  502    0  0.18637147628E+02  0.15767719544E+02  0.23172021453E+02  0.33658681340E+02  0.00000000000E+00 0.  1.
</event>
<event>
 4    1  0.8284550E+003  0.3771043E+02  0.7546771E-02  0.1362451E+00
          2   -1    0    0  502    0  0.00000000000E+00  0.00000000000E+00  0.77100823099E+03  0.77100823099E+03  0.00000000000E+00 0. -1.
          1   -1    0    0  501    0 -0.00000000000E+00 -0.00000000000E+00 -0.35283580261E+02  0.35283580261E+02  0.00000000000E+00 0. -1.
          2    1    1    2  501    0 -0.22875133526E+02 -0.29980079468E+02  0.76032964042E+03  0.76126423730E+03  0.00000000000E+00 0. -1.
          1    1    1    2  502    0  0.22875133526E+02  0.29980079468E+02 -0.24604989683E+02  0.45027573953E+02  0.00000000000E+00 0. -1.
</event>
<event>
 4    1  0.8284550E+003  0.3375183E+02  0.7546771E-02  0.1389557E+00
          2   -1    0    0  502    0  0.00000000000E+00  0.00000000000E+00  0.23164068716E+02  0.23164068716E+02  0.00000000000E+00 0.  1.
          1   -1    0    0  501    0 -0.00000000000E+00 -0.00000000000E+00 -0.86821903413E+02  0.86821903413E+02  0.00000000000E+00 0.  1.
          2    1    1    2  501    0  0.33749772933E+02  0.37220832126E+00  0.43815569316E+01  0.34035037142E+02  0.00000000000E+00 0.  1.
          1    1    1    2  502    0 -0.33749772933E+02 -0.37220832126E+00 -0.68039391629E+02  0.75950934986E+02  0.00000000000E+00 0.  1.
</event>
<event>
 4    1  0.8284550E+003  0.4700722E+02  0.7546771E-02  0.1311697E+00
          2   -1    0    0  502    0  0.00000000000E+00  0.00000000000E+00  0.24655521554E+04  0.24655521554E+04  0.00000000000E+00 0. -1.
          1   -1    0    0  501    0 -0.00000000000E+00 -0.00000000000E+00 -0.55353996056E+01  0.55353996056E+01  0.00000000000E+00 0. -1.
          2    1    1    2  501    0  0.73608572331E+01 -0.46427328067E+02  0.23611167232E+04  0.23615846077E+04  0.00000000000E+00 0. -1.
          1    1    1    2  502    0 -0.73608572331E+01  0.46427328067E+02  0.98900032654E+02  0.10950294731E+03  0.00000000000E+00 0. -1.
</event>
<event>
 4    1  0.8284550E+003  0.2739342E+02  0.7546771E-02  0.1443696E+00
          2   -1    0    0  502    0  0.00000000000E+00  0.00000000000E+00  0.11802902817E+02  0.11802902817E+02  0.00000000000E+00 0. -1.
          1   -1    0    0  501    0 -0.00000000000E+00 -0.00000000000E+00 -0.81310200257E+03  0.81310200257E+03  0.00000000000E+00 0. -1.
          2    1    1    2  501    0 -0.26520175583E+02 -0.68614604609E+01 -0.46503711018E+01  0.27785343331E+02  0.00000000000E+00 0. -1.
          1    1    1    2  502    0  0.26520175583E+02  0.68614604609E+01 -0.79664872865E+03  0.79711956206E+03  0.00000000000E+00 0. -1.
</event>
<event>
 4    1  0.8284550E+003  0.2368035E+02  0.7546771E-02  0.1484127E+00
          2   -1    0    0  502    0  0.00000000000E+00  0.00000000000E+00  0.40198057125E+02  0.40198057125E+02  0.00000000000E+00 0. -1.
          1   -1    0    0  501    0 -0.00000000000E+00 -0.00000000000E+00 -0.16974682920E+03  0.16974682920E+03  0.00000000000E+00 0. -1.
          2    1    1    2  501    0 -0.13441194113E+02  0.19495980264E+02  0.35792247928E+02  0.42916709536E+02  0.00000000000E+00 0. -1.
          1    1    1    2  502    0  0.13441194113E+02 -0.19495980264E+02 -0.16534102000E+03  0.16702817679E+03  0.00000000000E+00 0. -1.
</event>
<event>
 4    1  0.1751855E+004  0.2579125E+02  0.7546771E-02  0.1460143E+00
          2   -1    0    0  502    0  0.00000000000E+00  0.00000000000E+00  0.13868884962E+04  0.13868884962E+04  0.00000000000E+00 0.  1.
          1   -1    0    0  501    0 -0.00000000000E+00 -0.00000000000E+00 -0.59802079532E+03  0.59802079532E+03  0.00000000000E+00 0. -1.
          2    1    1    2  501    0 -0.17052797206E+02  0.19349176805E+02  0.13864904306E+04  0.13867302919E+04  0.00000000000E+00 0.  1.
          1    1    1    2  502    0  0.17052797206E+02 -0.19349176805E+02 -0.59762272967E+03  0.59817899960E+03  0.00000000000E+00 0. -1.
</event>
<event>
 4    1  0.8284550E+003  0.2164767E+02  0.7546771E-02  0.1510215E+00
          2   -1    0    0  502    0  0.00000000000E+00  0.00000000000E+00  0.64798888325E+02  0.64798888325E+02  0.00000000000E+00 0. -1.
          1   -1    0    0  501    0 -0.00000000000E+00 -0.00000000000E+00 -0.96404886762E+01  0.96404886762E+01  0.00000000000E+00 0.  1.
          2    1    1    2  501    0 -0.17110845986E+02 -0.13260487822E+02  0.46182973247E+02  0.51004790025E+02  0.00000000000E+00 0. -1.
          1    1    1    2  502    0  0.17110845986E+02  0.13260487822E+02  0.89754264022E+01  0.23434586976E+02  0.00000000000E+00 0.  1.
</event>
<event>
 4    1  0.8284550E+003  0.5267381E+02  0.7546771E-02  0.1286978E+00
          2   -1    0    0  502    0  0.00000000000E+00  0.00000000000E+00  0.10188911902E+04  0.10188911902E+04  0.00000000000E+00 0. -1.
          1   -1    0    0  501    0 -0.00000000000E+00 -0.00000000000E+00 -0.28109684690E+02  0.28109684690E+02  0.00000000000E+00 0. -1.
          2    1    1    2  501    0 -0.45721046083E+02  0.26155612613E+02  0.99288871444E+03  0.99428493370E+03  0.00000000000E+00 0. -1.
          1    1    1    2  502    0  0.45721046083E+02 -0.26155612613E+02 -0.21072089265E+01  0.52715941190E+02  0.00000000000E+00 0. -1.
</event>
<event>
 4    1  0.8284550E+003  0.3873927E+02  0.7546771E-02  0.1356036E+00
          2   -1    0    0  502    0  0.00000000000E+00  0.00000000000E+00  0.19896726067E+03  0.19896726067E+03  0.00000000000E+00 0.  1.
          1   -1    0    0  501    0 -0.00000000000E+00 -0.00000000000E+00 -0.86776097408E+03  0.86776097408E+03  0.00000000000E+00 0.  1.
          2    1    1    2  501    0 -0.28412159371E+02 -0.26334006460E+02  0.19664419415E+03  0.20042372561E+03  0.00000000000E+00 0.  1.
          1    1    1    2  502    0  0.28412159371E+02  0.26334006460E+02 -0.86543790756E+03  0.86630450913E+03  0.00000000000E+00 0.  1.
</event>
<event>
 4    1  0.8284550E+003  0.3588387E+02  0.7546771E-02  0.1374454E+00
          2   -1    0    0  502    0  0.00000000000E+00  0.00000000000E+00  0.22430399787E+03  0.22430399787E+03  0.00000000000E+00 0. -1.
          1   -1    0    0  501    0 -0.00000000000E+00 -0.00000000000E+00 -0.10419369980E+02  0.10419369980E+02  0.00000000000E+00 0. -1.
          2    1    1    2  501    0 -0.17205950369E+01  0.35842594881E+02  0.18558690494E+03  0.18902420835E+03  0.00000000000E+00 0. -1.
          1    1    1    2  502    0  0.17205950369E+01 -0.35842594881E+02  0.28297722940E+02  0.45699159497E+02  0.00000000000E+00 0. -1.
</event>
<event>
 4    1  0.8284550E+003  0.3838783E+02  0.7546771E-02  0.1358201E+00
          2   -1    0    0  502    0  0.00000000000E+00  0.00000000000E+00  0.15093219801E+04  0.15093219801E+04  0.00000000000E+00 0. -1.
          1   -1    0    0  501    0 -0.00000000000E+00 -0.00000000000E+00 -0.11643415226E+01  0.11643415226E+01  0.00000000000E+00 0. -1.
          2    1    1    2  501    0 -0.80340307714E+01 -0.37537690510E+02  0.45060741543E+03  0.45223961205E+03  0.00000000000E+00 0. -1.
          1    1    1    2  502    0  0.80340307714E+01  0.37537690510E+02  0.10575502231E+04  0.10582467095E+04  0.00000000000E+00 0. -1.
</event>
<event>
 4    1  0.8284550E+003  0.2182333E+02  0.7546771E-02  0.1507827E+00
          2   -1    0    0  502    0  0.00000000000E+00  0.00000000000E+00  0.19818421757E+01  0.19818421757E+01  0.00000000000E+00 0.  1.
          1   -1    0    0  501    0 -0.00000000000E+00 -0.00000000000E+00 -0.27976553097E+03  0.27976553097E+03  0.00000000000E+00 0. -1.
          2    1    1    2  501    0  0.15555751308E+02  0.15306089090E+02 -0.85988491197E+02  0.88714589444E+02  0.00000000000E+00 0.  1.
          1    1    1    2  502    0 -0.15555751308E+02 -0.15306089090E+02 -0.19179519760E+03  0.19303278370E+03  0.00000000000E+00 0. -1.
</event>
<event>
 4    1  0.8284550E+003  0.2835695E+02  0.7546771E-02  0.1434434E+00
          2   -1    0    0  502    0  0.00000000000E+00  0.00000000000E+00  0.98382339953E+03  0.98382339953E+03  0.00000000000E+00 0.  1.
          1   -1    0    0  501    0 -0.00000000000E+00 -0.00000000000E+00 -0.25450973593E+01  0.25450973593E+01  0.00000000000E+00 0.  1.
          2    1    1    2  501    0  0.14533515152E+02 -0.24349409464E+02  0.89698755065E+03  0.89743567057E+03  0.00000000000E+00 0.  1.
          1    1    1    2  502    0 -0.14533515152E+02  0.24349409464E+02  0.84290751526E+02  0.88932826317E+02  0.00000000000E+00 0.  1.
</event>
<event>
 4    1  0.8284550E+003  0.5914666E+02  0.7546771E-02  0.1262760E+00
          2   -1    0    0  502    0  0.00000000000E+00  0.00000000000E+00  0.60356135767E+03  0.60356135767E+03  0.00000000000E+00 0.  1.
          1   -1    0    0  501    0 -0.00000000000E+00 -0.00000000000E+00 -0.59812086891E+01  0.59812086891E+01  0.00000000000E+00 0.  1.
          2    1    1    2  501    0  0.23606552028E+02 -0.54231526175E+02  0.35239971873E+03  0.35732882544E+03  0.00000000000E+00 0.  1.
          1    1    1    2  502    0 -0.23606552028E+02  0.54231526175E+02  0.24518043025E+03  0.25221374092E+03  0.00000000000E+00 0.  1.
</event>
<event>
 4    1  0.8284550E+003  0.2894094E+02  0.7546771E-02  0.1429028E+00
          2   -1    0    0  502    0  0.00000000000E+00  0.00000000000E+00  0.37259983440E+03  0.37259983440E+03  0.00000000000E+00 0.  1.
          1   -1    0    0  501    0 -0.00000000000E+00 -0.00000000000E+00 -0.23749974833E+02  0.23749974833E+02  0.00000000000E+00 0.  1.
          2    1    1    2  501    0 -0.56976382534E+01  0.28374546473E+02  0.36298814409E+03  0.36414004273E+03  0.00000000000E+00 0.  1.
          1    1    1    2  502    0  0.56976382534E+01 -0.28374546473E+02 -0.14138284520E+02  0.32209766506E+02  0.00000000000E+00 0.  1.
</event>
<event>
 4    1  0.8284550E+003  0.2131465E+02  0.7546771E-02  0.1514820E+00
          2   -1    0    0  502    0  0.00000000000E+00  0.00000000000E+00  0.76046326780E+03  0.76046326780E+03  0.00000000000E+00 0. -1.
          1   -1    0    0  501    0 -0.00000000000E+00 -0.00000000000E+00 -0.68825299717E+00  0.68825299717E+00  0.00000000000E+00 0. -1.
          2    1    1    2  501    0 -0.12067748518E+02 -0.17569400053E+02  0.51814666229E+03  0.51858488024E+03  0.00000000000E+00 0. -1.
          1    1    1    2  502    0  0.12067748518E+02  0.17569400053E+02  0.24162835251E+03  0.24256664055E+03  0.00000000000E+00 0. -1.
</event>
<event>
 4    1  0.8284550E+003  0.2190978E+02  0.7546771E-02  0.1506661E+00
          2   -1    0    0  502    0  0.00000000000E+00  0.00000000000E+00  0.29062794266E+03  0.29062794266E+03  0.00000000000E+00 0. -1.
          1   -1    0    0  501    0 -0.00000000000E+00 -0.00000000000E+00 -0.23916469089E+01  0.23916469089E+01  0.00000000000E+00 0. -1.
          2    1    1    2  501    0  0.20030704934E+02  0.88774685750E+01  0.22560919736E+03  0.22667057268E+03  0.00000000000E+00 0. -1.
          1    1    1    2  502    0 -0.20030704934E+02 -0.88774685750E+01  0.62627098396E+02  0.66349016888E+02  0.00000000000E+00 0. -1.
</event>
<event>
 4    1  0.8284550E+003  0.2652787E+02  0.7546771E-02  0.1452409E+00
          2   -1    0    0  502    0  0.00000000000E+00  0.00000000000E+00  0.96196327192E+03  0.96196327192E+03  0.00000000000E+00 0.  1.
          1   -1    0    0  501    0 -0.00000000000E+00 -0.00000000000E+00 -0.12022046505E+01  0.12022046505E+01  0.00000000000E+00 0.  1.
          2    1    1    2  501    0  0.81126672818E+01 -0.25256928980E+02  0.78170275494E+03  0.78215275037E+03  0.00000000000E+00 0.  1.
          1    1    1    2  502    0 -0.81126672818E+01  0.25256928980E+02  0.17905831233E+03  0.18101272620E+03  0.00000000000E+00 0.  1.
</event>
<event>
 4    1  0.8284550E+003  0.2466790E+02  0.7546771E-02  0.1472553E+00
          2   -1    0    0  502    0  0.00000000000E+00  0.00000000000E+00  0.42759488210E+01  0.42759488210E+01  0.00000000000E+00 0.  1.
          1   -1    0    0  501    0 -0.00000000000E+00 -0.00000000000E+00 -0.16407037970E+03  0.16407037970E+03  0.00000000000E+00 0.  1.
          2    1    1    2  501    0 -0.12452597901E+02 -0.21294080527E+02 -0.49242028362E+02  0.55075243233E+02  0.00000000000E+00 0.  1.
          1    1    1    2  502    0  0.12452597901E+02  0.21294080527E+02 -0.11055240251E+03  0.11327108528E+03  0.00000000000E+00 0.  1.
</event>
<event>
 4    1  0.8284550E+003  0.2228776E+02  0.7546771E-02  0.1501641E+00
          2   -1    0    0  502    0  0.00000000000E+00  0.00000000000E+00  0.38642210962E+01  0.38642210962E+01  0.00000000000E+00 0. -1.
          1   -1    0    0  501    0 -0.00000000000E+00 -0.00000000000E+00 -0.21720922378E+03  0.21720922378E+03  0.00000000000E+00 0.  1.
          2    1    1    2  501    0  0.32721765639E+01  0.22046244367E+02 -0.36052060795E+02  0.42385081311E+02  0.00000000000E+00 0. -1.
          1    1    1    2  502    0 -0.32721765639E+01 -0.22046244367E+02 -0.17729294189E+03  0.17868836356E+03  0.00000000000E+00 0.  1.
</event>
<event>
 4    1  0.8284550E+003  0.2818166E+02  0.7546771E-02  0.1436086E+00
          2   -1    0    0  502    0  0.00000000000E+00  0.00000000000E+00  0.19564476340E+04  0.19564476340E+04  0.00000000000E+00 0.  1.
          1   -1    0    0  501    0 -0.00000000000E+00 -0.00000000000E+00 -0.11595988069E+01  0.11595988069E+01  0.00000000000E+00 0. -1.
          2    1    1    2  501    0 -0.27224399110E+02 -0.72827232419E+01  0.17667371217E+04  0.17669618737E+04  0.00000000000E+00 0.  1.
          1    1    1    2  502    0  0.27224399110E+02  0.72827232419E+01  0.18855091349E+03  0.19064535909E+03  0.00000000000E+00 0. -1.
</event>
<event>
 4    1  0.8284550E+003  0.2478829E+02  0.7546771E-02  0.1471186E+00
          2   -1    0    0  502    0  0.00000000000E+00  0.00000000000E+00  0.79716229960E+03  0.79716229960E+03  0.00000000000E+00 0. -1.
          1   -1    0    0  501    0 -0.00000000000E+00 -0.00000000000E+00 -0.11641961953E+03  0.11641961953E+03  0.00000000000E+00 0. -1.
          2    1    1    2  501    0 -0.15517053325E+02  0.19330819401E+02  0.79564759303E+03  0.79603363737E+03  0.00000000000E+00 0. -1.
          1    1    1    2  502    0  0.15517053325E+02 -0.19330819401E+02 -0.11490491296E+03  0.11754828176E+03  0.00000000000E+00 0. -1.
</event>
<event>
 4    1  0.8284550E+003  0.2483979E+02  0.7546771E-02  0.1470604E+00
          2   -1    0    0  502    0  0.00000000000E+00  0.00000000000E+00  0.15822040427E+04  0.15822040427E+04  0.00000000000E+00 0.  1.
          1   -1    0    0  501    0 -0.00000000000E+00 -0.00000000000E+00 -0.20416354799E+01  0.20416354799E+01  0.00000000000E+00 0. -1.
          2    1    1    2  501    0  0.12902867115E+02 -0.21225714581E+02  0.15025473680E+04  0.15027526769E+04  0.00000000000E+00 0.  1.
          1    1    1    2  502    0 -0.12902867115E+02  0.21225714581E+02  0.77615039197E+02  0.81493001226E+02  0.00000000000E+00 0. -1.
</event>
<event>
 4    1  0.8284550E+003  0.3234127E+02  0.7546771E-02  0.1400285E+00
          2   -1    0    0  502    0  0.00000000000E+00  0.00000000000E+00  0.18409648923E+04  0.18409648923E+04  0.00000000000E+00 0. -1.
          1   -1    0    0  501    0 -0.00000000000E+00 -0.00000000000E+00 -0.15852973850E+01  0.15852973850E+01  0.00000000000E+00 0. -1.
          2    1    1    2  501    0 -0.32108045679E+02  0.38770375714E+01  0.16576353178E+04  0.16579507848E+04  0.00000000000E+00 0. -1.
          1    1    1    2  502    0  0.32108045679E+02 -0.38770375714E+01  0.18174427705E+03  0.18459940481E+03  0.00000000000E+00 0. -1.
</event>
<event>
 4    1  0.8284550E+003  0.1518715E+03  0.7546771E-02  0.1095714E+00
          2   -1    0    0  502    0  0.00000000000E+00  0.00000000000E+00  0.19834744139E+04  0.19834744139E+04  0.00000000000E+00 0. -1.
          1   -1    0    0  501    0 -0.00000000000E+00 -0.00000000000E+00 -0.10168309857E+04  0.10168309857E+04  0.00000000000E+00 0.  1.
          2    1    1    2  501    0 -0.15164321210E+03  0.83237090282E+01  0.19748718166E+04  0.19807028147E+04  0.00000000000E+00 0. -1.
          1    1    1    2  502    0  0.15164321210E+03 -0.83237090282E+01 -0.10082283884E+04  0.10196025849E+04  0.00000000000E+00 0.  1.
</event>
<event>
 4    1  0.8284550E+003  0.2053201E+02  0.7546771E-02  0.1526052E+00
          2   -1    0    0  502    0  0.00000000000E+00  0.00000000000E+00  0.91985403469E+02  0.91985403469E+02  0.00000000000E+00 0.  1.
          1   -1    0    0  501    0 -0.00000000000E+00 -0.00000000000E+00 -0.17017589503E+02  0.17017589503E+02  0.00000000000E+00 0.  1.
          2    1    1    2  501    0  0.18529872457E+02  0.88434957570E+01  0.84072133516E+02  0.86542979059E+02  0.00000000000E+00 0.  1.
          1    1    1    2  502    0 -0.18529872457E+02 -0.88434957570E+01 -0.91043195505E+01  0.22460013913E+02  0.00000000000E+00 0.  1.
</event>
<event>
 4    1  0.8284550E+003  0.2779650E+02  0.7546771E-02  0.1439767E+00
          2   -1    0    0  502    0  0.00000000000E+00  0.00000000000E+00  0.44066711704E+03  0.44066711704E+03  0.00000000000E+00 0.  1.
          1   -1    0    0  501    0 -0.00000000000E+00 -0.00000000000E+00 -0.66835841149E+01  0.66835841149E+01  0.00000000000E+00 0. -1.
          2    1    1    2  501    0  0.27426901060E+02  0.45177871134E+01  0.40910046406E+03  0.41004369889E+03  0.00000000000E+00 0.  1.
          1    1    1    2  502    0 -0.27426901060E+02 -0.45177871134E+01  0.24883068866E+02  0.37307002270E+02  0.00000000000E+00 0. -1.
</event>
<event>
 4    1  0.8284550E+003  0.2260498E+02  0.7546771E-02  0.1497519E+00
          2   -1    0    0  502    0  0.00000000000E+00  0.00000000000E+00  0.84986784156E+03  0.84986784156E+03  0.00000000000E+00 0.  1.
          1   -1    0    0  501    0 -0.00000000000E+00 -0.00000000000E+00 -0.66571723985E+00  0.66571723985E+00  0.00000000000E+00 0.  1.
          2    1    1    2  501    0  0.22584831919E+02 -0.95409687793E+00  0.55693724027E+03  0.55739579702E+03  0.00000000000E+00 0.  1.
          1    1    1    2  502    0 -0.22584831919E+02  0.95409687793E+00  0.29226488404E+03  0.29313776178E+03  0.00000000000E+00 0.  1.
</event>
<event>
 4    1  0.8284550E+003  0.3019749E+02  0.7546771E-02  0.1417888E+00
          2   -1    0    0  502    0  0.00000000000E+00  0.00000000000E+00  0.65853913984E+03  0.65853913984E+03  0.00000000000E+00 0. -1.
          1   -1    0    0  501    0 -0.00000000000E+00 -0.00000000000E+00 -0.13926010198E+01  0.13926010198E+01  0.00000000000E+00 0.  1.
          2    1    1    2  501    0 -0.23415618776E+02  0.19068222065E+02  0.35340546408E+03  0.35469326232E+03  0.00000000000E+00 0. -1.
          1    1    1    2  502    0  0.23415618776E+02 -0.19068222065E+02  0.30374107474E+03  0.30523847854E+03  0.00000000000E+00 0.  1.
</event>
<event>
 4    1  0.8284550E+003  0.6061286E+02  0.7546771E-02  0.1257764E+00
          2   -1    0    0  502    0  0.00000000000E+00  0.00000000000E+00  0.39059637282E+03  0.39059637282E+03  0.00000000000E+00 0.  1.
          1   -1    0    0  501    0 -0.00000000000E+00 -0.00000000000E+00 -0.10032454700E+02  0.10032454700E+02  0.00000000000E+00 0.  1.
          2    1    1    2  501    0  0.60445209254E+02  0.45045871459E+01  0.14022270631E+03  0.15276230553E+03  0.00000000000E+00 0.  1.
          1    1    1    2  502    0 -0.60445209254E+02 -0.45045871459E+01  0.24034121181E+03  0.24786652198E+03  0.00000000000E+00 0.  1.
</event>
<event>
 4    1  0.8284550E+003  0.2405012E+02  0.7546771E-02  0.1479717E+00
          2   -1    0    0  502    0  0.00000000000E+00  0.00000000000E+00  0.11232496505E+04  0.11232496505E+04  0.00000000000E+00 0.  1.
          1   -1    0    0  501    0 -0.00000000000E+00 -0.00000000000E+00 -0.16646822859E+01  0.16646822859E+01  0.00000000000E+00 0.  1.
          2    1    1    2  501    0  0.14216871290E+02  0.19398168542E+02  0.10282301000E+04  0.10285113256E+04  0.00000000000E+00 0.  1.
          1    1    1    2  502    0 -0.14216871290E+02 -0.19398168542E+02  0.93354868168E+02  0.96403007125E+02  0.00000000000E+00 0.  1.
</event>
<event>
 4    1  0.8284550E+003  0.4665813E+02  0.7546771E-02  0.1313350E+00
          2   -1    0    0  502    0  0.00000000000E+00  0.00000000000E+00  0.10418169021E+03  0.10418169021E+03  0.00000000000E+00 0.  1.
          1   -1    0    0  501    0 -0.00000000000E+00 -0.00000000000E+00 -0.64244169680E+03  0.64244169680E+03  0.00000000000E+00 0. -1.
          2    1    1    2  501    0 -0.18501545815E+02 -0.42833091296E+02  0.98060351305E+02  0.10859472089E+03  0.00000000000E+00 0.  1.
          1    1    1    2  502    0  0.18501545815E+02  0.42833091296E+02 -0.63632035790E+03  0.63802866612E+03  0.00000000000E+00 0. -1.
</event>
<event>
 4    1  0.8284550E+003  0.3019552E+02  0.7546771E-02  0.1417905E+00
          2   -1    0    0  502    0  0.00000000000E+00  0.00000000000E+00  0.45835856046E+02  0.45835856046E+02  0.00000000000E+00 0. -1.
          1   -1    0    0  501    0 -0.00000000000E+00 -0.00000000000E+00 -0.11558582160E+04  0.11558582160E+04  0.00000000000E+00 0.  1.
          2    1    1    2  501    0 -0.24730783220E+02 -0.17325066457E+02  0.40643196954E+02  0.50632391066E+02  0.00000000000E+00 0. -1.
          1    1    1    2  502    0  0.24730783220E+02  0.17325066457E+02 -0.11506655569E+04  0.11510616810E+04  0.00000000000E+00 0.  1.
</event>
<event>
 4    1  0.8284550E+003  0.2140575E+02  0.7546771E-02  0.1513550E+00
          2   -1    0    0  502    0  0.00000000000E+00  0.00000000000E+00  0.74142836290E+01  0.74142836290E+01  0.00000000000E+00 0. -1.
          1   -1    0    0  501    0 -0.00000000000E+00 -0.00000000000E+00 -0.10994352631E+04  0.10994352631E+04  0.00000000000E+00 0.  1.
          2    1    1    2  501    0 -0.13471989531E+02 -0.16634645508E+02 -0.83649646170E+01  0.22982135805E+02  0.00000000000E+00 0. -1.
          1    1    1    2  502    0  0.13471989531E+02  0.16634645508E+02 -0.10836560149E+04  0.10838674109E+04  0.00000000000E+00 0.  1.
</event>
<event>
 4    1  0.8284550E+003  0.7263026E+02  0.7546771E-02  0.1222075E+00
          2   -1    0    0  502    0  0.00000000000E+00  0.00000000000E+00  0.13316156096E+04  0.13316156096E+04  0.00000000000E+00 0. -1.
          1   -1    0    0  501    0 -0.00000000000E+00 -0.00000000000E+00 -0.61218242348E+03  0.61218242348E+03  0.00000000000E+00 0. -1.
          2    1    1    2  501    0 -0.72383033295E+02  0.59875656505E+01  0.13284658972E+04  0.13304498467E+04  0.00000000000E+00 0. -1.
          1    1    1    2  502    0  0.72383033295E+02 -0.59875656505E+01 -0.60903271115E+03  0.61334818635E+03  0.00000000000E+00 0. -1.
</event>
<event>
 4    1  0.8284550E+003  0.4054295E+02  0.7546771E-02  0.1345333E+00
          2   -1    0    0  502    0  0.00000000000E+00  0.00000000000E+00  0.13162510996E+04  0.13162510996E+04  0.00000000000E+00 0. -1.
          1   -1    0    0  501    0 -0.00000000000E+00 -0.00000000000E+00 -0.18573411087E+01  0.18573411087E+01  0.00000000000E+00 0. -1.
          2    1    1    2  501    0  0.26558063445E+02 -0.30633317607E+02  0.10344399029E+04  0.10352341009E+04  0.00000000000E+00 0. -1.
          1    1    1    2  502    0 -0.26558063445E+02  0.30633317607E+02  0.27995385557E+03  0.28287433982E+03  0.00000000000E+00 0. -1.
</event>
<event>
 4    1  0.8284550E+003  0.2393033E+02  0.7546771E-02  0.1481135E+00
          2   -1    0    0  502    0  0.00000000000E+00  0.00000000000E+00  0.69348799039E+03  0.69348799039E+03  0.00000000000E+00 0.  1.
          1   -1    0    0  501    0 -0.00000000000E+00 -0.00000000000E+00 -0.85635390684E+01  0.85635390684E+01  0.00000000000E+00 0.  1.
          2    1    1    2  501    0 -0.22289849619E+02  0.87076467412E+01  0.67613462009E+03  0.67655796869E+03  0.00000000000E+00 0.  1.
          1    1    1    2  502    0  0.22289849619E+02 -0.87076467412E+01  0.87898312320E+01  0.25493560773E+02  0.00000000000E+00 0.  1.
</event>
<event>
 4    1  0.8284550E+003  0.3281430E+02  0.7546771E-02  0.1396617E+00
          2   -1    0    0  502    0  0.00000000000E+00  0.00000000000E+00  0.34810516715E+03  0.34810516715E+03  0.00000000000E+00 0. -1.
          1   -1    0    0  501    0 -0.00000000000E+00 -0.00000000000E+00 -0.13553338116E+03  0.13553338116E+03  0.00000000000E+00 0.  1.
          2    1    1    2  501    0 -0.26198292838E+02 -0.19759251091E+02  0.34532973886E+03  0.34688529386E+03  0.00000000000E+00 0. -1.
          1    1    1    2  502    0  0.26198292838E+02  0.19759251091E+02 -0.13275795287E+03  0.13675325445E+03  0.00000000000E+00 0.  1.
</event>
<event>
 4    1  0.8284550E+003  0.3369512E+02  0.7546771E-02  0.1389976E+00
          2   -1    0    0  502    0  0.00000000000E+00  0.00000000000E+00  0.12729842062E+04  0.12729842062E+04  0.00000000000E+00 0.  1.
          1   -1    0    0  501    0 -0.00000000000E+00 -0.00000000000E+00 -0.76724679972E+02  0.76724679972E+02  0.00000000000E+00 0. -1.
          2    1    1    2  501    0 -0.23176732280E+02 -0.24458132462E+02  0.12690503027E+04  0.12694975510E+04  0.00000000000E+00 0.  1.
          1    1    1    2  502    0  0.23176732280E+02  0.24458132462E+02 -0.72790776443E+02  0.80211335221E+02  0.00000000000E+00 0. -1.
</event>
<event>
 4    1  0.8284550E+003  0.2400777E+02  0.7546771E-02  0.1480217E+00
          2   -1    0    0  502    0  0.00000000000E+00  0.00000000000E+00  0.15927929711E+04  0.15927929711E+04  0.00000000000E+00 0. -1.
          1   -1    0    0  501    0 -0.00000000000E+00 -0.00000000000E+00 -0.62958979403E+02  0.62958979403E+02  0.00000000000E+00 0.  1.
          2    1    1    2  501    0  0.19914574260E+02  0.13408306170E+02  0.15904103925E+04  0.15905915847E+04  0.00000000000E+00 0. -1.
          1    1    1    2  502    0 -0.19914574260E+02 -0.13408306170E+02 -0.60576400752E+02  0.65160365793E+02  0.00000000000E+00 0.  1.
</event>
<event>
 4    1  0.8284550E+003  0.2855318E+02  0.7546771E-02  0.1432600E+00
          2   -1    0    0  502    0  0.00000000000E+00  0.00000000000E+00  0.22110947597E+03  0.22110947597E+03  0.00000000000E+00 0.  1.
          1   -1    0    0  501    0 -0.00000000000E+00 -0.00000000000E+00 -0.36179901920E+03  0.36179901920E+03  0.00000000000E+00 0. -1.
          2    1    1    2  501    0 -0.28164153405E+02  0.46973006133E+01  0.21962050773E+03  0.22146885015E+03  0.00000000000E+00 0.  1.
          1    1    1    2  502    0  0.28164153405E+02 -0.46973006133E+01 -0.36031005096E+03  0.36143964502E+03  0.00000000000E+00 0. -1.
</event>
<event>
 4    1  0.8284550E+003  0.2048900E+02  0.7546771E-02  0.1526687E+00
          2   -1    0    0  502    0  0.00000000000E+00  0.00000000000E+00  0.16377497693E+02  0.16377497693E+02  0.00000000000E+00 0. -1.
          1   -1    0    0  501    0 -0.00000000000E+00 -0.00000000000E+00 -0.40737179368E+02  0.40737179368E+02  0.00000000000E+00 0. -1.
          2    1    1    2  501    0  0.11385535315E+02  0.17034339131E+02  0.52091928711E+01  0.21140832869E+02  0.00000000000E+00 0. -1.
          1    1    1    2  502    0 -0.11385535315E+02 -0.17034339131E+02 -0.29568874546E+02  0.35973844192E+02  0.00000000000E+00 0. -1.
</event>
<event>
 4    1  0.8284550E+003  0.2334091E+02  0.7546771E-02  0.1488261E+00
          2   -1    0    0  502    0  0.00000000000E+00  0.00000000000E+00  0.11083451526E+04  0.11083451526E+04  0.00000000000E+00 0. -1.
          1   -1    0    0  501    0 -0.00000000000E+00 -0.00000000000E+00 -0.44841795352E+02  0.44841795352E+02  0.00000000000E+00 0. -1.
          2    1    1    2  501    0 -0.41857536339E+01 -0.22962529180E+02  0.11051762236E+04  0.11054226719E+04  0.00000000000E+00 0. -1.
          1    1    1    2  502    0  0.41857536339E+01  0.22962529180E+02 -0.41672866349E+02  0.47764276081E+02  0.00000000000E+00 0. -1.
</event>
<event>
 4    1  0.8284550E+003  0.2959756E+02  0.7546771E-02  0.1423126E+00
          2   -1    0    0  502    0  0.00000000000E+00  0.00000000000E+00  0.86503891615E+02  0.86503891615E+02  0.00000000000E+00 0. -1.
          1   -1    0    0  501    0 -0.00000000000E+00 -0.00000000000E+00 -0.53146571097E+02  0.53146571097E+02  0.00000000000E+00 0.  1.
          2    1    1    2  501    0  0.45075579737E+01  0.29252311742E+02  0.79500163860E+02  0.84830960592E+02  0.00000000000E+00 0. -1.
          1    1    1    2  502    0 -0.45075579737E+01 -0.29252311742E+02 -0.46142843342E+02  0.54819502121E+02  0.00000000000E+00 0.  1.
</event>
<event>
 4    1  0.8284550E+003  0.2267773E+02  0.7546771E-02  0.1496585E+00
          2   -1    0    0  502    0  0.00000000000E+00  0.00000000000E+00  0.13175543820E+03  0.13175543820E+03  0.00000000000E+00 0. -1.
          1   -1    0    0  501    0 -0.00000000000E+00 -0.00000000000E+00 -0.39037660651E+01  0.39037660651E+01  0.00000000000E+00 0. -1.
          2    1    1    2  501    0  0.22473893146E+02  0.30336853748E+01  0.63173424859E+02  0.67120494102E+02  0.00000000000E+00 0. -1.
          1    1    1    2  502    0 -0.22473893146E+02 -0.30336853748E+01  0.64678247271E+02  0.68538710158E+02  0.00000000000E+00 0. -1.
</event>
<event>
 4    1  0.1463063E+004  0.2663178E+02  0.7546771E-02  0.1451342E+00
          2   -1    0    0  502    0  0.00000000000E+00  0.00000000000E+00  0.73818339174E+03  0.73818339174E+03  0.00000000000E+00 0. -1.
          1   -1    0    0  501    0 -0.00000000000E+00 -0.00000000000E+00 -0.58565221213E+03  0.58565221213E+03  0.00000000000E+00 0. -1.
          2    1    1    2  501    0  0.26387314726E+02 -0.36001567045E+01  0.73764020582E+03  0.73812080634E+03  0.00000000000E+00 0. -1.
          1    1    1    2  502    0 -0.26387314726E+02  0.36001567045E+01 -0.58510902620E+03  0.58571479754E+03  0.00000000000E+00 0. -1.
</event>
<event>
 4    1  0.8284550E+003  0.3514472E+02  0.7546771E-02  0.1379549E+00
          2   -1    0    0  502    0  0.00000000000E+00  0.00000000000E+00  0.46580348636E+03  0.46580348636E+03  0.00000000000E+00 0.  1.
          1   -1    0    0  501    0 -0.00000000000E+00 -0.00000000000E+00 -0.25114474474E+04  0.25114474474E+04  0.00000000000E+00 0. -1.
          2    1    1    2  501    0 -0.34467623250E+02  0.68654361089E+01  0.46501741233E+03  0.46634359118E+03  0.00000000000E+00 0.  1.
          1    1    1    2  502    0  0.34467623250E+02 -0.68654361089E+01 -0.25106613734E+04  0.25109073426E+04  0.00000000000E+00 0. -1.
</event>
<event>
 4    1  0.8284550E+003  0.2373169E+02  0.7546771E-02  0.1483509E+00
          2   -1    0    0  502    0  0.00000000000E+00  0.00000000000E+00  0.16890842736E+04  0.16890842736E+04  0.00000000000E+00 0.  1.
          1   -1    0    0  501    0 -0.00000000000E+00 -0.00000000000E+00 -0.38083264243E+00  0.38083264243E+00  0.00000000000E+00 0.  1.
          2    1    1    2  501    0 -0.91320184561E+01  0.21904327850E+02  0.11423735524E+04  0.11426200272E+04  0.00000000000E+00 0.  1.
          1    1    1    2  502    0  0.91320184561E+01 -0.21904327850E+02  0.54632988857E+03  0.54684507905E+03  0.00000000000E+00 0.  1.
</event>
<event>
 4    1  0.8284550E+003  0.2110810E+02  0.7546771E-02  0.1517727E+00
          2   -1    0    0  502    0  0.00000000000E+00  0.00000000000E+00  0.90094846188E+01  0.90094846188E+01  0.00000000000E+00 0. -1.
          1   -1    0    0  501    0 -0.00000000000E+00 -0.00000000000E+00 -0.25613439907E+03  0.25613439907E+03  0.00000000000E+00 0. -1.
          2    1    1    2  501    0 -0.20554533913E+02 -0.48024192021E+01 -0.44745525463E+01  0.21577157252E+02  0.00000000000E+00 0. -1.
          1    1    1    2  502    0  0.20554533913E+02  0.48024192021E+01 -0.24265036190E+03  0.24356672644E+03  0.00000000000E+00 0. -1.
</event>
<event>
 4    1  0.8284550E+003  0.3760521E+02  0.7546771E-02  0.1363121E+00
          2   -1    0    0  502    0  0.00000000000E+00  0.00000000000E+00  0.22228535083E+04  0.22228535083E+04  0.00000000000E+00 0. -1.
          1   -1    0    0  501    0 -0.00000000000E+00 -0.00000000000E+00 -0.49334142653E+01  0.49334142653E+01  0.00000000000E+00 0. -1.
          2    1    1    2  501    0  0.14046565034E+02 -0.34883318742E+02  0.21485545901E+04  0.21488836587E+04  0.00000000000E+00 0. -1.
          1    1    1    2  502    0 -0.14046565034E+02  0.34883318742E+02  0.69365503967E+02  0.78903263915E+02  0.00000000000E+00 0. -1.
</event>
<event>
 4    1  0.8284550E+003  0.2628924E+02  0.7546771E-02  0.1454882E+00
          2   -1    0    0  502    0  0.00000000000E+00  0.00000000000E+00  0.58028771562E+03  0.58028771562E+03  0.00000000000E+00 0. -1.
          1   -1    0    0  501    0 -0.00000000000E+00 -0.00000000000E+00 -0.11936840703E+01  0.11936840703E+01  0.00000000000E+00 0. -1.
          2    1    1    2  501    0  0.19341259859E+02  0.17805604296E+02  0.30332829690E+03  0.30446539964E+03  0.00000000000E+00 0. -1.
          1    1    1    2  502    0 -0.19341259859E+02 -0.17805604296E+02  0.27576573464E+03  0.27701600004E+03  0.00000000000E+00 0. -1.
</event>
<event>
 4    1  0.8284550E+003  0.2061071E+02  0.7546771E-02  0.1524896E+00
          2   -1    0    0  502    0  0.00000000000E+00  0.00000000000E+00  0.14767805238E+03  0.14767805238E+03  0.00000000000E+00 0.  1.
          1   -1    0    0  501    0 -0.00000000000E+00 -0.00000000000E+00 -0.11764987666E+02  0.11764987666E+02  0.00000000000E+00 0.  1.
          2    1    1    2  501    0  0.16241546775E+02 -0.12689117634E+02  0.13725008664E+03  0.13878900472E+03  0.00000000000E+00 0.  1.
          1    1    1    2  502    0 -0.16241546775E+02  0.12689117634E+02 -0.13370219202E+01  0.20654035334E+02  0.00000000000E+00 0.  1.
</event>
<event>
 4    1  0.8284550E+003  0.2225011E+02  0.7546771E-02  0.1502136E+00
          2   -1    0    0  502    0  0.00000000000E+00  0.00000000000E+00  0.53718737424E+03  0.53718737424E+03  0.00000000000E+00 0. -1.
          1   -1    0    0  501    0 -0.00000000000E+00 -0.00000000000E+00 -0.92487348566E+00  0.92487348566E+00  0.00000000000E+00 0. -1.
          2    1    1    2  501    0  0.35194848996E+01 -0.21969978416E+02  0.25210090011E+03  0.25308087751E+03  0.00000000000E+00 0. -1.
          1    1    1    2  502    0 -0.35194848996E+01  0.21969978416E+02  0.28416160065E+03  0.28503137022E+03  0.00000000000E+00 0. -1.
</event>
<event>
 4    1  0.8284550E+003  0.2145159E+02  0.7546771E-02  0.1512914E+00
          2   -1    0    0  502    0  0.00000000000E+00  0.00000000000E+00  0.12969896219E+04  0.12969896219E+04  0.00000000000E+00 0.  1.
          1   -1    0    0  501    0 -0.00000000000E+00 -0.00000000000E+00 -0.55854088814E+00  0.55854088814E+00  0.00000000000E+00 0.  1.
          2    1    1    2  501    0 -0.14501308027E+02  0.15807677996E+02  0.10400531979E+04  0.10402743989E+04  0.00000000000E+00 0.  1.
          1    1    1    2  502    0  0.14501308027E+02 -0.15807677996E+02  0.25637788311E+03  0.25727376385E+03  0.00000000000E+00 0.  1.
</event>
<event>
 4    1  0.8284550E+003  0.3467586E+02  0.7546771E-02  0.1382856E+00
          2   -1    0    0  502    0  0.00000000000E+00  0.00000000000E+00  0.14627498941E+01  0.14627498941E+01  0.00000000000E+00 0. -1.
          1   -1    0    0  501    0 -0.00000000000E+00 -0.00000000000E+00 -0.16487986711E+04  0.16487986711E+04  0.00000000000E+00 0. -1.
          2    1    1    2  501    0 -0.34616037488E+02  0.20360025458E+01 -0.23937245251E+03  0.24187101186E+03  0.00000000000E+00 0. -1.
          1    1    1    2  502    0  0.34616037488E+02 -0.20360025458E+01 -0.14079634687E+04  0.14083904091E+04  0.00000000000E+00 0. -1.
</event>
<event>
 4    1  0.8284550E+003  0.2287950E+02  0.7546771E-02  0.1494017E+00
          2   -1    0    0  502    0  0.00000000000E+00  0.00000000000E+00  0.10717690957E+04  0.10717690957E+04  0.00000000000E+00 0.  1.
          1   -1    0    0  501    0 -0.00000000000E+00 -0.00000000000E+00 -0.48863663586E+00  0.48863663586E+00  0.00000000000E+00 0.  1.
          2    1    1    2  501    0  0.17801628549E+02 -0.14372664048E+02  0.54697764164E+03  0.54745594517E+03  0.00000000000E+00 0.  1.
          1    1    1    2  502    0 -0.17801628549E+02  0.14372664048E+02  0.52430281746E+03  0.52480178720E+03  0.00000000000E+00 0.  1.
</event>
<event>
 4    1  0.8284550E+003  0.1139270E+03  0.7546771E-02  0.1141645E+00
          2   -1    0    0  502    0  0.00000000000E+00  0.00000000000E+00  0.16229201245E+02  0.16229201245E+02  0.00000000000E+00 0.  1.
          1   -1    0    0  501    0 -0.00000000000E+00 -0.00000000000E+00 -0.82082656404E+03  0.82082656404E+03  0.00000000000E+00 0.  1.
          2    1    1    2  501    0 -0.11345172948E+03 -0.10396046119E+02 -0.33524003341E+03  0.35406955912E+03  0.00000000000E+00 0.  1.
          1    1    1    2  502    0  0.11345172948E+03  0.10396046119E+02 -0.46935732939E+03  0.48298620616E+03  0.00000000000E+00 0.  1.
</event>
<event>
 4    1  0.8284550E+003  0.3789388E+02  0.7546771E-02  0.1361290E+00
          2   -1    0    0  502    0  0.00000000000E+00  0.00000000000E+00  0.12320460187E+04  0.12320460187E+04  0.00000000000E+00 0.  1.
          1   -1    0    0  501    0 -0.00000000000E+00 -0.00000000000E+00 -0.21229170195E+02  0.21229170195E+02  0.00000000000E+00 0.  1.
          2    1    1    2  501    0  0.17583569852E+02 -0.33567304744E+02  0.12146017830E+04  0.12151927572E+04  0.00000000000E+00 0.  1.
          1    1    1    2  502    0 -0.17583569852E+02  0.33567304744E+02 -0.37849344767E+01  0.38082431717E+02  0.00000000000E+00 0.  1.
</event>
<event>
 4    1  0.8284550E+003  0.2578426E+02  0.7546771E-02  0.1460218E+00
          2   -1    0    0  502    0  0.00000000000E+00  0.00000000000E+00  0.98115599379E+01  0.98115599379E+01  0.00000000000E+00 0. -1.
          1   -1    0    0  501    0 -0.00000000000E+00 -0.00000000000E+00 -0.11640971512E+04  0.11640971512E+04  0.00000000000E+00 0. -1.
          2    1    1    2  501    0  0.22989305422E+02 -0.11675603816E+02 -0.75272268456E+01  0.26860510648E+02  0.00000000000E+00 0. -1.
          1    1    1    2  502    0 -0.22989305422E+02  0.11675603816E+02 -0.11467583644E+04  0.11470482005E+04  0.00000000000E+00 0. -1.
</event>
<event>
 4    1  0.8284550E+003  0.3293201E+02  0.7546771E-02  0.1395715E+00
          2   -1    0    0  502    0  0.00000000000E+00  0.00000000000E+00  0.14631857822E+03  0.14631857822E+03  0.00000000000E+00 0.  1.
          1   -1    0    0  501    0 -0.00000000000E+00 -0.00000000000E+00 -0.82076204668E+02  0.82076204668E+02  0.00000000000E+00 0.  1.
          2    1    1    2  501    0 -0.20416908258E+01  0.32868654976E+02  0.14104020029E+03  0.14483388788E+03  0.00000000000E+00 0.  1.
          1    1    1    2  502    0  0.20416908258E+01 -0.32868654976E+02 -0.76797826741E+02  0.83560895002E+02  0.00000000000E+00 0.  1.
</event>
<event>
 4    1  0.8284550E+003  0.2880136E+02  0.7546771E-02  0.1430307E+00
          2   -1    0    0  502    0  0.00000000000E+00  0.00000000000E+00  0.16641844341E+02  0.16641844341E+02  0.00000000000E+00 0. -1.
          1   -1    0    0  501    0 -0.00000000000E+00 -0.00000000000E+00 -0.43952408180E+03  0.43952408180E+03  0.00000000000E+00 0.  1.
          2    1    1    2  501    0 -0.28104085630E+02 -0.62991140796E+01  0.33196071699E+01  0.28992037856E+02  0.00000000000E+00 0. -1.
          1    1    1    2  502    0  0.28104085630E+02  0.62991140796E+01 -0.42620184463E+03  0.42717388828E+03  0.00000000000E+00 0.  1.
</event>
<event>
 4    1  0.8284550E+003  0.2357970E+02  0.7546771E-02  0.1485344E+00
          2   -1    0    0  502    0  0.00000000000E+00  0.00000000000E+00  0.17903186671E+04  0.17903186671E+04  0.00000000000E+00 0.  1.
          1   -1    0    0  501    0 -0.00000000000E+00 -0.00000000000E+00 -0.31193466029E+00  0.31193466029E+00  0.00000000000E+00 0.  1.
          2    1    1    2  501    0 -0.12694502024E+02 -0.19870860401E+02  0.83556974046E+03  0.83590238224E+03  0.00000000000E+00 0.  1.
          1    1    1    2  502    0  0.12694502024E+02  0.19870860401E+02  0.95443699203E+03  0.95472821956E+03  0.00000000000E+00 0.  1.
</event>
<event>
 4    1  0.8284550E+003  0.2202628E+02  0.7546771E-02  0.1505101E+00
          2   -1    0    0  502    0  0.00000000000E+00  0.00000000000E+00  0.24413208263E+03  0.24413208263E+03  0.00000000000E+00 0.  1.
          1   -1    0    0  501    0 -0.00000000000E+00 -0.00000000000E+00 -0.23553147161E+03  0.23553147161E+03  0.00000000000E+00 0.  1.
          2    1    1    2  501    0  0.24768542047E+01  0.21886571039E+02  0.24311816182E+03  0.24411390252E+03  0.00000000000E+00 0.  1.
          1    1    1    2  502    0 -0.24768542047E+01 -0.21886571039E+02 -0.23451755079E+03  0.23554965172E+03  0.00000000000E+00 0.  1.
</event>
<event>
 4    1  0.8284550E+003  0.2554169E+02  0.7546771E-02  0.1462834E+00
          2   -1    0    0  502    0  0.00000000000E+00  0.00000000000E+00  0.69915133229E+03  0.69915133229E+03  0.00000000000E+00 0. -1.
          1   -1    0    0  501    0 -0.00000000000E+00 -0.00000000000E+00 -0.99315339291E+00  0.99315339291E+00  0.00000000000E+00 0. -1.
          2    1    1    2  501    0  0.61831665162E+01 -0.24781975948E+02  0.43516250018E+03  0.43591143532E+03  0.00000000000E+00 0. -1.
          1    1    1    2  502    0 -0.61831665162E+01  0.24781975948E+02  0.26299567871E+03  0.26423305036E+03  0.00000000000E+00 0. -1.
</event>
<event>
 4    1  0.8284550E+003  0.2454254E+02  0.7546771E-02  0.1473986E+00
          2   -1    0    0  502    0  0.00000000000E+00  0.00000000000E+00  0.53546402239E+03  0.53546402239E+03  0.00000000000E+00 0.  1.
          1   -1    0    0  501    0 -0.00000000000E+00 -0.00000000000E+00 -0.80954394378E+01  0.80954394378E+01  0.00000000000E+00 0. -1.
          2    1    1    2  501    0  0.24089034539E+02 -0.46962537329E+01  0.51587579876E+03  0.51645926861E+03  0.00000000000E+00 0.  1.
          1    1    1    2  502    0 -0.24089034539E+02  0.46962537329E+01  0.11492784194E+02  0.27100193222E+02  0.00000000000E+00 0. -1.
</event>
<event>
 4    1  0.8284550E+003  0.2023127E+02  0.7546771E-02  0.1530529E+00
          2   -1    0    0  502    0  0.00000000000E+00  0.00000000000E+00  0.56204743815E+01  0.56204743815E+01  0.00000000000E+00 0.  1.
          1   -1    0    0  501    0 -0.00000000000E+00 -0.00000000000E+00 -0.90182008292E+02  0.90182008292E+02  0.00000000000E+00 0. -1.
          2    1    1    2  501    0  0.20188405458E+02 -0.13163483114E+01 -0.21265309328E+02  0.29351624634E+02  0.00000000000E+00 0.  1.
          1    1    1    2  502    0 -0.20188405458E+02  0.13163483114E+01 -0.63296224583E+02  0.66450858040E+02  0.00000000000E+00 0. -1.
</event>
<event>
 4    1  0.8284550E+003  0.2037607E+02  0.7546771E-02  0.1528362E+00
          2   -1    0    0  502    0  0.00000000000E+00  0.00000000000E+00  0.39120709649E+01  0.39120709649E+01  0.00000000000E+00 0. -1.
          1   -1    0    0  501    0 -0.00000000000E+00 -0.00000000000E+00 -0.10862114422E+03  0.10862114422E+03  0.00000000000E+00 0.  1.
          2    1    1    2  501    0  0.10710314147E+02  0.17334163255E+02 -0.43831720333E+02  0.48336360560E+02  0.00000000000E+00 0. -1.
          1    1    1    2  502    0 -0.10710314147E+02 -0.17334163255E+02 -0.60877352920E+02  0.64196854623E+02  0.00000000000E+00 0.  1.
</event>
<event>
 4    1  0.8284550E+003  0.2207667E+02  0.7546771E-02  0.1504430E+00
          2   -1    0    0  502    0  0.00000000000E+00  0.00000000000E+00  0.41168372060E+02  0.41168372060E+02  0.00000000000E+00 0. -1.
          1   -1    0    0  501    0 -0.00000000000E+00 -0.00000000000E+00 -0.42020181440E+02  0.42020181440E+02  0.00000000000E+00 0.  1.
          2    1    1    2  501    0 -0.19257954567E+02 -0.10794013535E+02  0.34825381957E+02  0.41233321122E+02  0.00000000000E+00 0. -1.
          1    1    1    2  502    0  0.19257954567E+02  0.10794013535E+02 -0.35677191336E+02  0.41955232378E+02  0.00000000000E+00 0.  1.
</event>
<event>
 4    1  0.8284550E+003  0.2506183E+02  0.7546771E-02  0.1468113E+00
          2   -1    0    0  502    0  0.00000000000E+00  0.00000000000E+00  0.93871475784E+03  0.93871475784E+03  0.00000000000E+00 0. -1.
          1   -1    0    0  501    0 -0.00000000000E+00 -0.00000000000E+00 -0.28275063125E+02  0.28275063125E+02  0.00000000000E+00 0. -1.
          2    1    1    2  501    0 -0.15978544179E+00  0.25061318103E+02  0.93295979471E+03  0.93329634830E+03  0.00000000000E+00 0. -1.
          1    1    1    2  502    0  0.15978544179E+00 -0.25061318103E+02 -0.22520099998E+02  0.33693472667E+02  0.00000000000E+00 0. -1.
</event>
<event>
 4    1  0.8284550E+003  0.2660684E+02  0.7546771E-02  0.1451598E+00
          2   -1    0    0  502    0  0.00000000000E+00  0.00000000000E+00  0.81173255579E+01  0.81173255579E+01  0.00000000000E+00 0.  1.
          1   -1    0    0  501    0 -0.00000000000E+00 -0.00000000000E+00 -0.18873932959E+03  0.18873932959E+03  0.00000000000E+00 0.  1.
          2    1    1    2  501    0 -0.21252852664E+02 -0.16007496553E+02 -0.18120249255E+02  0.32191103201E+02  0.00000000000E+00 0.  1.
          1    1    1    2  502    0  0.21252852664E+02  0.16007496553E+02 -0.16250175478E+03  0.16466555195E+03  0.00000000000E+00 0.  1.
</event>
<event>
 4    1  0.8284550E+003  0.2907883E+02  0.7546771E-02  0.1427774E+00
          2   -1    0    0  502    0  0.00000000000E+00  0.00000000000E+00  0.68721178986E+03  0.68721178986E+03  0.00000000000E+00 0.  1.
          1   -1    0    0  501    0 -0.00000000000E+00 -0.00000000000E+00 -0.27205710056E+02  0.27205710056E+02  0.00000000000E+00 0. -1.
          2    1    1    2  501    0  0.17689338483E+02  0.23079546259E+02  0.67904049017E+03  0.67966283217E+03  0.00000000000E+00 0.  1.
          1    1    1    2  502    0 -0.17689338483E+02 -0.23079546259E+02 -0.19034410368E+02  0.34754667737E+02  0.00000000000E+00 0. -1.
</event>
<event>
 4    1  0.8284550E+003  0.2218862E+02  0.7546771E-02  0.1502946E+00
          2   -1    0    0  502    0  0.00000000000E+00  0.00000000000E+00  0.27160736805E+03  0.27160736805E+03  0.00000000000E+00 0. -1.
          1   -1    0    0  501    0 -0.00000000000E+00 -0.00000000000E+00 -0.44662862575E+03  0.44662862575E+03  0.00000000000E+00 0.  1.
          2    1    1    2  501    0  0.38486368129E+01 -0.21852291713E+02  0.27087787559E+03  0.27178513231E+03  0.00000000000E+00 0. -1.
          1    1    1    2  502    0 -0.38486368129E+01  0.21852291713E+02 -0.44589913329E+03  0.44645086149E+03  0.00000000000E+00 0.  1.
</event>
<event>
 4    1  0.8284550E+003  0.3162559E+02  0.7546771E-02  0.1405977E+00
          2   -1    0    0  502    0  0.00000000000E+00  0.00000000000E+00  0.52586988391E+01  0.52586988391E+01  0.00000000000E+00 0.  1.
          1   -1    0    0  501    0 -0.00000000000E+00 -0.00000000000E+00 -0.42250607198E+03  0.42250607198E+03  0.00000000000E+00 0.  1.
          2    1    1    2  501    0  0.28138455242E+02 -0.14436249816E+02 -0.50027207606E+02  0.59185297778E+02  0.00000000000E+00 0.  1.
          1    1    1    2  502    0 -0.28138455242E+02  0.14436249816E+02 -0.36722016553E+03  0.36857947304E+03  0.00000000000E+00 0.  1.
</event>
<event>
 4    1  0.8284550E+003  0.3288874E+02  0.7546771E-02  0.1396046E+00
          2   -1    0    0  502    0  0.00000000000E+00  0.00000000000E+00  0.68874248225E+03  0.68874248225E+03  0.00000000000E+00 0. -1.
          1   -1    0    0  501    0 -0.00000000000E+00 -0.00000000000E+00 -0.22586512575E+01  0.22586512575E+01  0.00000000000E+00 0.  1.
          2    1    1    2  501    0 -0.23252691578E+01 -0.32806433151E+02  0.53394892170E+03  0.53496085830E+03  0.00000000000E+00 0. -1.
          1    1    1    2  502    0  0.23252691578E+01  0.32806433151E+02  0.15253490930E+03  0.15604027521E+03  0.00000000000E+00 0.  1.
</event>
<event>
 4    1  0.8284550E+003  0.2918295E+02  0.7546771E-02  0.1426832E+00
          2   -1    0    0  502    0  0.00000000000E+00  0.00000000000E+00  0.10517082641E+03  0.10517082641E+03  0.00000000000E+00 0.  1.
          1   -1    0    0  501    0 -0.00000000000E+00 -0.00000000000E+00 -0.10797265332E+02  0.10797265332E+02  0.00000000000E+00 0.  1.
          2    1    1    2  501    0  0.26636928541E+02  0.11921304693E+02  0.18193505546E+02  0.34389636691E+02  0.00000000000E+00 0.  1.
          1    1    1    2  502    0 -0.26636928541E+02 -0.11921304693E+02  0.76180055534E+02  0.81578455053E+02  0.00000000000E+00 0.  1.
</event>
<event>
 4    1  0.8284550E+003  0.2019678E+02  0.7546771E-02  0.1531049E+00
          2   -1    0    0  502    0  0.00000000000E+00  0.00000000000E+00  0.47722581447E+00  0.47722581447E+00  0.00000000000E+00 0. -1.
          1   -1    0    0  501    0 -0.00000000000E+00 -0.00000000000E+00 -0.17167572902E+04  0.17167572902E+04  0.00000000000E+00 0. -1.
          2    1    1    2  501    0  0.19782445168E+02 -0.40699816043E+01 -0.24972485339E+03  0.25054024086E+03  0.00000000000E+00 0. -1.
          1    1    1    2  502    0 -0.19782445168E+02  0.40699816043E+01 -0.14665552110E+04  0.14666942752E+04  0.00000000000E+00 0. -1.
</event>
<event>
 4    1  0.8284550E+003  0.3241324E+02  0.7546771E-02  0.1399722E+00
          2   -1    0    0  502    0  0.00000000000E+00  0.00000000000E+00  0.11089632503E+04  0.11089632503E+04  0.00000000000E+00 0. -1.
          1   -1    0    0  501    0 -0.00000000000E+00 -0.00000000000E+00 -0.96074037314E+00  0.96074037314E+00  0.00000000000E+00 0. -1.
          2    1    1    2  501    0 -0.14856258003E+02  0.28808150174E+02  0.61942684201E+03  0.62027431876E+03  0.00000000000E+00 0. -1.
          1    1    1    2  502    0  0.14856258003E+02 -0.28808150174E+02  0.48857566794E+03  0.48964967193E+03  0.00000000000E+00 0. -1.
</event>
<event>
 4    1  0.8284550E+003  0.2216842E+02  0.7546771E-02  0.1503213E+00
          2   -1    0    0  502    0  0.00000000000E+00  0.00000000000E+00  0.22155386478E+03  0.22155386478E+03  0.00000000000E+00 0.  1.
          1   -1    0    0  501    0 -0.00000000000E+00 -0.00000000000E+00 -0.43515350613E+02  0.43515350613E+02  0.00000000000E+00 0. -1.
          2    1    1    2  501    0 -0.22164680361E+02  0.40700667710E+00  0.21813178481E+03  0.21925536312E+03  0.00000000000E+00 0.  1.
          1    1    1    2  502    0  0.22164680361E+02 -0.40700667710E+00 -0.40093270642E+02  0.45813852280E+02  0.00000000000E+00 0. -1.
</event>
<event>
 4    1  0.8284550E+003  0.2794367E+02  0.7546771E-02  0.1438352E+00
          2   -1    0    0  502    0  0.00000000000E+00  0.00000000000E+00  0.99462233227E+03  0.99462233227E+03  0.00000000000E+00 0.  1.
          1   -1    0    0  501    0 -0.00000000000E+00 -0.00000000000E+00 -0.21174844733E+01  0.21174844733E+01  0.00000000000E+00 0. -1.
          2    1    1    2  501    0  0.24136888701E+02  0.14080458553E+02  0.89158379102E+03  0.89202158332E+03  0.00000000000E+00 0.  1.
          1    1    1    2  502    0 -0.24136888701E+02 -0.14080458553E+02  0.10092105679E+03  0.10471823343E+03  0.00000000000E+00 0. -1.
</event>
<event>
 4    1  0.8284550E+003  0.2595852E+02  0.7546771E-02  0.1458360E+00
          2   -1    0    0  502    0  0.00000000000E+00  0.00000000000E+00  0.13340019927E+04  0.13340019927E+04  0.00000000000E+00 0. -1.
          1   -1    0    0  501    0 -0.00000000000E+00 -0.00000000000E+00 -0.58363926496E+00  0.58363926496E+00  0.00000000000E+00 0. -1.
          2    1    1    2  501    0 -0.23435951869E+02  0.11162468445E+02  0.91144887213E+03  0.91181845290E+03  0.00000000000E+00 0. -1.
          1    1    1    2  502    0  0.23435951869E+02 -0.11162468445E+02  0.42196948132E+03  0.42276717908E+03  0.00000000000E+00 0. -1.
</event>
<event>
 4    1  0.8284550E+003  0.2182508E+02  0.7546771E-02  0.1507803E+00
          2   -1    0    0  502    0  0.00000000000E+00  0.00000000000E+00  0.38081164529E+01  0.38081164529E+01  0.00000000000E+00 0.  1.
          1   -1    0    0  501    0 -0.00000000000E+00 -0.00000000000E+00 -0.15426718697E+03  0.15426718697E+03  0.00000000000E+00 0.  1.
          2    1    1    2  501    0  0.17932081865E+02 -0.12440840771E+02 -0.40852825368E+02  0.46317247540E+02  0.00000000000E+00 0.  1.
          1    1    1    2  502    0 -0.17932081865E+02  0.12440840771E+02 -0.10960624515E+03  0.11175805588E+03  0.00000000000E+00 0.  1.
</event>
<event>
 4    1  0.8284550E+003  0.3264968E+02  0.7546771E-02  0.1397885E+00
          2   -1    0    0  502    0  0.00000000000E+00  0.00000000000E+00  0.17849229392E+02  0.17849229392E+02  0.00000000000E+00 0.  1.
          1   -1    0    0  501    0 -0.00000000000E+00 -0.00000000000E+00 -0.59722937966E+02  0.59722937966E+02  0.00000000000E+00 0.  1.
          2    1    1    2  501    0  0.24626542993E+02  0.21436740708E+02 -0.21042759603E+02  0.38843251713E+02  0.00000000000E+00 0.  1.
          1    1    1    2  502    0 -0.24626542993E+02 -0.21436740708E+02 -0.20830948971E+02  0.38728915644E+02  0.00000000000E+00 0.  1.
</event>
<event>
 4    1  0.8284550E+003  0.2095148E+02  0.7546771E-02  0.1519959E+00
          2   -1    0    0  502    0  0.00000000000E+00  0.00000000000E+00  0.83453252122E+02  0.83453252122E+02  0.00000000000E+00 0.  1.
          1   -1    0    0  501    0 -0.00000000000E+00 -0.00000000000E+00 -0.27275658487E+02  0.27275658487E+02  0.00000000000E+00 0. -1.
          2    1    1    2  501    0  0.20320807486E+02 -0.51018799157E+01  0.77829190140E+02  0.80599920803E+02  0.00000000000E+00 0.  1.
          1    1    1    2  502    0 -0.20320807486E+02  0.51018799157E+01 -0.21651596505E+02  0.30128989807E+02  0.00000000000E+00 0. -1.
</event>
<event>
 4    1  0.8284550E+003  0.2442192E+02  0.7546771E-02  0.1475375E+00
          2   -1    0    0  502    0  0.00000000000E+00  0.00000000000E+00  0.74765245103E+03  0.74765245103E+03  0.00000000000E+00 0.  1.
          1   -1    0    0  501    0 -0.00000000000E+00 -0.00000000000E+00 -0.34706983955E+01  0.34706983955E+01  0.00000000000E+00 0. -1.
          2    1    1    2  501    0  0.38940241531E+01  0.24109479217E+02  0.70167707300E+03  0.70210194786E+03  0.00000000000E+00 0.  1.
          1    1    1    2  502    0 -0.38940241531E+01 -0.24109479217E+02  0.42504679631E+02  0.49021201564E+02  0.00000000000E+00 0. -1.
</event>
<event>
 4    1  0.8284550E+003  0.2181590E+02  0.7546771E-02  0.1507927E+00
          2   -1    0    0  502    0  0.00000000000E+00  0.00000000000E+00  0.25128303927E+01  0.25128303927E+01  0.00000000000E+00 0. -1.
          1   -1    0    0  501    0 -0.00000000000E+00 -0.00000000000E+00 -0.26460390326E+03  0.26460390326E+03  0.00000000000E+00 0. -1.
          2    1    1    2  501    0 -0.86595463208E+01 -0.20023628217E+02 -0.59844008283E+02  0.63696457962E+02  0.00000000000E+00 0. -1.
          1    1    1    2  502    0  0.86595463208E+01  0.20023628217E+02 -0.20224706458E+03  0.20342027569E+03  0.00000000000E+00 0. -1.
</event>
<event>
 4    1  0.8284550E+003  0.3203886E+02  0.7546771E-02  0.1402669E+00
          2   -1    0    0  502    0  0.00000000000E+00  0.00000000000E+00  0.72869556430E+03  0.72869556430E+03  0.00000000000E+00 0. -1.
          1   -1    0    0  501    0 -0.00000000000E+00 -0.00000000000E+00 -0.16303525689E+02  0.16303525689E+02  0.00000000000E+00 0.  1.
          2    1    1    2  501    0 -0.30472153017E+01  0.31893625089E+02  0.71223962066E+03  0.71295986289E+03  0.00000000000E+00 0. -1.
          1    1    1    2  502    0  0.30472153017E+01 -0.31893625089E+02  0.15241795177E+00  0.32039227108E+02  0.00000000000E+00 0.  1.
</event>
<event>
 4    1  0.8284550E+003  0.3197578E+02  0.7546771E-02  0.1403170E+00
          2   -1    0    0  502    0  0.00000000000E+00  0.00000000000E+00  0.15761267913E+04  0.15761267913E+04  0.00000000000E+00 0. -1.
          1   -1    0    0  501    0 -0.00000000000E+00 -0.00000000000E+00 -0.27348919219E+01  0.27348919219E+01  0.00000000000E+00 0. -1.
          2    1    1    2  501    0 -0.68580689993E+01 -0.31231672267E+02  0.14761733118E+04  0.14765195891E+04  0.00000000000E+00 0. -1.
          1    1    1    2  502    0  0.68580689993E+01  0.31231672267E+02  0.97218587583E+02  0.10234209415E+03  0.00000000000E+00 0. -1.
</event>
<event>
 4    1  0.8284550E+003  0.2212148E+02  0.7546771E-02  0.1503834E+00
          2   -1    0    0  502    0  0.00000000000E+00  0.00000000000E+00  0.55867106995E+01  0.55867106995E+01  0.00000000000E+00 0. -1.
          1   -1    0    0  501    0 -0.00000000000E+00 -0.00000000000E+00 -0.87949208576E+02  0.87949208576E+02  0.00000000000E+00 0. -1.
          2    1    1    2  501    0  0.56966153865E+01 -0.21375408817E+02 -0.44155524673E+02  0.49386940461E+02  0.00000000000E+00 0. -1.
          1    1    1    2  502    0 -0.56966153865E+01  0.21375408817E+02 -0.38206973204E+02  0.44148978814E+02  0.00000000000E+00 0. -1.
</event>
<event>
 4    1  0.8284550E+003  0.2675581E+02  0.7546771E-02  0.1450077E+00
          2   -1    0    0  502    0  0.00000000000E+00  0.00000000000E+00  0.11563585122E+01  0.11563585122E+01  0.00000000000E+00 0. -1.
          1   -1    0    0  501    0 -0.00000000000E+00 -0.00000000000E+00 -0.86873345489E+03  0.86873345489E+03  0.00000000000E+00 0.  1.
          2    1    1    2  501    0  0.22321196872E+02  0.14752545935E+02 -0.20062346369E+03  0.20239972239E+03  0.00000000000E+00 0. -1.
          1    1    1    2  502    0 -0.22321196872E+02 -0.14752545935E+02 -0.66695363268E+03  0.66749009101E+03  0.00000000000E+00 0.  1.
</event>
<event>
 4    1  0.8284550E+003  0.3193966E+02  0.7546771E-02  0.1403457E+00
          2   -1    0    0  502    0  0.00000000000E+00  0.00000000000E+00  0.10822747400E+04  0.10822747400E+04  0.00000000000E+00 0. -1.
          1   -1    0    0  501    0 -0.00000000000E+00 -0.00000000000E+00 -0.12829726496E+01  0.12829726496E+01  0.00000000000E+00 0.  1.
          2    1    1    2  501    0  0.81016754597E+01 -0.30895056817E+02  0.81955541691E+03  0.82017755582E+03  0.00000000000E+00 0. -1.
          1    1    1    2  502    0 -0.81016754597E+01  0.30895056817E+02  0.26143635040E+03  0.26338015679E+03  0.00000000000E+00 0.  1.
</event>
<event>
 4    1  0.8284550E+003  0.2262058E+02  0.7546771E-02  0.1497318E+00
          2   -1    0    0  502    0  0.00000000000E+00  0.00000000000E+00  0.37776444266E+01  0.37776444266E+01  0.00000000000E+00 0.  1.
          1   -1    0    0  501    0 -0.00000000000E+00 -0.00000000000E+00 -0.65097669914E+03  0.65097669914E+03  0.00000000000E+00 0.  1.
          2    1    1    2  501    0 -0.21591524275E+02 -0.67451122500E+01 -0.32266111118E+02  0.39405486756E+02  0.00000000000E+00 0.  1.
          1    1    1    2  502    0  0.21591524275E+02  0.67451122500E+01 -0.61493294359E+03  0.61534885681E+03  0.00000000000E+00 0.  1.
</event>
<event>
 4    1  0.8284550E+003  0.2617358E+02  0.7546771E-02  0.1456091E+00
          2   -1    0    0  502    0  0.00000000000E+00  0.00000000000E+00  0.77484281775E+03  0.77484281775E+03  0.00000000000E+00 0.  1.
          1   -1    0    0  501    0 -0.00000000000E+00 -0.00000000000E+00 -0.32505560591E+01  0.32505560591E+01  0.00000000000E+00 0.  1.
          2    1    1    2  501    0  0.23689057326E+02  0.11130362264E+02  0.71774408603E+03  0.71822115635E+03  0.00000000000E+00 0.  1.
          1    1    1    2  502    0 -0.23689057326E+02 -0.11130362264E+02  0.53848175657E+02  0.59872217453E+02  0.00000000000E+00 0.  1.
</event>
<event>
 4    1  0.8284550E+003  0.2036888E+02  0.7546771E-02  0.1528469E+00
          2   -1    0    0  502    0  0.00000000000E+00  0.00000000000E+00  0.59730176695E+03  0.59730176695E+03  0.00000000000E+00 0.  1.
          1   -1    0    0  501    0 -0.00000000000E+00 -0.00000000000E+00 -0.10234811973E+01  0.10234811973E+01  0.00000000000E+00 0.  1.
          2    1    1    2  501    0  0.73220286602E+01 -0.19007349218E+02  0.46772151618E+03  0.46816483008E+03  0.00000000000E+00 0.  1.
          1    1    1    2  502    0 -0.73220286602E+01  0.19007349218E+02  0.12855676958E+03  0.13016041807E+03  0.00000000000E+00 0.  1.
</event>
<event>
 4    1  0.8284550E+003  0.2081137E+02  0.7546771E-02  0.1521975E+00
          2   -1    0    0  502    0  0.00000000000E+00  0.00000000000E+00  0.11611673446E+01  0.11611673446E+01  0.00000000000E+00 0.  1.
          1   -1    0    0  501    0 -0.00000000000E+00 -0.00000000000E+00 -0.61893871316E+03  0.61893871316E+03  0.00000000000E+00 0.  1.
          2    1    1    2  501    0  0.19469996854E+02  0.73506828195E+01 -0.11344453266E+03  0.11533765779E+03  0.00000000000E+00 0.  1.
          1    1    1    2  502    0 -0.19469996854E+02 -0.73506828195E+01 -0.50433301315E+03  0.50476222271E+03  0.00000000000E+00 0.  1.
</event>
<event>
 4    1  0.8284550E+003  0.2336832E+02  0.7546771E-02  0.1487924E+00
          2   -1    0    0  502    0  0.00000000000E+00  0.00000000000E+00  0.71901242350E+03  0.71901242350E+03  0.00000000000E+00 0. -1.
          1   -1    0    0  501    0 -0.00000000000E+00 -0.00000000000E+00 -0.96021742589E+01  0.96021742589E+01  0.00000000000E+00 0. -1.
          2    1    1    2  501    0  0.10965230736E+02 -0.20635941085E+02  0.70430823674E+03  0.70469580010E+03  0.00000000000E+00 0. -1.
          1    1    1    2  502    0 -0.10965230736E+02  0.20635941085E+02  0.51020125018E+01  0.23918797652E+02  0.00000000000E+00 0. -1.
</event>
<event>
 4    1  0.8284550E+003  0.2492550E+02  0.7546771E-02  0.1469639E+00
          2   -1    0    0  502    0  0.00000000000E+00  0.00000000000E+00  0.13888429825E+02  0.13888429825E+02  0.00000000000E+00 0. -1.
          1   -1    0    0  501    0 -0.00000000000E+00 -0.00000000000E+00 -0.47625838270E+02  0.47625838270E+02  0.00000000000E+00 0.  1.
          2    1    1    2  501    0  0.17067530778E+01 -0.24866997026E+02 -0.92892884708E+01  0.26600214801E+02  0.00000000000E+00 0. -1.
          1    1    1    2  502    0 -0.17067530778E+01  0.24866997026E+02 -0.24448119974E+02  0.34914053294E+02  0.00000000000E+00 0.  1.
</event>
<event>
 4    1  0.8284550E+003  0.2068548E+02  0.7546771E-02  0.1523803E+00
          2   -1    0    0  502    0  0.00000000000E+00  0.00000000000E+00  0.47220040654E+03  0.47220040654E+03  0.00000000000E+00 0.  1.
          1   -1    0    0  501    0 -0.00000000000E+00 -0.00000000000E+00 -0.59126577896E+01  0.59126577896E+01  0.00000000000E+00 0.  1.
          2    1    1    2  501    0 -0.20685445727E+02  0.37746030270E-01  0.45312036054E+03  0.45359227311E+03  0.00000000000E+00 0.  1.
          1    1    1    2  502    0  0.20685445727E+02 -0.37746030270E-01  0.13167388209E+02  0.24520791218E+02  0.00000000000E+00 0.  1.
</event>
<event>
 4    1  0.8284550E+003  0.2336140E+02  0.7546771E-02  0.1488009E+00
          2   -1    0    0  502    0  0.00000000000E+00  0.00000000000E+00  0.20230931326E+02  0.20230931326E+02  0.00000000000E+00 0. -1.
          1   -1    0    0  501    0 -0.00000000000E+00 -0.00000000000E+00 -0.42674407241E+03  0.42674407241E+03  0.00000000000E+00 0.  1.
          2    1    1    2  501    0 -0.20925509406E+02 -0.10386441687E+02  0.13051835685E+02  0.26760148160E+02  0.00000000000E+00 0. -1.
          1    1    1    2  502    0  0.20925509406E+02  0.10386441687E+02 -0.41956497677E+03  0.42021485558E+03  0.00000000000E+00 0.  1.
</event>
<event>
 4    1  0.8284550E+003  0.5502824E+02  0.7546771E-02  0.1277730E+00
          2   -1    0    0  502    0  0.00000000000E+00  0.00000000000E+00  0.11576623252E+04  0.11576623252E+04  0.00000000000E+00 0.  1.
          1   -1    0    0  501    0 -0.00000000000E+00 -0.00000000000E+00 -0.44831216670E+02  0.44831216670E+02  0.00000000000E+00 0.  1.
          2    1    1    2  501    0 -0.19804338433E+02  0.51340968734E+02  0.11398586519E+04  0.11411861606E+04  0.00000000000E+00 0.  1.
          1    1    1    2  502    0  0.19804338433E+02 -0.51340968734E+02 -0.27027543388E+02  0.61307381226E+02  0.00000000000E+00 0.  1.
</event>
<event>
 4    1  0.8284550E+003  0.2066580E+02  0.7546771E-02  0.1524090E+00
          2   -1    0    0  502    0  0.00000000000E+00  0.00000000000E+00  0.10521839940E+04  0.10521839940E+04  0.00000000000E+00 0.  1.
          1   -1    0    0  501    0 -0.00000000000E+00 -0.00000000000E+00 -0.20857476553E+01  0.20857476553E+01  0.00000000000E+00 0. -1.
          2    1    1    2  501    0  0.21584017044E+01 -0.20552772270E+02  0.99812041278E+03  0.99833432954E+03  0.00000000000E+00 0.  1.
          1    1    1    2  502    0 -0.21584017044E+01  0.20552772270E+02  0.51977833609E+02  0.55935412152E+02  0.00000000000E+00 0. -1.
</event>
<event>
 4    1  0.8284550E+003  0.2003767E+02  0.7546771E-02  0.1533461E+00
          2   -1    0    0  502    0  0.00000000000E+00  0.00000000000E+00  0.26498761225E+01  0.26498761225E+01  0.00000000000E+00 0.  1.
          1   -1    0    0  501    0 -0.00000000000E+00 -0.00000000000E+00 -0.37463470348E+03  0.37463470348E+03  0.00000000000E+00 0. -1.
          2    1    1    2  501    0 -0.30617388293E+01  0.19802368226E+02 -0.40413125066E+02  0.45107967252E+02  0.00000000000E+00 0.  1.
          1    1    1    2  502    0  0.30617388293E+01 -0.19802368226E+02 -0.33157170229E+03  0.33217661235E+03  0.00000000000E+00 0. -1.
</event>
<event>
 4    1  0.8284550E+003  0.3263679E+02  0.7546771E-02  0.1397985E+00
          2   -1    0    0  502    0  0.00000000000E+00  0.00000000000E+00  0.46393565595E+02  0.46393565595E+02  0.00000000000E+00 0.  1.
          1   -1    0    0  501    0 -0.00000000000E+00 -0.00000000000E+00 -0.45708340552E+02  0.45708340552E+02  0.00000000000E+00 0. -1.
          2    1    1    2  501    0  0.19384117245E+02 -0.26256735751E+02  0.32830627910E+02  0.46292659274E+02  0.00000000000E+00 0.  1.
          1    1    1    2  502    0 -0.19384117245E+02  0.26256735751E+02 -0.32145402867E+02  0.45809246874E+02  0.00000000000E+00 0. -1.
</event>
<event>
 4    1  0.8284550E+003  0.4448300E+02  0.7546771E-02  0.1324045E+00
          2   -1    0    0  502    0  0.00000000000E+00  0.00000000000E+00  0.95237153826E+03  0.95237153826E+03  0.00000000000E+00 0.  1.
          1   -1    0    0  501    0 -0.00000000000E+00 -0.00000000000E+00 -0.12147573580E+02  0.12147573580E+02  0.00000000000E+00 0.  1.
          2    1    1    2  501    0 -0.26369006922E+02 -0.35824745647E+02  0.90919658154E+03  0.91028410994E+03  0.00000000000E+00 0.  1.
          1    1    1    2  502    0  0.26369006922E+02  0.35824745647E+02  0.31027383144E+02  0.54235001903E+02  0.00000000000E+00 0.  1.
</event>
<event>
 4    1  0.8284550E+003  0.5398272E+02  0.7546771E-02  0.1281770E+00
          2   -1    0    0  502    0  0.00000000000E+00  0.00000000000E+00  0.21407157487E+04  0.21407157487E+04  0.00000000000E+00 0. -1.
          1   -1    0    0  501    0 -0.00000000000E+00 -0.00000000000E+00 -0.39164320474E+02  0.39164320474E+02  0.00000000000E+00 0. -1.
          2    1    1    2  501    0  0.42481702025E+02  0.33308247251E+02  0.21216059291E+04  0.21222925936E+04  0.00000000000E+00 0. -1.
          1    1    1    2  502    0 -0.42481702025E+02 -0.33308247251E+02 -0.20054500867E+02  0.57587475608E+02  0.00000000000E+00 0. -1.
</event>
<event>
 4    1  0.8284550E+003  0.2101064E+02  0.7546771E-02  0.1519113E+00
          2   -1    0    0  502    0  0.00000000000E+00  0.00000000000E+00  0.26035051625E+02  0.26035051625E+02  0.00000000000E+00 0. -1.
          1   -1    0    0  501    0 -0.00000000000E+00 -0.00000000000E+00 -0.58069615842E+02  0.58069615842E+02  0.00000000000E+00 0. -1.
          2    1    1    2  501    0 -0.14580978424E+02  0.15127527871E+02  0.19366897675E+02  0.28574879821E+02  0.00000000000E+00 0. -1.
          1    1    1    2  502    0  0.14580978424E+02 -0.15127527871E+02 -0.51401461892E+02  0.55529787645E+02  0.00000000000E+00 0. -1.
</event>
<event>
 4    1  0.8284550E+003  0.2223272E+02  0.7546771E-02  0.1502364E+00
          2   -1    0    0  502    0  0.00000000000E+00  0.00000000000E+00  0.12360170091E+04  0.12360170091E+04  0.00000000000E+00 0.  1.
          1   -1    0    0  501    0 -0.00000000000E+00 -0.00000000000E+00 -0.13526741382E+01  0.13526741382E+01  0.00000000000E+00 0. -1.
          2    1    1    2  501    0  0.19297542697E+02 -0.11040780295E+02  0.11365694570E+04  0.11367868862E+04  0.00000000000E+00 0.  1.
          1    1    1    2  502    0 -0.19297542697E+02  0.11040780295E+02  0.98094877967E+02  0.10058279707E+03  0.00000000000E+00 0. -1.
</event>
<event>
 4    1  0.8284550E+003  0.2064078E+02  0.7546771E-02  0.1524456E+00
          2   -1    0    0  502    0  0.00000000000E+00  0.00000000000E+00  0.65637663643E+03  0.65637663643E+03  0.00000000000E+00 0. -1.
          1   -1    0    0  501    0 -0.00000000000E+00 -0.00000000000E+00 -0.96349119043E+00  0.96349119043E+00  0.00000000000E+00 0. -1.
          2    1    1    2  501    0  0.14968313545E+02 -0.14212374512E+02  0.51545839673E+03  0.51587149637E+03  0.00000000000E+00 0. -1.
          1    1    1    2  502    0 -0.14968313545E+02  0.14212374512E+02  0.13995474850E+03  0.14146863125E+03  0.00000000000E+00 0. -1.
</event>
<event>
 4    1  0.8284550E+003  0.2103059E+02  0.7546771E-02  0.1518829E+00
          2   -1    0    0  502    0  0.00000000000E+00  0.00000000000E+00  0.55177793512E+02  0.55177793512E+02  0.00000000000E+00 0. -1.
          1   -1    0    0  501    0 -0.00000000000E+00 -0.00000000000E+00 -0.24513932588E+02  0.24513932588E+02  0.00000000000E+00 0. -1.
          2    1    1    2  501    0  0.15271213363E+02 -0.14459447564E+02  0.48020520207E+02  0.52423810834E+02  0.00000000000E+00 0. -1.
          1    1    1    2  502    0 -0.15271213363E+02  0.14459447564E+02 -0.17356659284E+02  0.27267915265E+02  0.00000000000E+00 0. -1.
</event>
<event>
 4    1  0.8284550E+003  0.2038626E+02  0.7546771E-02  0.1528211E+00
          2   -1    0    0  502    0  0.00000000000E+00  0.00000000000E+00  0.69914086881E+03  0.69914086881E+03  0.00000000000E+00 0.  1.
          1   -1    0    0  501    0 -0.00000000000E+00 -0.00000000000E+00 -0.87052456771E+01  0.87052456771E+01  0.00000000000E+00 0.  1.
          2    1    1    2  501    0  0.18037948730E+02 -0.94990504980E+01  0.68684328971E+03  0.68714576632E+03  0.00000000000E+00 0.  1.
          1    1    1    2  502    0 -0.18037948730E+02  0.94990504980E+01  0.35923334234E+01  0.20700348165E+02  0.00000000000E+00 0.  1.
</event>
<event>
 4    1  0.8284550E+003  0.5567544E+02  0.7546771E-02  0.1275279E+00
          2   -1    0    0  502    0  0.00000000000E+00  0.00000000000E+00  0.25272999080E+04  0.25272999080E+04  0.00000000000E+00 0.  1.
          1   -1    0    0  501    0 -0.00000000000E+00 -0.00000000000E+00 -0.10317501811E+02  0.10317501811E+02  0.00000000000E+00 0. -1.
          2    1    1    2  501    0 -0.10633164870E+02 -0.54650620816E+02  0.24494988346E+04  0.24501314853E+04  0.00000000000E+00 0.  1.
          1    1    1    2  502    0  0.10633164870E+02  0.54650620816E+02  0.67483571533E+02  0.87485924454E+02  0.00000000000E+00 0. -1.
</event>
<event>
 4    1  0.8284550E+003  0.2118667E+02  0.7546771E-02  0.1516616E+00
          2   -1    0    0  502    0  0.00000000000E+00  0.00000000000E+00  0.25420221087E+02  0.25420221087E+02  0.00000000000E+00 0. -1.
          1   -1    0    0  501    0 -0.00000000000E+00 -0.00000000000E+00 -0.19349811897E+03  0.19349811897E+03  0.00000000000E+00 0. -1.
          2    1    1    2  501    0 -0.17565297693E+02  0.11846322223E+02  0.20306264029E+02  0.29346539695E+02  0.00000000000E+00 0. -1.
          1    1    1    2  502    0  0.17565297693E+02 -0.11846322223E+02 -0.18838416192E+03  0.18957180037E+03  0.00000000000E+00 0. -1.
</event>
<event>
 4    1  0.8284550E+003  0.2837853E+02  0.7546771E-02  0.1434231E+00
          2   -1    0    0  502    0  0.00000000000E+00  0.00000000000E+00  0.18491221657E+04  0.18491221657E+04  0.00000000000E+00 0. -1.
          1   -1    0    0  501    0 -0.00000000000E+00 -0.00000000000E+00 -0.45062901017E+00  0.45062901017E+00  0.00000000000E+00 0. -1.
          2    1    1    2  501    0 -0.27374777187E+02  0.74808112553E+01  0.10936378104E+04  0.10940059420E+04  0.00000000000E+00 0. -1.
          1    1    1    2  502    0  0.27374777187E+02 -0.74808112553E+01  0.75503372639E+03  0.75556685273E+03  0.00000000000E+00 0. -1.
</event>
<event>
 4    1  0.8284550E+003  0.3350181E+02  0.7546771E-02  0.1391413E+00
          2   -1    0    0  502    0  0.00000000000E+00  0.00000000000E+00  0.55824595181E+03  0.55824595181E+03  0.00000000000E+00 0.  1.
          1   -1    0    0  501    0 -0.00000000000E+00 -0.00000000000E+00 -0.20124361294E+01  0.20124361294E+01  0.00000000000E+00 0.  1.
          2    1    1    2  501    0 -0.98475044874E+01  0.32021820516E+02  0.26949584914E+03  0.27157021751E+03  0.00000000000E+00 0.  1.
          1    1    1    2  502    0  0.98475044874E+01 -0.32021820516E+02  0.28673766654E+03  0.28868817043E+03  0.00000000000E+00 0.  1.
</event>
<event>
 4    1  0.9935622E+003  0.2704701E+02  0.7546771E-02  0.1447136E+00
          2   -1    0    0  502    0  0.00000000000E+00  0.00000000000E+00  0.33615935708E+03  0.33615935708E+03  0.00000000000E+00 0.  1.
          1   -1    0    0  501    0 -0.00000000000E+00 -0.00000000000E+00 -0.35342098437E+03  0.35342098437E+03  0.00000000000E+00 0.  1.
          2    1    1    2  501    0  0.27046245402E+02  0.20293008447E+00  0.33509620389E+03  0.33618597001E+03  0.00000000000E+00 0.  1.
          1    1    1    2  502    0 -0.27046245402E+02 -0.20293008447E+00 -0.35235783118E+03  0.35339437144E+03  0.00000000000E+00 0.  1.
</event>
<event>
 4    1  0.8284550E+003  0.3222475E+02  0.7546771E-02  0.1401200E+00
          2   -1    0    0  502    0  0.00000000000E+00  0.00000000000E+00  0.31056320983E+03  0.31056320983E+03  0.00000000000E+00 0. -1.
          1   -1    0    0  501    0 -0.00000000000E+00 -0.00000000000E+00 -0.19501147192E+02  0.19501147192E+02  0.00000000000E+00 0.  1.
          2    1    1    2  501    0 -0.29277903965E+02  0.13462493511E+02  0.29574998887E+03  0.29750040388E+03  0.00000000000E+00 0. -1.
          1    1    1    2  502    0  0.29277903965E+02 -0.13462493511E+02 -0.46879262285E+01  0.32563953145E+02  0.00000000000E+00 0.  1.
</event>
<event>
 4    1  0.8284550E+003  0.2283873E+02  0.7546771E-02  0.1494533E+00
          2   -1    0    0  502    0  0.00000000000E+00  0.00000000000E+00  0.86377604523E+01  0.86377604523E+01  0.00000000000E+00 0.  1.
          1   -1    0    0  501    0 -0.00000000000E+00 -0.00000000000E+00 -0.44460427933E+03  0.44460427933E+03  0.00000000000E+00 0. -1.
          2    1    1    2  501    0 -0.13115557054E+02  0.18697317972E+02 -0.73136569190E+01  0.23981182492E+02  0.00000000000E+00 0.  1.
          1    1    1    2  502    0  0.13115557054E+02 -0.18697317972E+02 -0.42865286196E+03  0.42926085729E+03  0.00000000000E+00 0. -1.
</event>
<event>
 4    1  0.8284550E+003  0.3134516E+02  0.7546771E-02  0.1408256E+00
          2   -1    0    0  502    0  0.00000000000E+00  0.00000000000E+00  0.41804628038E+03  0.41804628038E+03  0.00000000000E+00 0. -1.
          1   -1    0    0  501    0 -0.00000000000E+00 -0.00000000000E+00 -0.70212443764E+01  0.70212443764E+01  0.00000000000E+00 0.  1.
          2    1    1    2  501    0  0.29421187408E+02 -0.10812609111E+02  0.37886295664E+03  0.38015741305E+03  0.00000000000E+00 0. -1.
          1    1    1    2  502    0 -0.29421187408E+02  0.10812609111E+02  0.32162079362E+02  0.44910111703E+02  0.00000000000E+00 0.  1.
</event>
<event>
 4    1  0.8284550E+003  0.2188141E+02  0.7546771E-02  0.1507043E+00
          2   -1    0    0  502    0  0.00000000000E+00  0.00000000000E+00  0.93391896719E+03  0.93391896719E+03  0.00000000000E+00 0.  1.
          1   -1    0    0  501    0 -0.00000000000E+00 -0.00000000000E+00 -0.28071295912E+02  0.28071295912E+02  0.00000000000E+00 0. -1.
          2    1    1    2  501    0 -0.21366876861E+02  0.47172818020E+01  0.92950645082E+03  0.92976396912E+03  0.00000000000E+00 0.  1.
          1    1    1    2  502    0  0.21366876861E+02 -0.47172818020E+01 -0.23658779537E+02  0.32226293978E+02  0.00000000000E+00 0. -1.
</event>
<event>
 4    1  0.8284550E+003  0.2010089E+02  0.7546771E-02  0.1532499E+00
          2   -1    0    0  502    0  0.00000000000E+00  0.00000000000E+00  0.15694967093E+01  0.15694967093E+01  0.00000000000E+00 0.  1.
          1   -1    0    0  501    0 -0.00000000000E+00 -0.00000000000E+00 -0.14821598008E+04  0.14821598008E+04  0.00000000000E+00 0.  1.
          2    1    1    2  501    0  0.19192856038E+02 -0.59732867686E+01 -0.65928421936E+02  0.68924616043E+02  0.00000000000E+00 0.  1.
          1    1    1    2  502    0 -0.19192856038E+02  0.59732867686E+01 -0.14146618821E+04  0.14148046814E+04  0.00000000000E+00 0.  1.
</event>
<event>
 4    1  0.8284550E+003  0.2675841E+02  0.7546771E-02  0.1450050E+00
          2   -1    0    0  502    0  0.00000000000E+00  0.00000000000E+00  0.92286390836E+03  0.92286390836E+03  0.00000000000E+00 0. -1.
          1   -1    0    0  501    0 -0.00000000000E+00 -0.00000000000E+00 -0.99669221476E+00  0.99669221476E+00  0.00000000000E+00 0. -1.
          2    1    1    2  501    0 -0.12649454248E+02 -0.23579734198E+02  0.67836778443E+03  0.67889532588E+03  0.00000000000E+00 0. -1.
          1    1    1    2  502    0  0.12649454248E+02  0.23579734198E+02  0.24349943171E+03  0.24496527469E+03  0.00000000000E+00 0. -1.
</event>
<event>
 4    1  0.8284550E+003  0.2283652E+02  0.7546771E-02  0.1494561E+00
          2   -1    0    0  502    0  0.00000000000E+00  0.00000000000E+00  0.11667112785E+01  0.11667112785E+01  0.00000000000E+00 0.  1.
          1   -1    0    0  501    0 -0.00000000000E+00 -0.00000000000E+00 -0.71168586848E+03  0.71168586848E+03  0.00000000000E+00 0.  1.
          2    1    1    2  501    0 -0.14515423775E+02 -0.17629784608E+02 -0.13788930412E+03  0.13976754639E+03  0.00000000000E+00 0.  1.
          1    1    1    2  502    0  0.14515423775E+02  0.17629784608E+02 -0.57262985308E+03  0.57308503337E+03  0.00000000000E+00 0.  1.
</event>
<event>
 4    1  0.8284550E+003  0.2173661E+02  0.7546771E-02  0.1509003E+00
          2   -1    0    0  502    0  0.00000000000E+00  0.00000000000E+00  0.22822165987E+03  0.22822165987E+03  0.00000000000E+00 0.  1.
          1   -1    0    0  501    0 -0.00000000000E+00 -0.00000000000E+00 -0.27964646831E+02  0.27964646831E+02  0.00000000000E+00 0. -1.
          2    1    1    2  501    0  0.12313583122E+02 -0.17912450651E+02  0.22338902445E+03  0.22444406088E+03  0.00000000000E+00 0.  1.
          1    1    1    2  502    0 -0.12313583122E+02  0.17912450651E+02 -0.23132011415E+02  0.31742245821E+02  0.00000000000E+00 0. -1.
</event>
<event>
 4    1  0.8284550E+003  0.2077531E+02  0.7546771E-02  0.1522497E+00
          2   -1    0    0  502    0  0.00000000000E+00  0.00000000000E+00  0.43099873431E+03  0.43099873431E+03  0.00000000000E+00 0.  1.
          1   -1    0    0  501    0 -0.00000000000E+00 -0.00000000000E+00 -0.39460302164E+01  0.39460302164E+01  0.00000000000E+00 0.  1.
          2    1    1    2  501    0 -0.20761985652E+02 -0.74385324498E+00  0.40138767171E+03  0.40192496360E+03  0.00000000000E+00 0.  1.
          1    1    1    2  502    0  0.20761985652E+02  0.74385324498E+00  0.25665032386E+02  0.33019800927E+02  0.00000000000E+00 0.  1.
</event>
<event>
 4    1  0.8284550E+003  0.2138528E+02  0.7546771E-02  0.1513835E+00
          2   -1    0    0  502    0  0.00000000000E+00  0.00000000000E+00  0.73393923552E+02  0.73393923552E+02  0.00000000000E+00 0.  1.
          1   -1    0    0  501    0 -0.00000000000E+00 -0.00000000000E+00 -0.12079694786E+03  0.12079694786E+03  0.00000000000E+00 0.  1.
          2    1    1    2  501    0  0.10493876967E+02 -0.18633533687E+02  0.70856490045E+02  0.74013324564E+02  0.00000000000E+00 0.  1.
          1    1    1    2  502    0 -0.10493876967E+02  0.18633533687E+02 -0.11825951435E+03  0.12017754685E+03  0.00000000000E+00 0.  1.
</event>
<event>
 4    1  0.8284550E+003  0.2122225E+02  0.7546771E-02  0.1516115E+00
          2   -1    0    0  502    0  0.00000000000E+00  0.00000000000E+00  0.17455335451E+03  0.17455335451E+03  0.00000000000E+00 0.  1.
          1   -1    0    0  501    0 -0.00000000000E+00 -0.00000000000E+00 -0.83055847438E+01  0.83055847438E+01  0.00000000000E+00 0.  1.
          2    1    1    2  501    0  0.16913287616E+01  0.21154745302E+02  0.15903461254E+03  0.16044435742E+03  0.00000000000E+00 0.  1.
          1    1    1    2  502    0 -0.16913287616E+01 -0.21154745302E+02  0.72131572296E+01  0.22414581838E+02  0.00000000000E+00 0.  1.
</event>
<event>
 4    1  0.8284550E+003  0.2428518E+02  0.7546771E-02  0.1476961E+00
          2   -1    0    0  502    0  0.00000000000E+00  0.00000000000E+00  0.85040388500E+03  0.85040388500E+03  0.00000000000E+00 0. -1.
          1   -1    0    0  501    0 -0.00000000000E+00 -0.00000000000E+00 -0.73534869635E+02  0.73534869635E+02  0.00000000000E+00 0. -1.
          2    1    1    2  501    0 -0.11920614497E+01  0.24255909621E+02  0.84822027518E+03  0.84856785550E+03  0.00000000000E+00 0. -1.
          1    1    1    2  502    0  0.11920614497E+01 -0.24255909621E+02 -0.71351259805E+02  0.75370899145E+02  0.00000000000E+00 0. -1.
</event>
<event>
 4    1  0.8284550E+003  0.2035049E+02  0.7546771E-02  0.1528743E+00
          2   -1    0    0  502    0  0.00000000000E+00  0.00000000000E+00  0.74216369643E+02  0.74216369643E+02  0.00000000000E+00 0.  1.
          1   -1    0    0  501    0 -0.00000000000E+00 -0.00000000000E+00 -0.17294471362E+02  0.17294471362E+02  0.00000000000E+00 0. -1.
          2    1    1    2  501    0  0.19980314667E+02  0.38638925621E+01  0.66118011014E+02  0.69178999851E+02  0.00000000000E+00 0.  1.
          1    1    1    2  502    0 -0.19980314667E+02 -0.38638925621E+01 -0.91961127333E+01  0.22331841154E+02  0.00000000000E+00 0. -1.
</event>
<event>
 4    1  0.8284550E+003  0.2191435E+02  0.7546771E-02  0.1506600E+00
          2   -1    0    0  502    0  0.00000000000E+00  0.00000000000E+00  0.85004722985E+03  0.85004722985E+03  0.00000000000E+00 0.  1.
          1   -1    0    0  501    0 -0.00000000000E+00 -0.00000000000E+00 -0.14465800771E+01  0.14465800771E+01  0.00000000000E+00 0. -1.
          2    1    1    2  501    0  0.11194755171E+02 -0.18839223121E+02  0.75667054147E+03  0.75698781179E+03  0.00000000000E+00 0.  1.
          1    1    1    2  502    0 -0.11194755171E+02  0.18839223121E+02  0.91930108301E+02  0.94505998134E+02  0.00000000000E+00 0. -1.
</event>
<event>
 4    1  0.8284550E+003  0.5382507E+02  0.7546771E-02  0.1282389E+00
          2   -1    0    0  502    0  0.00000000000E+00  0.00000000000E+00  0.25277503224E+03  0.25277503224E+03  0.00000000000E+00 0. -1.
          1   -1    0    0  501    0 -0.00000000000E+00 -0.00000000000E+00 -0.19581823410E+02  0.19581823410E+02  0.00000000000E+00 0. -1.
          2    1    1    2  501    0  0.46567161947E+01  0.53623248161E+02  0.20429123302E+03  0.21126297744E+03  0.00000000000E+00 0. -1.
          1    1    1    2  502    0 -0.46567161947E+01 -0.53623248161E+02  0.28901975814E+02  0.61093878212E+02  0.00000000000E+00 0. -1.
</event>
<event>
 4    1  0.8284550E+003  0.2086037E+02  0.7546771E-02  0.1521268E+00
          2   -1    0    0  502    0  0.00000000000E+00  0.00000000000E+00  0.20004853889E+03  0.20004853889E+03  0.00000000000E+00 0. -1.
          1   -1    0    0  501    0 -0.00000000000E+00 -0.00000000000E+00 -0.71878879789E+01  0.71878879789E+01  0.00000000000E+00 0. -1.
          2    1    1    2  501    0  0.18530887682E+02 -0.95792177488E+01  0.18296072338E+03  0.18414608742E+03  0.00000000000E+00 0. -1.
          1    1    1    2  502    0 -0.18530887682E+02  0.95792177488E+01  0.98999275327E+01  0.23090339454E+02  0.00000000000E+00 0. -1.
</event>
<event>
 4    1  0.8284550E+003  0.2438743E+02  0.7546771E-02  0.1475774E+00
          2   -1    0    0  502    0  0.00000000000E+00  0.00000000000E+00  0.66710642620E+03  0.66710642620E+03  0.00000000000E+00 0.  1.
          1   -1    0    0  501    0 -0.00000000000E+00 -0.00000000000E+00 -0.43085663915E+02  0.43085663915E+02  0.00000000000E+00 0. -1.
          2    1    1    2  501    0  0.16378635546E+02  0.18068946825E+02  0.66341338544E+03  0.66386148143E+03  0.00000000000E+00 0.  1.
          1    1    1    2  502    0 -0.16378635546E+02 -0.18068946825E+02 -0.39392623158E+02  0.46330608684E+02  0.00000000000E+00 0. -1.
</event>
<event>
 4    1  0.8284550E+003  0.2501019E+02  0.7546771E-02  0.1468689E+00
          2   -1    0    0  502    0  0.00000000000E+00  0.00000000000E+00  0.58681601572E+01  0.58681601572E+01  0.00000000000E+00 0.  1.
          1   -1    0    0  501    0 -0.00000000000E+00 -0.00000000000E+00 -0.31005219965E+03  0.31005219965E+03  0.00000000000E+00 0.  1.
          2    1    1    2  501    0 -0.11058273239E+02 -0.22432642646E+02 -0.28005022423E+03  0.28116478612E+03  0.00000000000E+00 0.  1.
          1    1    1    2  502    0  0.11058273239E+02  0.22432642646E+02 -0.24133815263E+02  0.34755573686E+02  0.00000000000E+00 0.  1.
</event>
<event>
 4    1  0.8284550E+003  0.2142368E+02  0.7546771E-02  0.1513301E+00
          2   -1    0    0  502    0  0.00000000000E+00  0.00000000000E+00  0.54931110640E+02  0.54931110640E+02  0.00000000000E+00 0.  1.
          1   -1    0    0  501    0 -0.00000000000E+00 -0.00000000000E+00 -0.32721147360E+02  0.32721147360E+02  0.00000000000E+00 0. -1.
          2    1    1    2  501    0  0.15058968560E+02  0.15238163137E+02  0.48923827706E+02  0.53408941829E+02  0.00000000000E+00 0.  1.
          1    1    1    2  502    0 -0.15058968560E+02 -0.15238163137E+02 -0.26713864426E+02  0.34243316172E+02  0.00000000000E+00 0. -1.
</event>
<event>
 4    1  0.8284550E+003  0.7850275E+02  0.7546771E-02  0.1207367E+00
          2   -1    0    0  502    0  0.00000000000E+00  0.00000000000E+00  0.14322723733E+02  0.14322723733E+02  0.00000000000E+00 0.  1.
          1   -1    0    0  501    0 -0.00000000000E+00 -0.00000000000E+00 -0.46072692716E+03  0.46072692716E+03  0.00000000000E+00 0.  1.
          2    1    1    2  501    0 -0.72044722724E+02  0.31180752199E+02 -0.16213478654E+03  0.18013986340E+03  0.00000000000E+00 0.  1.
          1    1    1    2  502    0  0.72044722724E+02 -0.31180752199E+02 -0.28426941689E+03  0.29490978749E+03  0.00000000000E+00 0.  1.
</event>
<event>
 4    1  0.8284550E+003  0.2161097E+02  0.7546771E-02  0.1510718E+00
          2   -1    0    0  502    0  0.00000000000E+00  0.00000000000E+00  0.11089384752E+03  0.11089384752E+03  0.00000000000E+00 0.  1.
          1   -1    0    0  501    0 -0.00000000000E+00 -0.00000000000E+00 -0.13172725979E+04  0.13172725979E+04  0.00000000000E+00 0. -1.
          2    1    1    2  501    0  0.21602802831E+02  0.59415752476E+00  0.10975141154E+03  0.11185886843E+03  0.00000000000E+00 0.  1.
          1    1    1    2  502    0 -0.21602802831E+02 -0.59415752476E+00 -0.13161301619E+04  0.13163075769E+04  0.00000000000E+00 0. -1.
</event>
<event>
 4    1  0.8284550E+003  0.2175652E+02  0.7546771E-02  0.1508732E+00
          2   -1    0    0  502    0  0.00000000000E+00  0.00000000000E+00  0.81949340637E+03  0.81949340637E+03  0.00000000000E+00 0.  1.
          1   -1    0    0  501    0 -0.00000000000E+00 -0.00000000000E+00 -0.11656877329E+02  0.11656877329E+02  0.00000000000E+00 0. -1.
          2    1    1    2  501    0 -0.92801503820E+01  0.19678035918E+02  0.80906654541E+03  0.80935901873E+03  0.00000000000E+00 0.  1.
          1    1    1    2  502    0  0.92801503820E+01 -0.19678035918E+02 -0.12300163738E+01  0.21791264969E+02  0.00000000000E+00 0. -1.
</event>
<event>
 4    1  0.8284550E+003  0.2930247E+02  0.7546771E-02  0.1425756E+00
          2   -1    0    0  502    0  0.00000000000E+00  0.00000000000E+00  0.45901092562E+01  0.45901092562E+01  0.00000000000E+00 0.  1.
          1   -1    0    0  501    0 -0.00000000000E+00 -0.00000000000E+00 -0.19082568069E+03  0.19082568069E+03  0.00000000000E+00 0. -1.
          2    1    1    2  501    0 -0.24101998091E+02 -0.16665168659E+02 -0.10684013382E+03  0.11078559633E+03  0.00000000000E+00 0.  1.
          1    1    1    2  502    0  0.24101998091E+02  0.16665168659E+02 -0.79395437609E+02  0.84630193616E+02  0.00000000000E+00 0. -1.
</event>
<event>
 4    1  0.8284550E+003  0.2138489E+02  0.7546771E-02  0.1513840E+00
          2   -1    0    0  502    0  0.00000000000E+00  0.00000000000E+00  0.50319459351E+02  0.50319459351E+02  0.00000000000E+00 0.  1.
          1   -1    0    0  501    0 -0.00000000000E+00 -0.00000000000E+00 -0.11229613973E+02  0.11229613973E+02  0.00000000000E+00 0.  1.
          2    1    1    2  501    0  0.18572915693E+02 -0.10600013392E+02  0.32983679076E+02  0.39309497155E+02  0.00000000000E+00 0.  1.
          1    1    1    2  502    0 -0.18572915693E+02  0.10600013392E+02  0.61061663027E+01  0.22239576169E+02  0.00000000000E+00 0.  1.
</event>
<event>
 4    1  0.8284550E+003  0.2327238E+02  0.7546771E-02  0.1489106E+00
          2   -1    0    0  502    0  0.00000000000E+00  0.00000000000E+00  0.40756186600E+02  0.40756186600E+02  0.00000000000E+00 0.  1.
          1   -1    0    0  501    0 -0.00000000000E+00 -0.00000000000E+00 -0.94388250798E+02  0.94388250798E+02  0.00000000000E+00 0. -1.
          2    1    1    2  501    0 -0.11401142459E+02 -0.20288359623E+02  0.35819098097E+02  0.42715469961E+02  0.00000000000E+00 0.  1.
          1    1    1    2  502    0  0.11401142459E+02  0.20288359623E+02 -0.89451162295E+02  0.92428967437E+02  0.00000000000E+00 0. -1.
</event>
<event>
 4    1  0.8284550E+003  0.2017777E+02  0.7546771E-02  0.1531335E+00
          2   -1    0    0  502    0  0.00000000000E+00  0.00000000000E+00  0.18695217301E+02  0.18695217301E+02  0.00000000000E+00 0. -1.
          1   -1    0    0  501    0 -0.00000000000E+00 -0.00000000000E+00 -0.29150664201E+02  0.29150664201E+02  0.00000000000E+00 0. -1.
          2    1    1    2  501    0 -0.44311839661E+01  0.19685196992E+02  0.68033901099E+01  0.21293860358E+02  0.00000000000E+00 0. -1.
          1    1    1    2  502    0  0.44311839661E+01 -0.19685196992E+02 -0.17258837009E+02  0.26552021145E+02  0.00000000000E+00 0. -1.
</event>
<event>
 4    1  0.8284550E+003  0.2691546E+02  0.7546771E-02  0.1448459E+00
          2   -1    0    0  502    0  0.00000000000E+00  0.00000000000E+00  0.16645156222E+04  0.16645156222E+04  0.00000000000E+00 0. -1.
          1   -1    0    0  501    0 -0.00000000000E+00 -0.00000000000E+00 -0.58165711877E+00  0.58165711877E+00  0.00000000000E+00 0.  1.
          2    1    1    2  501    0 -0.63335647272E+01  0.26159661802E+02  0.12496929475E+04  0.12499827619E+04  0.00000000000E+00 0. -1.
          1    1    1    2  502    0  0.63335647272E+01 -0.26159661802E+02  0.41424101760E+03  0.41511451746E+03  0.00000000000E+00 0.  1.
</event>
<event>
 4    1  0.8284550E+003  0.3990571E+02  0.7546771E-02  0.1349039E+00
          2   -1    0    0  502    0  0.00000000000E+00  0.00000000000E+00  0.26521213891E+04  0.26521213891E+04  0.00000000000E+00 0.  1.
          1   -1    0    0  501    0 -0.00000000000E+00 -0.00000000000E+00 -0.34554675721E+02  0.34554675721E+02  0.00000000000E+00 0.  1.
          2    1    1    2  501    0  0.48373075550E+01 -0.39611438964E+02  0.26403987811E+04  0.26407003217E+04  0.00000000000E+00 0.  1.
          1    1    1    2  502    0 -0.48373075550E+01  0.39611438964E+02 -0.22832067725E+02  0.45975743145E+02  0.00000000000E+00 0.  1.
</event>
<event>
 4    1  0.8284550E+003  0.7324923E+02  0.7546771E-02  0.1220451E+00
          2   -1    0    0  502    0  0.00000000000E+00  0.00000000000E+00  0.51223361546E+03  0.51223361546E+03  0.00000000000E+00 0.  1.
          1   -1    0    0  501    0 -0.00000000000E+00 -0.00000000000E+00 -0.62527290432E+02  0.62527290432E+02  0.00000000000E+00 0.  1.
          2    1    1    2  501    0 -0.85520968764E+01 -0.72748275827E+02  0.48705996100E+03  0.49253716165E+03  0.00000000000E+00 0.  1.
          1    1    1    2  502    0  0.85520968764E+01  0.72748275827E+02 -0.37353635972E+02  0.82223744242E+02  0.00000000000E+00 0.  1.
</event>
<event>
 4    1  0.8284550E+003  0.2243145E+02  0.7546771E-02  0.1499764E+00
          2   -1    0    0  502    0  0.00000000000E+00  0.00000000000E+00  0.17372571570E+01  0.17372571570E+01  0.00000000000E+00 0. -1.
          1   -1    0    0  501    0 -0.00000000000E+00 -0.00000000000E+00 -0.31512965046E+03  0.31512965046E+03  0.00000000000E+00 0. -1.
          2    1    1    2  501    0  0.20199068051E+02 -0.97553858131E+01 -0.11163221078E+03  0.11386360431E+03  0.00000000000E+00 0. -1.
          1    1    1    2  502    0 -0.20199068051E+02  0.97553858131E+01 -0.20176018252E+03  0.20300330331E+03  0.00000000000E+00 0. -1.
</event>
<event>
 4    1  0.8284550E+003  0.2055180E+02  0.7546771E-02  0.1525761E+00
          2   -1    0    0  502    0  0.00000000000E+00  0.00000000000E+00  0.14932460274E+03  0.14932460274E+03  0.00000000000E+00 0.  1.
          1   -1    0    0  501    0 -0.00000000000E+00 -0.00000000000E+00 -0.60900079274E+01  0.60900079274E+01  0.00000000000E+00 0. -1.
          2    1    1    2  501    0  0.16554827311E+02 -0.12178434750E+02  0.12848383875E+03  0.13011715260E+03  0.00000000000E+00 0.  1.
          1    1    1    2  502    0 -0.16554827311E+02  0.12178434750E+02  0.14750756056E+02  0.25297458063E+02  0.00000000000E+00 0. -1.
</event>
<event>
 4    1  0.8284550E+003  0.2936400E+02  0.7546771E-02  0.1425205E+00
          2   -1    0    0  502    0  0.00000000000E+00  0.00000000000E+00  0.72040480580E+01  0.72040480580E+01  0.00000000000E+00 0. -1.
          1   -1    0    0  501    0 -0.00000000000E+00 -0.00000000000E+00 -0.15533511467E+03  0.15533511467E+03  0.00000000000E+00 0.  1.
          2    1    1    2  501    0  0.17029128727E+02 -0.23921812500E+02 -0.35134124370E+02  0.45789202152E+02  0.00000000000E+00 0. -1.
          1    1    1    2  502    0 -0.17029128727E+02  0.23921812500E+02 -0.11299694224E+03  0.11674996057E+03  0.00000000000E+00 0.  1.
</event>
<event>
 4    1  0.8284550E+003  0.2217861E+02  0.7546771E-02  0.1503078E+00
          2   -1    0    0  502    0  0.00000000000E+00  0.00000000000E+00  0.37551757014E+03  0.37551757014E+03  0.00000000000E+00 0.  1.
          1   -1    0    0  501    0 -0.00000000000E+00 -0.00000000000E+00 -0.22701105583E+02  0.22701105583E+02  0.00000000000E+00 0. -1.
          2    1    1    2  501    0 -0.20261768499E+02 -0.90195165970E+01  0.36968770925E+03  0.37035239072E+03  0.00000000000E+00 0.  1.
          1    1    1    2  502    0  0.20261768499E+02  0.90195165970E+01 -0.16871244693E+02  0.27866285002E+02  0.00000000000E+00 0. -1.
</event>
<event>
 4    1  0.8284550E+003  0.3365887E+02  0.7546771E-02  0.1390245E+00
          2   -1    0    0  502    0  0.00000000000E+00  0.00000000000E+00  0.37608345101E+03  0.37608345101E+03  0.00000000000E+00 0. -1.
          1   -1    0    0  501    0 -0.00000000000E+00 -0.00000000000E+00 -0.15617080763E+02  0.15617080763E+02  0.00000000000E+00 0.  1.
          2    1    1    2  501    0  0.33290416096E+02 -0.49666281816E+01  0.35618344592E+03  0.35777027035E+03  0.00000000000E+00 0. -1.
          1    1    1    2  502    0 -0.33290416096E+02  0.49666281816E+01  0.42829243271E+01  0.33930261422E+02  0.00000000000E+00 0.  1.
</event>
<event>
 4    1  0.8284550E+003  0.2197252E+02  0.7546771E-02  0.1505820E+00
          2   -1    0    0  502    0  0.00000000000E+00  0.00000000000E+00  0.26748573372E+02  0.26748573372E+02  0.00000000000E+00 0. -1.
          1   -1    0    0  501    0 -0.00000000000E+00 -0.00000000000E+00 -0.53072547809E+03  0.53072547809E+03  0.00000000000E+00 0. -1.
          2    1    1    2  501    0 -0.65402244372E+01 -0.20976589730E+02  0.21967840474E+02  0.31070530531E+02  0.00000000000E+00 0. -1.
          1    1    1    2  502    0  0.65402244372E+01  0.20976589730E+02 -0.52594474520E+03  0.52640352093E+03  0.00000000000E+00 0. -1.
</event>
<event>
 4    1  0.8284550E+003  0.2786154E+02  0.7546771E-02  0.1439141E+00
          2   -1    0    0  502    0  0.00000000000E+00  0.00000000000E+00  0.20994382993E+03  0.20994382993E+03  0.00000000000E+00 0. -1.
          1   -1    0    0  501    0 -0.00000000000E+00 -0.00000000000E+00 -0.12845913928E+02  0.12845913928E+02  0.00000000000E+00 0.  1.
          2    1    1    2  501    0 -0.30159118407E+01  0.27697827548E+02  0.19255501062E+03  0.19456026699E+03  0.00000000000E+00 0. -1.
          1    1    1    2  502    0  0.30159118407E+01 -0.27697827548E+02  0.45429053810E+01  0.28229476871E+02  0.00000000000E+00 0.  1.
</event>
<event>
 4    1  0.1201668E+004  0.3589523E+02  0.7546771E-02  0.1374376E+00
          2   -1    0    0  502    0  0.00000000000E+00  0.00000000000E+00  0.62527902526E+03  0.62527902526E+03  0.00000000000E+00 0. -1.
          1   -1    0    0  501    0 -0.00000000000E+00 -0.00000000000E+00 -0.12482942694E+04  0.12482942694E+04  0.00000000000E+00 0. -1.
          2    1    1    2  501    0 -0.26471202542E+02  0.24243410460E+02  0.62450550325E+03  0.62553624284E+03  0.00000000000E+00 0. -1.
          1    1    1    2  502    0  0.26471202542E+02 -0.24243410460E+02 -0.12475207474E+04  0.12480370518E+04  0.00000000000E+00 0. -1.
</event>
<event>
 4    1  0.8284550E+003  0.4110573E+02  0.7546771E-02  0.1342125E+00
          2   -1    0    0  502    0  0.00000000000E+00  0.00000000000E+00  0.28984242732E+03  0.28984242732E+03  0.00000000000E+00 0.  1.
          1   -1    0    0  501    0 -0.00000000000E+00 -0.00000000000E+00 -0.47894405988E+02  0.47894405988E+02  0.00000000000E+00 0. -1.
          2    1    1    2  501    0 -0.18659270172E+02 -0.36626667922E+02  0.27923183840E+03  0.28224121022E+03  0.00000000000E+00 0.  1.
          1    1    1    2  502    0  0.18659270172E+02  0.36626667922E+02 -0.37283817074E+02  0.55495623089E+02  0.00000000000E+00 0. -1.
</event>
<event>
 4    1  0.8284550E+003  0.2285012E+02  0.7546771E-02  0.1494389E+00
          2   -1    0    0  502    0  0.00000000000E+00  0.00000000000E+00  0.28143497105E+03  0.28143497105E+03  0.00000000000E+00 0. -1.
          1   -1    0    0  501    0 -0.00000000000E+00 -0.00000000000E+00 -0.66194570436E+02  0.66194570436E+02  0.00000000000E+00 0. -1.
          2    1    1    2  501    0  0.20732859127E+02 -0.96060574237E+01  0.27898190895E+03  0.27991611835E+03  0.00000000000E+00 0. -1.
          1    1    1    2  502    0 -0.20732859127E+02  0.96060574237E+01 -0.63741508343E+02  0.67713423135E+02  0.00000000000E+00 0. -1.
</event>
<event>
 4    1  0.8284550E+003  0.2536650E+02  0.7546771E-02  0.1464745E+00
          2   -1    0    0  502    0  0.00000000000E+00  0.00000000000E+00  0.33585771922E+02  0.33585771922E+02  0.00000000000E+00 0.  1.
          1   -1    0    0  501    0 -0.00000000000E+00 -0.00000000000E+00 -0.22615756958E+02  0.22615756958E+02  0.00000000000E+00 0.  1.
          2    1    1    2  501    0  0.34169536117E-02 -0.25366498572E+02  0.16471693450E+02  0.30245263209E+02  0.00000000000E+00 0.  1.
          1    1    1    2  502    0 -0.34169536117E-02  0.25366498572E+02 -0.55016784861E+01  0.25956265672E+02  0.00000000000E+00 0.  1.
</event>
<event>
 4    1  0.8284550E+003  0.2563657E+02  0.7546771E-02  0.1461807E+00
          2   -1    0    0  502    0  0.00000000000E+00  0.00000000000E+00  0.64719850632E+03  0.64719850632E+03  0.00000000000E+00 0.  1.
          1   -1    0    0  501    0 -0.00000000000E+00 -0.00000000000E+00 -0.20978083890E+02  0.20978083890E+02  0.00000000000E+00 0.  1.
          2    1    1    2  501    0 -0.17984970258E+02 -0.18269500465E+02  0.63901194129E+03  0.63952599237E+03  0.00000000000E+00 0.  1.
          1    1    1    2  502    0  0.17984970258E+02  0.18269500465E+02 -0.12791518855E+02  0.28650597848E+02  0.00000000000E+00 0.  1.
</event>
<event>
 4    1  0.8284550E+003  0.2258547E+02  0.7546771E-02  0.1497770E+00
          2   -1    0    0  502    0  0.00000000000E+00  0.00000000000E+00  0.27463356170E+01  0.27463356170E+01  0.00000000000E+00 0. -1.
          1   -1    0    0  501    0 -0.00000000000E+00 -0.00000000000E+00 -0.47376489868E+03  0.47376489868E+03  0.00000000000E+00 0.  1.
          2    1    1    2  501    0 -0.20025288557E+02 -0.10444666509E+02 -0.49738658958E+02  0.54626343784E+02  0.00000000000E+00 0. -1.
          1    1    1    2  502    0  0.20025288557E+02  0.10444666509E+02 -0.42127990411E+03  0.42188489052E+03  0.00000000000E+00 0.  1.
</event>
<event>
 4    1  0.8284550E+003  0.2899501E+02  0.7546771E-02  0.1428535E+00
          2   -1    0    0  502    0  0.00000000000E+00  0.00000000000E+00  0.31459862492E+03  0.31459862492E+03  0.00000000000E+00 0. -1.
          1   -1    0    0  501    0 -0.00000000000E+00 -0.00000000000E+00 -0.59257506158E+01  0.59257506158E+01  0.00000000000E+00 0.  1.
          2    1    1    2  501    0  0.28994259208E+02  0.20904894595E+00  0.27308534145E+03  0.27462030967E+03  0.00000000000E+00 0. -1.
          1    1    1    2  502    0 -0.28994259208E+02 -0.20904894595E+00  0.35587532860E+02  0.45904065872E+02  0.00000000000E+00 0.  1.
</event>
<event>
 4    1  0.8284550E+003  0.2106643E+02  0.7546771E-02  0.1518318E+00
          2   -1    0    0  502    0  0.00000000000E+00  0.00000000000E+00  0.16343271162E+04  0.16343271162E+04  0.00000000000E+00 0.  1.
          1   -1    0    0  501    0 -0.00000000000E+00 -0.00000000000E+00 -0.13796683140E+01  0.13796683140E+01  0.00000000000E+00 0.  1.
          2    1    1    2  501    0  0.19213774545E+02  0.86385900049E+01  0.15494367019E+04  0.15495799068E+04  0.00000000000E+00 0.  1.
          1    1    1    2  502    0 -0.19213774545E+02 -0.86385900049E+01  0.83510746035E+02  0.86126877761E+02  0.00000000000E+00 0.  1.
</event>
<event>
 4    1  0.8284550E+003  0.2187709E+02  0.7546771E-02  0.1507101E+00
          2   -1    0    0  502    0  0.00000000000E+00  0.00000000000E+00  0.55104850422E+01  0.55104850422E+01  0.00000000000E+00 0. -1.
          1   -1    0    0  501    0 -0.00000000000E+00 -0.00000000000E+00 -0.95221975325E+03  0.95221975325E+03  0.00000000000E+00 0.  1.
          2    1    1    2  501    0 -0.17159087087E+02 -0.13571022183E+02 -0.16850728903E+02  0.27614379901E+02  0.00000000000E+00 0. -1.
          1    1    1    2  502    0  0.17159087087E+02  0.13571022183E+02 -0.92985853930E+03  0.93011585839E+03  0.00000000000E+00 0.  1.
</event>
<event>
 4    1  0.8284550E+003  0.3668352E+02  0.7546771E-02  0.1369099E+00
          2   -1    0    0  502    0  0.00000000000E+00  0.00000000000E+00  0.12851206932E+04  0.12851206932E+04  0.00000000000E+00 0. -1.
          1   -1    0    0  501    0 -0.00000000000E+00 -0.00000000000E+00 -0.10067589091E+02  0.10067589091E+02  0.00000000000E+00 0.  1.
          2    1    1    2  501    0 -0.18538995763E+02 -0.31654163936E+02  0.12505183171E+04  0.12510562505E+04  0.00000000000E+00 0. -1.
          1    1    1    2  502    0  0.18538995763E+02  0.31654163936E+02  0.24534787011E+02  0.44132031815E+02  0.00000000000E+00 0.  1.
</event>
<event>
 4    1  0.8284550E+003  0.4178289E+02  0.7546771E-02  0.1338343E+00
          2   -1    0    0  502    0  0.00000000000E+00  0.00000000000E+00  0.99632656447E+01  0.99632656447E+01  0.00000000000E+00 0. -1.
          1   -1    0    0  501    0 -0.00000000000E+00 -0.00000000000E+00 -0.39745438202E+03  0.39745438202E+03  0.00000000000E+00 0. -1.
          2    1    1    2  501    0 -0.39866948787E+02 -0.12507388474E+02 -0.34606923404E+03  0.34858244810E+03  0.00000000000E+00 0. -1.
          1    1    1    2  502    0  0.39866948787E+02  0.12507388474E+02 -0.41421882335E+02  0.58835199568E+02  0.00000000000E+00 0. -1.
</event>
<event>
 4    1  0.8284550E+003  0.2615321E+02  0.7546771E-02  0.1456305E+00
          2   -1    0    0  502    0  0.00000000000E+00  0.00000000000E+00  0.13503532785E+04  0.13503532785E+04  0.00000000000E+00 0.  1.
          1   -1    0    0  501    0 -0.00000000000E+00 -0.00000000000E+00 -0.69930621713E+01  0.69930621713E+01  0.00000000000E+00 0.  1.
          2    1    1    2  501    0  0.22327215437E+02  0.13619320225E+02  0.13253122104E+04  0.13255702341E+04  0.00000000000E+00 0.  1.
          1    1    1    2  502    0 -0.22327215437E+02 -0.13619320225E+02  0.18048005936E+02  0.31776106603E+02  0.00000000000E+00 0.  1.
</event>
<event>
 4    1  0.8284550E+003  0.2289919E+02  0.7546771E-02  0.1493768E+00
          2   -1    0    0  502    0  0.00000000000E+00  0.00000000000E+00  0.10532648461E+03  0.10532648461E+03  0.00000000000E+00 0. -1.
          1   -1    0    0  501    0 -0.00000000000E+00 -0.00000000000E+00 -0.14491536511E+02  0.14491536511E+02  0.00000000000E+00 0. -1.
          2    1    1    2  501    0  0.21708911540E+02  0.72867084630E+01  0.93956763570E+02  0.96707013092E+02  0.00000000000E+00 0. -1.
          1    1    1    2  502    0 -0.21708911540E+02 -0.72867084630E+01 -0.31218154676E+01  0.23111008033E+02  0.00000000000E+00 0. -1.
</event>
<event>
 4    1  0.8284550E+003  0.2054527E+02  0.7546771E-02  0.1525857E+00
          2   -1    0    0  502    0  0.00000000000E+00  0.00000000000E+00  0.70466689737E+03  0.70466689737E+03  0.00000000000E+00 0. -1.
          1   -1    0    0  501    0 -0.00000000000E+00 -0.00000000000E+00 -0.20437522979E+03  0.20437522979E+03  0.00000000000E+00 0. -1.
          2    1    1    2  501    0 -0.18036628651E+02  0.98380954092E+01  0.70400031450E+03  0.70430004324E+03  0.00000000000E+00 0. -1.
          1    1    1    2  502    0  0.18036628651E+02 -0.98380954092E+01 -0.20370864692E+03  0.20474208391E+03  0.00000000000E+00 0. -1.
</event>
<event>
 4    1  0.8284550E+003  0.2407438E+02  0.7546771E-02  0.1479430E+00
          2   -1    0    0  502    0  0.00000000000E+00  0.00000000000E+00  0.56009231437E+03  0.56009231437E+03  0.00000000000E+00 0. -1.
          1   -1    0    0  501    0 -0.00000000000E+00 -0.00000000000E+00 -0.15428732582E+02  0.15428732582E+02  0.00000000000E+00 0.  1.
          2    1    1    2  501    0 -0.23423923289E+02 -0.55584015404E+01  0.55027497187E+03  0.55080134411E+03  0.00000000000E+00 0. -1.
          1    1    1    2  502    0  0.23423923289E+02  0.55584015404E+01 -0.56113900793E+01  0.24719702842E+02  0.00000000000E+00 0.  1.
</event>
<event>
 4    1  0.8284550E+003  0.2974161E+02  0.7546771E-02  0.1421855E+00
          2   -1    0    0  502    0  0.00000000000E+00  0.00000000000E+00  0.15663987596E+02  0.15663987596E+02  0.00000000000E+00 0.  1.
          1   -1    0    0  501    0 -0.00000000000E+00 -0.00000000000E+00 -0.26338574119E+03  0.26338574119E+03  0.00000000000E+00 0.  1.
          2    1    1    2  501    0 -0.72226432473E+01  0.28851289761E+02 -0.19467259323E+00  0.29742249306E+02  0.00000000000E+00 0.  1.
          1    1    1    2  502    0  0.72226432473E+01 -0.28851289761E+02 -0.24752708100E+03  0.24930747948E+03  0.00000000000E+00 0.  1.
</event>
<event>
 4    1  0.8284550E+003  0.2977196E+02  0.7546771E-02  0.1421589E+00
          2   -1    0    0  502    0  0.00000000000E+00  0.00000000000E+00  0.22420732567E+03  0.22420732567E+03  0.00000000000E+00 0. -1.
          1   -1    0    0  501    0 -0.00000000000E+00 -0.00000000000E+00 -0.32736234606E+02  0.32736234606E+02  0.00000000000E+00 0. -1.
          2    1    1    2  501    0 -0.21543679180E+02 -0.20548470224E+02  0.21620045198E+03  0.21824070467E+03  0.00000000000E+00 0. -1.
          1    1    1    2  502    0  0.21543679180E+02  0.20548470224E+02 -0.24729360909E+02  0.38702855607E+02  0.00000000000E+00 0. -1.
</event>
<event>
 4    1  0.8284550E+003  0.2738495E+02  0.7546771E-02  0.1443779E+00
          2   -1    0    0  502    0  0.00000000000E+00  0.00000000000E+00  0.10934348752E+02  0.10934348752E+02  0.00000000000E+00 0.  1.
          1   -1    0    0  501    0 -0.00000000000E+00 -0.00000000000E+00 -0.57321516418E+03  0.57321516418E+03  0.00000000000E+00 0. -1.
          2    1    1    2  501    0 -0.18896854659E+01  0.27319668990E+02 -0.70955378692E+01  0.28289253835E+02  0.00000000000E+00 0.  1.
          1    1    1    2  502    0  0.18896854659E+01 -0.27319668990E+02 -0.55518527755E+03  0.55586025909E+03  0.00000000000E+00 0. -1.
</event>
<event>
 4    1  0.8284550E+003  0.2693900E+02  0.7546771E-02  0.1448222E+00
          2   -1    0    0  502    0  0.00000000000E+00  0.00000000000E+00  0.18902899632E+04  0.18902899632E+04  0.00000000000E+00 0.  1.
          1   -1    0    0  501    0 -0.00000000000E+00 -0.00000000000E+00 -0.30057823071E+02  0.30057823071E+02  0.00000000000E+00 0.  1.
          2    1    1    2  501    0 -0.22884340129E+02  0.14213253921E+02  0.18841383323E+04  0.18843309064E+04  0.00000000000E+00 0.  1.
          1    1    1    2  502    0  0.22884340129E+02 -0.14213253921E+02 -0.23906192176E+02  0.36016879855E+02  0.00000000000E+00 0.  1.
</event>
<event>
 4    1  0.8284550E+003  0.2109322E+02  0.7546771E-02  0.1517938E+00
          2   -1    0    0  502    0  0.00000000000E+00  0.00000000000E+00  0.31888302207E+03  0.31888302207E+03  0.00000000000E+00 0. -1.
          1   -1    0    0  501    0 -0.00000000000E+00 -0.00000000000E+00 -0.54415973891E+02  0.54415973891E+02  0.00000000000E+00 0.  1.
          2    1    1    2  501    0  0.20040380616E+02  0.65808025467E+01  0.31647458265E+03  0.31717674139E+03  0.00000000000E+00 0. -1.
          1    1    1    2  502    0 -0.20040380616E+02 -0.65808025467E+01 -0.52007534464E+02  0.56122254574E+02  0.00000000000E+00 0.  1.
</event>
<event>
 4    1  0.8284550E+003  0.2370657E+02  0.7546771E-02  0.1483811E+00
          2   -1    0    0  502    0  0.00000000000E+00  0.00000000000E+00  0.21349698048E+03  0.21349698048E+03  0.00000000000E+00 0. -1.
          1   -1    0    0  501    0 -0.00000000000E+00 -0.00000000000E+00 -0.50292930670E+02  0.50292930670E+02  0.00000000000E+00 0. -1.
          2    1    1    2  501    0 -0.15512947728E+02  0.17926234852E+02  0.20999886092E+03  0.21133273062E+03  0.00000000000E+00 0. -1.
          1    1    1    2  502    0  0.15512947728E+02 -0.17926234852E+02 -0.46794811106E+02  0.52457180535E+02  0.00000000000E+00 0. -1.
</event>
<event>
 4    1  0.8284550E+003  0.2136491E+02  0.7546771E-02  0.1514118E+00
          2   -1    0    0  502    0  0.00000000000E+00  0.00000000000E+00  0.63938652885E+03  0.63938652885E+03  0.00000000000E+00 0. -1.
          1   -1    0    0  501    0 -0.00000000000E+00 -0.00000000000E+00 -0.57635654244E+01  0.57635654244E+01  0.00000000000E+00 0.  1.
          2    1    1    2  501    0  0.97467107598E+01 -0.19012122614E+02  0.61874851357E+03  0.61911726048E+03  0.00000000000E+00 0. -1.
          1    1    1    2  502    0 -0.97467107598E+01  0.19012122614E+02  0.14874449854E+02  0.26032833794E+02  0.00000000000E+00 0.  1.
</event>
<event>
 4    1  0.8284550E+003  0.2670507E+02  0.7546771E-02  0.1450593E+00
          2   -1    0    0  502    0  0.00000000000E+00  0.00000000000E+00  0.10018766403E+02  0.10018766403E+02  0.00000000000E+00 0. -1.
          1   -1    0    0  501    0 -0.00000000000E+00 -0.00000000000E+00 -0.19282892387E+03  0.19282892387E+03  0.00000000000E+00 0. -1.
          2    1    1    2  501    0  0.26297561526E+02 -0.46474763094E+01 -0.10848007857E+02  0.28824296222E+02  0.00000000000E+00 0. -1.
          1    1    1    2  502    0 -0.26297561526E+02  0.46474763094E+01 -0.17196214961E+03  0.17402339405E+03  0.00000000000E+00 0. -1.
</event>
<event>
 4    1  0.8284550E+003  0.2875271E+02  0.7546771E-02  0.1430754E+00
          2   -1    0    0  502    0  0.00000000000E+00  0.00000000000E+00  0.11442112719E+04  0.11442112719E+04  0.00000000000E+00 0. -1.
          1   -1    0    0  501    0 -0.00000000000E+00 -0.00000000000E+00 -0.24428344369E+01  0.24428344369E+01  0.00000000000E+00 0.  1.
          2    1    1    2  501    0 -0.25806255432E+02 -0.12678937837E+02  0.10520104451E+04  0.10524032948E+04  0.00000000000E+00 0. -1.
          1    1    1    2  502    0  0.25806255432E+02  0.12678937837E+02  0.89757992340E+02  0.94250811525E+02  0.00000000000E+00 0.  1.
</event>
<event>
 4    1  0.8284550E+003  0.2632655E+02  0.7546771E-02  0.1454493E+00
          2   -1    0    0  502    0  0.00000000000E+00  0.00000000000E+00  0.18872482632E+03  0.18872482632E+03  0.00000000000E+00 0.  1.
          1   -1    0    0  501    0 -0.00000000000E+00 -0.00000000000E+00 -0.45020254368E+01  0.45020254368E+01  0.00000000000E+00 0. -1.
          2    1    1    2  501    0  0.67452309470E+01  0.25447767171E+02  0.13358342168E+03  0.13615291970E+03  0.00000000000E+00 0.  1.
          1    1    1    2  502    0 -0.67452309470E+01 -0.25447767171E+02  0.50639379200E+02  0.57073932056E+02  0.00000000000E+00 0. -1.
</event>
<event>
 4    1  0.8284550E+003  0.2160241E+02  0.7546771E-02  0.1510835E+00
          2   -1    0    0  502    0  0.00000000000E+00  0.00000000000E+00  0.47441521297E+02  0.47441521297E+02  0.00000000000E+00 0. -1.
          1   -1    0    0  501    0 -0.00000000000E+00 -0.00000000000E+00 -0.53745526959E+03  0.53745526959E+03  0.00000000000E+00 0.  1.
          2    1    1    2  501    0  0.44236418851E+01 -0.21144630649E+02  0.44752937721E+02  0.49693957857E+02  0.00000000000E+00 0. -1.
          1    1    1    2  502    0 -0.44236418851E+01  0.21144630649E+02 -0.53476668601E+03  0.53520283303E+03  0.00000000000E+00 0.  1.
</event>
<event>
 4    1  0.8284550E+003  0.2294755E+02  0.7546771E-02  0.1493158E+00
          2   -1    0    0  502    0  0.00000000000E+00  0.00000000000E+00  0.30131627320E+02  0.30131627320E+02  0.00000000000E+00 0.  1.
          1   -1    0    0  501    0 -0.00000000000E+00 -0.00000000000E+00 -0.33050467576E+02  0.33050467576E+02  0.00000000000E+00 0. -1.
          2    1    1    2  501    0  0.14529117396E+02 -0.17762166888E+02  0.20226478720E+02  0.30589218138E+02  0.00000000000E+00 0.  1.
          1    1    1    2  502    0 -0.14529117396E+02  0.17762166888E+02 -0.23145318976E+02  0.32592876758E+02  0.00000000000E+00 0. -1.
</event>
<event>
 4    1  0.8284550E+003  0.3580704E+02  0.7546771E-02  0.1374977E+00
          2   -1    0    0  502    0  0.00000000000E+00  0.00000000000E+00  0.12512495246E+02  0.12512495246E+02  0.00000000000E+00 0.  1.
          1   -1    0    0  501    0 -0.00000000000E+00 -0.00000000000E+00 -0.41644776256E+03  0.41644776256E+03  0.00000000000E+00 0. -1.
          2    1    1    2  501    0  0.33081763966E+02 -0.13701866246E+02 -0.15734540548E+02  0.39111635251E+02  0.00000000000E+00 0.  1.
          1    1    1    2  502    0 -0.33081763966E+02  0.13701866246E+02 -0.38820072677E+03  0.38984862256E+03  0.00000000000E+00 0. -1.
</event>
<event>
 4    1  0.8284550E+003  0.2378341E+02  0.7546771E-02  0.1482888E+00
          2   -1    0    0  502    0  0.00000000000E+00  0.00000000000E+00  0.19494577945E+02  0.19494577945E+02  0.00000000000E+00 0. -1.
          1   -1    0    0  501    0 -0.00000000000E+00 -0.00000000000E+00 -0.36008975091E+02  0.36008975091E+02  0.00000000000E+00 0. -1.
          2    1    1    2  501    0 -0.22503531715E+02 -0.76968595062E+01  0.39727015728E+01  0.24112920679E+02  0.00000000000E+00 0. -1.
          1    1    1    2  502    0  0.22503531715E+02  0.76968595062E+01 -0.20487098718E+02  0.31390632357E+02  0.00000000000E+00 0. -1.
</event>
<event>
 4    1  0.8284550E+003  0.3544482E+02  0.7546771E-02  0.1377463E+00
          2   -1    0    0  502    0  0.00000000000E+00  0.00000000000E+00  0.53459764395E+01  0.53459764395E+01  0.00000000000E+00 0.  1.
          1   -1    0    0  501    0 -0.00000000000E+00 -0.00000000000E+00 -0.23263497900E+04  0.23263497900E+04  0.00000000000E+00 0.  1.
          2    1    1    2  501    0 -0.35037739338E+02 -0.53564699729E+01 -0.55107845403E+02  0.65522588269E+02  0.00000000000E+00 0.  1.
          1    1    1    2  502    0  0.35037739338E+02  0.53564699729E+01 -0.22658959682E+04  0.22661731782E+04  0.00000000000E+00 0.  1.
</event>
<event>
 4    1  0.8284550E+003  0.2025681E+02  0.7546771E-02  0.1530145E+00
          2   -1    0    0  502    0  0.00000000000E+00  0.00000000000E+00  0.73477081847E+01  0.73477081847E+01  0.00000000000E+00 0.  1.
          1   -1    0    0  501    0 -0.00000000000E+00 -0.00000000000E+00 -0.58980461357E+03  0.58980461357E+03  0.00000000000E+00 0. -1.
          2    1    1    2  501    0  0.18725102888E+02  0.77271641041E+01 -0.71391164953E+01  0.21478024294E+02  0.00000000000E+00 0.  1.
          1    1    1    2  502    0 -0.18725102888E+02 -0.77271641041E+01 -0.57531778889E+03  0.57567429746E+03  0.00000000000E+00 0. -1.
</event>
<event>
 4    1  0.8284550E+003  0.3128430E+02  0.7546771E-02  0.1408755E+00
          2   -1    0    0  502    0  0.00000000000E+00  0.00000000000E+00  0.69759042354E+03  0.69759042354E+03  0.00000000000E+00 0. -1.
          1   -1    0    0  501    0 -0.00000000000E+00 -0.00000000000E+00 -0.59457088216E+01  0.59457088216E+01  0.00000000000E+00 0. -1.
          2    1    1    2  501    0  0.19754642535E+02  0.24258231730E+02  0.65329950368E+03  0.65404812454E+03  0.00000000000E+00 0. -1.
          1    1    1    2  502    0 -0.19754642535E+02 -0.24258231730E+02  0.38345211038E+02  0.49488007819E+02  0.00000000000E+00 0. -1.
</event>
<event>
 4    1  0.8284550E+003  0.3365812E+02  0.7546771E-02  0.1390251E+00
          2   -1    0    0  502    0  0.00000000000E+00  0.00000000000E+00  0.36976447351E+03  0.36976447351E+03  0.00000000000E+00 0.  1.
          1   -1    0    0  501    0 -0.00000000000E+00 -0.00000000000E+00 -0.16194264424E+02  0.16194264424E+02  0.00000000000E+00 0. -1.
          2    1    1    2  501    0  0.27750541128E+02 -0.19046693804E+02  0.35055358264E+03  0.35216570443E+03  0.00000000000E+00 0.  1.
          1    1    1    2  502    0 -0.27750541128E+02  0.19046693804E+02  0.30166264425E+01  0.33793033496E+02  0.00000000000E+00 0. -1.
</event>
<event>
 4    1  0.8284550E+003  0.2044750E+02  0.7546771E-02  0.1527301E+00
          2   -1    0    0  502    0  0.00000000000E+00  0.00000000000E+00  0.11317893112E+03  0.11317893112E+03  0.00000000000E+00 0.  1.
          1   -1    0    0  501    0 -0.00000000000E+00 -0.00000000000E+00 -0.66895261476E+02  0.66895261476E+02  0.00000000000E+00 0. -1.
          2    1    1    2  501    0 -0.18086747132E+02  0.95378188203E+01  0.11065757026E+03  0.11253087694E+03  0.00000000000E+00 0.  1.
          1    1    1    2  502    0  0.18086747132E+02 -0.95378188203E+01 -0.64373900613E+02  0.67543315656E+02  0.00000000000E+00 0. -1.
</event>
<event>
 4    1  0.8284550E+003  0.2622426E+02  0.7546771E-02  0.1455560E+00
          2   -1    0    0  502    0  0.00000000000E+00  0.00000000000E+00  0.31376248069E+01  0.31376248069E+01  0.00000000000E+00 0. -1.
          1   -1    0    0  501    0 -0.00000000000E+00 -0.00000000000E+00 -0.52809251243E+03  0.52809251243E+03  0.00000000000E+00 0. -1.
          2    1    1    2  501    0 -0.12377064694E+02  0.23119691110E+02 -0.59328844755E+02  0.64866198188E+02  0.00000000000E+00 0. -1.
          1    1    1    2  502    0  0.12377064694E+02 -0.23119691110E+02 -0.46562604287E+03  0.46636393905E+03  0.00000000000E+00 0. -1.
</event>
<event>
 4    1  0.8284550E+003  0.2149540E+02  0.7546771E-02  0.1512308E+00
          2   -1    0    0  502    0  0.00000000000E+00  0.00000000000E+00  0.18792626927E+01  0.18792626927E+01  0.00000000000E+00 0.  1.
          1   -1    0    0  501    0 -0.00000000000E+00 -0.00000000000E+00 -0.39225932759E+03  0.39225932759E+03  0.00000000000E+00 0. -1.
          2    1    1    2  501    0 -0.19925246201E+02 -0.80645439754E+01 -0.74800529877E+02  0.77827832911E+02  0.00000000000E+00 0.  1.
          1    1    1    2  502    0  0.19925246201E+02  0.80645439754E+01 -0.31557953502E+03  0.31631075737E+03  0.00000000000E+00 0. -1.
</event>
<event>
 4    1  0.8284550E+003  0.2392594E+02  0.7546771E-02  0.1481187E+00
          2   -1    0    0  502    0  0.00000000000E+00  0.00000000000E+00  0.23171494000E+03  0.23171494000E+03  0.00000000000E+00 0. -1.
          1   -1    0    0  501    0 -0.00000000000E+00 -0.00000000000E+00 -0.79754534488E+01  0.79754534488E+01  0.00000000000E+00 0. -1.
          2    1    1    2  501    0 -0.23877292762E+02  0.15249956517E+01  0.21143777969E+03  0.21278718336E+03  0.00000000000E+00 0. -1.
          1    1    1    2  502    0  0.23877292762E+02 -0.15249956517E+01  0.12301706858E+02  0.26903210087E+02  0.00000000000E+00 0. -1.
</event>
<event>
 4    1  0.8284550E+003  0.2342921E+02  0.7546771E-02  0.1487178E+00
          2   -1    0    0  502    0  0.00000000000E+00  0.00000000000E+00  0.27059924317E+02  0.27059924317E+02  0.00000000000E+00 0. -1.
          1   -1    0    0  501    0 -0.00000000000E+00 -0.00000000000E+00 -0.17339014492E+03  0.17339014492E+03  0.00000000000E+00 0. -1.
          2    1    1    2  501    0  0.23029403479E+02 -0.43098049519E+01  0.21014740254E+02  0.31472959049E+02  0.00000000000E+00 0. -1.
          1    1    1    2  502    0 -0.23029403479E+02  0.43098049519E+01 -0.16734496085E+03  0.16897711018E+03  0.00000000000E+00 0. -1.
</event>
<event>
 4    1  0.8284550E+003  0.2742681E+02  0.7546771E-02  0.1443367E+00
          2   -1    0    0  502    0  0.00000000000E+00  0.00000000000E+00  0.11377405277E+01  0.11377405277E+01  0.00000000000E+00 0. -1.
          1   -1    0    0  501    0 -0.00000000000E+00 -0.00000000000E+00 -0.12427043104E+04  0.12427043104E+04  0.00000000000E+00 0.  1.
          2    1    1    2  501    0 -0.17806277326E+02 -0.20860643624E+02 -0.19533941461E+03  0.19725546092E+03  0.00000000000E+00 0. -1.
          1    1    1    2  502    0  0.17806277326E+02  0.20860643624E+02 -0.10462271552E+04  0.10465865900E+04  0.00000000000E+00 0.  1.
</event>
<event>
 4    1  0.8284550E+003  0.2105288E+02  0.7546771E-02  0.1518511E+00
          2   -1    0    0  502    0  0.00000000000E+00  0.00000000000E+00  0.10194497487E+04  0.10194497487E+04  0.00000000000E+00 0.  1.
          1   -1    0    0  501    0 -0.00000000000E+00 -0.00000000000E+00 -0.75905719275E+02  0.75905719275E+02  0.00000000000E+00 0.  1.
          2    1    1    2  501    0 -0.20753371707E+02  0.35385271403E+01  0.10178790211E+04  0.10180967170E+04  0.00000000000E+00 0.  1.
          1    1    1    2  502    0  0.20753371707E+02 -0.35385271403E+01 -0.74334991676E+02  0.77258750954E+02  0.00000000000E+00 0.  1.
</event>
<event>
 4    1  0.8284550E+003  0.4021608E+02  0.7546771E-02  0.1347224E+00
          2   -1    0    0  502    0  0.00000000000E+00  0.00000000000E+00  0.18106665226E+04  0.18106665226E+04  0.00000000000E+00 0.  1.
          1   -1    0    0  501    0 -0.00000000000E+00 -0.00000000000E+00 -0.42418624133E+01  0.42418624133E+01  0.00000000000E+00 0.  1.
          2    1    1    2  501    0 -0.79753417830E+01 -0.39417343485E+02  0.17094822719E+04  0.17099552541E+04  0.00000000000E+00 0.  1.
          1    1    1    2  502    0  0.79753417830E+01  0.39417343485E+02  0.96942388268E+02  0.10495313091E+03  0.00000000000E+00 0.  1.
</event>
<event>
 4    1  0.8284550E+003  0.2090398E+02  0.7546771E-02  0.1520640E+00
          2   -1    0    0  502    0  0.00000000000E+00  0.00000000000E+00  0.80110580682E+03  0.80110580682E+03  0.00000000000E+00 0.  1.
          1   -1    0    0  501    0 -0.00000000000E+00 -0.00000000000E+00 -0.22953029381E+03  0.22953029381E+03  0.00000000000E+00 0. -1.
          2    1    1    2  501    0  0.20731186099E+01  0.20800925650E+02  0.80049312974E+03  0.80076602519E+03  0.00000000000E+00 0.  1.
          1    1    1    2  502    0 -0.20731186099E+01 -0.20800925650E+02 -0.22891761674E+03  0.22987007544E+03  0.00000000000E+00 0. -1.
</event>
<event>
 4    1  0.8284550E+003  0.2415312E+02  0.7546771E-02  0.1478505E+00
          2   -1    0    0  502    0  0.00000000000E+00  0.00000000000E+00  0.44767006884E+03  0.44767006884E+03  0.00000000000E+00 0.  1.
          1   -1    0    0  501    0 -0.00000000000E+00 -0.00000000000E+00 -0.46498503376E+02  0.46498503376E+02  0.00000000000E+00 0.  1.
          2    1    1    2  501    0  0.22675408163E+02 -0.83185938687E+01  0.44418316626E+03  0.44483936239E+03  0.00000000000E+00 0.  1.
          1    1    1    2  502    0 -0.22675408163E+02  0.83185938687E+01 -0.43011600797E+02  0.49329209829E+02  0.00000000000E+00 0.  1.
</event>
<event>
 4    1  0.8284550E+003  0.2776359E+02  0.7546771E-02  0.1440085E+00
          2   -1    0    0  502    0  0.00000000000E+00  0.00000000000E+00  0.42921507798E+02  0.42921507798E+02  0.00000000000E+00 0. -1.
          1   -1    0    0  501    0 -0.00000000000E+00 -0.00000000000E+00 -0.33850580838E+03  0.33850580838E+03  0.00000000000E+00 0. -1.
          2    1    1    2  501    0 -0.15553612861E+01  0.27719984408E+02  0.37793601665E+02  0.46895341039E+02  0.00000000000E+00 0. -1.
          1    1    1    2  502    0  0.15553612861E+01 -0.27719984408E+02 -0.33337790225E+03  0.33453197514E+03  0.00000000000E+00 0. -1.
</event>
<event>
 4    1  0.8284550E+003  0.4982466E+02  0.7546771E-02  0.1298934E+00
          2   -1    0    0  502    0  0.00000000000E+00  0.00000000000E+00  0.23458361474E+03  0.23458361474E+03  0.00000000000E+00 0. -1.
          1   -1    0    0  501    0 -0.00000000000E+00 -0.00000000000E+00 -0.67126635571E+03  0.67126635571E+03  0.00000000000E+00 0.  1.
          2    1    1    2  501    0  0.49609944854E+02 -0.46205654598E+01  0.23099923338E+03  0.23631153606E+03  0.00000000000E+00 0. -1.
          1    1    1    2  502    0 -0.49609944854E+02  0.46205654598E+01 -0.66768197435E+03  0.66953843439E+03  0.00000000000E+00 0.  1.
</event>
<event>
 4    1  0.8284550E+003  0.3154408E+02  0.7546771E-02  0.1406637E+00
          2   -1    0    0  502    0  0.00000000000E+00  0.00000000000E+00  0.99033401026E+03  0.99033401026E+03  0.00000000000E+00 0.  1.
          1   -1    0    0  501    0 -0.00000000000E+00 -0.00000000000E+00 -0.15221014224E+03  0.15221014224E+03  0.00000000000E+00 0.  1.
          2    1    1    2  501    0  0.11291143844E+02 -0.29454012028E+02  0.98844540228E+03  0.98894860434E+03  0.00000000000E+00 0.  1.
          1    1    1    2  502    0 -0.11291143844E+02  0.29454012028E+02 -0.15032153425E+03  0.15359554816E+03  0.00000000000E+00 0.  1.
</event>
<event>
 4    1  0.8284550E+003  0.2869604E+02  0.7546771E-02  0.1431277E+00
          2   -1    0    0  502    0  0.00000000000E+00  0.00000000000E+00  0.20589107667E+04  0.20589107667E+04  0.00000000000E+00 0. -1.
          1   -1    0    0  501    0 -0.00000000000E+00 -0.00000000000E+00 -0.15645231859E+01  0.15645231859E+01  0.00000000000E+00 0. -1.
          2    1    1    2  501    0 -0.23790398487E+02 -0.16046177111E+02  0.19175255650E+04  0.19177402732E+04  0.00000000000E+00 0. -1.
          1    1    1    2  502    0  0.23790398487E+02  0.16046177111E+02  0.13982067845E+03  0.14273501666E+03  0.00000000000E+00 0. -1.
</event>
<event>
 4    1  0.8284550E+003  0.2066252E+02  0.7546771E-02  0.1524138E+00
          2   -1    0    0  502    0  0.00000000000E+00  0.00000000000E+00  0.33175537510E+03  0.33175537510E+03  0.00000000000E+00 0.  1.
          1   -1    0    0  501    0 -0.00000000000E+00 -0.00000000000E+00 -0.13822845378E+03  0.13822845378E+03  0.00000000000E+00 0.  1.
          2    1    1    2  501    0  0.20113342563E+02 -0.47321553843E+01  0.33065892577E+03  0.33130388624E+03  0.00000000000E+00 0.  1.
          1    1    1    2  502    0 -0.20113342563E+02  0.47321553843E+01 -0.13713200446E+03  0.13867994264E+03  0.00000000000E+00 0.  1.
</event>
<event>
 4    1  0.8284550E+003  0.2183949E+02  0.7546771E-02  0.1507608E+00
          2   -1    0    0  502    0  0.00000000000E+00  0.00000000000E+00  0.12678408083E+01  0.12678408083E+01  0.00000000000E+00 0. -1.
          1   -1    0    0  501    0 -0.00000000000E+00 -0.00000000000E+00 -0.45077819307E+03  0.45077819307E+03  0.00000000000E+00 0. -1.
          2    1    1    2  501    0  0.11921684731E+02  0.18298551108E+02 -0.13282185489E+03  0.13460538130E+03  0.00000000000E+00 0. -1.
          1    1    1    2  502    0 -0.11921684731E+02 -0.18298551108E+02 -0.31668849738E+03  0.31744065258E+03  0.00000000000E+00 0. -1.
</event>
<event>
 4    1  0.8284550E+003  0.3117295E+02  0.7546771E-02  0.1409670E+00
          2   -1    0    0  502    0  0.00000000000E+00  0.00000000000E+00  0.11673487287E+04  0.11673487287E+04  0.00000000000E+00 0.  1.
          1   -1    0    0  501    0 -0.00000000000E+00 -0.00000000000E+00 -0.35773637693E+01  0.35773637693E+01  0.00000000000E+00 0.  1.
          2    1    1    2  501    0 -0.28913849767E+02  0.11650833527E+02  0.10947266973E+04  0.10951704408E+04  0.00000000000E+00 0.  1.
          1    1    1    2  502    0  0.28913849767E+02 -0.11650833527E+02  0.69044667580E+02  0.75755651614E+02  0.00000000000E+00 0.  1.
</event>
<event>
 4    1  0.8284550E+003  0.3787788E+02  0.7546771E-02  0.1361391E+00
          2   -1    0    0  502    0  0.00000000000E+00  0.00000000000E+00  0.13163453453E+02  0.13163453453E+02  0.00000000000E+00 0.  1.
          1   -1    0    0  501    0 -0.00000000000E+00 -0.00000000000E+00 -0.15202119965E+04  0.15202119965E+04  0.00000000000E+00 0.  1.
          2    1    1    2  501    0 -0.21667649729E+01 -0.37815854167E+02 -0.14832044271E+02  0.40678289469E+02  0.00000000000E+00 0.  1.
          1    1    1    2  502    0  0.21667649729E+01  0.37815854167E+02 -0.14922164988E+04  0.14926971605E+04  0.00000000000E+00 0.  1.
</event>
