<event>
 4    1  0.6109945E+002  0.3227182E+02  0.7546771E-02  0.1400829E+00
          2   -1    0    0  502    0  0.00000000000E+00  0.00000000000E+00  0.38630922452E+02  0.38630922452E+02  0.00000000000E+00 0. -1.
         -2   -1    0    0    0  501 -0.00000000000E+00 -0.00000000000E+00 -0.39557161560E+02  0.39557161560E+02  0.00000000000E+00 0.  1.
         21    1    1    2  502  503 -0.63659512071E+01 -0.31637713309E+02  0.21598786693E+02  0.38832690156E+02  0.00000000000E+00 0. -1.
         21    1    1    2  503  501  0.63659512071E+01  0.31637713309E+02 -0.22525025801E+02  0.39355393855E+02  0.00000000000E+00 0.  1.
</event>
<event>
 4    1  0.6109945E+002  0.2211110E+02  0.7546771E-02  0.1503972E+00
          2   -1    0    0  502    0  0.00000000000E+00  0.00000000000E+00  0.54339554857E+01  0.54339554857E+01  0.00000000000E+00 0.  1.
         -2   -1    0    0    0  501 -0.00000000000E+00 -0.00000000000E+00 -0.91224832160E+02  0.91224832160E+02  0.00000000000E+00 0. -1.
         21    1    1    2  502  503 -0.18010536091E+02  0.12826590559E+02 -0.37230474263E+02  0.43301374684E+02  0.00000000000E+00 0.  1.
         21    1    1    2  503  501  0.18010536091E+02 -0.12826590559E+02 -0.48560402411E+02  0.53357412962E+02  0.00000000000E+00 0. -1.
</event>
<event>
 4    1  0.6109945E+002  0.2142681E+02  0.7546771E-02  0.1513258E+00
          2   -1    0    0  503    0  0.00000000000E+00  0.00000000000E+00  0.96297558461E+03  0.96297558461E+03  0.00000000000E+00 0. -1.
         -2   -1    0    0    0  501 -0.00000000000E+00 -0.00000000000E+00 -0.48556827235E+00  0.48556827235E+00  0.00000000000E+00 0.  1.
         21    1    1    2  502  501  0.19429482984E+02  0.90334593300E+01  0.54612720344E+03  0.54654737264E+03  0.00000000000E+00 0. -1.
         21    1    1    2  503  502 -0.19429482984E+02 -0.90334593300E+01  0.41636281290E+03  0.41691378025E+03  0.00000000000E+00 0.  1.
</event>
<event>
 4    1  0.6109945E+002  0.2031459E+02  0.7546771E-02  0.1529280E+00
          2   -1    0    0  502    0  0.00000000000E+00  0.00000000000E+00  0.33277468459E+03  0.33277468459E+03  0.00000000000E+00 0.  1.
         -2   -1    0    0    0  501 -0.00000000000E+00 -0.00000000000E+00 -0.56911831850E+01  0.56911831850E+01  0.00000000000E+00 0. -1.
         21    1    1    2  502  503 -0.15781118221E+02 -0.12792144698E+02  0.31320500029E+03  0.31386311485E+03  0.00000000000E+00 0.  1.
         21    1    1    2  503  501  0.15781118221E+02  0.12792144698E+02  0.13878501121E+02  0.24602752928E+02  0.00000000000E+00 0. -1.
</event>
<event>
 4    1  0.6109945E+002  0.2341724E+02  0.7546771E-02  0.1487324E+00
          2   -1    0    0  502    0  0.00000000000E+00  0.00000000000E+00  0.50627102304E+03  0.50627102304E+03  0.00000000000E+00 0.  1.
         -2   -1    0    0    0  501 -0.00000000000E+00 -0.00000000000E+00 -0.33853693093E+01  0.33853693093E+01  0.00000000000E+00 0. -1.
         21    1    1    2  502  503 -0.79382505383E+01  0.22030684922E+02  0.46158726683E+03  0.46218088645E+03  0.00000000000E+00 0.  1.
         21    1    1    2  503  501  0.79382505383E+01 -0.22030684922E+02  0.41298386894E+02  0.47475505893E+02  0.00000000000E+00 0. -1.
</event>
<event>
 4    1  0.6109945E+002  0.2141602E+02  0.7546771E-02  0.1513407E+00
          2   -1    0    0  503    0  0.00000000000E+00  0.00000000000E+00  0.17938350513E+04  0.17938350513E+04  0.00000000000E+00 0.  1.
         -2   -1    0    0    0  501 -0.00000000000E+00 -0.00000000000E+00 -0.28447035341E+00  0.28447035341E+00  0.00000000000E+00 0. -1.
         21    1    1    2  502  501 -0.44615112146E+01 -0.20946143460E+02  0.61138862678E+03  0.61176359729E+03  0.00000000000E+00 0. -1.
         21    1    1    2  503  502  0.44615112146E+01  0.20946143460E+02  0.11821619542E+04  0.11823559244E+04  0.00000000000E+00 0.  1.
</event>
<event>
 4    1  0.6109945E+002  0.2058493E+02  0.7546771E-02  0.1525274E+00
          2   -1    0    0  502    0  0.00000000000E+00  0.00000000000E+00  0.11209940766E+04  0.11209940766E+04  0.00000000000E+00 0.  1.
         -2   -1    0    0    0  501 -0.00000000000E+00 -0.00000000000E+00 -0.68867408396E+00  0.68867408396E+00  0.00000000000E+00 0. -1.
         21    1    1    2  502  503 -0.69134493598E+01  0.19389259052E+02  0.93684225496E+03  0.93706838055E+03  0.00000000000E+00 0.  1.
         21    1    1    2  503  501  0.69134493598E+01 -0.19389259052E+02  0.18346314754E+03  0.18461437012E+03  0.00000000000E+00 0. -1.
</event>
<event>
 4    1  0.6109945E+002  0.6897834E+02  0.7546771E-02  0.1232042E+00
          2   -1    0    0  503    0  0.00000000000E+00  0.00000000000E+00  0.32525400979E+03  0.32525400979E+03  0.00000000000E+00 0. -1.
         -2   -1    0    0    0  501 -0.00000000000E+00 -0.00000000000E+00 -0.24128068469E+02  0.24128068469E+02  0.00000000000E+00 0.  1.
         21    1    1    2  502  501  0.43384826883E+02  0.53626188732E+02  0.40950752466E+02  0.80218298717E+02  0.00000000000E+00 0.  1.
         21    1    1    2  503  502 -0.43384826883E+02 -0.53626188732E+02  0.26017518885E+03  0.26916377954E+03  0.00000000000E+00 0. -1.
</event>
<event>
 4    1  0.6109945E+002  0.2265355E+02  0.7546771E-02  0.1496895E+00
          2   -1    0    0  503    0  0.00000000000E+00  0.00000000000E+00  0.11915865364E+04  0.11915865364E+04  0.00000000000E+00 0.  1.
         -2   -1    0    0    0  501 -0.00000000000E+00 -0.00000000000E+00 -0.10181073480E+01  0.10181073480E+01  0.00000000000E+00 0. -1.
         21    1    1    2  502  501  0.98998518699E+01  0.20375878215E+02  0.14233491736E+03  0.14412637573E+03  0.00000000000E+00 0. -1.
         21    1    1    2  503  502 -0.98998518699E+01 -0.20375878215E+02  0.10482335117E+04  0.10484782680E+04  0.00000000000E+00 0.  1.
</event>
<event>
 4    1  0.6109945E+002  0.3832242E+02  0.7546771E-02  0.1358607E+00
          2   -1    0    0  503    0  0.00000000000E+00  0.00000000000E+00  0.37694578149E+04  0.37694578149E+04  0.00000000000E+00 0.  1.
         -2   -1    0    0    0  501 -0.00000000000E+00 -0.00000000000E+00 -0.39409144816E+00  0.39409144816E+00  0.00000000000E+00 0. -1.
         21    1    1    2  502  501 -0.10351756874E+02 -0.36897821247E+02  0.20855977132E+04  0.20859497668E+04  0.00000000000E+00 0.  1.
         21    1    1    2  503  502  0.10351756874E+02  0.36897821247E+02  0.16834660103E+04  0.16839021396E+04  0.00000000000E+00 0. -1.
</event>
<event>
 4    1  0.6109945E+002  0.2176912E+02  0.7546771E-02  0.1508561E+00
          2   -1    0    0  502    0  0.00000000000E+00  0.00000000000E+00  0.10162903838E+03  0.10162903838E+03  0.00000000000E+00 0. -1.
         -2   -1    0    0    0  501 -0.00000000000E+00 -0.00000000000E+00 -0.47385846074E+01  0.47385846074E+01  0.00000000000E+00 0.  1.
         21    1    1    2  502  503 -0.15302367018E+02  0.15483292752E+02  0.55162791001E+02  0.59302852392E+02  0.00000000000E+00 0.  1.
         21    1    1    2  503  501  0.15302367018E+02 -0.15483292752E+02  0.41727662770E+02  0.47064770594E+02  0.00000000000E+00 0. -1.
</event>
<event>
 4    1  0.6109945E+002  0.2071871E+02  0.7546771E-02  0.1523319E+00
          2   -1    0    0  502    0  0.00000000000E+00  0.00000000000E+00  0.69032438719E+03  0.69032438719E+03  0.00000000000E+00 0. -1.
         -2   -1    0    0    0  501 -0.00000000000E+00 -0.00000000000E+00 -0.62507451572E+00  0.62507451572E+00  0.00000000000E+00 0.  1.
         21    1    1    2  502  503  0.15636295530E+02  0.13593054337E+02  0.36973717840E+03  0.37031722341E+03  0.00000000000E+00 0.  1.
         21    1    1    2  503  501 -0.15636295530E+02 -0.13593054337E+02  0.31996213427E+03  0.32063223829E+03  0.00000000000E+00 0. -1.
</event>
<event>
 4    1  0.6109945E+002  0.3241311E+02  0.7546771E-02  0.1399723E+00
          2   -1    0    0  502    0  0.00000000000E+00  0.00000000000E+00  0.61315045869E+02  0.61315045869E+02  0.00000000000E+00 0.  1.
         -2   -1    0    0    0  501 -0.00000000000E+00 -0.00000000000E+00 -0.33761660571E+02  0.33761660571E+02  0.00000000000E+00 0. -1.
         21    1    1    2  502  503 -0.12139426319E+02 -0.30054023838E+02  0.47137742558E+02  0.57206440142E+02  0.00000000000E+00 0.  1.
         21    1    1    2  503  501  0.12139426319E+02  0.30054023838E+02 -0.19584357260E+02  0.37870266298E+02  0.00000000000E+00 0. -1.
</event>
<event>
 4    1  0.6109945E+002  0.5147153E+02  0.7546771E-02  0.1291915E+00
          2   -1    0    0  503    0  0.00000000000E+00  0.00000000000E+00  0.60452510465E+03  0.60452510465E+03  0.00000000000E+00 0.  1.
         -2   -1    0    0    0  501 -0.00000000000E+00 -0.00000000000E+00 -0.10670522793E+02  0.10670522793E+02  0.00000000000E+00 0. -1.
         21    1    1    2  502  501  0.51079561353E+02  0.63401144308E+01  0.60798920110E+02  0.79660701262E+02  0.00000000000E+00 0. -1.
         21    1    1    2  503  502 -0.51079561353E+02 -0.63401144308E+01  0.53305566175E+03  0.53553492619E+03  0.00000000000E+00 0.  1.
</event>
<event>
 4    1  0.6109945E+002  0.3604034E+02  0.7546771E-02  0.1373393E+00
          2   -1    0    0  502    0  0.00000000000E+00  0.00000000000E+00  0.43557605637E+01  0.43557605637E+01  0.00000000000E+00 0. -1.
         -2   -1    0    0    0  501 -0.00000000000E+00 -0.00000000000E+00 -0.48992052972E+03  0.48992052972E+03  0.00000000000E+00 0.  1.
         21    1    1    2  502  503 -0.18539946231E+02  0.30905924329E+02 -0.88183412411E+02  0.95263949054E+02  0.00000000000E+00 0. -1.
         21    1    1    2  503  501  0.18539946231E+02 -0.30905924329E+02 -0.39738135674E+03  0.39901234123E+03  0.00000000000E+00 0.  1.
</event>
<event>
 4    1  0.6109945E+002  0.2004571E+02  0.7546771E-02  0.1533338E+00
          2   -1    0    0  503    0  0.00000000000E+00  0.00000000000E+00  0.52301434093E+03  0.52301434093E+03  0.00000000000E+00 0. -1.
         -2   -1    0    0    0  501 -0.00000000000E+00 -0.00000000000E+00 -0.78355062766E+00  0.78355062766E+00  0.00000000000E+00 0.  1.
         21    1    1    2  502  501 -0.13545253037E+02 -0.14776900217E+02  0.29765621863E+03  0.29833044624E+03  0.00000000000E+00 0.  1.
         21    1    1    2  503  502  0.13545253037E+02  0.14776900217E+02  0.22457457167E+03  0.22546744533E+03  0.00000000000E+00 0. -1.
</event>
<event>
 4    1  0.6109945E+002  0.4619495E+02  0.7546771E-02  0.1315570E+00
          2   -1    0    0  503    0  0.00000000000E+00  0.00000000000E+00  0.56095988613E+03  0.56095988613E+03  0.00000000000E+00 0. -1.
         -2   -1    0    0    0  501 -0.00000000000E+00 -0.00000000000E+00 -0.46245744344E+01  0.46245744344E+01  0.00000000000E+00 0.  1.
         21    1    1    2  502  501 -0.68632746130E+01 -0.45682261277E+02  0.39727864490E+03  0.39995536655E+03  0.00000000000E+00 0. -1.
         21    1    1    2  503  502  0.68632746130E+01  0.45682261277E+02  0.15905666679E+03  0.16562909401E+03  0.00000000000E+00 0.  1.
</event>
<event>
 4    1  0.6109945E+002  0.5221806E+02  0.7546771E-02  0.1288832E+00
          2   -1    0    0  502    0  0.00000000000E+00  0.00000000000E+00  0.12430333532E+03  0.12430333532E+03  0.00000000000E+00 0.  1.
         -2   -1    0    0    0  501 -0.00000000000E+00 -0.00000000000E+00 -0.22447455255E+02  0.22447455255E+02  0.00000000000E+00 0. -1.
         21    1    1    2  502  503  0.52217949500E+02 -0.10746431271E+00  0.39852934389E+02  0.65688523945E+02  0.00000000000E+00 0. -1.
         21    1    1    2  503  501 -0.52217949500E+02  0.10746431271E+00  0.62002945676E+02  0.81062266630E+02  0.00000000000E+00 0.  1.
</event>
<event>
 4    1  0.6109945E+002  0.2213942E+02  0.7546771E-02  0.1503597E+00
          2   -1    0    0  502    0  0.00000000000E+00  0.00000000000E+00  0.14856760335E+02  0.14856760335E+02  0.00000000000E+00 0. -1.
         -2   -1    0    0    0  501 -0.00000000000E+00 -0.00000000000E+00 -0.76345976346E+02  0.76345976346E+02  0.00000000000E+00 0.  1.
         21    1    1    2  502  503  0.10326942623E+02  0.19583361060E+02  0.36190526711E+01  0.22433263619E+02  0.00000000000E+00 0.  1.
         21    1    1    2  503  501 -0.10326942623E+02 -0.19583361060E+02 -0.65108268683E+02  0.68769473062E+02  0.00000000000E+00 0. -1.
</event>
<event>
 4    1  0.6109945E+002  0.3200927E+02  0.7546771E-02  0.1402904E+00
          2   -1    0    0  502    0  0.00000000000E+00  0.00000000000E+00  0.10500893911E+04  0.10500893911E+04  0.00000000000E+00 0. -1.
         -2   -1    0    0    0  501 -0.00000000000E+00 -0.00000000000E+00 -0.12208659660E+01  0.12208659660E+01  0.00000000000E+00 0.  1.
         21    1    1    2  502  503  0.19930481957E+02  0.25047338893E+02  0.75998215557E+03  0.76065594724E+03  0.00000000000E+00 0. -1.
         21    1    1    2  503  501 -0.19930481957E+02 -0.25047338893E+02  0.28888636953E+03  0.29065430978E+03  0.00000000000E+00 0.  1.
</event>
<event>
 4    1  0.6109945E+002  0.2845182E+02  0.7546771E-02  0.1433545E+00
          2   -1    0    0  503    0  0.00000000000E+00  0.00000000000E+00  0.82654380909E+03  0.82654380909E+03  0.00000000000E+00 0. -1.
         -2   -1    0    0    0  501 -0.00000000000E+00 -0.00000000000E+00 -0.10844874072E+01  0.10844874072E+01  0.00000000000E+00 0.  1.
         21    1    1    2  502  501 -0.15846174982E+02  0.23630595509E+02  0.28390613918E+03  0.28532823585E+03  0.00000000000E+00 0. -1.
         21    1    1    2  503  502  0.15846174982E+02 -0.23630595509E+02  0.54155318249E+03  0.54230006065E+03  0.00000000000E+00 0.  1.
</event>
<event>
 4    1  0.6109945E+002  0.3421629E+02  0.7546771E-02  0.1386158E+00
          2   -1    0    0  502    0  0.00000000000E+00  0.00000000000E+00  0.11901992370E+04  0.11901992370E+04  0.00000000000E+00 0.  1.
         -2   -1    0    0    0  501 -0.00000000000E+00 -0.00000000000E+00 -0.16804983148E+01  0.16804983148E+01  0.00000000000E+00 0. -1.
         21    1    1    2  502  503  0.25973856044E+02  0.22273596081E+02  0.97800960174E+03  0.97860795796E+03  0.00000000000E+00 0.  1.
         21    1    1    2  503  501 -0.25973856044E+02 -0.22273596081E+02  0.21050913694E+03  0.21327177736E+03  0.00000000000E+00 0. -1.
</event>
<event>
 4    1  0.6109945E+002  0.2743319E+02  0.7546771E-02  0.1443304E+00
          2   -1    0    0  503    0  0.00000000000E+00  0.00000000000E+00  0.55994276645E+03  0.55994276645E+03  0.00000000000E+00 0. -1.
         -2   -1    0    0    0  501 -0.00000000000E+00 -0.00000000000E+00 -0.65813826931E+01  0.65813826931E+01  0.00000000000E+00 0.  1.
         21    1    1    2  502  501  0.31116684448E+01  0.27256146649E+02  0.23992027594E+02  0.36444442632E+02  0.00000000000E+00 0.  1.
         21    1    1    2  503  502 -0.31116684448E+01 -0.27256146649E+02  0.52936935616E+03  0.53007970651E+03  0.00000000000E+00 0. -1.
</event>
<event>
 4    1  0.6109945E+002  0.3560832E+02  0.7546771E-02  0.1376336E+00
          2   -1    0    0  502    0  0.00000000000E+00  0.00000000000E+00  0.25741467273E+04  0.25741467273E+04  0.00000000000E+00 0. -1.
         -2   -1    0    0    0  501 -0.00000000000E+00 -0.00000000000E+00 -0.11637601985E+01  0.11637601985E+01  0.00000000000E+00 0.  1.
         21    1    1    2  502  503 -0.26150407717E+02 -0.24168345466E+02  0.22643814463E+04  0.22646614068E+04  0.00000000000E+00 0. -1.
         21    1    1    2  503  501  0.26150407717E+02  0.24168345466E+02  0.30860152072E+03  0.31064908070E+03  0.00000000000E+00 0.  1.
</event>
<event>
 4    1  0.6109945E+002  0.2039173E+02  0.7546771E-02  0.1528129E+00
          2   -1    0    0  503    0  0.00000000000E+00  0.00000000000E+00  0.13336374568E+02  0.13336374568E+02  0.00000000000E+00 0.  1.
         -2   -1    0    0    0  501 -0.00000000000E+00 -0.00000000000E+00 -0.80359144256E+02  0.80359144256E+02  0.00000000000E+00 0. -1.
         21    1    1    2  502  501  0.20069873227E+02 -0.36087329503E+01 -0.70160495703E+02  0.73063793511E+02  0.00000000000E+00 0. -1.
         21    1    1    2  503  502 -0.20069873227E+02  0.36087329503E+01  0.31377260150E+01  0.20631725313E+02  0.00000000000E+00 0.  1.
</event>
<event>
 4    1  0.6109945E+002  0.2704571E+02  0.7546771E-02  0.1447149E+00
          2   -1    0    0  502    0  0.00000000000E+00  0.00000000000E+00  0.54781730979E+03  0.54781730979E+03  0.00000000000E+00 0.  1.
         -2   -1    0    0    0  501 -0.00000000000E+00 -0.00000000000E+00 -0.10034532403E+02  0.10034532403E+02  0.00000000000E+00 0. -1.
         21    1    1    2  502  503  0.92640576155E+01  0.25409601714E+02  0.52859747763E+03  0.52928892297E+03  0.00000000000E+00 0.  1.
         21    1    1    2  503  501 -0.92640576155E+01 -0.25409601714E+02  0.91852997543E+01  0.28562919220E+02  0.00000000000E+00 0. -1.
</event>
<event>
 4    1  0.6109945E+002  0.2280379E+02  0.7546771E-02  0.1494977E+00
          2   -1    0    0  502    0  0.00000000000E+00  0.00000000000E+00  0.96721918483E+01  0.96721918483E+01  0.00000000000E+00 0. -1.
         -2   -1    0    0    0  501 -0.00000000000E+00 -0.00000000000E+00 -0.11015006519E+03  0.11015006519E+03  0.00000000000E+00 0.  1.
         21    1    1    2  502  503  0.45523501120E+01  0.22344770770E+02 -0.73739956949E+01  0.23966403252E+02  0.00000000000E+00 0. -1.
         21    1    1    2  503  501 -0.45523501120E+01 -0.22344770770E+02 -0.93103877649E+02  0.95855853789E+02  0.00000000000E+00 0.  1.
</event>
<event>
 4    1  0.6109945E+002  0.2917918E+02  0.7546771E-02  0.1426866E+00
          2   -1    0    0  502    0  0.00000000000E+00  0.00000000000E+00  0.14077280999E+01  0.14077280999E+01  0.00000000000E+00 0.  1.
         -2   -1    0    0    0  501 -0.00000000000E+00 -0.00000000000E+00 -0.88538639345E+03  0.88538639345E+03  0.00000000000E+00 0. -1.
         21    1    1    2  502  503  0.19112302591E+02 -0.22048682759E+02 -0.19239030649E+03  0.19459047909E+03  0.00000000000E+00 0. -1.
         21    1    1    2  503  501 -0.19112302591E+02  0.22048682759E+02 -0.69158835886E+03  0.69220364246E+03  0.00000000000E+00 0.  1.
</event>
<event>
 4    1  0.6109945E+002  0.2718185E+02  0.7546771E-02  0.1445790E+00
          2   -1    0    0  502    0  0.00000000000E+00  0.00000000000E+00  0.27865874756E+02  0.27865874756E+02  0.00000000000E+00 0.  1.
         -2   -1    0    0    0  501 -0.00000000000E+00 -0.00000000000E+00 -0.35053260872E+02  0.35053260872E+02  0.00000000000E+00 0. -1.
         21    1    1    2  502  503  0.19666249437E+02  0.18764111288E+02  0.11933135877E+02  0.29685905262E+02  0.00000000000E+00 0.  1.
         21    1    1    2  503  501 -0.19666249437E+02 -0.18764111288E+02 -0.19120521993E+02  0.33233230367E+02  0.00000000000E+00 0. -1.
</event>
<event>
 4    1  0.6109945E+002  0.2642642E+02  0.7546771E-02  0.1453456E+00
          2   -1    0    0  502    0  0.00000000000E+00  0.00000000000E+00  0.17585410830E+04  0.17585410830E+04  0.00000000000E+00 0.  1.
         -2   -1    0    0    0  501 -0.00000000000E+00 -0.00000000000E+00 -0.68423966372E+00  0.68423966372E+00  0.00000000000E+00 0. -1.
         21    1    1    2  502  503  0.19539738790E+02 -0.17791978178E+02  0.14487213805E+04  0.14489623853E+04  0.00000000000E+00 0.  1.
         21    1    1    2  503  501 -0.19539738790E+02  0.17791978178E+02  0.30913546289E+03  0.31026293735E+03  0.00000000000E+00 0. -1.
</event>
<event>
 4    1  0.6109945E+002  0.2578279E+02  0.7546771E-02  0.1460234E+00
          2   -1    0    0  503    0  0.00000000000E+00  0.00000000000E+00  0.15544811990E+03  0.15544811990E+03  0.00000000000E+00 0.  1.
         -2   -1    0    0    0  501 -0.00000000000E+00 -0.00000000000E+00 -0.18262460273E+02  0.18262460273E+02  0.00000000000E+00 0. -1.
         21    1    1    2  502  501  0.19643300964E+01  0.25707847582E+02 -0.74161602360E+01  0.26828183925E+02  0.00000000000E+00 0. -1.
         21    1    1    2  503  502 -0.19643300964E+01 -0.25707847582E+02  0.14460181986E+03  0.14688239625E+03  0.00000000000E+00 0.  1.
</event>
<event>
 4    1  0.6109945E+002  0.2476792E+02  0.7546771E-02  0.1471416E+00
          2   -1    0    0  503    0  0.00000000000E+00  0.00000000000E+00  0.11250894707E+04  0.11250894707E+04  0.00000000000E+00 0. -1.
         -2   -1    0    0    0  501 -0.00000000000E+00 -0.00000000000E+00 -0.55201334423E+00  0.55201334423E+00  0.00000000000E+00 0.  1.
         21    1    1    2  502  501 -0.99658970465E+01  0.22674451632E+02  0.62458818102E+03  0.62507907158E+03  0.00000000000E+00 0. -1.
         21    1    1    2  503  502  0.99658970465E+01 -0.22674451632E+02  0.49994927637E+03  0.50056241249E+03  0.00000000000E+00 0.  1.
</event>
<event>
 4    1  0.6109945E+002  0.2375818E+02  0.7546771E-02  0.1483191E+00
          2   -1    0    0  503    0  0.00000000000E+00  0.00000000000E+00  0.12694315228E+03  0.12694315228E+03  0.00000000000E+00 0. -1.
         -2   -1    0    0    0  501 -0.00000000000E+00 -0.00000000000E+00 -0.62554903245E+01  0.62554903245E+01  0.00000000000E+00 0.  1.
         21    1    1    2  502  501  0.17612111253E+02 -0.15945680815E+02  0.24529347575E+02  0.34148793418E+02  0.00000000000E+00 0.  1.
         21    1    1    2  503  502 -0.17612111253E+02  0.15945680815E+02  0.96158314385E+02  0.99049849191E+02  0.00000000000E+00 0. -1.
</event>
<event>
 4    1  0.6109945E+002  0.2135660E+02  0.7546771E-02  0.1514234E+00
          2   -1    0    0  503    0  0.00000000000E+00  0.00000000000E+00  0.21098254122E+01  0.21098254122E+01  0.00000000000E+00 0. -1.
         -2   -1    0    0    0  501 -0.00000000000E+00 -0.00000000000E+00 -0.23834061614E+03  0.23834061614E+03  0.00000000000E+00 0.  1.
         21    1    1    2  502  501 -0.20242354656E+02  0.68082041504E+01 -0.15477399077E+03  0.15624049662E+03  0.00000000000E+00 0.  1.
         21    1    1    2  503  502  0.20242354656E+02 -0.68082041504E+01 -0.81456799953E+02  0.84209944926E+02  0.00000000000E+00 0. -1.
</event>
<event>
 4    1  0.6109945E+002  0.3421963E+02  0.7546771E-02  0.1386134E+00
          2   -1    0    0  503    0  0.00000000000E+00  0.00000000000E+00  0.23468211891E+04  0.23468211891E+04  0.00000000000E+00 0.  1.
         -2   -1    0    0    0  501 -0.00000000000E+00 -0.00000000000E+00 -0.73350188300E+00  0.73350188300E+00  0.00000000000E+00 0. -1.
         21    1    1    2  502  501 -0.32660372569E+02 -0.10211916211E+02  0.50931594046E+03  0.51046421067E+03  0.00000000000E+00 0. -1.
         21    1    1    2  503  502  0.32660372569E+02  0.10211916211E+02  0.18367717467E+04  0.18370904803E+04  0.00000000000E+00 0.  1.
</event>
<event>
 4    1  0.6109945E+002  0.2176103E+02  0.7546771E-02  0.1508671E+00
          2   -1    0    0  502    0  0.00000000000E+00  0.00000000000E+00  0.10726140399E+04  0.10726140399E+04  0.00000000000E+00 0.  1.
         -2   -1    0    0    0  501 -0.00000000000E+00 -0.00000000000E+00 -0.44451547617E+00  0.44451547617E+00  0.00000000000E+00 0. -1.
         21    1    1    2  502  503  0.21643298191E+02  0.22605022269E+01  0.58039026688E+03  0.58079807517E+03  0.00000000000E+00 0.  1.
         21    1    1    2  503  501 -0.21643298191E+02 -0.22605022269E+01  0.49177925756E+03  0.49226048023E+03  0.00000000000E+00 0. -1.
</event>
<event>
 4    1  0.6109945E+002  0.3414485E+02  0.7546771E-02  0.1386677E+00
          2   -1    0    0  502    0  0.00000000000E+00  0.00000000000E+00  0.89570996462E+01  0.89570996462E+01  0.00000000000E+00 0. -1.
         -2   -1    0    0    0  501 -0.00000000000E+00 -0.00000000000E+00 -0.14906153668E+03  0.14906153668E+03  0.00000000000E+00 0.  1.
         21    1    1    2  502  503  0.19935880988E+02  0.27720597255E+02 -0.41918630404E+02  0.54065168435E+02  0.00000000000E+00 0. -1.
         21    1    1    2  503  501 -0.19935880988E+02 -0.27720597255E+02 -0.98185806625E+02  0.10395346789E+03  0.00000000000E+00 0.  1.
</event>
<event>
 4    1  0.6109945E+002  0.2194947E+02  0.7546771E-02  0.1506128E+00
          2   -1    0    0  503    0  0.00000000000E+00  0.00000000000E+00  0.12999306435E+04  0.12999306435E+04  0.00000000000E+00 0.  1.
         -2   -1    0    0    0  501 -0.00000000000E+00 -0.00000000000E+00 -0.43105021416E+00  0.43105021416E+00  0.00000000000E+00 0. -1.
         21    1    1    2  502  501 -0.21456600057E+02 -0.46253330332E+01  0.40630538858E+03  0.40689783506E+03  0.00000000000E+00 0.  1.
         21    1    1    2  503  502  0.21456600057E+02  0.46253330332E+01  0.89319420467E+03  0.89346385861E+03  0.00000000000E+00 0. -1.
</event>
<event>
 4    1  0.6109945E+002  0.3023389E+02  0.7546771E-02  0.1417575E+00
          2   -1    0    0  502    0  0.00000000000E+00  0.00000000000E+00  0.10904386229E+04  0.10904386229E+04  0.00000000000E+00 0.  1.
         -2   -1    0    0    0  501 -0.00000000000E+00 -0.00000000000E+00 -0.83414749925E+01  0.83414749925E+01  0.00000000000E+00 0. -1.
         21    1    1    2  502  503  0.69441973772E+01  0.29425606096E+02  0.10621024183E+04  0.10625326513E+04  0.00000000000E+00 0.  1.
         21    1    1    2  503  501 -0.69441973772E+01 -0.29425606096E+02  0.19994729629E+02  0.36247446590E+02  0.00000000000E+00 0. -1.
</event>
<event>
 4    1  0.6109945E+002  0.2056961E+02  0.7546771E-02  0.1525499E+00
          2   -1    0    0  502    0  0.00000000000E+00  0.00000000000E+00  0.82106634930E+03  0.82106634930E+03  0.00000000000E+00 0.  1.
         -2   -1    0    0    0  501 -0.00000000000E+00 -0.00000000000E+00 -0.88827907269E+00  0.88827907269E+00  0.00000000000E+00 0. -1.
         21    1    1    2  502  503  0.11408221817E+02 -0.17116112477E+02  0.67639194159E+03  0.67670463829E+03  0.00000000000E+00 0.  1.
         21    1    1    2  503  501 -0.11408221817E+02  0.17116112477E+02  0.14378612863E+03  0.14524999008E+03  0.00000000000E+00 0. -1.
</event>
<event>
 4    1  0.6109945E+002  0.3675262E+02  0.7546771E-02  0.1368643E+00
          2   -1    0    0  503    0  0.00000000000E+00  0.00000000000E+00  0.71851528645E+02  0.71851528645E+02  0.00000000000E+00 0.  1.
         -2   -1    0    0    0  501 -0.00000000000E+00 -0.00000000000E+00 -0.49227097727E+02  0.49227097727E+02  0.00000000000E+00 0. -1.
         21    1    1    2  502  501 -0.33345782432E+02  0.15453600009E+02 -0.36283841973E+02  0.51645640160E+02  0.00000000000E+00 0. -1.
         21    1    1    2  503  502  0.33345782432E+02 -0.15453600009E+02  0.58908272891E+02  0.69432986211E+02  0.00000000000E+00 0.  1.
</event>
<event>
 4    1  0.6109945E+002  0.2971260E+02  0.7546771E-02  0.1422111E+00
          2   -1    0    0  503    0  0.00000000000E+00  0.00000000000E+00  0.54592589672E+03  0.54592589672E+03  0.00000000000E+00 0.  1.
         -2   -1    0    0    0  501 -0.00000000000E+00 -0.00000000000E+00 -0.21076793973E+02  0.21076793973E+02  0.00000000000E+00 0. -1.
         21    1    1    2  502  501 -0.27982877943E+02 -0.99898616935E+01 -0.99837899783E+01  0.31345093028E+02  0.00000000000E+00 0. -1.
         21    1    1    2  503  502  0.27982877943E+02  0.99898616935E+01  0.53483289272E+03  0.53565759766E+03  0.00000000000E+00 0.  1.
</event>
<event>
 4    1  0.6109945E+002  0.3741813E+02  0.7546771E-02  0.1364318E+00
          2   -1    0    0  502    0  0.00000000000E+00  0.00000000000E+00  0.94757206244E+03  0.94757206244E+03  0.00000000000E+00 0.  1.
         -2   -1    0    0    0  501 -0.00000000000E+00 -0.00000000000E+00 -0.51984619833E+01  0.51984619833E+01  0.00000000000E+00 0. -1.
         21    1    1    2  502  503 -0.92040322052E+01  0.36268475078E+02  0.87422262059E+03  0.87502303218E+03  0.00000000000E+00 0.  1.
         21    1    1    2  503  501  0.92040322052E+01 -0.36268475078E+02  0.68150979863E+02  0.77747492240E+02  0.00000000000E+00 0. -1.
</event>
<event>
 4    1  0.6109945E+002  0.2777097E+02  0.7546771E-02  0.1440014E+00
          2   -1    0    0  502    0  0.00000000000E+00  0.00000000000E+00  0.17687719121E+03  0.17687719121E+03  0.00000000000E+00 0.  1.
         -2   -1    0    0    0  501 -0.00000000000E+00 -0.00000000000E+00 -0.45193840235E+01  0.45193840235E+01  0.00000000000E+00 0. -1.
         21    1    1    2  502  503 -0.82163896170E+00 -0.27758808745E+02  0.10319884686E+03  0.10687014806E+03  0.00000000000E+00 0.  1.
         21    1    1    2  503  501  0.82163896170E+00  0.27758808745E+02  0.69158960327E+02  0.74526427173E+02  0.00000000000E+00 0. -1.
</event>
<event>
 4    1  0.6109945E+002  0.2860084E+02  0.7546771E-02  0.1432158E+00
          2   -1    0    0  503    0  0.00000000000E+00  0.00000000000E+00  0.89855898622E+00  0.89855898622E+00  0.00000000000E+00 0.  1.
         -2   -1    0    0    0  501 -0.00000000000E+00 -0.00000000000E+00 -0.92735847758E+03  0.92735847758E+03  0.00000000000E+00 0. -1.
         21    1    1    2  502  501  0.21306892739E+02 -0.19079428293E+02 -0.40038436564E+03  0.40140459453E+03  0.00000000000E+00 0.  1.
         21    1    1    2  503  502 -0.21306892739E+02  0.19079428293E+02 -0.52607555295E+03  0.52685244203E+03  0.00000000000E+00 0. -1.
</event>
<event>
 4    1  0.6109945E+002  0.2818326E+02  0.7546771E-02  0.1436071E+00
          2   -1    0    0  502    0  0.00000000000E+00  0.00000000000E+00  0.59123839402E+02  0.59123839402E+02  0.00000000000E+00 0. -1.
         -2   -1    0    0    0  501 -0.00000000000E+00 -0.00000000000E+00 -0.21088685332E+02  0.21088685332E+02  0.00000000000E+00 0.  1.
         21    1    1    2  502  503  0.27328472345E+02  0.68884396620E+01  0.43179887955E+02  0.51563540661E+02  0.00000000000E+00 0.  1.
         21    1    1    2  503  501 -0.27328472345E+02 -0.68884396620E+01 -0.51447338845E+01  0.28648984073E+02  0.00000000000E+00 0. -1.
</event>
<event>
 4    1  0.6109945E+002  0.3663168E+02  0.7546771E-02  0.1369441E+00
          2   -1    0    0  503    0  0.00000000000E+00  0.00000000000E+00  0.91746601819E+03  0.91746601819E+03  0.00000000000E+00 0. -1.
         -2   -1    0    0    0  501 -0.00000000000E+00 -0.00000000000E+00 -0.17216525082E+01  0.17216525082E+01  0.00000000000E+00 0.  1.
         21    1    1    2  502  501  0.14496530392E+02 -0.33641203885E+02  0.27959299364E+03  0.28198248542E+03  0.00000000000E+00 0. -1.
         21    1    1    2  503  502 -0.14496530392E+02  0.33641203885E+02  0.63615137204E+03  0.63720518527E+03  0.00000000000E+00 0.  1.
</event>
<event>
 4    1  0.6109945E+002  0.5634600E+02  0.7546771E-02  0.1272780E+00
          2   -1    0    0  502    0  0.00000000000E+00  0.00000000000E+00  0.87833204224E+02  0.87833204224E+02  0.00000000000E+00 0. -1.
         -2   -1    0    0    0  501 -0.00000000000E+00 -0.00000000000E+00 -0.56803063434E+02  0.56803063434E+02  0.00000000000E+00 0.  1.
         21    1    1    2  502  503  0.54132630447E+02 -0.15637451976E+02  0.59125396052E+02  0.81674255685E+02  0.00000000000E+00 0. -1.
         21    1    1    2  503  501 -0.54132630447E+02  0.15637451976E+02 -0.28095255262E+02  0.62962011973E+02  0.00000000000E+00 0.  1.
</event>
<event>
 4    1  0.6109945E+002  0.2280081E+02  0.7546771E-02  0.1495015E+00
          2   -1    0    0  503    0  0.00000000000E+00  0.00000000000E+00  0.37628433014E+03  0.37628433014E+03  0.00000000000E+00 0.  1.
         -2   -1    0    0    0  501 -0.00000000000E+00 -0.00000000000E+00 -0.27920236308E+01  0.27920236308E+01  0.00000000000E+00 0. -1.
         21    1    1    2  502  501 -0.17836547494E+02 -0.14203330030E+02  0.52032725638E+02  0.56809167814E+02  0.00000000000E+00 0. -1.
         21    1    1    2  503  502  0.17836547494E+02  0.14203330030E+02  0.32145958087E+03  0.32226718596E+03  0.00000000000E+00 0.  1.
</event>
<event>
 4    1  0.6109945E+002  0.2023826E+02  0.7546771E-02  0.1530424E+00
          2   -1    0    0  502    0  0.00000000000E+00  0.00000000000E+00  0.21816438535E+04  0.21816438535E+04  0.00000000000E+00 0. -1.
         -2   -1    0    0    0  501 -0.00000000000E+00 -0.00000000000E+00 -0.18969663659E+00  0.18969663659E+00  0.00000000000E+00 0.  1.
         21    1    1    2  502  503 -0.38374982573E+01  0.19871106818E+02  0.12014503376E+04  0.12016207809E+04  0.00000000000E+00 0.  1.
         21    1    1    2  503  501  0.38374982573E+01 -0.19871106818E+02  0.98000381921E+03  0.98021276923E+03  0.00000000000E+00 0. -1.
</event>
<event>
 4    1  0.6109945E+002  0.6159392E+02  0.7546771E-02  0.1254511E+00
          2   -1    0    0  503    0  0.00000000000E+00  0.00000000000E+00  0.43550326382E+03  0.43550326382E+03  0.00000000000E+00 0. -1.
         -2   -1    0    0    0  501 -0.00000000000E+00 -0.00000000000E+00 -0.93117141532E+01  0.93117141532E+01  0.00000000000E+00 0.  1.
         21    1    1    2  502  501 -0.61429428790E+02 -0.44984663251E+01  0.15662150388E+03  0.16829767200E+03  0.00000000000E+00 0.  1.
         21    1    1    2  503  502  0.61429428790E+02  0.44984663251E+01  0.26957004578E+03  0.27651730598E+03  0.00000000000E+00 0. -1.
</event>
<event>
 4    1  0.6109945E+002  0.2715882E+02  0.7546771E-02  0.1446019E+00
          2   -1    0    0  502    0  0.00000000000E+00  0.00000000000E+00  0.12152667314E+02  0.12152667314E+02  0.00000000000E+00 0. -1.
         -2   -1    0    0    0  501 -0.00000000000E+00 -0.00000000000E+00 -0.74227757436E+02  0.74227757436E+02  0.00000000000E+00 0.  1.
         21    1    1    2  502  503  0.26303163489E+01  0.27031150333E+02 -0.12595832572E+02  0.29937545835E+02  0.00000000000E+00 0.  1.
         21    1    1    2  503  501 -0.26303163489E+01 -0.27031150333E+02 -0.49479257551E+02  0.56442878915E+02  0.00000000000E+00 0. -1.
</event>
<event>
 4    1  0.6109945E+002  0.2873101E+02  0.7546771E-02  0.1430954E+00
          2   -1    0    0  503    0  0.00000000000E+00  0.00000000000E+00  0.57359542125E+03  0.57359542125E+03  0.00000000000E+00 0. -1.
         -2   -1    0    0    0  501 -0.00000000000E+00 -0.00000000000E+00 -0.17235707407E+01  0.17235707407E+01  0.00000000000E+00 0.  1.
         21    1    1    2  502  501  0.19255908040E+02  0.21323247137E+02  0.16907480052E+03  0.17149856861E+03  0.00000000000E+00 0. -1.
         21    1    1    2  503  502 -0.19255908040E+02 -0.21323247137E+02  0.40279704999E+03  0.40382042339E+03  0.00000000000E+00 0.  1.
</event>
<event>
 4    1  0.6109945E+002  0.3166930E+02  0.7546771E-02  0.1405624E+00
          2   -1    0    0  503    0  0.00000000000E+00  0.00000000000E+00  0.21467328027E+04  0.21467328027E+04  0.00000000000E+00 0. -1.
         -2   -1    0    0    0  501 -0.00000000000E+00 -0.00000000000E+00 -0.69815677778E+00  0.69815677778E+00  0.00000000000E+00 0.  1.
         21    1    1    2  502  501 -0.15973508980E+02  0.27345772238E+02  0.45545303849E+03  0.45655275108E+03  0.00000000000E+00 0.  1.
         21    1    1    2  503  502  0.15973508980E+02 -0.27345772238E+02  0.16905816075E+04  0.16908782084E+04  0.00000000000E+00 0. -1.
</event>
<event>
 4    1  0.6109945E+002  0.3009088E+02  0.7546771E-02  0.1418808E+00
          2   -1    0    0  503    0  0.00000000000E+00  0.00000000000E+00  0.21270828276E+04  0.21270828276E+04  0.00000000000E+00 0.  1.
         -2   -1    0    0    0  501 -0.00000000000E+00 -0.00000000000E+00 -0.10253873316E+01  0.10253873316E+01  0.00000000000E+00 0. -1.
         21    1    1    2  502  501 -0.27765489757E+02 -0.11599068006E+02  0.24928302146E+03  0.25109258370E+03  0.00000000000E+00 0. -1.
         21    1    1    2  503  502  0.27765489757E+02  0.11599068006E+02  0.18767744188E+04  0.18770156312E+04  0.00000000000E+00 0.  1.
</event>
<event>
 4    1  0.6109945E+002  0.2675595E+02  0.7546771E-02  0.1450075E+00
          2   -1    0    0  503    0  0.00000000000E+00  0.00000000000E+00  0.23414248915E+04  0.23414248915E+04  0.00000000000E+00 0. -1.
         -2   -1    0    0    0  501 -0.00000000000E+00 -0.00000000000E+00 -0.49043926802E+00  0.49043926802E+00  0.00000000000E+00 0.  1.
         21    1    1    2  502  501  0.18311683932E+02 -0.19508025120E+02  0.45188850701E+03  0.45267991294E+03  0.00000000000E+00 0. -1.
         21    1    1    2  503  502 -0.18311683932E+02  0.19508025120E+02  0.18890459452E+04  0.18892354178E+04  0.00000000000E+00 0.  1.
</event>
<event>
 4    1  0.6109945E+002  0.2314586E+02  0.7546771E-02  0.1490675E+00
          2   -1    0    0  502    0  0.00000000000E+00  0.00000000000E+00  0.97365975500E+01  0.97365975500E+01  0.00000000000E+00 0. -1.
         -2   -1    0    0    0  501 -0.00000000000E+00 -0.00000000000E+00 -0.60777744861E+02  0.60777744861E+02  0.00000000000E+00 0.  1.
         21    1    1    2  502  503 -0.11813033819E+02 -0.19904349836E+02 -0.36370107059E+02  0.43110504496E+02  0.00000000000E+00 0.  1.
         21    1    1    2  503  501  0.11813033819E+02  0.19904349836E+02 -0.14671040252E+02  0.27403837915E+02  0.00000000000E+00 0. -1.
</event>
<event>
 4    1  0.6109945E+002  0.2785282E+02  0.7546771E-02  0.1439224E+00
          2   -1    0    0  503    0  0.00000000000E+00  0.00000000000E+00  0.38282963388E+03  0.38282963388E+03  0.00000000000E+00 0.  1.
         -2   -1    0    0    0  501 -0.00000000000E+00 -0.00000000000E+00 -0.27606341125E+01  0.27606341125E+01  0.00000000000E+00 0. -1.
         21    1    1    2  502  501 -0.21278548934E+02  0.17972281111E+02  0.90608848643E+02  0.94793158960E+02  0.00000000000E+00 0. -1.
         21    1    1    2  503  502  0.21278548934E+02 -0.17972281111E+02  0.28946015113E+03  0.29079710904E+03  0.00000000000E+00 0.  1.
</event>
<event>
 4    1  0.6109945E+002  0.2877954E+02  0.7546771E-02  0.1430507E+00
          2   -1    0    0  503    0  0.00000000000E+00  0.00000000000E+00  0.11673306832E+02  0.11673306832E+02  0.00000000000E+00 0. -1.
         -2   -1    0    0    0  501 -0.00000000000E+00 -0.00000000000E+00 -0.72209567980E+02  0.72209567980E+02  0.00000000000E+00 0.  1.
         21    1    1    2  502  501  0.52978426390E+01  0.28287717527E+02 -0.35799729510E+02  0.45933459836E+02  0.00000000000E+00 0. -1.
         21    1    1    2  503  502 -0.52978426390E+01 -0.28287717527E+02 -0.24736531639E+02  0.37949414976E+02  0.00000000000E+00 0.  1.
</event>
<event>
 4    1  0.6109945E+002  0.2023704E+02  0.7546771E-02  0.1530442E+00
          2   -1    0    0  502    0  0.00000000000E+00  0.00000000000E+00  0.28274622418E+03  0.28274622418E+03  0.00000000000E+00 0. -1.
         -2   -1    0    0    0  501 -0.00000000000E+00 -0.00000000000E+00 -0.36648890798E+01  0.36648890798E+01  0.00000000000E+00 0.  1.
         21    1    1    2  502  503  0.19772958632E+02 -0.43090465106E+01  0.25090841316E+03  0.25172320030E+03  0.00000000000E+00 0. -1.
         21    1    1    2  503  501 -0.19772958632E+02  0.43090465106E+01  0.28172921946E+02  0.34687912965E+02  0.00000000000E+00 0.  1.
</event>
<event>
 4    1  0.6109945E+002  0.4101181E+02  0.7546771E-02  0.1342656E+00
          2   -1    0    0  502    0  0.00000000000E+00  0.00000000000E+00  0.37960943452E+02  0.37960943452E+02  0.00000000000E+00 0. -1.
         -2   -1    0    0    0  501 -0.00000000000E+00 -0.00000000000E+00 -0.48705246721E+02  0.48705246721E+02  0.00000000000E+00 0.  1.
         21    1    1    2  502  503 -0.29063561706E+02 -0.28935758218E+02  0.76483718352E+01  0.41718896371E+02  0.00000000000E+00 0. -1.
         21    1    1    2  503  501  0.29063561706E+02  0.28935758218E+02 -0.18392675105E+02  0.44947293803E+02  0.00000000000E+00 0.  1.
</event>
<event>
 4    1  0.6109945E+002  0.3003762E+02  0.7546771E-02  0.1419270E+00
          2   -1    0    0  502    0  0.00000000000E+00  0.00000000000E+00  0.18412305235E+04  0.18412305235E+04  0.00000000000E+00 0.  1.
         -2   -1    0    0    0  501 -0.00000000000E+00 -0.00000000000E+00 -0.78380417611E+00  0.78380417611E+00  0.00000000000E+00 0. -1.
         21    1    1    2  502  503 -0.22819208896E+02  0.19533100808E+02  0.14840764677E+04  0.14843804163E+04  0.00000000000E+00 0.  1.
         21    1    1    2  503  501  0.22819208896E+02 -0.19533100808E+02  0.35637025161E+03  0.35763391136E+03  0.00000000000E+00 0. -1.
</event>
<event>
 4    1  0.6109945E+002  0.3178410E+02  0.7546771E-02  0.1404701E+00
          2   -1    0    0  502    0  0.00000000000E+00  0.00000000000E+00  0.11391968054E+03  0.11391968054E+03  0.00000000000E+00 0.  1.
         -2   -1    0    0    0  501 -0.00000000000E+00 -0.00000000000E+00 -0.26303862571E+02  0.26303862571E+02  0.00000000000E+00 0. -1.
         21    1    1    2  502  503  0.31594282012E+02  0.34684348945E+01  0.10089055575E+03  0.10577869793E+03  0.00000000000E+00 0.  1.
         21    1    1    2  503  501 -0.31594282012E+02 -0.34684348945E+01 -0.13274737778E+02  0.34444845182E+02  0.00000000000E+00 0. -1.
</event>
<event>
 4    1  0.6109945E+002  0.2373817E+02  0.7546771E-02  0.1483431E+00
          2   -1    0    0  502    0  0.00000000000E+00  0.00000000000E+00  0.18047761551E+01  0.18047761551E+01  0.00000000000E+00 0.  1.
         -2   -1    0    0    0  501 -0.00000000000E+00 -0.00000000000E+00 -0.51241389529E+03  0.51241389529E+03  0.00000000000E+00 0. -1.
         21    1    1    2  502  503  0.23133527370E+02 -0.53236067089E+01 -0.94601332167E+02  0.97534162860E+02  0.00000000000E+00 0.  1.
         21    1    1    2  503  501 -0.23133527370E+02  0.53236067089E+01 -0.41600778697E+03  0.41668450859E+03  0.00000000000E+00 0. -1.
</event>
<event>
 4    1  0.6109945E+002  0.2300617E+02  0.7546771E-02  0.1492421E+00
          2   -1    0    0  503    0  0.00000000000E+00  0.00000000000E+00  0.39655299338E+03  0.39655299338E+03  0.00000000000E+00 0.  1.
         -2   -1    0    0    0  501 -0.00000000000E+00 -0.00000000000E+00 -0.40339671747E+01  0.40339671747E+01  0.00000000000E+00 0. -1.
         21    1    1    2  502  501 -0.22710126759E+02  0.36788423002E+01  0.32418484721E+02  0.39752256409E+02  0.00000000000E+00 0. -1.
         21    1    1    2  503  502  0.22710126759E+02 -0.36788423002E+01  0.36010054148E+03  0.36083470414E+03  0.00000000000E+00 0.  1.
</event>
<event>
 4    1  0.6109945E+002  0.2316064E+02  0.7546771E-02  0.1490491E+00
          2   -1    0    0  502    0  0.00000000000E+00  0.00000000000E+00  0.45005975893E+01  0.45005975893E+01  0.00000000000E+00 0. -1.
         -2   -1    0    0    0  501 -0.00000000000E+00 -0.00000000000E+00 -0.19302696996E+03  0.19302696996E+03  0.00000000000E+00 0.  1.
         21    1    1    2  502  503  0.98082545158E+01 -0.20981262137E+02 -0.33178429232E+02  0.40462617115E+02  0.00000000000E+00 0. -1.
         21    1    1    2  503  501 -0.98082545158E+01  0.20981262137E+02 -0.15534794314E+03  0.15706495044E+03  0.00000000000E+00 0.  1.
</event>
<event>
 4    1  0.6109945E+002  0.2584837E+02  0.7546771E-02  0.1459532E+00
          2   -1    0    0  503    0  0.00000000000E+00  0.00000000000E+00  0.35020234054E+02  0.35020234054E+02  0.00000000000E+00 0. -1.
         -2   -1    0    0    0  501 -0.00000000000E+00 -0.00000000000E+00 -0.37387097090E+03  0.37387097090E+03  0.00000000000E+00 0.  1.
         21    1    1    2  502  501 -0.90419132127E+01  0.24215323307E+02 -0.36858624027E+03  0.36949148109E+03  0.00000000000E+00 0.  1.
         21    1    1    2  503  502  0.90419132127E+01 -0.24215323307E+02  0.29735503421E+02  0.39399723871E+02  0.00000000000E+00 0. -1.
</event>
<event>
 4    1  0.6109945E+002  0.2348183E+02  0.7546771E-02  0.1486535E+00
          2   -1    0    0  502    0  0.00000000000E+00  0.00000000000E+00  0.45973489338E+01  0.45973489338E+01  0.00000000000E+00 0. -1.
         -2   -1    0    0    0  501 -0.00000000000E+00 -0.00000000000E+00 -0.26123626618E+03  0.26123626618E+03  0.00000000000E+00 0.  1.
         21    1    1    2  502  503 -0.95891983124E+01 -0.21434641071E+02 -0.30566102698E+02  0.38544561176E+02  0.00000000000E+00 0. -1.
         21    1    1    2  503  501  0.95891983124E+01  0.21434641071E+02 -0.22607281454E+03  0.22728905393E+03  0.00000000000E+00 0.  1.
</event>
<event>
 4    1  0.6109945E+002  0.2179247E+02  0.7546771E-02  0.1508245E+00
          2   -1    0    0  503    0  0.00000000000E+00  0.00000000000E+00  0.17384137975E+01  0.17384137975E+01  0.00000000000E+00 0. -1.
         -2   -1    0    0    0  501 -0.00000000000E+00 -0.00000000000E+00 -0.35796011468E+03  0.35796011468E+03  0.00000000000E+00 0.  1.
         21    1    1    2  502  501 -0.18967636866E+02 -0.10730348680E+02 -0.26563361630E+03  0.26652603951E+03  0.00000000000E+00 0.  1.
         21    1    1    2  503  502  0.18967636866E+02  0.10730348680E+02 -0.90588084579E+02  0.93172488958E+02  0.00000000000E+00 0. -1.
</event>
<event>
 4    1  0.6109945E+002  0.2243428E+02  0.7546771E-02  0.1499727E+00
          2   -1    0    0  502    0  0.00000000000E+00  0.00000000000E+00  0.57167393581E+03  0.57167393581E+03  0.00000000000E+00 0. -1.
         -2   -1    0    0    0  501 -0.00000000000E+00 -0.00000000000E+00 -0.20898588548E+01  0.20898588548E+01  0.00000000000E+00 0.  1.
         21    1    1    2  502  503 -0.17074170599E+02 -0.14552311241E+02  0.50303572158E+03  0.50353573284E+03  0.00000000000E+00 0.  1.
         21    1    1    2  503  501  0.17074170599E+02  0.14552311241E+02  0.66548355374E+02  0.70228061821E+02  0.00000000000E+00 0. -1.
</event>
<event>
 4    1  0.6109945E+002  0.1145732E+03  0.7546771E-02  0.1140704E+00
          2   -1    0    0  503    0  0.00000000000E+00  0.00000000000E+00  0.13170430062E+04  0.13170430062E+04  0.00000000000E+00 0. -1.
         -2   -1    0    0    0  501 -0.00000000000E+00 -0.00000000000E+00 -0.14183617805E+02  0.14183617805E+02  0.00000000000E+00 0.  1.
         21    1    1    2  502  501 -0.10776203301E+03  0.38914688618E+02  0.28851128306E+03  0.31042836404E+03  0.00000000000E+00 0.  1.
         21    1    1    2  503  502  0.10776203301E+03 -0.38914688618E+02  0.10143481053E+04  0.10207982599E+04  0.00000000000E+00 0. -1.
</event>
<event>
 4    1  0.6109945E+002  0.2335368E+02  0.7546771E-02  0.1488104E+00
          2   -1    0    0  503    0  0.00000000000E+00  0.00000000000E+00  0.30756040195E+03  0.30756040195E+03  0.00000000000E+00 0.  1.
         -2   -1    0    0    0  501 -0.00000000000E+00 -0.00000000000E+00 -0.63702775384E+01  0.63702775384E+01  0.00000000000E+00 0. -1.
         21    1    1    2  502  501  0.20399531440E+02 -0.11368967272E+02  0.28393528351E+03  0.28489408474E+03  0.00000000000E+00 0.  1.
         21    1    1    2  503  502 -0.20399531440E+02  0.11368967272E+02  0.17254840900E+02  0.29036594743E+02  0.00000000000E+00 0. -1.
</event>
<event>
 4    1  0.6109945E+002  0.2112668E+02  0.7546771E-02  0.1517464E+00
          2   -1    0    0  502    0  0.00000000000E+00  0.00000000000E+00  0.33982768522E+03  0.33982768522E+03  0.00000000000E+00 0.  1.
         -2   -1    0    0    0  501 -0.00000000000E+00 -0.00000000000E+00 -0.18331029427E+01  0.18331029427E+01  0.00000000000E+00 0. -1.
         21    1    1    2  502  503  0.20900036096E+02  0.30862917627E+01  0.25995524186E+03  0.26081231657E+03  0.00000000000E+00 0.  1.
         21    1    1    2  503  501 -0.20900036096E+02 -0.30862917627E+01  0.78039340420E+02  0.80848471592E+02  0.00000000000E+00 0. -1.
</event>
<event>
 4    1  0.6109945E+002  0.2847470E+02  0.7546771E-02  0.1433332E+00
          2   -1    0    0  503    0  0.00000000000E+00  0.00000000000E+00  0.40167285898E+03  0.40167285898E+03  0.00000000000E+00 0. -1.
         -2   -1    0    0    0  501 -0.00000000000E+00 -0.00000000000E+00 -0.22704894934E+01  0.22704894934E+01  0.00000000000E+00 0.  1.
         21    1    1    2  502  501  0.18304746967E+02  0.21811570303E+02  0.13242615060E+03  0.13545292069E+03  0.00000000000E+00 0.  1.
         21    1    1    2  503  502 -0.18304746967E+02 -0.21811570303E+02  0.26697621889E+03  0.26849042779E+03  0.00000000000E+00 0. -1.
</event>
<event>
 4    1  0.6109945E+002  0.2120070E+02  0.7546771E-02  0.1516419E+00
          2   -1    0    0  502    0  0.00000000000E+00  0.00000000000E+00  0.11096393339E+02  0.11096393339E+02  0.00000000000E+00 0. -1.
         -2   -1    0    0    0  501 -0.00000000000E+00 -0.00000000000E+00 -0.10674003631E+03  0.10674003631E+03  0.00000000000E+00 0.  1.
         21    1    1    2  502  503 -0.57451152399E+01  0.20407431048E+02 -0.14101949977E+01  0.21247546706E+02  0.00000000000E+00 0. -1.
         21    1    1    2  503  501  0.57451152399E+01 -0.20407431048E+02 -0.94233447972E+02  0.96588882941E+02  0.00000000000E+00 0.  1.
</event>
<event>
 4    1  0.6109945E+002  0.2386804E+02  0.7546771E-02  0.1481877E+00
          2   -1    0    0  502    0  0.00000000000E+00  0.00000000000E+00  0.14716558841E+04  0.14716558841E+04  0.00000000000E+00 0.  1.
         -2   -1    0    0    0  501 -0.00000000000E+00 -0.00000000000E+00 -0.46695713501E+00  0.46695713501E+00  0.00000000000E+00 0. -1.
         21    1    1    2  502  503  0.15450861521E+02  0.18192144916E+02  0.10399790668E+04  0.10402529224E+04  0.00000000000E+00 0.  1.
         21    1    1    2  503  501 -0.15450861521E+02 -0.18192144916E+02  0.43120986020E+03  0.43186991883E+03  0.00000000000E+00 0. -1.
</event>
<event>
 4    1  0.6109945E+002  0.2333831E+02  0.7546771E-02  0.1488293E+00
          2   -1    0    0  502    0  0.00000000000E+00  0.00000000000E+00  0.11325056644E+02  0.11325056644E+02  0.00000000000E+00 0. -1.
         -2   -1    0    0    0  501 -0.00000000000E+00 -0.00000000000E+00 -0.12954117339E+03  0.12954117339E+03  0.00000000000E+00 0.  1.
         21    1    1    2  502  503 -0.22969235769E+02 -0.41341116022E+01 -0.32599099471E+01  0.23564882419E+02  0.00000000000E+00 0. -1.
         21    1    1    2  503  501  0.22969235769E+02  0.41341116022E+01 -0.11495620680E+03  0.11730134761E+03  0.00000000000E+00 0.  1.
</event>
<event>
 4    1  0.6109945E+002  0.2296130E+02  0.7546771E-02  0.1492985E+00
          2   -1    0    0  502    0  0.00000000000E+00  0.00000000000E+00  0.19962290084E+02  0.19962290084E+02  0.00000000000E+00 0. -1.
         -2   -1    0    0    0  501 -0.00000000000E+00 -0.00000000000E+00 -0.36847281441E+02  0.36847281441E+02  0.00000000000E+00 0.  1.
         21    1    1    2  502  503 -0.21349646791E+02 -0.84506687292E+01  0.66744699737E+01  0.23911707791E+02  0.00000000000E+00 0.  1.
         21    1    1    2  503  501  0.21349646791E+02  0.84506687292E+01 -0.23559461330E+02  0.32897863734E+02  0.00000000000E+00 0. -1.
</event>
<event>
 4    1  0.6109945E+002  0.4442054E+02  0.7546771E-02  0.1324362E+00
          2   -1    0    0  503    0  0.00000000000E+00  0.00000000000E+00  0.15077204079E+04  0.15077204079E+04  0.00000000000E+00 0.  1.
         -2   -1    0    0    0  501 -0.00000000000E+00 -0.00000000000E+00 -0.15175841487E+01  0.15175841487E+01  0.00000000000E+00 0. -1.
         21    1    1    2  502  501 -0.42316109064E+02 -0.13510418390E+02  0.47314987757E+03  0.47523046108E+03  0.00000000000E+00 0. -1.
         21    1    1    2  503  502  0.42316109064E+02  0.13510418390E+02  0.10330529462E+04  0.10340075310E+04  0.00000000000E+00 0.  1.
</event>
<event>
 4    1  0.6109945E+002  0.1023461E+03  0.7546771E-02  0.1159804E+00
          2   -1    0    0  503    0  0.00000000000E+00  0.00000000000E+00  0.95752962560E+02  0.95752962560E+02  0.00000000000E+00 0.  1.
         -2   -1    0    0    0  501 -0.00000000000E+00 -0.00000000000E+00 -0.10980149675E+03  0.10980149675E+03  0.00000000000E+00 0. -1.
         21    1    1    2  502  501  0.96794890360E+02  0.33248534576E+02 -0.13292142415E+02  0.10320560499E+03  0.00000000000E+00 0.  1.
         21    1    1    2  503  502 -0.96794890360E+02 -0.33248534576E+02 -0.75639177110E+00  0.10234885432E+03  0.00000000000E+00 0. -1.
</event>
<event>
 4    1  0.6109945E+002  0.2066224E+02  0.7546771E-02  0.1524142E+00
          2   -1    0    0  503    0  0.00000000000E+00  0.00000000000E+00  0.14006019245E+04  0.14006019245E+04  0.00000000000E+00 0.  1.
         -2   -1    0    0    0  501 -0.00000000000E+00 -0.00000000000E+00 -0.44014870178E+00  0.44014870178E+00  0.00000000000E+00 0. -1.
         21    1    1    2  502  501  0.37224493594E+01 -0.20324161614E+02  0.10885175487E+04  0.10887136364E+04  0.00000000000E+00 0.  1.
         21    1    1    2  503  502 -0.37224493594E+01  0.20324161614E+02  0.31164422705E+03  0.31232843680E+03  0.00000000000E+00 0. -1.
</event>
<event>
 4    1  0.6109945E+002  0.2695143E+02  0.7546771E-02  0.1448097E+00
          2   -1    0    0  502    0  0.00000000000E+00  0.00000000000E+00  0.14966891188E+04  0.14966891188E+04  0.00000000000E+00 0. -1.
         -2   -1    0    0    0  501 -0.00000000000E+00 -0.00000000000E+00 -0.72139526851E+00  0.72139526851E+00  0.00000000000E+00 0.  1.
         21    1    1    2  502  503 -0.23871214169E+02 -0.12511793522E+02  0.11762812032E+04  0.11765899238E+04  0.00000000000E+00 0. -1.
         21    1    1    2  503  501  0.23871214169E+02  0.12511793522E+02  0.31968652034E+03  0.32082059025E+03  0.00000000000E+00 0.  1.
</event>
<event>
 4    1  0.6109945E+002  0.2506790E+02  0.7546771E-02  0.1468045E+00
          2   -1    0    0  503    0  0.00000000000E+00  0.00000000000E+00  0.12691159946E+04  0.12691159946E+04  0.00000000000E+00 0. -1.
         -2   -1    0    0    0  501 -0.00000000000E+00 -0.00000000000E+00 -0.50685052465E+00  0.50685052465E+00  0.00000000000E+00 0.  1.
         21    1    1    2  502  501 -0.89715587139E+01 -0.23407491725E+02  0.53784285838E+03  0.53842672653E+03  0.00000000000E+00 0. -1.
         21    1    1    2  503  502  0.89715587139E+01  0.23407491725E+02  0.73076628570E+03  0.73119611860E+03  0.00000000000E+00 0.  1.
</event>
<event>
 4    1  0.6109945E+002  0.2687305E+02  0.7546771E-02  0.1448888E+00
          2   -1    0    0  502    0  0.00000000000E+00  0.00000000000E+00  0.16974501381E+03  0.16974501381E+03  0.00000000000E+00 0.  1.
         -2   -1    0    0    0  501 -0.00000000000E+00 -0.00000000000E+00 -0.91793916410E+01  0.91793916410E+01  0.00000000000E+00 0. -1.
         21    1    1    2  502  503 -0.25188868127E+02  0.93638472110E+01  0.14581218657E+03  0.14826784703E+03  0.00000000000E+00 0.  1.
         21    1    1    2  503  501  0.25188868127E+02 -0.93638472110E+01  0.14753435604E+02  0.30656558421E+02  0.00000000000E+00 0. -1.
</event>
<event>
 4    1  0.6109945E+002  0.3271452E+02  0.7546771E-02  0.1397384E+00
          2   -1    0    0  502    0  0.00000000000E+00  0.00000000000E+00  0.21240214503E+02  0.21240214503E+02  0.00000000000E+00 0. -1.
         -2   -1    0    0    0  501 -0.00000000000E+00 -0.00000000000E+00 -0.57665400567E+02  0.57665400567E+02  0.00000000000E+00 0.  1.
         21    1    1    2  502  503 -0.28721783544E+02  0.15662016581E+02 -0.41965411308E+01  0.32982579808E+02  0.00000000000E+00 0.  1.
         21    1    1    2  503  501  0.28721783544E+02 -0.15662016581E+02 -0.32228644934E+02  0.45923035262E+02  0.00000000000E+00 0. -1.
</event>
<event>
 4    1  0.6109945E+002  0.2285761E+02  0.7546771E-02  0.1494294E+00
          2   -1    0    0  503    0  0.00000000000E+00  0.00000000000E+00  0.35436635067E+03  0.35436635067E+03  0.00000000000E+00 0. -1.
         -2   -1    0    0    0  501 -0.00000000000E+00 -0.00000000000E+00 -0.10283800541E+03  0.10283800541E+03  0.00000000000E+00 0.  1.
         21    1    1    2  502  501  0.12890766187E+02  0.18875864728E+02 -0.10119336577E+03  0.10374279444E+03  0.00000000000E+00 0.  1.
         21    1    1    2  503  502 -0.12890766187E+02 -0.18875864728E+02  0.35272171103E+03  0.35346156164E+03  0.00000000000E+00 0. -1.
</event>
<event>
 4    1  0.6109945E+002  0.2218255E+02  0.7546771E-02  0.1503026E+00
          2   -1    0    0  502    0  0.00000000000E+00  0.00000000000E+00  0.30252297111E+03  0.30252297111E+03  0.00000000000E+00 0.  1.
         -2   -1    0    0    0  501 -0.00000000000E+00 -0.00000000000E+00 -0.20215389507E+01  0.20215389507E+01  0.00000000000E+00 0. -1.
         21    1    1    2  502  503  0.18559759068E+00 -0.22181769030E+02  0.21756053181E+03  0.21868847780E+03  0.00000000000E+00 0.  1.
         21    1    1    2  503  501 -0.18559759068E+00  0.22181769030E+02  0.82940900355E+02  0.85856032260E+02  0.00000000000E+00 0. -1.
</event>
<event>
 4    1  0.6109945E+002  0.3731939E+02  0.7546771E-02  0.1364953E+00
          2   -1    0    0  502    0  0.00000000000E+00  0.00000000000E+00  0.16419849428E+04  0.16419849428E+04  0.00000000000E+00 0.  1.
         -2   -1    0    0    0  501 -0.00000000000E+00 -0.00000000000E+00 -0.11182450408E+01  0.11182450408E+01  0.00000000000E+00 0. -1.
         21    1    1    2  502  503 -0.20298389655E+02  0.31316328546E+02  0.12241547735E+04  0.12247234980E+04  0.00000000000E+00 0.  1.
         21    1    1    2  503  501  0.20298389655E+02 -0.31316328546E+02  0.41671192419E+03  0.41837968978E+03  0.00000000000E+00 0. -1.
</event>
<event>
 4    1  0.6109945E+002  0.9853187E+02  0.7546771E-02  0.1166377E+00
          2   -1    0    0  503    0  0.00000000000E+00  0.00000000000E+00  0.13200068213E+04  0.13200068213E+04  0.00000000000E+00 0.  1.
         -2   -1    0    0    0  501 -0.00000000000E+00 -0.00000000000E+00 -0.34891177737E+02  0.34891177737E+02  0.00000000000E+00 0. -1.
         21    1    1    2  502  501 -0.98478961179E+02 -0.32285566558E+01  0.40731274685E+02  0.10661878873E+03  0.00000000000E+00 0. -1.
         21    1    1    2  503  502  0.98478961179E+02  0.32285566558E+01  0.12443843689E+04  0.12482792103E+04  0.00000000000E+00 0.  1.
</event>
<event>
 4    1  0.6109945E+002  0.2138929E+02  0.7546771E-02  0.1513779E+00
          2   -1    0    0  502    0  0.00000000000E+00  0.00000000000E+00  0.48724053046E+01  0.48724053046E+01  0.00000000000E+00 0. -1.
         -2   -1    0    0    0  501 -0.00000000000E+00 -0.00000000000E+00 -0.17328410793E+03  0.17328410793E+03  0.00000000000E+00 0.  1.
         21    1    1    2  502  503  0.93613837957E+01 -0.19231905930E+02 -0.23912593420E+02  0.32082921256E+02  0.00000000000E+00 0. -1.
         21    1    1    2  503  501 -0.93613837957E+01  0.19231905930E+02 -0.14449910920E+03  0.14607359198E+03  0.00000000000E+00 0.  1.
</event>
<event>
 4    1  0.6109945E+002  0.3742715E+02  0.7546771E-02  0.1364260E+00
          2   -1    0    0  502    0  0.00000000000E+00  0.00000000000E+00  0.19070203384E+04  0.19070203384E+04  0.00000000000E+00 0. -1.
         -2   -1    0    0    0  501 -0.00000000000E+00 -0.00000000000E+00 -0.12187156345E+01  0.12187156345E+01  0.00000000000E+00 0.  1.
         21    1    1    2  502  503  0.12578406655E+02  0.35250183086E+02  0.15542835258E+04  0.15547340835E+04  0.00000000000E+00 0. -1.
         21    1    1    2  503  501 -0.12578406655E+02 -0.35250183086E+02  0.35151809698E+03  0.35350497058E+03  0.00000000000E+00 0.  1.
</event>
<event>
 4    1  0.6109945E+002  0.2185149E+02  0.7546771E-02  0.1507446E+00
          2   -1    0    0  502    0  0.00000000000E+00  0.00000000000E+00  0.22501674696E+03  0.22501674696E+03  0.00000000000E+00 0. -1.
         -2   -1    0    0    0  501 -0.00000000000E+00 -0.00000000000E+00 -0.21681938815E+01  0.21681938815E+01  0.00000000000E+00 0.  1.
         21    1    1    2  502  503 -0.10661348736E+02 -0.19074153309E+02  0.12800287890E+03  0.12985462905E+03  0.00000000000E+00 0.  1.
         21    1    1    2  503  501  0.10661348736E+02  0.19074153309E+02  0.94845674179E+02  0.97330311783E+02  0.00000000000E+00 0. -1.
</event>
<event>
 4    1  0.6109945E+002  0.3928258E+02  0.7546771E-02  0.1352742E+00
          2   -1    0    0  503    0  0.00000000000E+00  0.00000000000E+00  0.42069927552E+04  0.42069927552E+04  0.00000000000E+00 0.  1.
         -2   -1    0    0    0  501 -0.00000000000E+00 -0.00000000000E+00 -0.40819574474E+00  0.40819574474E+00  0.00000000000E+00 0. -1.
         21    1    1    2  502  501  0.39260773514E+02  0.13086008143E+01  0.27732273570E+04  0.27735055605E+04  0.00000000000E+00 0.  1.
         21    1    1    2  503  502 -0.39260773514E+02 -0.13086008143E+01  0.14333572025E+04  0.14338953905E+04  0.00000000000E+00 0. -1.
</event>
<event>
 4    1  0.6109945E+002  0.2195671E+02  0.7546771E-02  0.1506031E+00
          2   -1    0    0  503    0  0.00000000000E+00  0.00000000000E+00  0.73271472180E+03  0.73271472180E+03  0.00000000000E+00 0. -1.
         -2   -1    0    0    0  501 -0.00000000000E+00 -0.00000000000E+00 -0.80341850625E+00  0.80341850625E+00  0.00000000000E+00 0.  1.
         21    1    1    2  502  501 -0.51045912509E+01 -0.21355103956E+02  0.20990024507E+03  0.21104551689E+03  0.00000000000E+00 0.  1.
         21    1    1    2  503  502  0.51045912509E+01  0.21355103956E+02  0.52201105823E+03  0.52247262342E+03  0.00000000000E+00 0. -1.
</event>
<event>
 4    1  0.6109945E+002  0.4586180E+02  0.7546771E-02  0.1317185E+00
          2   -1    0    0  503    0  0.00000000000E+00  0.00000000000E+00  0.85100121893E+02  0.85100121893E+02  0.00000000000E+00 0.  1.
         -2   -1    0    0    0  501 -0.00000000000E+00 -0.00000000000E+00 -0.15700538109E+03  0.15700538109E+03  0.00000000000E+00 0. -1.
         21    1    1    2  502  501  0.44723886352E+02 -0.10152785524E+02 -0.14706961714E+03  0.15405446229E+03  0.00000000000E+00 0. -1.
         21    1    1    2  503  502 -0.44723886352E+02  0.10152785524E+02  0.75164357938E+02  0.88051040702E+02  0.00000000000E+00 0.  1.
</event>
<event>
 4    1  0.6109945E+002  0.2058848E+02  0.7546771E-02  0.1525222E+00
          2   -1    0    0  502    0  0.00000000000E+00  0.00000000000E+00  0.68994042583E+03  0.68994042583E+03  0.00000000000E+00 0.  1.
         -2   -1    0    0    0  501 -0.00000000000E+00 -0.00000000000E+00 -0.70019673260E+00  0.70019673260E+00  0.00000000000E+00 0. -1.
         21    1    1    2  502  503  0.69080968136E+01  0.19394938614E+02  0.46551241279E+03  0.46596747945E+03  0.00000000000E+00 0. -1.
         21    1    1    2  503  501 -0.69080968136E+01 -0.19394938614E+02  0.22372781631E+03  0.22467314311E+03  0.00000000000E+00 0.  1.
</event>
<event>
 4    1  0.6109945E+002  0.3962321E+02  0.7546771E-02  0.1350708E+00
          2   -1    0    0  503    0  0.00000000000E+00  0.00000000000E+00  0.63568481631E+03  0.63568481631E+03  0.00000000000E+00 0.  1.
         -2   -1    0    0    0  501 -0.00000000000E+00 -0.00000000000E+00 -0.12782498807E+02  0.12782498807E+02  0.00000000000E+00 0. -1.
         21    1    1    2  502  501 -0.27082117461E+02 -0.28923303304E+02  0.20220625585E+02  0.44484517073E+02  0.00000000000E+00 0. -1.
         21    1    1    2  503  502  0.27082117461E+02  0.28923303304E+02  0.60268169192E+03  0.60398279804E+03  0.00000000000E+00 0.  1.
</event>
<event>
 4    1  0.6109945E+002  0.2072753E+02  0.7546771E-02  0.1523191E+00
          2   -1    0    0  502    0  0.00000000000E+00  0.00000000000E+00  0.74603741043E+02  0.74603741043E+02  0.00000000000E+00 0.  1.
         -2   -1    0    0    0  501 -0.00000000000E+00 -0.00000000000E+00 -0.63240527012E+01  0.63240527012E+01  0.00000000000E+00 0. -1.
         21    1    1    2  502  503  0.20723715756E+02  0.39750743442E+00  0.22042806948E+02  0.30257490726E+02  0.00000000000E+00 0. -1.
         21    1    1    2  503  501 -0.20723715756E+02 -0.39750743442E+00  0.46236881394E+02  0.50670303018E+02  0.00000000000E+00 0.  1.
</event>
<event>
 4    1  0.6109945E+002  0.3663572E+02  0.7546771E-02  0.1369414E+00
          2   -1    0    0  502    0  0.00000000000E+00  0.00000000000E+00  0.11045068471E+02  0.11045068471E+02  0.00000000000E+00 0.  1.
         -2   -1    0    0    0  501 -0.00000000000E+00 -0.00000000000E+00 -0.14642547383E+03  0.14642547383E+03  0.00000000000E+00 0. -1.
         21    1    1    2  502  503 -0.26507523765E+02 -0.25288880718E+02 -0.10016336091E+03  0.10665305984E+03  0.00000000000E+00 0. -1.
         21    1    1    2  503  501  0.26507523765E+02  0.25288880718E+02 -0.35217044452E+02  0.50817482465E+02  0.00000000000E+00 0.  1.
</event>
<event>
 4    1  0.6109945E+002  0.2133904E+02  0.7546771E-02  0.1514479E+00
          2   -1    0    0  503    0  0.00000000000E+00  0.00000000000E+00  0.16087010863E+04  0.16087010863E+04  0.00000000000E+00 0. -1.
         -2   -1    0    0    0  501 -0.00000000000E+00 -0.00000000000E+00 -0.28902950057E+01  0.28902950057E+01  0.00000000000E+00 0.  1.
         21    1    1    2  502  501  0.21140929645E+02  0.29009560601E+01  0.37583435250E+02  0.43218850720E+02  0.00000000000E+00 0.  1.
         21    1    1    2  503  502 -0.21140929645E+02 -0.29009560601E+01  0.15682273560E+04  0.15683725306E+04  0.00000000000E+00 0. -1.
</event>
<event>
 4    1  0.6109945E+002  0.2210649E+02  0.7546771E-02  0.1504033E+00
          2   -1    0    0  502    0  0.00000000000E+00  0.00000000000E+00  0.17642278926E+03  0.17642278926E+03  0.00000000000E+00 0.  1.
         -2   -1    0    0    0  501 -0.00000000000E+00 -0.00000000000E+00 -0.18190558413E+02  0.18190558413E+02  0.00000000000E+00 0. -1.
         21    1    1    2  502  503  0.20398290455E+02 -0.85209446403E+01  0.16870811167E+03  0.17015029737E+03  0.00000000000E+00 0.  1.
         21    1    1    2  503  501 -0.20398290455E+02  0.85209446403E+01 -0.10475880826E+02  0.24463050303E+02  0.00000000000E+00 0. -1.
</event>
<event>
 4    1  0.6109945E+002  0.2223905E+02  0.7546771E-02  0.1502281E+00
          2   -1    0    0  502    0  0.00000000000E+00  0.00000000000E+00  0.18202237506E+01  0.18202237506E+01  0.00000000000E+00 0.  1.
         -2   -1    0    0    0  501 -0.00000000000E+00 -0.00000000000E+00 -0.27219969914E+03  0.27219969914E+03  0.00000000000E+00 0. -1.
         21    1    1    2  502  503  0.78933569993E+01  0.20791115437E+02 -0.14099264809E+03  0.14273577822E+03  0.00000000000E+00 0. -1.
         21    1    1    2  503  501 -0.78933569993E+01 -0.20791115437E+02 -0.12938682729E+03  0.13128414467E+03  0.00000000000E+00 0.  1.
</event>
<event>
 4    1  0.6109945E+002  0.3301939E+02  0.7546771E-02  0.1395049E+00
          2   -1    0    0  503    0  0.00000000000E+00  0.00000000000E+00  0.24260014153E+03  0.24260014153E+03  0.00000000000E+00 0. -1.
         -2   -1    0    0    0  501 -0.00000000000E+00 -0.00000000000E+00 -0.53972980345E+01  0.53972980345E+01  0.00000000000E+00 0.  1.
         21    1    1    2  502  501 -0.30751859897E+02 -0.12025114842E+02  0.67877874958E+02  0.75483019169E+02  0.00000000000E+00 0.  1.
         21    1    1    2  503  502  0.30751859897E+02  0.12025114842E+02  0.16932496853E+03  0.17251442039E+03  0.00000000000E+00 0. -1.
</event>
<event>
 4    1  0.6109945E+002  0.2099062E+02  0.7546771E-02  0.1519399E+00
          2   -1    0    0  503    0  0.00000000000E+00  0.00000000000E+00  0.52681139679E+03  0.52681139679E+03  0.00000000000E+00 0.  1.
         -2   -1    0    0    0  501 -0.00000000000E+00 -0.00000000000E+00 -0.26357277422E+01  0.26357277422E+01  0.00000000000E+00 0. -1.
         21    1    1    2  502  501 -0.17284130979E+02 -0.11910712198E+02  0.43361150011E+02  0.48174636263E+02  0.00000000000E+00 0. -1.
         21    1    1    2  503  502  0.17284130979E+02  0.11910712198E+02  0.48081451904E+03  0.48127248827E+03  0.00000000000E+00 0.  1.
</event>
<event>
 4    1  0.6109945E+002  0.3871970E+02  0.7546771E-02  0.1356156E+00
          2   -1    0    0  503    0  0.00000000000E+00  0.00000000000E+00  0.25952064899E+01  0.25952064899E+01  0.00000000000E+00 0.  1.
         -2   -1    0    0    0  501 -0.00000000000E+00 -0.00000000000E+00 -0.14065876574E+04  0.14065876574E+04  0.00000000000E+00 0. -1.
         21    1    1    2  502  501  0.28930040470E+02 -0.25734568311E+02 -0.12428817773E+04  0.12434847517E+04  0.00000000000E+00 0. -1.
         21    1    1    2  503  502 -0.28930040470E+02  0.25734568311E+02 -0.16111067359E+03  0.16569811222E+03  0.00000000000E+00 0.  1.
</event>
<event>
 4    1  0.6109945E+002  0.3659403E+02  0.7546771E-02  0.1369690E+00
          2   -1    0    0  502    0  0.00000000000E+00  0.00000000000E+00  0.61210299234E+03  0.61210299234E+03  0.00000000000E+00 0.  1.
         -2   -1    0    0    0  501 -0.00000000000E+00 -0.00000000000E+00 -0.33346258912E+01  0.33346258912E+01  0.00000000000E+00 0. -1.
         21    1    1    2  502  503  0.35951396856E+02 -0.68279028584E+01  0.48484805971E+03  0.48622707061E+03  0.00000000000E+00 0.  1.
         21    1    1    2  503  501 -0.35951396856E+02  0.68279028584E+01  0.12392030674E+03  0.12921054762E+03  0.00000000000E+00 0. -1.
</event>
<event>
 4    1  0.6109945E+002  0.6141144E+02  0.7546771E-02  0.1255111E+00
          2   -1    0    0  503    0  0.00000000000E+00  0.00000000000E+00  0.12406286706E+04  0.12406286706E+04  0.00000000000E+00 0. -1.
         -2   -1    0    0    0  501 -0.00000000000E+00 -0.00000000000E+00 -0.30870692800E+01  0.30870692800E+01  0.00000000000E+00 0.  1.
         21    1    1    2  502  501 -0.21399121611E+02  0.57562506995E+02  0.54188768671E+03  0.54535642439E+03  0.00000000000E+00 0.  1.
         21    1    1    2  503  502  0.21399121611E+02 -0.57562506995E+02  0.69565391464E+03  0.69835931552E+03  0.00000000000E+00 0. -1.
</event>
<event>
 4    1  0.6109945E+002  0.2900405E+02  0.7546771E-02  0.1428453E+00
          2   -1    0    0  502    0  0.00000000000E+00  0.00000000000E+00  0.81699733008E+02  0.81699733008E+02  0.00000000000E+00 0.  1.
         -2   -1    0    0    0  501 -0.00000000000E+00 -0.00000000000E+00 -0.20557630561E+02  0.20557630561E+02  0.00000000000E+00 0. -1.
         21    1    1    2  502  503 -0.18383742406E+02 -0.22433739376E+02  0.66693086875E+02  0.72726903441E+02  0.00000000000E+00 0.  1.
         21    1    1    2  503  501  0.18383742406E+02  0.22433739376E+02 -0.55509844290E+01  0.29530460128E+02  0.00000000000E+00 0. -1.
</event>
<event>
 4    1  0.6109945E+002  0.2359876E+02  0.7546771E-02  0.1485113E+00
          2   -1    0    0  503    0  0.00000000000E+00  0.00000000000E+00  0.78422068564E+03  0.78422068564E+03  0.00000000000E+00 0. -1.
         -2   -1    0    0    0  501 -0.00000000000E+00 -0.00000000000E+00 -0.13532765327E+01  0.13532765327E+01  0.00000000000E+00 0.  1.
         21    1    1    2  502  501  0.18413124279E+02  0.14760020865E+02  0.12065306983E+03  0.12293927209E+03  0.00000000000E+00 0.  1.
         21    1    1    2  503  502 -0.18413124279E+02 -0.14760020865E+02  0.66221433927E+03  0.66263469008E+03  0.00000000000E+00 0. -1.
</event>
<event>
 4    1  0.6109945E+002  0.2094468E+02  0.7546771E-02  0.1520056E+00
          2   -1    0    0  503    0  0.00000000000E+00  0.00000000000E+00  0.46177909242E+03  0.46177909242E+03  0.00000000000E+00 0.  1.
         -2   -1    0    0    0  501 -0.00000000000E+00 -0.00000000000E+00 -0.16742814662E+01  0.16742814662E+01  0.00000000000E+00 0. -1.
         21    1    1    2  502  501  0.20942506030E+02  0.30202013807E+00  0.77639328252E+02  0.80414831135E+02  0.00000000000E+00 0. -1.
         21    1    1    2  503  502 -0.20942506030E+02 -0.30202013807E+00  0.38246548270E+03  0.38303854275E+03  0.00000000000E+00 0.  1.
</event>
<event>
 4    1  0.6109945E+002  0.3262221E+02  0.7546771E-02  0.1398097E+00
          2   -1    0    0  503    0  0.00000000000E+00  0.00000000000E+00  0.37972599761E+01  0.37972599761E+01  0.00000000000E+00 0.  1.
         -2   -1    0    0    0  501 -0.00000000000E+00 -0.00000000000E+00 -0.69454591108E+03  0.69454591108E+03  0.00000000000E+00 0. -1.
         21    1    1    2  502  501 -0.37033250483E+01 -0.32411328271E+02 -0.61504893127E+03  0.61591346525E+03  0.00000000000E+00 0. -1.
         21    1    1    2  503  502  0.37033250483E+01  0.32411328271E+02 -0.75699719829E+02  0.82429705804E+02  0.00000000000E+00 0.  1.
</event>
<event>
 4    1  0.6109945E+002  0.3138422E+02  0.7546771E-02  0.1407937E+00
          2   -1    0    0  502    0  0.00000000000E+00  0.00000000000E+00  0.14365352927E+03  0.14365352927E+03  0.00000000000E+00 0. -1.
         -2   -1    0    0    0  501 -0.00000000000E+00 -0.00000000000E+00 -0.10919055370E+02  0.10919055370E+02  0.00000000000E+00 0.  1.
         21    1    1    2  502  503  0.13148542711E+02  0.28497105486E+02  0.11350905435E+03  0.11776788449E+03  0.00000000000E+00 0. -1.
         21    1    1    2  503  501 -0.13148542711E+02 -0.28497105486E+02  0.19225419547E+02  0.36804700152E+02  0.00000000000E+00 0.  1.
</event>
<event>
 4    1  0.6109945E+002  0.2008689E+02  0.7546771E-02  0.1532712E+00
          2   -1    0    0  503    0  0.00000000000E+00  0.00000000000E+00  0.16419511330E+02  0.16419511330E+02  0.00000000000E+00 0.  1.
         -2   -1    0    0    0  501 -0.00000000000E+00 -0.00000000000E+00 -0.25549650626E+02  0.25549650626E+02  0.00000000000E+00 0. -1.
         21    1    1    2  502  501 -0.96881021387E+01  0.17596136457E+02 -0.86669863284E+01  0.21876928333E+02  0.00000000000E+00 0. -1.
         21    1    1    2  503  502  0.96881021387E+01 -0.17596136457E+02 -0.46315296758E+00  0.20092233622E+02  0.00000000000E+00 0.  1.
</event>
<event>
 4    1  0.6109945E+002  0.2144292E+02  0.7546771E-02  0.1513034E+00
          2   -1    0    0  503    0  0.00000000000E+00  0.00000000000E+00  0.85386580115E+03  0.85386580115E+03  0.00000000000E+00 0.  1.
         -2   -1    0    0    0  501 -0.00000000000E+00 -0.00000000000E+00 -0.77238551558E+00  0.77238551558E+00  0.00000000000E+00 0. -1.
         21    1    1    2  502  501  0.20705902962E+02 -0.55735551370E+01  0.19139649191E+03  0.19259391488E+03  0.00000000000E+00 0.  1.
         21    1    1    2  503  502 -0.20705902962E+02  0.55735551370E+01  0.66169692373E+03  0.66204427178E+03  0.00000000000E+00 0. -1.
</event>
<event>
 4    1  0.6109945E+002  0.2468009E+02  0.7546771E-02  0.1472414E+00
          2   -1    0    0  502    0  0.00000000000E+00  0.00000000000E+00  0.18088547755E+04  0.18088547755E+04  0.00000000000E+00 0.  1.
         -2   -1    0    0    0  501 -0.00000000000E+00 -0.00000000000E+00 -0.45612507870E+00  0.45612507870E+00  0.00000000000E+00 0. -1.
         21    1    1    2  502  503  0.13529739632E+02 -0.20641050072E+02  0.13670311847E+04  0.13672539511E+04  0.00000000000E+00 0.  1.
         21    1    1    2  503  501 -0.13529739632E+02  0.20641050072E+02  0.44136746574E+03  0.44205694952E+03  0.00000000000E+00 0. -1.
</event>
<event>
 4    1  0.6109945E+002  0.2022813E+02  0.7546771E-02  0.1530577E+00
          2   -1    0    0  502    0  0.00000000000E+00  0.00000000000E+00  0.79790373487E+00  0.79790373487E+00  0.00000000000E+00 0.  1.
         -2   -1    0    0    0  501 -0.00000000000E+00 -0.00000000000E+00 -0.52254631770E+03  0.52254631770E+03  0.00000000000E+00 0. -1.
         21    1    1    2  502  503 -0.16262183980E+01  0.20162650051E+02 -0.29658337741E+03  0.29727239495E+03  0.00000000000E+00 0.  1.
         21    1    1    2  503  501  0.16262183980E+01 -0.20162650051E+02 -0.22516503655E+03  0.22607182648E+03  0.00000000000E+00 0. -1.
</event>
<event>
 4    1  0.6109945E+002  0.2818725E+02  0.7546771E-02  0.1436033E+00
          2   -1    0    0  502    0  0.00000000000E+00  0.00000000000E+00  0.96968817629E+03  0.96968817629E+03  0.00000000000E+00 0.  1.
         -2   -1    0    0    0  501 -0.00000000000E+00 -0.00000000000E+00 -0.82172601295E+00  0.82172601295E+00  0.00000000000E+00 0. -1.
         21    1    1    2  502  503 -0.11994896582E+02 -0.25507716115E+02  0.45838015273E+03  0.45924599677E+03  0.00000000000E+00 0.  1.
         21    1    1    2  503  501  0.11994896582E+02  0.25507716115E+02  0.51048629754E+03  0.51126390554E+03  0.00000000000E+00 0. -1.
</event>
<event>
 4    1  0.6109945E+002  0.2625633E+02  0.7546771E-02  0.1455225E+00
          2   -1    0    0  502    0  0.00000000000E+00  0.00000000000E+00  0.51141835580E+02  0.51141835580E+02  0.00000000000E+00 0.  1.
         -2   -1    0    0    0  501 -0.00000000000E+00 -0.00000000000E+00 -0.13743150586E+02  0.13743150586E+02  0.00000000000E+00 0. -1.
         21    1    1    2  502  503 -0.71842770620E-01  0.26256227200E+02  0.23188139018E+02  0.35029764762E+02  0.00000000000E+00 0.  1.
         21    1    1    2  503  501  0.71842770620E-01 -0.26256227200E+02  0.14210545976E+02  0.29855221404E+02  0.00000000000E+00 0. -1.
</event>
<event>
 4    1  0.6109945E+002  0.3076514E+02  0.7546771E-02  0.1413062E+00
          2   -1    0    0  503    0  0.00000000000E+00  0.00000000000E+00  0.36604237847E+01  0.36604237847E+01  0.00000000000E+00 0. -1.
         -2   -1    0    0    0  501 -0.00000000000E+00 -0.00000000000E+00 -0.26807530251E+03  0.26807530251E+03  0.00000000000E+00 0.  1.
         21    1    1    2  502  501  0.17280648908E+02 -0.25453345593E+02 -0.10662983416E+03  0.11097934565E+03  0.00000000000E+00 0.  1.
         21    1    1    2  503  502 -0.17280648908E+02  0.25453345593E+02 -0.15778504457E+03  0.16075638064E+03  0.00000000000E+00 0. -1.
</event>
<event>
 4    1  0.6109945E+002  0.2299770E+02  0.7546771E-02  0.1492527E+00
          2   -1    0    0  502    0  0.00000000000E+00  0.00000000000E+00  0.10711234112E+04  0.10711234112E+04  0.00000000000E+00 0.  1.
         -2   -1    0    0    0  501 -0.00000000000E+00 -0.00000000000E+00 -0.50001786054E+00  0.50001786054E+00  0.00000000000E+00 0. -1.
         21    1    1    2  502  503 -0.10021828329E+02  0.20699212130E+02  0.47544349547E+03  0.47599938216E+03  0.00000000000E+00 0. -1.
         21    1    1    2  503  501  0.10021828329E+02 -0.20699212130E+02  0.59517989784E+03  0.59562404687E+03  0.00000000000E+00 0.  1.
</event>
<event>
 4    1  0.6109945E+002  0.2147772E+02  0.7546771E-02  0.1512552E+00
          2   -1    0    0  502    0  0.00000000000E+00  0.00000000000E+00  0.15439354007E+03  0.15439354007E+03  0.00000000000E+00 0.  1.
         -2   -1    0    0    0  501 -0.00000000000E+00 -0.00000000000E+00 -0.47317361152E+01  0.47317361152E+01  0.00000000000E+00 0. -1.
         21    1    1    2  502  503 -0.16743169508E-01 -0.21477717069E+02  0.12313319603E+03  0.12499230606E+03  0.00000000000E+00 0.  1.
         21    1    1    2  503  501  0.16743169508E-01  0.21477717069E+02  0.26528607925E+02  0.34132970121E+02  0.00000000000E+00 0. -1.
</event>
<event>
 4    1  0.6109945E+002  0.2350927E+02  0.7546771E-02  0.1486200E+00
          2   -1    0    0  502    0  0.00000000000E+00  0.00000000000E+00  0.28097575866E+03  0.28097575866E+03  0.00000000000E+00 0.  1.
         -2   -1    0    0    0  501 -0.00000000000E+00 -0.00000000000E+00 -0.39289167872E+01  0.39289167872E+01  0.00000000000E+00 0. -1.
         21    1    1    2  502  503  0.49420764603E+01  0.22983945941E+02  0.23918665231E+03  0.24033921972E+03  0.00000000000E+00 0.  1.
         21    1    1    2  503  501 -0.49420764603E+01 -0.22983945941E+02  0.37860189563E+02  0.44565455731E+02  0.00000000000E+00 0. -1.
</event>
<event>
 4    1  0.6109945E+002  0.5163931E+02  0.7546771E-02  0.1291217E+00
          2   -1    0    0  502    0  0.00000000000E+00  0.00000000000E+00  0.21891109587E+03  0.21891109587E+03  0.00000000000E+00 0.  1.
         -2   -1    0    0    0  501 -0.00000000000E+00 -0.00000000000E+00 -0.16897480320E+02  0.16897480320E+02  0.00000000000E+00 0. -1.
         21    1    1    2  502  503 -0.44491260662E+02 -0.26213470784E+02  0.16329626449E+03  0.17126671691E+03  0.00000000000E+00 0.  1.
         21    1    1    2  503  501  0.44491260662E+02  0.26213470784E+02  0.38717351058E+02  0.64541859275E+02  0.00000000000E+00 0. -1.
</event>
<event>
 4    1  0.6109945E+002  0.3436157E+02  0.7546771E-02  0.1385108E+00
          2   -1    0    0  503    0  0.00000000000E+00  0.00000000000E+00  0.47923126110E+02  0.47923126110E+02  0.00000000000E+00 0.  1.
         -2   -1    0    0    0  501 -0.00000000000E+00 -0.00000000000E+00 -0.24679590553E+02  0.24679590553E+02  0.00000000000E+00 0. -1.
         21    1    1    2  502  501  0.79977137066E+01 -0.33417871918E+02  0.10126919034E+02  0.35822787122E+02  0.00000000000E+00 0.  1.
         21    1    1    2  503  502 -0.79977137066E+01  0.33417871918E+02  0.13116616523E+02  0.36779929541E+02  0.00000000000E+00 0. -1.
</event>
<event>
 4    1  0.6109945E+002  0.2772118E+02  0.7546771E-02  0.1440495E+00
          2   -1    0    0  503    0  0.00000000000E+00  0.00000000000E+00  0.22131251118E+02  0.22131251118E+02  0.00000000000E+00 0. -1.
         -2   -1    0    0    0  501 -0.00000000000E+00 -0.00000000000E+00 -0.73547322997E+02  0.73547322997E+02  0.00000000000E+00 0.  1.
         21    1    1    2  502  501 -0.41788412710E+01 -0.27404398887E+02 -0.60465903063E+02  0.66517585840E+02  0.00000000000E+00 0. -1.
         21    1    1    2  503  502  0.41788412710E+01  0.27404398887E+02  0.90498311835E+01  0.29160988275E+02  0.00000000000E+00 0.  1.
</event>
<event>
 4    1  0.6109945E+002  0.2310734E+02  0.7546771E-02  0.1491155E+00
          2   -1    0    0  502    0  0.00000000000E+00  0.00000000000E+00  0.71529751898E+02  0.71529751898E+02  0.00000000000E+00 0. -1.
         -2   -1    0    0    0  501 -0.00000000000E+00 -0.00000000000E+00 -0.20720590603E+02  0.20720590603E+02  0.00000000000E+00 0.  1.
         21    1    1    2  502  503 -0.20872511316E+02 -0.99140064863E+01  0.62297338985E+02  0.66444771787E+02  0.00000000000E+00 0. -1.
         21    1    1    2  503  501  0.20872511316E+02  0.99140064863E+01 -0.11488177689E+02  0.25805570714E+02  0.00000000000E+00 0.  1.
</event>
<event>
 4    1  0.6109945E+002  0.2022201E+02  0.7546771E-02  0.1530669E+00
          2   -1    0    0  503    0  0.00000000000E+00  0.00000000000E+00  0.29481827329E+03  0.29481827329E+03  0.00000000000E+00 0. -1.
         -2   -1    0    0    0  501 -0.00000000000E+00 -0.00000000000E+00 -0.14936454468E+01  0.14936454468E+01  0.00000000000E+00 0.  1.
         21    1    1    2  502  501 -0.11650834441E+02  0.16528392976E+02  0.10708460459E+03  0.10897725569E+03  0.00000000000E+00 0.  1.
         21    1    1    2  503  502  0.11650834441E+02 -0.16528392976E+02  0.18624002325E+03  0.18733466304E+03  0.00000000000E+00 0. -1.
</event>
<event>
 4    1  0.6109945E+002  0.2973137E+02  0.7546771E-02  0.1421945E+00
          2   -1    0    0  502    0  0.00000000000E+00  0.00000000000E+00  0.43699219947E+02  0.43699219947E+02  0.00000000000E+00 0.  1.
         -2   -1    0    0    0  501 -0.00000000000E+00 -0.00000000000E+00 -0.36031186983E+02  0.36031186983E+02  0.00000000000E+00 0. -1.
         21    1    1    2  502  503  0.98239728813E+00  0.29715131130E+02  0.30235301051E+02  0.42404334120E+02  0.00000000000E+00 0.  1.
         21    1    1    2  503  501 -0.98239728813E+00 -0.29715131130E+02 -0.22567268086E+02  0.37326072810E+02  0.00000000000E+00 0. -1.
</event>
<event>
 4    1  0.6109945E+002  0.2220814E+02  0.7546771E-02  0.1502688E+00
          2   -1    0    0  502    0  0.00000000000E+00  0.00000000000E+00  0.15335993411E+03  0.15335993411E+03  0.00000000000E+00 0. -1.
         -2   -1    0    0    0  501 -0.00000000000E+00 -0.00000000000E+00 -0.39021079733E+01  0.39021079733E+01  0.00000000000E+00 0.  1.
         21    1    1    2  502  503 -0.21492278646E+02  0.55931526967E+01  0.10770120000E+03  0.10996703997E+03  0.00000000000E+00 0. -1.
         21    1    1    2  503  501  0.21492278646E+02 -0.55931526967E+01  0.41756626137E+02  0.47295002113E+02  0.00000000000E+00 0.  1.
</event>
<event>
 4    1  0.6109945E+002  0.4420904E+02  0.7546771E-02  0.1325442E+00
          2   -1    0    0  502    0  0.00000000000E+00  0.00000000000E+00  0.10887004886E+03  0.10887004886E+03  0.00000000000E+00 0. -1.
         -2   -1    0    0    0  501 -0.00000000000E+00 -0.00000000000E+00 -0.24443528458E+02  0.24443528458E+02  0.00000000000E+00 0.  1.
         21    1    1    2  502  503  0.39567631124E+02 -0.19719081562E+02  0.76563877042E+02  0.88410784852E+02  0.00000000000E+00 0.  1.
         21    1    1    2  503  501 -0.39567631124E+02  0.19719081562E+02  0.78626433564E+01  0.44902792463E+02  0.00000000000E+00 0. -1.
</event>
<event>
 4    1  0.6109945E+002  0.2232609E+02  0.7546771E-02  0.1501138E+00
          2   -1    0    0  502    0  0.00000000000E+00  0.00000000000E+00  0.30183502581E+01  0.30183502581E+01  0.00000000000E+00 0. -1.
         -2   -1    0    0    0  501 -0.00000000000E+00 -0.00000000000E+00 -0.17230189819E+03  0.17230189819E+03  0.00000000000E+00 0.  1.
         21    1    1    2  502  503 -0.12917935766E+02 -0.18209372506E+02 -0.66771490504E+02  0.70405157877E+02  0.00000000000E+00 0. -1.
         21    1    1    2  503  501  0.12917935766E+02  0.18209372506E+02 -0.10251205743E+03  0.10491509057E+03  0.00000000000E+00 0.  1.
</event>
<event>
 4    1  0.6109945E+002  0.3135440E+02  0.7546771E-02  0.1408181E+00
          2   -1    0    0  502    0  0.00000000000E+00  0.00000000000E+00  0.43413848592E+03  0.43413848592E+03  0.00000000000E+00 0.  1.
         -2   -1    0    0    0  501 -0.00000000000E+00 -0.00000000000E+00 -0.91628739168E+01  0.91628739168E+01  0.00000000000E+00 0. -1.
         21    1    1    2  502  503  0.17812003896E+02  0.25803696537E+02  0.40480901677E+03  0.40602147516E+03  0.00000000000E+00 0.  1.
         21    1    1    2  503  501 -0.17812003896E+02 -0.25803696537E+02  0.20166595234E+02  0.37279884671E+02  0.00000000000E+00 0. -1.
</event>
<event>
 4    1  0.6109945E+002  0.4202168E+02  0.7546771E-02  0.1337029E+00
          2   -1    0    0  503    0  0.00000000000E+00  0.00000000000E+00  0.76083805118E+02  0.76083805118E+02  0.00000000000E+00 0.  1.
         -2   -1    0    0    0  501 -0.00000000000E+00 -0.00000000000E+00 -0.25348099097E+02  0.25348099097E+02  0.00000000000E+00 0. -1.
         21    1    1    2  502  501 -0.26144264036E+02 -0.32898316090E+02  0.10634653744E+02  0.43346483177E+02  0.00000000000E+00 0. -1.
         21    1    1    2  503  502  0.26144264036E+02  0.32898316090E+02  0.40101052277E+02  0.58085421039E+02  0.00000000000E+00 0.  1.
</event>
<event>
 4    1  0.6109945E+002  0.4406259E+02  0.7546771E-02  0.1326194E+00
          2   -1    0    0  503    0  0.00000000000E+00  0.00000000000E+00  0.86837080846E+02  0.86837080846E+02  0.00000000000E+00 0.  1.
         -2   -1    0    0    0  501 -0.00000000000E+00 -0.00000000000E+00 -0.23931173725E+02  0.23931173725E+02  0.00000000000E+00 0. -1.
         21    1    1    2  502  501  0.42055465652E+02 -0.13147227070E+02  0.17253277462E+02  0.47320052346E+02  0.00000000000E+00 0.  1.
         21    1    1    2  503  502 -0.42055465652E+02  0.13147227070E+02  0.45652629659E+02  0.63448202225E+02  0.00000000000E+00 0. -1.
</event>
<event>
 4    1  0.6109945E+002  0.2185339E+02  0.7546771E-02  0.1507421E+00
          2   -1    0    0  503    0  0.00000000000E+00  0.00000000000E+00  0.54829268904E+03  0.54829268904E+03  0.00000000000E+00 0. -1.
         -2   -1    0    0    0  501 -0.00000000000E+00 -0.00000000000E+00 -0.12809027314E+01  0.12809027314E+01  0.00000000000E+00 0.  1.
         21    1    1    2  502  501 -0.21844679090E+02 -0.61693992637E+00  0.11806303866E+03  0.12006852925E+03  0.00000000000E+00 0.  1.
         21    1    1    2  503  502  0.21844679090E+02  0.61693992637E+00  0.42894874764E+03  0.42950506251E+03  0.00000000000E+00 0. -1.
</event>
<event>
 4    1  0.6109945E+002  0.3822024E+02  0.7546771E-02  0.1359243E+00
          2   -1    0    0  502    0  0.00000000000E+00  0.00000000000E+00  0.76719510008E+02  0.76719510008E+02  0.00000000000E+00 0.  1.
         -2   -1    0    0    0  501 -0.00000000000E+00 -0.00000000000E+00 -0.43353718297E+02  0.43353718297E+02  0.00000000000E+00 0. -1.
         21    1    1    2  502  503 -0.38172967379E+02 -0.19002958405E+01  0.61642577160E+02  0.72529951618E+02  0.00000000000E+00 0.  1.
         21    1    1    2  503  501  0.38172967379E+02  0.19002958405E+01 -0.28276785450E+02  0.47543276687E+02  0.00000000000E+00 0. -1.
</event>
<event>
 4    1  0.6109945E+002  0.4430005E+02  0.7546771E-02  0.1324977E+00
          2   -1    0    0  503    0  0.00000000000E+00  0.00000000000E+00  0.72977660256E+02  0.72977660256E+02  0.00000000000E+00 0. -1.
         -2   -1    0    0    0  501 -0.00000000000E+00 -0.00000000000E+00 -0.28672474999E+02  0.28672474999E+02  0.00000000000E+00 0.  1.
         21    1    1    2  502  501 -0.22632320071E+02 -0.38082444891E+02  0.94863461078E+01  0.45304362739E+02  0.00000000000E+00 0.  1.
         21    1    1    2  503  502  0.22632320071E+02  0.38082444891E+02  0.34818839149E+02  0.56345772516E+02  0.00000000000E+00 0. -1.
</event>
<event>
 4    1  0.6109945E+002  0.2251035E+02  0.7546771E-02  0.1498740E+00
          2   -1    0    0  503    0  0.00000000000E+00  0.00000000000E+00  0.50271812209E+01  0.50271812209E+01  0.00000000000E+00 0. -1.
         -2   -1    0    0    0  501 -0.00000000000E+00 -0.00000000000E+00 -0.25908139216E+03  0.25908139216E+03  0.00000000000E+00 0.  1.
         21    1    1    2  502  501 -0.14355704353E+02  0.17338668318E+02 -0.23024522141E+03  0.23134298703E+03  0.00000000000E+00 0.  1.
         21    1    1    2  503  502  0.14355704353E+02 -0.17338668318E+02 -0.23808989534E+02  0.32765586354E+02  0.00000000000E+00 0. -1.
</event>
<event>
 4    1  0.6109945E+002  0.2245642E+02  0.7546771E-02  0.1499439E+00
          2   -1    0    0  503    0  0.00000000000E+00  0.00000000000E+00  0.47365802070E+03  0.47365802070E+03  0.00000000000E+00 0.  1.
         -2   -1    0    0    0  501 -0.00000000000E+00 -0.00000000000E+00 -0.10804314583E+01  0.10804314583E+01  0.00000000000E+00 0. -1.
         21    1    1    2  502  501 -0.18502768717E+00 -0.22455656796E+02  0.20762148171E+03  0.20883239793E+03  0.00000000000E+00 0. -1.
         21    1    1    2  503  502  0.18502768717E+00  0.22455656796E+02  0.26495610752E+03  0.26590605422E+03  0.00000000000E+00 0.  1.
</event>
<event>
 4    1  0.6109945E+002  0.2287085E+02  0.7546771E-02  0.1494126E+00
          2   -1    0    0  502    0  0.00000000000E+00  0.00000000000E+00  0.10558397116E+03  0.10558397116E+03  0.00000000000E+00 0.  1.
         -2   -1    0    0    0  501 -0.00000000000E+00 -0.00000000000E+00 -0.49574737282E+01  0.49574737282E+01  0.00000000000E+00 0. -1.
         21    1    1    2  502  503 -0.21444746693E+02 -0.79497426107E+01  0.48875486558E+02  0.53961919486E+02  0.00000000000E+00 0.  1.
         21    1    1    2  503  501  0.21444746693E+02  0.79497426107E+01  0.51751010874E+02  0.56579525403E+02  0.00000000000E+00 0. -1.
</event>
<event>
 4    1  0.6109945E+002  0.3705747E+02  0.7546771E-02  0.1366649E+00
          2   -1    0    0  503    0  0.00000000000E+00  0.00000000000E+00  0.37179658143E+03  0.37179658143E+03  0.00000000000E+00 0. -1.
         -2   -1    0    0    0  501 -0.00000000000E+00 -0.00000000000E+00 -0.38419991117E+01  0.38419991117E+01  0.00000000000E+00 0.  1.
         21    1    1    2  502  501  0.13661802869E+02  0.34447220362E+02  0.14706045640E+03  0.15165761993E+03  0.00000000000E+00 0. -1.
         21    1    1    2  503  502 -0.13661802869E+02 -0.34447220362E+02  0.22089412592E+03  0.22398096061E+03  0.00000000000E+00 0.  1.
</event>
<event>
 4    1  0.6109945E+002  0.2162917E+02  0.7546771E-02  0.1510468E+00
          2   -1    0    0  502    0  0.00000000000E+00  0.00000000000E+00  0.43048456000E+03  0.43048456000E+03  0.00000000000E+00 0. -1.
         -2   -1    0    0    0  501 -0.00000000000E+00 -0.00000000000E+00 -0.18728112920E+01  0.18728112920E+01  0.00000000000E+00 0.  1.
         21    1    1    2  502  503 -0.20905383515E+02  0.55484971616E+01  0.35436110703E+03  0.35502058399E+03  0.00000000000E+00 0. -1.
         21    1    1    2  503  501  0.20905383515E+02 -0.55484971616E+01  0.74250641673E+02  0.77336787298E+02  0.00000000000E+00 0.  1.
</event>
<event>
 4    1  0.6109945E+002  0.2771506E+02  0.7546771E-02  0.1440554E+00
          2   -1    0    0  503    0  0.00000000000E+00  0.00000000000E+00  0.47448200972E+03  0.47448200972E+03  0.00000000000E+00 0. -1.
         -2   -1    0    0    0  501 -0.00000000000E+00 -0.00000000000E+00 -0.54967968809E+01  0.54967968809E+01  0.00000000000E+00 0.  1.
         21    1    1    2  502  501  0.20830494699E+02 -0.18281546689E+02  0.32917426159E+02  0.43031167817E+02  0.00000000000E+00 0.  1.
         21    1    1    2  503  502 -0.20830494699E+02  0.18281546689E+02  0.43606778668E+03  0.43694763879E+03  0.00000000000E+00 0. -1.
</event>
<event>
 4    1  0.6109945E+002  0.2564772E+02  0.7546771E-02  0.1461686E+00
          2   -1    0    0  502    0  0.00000000000E+00  0.00000000000E+00  0.85468353667E+02  0.85468353667E+02  0.00000000000E+00 0.  1.
         -2   -1    0    0    0  501 -0.00000000000E+00 -0.00000000000E+00 -0.12066195595E+02  0.12066195595E+02  0.00000000000E+00 0. -1.
         21    1    1    2  502  503  0.99548541817E+01 -0.23636976575E+02  0.66048484441E+02  0.70853426736E+02  0.00000000000E+00 0.  1.
         21    1    1    2  503  501 -0.99548541817E+01  0.23636976575E+02  0.73536736308E+01  0.26681122526E+02  0.00000000000E+00 0. -1.
</event>
<event>
 4    1  0.6109945E+002  0.2363000E+02  0.7546771E-02  0.1484735E+00
          2   -1    0    0  503    0  0.00000000000E+00  0.00000000000E+00  0.63381029835E+03  0.63381029835E+03  0.00000000000E+00 0. -1.
         -2   -1    0    0    0  501 -0.00000000000E+00 -0.00000000000E+00 -0.98036751354E+00  0.98036751354E+00  0.00000000000E+00 0.  1.
         21    1    1    2  502  501 -0.96915619108E+01 -0.21551118417E+02  0.21535897491E+03  0.21665148315E+03  0.00000000000E+00 0.  1.
         21    1    1    2  503  502  0.96915619108E+01  0.21551118417E+02  0.41747095593E+03  0.41813918272E+03  0.00000000000E+00 0. -1.
</event>
<event>
 4    1  0.6109945E+002  0.4026353E+02  0.7546771E-02  0.1346948E+00
          2   -1    0    0  502    0  0.00000000000E+00  0.00000000000E+00  0.22818681919E+02  0.22818681919E+02  0.00000000000E+00 0.  1.
         -2   -1    0    0    0  501 -0.00000000000E+00 -0.00000000000E+00 -0.73936747662E+02  0.73936747662E+02  0.00000000000E+00 0. -1.
         21    1    1    2  502  503 -0.29881120994E+02 -0.26986481524E+02 -0.35126586460E+02  0.53432468156E+02  0.00000000000E+00 0.  1.
         21    1    1    2  503  501  0.29881120994E+02  0.26986481524E+02 -0.15991479283E+02  0.43322961424E+02  0.00000000000E+00 0. -1.
</event>
<event>
 4    1  0.6109945E+002  0.3257929E+02  0.7546771E-02  0.1398430E+00
          2   -1    0    0  503    0  0.00000000000E+00  0.00000000000E+00  0.58643252564E+02  0.58643252564E+02  0.00000000000E+00 0.  1.
         -2   -1    0    0    0  501 -0.00000000000E+00 -0.00000000000E+00 -0.18247524657E+02  0.18247524657E+02  0.00000000000E+00 0. -1.
         21    1    1    2  502  501 -0.13442816641E+02  0.29676604380E+02  0.16734533620E+02  0.36625875856E+02  0.00000000000E+00 0. -1.
         21    1    1    2  503  502  0.13442816641E+02 -0.29676604380E+02  0.23661194287E+02  0.40264901364E+02  0.00000000000E+00 0.  1.
</event>
<event>
 4    1  0.6109945E+002  0.2120161E+02  0.7546771E-02  0.1516406E+00
          2   -1    0    0  502    0  0.00000000000E+00  0.00000000000E+00  0.11899339002E+02  0.11899339002E+02  0.00000000000E+00 0.  1.
         -2   -1    0    0    0  501 -0.00000000000E+00 -0.00000000000E+00 -0.38246346305E+02  0.38246346305E+02  0.00000000000E+00 0. -1.
         21    1    1    2  502  503 -0.42916518673E+01  0.20762705372E+02 -0.10392735400E+02  0.23611801270E+02  0.00000000000E+00 0. -1.
         21    1    1    2  503  501  0.42916518673E+01 -0.20762705372E+02 -0.15954271903E+02  0.26533884037E+02  0.00000000000E+00 0.  1.
</event>
<event>
 4    1  0.6109945E+002  0.2288480E+02  0.7546771E-02  0.1493950E+00
          2   -1    0    0  503    0  0.00000000000E+00  0.00000000000E+00  0.16910066684E+02  0.16910066684E+02  0.00000000000E+00 0. -1.
         -2   -1    0    0    0  501 -0.00000000000E+00 -0.00000000000E+00 -0.42172367896E+02  0.42172367896E+02  0.00000000000E+00 0.  1.
         21    1    1    2  502  501  0.18981483544E+02 -0.12783479288E+02 -0.27856198036E+02  0.36051100250E+02  0.00000000000E+00 0.  1.
         21    1    1    2  503  502 -0.18981483544E+02  0.12783479288E+02  0.25938968241E+01  0.23031334329E+02  0.00000000000E+00 0. -1.
</event>
<event>
 4    1  0.6109945E+002  0.3120997E+02  0.7546771E-02  0.1409365E+00
          2   -1    0    0  502    0  0.00000000000E+00  0.00000000000E+00  0.80037661224E+03  0.80037661224E+03  0.00000000000E+00 0.  1.
         -2   -1    0    0    0  501 -0.00000000000E+00 -0.00000000000E+00 -0.78068486008E+01  0.78068486008E+01  0.00000000000E+00 0. -1.
         21    1    1    2  502  503  0.30117937212E+02 -0.81836383171E+01  0.76754615423E+03  0.76818042213E+03  0.00000000000E+00 0.  1.
         21    1    1    2  503  501 -0.30117937212E+02  0.81836383171E+01  0.25023609415E+02  0.40003038712E+02  0.00000000000E+00 0. -1.
</event>
<event>
 4    1  0.6109945E+002  0.9791102E+02  0.7546771E-02  0.1167478E+00
          2   -1    0    0  503    0  0.00000000000E+00  0.00000000000E+00  0.20152938584E+03  0.20152938584E+03  0.00000000000E+00 0.  1.
         -2   -1    0    0    0  501 -0.00000000000E+00 -0.00000000000E+00 -0.16829358454E+03  0.16829358454E+03  0.00000000000E+00 0. -1.
         21    1    1    2  502  501  0.72244235392E+02 -0.66085847227E+02 -0.13999510013E+03  0.17083675486E+03  0.00000000000E+00 0. -1.
         21    1    1    2  503  502 -0.72244235392E+02  0.66085847227E+02  0.17323090143E+03  0.19898621551E+03  0.00000000000E+00 0.  1.
</event>
<event>
 4    1  0.6109945E+002  0.2823144E+02  0.7546771E-02  0.1435615E+00
          2   -1    0    0  503    0  0.00000000000E+00  0.00000000000E+00  0.36072121819E+01  0.36072121819E+01  0.00000000000E+00 0.  1.
         -2   -1    0    0    0  501 -0.00000000000E+00 -0.00000000000E+00 -0.27738522917E+03  0.27738522917E+03  0.00000000000E+00 0. -1.
         21    1    1    2  502  501  0.10087154475E+02  0.26367851110E+02 -0.20026099901E+03  0.20224114809E+03  0.00000000000E+00 0. -1.
         21    1    1    2  503  502 -0.10087154475E+02 -0.26367851110E+02 -0.73517017980E+02  0.78751293261E+02  0.00000000000E+00 0.  1.
</event>
<event>
 4    1  0.6109945E+002  0.2145714E+02  0.7546771E-02  0.1512837E+00
          2   -1    0    0  502    0  0.00000000000E+00  0.00000000000E+00  0.83282326220E+02  0.83282326220E+02  0.00000000000E+00 0. -1.
         -2   -1    0    0    0  501 -0.00000000000E+00 -0.00000000000E+00 -0.23600109118E+02  0.23600109118E+02  0.00000000000E+00 0.  1.
         21    1    1    2  502  503 -0.20240024236E+02 -0.71239227341E+01  0.76606037019E+02  0.79554344720E+02  0.00000000000E+00 0. -1.
         21    1    1    2  503  501  0.20240024236E+02  0.71239227341E+01 -0.16923819917E+02  0.27328090617E+02  0.00000000000E+00 0.  1.
</event>
<event>
 4    1  0.6109945E+002  0.3257679E+02  0.7546771E-02  0.1398449E+00
          2   -1    0    0  502    0  0.00000000000E+00  0.00000000000E+00  0.53192221510E+03  0.53192221510E+03  0.00000000000E+00 0. -1.
         -2   -1    0    0    0  501 -0.00000000000E+00 -0.00000000000E+00 -0.61404446457E+01  0.61404446457E+01  0.00000000000E+00 0.  1.
         21    1    1    2  502  503  0.27409255293E+02 -0.17606244620E+02  0.48393673867E+03  0.48503197230E+03  0.00000000000E+00 0. -1.
         21    1    1    2  503  501 -0.27409255293E+02  0.17606244620E+02  0.41845031792E+02  0.53030687446E+02  0.00000000000E+00 0.  1.
</event>
<event>
 4    1  0.6109945E+002  0.4143272E+02  0.7546771E-02  0.1340289E+00
          2   -1    0    0  502    0  0.00000000000E+00  0.00000000000E+00  0.49158410872E+02  0.49158410872E+02  0.00000000000E+00 0. -1.
         -2   -1    0    0    0  501 -0.00000000000E+00 -0.00000000000E+00 -0.38993098387E+02  0.38993098387E+02  0.00000000000E+00 0.  1.
         21    1    1    2  502  503 -0.39513426737E+01 -0.41243871001E+02  0.19325775226E+02  0.45718219477E+02  0.00000000000E+00 0. -1.
         21    1    1    2  503  501  0.39513426737E+01  0.41243871001E+02 -0.91604627412E+01  0.42433289782E+02  0.00000000000E+00 0.  1.
</event>
<event>
 4    1  0.6109945E+002  0.3608720E+02  0.7546771E-02  0.1373077E+00
          2   -1    0    0  503    0  0.00000000000E+00  0.00000000000E+00  0.24093405548E+04  0.24093405548E+04  0.00000000000E+00 0. -1.
         -2   -1    0    0    0  501 -0.00000000000E+00 -0.00000000000E+00 -0.81926261259E+00  0.81926261259E+00  0.00000000000E+00 0.  1.
         21    1    1    2  502  501  0.80885847945E+01 -0.35169034964E+02  0.50133503612E+03  0.50263217631E+03  0.00000000000E+00 0.  1.
         21    1    1    2  503  502 -0.80885847945E+01  0.35169034964E+02  0.19071862560E+04  0.19075276411E+04  0.00000000000E+00 0. -1.
</event>
<event>
 4    1  0.6109945E+002  0.2307010E+02  0.7546771E-02  0.1491620E+00
          2   -1    0    0  502    0  0.00000000000E+00  0.00000000000E+00  0.14919813700E+04  0.14919813700E+04  0.00000000000E+00 0. -1.
         -2   -1    0    0    0  501 -0.00000000000E+00 -0.00000000000E+00 -0.49953825098E+00  0.49953825098E+00  0.00000000000E+00 0.  1.
         21    1    1    2  502  503  0.13502244609E+02 -0.18706120227E+02  0.11447438875E+04  0.11449763305E+04  0.00000000000E+00 0. -1.
         21    1    1    2  503  501 -0.13502244609E+02  0.18706120227E+02  0.34673794424E+03  0.34750457769E+03  0.00000000000E+00 0.  1.
</event>
<event>
 4    1  0.6109945E+002  0.2557321E+02  0.7546771E-02  0.1462492E+00
          2   -1    0    0  502    0  0.00000000000E+00  0.00000000000E+00  0.55459443793E+03  0.55459443793E+03  0.00000000000E+00 0. -1.
         -2   -1    0    0    0  501 -0.00000000000E+00 -0.00000000000E+00 -0.26292947965E+01  0.26292947965E+01  0.00000000000E+00 0.  1.
         21    1    1    2  502  503 -0.24544716730E+02 -0.71795462758E+01  0.48288954589E+03  0.48356623386E+03  0.00000000000E+00 0. -1.
         21    1    1    2  503  501  0.24544716730E+02  0.71795462758E+01  0.69075597248E+02  0.73657498866E+02  0.00000000000E+00 0.  1.
</event>
<event>
 4    1  0.6109945E+002  0.2134274E+02  0.7546771E-02  0.1514427E+00
          2   -1    0    0  503    0  0.00000000000E+00  0.00000000000E+00  0.33068159400E+02  0.33068159400E+02  0.00000000000E+00 0.  1.
         -2   -1    0    0    0  501 -0.00000000000E+00 -0.00000000000E+00 -0.57922188546E+02  0.57922188546E+02  0.00000000000E+00 0. -1.
         21    1    1    2  502  501 -0.18015835825E+02 -0.11443002012E+02 -0.52145672156E+02  0.56344332103E+02  0.00000000000E+00 0. -1.
         21    1    1    2  503  502  0.18015835825E+02  0.11443002012E+02  0.27291643010E+02  0.34646015842E+02  0.00000000000E+00 0.  1.
</event>
<event>
 4    1  0.6109945E+002  0.2931679E+02  0.7546771E-02  0.1425628E+00
          2   -1    0    0  503    0  0.00000000000E+00  0.00000000000E+00  0.27801174787E+03  0.27801174787E+03  0.00000000000E+00 0.  1.
         -2   -1    0    0    0  501 -0.00000000000E+00 -0.00000000000E+00 -0.37407134060E+01  0.37407134060E+01  0.00000000000E+00 0. -1.
         21    1    1    2  502  501 -0.20020406426E+02  0.21416284279E+02  0.78446945841E+02  0.83746028071E+02  0.00000000000E+00 0. -1.
         21    1    1    2  503  502  0.20020406426E+02 -0.21416284279E+02  0.19582408862E+03  0.19800643320E+03  0.00000000000E+00 0.  1.
</event>
<event>
 4    1  0.6109945E+002  0.2305956E+02  0.7546771E-02  0.1491752E+00
          2   -1    0    0  503    0  0.00000000000E+00  0.00000000000E+00  0.53379648728E+03  0.53379648728E+03  0.00000000000E+00 0. -1.
         -2   -1    0    0    0  501 -0.00000000000E+00 -0.00000000000E+00 -0.30062696969E+01  0.30062696969E+01  0.00000000000E+00 0.  1.
         21    1    1    2  502  501 -0.22532754772E+02 -0.49008352425E+01  0.45921978958E+02  0.51386490201E+02  0.00000000000E+00 0.  1.
         21    1    1    2  503  502  0.22532754772E+02  0.49008352425E+01  0.48486823863E+03  0.48541626678E+03  0.00000000000E+00 0. -1.
</event>
<event>
 4    1  0.6109945E+002  0.2992215E+02  0.7546771E-02  0.1420274E+00
          2   -1    0    0  503    0  0.00000000000E+00  0.00000000000E+00  0.41280640299E+03  0.41280640299E+03  0.00000000000E+00 0. -1.
         -2   -1    0    0    0  501 -0.00000000000E+00 -0.00000000000E+00 -0.45522541113E+01  0.45522541113E+01  0.00000000000E+00 0.  1.
         21    1    1    2  502  501 -0.37351686247E+01  0.29688107394E+02  0.53132757506E+02  0.60978890819E+02  0.00000000000E+00 0.  1.
         21    1    1    2  503  502  0.37351686247E+01 -0.29688107394E+02  0.35512139138E+03  0.35637976629E+03  0.00000000000E+00 0. -1.
</event>
<event>
 4    1  0.6109945E+002  0.2572259E+02  0.7546771E-02  0.1460880E+00
          2   -1    0    0  503    0  0.00000000000E+00  0.00000000000E+00  0.45602783470E+03  0.45602783470E+03  0.00000000000E+00 0.  1.
         -2   -1    0    0    0  501 -0.00000000000E+00 -0.00000000000E+00 -0.18008663173E+01  0.18008663173E+01  0.00000000000E+00 0. -1.
         21    1    1    2  502  501 -0.71988238021E+00 -0.25712519297E+02  0.12620122784E+03  0.12879596960E+03  0.00000000000E+00 0. -1.
         21    1    1    2  503  502  0.71988238021E+00  0.25712519297E+02  0.32802574055E+03  0.32903273142E+03  0.00000000000E+00 0.  1.
</event>
<event>
 4    1  0.6109945E+002  0.2135989E+02  0.7546771E-02  0.1514188E+00
          2   -1    0    0  503    0  0.00000000000E+00  0.00000000000E+00  0.15788931777E+04  0.15788931777E+04  0.00000000000E+00 0.  1.
         -2   -1    0    0    0  501 -0.00000000000E+00 -0.00000000000E+00 -0.94532918832E+00  0.94532918832E+00  0.00000000000E+00 0. -1.
         21    1    1    2  502  501  0.12008035686E+02  0.17664997809E+02  0.13076530932E+03  0.13249834410E+03  0.00000000000E+00 0. -1.
         21    1    1    2  503  502 -0.12008035686E+02 -0.17664997809E+02  0.14471825392E+04  0.14473401628E+04  0.00000000000E+00 0.  1.
</event>
<event>
 4    1  0.6109945E+002  0.3248139E+02  0.7546771E-02  0.1399191E+00
          2   -1    0    0  503    0  0.00000000000E+00  0.00000000000E+00  0.10613145853E+02  0.10613145853E+02  0.00000000000E+00 0. -1.
         -2   -1    0    0    0  501 -0.00000000000E+00 -0.00000000000E+00 -0.10590055309E+03  0.10590055309E+03  0.00000000000E+00 0.  1.
         21    1    1    2  502  501  0.29278619959E+02 -0.14064242023E+02 -0.62067435008E+02  0.70052887013E+02  0.00000000000E+00 0.  1.
         21    1    1    2  503  502 -0.29278619959E+02  0.14064242023E+02 -0.33219972233E+02  0.46460811934E+02  0.00000000000E+00 0. -1.
</event>
<event>
 4    1  0.6109945E+002  0.2122432E+02  0.7546771E-02  0.1516086E+00
          2   -1    0    0  502    0  0.00000000000E+00  0.00000000000E+00  0.47186274406E+03  0.47186274406E+03  0.00000000000E+00 0.  1.
         -2   -1    0    0    0  501 -0.00000000000E+00 -0.00000000000E+00 -0.12121233676E+01  0.12121233676E+01  0.00000000000E+00 0. -1.
         21    1    1    2  502  503  0.21205835848E+02  0.88548522961E+00  0.34433841356E+03  0.34499190514E+03  0.00000000000E+00 0.  1.
         21    1    1    2  503  501 -0.21205835848E+02 -0.88548522961E+00  0.12631220713E+03  0.12808296229E+03  0.00000000000E+00 0. -1.
</event>
<event>
 4    1  0.6109945E+002  0.2242241E+02  0.7546771E-02  0.1499881E+00
          2   -1    0    0  502    0  0.00000000000E+00  0.00000000000E+00  0.92744262789E+01  0.92744262789E+01  0.00000000000E+00 0.  1.
         -2   -1    0    0    0  501 -0.00000000000E+00 -0.00000000000E+00 -0.21941616431E+03  0.21941616431E+03  0.00000000000E+00 0. -1.
         21    1    1    2  502  503  0.12463257809E+02  0.18639513293E+02 -0.58512729068E+01  0.23173295960E+02  0.00000000000E+00 0.  1.
         21    1    1    2  503  501 -0.12463257809E+02 -0.18639513293E+02 -0.20429046513E+03  0.20551729463E+03  0.00000000000E+00 0. -1.
</event>
<event>
 4    1  0.6109945E+002  0.3066072E+02  0.7546771E-02  0.1413940E+00
          2   -1    0    0  503    0  0.00000000000E+00  0.00000000000E+00  0.61860234525E+03  0.61860234525E+03  0.00000000000E+00 0. -1.
         -2   -1    0    0    0  501 -0.00000000000E+00 -0.00000000000E+00 -0.15235958151E+01  0.15235958151E+01  0.00000000000E+00 0.  1.
         21    1    1    2  502  501  0.92888058879E+01 -0.29219817642E+02  0.29282697082E+03  0.29442777467E+03  0.00000000000E+00 0. -1.
         21    1    1    2  503  502 -0.92888058879E+01  0.29219817642E+02  0.32425177861E+03  0.32569816639E+03  0.00000000000E+00 0.  1.
</event>
<event>
 4    1  0.6109945E+002  0.2094491E+02  0.7546771E-02  0.1520053E+00
          2   -1    0    0  503    0  0.00000000000E+00  0.00000000000E+00  0.96946854475E+02  0.96946854475E+02  0.00000000000E+00 0. -1.
         -2   -1    0    0    0  501 -0.00000000000E+00 -0.00000000000E+00 -0.12179617395E+02  0.12179617395E+02  0.00000000000E+00 0.  1.
         21    1    1    2  502  501  0.19091067272E+02  0.86151375633E+01 -0.87210668107E+00  0.20963063108E+02  0.00000000000E+00 0.  1.
         21    1    1    2  503  502 -0.19091067272E+02 -0.86151375633E+01  0.85639343761E+02  0.88163408763E+02  0.00000000000E+00 0. -1.
</event>
<event>
 4    1  0.6109945E+002  0.3933686E+02  0.7546771E-02  0.1352416E+00
          2   -1    0    0  502    0  0.00000000000E+00  0.00000000000E+00  0.49521289896E+03  0.49521289896E+03  0.00000000000E+00 0.  1.
         -2   -1    0    0    0  501 -0.00000000000E+00 -0.00000000000E+00 -0.94611894589E+01  0.94611894589E+01  0.00000000000E+00 0. -1.
         21    1    1    2  502  503 -0.22798409712E+02 -0.32056535334E+02  0.44938186412E+03  0.45110026462E+03  0.00000000000E+00 0.  1.
         21    1    1    2  503  501  0.22798409712E+02  0.32056535334E+02  0.36369845381E+02  0.53573823795E+02  0.00000000000E+00 0. -1.
</event>
<event>
 4    1  0.6109945E+002  0.5095945E+02  0.7546771E-02  0.1294065E+00
          2   -1    0    0  503    0  0.00000000000E+00  0.00000000000E+00  0.56739894432E+01  0.56739894432E+01  0.00000000000E+00 0. -1.
         -2   -1    0    0    0  501 -0.00000000000E+00 -0.00000000000E+00 -0.19920454702E+04  0.19920454702E+04  0.00000000000E+00 0.  1.
         21    1    1    2  502  501  0.50933550409E+02  0.16244653675E+01 -0.18698220194E+04  0.18705163056E+04  0.00000000000E+00 0.  1.
         21    1    1    2  503  502 -0.50933550409E+02 -0.16244653675E+01 -0.11654946136E+03  0.12720315400E+03  0.00000000000E+00 0. -1.
</event>
<event>
 4    1  0.6109945E+002  0.2050658E+02  0.7546771E-02  0.1526428E+00
          2   -1    0    0  503    0  0.00000000000E+00  0.00000000000E+00  0.13166681796E+01  0.13166681796E+01  0.00000000000E+00 0.  1.
         -2   -1    0    0    0  501 -0.00000000000E+00 -0.00000000000E+00 -0.39546683673E+03  0.39546683673E+03  0.00000000000E+00 0. -1.
         21    1    1    2  502  501 -0.20506574169E+02 -0.17209256742E-01 -0.28409489759E+03  0.28483404066E+03  0.00000000000E+00 0.  1.
         21    1    1    2  503  502  0.20506574169E+02  0.17209256742E-01 -0.11005527096E+03  0.11194946425E+03  0.00000000000E+00 0. -1.
</event>
<event>
 4    1  0.6109945E+002  0.2230340E+02  0.7546771E-02  0.1501436E+00
          2   -1    0    0  502    0  0.00000000000E+00  0.00000000000E+00  0.12562953874E+04  0.12562953874E+04  0.00000000000E+00 0.  1.
         -2   -1    0    0    0  501 -0.00000000000E+00 -0.00000000000E+00 -0.68737871535E+03  0.68737871535E+03  0.00000000000E+00 0. -1.
         21    1    1    2  502  503 -0.15174968866E+02 -0.16345095671E+02  0.12560154374E+04  0.12562134456E+04  0.00000000000E+00 0.  1.
         21    1    1    2  503  501  0.15174968866E+02  0.16345095671E+02 -0.68709876535E+03  0.68746065718E+03  0.00000000000E+00 0. -1.
</event>
<event>
 4    1  0.6109945E+002  0.2226341E+02  0.7546771E-02  0.1501961E+00
          2   -1    0    0  503    0  0.00000000000E+00  0.00000000000E+00  0.27684416980E+03  0.27684416980E+03  0.00000000000E+00 0. -1.
         -2   -1    0    0    0  501 -0.00000000000E+00 -0.00000000000E+00 -0.56202227461E+01  0.56202227461E+01  0.00000000000E+00 0.  1.
         21    1    1    2  502  501  0.17066699496E+02  0.14296411761E+02  0.19025884887E+02  0.29285558159E+02  0.00000000000E+00 0.  1.
         21    1    1    2  503  502 -0.17066699496E+02 -0.14296411761E+02  0.25219806217E+03  0.25317883439E+03  0.00000000000E+00 0. -1.
</event>
<event>
 4    1  0.6109945E+002  0.2056585E+02  0.7546771E-02  0.1525555E+00
          2   -1    0    0  502    0  0.00000000000E+00  0.00000000000E+00  0.37135446942E+03  0.37135446942E+03  0.00000000000E+00 0. -1.
         -2   -1    0    0    0  501 -0.00000000000E+00 -0.00000000000E+00 -0.11959319160E+02  0.11959319160E+02  0.00000000000E+00 0.  1.
         21    1    1    2  502  503  0.47631722502E+01 -0.20006655254E+02  0.36199992347E+03  0.36258364367E+03  0.00000000000E+00 0. -1.
         21    1    1    2  503  501 -0.47631722502E+01  0.20006655254E+02 -0.26047732142E+01  0.20730144906E+02  0.00000000000E+00 0.  1.
</event>
<event>
 4    1  0.6109945E+002  0.2020081E+02  0.7546771E-02  0.1530988E+00
          2   -1    0    0  502    0  0.00000000000E+00  0.00000000000E+00  0.22171941281E+03  0.22171941281E+03  0.00000000000E+00 0.  1.
         -2   -1    0    0    0  501 -0.00000000000E+00 -0.00000000000E+00 -0.29130291399E+01  0.29130291399E+01  0.00000000000E+00 0. -1.
         21    1    1    2  502  503  0.67490349600E+01 -0.19040045506E+02  0.17755482033E+03  0.17870027149E+03  0.00000000000E+00 0.  1.
         21    1    1    2  503  501 -0.67490349600E+01  0.19040045506E+02  0.41251563337E+02  0.45932170463E+02  0.00000000000E+00 0. -1.
</event>
<event>
 4    1  0.6109945E+002  0.2429757E+02  0.7546771E-02  0.1476817E+00
          2   -1    0    0  503    0  0.00000000000E+00  0.00000000000E+00  0.16537754131E+02  0.16537754131E+02  0.00000000000E+00 0. -1.
         -2   -1    0    0    0  501 -0.00000000000E+00 -0.00000000000E+00 -0.95081813681E+02  0.95081813681E+02  0.00000000000E+00 0.  1.
         21    1    1    2  502  501  0.11354342471E+02 -0.21481406314E+02 -0.83377663942E+02  0.86845879318E+02  0.00000000000E+00 0.  1.
         21    1    1    2  503  502 -0.11354342471E+02  0.21481406314E+02  0.48336043920E+01  0.24773688494E+02  0.00000000000E+00 0. -1.
</event>
<event>
 4    1  0.6109945E+002  0.2846905E+02  0.7546771E-02  0.1433384E+00
          2   -1    0    0  502    0  0.00000000000E+00  0.00000000000E+00  0.61353612161E+02  0.61353612161E+02  0.00000000000E+00 0.  1.
         -2   -1    0    0    0  501 -0.00000000000E+00 -0.00000000000E+00 -0.38676896746E+02  0.38676896746E+02  0.00000000000E+00 0. -1.
         21    1    1    2  502  503 -0.25613794227E+02  0.12426590756E+02  0.51923206847E+02  0.59215758222E+02  0.00000000000E+00 0.  1.
         21    1    1    2  503  501  0.25613794227E+02 -0.12426590756E+02 -0.29246491432E+02  0.40814750686E+02  0.00000000000E+00 0. -1.
</event>
<event>
 4    1  0.6109945E+002  0.3826844E+02  0.7546771E-02  0.1358943E+00
          2   -1    0    0  503    0  0.00000000000E+00  0.00000000000E+00  0.68693835570E+03  0.68693835570E+03  0.00000000000E+00 0.  1.
         -2   -1    0    0    0  501 -0.00000000000E+00 -0.00000000000E+00 -0.25426001251E+01  0.25426001251E+01  0.00000000000E+00 0. -1.
         21    1    1    2  502  501 -0.27239989945E+02  0.26878553631E+02  0.20364246311E+03  0.20720696533E+03  0.00000000000E+00 0. -1.
         21    1    1    2  503  502  0.27239989945E+02 -0.26878553631E+02  0.48075329246E+03  0.48227399050E+03  0.00000000000E+00 0.  1.
</event>
<event>
 4    1  0.6109945E+002  0.3401313E+02  0.7546771E-02  0.1387637E+00
          2   -1    0    0  503    0  0.00000000000E+00  0.00000000000E+00  0.71304466591E+01  0.71304466591E+01  0.00000000000E+00 0. -1.
         -2   -1    0    0    0  501 -0.00000000000E+00 -0.00000000000E+00 -0.28511827319E+03  0.28511827319E+03  0.00000000000E+00 0.  1.
         21    1    1    2  502  501 -0.33359883421E+02  0.66341136743E+01 -0.23491969511E+03  0.23736924072E+03  0.00000000000E+00 0.  1.
         21    1    1    2  503  502  0.33359883421E+02 -0.66341136743E+01 -0.43068131418E+02  0.54879479133E+02  0.00000000000E+00 0. -1.
</event>
<event>
 4    1  0.6109945E+002  0.2051085E+02  0.7546771E-02  0.1526365E+00
          2   -1    0    0  502    0  0.00000000000E+00  0.00000000000E+00  0.15534704575E+04  0.15534704575E+04  0.00000000000E+00 0. -1.
         -2   -1    0    0    0  501 -0.00000000000E+00 -0.00000000000E+00 -0.45956157291E+00  0.45956157291E+00  0.00000000000E+00 0.  1.
         21    1    1    2  502  503 -0.48153927906E+01 -0.19937578928E+02  0.12744432516E+04  0.12746082915E+04  0.00000000000E+00 0. -1.
         21    1    1    2  503  501  0.48153927906E+01  0.19937578928E+02  0.27856764425E+03  0.27932172755E+03  0.00000000000E+00 0.  1.
</event>
<event>
 4    1  0.6109945E+002  0.2715198E+02  0.7546771E-02  0.1446087E+00
          2   -1    0    0  503    0  0.00000000000E+00  0.00000000000E+00  0.59347554112E+03  0.59347554112E+03  0.00000000000E+00 0. -1.
         -2   -1    0    0    0  501 -0.00000000000E+00 -0.00000000000E+00 -0.12574219463E+01  0.12574219463E+01  0.00000000000E+00 0.  1.
         21    1    1    2  502  501 -0.95696768641E+01 -0.25409669413E+02  0.26341769801E+03  0.26481335623E+03  0.00000000000E+00 0.  1.
         21    1    1    2  503  502  0.95696768641E+01  0.25409669413E+02  0.32880042117E+03  0.32991960683E+03  0.00000000000E+00 0. -1.
</event>
<event>
 4    1  0.6109945E+002  0.2113359E+02  0.7546771E-02  0.1517366E+00
          2   -1    0    0  503    0  0.00000000000E+00  0.00000000000E+00  0.19125582421E+04  0.19125582421E+04  0.00000000000E+00 0.  1.
         -2   -1    0    0    0  501 -0.00000000000E+00 -0.00000000000E+00 -0.26432708558E+00  0.26432708558E+00  0.00000000000E+00 0. -1.
         21    1    1    2  502  501 -0.15248917274E+02  0.14632125588E+02  0.62965704594E+03  0.63001160630E+03  0.00000000000E+00 0.  1.
         21    1    1    2  503  502  0.15248917274E+02 -0.14632125588E+02  0.12826368691E+04  0.12828109629E+04  0.00000000000E+00 0. -1.
</event>
<event>
 4    1  0.6109945E+002  0.2069656E+02  0.7546771E-02  0.1523642E+00
          2   -1    0    0  503    0  0.00000000000E+00  0.00000000000E+00  0.66228655501E+03  0.66228655501E+03  0.00000000000E+00 0.  1.
         -2   -1    0    0    0  501 -0.00000000000E+00 -0.00000000000E+00 -0.10071818262E+02  0.10071818262E+02  0.00000000000E+00 0. -1.
         21    1    1    2  502  501 -0.10127702919E+02  0.18049304318E+02  0.90129356359E+00  0.20716179254E+02  0.00000000000E+00 0. -1.
         21    1    1    2  503  502  0.10127702919E+02 -0.18049304318E+02  0.65131344318E+03  0.65164219401E+03  0.00000000000E+00 0.  1.
</event>
<event>
 4    1  0.6109945E+002  0.2287363E+02  0.7546771E-02  0.1494091E+00
          2   -1    0    0  502    0  0.00000000000E+00  0.00000000000E+00  0.10947339379E+03  0.10947339379E+03  0.00000000000E+00 0. -1.
         -2   -1    0    0    0  501 -0.00000000000E+00 -0.00000000000E+00 -0.51734503981E+01  0.51734503981E+01  0.00000000000E+00 0.  1.
         21    1    1    2  502  503 -0.40049542776E+01 -0.22520286457E+02  0.67972985388E+02  0.71718405611E+02  0.00000000000E+00 0. -1.
         21    1    1    2  503  501  0.40049542776E+01  0.22520286457E+02  0.36326958006E+02  0.42928438579E+02  0.00000000000E+00 0.  1.
</event>
<event>
 4    1  0.6109945E+002  0.3178375E+02  0.7546771E-02  0.1404704E+00
          2   -1    0    0  502    0  0.00000000000E+00  0.00000000000E+00  0.32737937133E+02  0.32737937133E+02  0.00000000000E+00 0.  1.
         -2   -1    0    0    0  501 -0.00000000000E+00 -0.00000000000E+00 -0.41690045093E+02  0.41690045093E+02  0.00000000000E+00 0. -1.
         21    1    1    2  502  503  0.12081651835E+02 -0.29397970831E+02  0.14493525562E+02  0.34932352959E+02  0.00000000000E+00 0.  1.
         21    1    1    2  503  501 -0.12081651835E+02  0.29397970831E+02 -0.23445633522E+02  0.39495629268E+02  0.00000000000E+00 0. -1.
</event>
<event>
 4    1  0.6109945E+002  0.2021391E+02  0.7546771E-02  0.1530790E+00
          2   -1    0    0  502    0  0.00000000000E+00  0.00000000000E+00  0.56264178385E+03  0.56264178385E+03  0.00000000000E+00 0.  1.
         -2   -1    0    0    0  501 -0.00000000000E+00 -0.00000000000E+00 -0.46306203455E+01  0.46306203455E+01  0.00000000000E+00 0. -1.
         21    1    1    2  502  503 -0.13712190723E+02 -0.14851868734E+02  0.53945248574E+03  0.53983107224E+03  0.00000000000E+00 0.  1.
         21    1    1    2  503  501  0.13712190723E+02  0.14851868734E+02  0.18558677759E+02  0.27441331955E+02  0.00000000000E+00 0. -1.
</event>
<event>
 4    1  0.6109945E+002  0.3301680E+02  0.7546771E-02  0.1395069E+00
          2   -1    0    0  503    0  0.00000000000E+00  0.00000000000E+00  0.92374522099E+01  0.92374522099E+01  0.00000000000E+00 0.  1.
         -2   -1    0    0    0  501 -0.00000000000E+00 -0.00000000000E+00 -0.13230283009E+03  0.13230283009E+03  0.00000000000E+00 0. -1.
         21    1    1    2  502  501  0.33008504184E+02 -0.73996909376E+00 -0.38271641409E+02  0.50545300859E+02  0.00000000000E+00 0.  1.
         21    1    1    2  503  502 -0.33008504184E+02  0.73996909376E+00 -0.84793736471E+02  0.90994981441E+02  0.00000000000E+00 0. -1.
</event>
<event>
 4    1  0.6109945E+002  0.2009402E+02  0.7546771E-02  0.1532603E+00
          2   -1    0    0  503    0  0.00000000000E+00  0.00000000000E+00  0.15961050319E+03  0.15961050319E+03  0.00000000000E+00 0.  1.
         -2   -1    0    0    0  501 -0.00000000000E+00 -0.00000000000E+00 -0.25491857212E+01  0.25491857212E+01  0.00000000000E+00 0. -1.
         21    1    1    2  502  501 -0.17385511593E+02  0.10075397742E+02  0.71445274088E+02  0.74217227398E+02  0.00000000000E+00 0.  1.
         21    1    1    2  503  502  0.17385511593E+02 -0.10075397742E+02  0.85616043385E+02  0.87942461518E+02  0.00000000000E+00 0. -1.
</event>
<event>
 4    1  0.6109945E+002  0.2264977E+02  0.7546771E-02  0.1496943E+00
          2   -1    0    0  503    0  0.00000000000E+00  0.00000000000E+00  0.18086077926E+04  0.18086077926E+04  0.00000000000E+00 0.  1.
         -2   -1    0    0    0  501 -0.00000000000E+00 -0.00000000000E+00 -0.86025838224E+00  0.86025838224E+00  0.00000000000E+00 0. -1.
         21    1    1    2  502  501 -0.10369526286E+02 -0.20136657015E+02  0.16316607757E+03  0.16473063133E+03  0.00000000000E+00 0. -1.
         21    1    1    2  503  502  0.10369526286E+02  0.20136657015E+02  0.16445814566E+04  0.16447374196E+04  0.00000000000E+00 0.  1.
</event>
<event>
 4    1  0.6109945E+002  0.3425297E+02  0.7546771E-02  0.1385892E+00
          2   -1    0    0  502    0  0.00000000000E+00  0.00000000000E+00  0.34222375847E+02  0.34222375847E+02  0.00000000000E+00 0.  1.
         -2   -1    0    0    0  501 -0.00000000000E+00 -0.00000000000E+00 -0.49300176952E+02  0.49300176952E+02  0.00000000000E+00 0. -1.
         21    1    1    2  502  503  0.29742127795E+02 -0.16990351271E+02  0.15509193418E+02  0.37600548966E+02  0.00000000000E+00 0.  1.
         21    1    1    2  503  501 -0.29742127795E+02  0.16990351271E+02 -0.30586994523E+02  0.45922003833E+02  0.00000000000E+00 0. -1.
</event>
<event>
 4    1  0.6109945E+002  0.2035883E+02  0.7546771E-02  0.1528619E+00
          2   -1    0    0  502    0  0.00000000000E+00  0.00000000000E+00  0.60033292032E+02  0.60033292032E+02  0.00000000000E+00 0.  1.
         -2   -1    0    0    0  501 -0.00000000000E+00 -0.00000000000E+00 -0.51692783560E+02  0.51692783560E+02  0.00000000000E+00 0. -1.
         21    1    1    2  502  503  0.13055451746E+02  0.15621683823E+02  0.56169046375E+02  0.59744820667E+02  0.00000000000E+00 0.  1.
         21    1    1    2  503  501 -0.13055451746E+02 -0.15621683823E+02 -0.47828537903E+02  0.51981254926E+02  0.00000000000E+00 0. -1.
</event>
<event>
 4    1  0.6109945E+002  0.4610496E+02  0.7546771E-02  0.1316005E+00
          2   -1    0    0  502    0  0.00000000000E+00  0.00000000000E+00  0.33088498066E+03  0.33088498066E+03  0.00000000000E+00 0. -1.
         -2   -1    0    0    0  501 -0.00000000000E+00 -0.00000000000E+00 -0.17982898346E+02  0.17982898346E+02  0.00000000000E+00 0.  1.
         21    1    1    2  502  503 -0.46104954734E+02 -0.29742730193E-01  0.29629889678E+03  0.29986447601E+03  0.00000000000E+00 0. -1.
         21    1    1    2  503  501  0.46104954734E+02  0.29742730193E-01  0.16603185528E+02  0.49003402998E+02  0.00000000000E+00 0.  1.
</event>
<event>
 4    1  0.6109945E+002  0.2149421E+02  0.7546771E-02  0.1512324E+00
          2   -1    0    0  502    0  0.00000000000E+00  0.00000000000E+00  0.50241538788E+03  0.50241538788E+03  0.00000000000E+00 0.  1.
         -2   -1    0    0    0  501 -0.00000000000E+00 -0.00000000000E+00 -0.12594900173E+01  0.12594900173E+01  0.00000000000E+00 0. -1.
         21    1    1    2  502  503  0.18304670024E+02 -0.11266762548E+02  0.38141114657E+03  0.38201631328E+03  0.00000000000E+00 0.  1.
         21    1    1    2  503  501 -0.18304670024E+02  0.11266762548E+02  0.11974475130E+03  0.12165856463E+03  0.00000000000E+00 0. -1.
</event>
<event>
 4    1  0.6109945E+002  0.2479784E+02  0.7546771E-02  0.1471078E+00
          2   -1    0    0  502    0  0.00000000000E+00  0.00000000000E+00  0.11911803472E+02  0.11911803472E+02  0.00000000000E+00 0.  1.
         -2   -1    0    0    0  501 -0.00000000000E+00 -0.00000000000E+00 -0.72264318881E+02  0.72264318881E+02  0.00000000000E+00 0. -1.
         21    1    1    2  502  503 -0.64854891820E+01 -0.23934729322E+02 -0.76827584128E+01  0.25960693644E+02  0.00000000000E+00 0.  1.
         21    1    1    2  503  501  0.64854891820E+01  0.23934729322E+02 -0.52669756997E+02  0.58215428709E+02  0.00000000000E+00 0. -1.
</event>
<event>
 4    1  0.6109945E+002  0.2707853E+02  0.7546771E-02  0.1446821E+00
          2   -1    0    0  503    0  0.00000000000E+00  0.00000000000E+00  0.21444422515E+04  0.21444422515E+04  0.00000000000E+00 0.  1.
         -2   -1    0    0    0  501 -0.00000000000E+00 -0.00000000000E+00 -0.84224471264E+00  0.84224471264E+00  0.00000000000E+00 0. -1.
         21    1    1    2  502  501  0.70407114907E+01  0.26147179219E+02  0.24508103363E+03  0.24657242272E+03  0.00000000000E+00 0. -1.
         21    1    1    2  503  502 -0.70407114907E+01 -0.26147179219E+02  0.18985189732E+04  0.18987120735E+04  0.00000000000E+00 0.  1.
</event>
<event>
 4    1  0.6109945E+002  0.2986526E+02  0.7546771E-02  0.1420771E+00
          2   -1    0    0  502    0  0.00000000000E+00  0.00000000000E+00  0.45824651152E+03  0.45824651152E+03  0.00000000000E+00 0.  1.
         -2   -1    0    0    0  501 -0.00000000000E+00 -0.00000000000E+00 -0.18012376616E+02  0.18012376616E+02  0.00000000000E+00 0. -1.
         21    1    1    2  502  503  0.28470232209E+02 -0.90210511370E+01  0.44501273070E+03  0.44601374863E+03  0.00000000000E+00 0.  1.
         21    1    1    2  503  501 -0.28470232209E+02  0.90210511370E+01 -0.47785957967E+01  0.30245139501E+02  0.00000000000E+00 0. -1.
</event>
<event>
 4    1  0.6109945E+002  0.2035522E+02  0.7546771E-02  0.1528673E+00
          2   -1    0    0  503    0  0.00000000000E+00  0.00000000000E+00  0.94212448812E+02  0.94212448812E+02  0.00000000000E+00 0.  1.
         -2   -1    0    0    0  501 -0.00000000000E+00 -0.00000000000E+00 -0.49969653694E+01  0.49969653694E+01  0.00000000000E+00 0. -1.
         21    1    1    2  502  501 -0.25647174081E+01 -0.20192998128E+02  0.27432041786E+02  0.34159213477E+02  0.00000000000E+00 0. -1.
         21    1    1    2  503  502  0.25647174081E+01  0.20192998128E+02  0.61783441656E+02  0.65050200704E+02  0.00000000000E+00 0.  1.
</event>
<event>
 4    1  0.6109945E+002  0.2071651E+02  0.7546771E-02  0.1523351E+00
          2   -1    0    0  503    0  0.00000000000E+00  0.00000000000E+00  0.53821853708E+02  0.53821853708E+02  0.00000000000E+00 0.  1.
         -2   -1    0    0    0  501 -0.00000000000E+00 -0.00000000000E+00 -0.95238364019E+01  0.95238364019E+01  0.00000000000E+00 0. -1.
         21    1    1    2  502  501  0.16170012976E+02 -0.12950081199E+02  0.93720335877E+01  0.22737830509E+02  0.00000000000E+00 0. -1.
         21    1    1    2  503  502 -0.16170012976E+02  0.12950081199E+02  0.34925983719E+02  0.40607859601E+02  0.00000000000E+00 0.  1.
</event>
<event>
 4    1  0.6109945E+002  0.7622801E+02  0.7546771E-02  0.1212886E+00
          2   -1    0    0  503    0  0.00000000000E+00  0.00000000000E+00  0.40757001077E+03  0.40757001077E+03  0.00000000000E+00 0.  1.
         -2   -1    0    0    0  501 -0.00000000000E+00 -0.00000000000E+00 -0.53160667914E+02  0.53160667914E+02  0.00000000000E+00 0. -1.
         21    1    1    2  502  501  0.69881548162E+02  0.30451257571E+02 -0.19863919969E+02  0.78773632503E+02  0.00000000000E+00 0. -1.
         21    1    1    2  503  502 -0.69881548162E+02 -0.30451257571E+02  0.37427326283E+03  0.38195704618E+03  0.00000000000E+00 0.  1.
</event>
<event>
 4    1  0.6109945E+002  0.2982008E+02  0.7546771E-02  0.1421167E+00
          2   -1    0    0  502    0  0.00000000000E+00  0.00000000000E+00  0.94444478422E+03  0.94444478422E+03  0.00000000000E+00 0.  1.
         -2   -1    0    0    0  501 -0.00000000000E+00 -0.00000000000E+00 -0.22828653643E+01  0.22828653643E+01  0.00000000000E+00 0. -1.
         21    1    1    2  502  503  0.25876556462E+02 -0.14820295702E+02  0.83392597556E+03  0.83445896847E+03  0.00000000000E+00 0.  1.
         21    1    1    2  503  501 -0.25876556462E+02  0.14820295702E+02  0.10823594329E+03  0.11226868112E+03  0.00000000000E+00 0. -1.
</event>
<event>
 4    1  0.6109945E+002  0.2347912E+02  0.7546771E-02  0.1486568E+00
          2   -1    0    0  503    0  0.00000000000E+00  0.00000000000E+00  0.46702275172E+01  0.46702275172E+01  0.00000000000E+00 0. -1.
         -2   -1    0    0    0  501 -0.00000000000E+00 -0.00000000000E+00 -0.46100180824E+03  0.46100180824E+03  0.00000000000E+00 0.  1.
         21    1    1    2  502  501 -0.89331468098E+01  0.21713310205E+02 -0.42899291328E+03  0.42963494806E+03  0.00000000000E+00 0.  1.
         21    1    1    2  503  502  0.89331468098E+01 -0.21713310205E+02 -0.27338667443E+02  0.36037087695E+02  0.00000000000E+00 0. -1.
</event>
<event>
 4    1  0.6109945E+002  0.2344050E+02  0.7546771E-02  0.1487040E+00
          2   -1    0    0  502    0  0.00000000000E+00  0.00000000000E+00  0.94621786416E+03  0.94621786416E+03  0.00000000000E+00 0.  1.
         -2   -1    0    0    0  501 -0.00000000000E+00 -0.00000000000E+00 -0.39809672481E+01  0.39809672481E+01  0.00000000000E+00 0. -1.
         21    1    1    2  502  503  0.14811994926E+02  0.18167605116E+02  0.91020234141E+03  0.91050412376E+03  0.00000000000E+00 0.  1.
         21    1    1    2  503  501 -0.14811994926E+02 -0.18167605116E+02  0.32034555502E+02  0.39694707651E+02  0.00000000000E+00 0. -1.
</event>
<event>
 4    1  0.6109945E+002  0.2697376E+02  0.7546771E-02  0.1447872E+00
          2   -1    0    0  503    0  0.00000000000E+00  0.00000000000E+00  0.30274552062E+03  0.30274552062E+03  0.00000000000E+00 0.  1.
         -2   -1    0    0    0  501 -0.00000000000E+00 -0.00000000000E+00 -0.25503424832E+01  0.25503424832E+01  0.00000000000E+00 0. -1.
         21    1    1    2  502  501  0.25741501666E+02 -0.80597150541E+01  0.11344247947E+03  0.11660523172E+03  0.00000000000E+00 0. -1.
         21    1    1    2  503  502 -0.25741501666E+02  0.80597150541E+01  0.18675269867E+03  0.18869063139E+03  0.00000000000E+00 0.  1.
</event>
<event>
 4    1  0.6109945E+002  0.5001430E+02  0.7546771E-02  0.1298110E+00
          2   -1    0    0  503    0  0.00000000000E+00  0.00000000000E+00  0.36108925642E+03  0.36108925642E+03  0.00000000000E+00 0. -1.
         -2   -1    0    0    0  501 -0.00000000000E+00 -0.00000000000E+00 -0.69831032065E+01  0.69831032065E+01  0.00000000000E+00 0.  1.
         21    1    1    2  502  501 -0.39728278902E+02  0.30382462930E+02  0.16062457975E+03  0.16823104891E+03  0.00000000000E+00 0.  1.
         21    1    1    2  503  502  0.39728278902E+02 -0.30382462930E+02  0.19348157347E+03  0.19984131072E+03  0.00000000000E+00 0. -1.
</event>
<event>
 4    1  0.6109945E+002  0.8004322E+02  0.7546771E-02  0.1203747E+00
          2   -1    0    0  502    0  0.00000000000E+00  0.00000000000E+00  0.21188935175E+04  0.21188935175E+04  0.00000000000E+00 0.  1.
         -2   -1    0    0    0  501 -0.00000000000E+00 -0.00000000000E+00 -0.36002878727E+01  0.36002878727E+01  0.00000000000E+00 0. -1.
         21    1    1    2  502  503  0.71333627633E+02 -0.36310205991E+02  0.14823416344E+04  0.14845011413E+04  0.00000000000E+00 0.  1.
         21    1    1    2  503  501 -0.71333627633E+02  0.36310205991E+02  0.63295159523E+03  0.63799266406E+03  0.00000000000E+00 0. -1.
</event>
<event>
 4    1  0.6109945E+002  0.2003984E+02  0.7546771E-02  0.1533428E+00
          2   -1    0    0  503    0  0.00000000000E+00  0.00000000000E+00  0.12924659248E+02  0.12924659248E+02  0.00000000000E+00 0. -1.
         -2   -1    0    0    0  501 -0.00000000000E+00 -0.00000000000E+00 -0.31759227368E+02  0.31759227368E+02  0.00000000000E+00 0.  1.
         21    1    1    2  502  501  0.18917333552E+02 -0.66128348600E+01 -0.12703788422E+02  0.23727227691E+02  0.00000000000E+00 0. -1.
         21    1    1    2  503  502 -0.18917333552E+02  0.66128348600E+01 -0.61307796977E+01  0.20956658926E+02  0.00000000000E+00 0.  1.
</event>
<event>
 4    1  0.6109945E+002  0.2014361E+02  0.7546771E-02  0.1531852E+00
          2   -1    0    0  502    0  0.00000000000E+00  0.00000000000E+00  0.39987470439E+03  0.39987470439E+03  0.00000000000E+00 0. -1.
         -2   -1    0    0    0  501 -0.00000000000E+00 -0.00000000000E+00 -0.10283781025E+01  0.10283781025E+01  0.00000000000E+00 0.  1.
         21    1    1    2  502  503  0.19310603945E+02  0.57328603262E+01  0.22251502988E+03  0.22342493960E+03  0.00000000000E+00 0. -1.
         21    1    1    2  503  501 -0.19310603945E+02 -0.57328603262E+01  0.17633129641E+03  0.17747814289E+03  0.00000000000E+00 0.  1.
</event>
<event>
 4    1  0.6109945E+002  0.3921719E+02  0.7546771E-02  0.1353135E+00
          2   -1    0    0  503    0  0.00000000000E+00  0.00000000000E+00  0.94995933417E+03  0.94995933417E+03  0.00000000000E+00 0.  1.
         -2   -1    0    0    0  501 -0.00000000000E+00 -0.00000000000E+00 -0.74953460235E+02  0.74953460235E+02  0.00000000000E+00 0. -1.
         21    1    1    2  502  501 -0.23827441361E+02 -0.31148693976E+02 -0.69388684995E+02  0.79704314209E+02  0.00000000000E+00 0. -1.
         21    1    1    2  503  502  0.23827441361E+02  0.31148693976E+02  0.94439455893E+03  0.94520848020E+03  0.00000000000E+00 0.  1.
</event>
<event>
 4    1  0.6109945E+002  0.3725895E+02  0.7546771E-02  0.1365343E+00
          2   -1    0    0  502    0  0.00000000000E+00  0.00000000000E+00  0.16226480339E+03  0.16226480339E+03  0.00000000000E+00 0. -1.
         -2   -1    0    0    0  501 -0.00000000000E+00 -0.00000000000E+00 -0.24935097801E+02  0.24935097801E+02  0.00000000000E+00 0.  1.
         21    1    1    2  502  503  0.20353842556E+02  0.31208174753E+02  0.14452679212E+03  0.14925221177E+03  0.00000000000E+00 0. -1.
         21    1    1    2  503  501 -0.20353842556E+02 -0.31208174753E+02 -0.71970865256E+01  0.37947689424E+02  0.00000000000E+00 0.  1.
</event>
<event>
 4    1  0.6109945E+002  0.4661635E+02  0.7546771E-02  0.1313549E+00
          2   -1    0    0  502    0  0.00000000000E+00  0.00000000000E+00  0.25552151958E+01  0.25552151958E+01  0.00000000000E+00 0.  1.
         -2   -1    0    0    0  501 -0.00000000000E+00 -0.00000000000E+00 -0.11708585015E+04  0.11708585015E+04  0.00000000000E+00 0. -1.
         21    1    1    2  502  503  0.29702014233E+02  0.35928740406E+02 -0.27723486128E+03  0.28112675495E+03  0.00000000000E+00 0.  1.
         21    1    1    2  503  501 -0.29702014233E+02 -0.35928740406E+02 -0.89106842504E+03  0.89228696177E+03  0.00000000000E+00 0. -1.
</event>
<event>
 4    1  0.6109945E+002  0.3531493E+02  0.7546771E-02  0.1378363E+00
          2   -1    0    0  503    0  0.00000000000E+00  0.00000000000E+00  0.48850418536E+01  0.48850418536E+01  0.00000000000E+00 0.  1.
         -2   -1    0    0    0  501 -0.00000000000E+00 -0.00000000000E+00 -0.93494788768E+03  0.93494788768E+03  0.00000000000E+00 0. -1.
         21    1    1    2  502  501  0.31640391039E+02 -0.15685334108E+02 -0.86568535736E+03  0.86640537971E+03  0.00000000000E+00 0. -1.
         21    1    1    2  503  502 -0.31640391039E+02  0.15685334108E+02 -0.64377488467E+02  0.73427549820E+02  0.00000000000E+00 0.  1.
</event>
<event>
 4    1  0.6109945E+002  0.2523034E+02  0.7546771E-02  0.1466243E+00
          2   -1    0    0  502    0  0.00000000000E+00  0.00000000000E+00  0.68020134060E+03  0.68020134060E+03  0.00000000000E+00 0. -1.
         -2   -1    0    0    0  501 -0.00000000000E+00 -0.00000000000E+00 -0.10431339598E+01  0.10431339598E+01  0.00000000000E+00 0.  1.
         21    1    1    2  502  503  0.13619989082E+02  0.21238307566E+02  0.44881371670E+03  0.44952232660E+03  0.00000000000E+00 0. -1.
         21    1    1    2  503  501 -0.13619989082E+02 -0.21238307566E+02  0.23034448994E+03  0.23172214796E+03  0.00000000000E+00 0.  1.
</event>
<event>
 4    1  0.6109945E+002  0.2202370E+02  0.7546771E-02  0.1505135E+00
          2   -1    0    0  502    0  0.00000000000E+00  0.00000000000E+00  0.89698098118E+01  0.89698098118E+01  0.00000000000E+00 0. -1.
         -2   -1    0    0    0  501 -0.00000000000E+00 -0.00000000000E+00 -0.46637507721E+03  0.46637507721E+03  0.00000000000E+00 0.  1.
         21    1    1    2  502  503  0.18546236078E+02  0.11877733890E+02 -0.52333610999E+01  0.22636949958E+02  0.00000000000E+00 0. -1.
         21    1    1    2  503  501 -0.18546236078E+02 -0.11877733890E+02 -0.45217190630E+03  0.45270793707E+03  0.00000000000E+00 0.  1.
</event>
<event>
 4    1  0.6109945E+002  0.2596918E+02  0.7546771E-02  0.1458247E+00
          2   -1    0    0  503    0  0.00000000000E+00  0.00000000000E+00  0.11844603414E+04  0.11844603414E+04  0.00000000000E+00 0.  1.
         -2   -1    0    0    0  501 -0.00000000000E+00 -0.00000000000E+00 -0.83695173238E+00  0.83695173238E+00  0.00000000000E+00 0. -1.
         21    1    1    2  502  501 -0.61744979615E+01 -0.25224471671E+02  0.25671217468E+03  0.25802236148E+03  0.00000000000E+00 0. -1.
         21    1    1    2  503  502  0.61744979615E+01  0.25224471671E+02  0.92691121502E+03  0.92727493168E+03  0.00000000000E+00 0.  1.
</event>
<event>
 4    1  0.6109945E+002  0.2443794E+02  0.7546771E-02  0.1475190E+00
          2   -1    0    0  503    0  0.00000000000E+00  0.00000000000E+00  0.11938092238E+03  0.11938092238E+03  0.00000000000E+00 0.  1.
         -2   -1    0    0    0  501 -0.00000000000E+00 -0.00000000000E+00 -0.18368054467E+02  0.18368054467E+02  0.00000000000E+00 0. -1.
         21    1    1    2  502  501  0.84187461029E+00  0.24423437081E+02 -0.82450634965E+01  0.25791357153E+02  0.00000000000E+00 0. -1.
         21    1    1    2  503  502 -0.84187461029E+00 -0.24423437081E+02  0.10925793141E+03  0.11195761969E+03  0.00000000000E+00 0.  1.
</event>
<event>
 4    1  0.6109945E+002  0.2205494E+02  0.7546771E-02  0.1504719E+00
          2   -1    0    0  503    0  0.00000000000E+00  0.00000000000E+00  0.14378176209E+03  0.14378176209E+03  0.00000000000E+00 0. -1.
         -2   -1    0    0    0  501 -0.00000000000E+00 -0.00000000000E+00 -0.90359701955E+01  0.90359701955E+01  0.00000000000E+00 0.  1.
         21    1    1    2  502  501 -0.21450906770E+02  0.51263091466E+01  0.69372865140E+01  0.23120259317E+02  0.00000000000E+00 0.  1.
         21    1    1    2  503  502  0.21450906770E+02 -0.51263091466E+01  0.12780850538E+03  0.12969747297E+03  0.00000000000E+00 0. -1.
</event>
<event>
 4    1  0.6109945E+002  0.2264336E+02  0.7546771E-02  0.1497026E+00
          2   -1    0    0  502    0  0.00000000000E+00  0.00000000000E+00  0.11881117859E+03  0.11881117859E+03  0.00000000000E+00 0.  1.
         -2   -1    0    0    0  501 -0.00000000000E+00 -0.00000000000E+00 -0.59005556806E+01  0.59005556806E+01  0.00000000000E+00 0. -1.
         21    1    1    2  502  503 -0.82733657344E+00 -0.22628236750E+02  0.88774646588E+02  0.91616916893E+02  0.00000000000E+00 0.  1.
         21    1    1    2  503  501  0.82733657344E+00  0.22628236750E+02  0.24135976319E+02  0.33094817375E+02  0.00000000000E+00 0. -1.
</event>
<event>
 4    1  0.6109945E+002  0.2384826E+02  0.7546771E-02  0.1482113E+00
          2   -1    0    0  503    0  0.00000000000E+00  0.00000000000E+00  0.10132097413E+04  0.10132097413E+04  0.00000000000E+00 0. -1.
         -2   -1    0    0    0  501 -0.00000000000E+00 -0.00000000000E+00 -0.32884874536E+02  0.32884874536E+02  0.00000000000E+00 0.  1.
         21    1    1    2  502  501  0.14750124004E+01  0.23802599314E+02 -0.28401613739E+02  0.37086265095E+02  0.00000000000E+00 0.  1.
         21    1    1    2  503  502 -0.14750124004E+01 -0.23802599314E+02  0.10087264805E+04  0.10090083507E+04  0.00000000000E+00 0. -1.
</event>
<event>
 4    1  0.6109945E+002  0.2022831E+02  0.7546771E-02  0.1530574E+00
          2   -1    0    0  502    0  0.00000000000E+00  0.00000000000E+00  0.72331751338E+02  0.72331751338E+02  0.00000000000E+00 0. -1.
         -2   -1    0    0    0  501 -0.00000000000E+00 -0.00000000000E+00 -0.13480897894E+02  0.13480897894E+02  0.00000000000E+00 0.  1.
         21    1    1    2  502  503 -0.15113436229E+01 -0.20171774049E+02  0.62112195510E+02  0.65323115808E+02  0.00000000000E+00 0. -1.
         21    1    1    2  503  501  0.15113436229E+01  0.20171774049E+02 -0.32613420663E+01  0.20489533424E+02  0.00000000000E+00 0.  1.
</event>
<event>
 4    1  0.6109945E+002  0.2868569E+02  0.7546771E-02  0.1431372E+00
          2   -1    0    0  502    0  0.00000000000E+00  0.00000000000E+00  0.19248334831E+02  0.19248334831E+02  0.00000000000E+00 0. -1.
         -2   -1    0    0    0  501 -0.00000000000E+00 -0.00000000000E+00 -0.50622173696E+02  0.50622173696E+02  0.00000000000E+00 0.  1.
         21    1    1    2  502  503 -0.17915764773E+02 -0.22402998656E+02 -0.29463360304E+02  0.41121266720E+02  0.00000000000E+00 0.  1.
         21    1    1    2  503  501  0.17915764773E+02  0.22402998656E+02 -0.19104785608E+01  0.28749241808E+02  0.00000000000E+00 0. -1.
</event>
<event>
 4    1  0.6109945E+002  0.2449279E+02  0.7546771E-02  0.1474558E+00
          2   -1    0    0  503    0  0.00000000000E+00  0.00000000000E+00  0.11375005614E+04  0.11375005614E+04  0.00000000000E+00 0. -1.
         -2   -1    0    0    0  501 -0.00000000000E+00 -0.00000000000E+00 -0.99655781645E+01  0.99655781645E+01  0.00000000000E+00 0.  1.
         21    1    1    2  502  501  0.92600323288E+01  0.22674843556E+02  0.54218312754E+01  0.25085712735E+02  0.00000000000E+00 0.  1.
         21    1    1    2  503  502 -0.92600323288E+01 -0.22674843556E+02  0.11221131519E+04  0.11223804268E+04  0.00000000000E+00 0. -1.
</event>
<event>
 4    1  0.6109945E+002  0.2006182E+02  0.7546771E-02  0.1533093E+00
          2   -1    0    0  502    0  0.00000000000E+00  0.00000000000E+00  0.94489612605E+02  0.94489612605E+02  0.00000000000E+00 0. -1.
         -2   -1    0    0    0  501 -0.00000000000E+00 -0.00000000000E+00 -0.59974357112E+01  0.59974357112E+01  0.00000000000E+00 0.  1.
         21    1    1    2  502  503  0.40378795296E+01  0.19651266630E+02  0.71292924324E+02  0.74061851246E+02  0.00000000000E+00 0. -1.
         21    1    1    2  503  501 -0.40378795296E+01 -0.19651266630E+02  0.17199252570E+02  0.26425197071E+02  0.00000000000E+00 0.  1.
</event>
<event>
 4    1  0.6109945E+002  0.2768846E+02  0.7546771E-02  0.1440812E+00
          2   -1    0    0  503    0  0.00000000000E+00  0.00000000000E+00  0.18081288685E+04  0.18081288685E+04  0.00000000000E+00 0. -1.
         -2   -1    0    0    0  501 -0.00000000000E+00 -0.00000000000E+00 -0.79920878548E+00  0.79920878548E+00  0.00000000000E+00 0.  1.
         21    1    1    2  502  501 -0.14955936846E+02 -0.23301732612E+02  0.28394363343E+03  0.28529044456E+03  0.00000000000E+00 0.  1.
         21    1    1    2  503  502  0.14955936846E+02  0.23301732612E+02  0.15233860263E+04  0.15236376327E+04  0.00000000000E+00 0. -1.
</event>
<event>
 4    1  0.6109945E+002  0.2243377E+02  0.7546771E-02  0.1499733E+00
          2   -1    0    0  503    0  0.00000000000E+00  0.00000000000E+00  0.72625522738E+03  0.72625522738E+03  0.00000000000E+00 0. -1.
         -2   -1    0    0    0  501 -0.00000000000E+00 -0.00000000000E+00 -0.22565484011E+01  0.22565484011E+01  0.00000000000E+00 0.  1.
         21    1    1    2  502  501  0.22369706052E+02 -0.16941565599E+01  0.58789056057E+02  0.62923978160E+02  0.00000000000E+00 0.  1.
         21    1    1    2  503  502 -0.22369706052E+02  0.16941565599E+01  0.66520962292E+03  0.66558779762E+03  0.00000000000E+00 0. -1.
</event>
<event>
 4    1  0.6109945E+002  0.2864312E+02  0.7546771E-02  0.1431766E+00
          2   -1    0    0  502    0  0.00000000000E+00  0.00000000000E+00  0.94342897861E+02  0.94342897861E+02  0.00000000000E+00 0.  1.
         -2   -1    0    0    0  501 -0.00000000000E+00 -0.00000000000E+00 -0.10749142536E+02  0.10749142536E+02  0.00000000000E+00 0. -1.
         21    1    1    2  502  503 -0.10722205695E+02  0.26560546361E+02  0.64760334571E+02  0.70811928739E+02  0.00000000000E+00 0. -1.
         21    1    1    2  503  501  0.10722205695E+02 -0.26560546361E+02  0.18833420754E+02  0.34280111658E+02  0.00000000000E+00 0.  1.
</event>
<event>
 4    1  0.6109945E+002  0.3750274E+02  0.7546771E-02  0.1363775E+00
          2   -1    0    0  502    0  0.00000000000E+00  0.00000000000E+00  0.24314827766E+04  0.24314827766E+04  0.00000000000E+00 0. -1.
         -2   -1    0    0    0  501 -0.00000000000E+00 -0.00000000000E+00 -0.20130278696E+01  0.20130278696E+01  0.00000000000E+00 0.  1.
         21    1    1    2  502  503  0.23655574567E+02  0.29101022760E+02  0.22418993347E+04  0.22422129878E+04  0.00000000000E+00 0. -1.
         21    1    1    2  503  501 -0.23655574567E+02 -0.29101022760E+02  0.18757041410E+03  0.19128281674E+03  0.00000000000E+00 0.  1.
</event>
<event>
 4    1  0.6109945E+002  0.2263263E+02  0.7546771E-02  0.1497164E+00
          2   -1    0    0  503    0  0.00000000000E+00  0.00000000000E+00  0.11807993647E+04  0.11807993647E+04  0.00000000000E+00 0.  1.
         -2   -1    0    0    0  501 -0.00000000000E+00 -0.00000000000E+00 -0.88845969154E+00  0.88845969154E+00  0.00000000000E+00 0. -1.
         21    1    1    2  502  501  0.22631144914E+02 -0.25893309254E+00  0.16729160334E+03  0.16881562817E+03  0.00000000000E+00 0. -1.
         21    1    1    2  503  502 -0.22631144914E+02  0.25893309254E+00  0.10126193017E+04  0.10128721962E+04  0.00000000000E+00 0.  1.
</event>
<event>
 4    1  0.6109945E+002  0.3246653E+02  0.7546771E-02  0.1399306E+00
          2   -1    0    0  502    0  0.00000000000E+00  0.00000000000E+00  0.62061163250E+03  0.62061163250E+03  0.00000000000E+00 0. -1.
         -2   -1    0    0    0  501 -0.00000000000E+00 -0.00000000000E+00 -0.11712466698E+02  0.11712466698E+02  0.00000000000E+00 0.  1.
         21    1    1    2  502  503  0.15406997972E+01  0.32429953021E+02  0.59679062243E+03  0.59767309010E+03  0.00000000000E+00 0. -1.
         21    1    1    2  503  501 -0.15406997972E+01 -0.32429953021E+02  0.12108543369E+02  0.34651009096E+02  0.00000000000E+00 0.  1.
</event>
<event>
 4    1  0.6109945E+002  0.2303964E+02  0.7546771E-02  0.1492001E+00
          2   -1    0    0  503    0  0.00000000000E+00  0.00000000000E+00  0.13726997844E+03  0.13726997844E+03  0.00000000000E+00 0.  1.
         -2   -1    0    0    0  501 -0.00000000000E+00 -0.00000000000E+00 -0.58053430148E+01  0.58053430148E+01  0.00000000000E+00 0. -1.
         21    1    1    2  502  501 -0.22969404272E+02 -0.17976566420E+01  0.24395751385E+02  0.33555592494E+02  0.00000000000E+00 0. -1.
         21    1    1    2  503  502  0.22969404272E+02  0.17976566420E+01  0.10706888404E+03  0.10951972896E+03  0.00000000000E+00 0.  1.
</event>
<event>
 4    1  0.6109945E+002  0.2325758E+02  0.7546771E-02  0.1489289E+00
          2   -1    0    0  502    0  0.00000000000E+00  0.00000000000E+00  0.55556720041E+01  0.55556720041E+01  0.00000000000E+00 0. -1.
         -2   -1    0    0    0  501 -0.00000000000E+00 -0.00000000000E+00 -0.98993204566E+02  0.98993204566E+02  0.00000000000E+00 0.  1.
         21    1    1    2  502  503 -0.14263272774E+02  0.18370467652E+02 -0.53427682354E+02  0.58270337855E+02  0.00000000000E+00 0.  1.
         21    1    1    2  503  501  0.14263272774E+02 -0.18370467652E+02 -0.40009850208E+02  0.46278538716E+02  0.00000000000E+00 0. -1.
</event>
<event>
 4    1  0.6109945E+002  0.2335354E+02  0.7546771E-02  0.1488106E+00
          2   -1    0    0  502    0  0.00000000000E+00  0.00000000000E+00  0.57995057803E+03  0.57995057803E+03  0.00000000000E+00 0. -1.
         -2   -1    0    0    0  501 -0.00000000000E+00 -0.00000000000E+00 -0.22610519699E+01  0.22610519699E+01  0.00000000000E+00 0.  1.
         21    1    1    2  502  503 -0.20798047449E+02 -0.10622111130E+02  0.51132379783E+03  0.51185682984E+03  0.00000000000E+00 0. -1.
         21    1    1    2  503  501  0.20798047449E+02  0.10622111130E+02  0.66365728224E+02  0.70354800158E+02  0.00000000000E+00 0.  1.
</event>
<event>
 4    1  0.6109945E+002  0.2128411E+02  0.7546771E-02  0.1515247E+00
          2   -1    0    0  502    0  0.00000000000E+00  0.00000000000E+00  0.14767280774E+04  0.14767280774E+04  0.00000000000E+00 0. -1.
         -2   -1    0    0    0  501 -0.00000000000E+00 -0.00000000000E+00 -0.32310148857E+00  0.32310148857E+00  0.00000000000E+00 0.  1.
         21    1    1    2  502  503 -0.15733961516E+02 -0.14333730304E+02  0.90424966198E+03  0.90450011861E+03  0.00000000000E+00 0. -1.
         21    1    1    2  503  501  0.15733961516E+02  0.14333730304E+02  0.57215531397E+03  0.57255106032E+03  0.00000000000E+00 0.  1.
</event>
<event>
 4    1  0.6109945E+002  0.2018855E+02  0.7546771E-02  0.1531173E+00
          2   -1    0    0  502    0  0.00000000000E+00  0.00000000000E+00  0.10953052549E+02  0.10953052549E+02  0.00000000000E+00 0.  1.
         -2   -1    0    0    0  501 -0.00000000000E+00 -0.00000000000E+00 -0.39804967403E+02  0.39804967403E+02  0.00000000000E+00 0. -1.
         21    1    1    2  502  503 -0.12826744088E+02 -0.15590124831E+02 -0.79476293337E+01  0.21696593469E+02  0.00000000000E+00 0.  1.
         21    1    1    2  503  501  0.12826744088E+02  0.15590124831E+02 -0.20904285521E+02  0.29061426484E+02  0.00000000000E+00 0. -1.
</event>
<event>
 4    1  0.6109945E+002  0.3972109E+02  0.7546771E-02  0.1350128E+00
          2   -1    0    0  503    0  0.00000000000E+00  0.00000000000E+00  0.18886749815E+01  0.18886749815E+01  0.00000000000E+00 0.  1.
         -2   -1    0    0    0  501 -0.00000000000E+00 -0.00000000000E+00 -0.84687733927E+03  0.84687733927E+03  0.00000000000E+00 0. -1.
         21    1    1    2  502  501 -0.15234502261E+02 -0.36683438700E+02 -0.47193816398E+03  0.47360679403E+03  0.00000000000E+00 0.  1.
         21    1    1    2  503  502  0.15234502261E+02  0.36683438700E+02 -0.37305050031E+03  0.37515922022E+03  0.00000000000E+00 0. -1.
</event>
<event>
 4    1  0.6109945E+002  0.2933538E+02  0.7546771E-02  0.1425461E+00
          2   -1    0    0  502    0  0.00000000000E+00  0.00000000000E+00  0.17822730151E+03  0.17822730151E+03  0.00000000000E+00 0.  1.
         -2   -1    0    0    0  501 -0.00000000000E+00 -0.00000000000E+00 -0.53244898593E+01  0.53244898593E+01  0.00000000000E+00 0. -1.
         21    1    1    2  502  503 -0.18236680997E+02 -0.22977989234E+02  0.11446319003E+03  0.11816254227E+03  0.00000000000E+00 0.  1.
         21    1    1    2  503  501  0.18236680997E+02  0.22977989234E+02  0.58439621620E+02  0.65389249102E+02  0.00000000000E+00 0. -1.
</event>
<event>
 4    1  0.6109945E+002  0.4308527E+02  0.7546771E-02  0.1331297E+00
          2   -1    0    0  502    0  0.00000000000E+00  0.00000000000E+00  0.16497419193E+04  0.16497419193E+04  0.00000000000E+00 0. -1.
         -2   -1    0    0    0  501 -0.00000000000E+00 -0.00000000000E+00 -0.14121413499E+01  0.14121413499E+01  0.00000000000E+00 0.  1.
         21    1    1    2  502  503  0.38105212544E+02  0.20108030208E+02  0.11962925223E+04  0.11970681430E+04  0.00000000000E+00 0. -1.
         21    1    1    2  503  501 -0.38105212544E+02 -0.20108030208E+02  0.45203725566E+03  0.45408591765E+03  0.00000000000E+00 0.  1.
</event>
<event>
 4    1  0.6109945E+002  0.2444074E+02  0.7546771E-02  0.1475158E+00
          2   -1    0    0  503    0  0.00000000000E+00  0.00000000000E+00  0.61252169211E+01  0.61252169211E+01  0.00000000000E+00 0. -1.
         -2   -1    0    0    0  501 -0.00000000000E+00 -0.00000000000E+00 -0.11235647149E+03  0.11235647149E+03  0.00000000000E+00 0.  1.
         21    1    1    2  502  501 -0.58069893208E+01  0.23740869376E+02 -0.74640592623E+02  0.78540232180E+02  0.00000000000E+00 0.  1.
         21    1    1    2  503  502  0.58069893208E+01 -0.23740869376E+02 -0.31590661945E+02  0.39941456231E+02  0.00000000000E+00 0. -1.
</event>
<event>
 4    1  0.6109945E+002  0.2219694E+02  0.7546771E-02  0.1502836E+00
          2   -1    0    0  502    0  0.00000000000E+00  0.00000000000E+00  0.55610079133E+00  0.55610079133E+00  0.00000000000E+00 0. -1.
         -2   -1    0    0    0  501 -0.00000000000E+00 -0.00000000000E+00 -0.88792567709E+03  0.88792567709E+03  0.00000000000E+00 0.  1.
         21    1    1    2  502  503  0.22166341806E+02  0.11650349937E+01 -0.46438536630E+03  0.46491555410E+03  0.00000000000E+00 0.  1.
         21    1    1    2  503  501 -0.22166341806E+02 -0.11650349937E+01 -0.42298421001E+03  0.42356622378E+03  0.00000000000E+00 0. -1.
</event>
<event>
 4    1  0.6109945E+002  0.2900917E+02  0.7546771E-02  0.1428407E+00
          2   -1    0    0  503    0  0.00000000000E+00  0.00000000000E+00  0.78941964248E+03  0.78941964248E+03  0.00000000000E+00 0. -1.
         -2   -1    0    0    0  501 -0.00000000000E+00 -0.00000000000E+00 -0.12739569848E+01  0.12739569848E+01  0.00000000000E+00 0.  1.
         21    1    1    2  502  501  0.55184157622E+01  0.28479445547E+02  0.23434749047E+03  0.23613614297E+03  0.00000000000E+00 0.  1.
         21    1    1    2  503  502 -0.55184157622E+01 -0.28479445547E+02  0.55379819503E+03  0.55455745649E+03  0.00000000000E+00 0. -1.
</event>
<event>
 4    1  0.6109945E+002  0.2646508E+02  0.7546771E-02  0.1453057E+00
          2   -1    0    0  503    0  0.00000000000E+00  0.00000000000E+00  0.54405154805E+03  0.54405154805E+03  0.00000000000E+00 0. -1.
         -2   -1    0    0    0  501 -0.00000000000E+00 -0.00000000000E+00 -0.12892749544E+01  0.12892749544E+01  0.00000000000E+00 0.  1.
         21    1    1    2  502  501 -0.24316162832E+02  0.10446281470E+02  0.28183729427E+03  0.28307712909E+03  0.00000000000E+00 0.  1.
         21    1    1    2  503  502  0.24316162832E+02 -0.10446281470E+02  0.26092497883E+03  0.26226369392E+03  0.00000000000E+00 0. -1.
</event>
<event>
 4    1  0.6109945E+002  0.3241220E+02  0.7546771E-02  0.1399730E+00
          2   -1    0    0  503    0  0.00000000000E+00  0.00000000000E+00  0.15315565910E+04  0.15315565910E+04  0.00000000000E+00 0.  1.
         -2   -1    0    0    0  501 -0.00000000000E+00 -0.00000000000E+00 -0.29154845465E+01  0.29154845465E+01  0.00000000000E+00 0. -1.
         21    1    1    2  502  501 -0.31412431112E+02 -0.79881163020E+01  0.93383119639E+02  0.98848155592E+02  0.00000000000E+00 0. -1.
         21    1    1    2  503  502  0.31412431112E+02  0.79881163020E+01  0.14352579868E+04  0.14356239199E+04  0.00000000000E+00 0.  1.
</event>
<event>
 4    1  0.6109945E+002  0.5843661E+02  0.7546771E-02  0.1265239E+00
          2   -1    0    0  502    0  0.00000000000E+00  0.00000000000E+00  0.95990132045E+01  0.95990132045E+01  0.00000000000E+00 0.  1.
         -2   -1    0    0    0  501 -0.00000000000E+00 -0.00000000000E+00 -0.36772310293E+03  0.36772310293E+03  0.00000000000E+00 0. -1.
         21    1    1    2  502  503 -0.49935897382E+02  0.30351994941E+02 -0.21310654005E+03  0.22097338042E+03  0.00000000000E+00 0. -1.
         21    1    1    2  503  501  0.49935897382E+02 -0.30351994941E+02 -0.14501754968E+03  0.15634873571E+03  0.00000000000E+00 0.  1.
</event>
<event>
 4    1  0.6109945E+002  0.3831642E+02  0.7546771E-02  0.1358644E+00
          2   -1    0    0  502    0  0.00000000000E+00  0.00000000000E+00  0.12576639193E+04  0.12576639193E+04  0.00000000000E+00 0. -1.
         -2   -1    0    0    0  501 -0.00000000000E+00 -0.00000000000E+00 -0.25763897326E+01  0.25763897326E+01  0.00000000000E+00 0.  1.
         21    1    1    2  502  503  0.26189291610E+02  0.27969069502E+02  0.10935347461E+04  0.10942058256E+04  0.00000000000E+00 0. -1.
         21    1    1    2  503  501 -0.26189291610E+02 -0.27969069502E+02  0.16155278352E+03  0.16603448348E+03  0.00000000000E+00 0.  1.
</event>
<event>
 4    1  0.6109945E+002  0.2249739E+02  0.7546771E-02  0.1498908E+00
          2   -1    0    0  502    0  0.00000000000E+00  0.00000000000E+00  0.14871800940E+04  0.14871800940E+04  0.00000000000E+00 0.  1.
         -2   -1    0    0    0  501 -0.00000000000E+00 -0.00000000000E+00 -0.50650765764E+00  0.50650765764E+00  0.00000000000E+00 0. -1.
         21    1    1    2  502  503  0.53467346796E+01 -0.21852804137E+02  0.11694001855E+04  0.11696165724E+04  0.00000000000E+00 0.  1.
         21    1    1    2  503  501 -0.53467346796E+01  0.21852804137E+02  0.31727340087E+03  0.31807002927E+03  0.00000000000E+00 0. -1.
</event>
<event>
 4    1  0.6109945E+002  0.2083569E+02  0.7546771E-02  0.1521624E+00
          2   -1    0    0  502    0  0.00000000000E+00  0.00000000000E+00  0.11481415324E+03  0.11481415324E+03  0.00000000000E+00 0. -1.
         -2   -1    0    0    0  501 -0.00000000000E+00 -0.00000000000E+00 -0.48823618436E+02  0.48823618436E+02  0.00000000000E+00 0.  1.
         21    1    1    2  502  503 -0.16788504483E+02  0.12339862542E+02  0.11158210558E+03  0.11351075885E+03  0.00000000000E+00 0. -1.
         21    1    1    2  503  501  0.16788504483E+02 -0.12339862542E+02 -0.45591570767E+02  0.50127012830E+02  0.00000000000E+00 0.  1.
</event>
<event>
 4    1  0.6109945E+002  0.2168170E+02  0.7546771E-02  0.1509750E+00
          2   -1    0    0  502    0  0.00000000000E+00  0.00000000000E+00  0.69003567565E+02  0.69003567565E+02  0.00000000000E+00 0.  1.
         -2   -1    0    0    0  501 -0.00000000000E+00 -0.00000000000E+00 -0.68338096384E+01  0.68338096384E+01  0.00000000000E+00 0. -1.
         21    1    1    2  502  503 -0.10306507629E+02 -0.19075430951E+02  0.28974195835E+02  0.36188398552E+02  0.00000000000E+00 0. -1.
         21    1    1    2  503  501  0.10306507629E+02  0.19075430951E+02  0.33195562091E+02  0.39648978651E+02  0.00000000000E+00 0.  1.
</event>
<event>
 4    1  0.6109945E+002  0.2108781E+02  0.7546771E-02  0.1518015E+00
          2   -1    0    0  502    0  0.00000000000E+00  0.00000000000E+00  0.19808737682E+03  0.19808737682E+03  0.00000000000E+00 0. -1.
         -2   -1    0    0    0  501 -0.00000000000E+00 -0.00000000000E+00 -0.29378334366E+02  0.29378334366E+02  0.00000000000E+00 0.  1.
         21    1    1    2  502  503  0.27320290512E+01 -0.20910084576E+02  0.19365557979E+03  0.19480035729E+03  0.00000000000E+00 0. -1.
         21    1    1    2  503  501 -0.27320290512E+01  0.20910084576E+02 -0.24946537335E+02  0.32665353890E+02  0.00000000000E+00 0.  1.
</event>
<event>
 4    1  0.6109945E+002  0.3086079E+02  0.7546771E-02  0.1412261E+00
          2   -1    0    0  503    0  0.00000000000E+00  0.00000000000E+00  0.72313762763E+03  0.72313762763E+03  0.00000000000E+00 0. -1.
         -2   -1    0    0    0  501 -0.00000000000E+00 -0.00000000000E+00 -0.62065044364E+01  0.62065044364E+01  0.00000000000E+00 0.  1.
         21    1    1    2  502  501  0.52886734849E+01 -0.30404246441E+02  0.34789634019E+02  0.46504912687E+02  0.00000000000E+00 0.  1.
         21    1    1    2  503  502 -0.52886734849E+01  0.30404246441E+02  0.68214148917E+03  0.68283921938E+03  0.00000000000E+00 0. -1.
</event>
<event>
 4    1  0.6109945E+002  0.2019268E+02  0.7546771E-02  0.1531110E+00
          2   -1    0    0  503    0  0.00000000000E+00  0.00000000000E+00  0.87906300521E+01  0.87906300521E+01  0.00000000000E+00 0. -1.
         -2   -1    0    0    0  501 -0.00000000000E+00 -0.00000000000E+00 -0.17646941166E+03  0.17646941166E+03  0.00000000000E+00 0.  1.
         21    1    1    2  502  501 -0.39726535653E+01  0.19798041063E+02 -0.16336946261E+03  0.16461265359E+03  0.00000000000E+00 0.  1.
         21    1    1    2  503  502  0.39726535653E+01 -0.19798041063E+02 -0.43093189970E+01  0.20647388128E+02  0.00000000000E+00 0. -1.
</event>
<event>
 4    1  0.6109945E+002  0.3856847E+02  0.7546771E-02  0.1357085E+00
          2   -1    0    0  502    0  0.00000000000E+00  0.00000000000E+00  0.13682157793E+04  0.13682157793E+04  0.00000000000E+00 0.  1.
         -2   -1    0    0    0  501 -0.00000000000E+00 -0.00000000000E+00 -0.17989640525E+01  0.17989640525E+01  0.00000000000E+00 0. -1.
         21    1    1    2  502  503 -0.28494930281E+02  0.25991648490E+02  0.11140835474E+04  0.11147509486E+04  0.00000000000E+00 0.  1.
         21    1    1    2  503  501  0.28494930281E+02 -0.25991648490E+02  0.25233326785E+03  0.25526379474E+03  0.00000000000E+00 0. -1.
</event>
<event>
 4    1  0.6109945E+002  0.2594960E+02  0.7546771E-02  0.1458455E+00
          2   -1    0    0  502    0  0.00000000000E+00  0.00000000000E+00  0.11731028983E+04  0.11731028983E+04  0.00000000000E+00 0. -1.
         -2   -1    0    0    0  501 -0.00000000000E+00 -0.00000000000E+00 -0.68065277208E+00  0.68065277208E+00  0.00000000000E+00 0.  1.
         21    1    1    2  502  503  0.17735235814E+02 -0.18943154647E+02  0.81850912462E+03  0.81892036779E+03  0.00000000000E+00 0.  1.
         21    1    1    2  503  501 -0.17735235814E+02  0.18943154647E+02  0.35391312092E+03  0.35486318330E+03  0.00000000000E+00 0. -1.
</event>
<event>
 4    1  0.6109945E+002  0.2452742E+02  0.7546771E-02  0.1474160E+00
          2   -1    0    0  503    0  0.00000000000E+00  0.00000000000E+00  0.22214634689E+04  0.22214634689E+04  0.00000000000E+00 0.  1.
         -2   -1    0    0    0  501 -0.00000000000E+00 -0.00000000000E+00 -0.39955589348E+00  0.39955589348E+00  0.00000000000E+00 0. -1.
         21    1    1    2  502  501  0.13722346744E+02 -0.20329578216E+02  0.47991566443E+03  0.48054202680E+03  0.00000000000E+00 0. -1.
         21    1    1    2  503  502 -0.13722346744E+02  0.20329578216E+02  0.17411482486E+04  0.17413209980E+04  0.00000000000E+00 0.  1.
</event>
<event>
 4    1  0.6109945E+002  0.6156431E+02  0.7546771E-02  0.1254608E+00
          2   -1    0    0  503    0  0.00000000000E+00  0.00000000000E+00  0.15124860703E+04  0.15124860703E+04  0.00000000000E+00 0. -1.
         -2   -1    0    0    0  501 -0.00000000000E+00 -0.00000000000E+00 -0.13834870226E+02  0.13834870226E+02  0.00000000000E+00 0.  1.
         21    1    1    2  502  501  0.32380902352E+02 -0.52360691603E+02  0.58730949250E+02  0.85085188265E+02  0.00000000000E+00 0.  1.
         21    1    1    2  503  502 -0.32380902352E+02  0.52360691603E+02  0.14399202508E+04  0.14412357522E+04  0.00000000000E+00 0. -1.
</event>
<event>
 4    1  0.6109945E+002  0.3258888E+02  0.7546771E-02  0.1398356E+00
          2   -1    0    0  503    0  0.00000000000E+00  0.00000000000E+00  0.28146617310E+04  0.28146617310E+04  0.00000000000E+00 0. -1.
         -2   -1    0    0    0  501 -0.00000000000E+00 -0.00000000000E+00 -0.49733579400E+00  0.49733579400E+00  0.00000000000E+00 0.  1.
         21    1    1    2  502  501 -0.84583183904E+01 -0.31472083185E+02  0.71562901047E+03  0.71637065531E+03  0.00000000000E+00 0.  1.
         21    1    1    2  503  502  0.84583183904E+01  0.31472083185E+02  0.20985353847E+04  0.20987884115E+04  0.00000000000E+00 0. -1.
</event>
<event>
 4    1  0.6109945E+002  0.2068486E+02  0.7546771E-02  0.1523812E+00
          2   -1    0    0  502    0  0.00000000000E+00  0.00000000000E+00  0.44894512421E+02  0.44894512421E+02  0.00000000000E+00 0. -1.
         -2   -1    0    0    0  501 -0.00000000000E+00 -0.00000000000E+00 -0.10934711577E+02  0.10934711577E+02  0.00000000000E+00 0.  1.
         21    1    1    2  502  503 -0.15671493087E+02 -0.13500663504E+02  0.26983502254E+02  0.33999603006E+02  0.00000000000E+00 0. -1.
         21    1    1    2  503  501  0.15671493087E+02  0.13500663504E+02  0.69762985899E+01  0.21829620992E+02  0.00000000000E+00 0.  1.
</event>
<event>
 4    1  0.6109945E+002  0.2017277E+02  0.7546771E-02  0.1531411E+00
          2   -1    0    0  503    0  0.00000000000E+00  0.00000000000E+00  0.11156830914E+02  0.11156830914E+02  0.00000000000E+00 0. -1.
         -2   -1    0    0    0  501 -0.00000000000E+00 -0.00000000000E+00 -0.61943740063E+02  0.61943740063E+02  0.00000000000E+00 0.  1.
         21    1    1    2  502  501  0.19941863290E+02  0.30434729703E+01 -0.48830315129E+02  0.52833136523E+02  0.00000000000E+00 0.  1.
         21    1    1    2  503  502 -0.19941863290E+02 -0.30434729703E+01 -0.19565940203E+01  0.20267434454E+02  0.00000000000E+00 0. -1.
</event>
<event>
 4    1  0.6109945E+002  0.7491472E+02  0.7546771E-02  0.1216172E+00
          2   -1    0    0  502    0  0.00000000000E+00  0.00000000000E+00  0.66793441102E+03  0.66793441102E+03  0.00000000000E+00 0. -1.
         -2   -1    0    0    0  501 -0.00000000000E+00 -0.00000000000E+00 -0.13864264837E+02  0.13864264837E+02  0.00000000000E+00 0.  1.
         21    1    1    2  502  503  0.36397183423E+02 -0.65478703310E+02  0.54100384034E+03  0.54616606524E+03  0.00000000000E+00 0. -1.
         21    1    1    2  503  501 -0.36397183423E+02  0.65478703310E+02  0.11306630584E+03  0.13563261063E+03  0.00000000000E+00 0.  1.
</event>
<event>
 4    1  0.6109945E+002  0.2190459E+02  0.7546771E-02  0.1506731E+00
          2   -1    0    0  502    0  0.00000000000E+00  0.00000000000E+00  0.55887761956E+02  0.55887761956E+02  0.00000000000E+00 0. -1.
         -2   -1    0    0    0  501 -0.00000000000E+00 -0.00000000000E+00 -0.86127893172E+01  0.86127893172E+01  0.00000000000E+00 0.  1.
         21    1    1    2  502  503  0.21253688636E+02  0.53001684712E+01  0.25460732153E+02  0.33586603702E+02  0.00000000000E+00 0.  1.
         21    1    1    2  503  501 -0.21253688636E+02 -0.53001684712E+01  0.21814240485E+02  0.30913947571E+02  0.00000000000E+00 0. -1.
</event>
<event>
 4    1  0.6109945E+002  0.2928385E+02  0.7546771E-02  0.1425923E+00
          2   -1    0    0  502    0  0.00000000000E+00  0.00000000000E+00  0.13441337904E+02  0.13441337904E+02  0.00000000000E+00 0.  1.
         -2   -1    0    0    0  501 -0.00000000000E+00 -0.00000000000E+00 -0.70721039966E+02  0.70721039966E+02  0.00000000000E+00 0. -1.
         21    1    1    2  502  503  0.28064379178E+02  0.83627007053E+01 -0.15474567735E+02  0.33121086763E+02  0.00000000000E+00 0. -1.
         21    1    1    2  503  501 -0.28064379178E+02 -0.83627007053E+01 -0.41805134327E+02  0.51041291107E+02  0.00000000000E+00 0.  1.
</event>
<event>
 4    1  0.6109945E+002  0.3968636E+02  0.7546771E-02  0.1350334E+00
          2   -1    0    0  502    0  0.00000000000E+00  0.00000000000E+00  0.20770508736E+04  0.20770508736E+04  0.00000000000E+00 0.  1.
         -2   -1    0    0    0  501 -0.00000000000E+00 -0.00000000000E+00 -0.80888365904E+00  0.80888365904E+00  0.00000000000E+00 0. -1.
         21    1    1    2  502  503  0.53998769838E+01  0.39317283145E+02  0.12979515248E+04  0.12985581112E+04  0.00000000000E+00 0.  1.
         21    1    1    2  503  501 -0.53998769838E+01 -0.39317283145E+02  0.77829046508E+03  0.77930164600E+03  0.00000000000E+00 0. -1.
</event>
<event>
 4    1  0.6109945E+002  0.2735000E+02  0.7546771E-02  0.1444124E+00
          2   -1    0    0  503    0  0.00000000000E+00  0.00000000000E+00  0.80868919784E+02  0.80868919784E+02  0.00000000000E+00 0.  1.
         -2   -1    0    0    0  501 -0.00000000000E+00 -0.00000000000E+00 -0.24502131137E+02  0.24502131137E+02  0.00000000000E+00 0. -1.
         21    1    1    2  502  501 -0.69231439571E+00  0.27341239003E+02 -0.13384427429E+02  0.30449393213E+02  0.00000000000E+00 0. -1.
         21    1    1    2  503  502  0.69231439571E+00 -0.27341239003E+02  0.69751216077E+02  0.74921657707E+02  0.00000000000E+00 0.  1.
</event>
<event>
 4    1  0.6109945E+002  0.2287040E+02  0.7546771E-02  0.1494132E+00
          2   -1    0    0  502    0  0.00000000000E+00  0.00000000000E+00  0.12961571052E+03  0.12961571052E+03  0.00000000000E+00 0.  1.
         -2   -1    0    0    0  501 -0.00000000000E+00 -0.00000000000E+00 -0.43087220553E+01  0.43087220553E+01  0.00000000000E+00 0. -1.
         21    1    1    2  502  503  0.15672358389E+02 -0.16656296142E+02  0.79517849610E+02  0.82741425085E+02  0.00000000000E+00 0. -1.
         21    1    1    2  503  501 -0.15672358389E+02  0.16656296142E+02  0.45789138857E+02  0.51183007492E+02  0.00000000000E+00 0.  1.
</event>
<event>
 4    1  0.6109945E+002  0.2145392E+02  0.7546771E-02  0.1512882E+00
          2   -1    0    0  503    0  0.00000000000E+00  0.00000000000E+00  0.58653871624E+03  0.58653871624E+03  0.00000000000E+00 0. -1.
         -2   -1    0    0    0  501 -0.00000000000E+00 -0.00000000000E+00 -0.10923420968E+01  0.10923420968E+01  0.00000000000E+00 0.  1.
         21    1    1    2  502  501 -0.12220325833E+02 -0.17633323871E+02  0.13680312718E+03  0.13847514608E+03  0.00000000000E+00 0.  1.
         21    1    1    2  503  502  0.12220325833E+02  0.17633323871E+02  0.44864324696E+03  0.44915591226E+03  0.00000000000E+00 0. -1.
</event>
<event>
 4    1  0.6109945E+002  0.2319991E+02  0.7546771E-02  0.1490003E+00
          2   -1    0    0  502    0  0.00000000000E+00  0.00000000000E+00  0.21870629706E+03  0.21870629706E+03  0.00000000000E+00 0. -1.
         -2   -1    0    0    0  501 -0.00000000000E+00 -0.00000000000E+00 -0.69112972239E+02  0.69112972239E+02  0.00000000000E+00 0.  1.
         21    1    1    2  502  503 -0.20054801807E+02 -0.11663656870E+02  0.21612088048E+03  0.21736253344E+03  0.00000000000E+00 0. -1.
         21    1    1    2  503  501  0.20054801807E+02  0.11663656870E+02 -0.66527555651E+02  0.70456735860E+02  0.00000000000E+00 0.  1.
</event>
<event>
 4    1  0.6109945E+002  0.2092581E+02  0.7546771E-02  0.1520327E+00
          2   -1    0    0  502    0  0.00000000000E+00  0.00000000000E+00  0.94932089984E+03  0.94932089984E+03  0.00000000000E+00 0.  1.
         -2   -1    0    0    0  501 -0.00000000000E+00 -0.00000000000E+00 -0.46130713061E+00  0.46130713061E+00  0.00000000000E+00 0. -1.
         21    1    1    2  502  503 -0.14254395331E+02 -0.15319978129E+02  0.46994918934E+03  0.47041484891E+03  0.00000000000E+00 0.  1.
         21    1    1    2  503  501  0.14254395331E+02  0.15319978129E+02  0.47891040337E+03  0.47936735806E+03  0.00000000000E+00 0. -1.
</event>
<event>
 4    1  0.6109945E+002  0.3682326E+02  0.7546771E-02  0.1368179E+00
          2   -1    0    0  502    0  0.00000000000E+00  0.00000000000E+00  0.65101922053E+01  0.65101922053E+01  0.00000000000E+00 0.  1.
         -2   -1    0    0    0  501 -0.00000000000E+00 -0.00000000000E+00 -0.46482886083E+03  0.46482886083E+03  0.00000000000E+00 0. -1.
         21    1    1    2  502  503  0.35478733419E+02 -0.98596180101E+01 -0.54077671322E+02  0.65424361884E+02  0.00000000000E+00 0.  1.
         21    1    1    2  503  501 -0.35478733419E+02  0.98596180101E+01 -0.40424099730E+03  0.40591469115E+03  0.00000000000E+00 0. -1.
</event>
<event>
 4    1  0.6109945E+002  0.1180169E+03  0.7546771E-02  0.1135799E+00
          2   -1    0    0  502    0  0.00000000000E+00  0.00000000000E+00  0.83847306502E+03  0.83847306502E+03  0.00000000000E+00 0.  1.
         -2   -1    0    0    0  501 -0.00000000000E+00 -0.00000000000E+00 -0.42002113123E+02  0.42002113123E+02  0.00000000000E+00 0. -1.
         21    1    1    2  502  503 -0.79297930581E+02  0.87406115554E+02  0.74052314277E+03  0.74986833232E+03  0.00000000000E+00 0.  1.
         21    1    1    2  503  501  0.79297930581E+02 -0.87406115554E+02  0.55947809125E+02  0.13060684583E+03  0.00000000000E+00 0. -1.
</event>
<event>
 4    1  0.6109945E+002  0.4077254E+02  0.7546771E-02  0.1344017E+00
          2   -1    0    0  502    0  0.00000000000E+00  0.00000000000E+00  0.23916211933E+03  0.23916211933E+03  0.00000000000E+00 0. -1.
         -2   -1    0    0    0  501 -0.00000000000E+00 -0.00000000000E+00 -0.82160068510E+01  0.82160068510E+01  0.00000000000E+00 0.  1.
         21    1    1    2  502  503  0.32398456839E+02  0.24753590515E+02  0.16400845133E+03  0.16900050993E+03  0.00000000000E+00 0. -1.
         21    1    1    2  503  501 -0.32398456839E+02 -0.24753590515E+02  0.66937661141E+02  0.78377616243E+02  0.00000000000E+00 0.  1.
</event>
<event>
 4    1  0.6109945E+002  0.2586777E+02  0.7546771E-02  0.1459325E+00
          2   -1    0    0  502    0  0.00000000000E+00  0.00000000000E+00  0.12440937586E+02  0.12440937586E+02  0.00000000000E+00 0. -1.
         -2   -1    0    0    0  501 -0.00000000000E+00 -0.00000000000E+00 -0.54433689852E+02  0.54433689852E+02  0.00000000000E+00 0.  1.
         21    1    1    2  502  503 -0.22022621781E+02  0.13570035870E+02 -0.24645232909E+02  0.35728549492E+02  0.00000000000E+00 0. -1.
         21    1    1    2  503  501  0.22022621781E+02 -0.13570035870E+02 -0.17347519356E+02  0.31146077946E+02  0.00000000000E+00 0.  1.
</event>
<event>
 4    1  0.6109945E+002  0.3480363E+02  0.7546771E-02  0.1381949E+00
          2   -1    0    0  503    0  0.00000000000E+00  0.00000000000E+00  0.62651130202E+03  0.62651130202E+03  0.00000000000E+00 0.  1.
         -2   -1    0    0    0  501 -0.00000000000E+00 -0.00000000000E+00 -0.49521241657E+01  0.49521241657E+01  0.00000000000E+00 0. -1.
         21    1    1    2  502  501  0.34792519260E+02  0.87949265248E+00  0.64269542340E+02  0.73088076841E+02  0.00000000000E+00 0. -1.
         21    1    1    2  503  502 -0.34792519260E+02 -0.87949265248E+00  0.55728963552E+03  0.55837534935E+03  0.00000000000E+00 0.  1.
</event>
<event>
 4    1  0.6109945E+002  0.2587145E+02  0.7546771E-02  0.1459286E+00
          2   -1    0    0  502    0  0.00000000000E+00  0.00000000000E+00  0.40934436320E+02  0.40934436320E+02  0.00000000000E+00 0. -1.
         -2   -1    0    0    0  501 -0.00000000000E+00 -0.00000000000E+00 -0.11651356686E+03  0.11651356686E+03  0.00000000000E+00 0.  1.
         21    1    1    2  502  503 -0.14901282325E+02 -0.21149081544E+02  0.35201710152E+02  0.43686293762E+02  0.00000000000E+00 0. -1.
         21    1    1    2  503  501  0.14901282325E+02  0.21149081544E+02 -0.11078084069E+03  0.11376170942E+03  0.00000000000E+00 0.  1.
</event>
<event>
 4    1  0.6109945E+002  0.3190985E+02  0.7546771E-02  0.1403695E+00
          2   -1    0    0  503    0  0.00000000000E+00  0.00000000000E+00  0.22342056750E+04  0.22342056750E+04  0.00000000000E+00 0.  1.
         -2   -1    0    0    0  501 -0.00000000000E+00 -0.00000000000E+00 -0.48874452606E+00  0.48874452606E+00  0.00000000000E+00 0. -1.
         21    1    1    2  502  501 -0.24876634917E+02 -0.19984780675E+02  0.82654275532E+03  0.82715848832E+03  0.00000000000E+00 0. -1.
         21    1    1    2  503  502  0.24876634917E+02  0.19984780675E+02  0.14071741752E+04  0.14075359312E+04  0.00000000000E+00 0.  1.
</event>
<event>
 4    1  0.6109945E+002  0.4824121E+02  0.7546771E-02  0.1305983E+00
          2   -1    0    0  502    0  0.00000000000E+00  0.00000000000E+00  0.45348687365E+03  0.45348687365E+03  0.00000000000E+00 0. -1.
         -2   -1    0    0    0  501 -0.00000000000E+00 -0.00000000000E+00 -0.68752583171E+01  0.68752583171E+01  0.00000000000E+00 0.  1.
         21    1    1    2  502  503 -0.14057298032E+02  0.46147660334E+02  0.10739389887E+03  0.11773131995E+03  0.00000000000E+00 0.  1.
         21    1    1    2  503  501  0.14057298032E+02 -0.46147660334E+02  0.33921771647E+03  0.34263081202E+03  0.00000000000E+00 0. -1.
</event>
<event>
 4    1  0.6109945E+002  0.1106706E+03  0.7546771E-02  0.1146500E+00
          2   -1    0    0  503    0  0.00000000000E+00  0.00000000000E+00  0.13897328204E+04  0.13897328204E+04  0.00000000000E+00 0. -1.
         -2   -1    0    0    0  501 -0.00000000000E+00 -0.00000000000E+00 -0.80390657953E+02  0.80390657953E+02  0.00000000000E+00 0.  1.
         21    1    1    2  502  501 -0.80096896810E+01  0.11038039239E+03 -0.38929066684E+02  0.11731776671E+03  0.00000000000E+00 0.  1.
         21    1    1    2  503  502  0.80096896810E+01 -0.11038039239E+03  0.13482712291E+04  0.13528057116E+04  0.00000000000E+00 0. -1.
</event>
<event>
 4    1  0.6109945E+002  0.2588984E+02  0.7546771E-02  0.1459090E+00
          2   -1    0    0  503    0  0.00000000000E+00  0.00000000000E+00  0.88762215778E+02  0.88762215778E+02  0.00000000000E+00 0. -1.
         -2   -1    0    0    0  501 -0.00000000000E+00 -0.00000000000E+00 -0.27441320632E+02  0.27441320632E+02  0.00000000000E+00 0.  1.
         21    1    1    2  502  501 -0.24448250000E+02 -0.85186245303E+01 -0.18805093988E+02  0.31998678908E+02  0.00000000000E+00 0.  1.
         21    1    1    2  503  502  0.24448250000E+02  0.85186245303E+01  0.80125989135E+02  0.84204857501E+02  0.00000000000E+00 0. -1.
</event>
<event>
 4    1  0.6109945E+002  0.2207610E+02  0.7546771E-02  0.1504437E+00
          2   -1    0    0  502    0  0.00000000000E+00  0.00000000000E+00  0.11754843558E+03  0.11754843558E+03  0.00000000000E+00 0. -1.
         -2   -1    0    0    0  501 -0.00000000000E+00 -0.00000000000E+00 -0.51376214162E+01  0.51376214162E+01  0.00000000000E+00 0.  1.
         21    1    1    2  502  503 -0.22003474318E+02  0.17892060528E+01  0.83155497734E+02  0.86035986330E+02  0.00000000000E+00 0.  1.
         21    1    1    2  503  501  0.22003474318E+02 -0.17892060528E+01  0.29255316425E+02  0.36650070661E+02  0.00000000000E+00 0. -1.
</event>
<event>
 4    1  0.6109945E+002  0.2392182E+02  0.7546771E-02  0.1481236E+00
          2   -1    0    0  503    0  0.00000000000E+00  0.00000000000E+00  0.88076960759E+01  0.88076960759E+01  0.00000000000E+00 0.  1.
         -2   -1    0    0    0  501 -0.00000000000E+00 -0.00000000000E+00 -0.77123331062E+02  0.77123331062E+02  0.00000000000E+00 0. -1.
         21    1    1    2  502  501  0.23555950378E+02  0.41678208694E+01 -0.51212327579E+02  0.56523942052E+02  0.00000000000E+00 0. -1.
         21    1    1    2  503  502 -0.23555950378E+02 -0.41678208694E+01 -0.17103307407E+02  0.29407085086E+02  0.00000000000E+00 0.  1.
</event>
<event>
 4    1  0.6109945E+002  0.5531539E+02  0.7546771E-02  0.1276637E+00
          2   -1    0    0  503    0  0.00000000000E+00  0.00000000000E+00  0.16625201995E+03  0.16625201995E+03  0.00000000000E+00 0. -1.
         -2   -1    0    0    0  501 -0.00000000000E+00 -0.00000000000E+00 -0.10846664099E+03  0.10846664099E+03  0.00000000000E+00 0.  1.
         21    1    1    2  502  501 -0.54803921921E+02  0.75048683636E+01 -0.96271788646E+02  0.11103175310E+03  0.00000000000E+00 0.  1.
         21    1    1    2  503  502  0.54803921921E+02 -0.75048683636E+01  0.15405716761E+03  0.16368690784E+03  0.00000000000E+00 0. -1.
</event>
<event>
 4    1  0.6109945E+002  0.2925385E+02  0.7546771E-02  0.1426193E+00
          2   -1    0    0  502    0  0.00000000000E+00  0.00000000000E+00  0.16051600433E+03  0.16051600433E+03  0.00000000000E+00 0.  1.
         -2   -1    0    0    0  501 -0.00000000000E+00 -0.00000000000E+00 -0.60176918657E+01  0.60176918657E+01  0.00000000000E+00 0. -1.
         21    1    1    2  502  503  0.29064784463E+02  0.33205611851E+01  0.49131031600E+02  0.57180819236E+02  0.00000000000E+00 0. -1.
         21    1    1    2  503  501 -0.29064784463E+02 -0.33205611851E+01  0.10536728087E+03  0.10935287696E+03  0.00000000000E+00 0.  1.
</event>
<event>
 4    1  0.6109945E+002  0.3217621E+02  0.7546771E-02  0.1401582E+00
          2   -1    0    0  502    0  0.00000000000E+00  0.00000000000E+00  0.21478653598E+04  0.21478653598E+04  0.00000000000E+00 0.  1.
         -2   -1    0    0    0  501 -0.00000000000E+00 -0.00000000000E+00 -0.48272091780E+00  0.48272091780E+00  0.00000000000E+00 0. -1.
         21    1    1    2  502  503  0.21367788477E+02 -0.24056733013E+02  0.10326879648E+04  0.10331891122E+04  0.00000000000E+00 0.  1.
         21    1    1    2  503  501 -0.21367788477E+02  0.24056733013E+02  0.11146946740E+04  0.11151589685E+04  0.00000000000E+00 0. -1.
</event>
<event>
 4    1  0.6109945E+002  0.2762440E+02  0.7546771E-02  0.1441435E+00
          2   -1    0    0  503    0  0.00000000000E+00  0.00000000000E+00  0.18698051815E+03  0.18698051815E+03  0.00000000000E+00 0. -1.
         -2   -1    0    0    0  501 -0.00000000000E+00 -0.00000000000E+00 -0.49083379837E+01  0.49083379837E+01  0.00000000000E+00 0.  1.
         21    1    1    2  502  501 -0.26352158264E+02 -0.82868224106E+01  0.51650477272E+02  0.58573709745E+02  0.00000000000E+00 0.  1.
         21    1    1    2  503  502  0.26352158264E+02  0.82868224106E+01  0.13042170290E+03  0.13331514639E+03  0.00000000000E+00 0. -1.
</event>
<event>
 4    1  0.6109945E+002  0.2247563E+02  0.7546771E-02  0.1499190E+00
          2   -1    0    0  502    0  0.00000000000E+00  0.00000000000E+00  0.11965692096E+02  0.11965692096E+02  0.00000000000E+00 0.  1.
         -2   -1    0    0    0  501 -0.00000000000E+00 -0.00000000000E+00 -0.74398852092E+02  0.74398852092E+02  0.00000000000E+00 0. -1.
         21    1    1    2  502  503 -0.22465099058E+02  0.68795581994E+00 -0.28158941492E+01  0.22651340330E+02  0.00000000000E+00 0.  1.
         21    1    1    2  503  501  0.22465099058E+02 -0.68795581994E+00 -0.59617265846E+02  0.63713203858E+02  0.00000000000E+00 0. -1.
</event>
<event>
 4    1  0.6109945E+002  0.2149328E+02  0.7546771E-02  0.1512337E+00
          2   -1    0    0  502    0  0.00000000000E+00  0.00000000000E+00  0.10691419254E+04  0.10691419254E+04  0.00000000000E+00 0. -1.
         -2   -1    0    0    0  501 -0.00000000000E+00 -0.00000000000E+00 -0.47358877924E+00  0.47358877924E+00  0.00000000000E+00 0.  1.
         21    1    1    2  502  503  0.70565745401E+01  0.20301868986E+02  0.69265432802E+03  0.69298771941E+03  0.00000000000E+00 0. -1.
         21    1    1    2  503  501 -0.70565745401E+01 -0.20301868986E+02  0.37601400862E+03  0.37662779479E+03  0.00000000000E+00 0.  1.
</event>
<event>
 4    1  0.6109945E+002  0.2284852E+02  0.7546771E-02  0.1494409E+00
          2   -1    0    0  503    0  0.00000000000E+00  0.00000000000E+00  0.22124213665E+02  0.22124213665E+02  0.00000000000E+00 0.  1.
         -2   -1    0    0    0  501 -0.00000000000E+00 -0.00000000000E+00 -0.40582985020E+02  0.40582985020E+02  0.00000000000E+00 0. -1.
         21    1    1    2  502  501  0.15822363031E+02  0.16483554298E+02 -0.29513999823E+02  0.37324669050E+02  0.00000000000E+00 0. -1.
         21    1    1    2  503  502 -0.15822363031E+02 -0.16483554298E+02  0.11055228469E+02  0.25382529635E+02  0.00000000000E+00 0.  1.
</event>
<event>
 4    1  0.6109945E+002  0.2462431E+02  0.7546771E-02  0.1473050E+00
          2   -1    0    0  503    0  0.00000000000E+00  0.00000000000E+00  0.59660810376E+03  0.59660810376E+03  0.00000000000E+00 0. -1.
         -2   -1    0    0    0  501 -0.00000000000E+00 -0.00000000000E+00 -0.10603702395E+01  0.10603702395E+01  0.00000000000E+00 0.  1.
         21    1    1    2  502  501  0.15896982564E+02 -0.18805392098E+02  0.23687967079E+03  0.23815611532E+03  0.00000000000E+00 0.  1.
         21    1    1    2  503  502 -0.15896982564E+02  0.18805392098E+02  0.35866806272E+03  0.35951235868E+03  0.00000000000E+00 0. -1.
</event>
<event>
 4    1  0.6109945E+002  0.2701081E+02  0.7546771E-02  0.1447500E+00
          2   -1    0    0  503    0  0.00000000000E+00  0.00000000000E+00  0.76391550125E+01  0.76391550125E+01  0.00000000000E+00 0. -1.
         -2   -1    0    0    0  501 -0.00000000000E+00 -0.00000000000E+00 -0.11568729027E+03  0.11568729027E+03  0.00000000000E+00 0.  1.
         21    1    1    2  502  501  0.26533665962E+02  0.50545670461E+01 -0.28269198175E+02  0.39098997978E+02  0.00000000000E+00 0. -1.
         21    1    1    2  503  502 -0.26533665962E+02 -0.50545670461E+01 -0.79778937080E+02  0.84227447302E+02  0.00000000000E+00 0.  1.
</event>
<event>
 4    1  0.6109945E+002  0.2270564E+02  0.7546771E-02  0.1496228E+00
          2   -1    0    0  502    0  0.00000000000E+00  0.00000000000E+00  0.17959815809E+02  0.17959815809E+02  0.00000000000E+00 0. -1.
         -2   -1    0    0    0  501 -0.00000000000E+00 -0.00000000000E+00 -0.54137558602E+02  0.54137558602E+02  0.00000000000E+00 0.  1.
         21    1    1    2  502  503  0.22330730388E+02  0.41090728728E+01  0.66187328810E+01  0.23650658013E+02  0.00000000000E+00 0. -1.
         21    1    1    2  503  501 -0.22330730388E+02 -0.41090728728E+01 -0.42796475674E+02  0.48446716397E+02  0.00000000000E+00 0.  1.
</event>
<event>
 4    1  0.6109945E+002  0.2532692E+02  0.7546771E-02  0.1465179E+00
          2   -1    0    0  503    0  0.00000000000E+00  0.00000000000E+00  0.61389040573E+02  0.61389040573E+02  0.00000000000E+00 0. -1.
         -2   -1    0    0    0  501 -0.00000000000E+00 -0.00000000000E+00 -0.45802387051E+02  0.45802387051E+02  0.00000000000E+00 0.  1.
         21    1    1    2  502  501 -0.21392461433E+02  0.13557850266E+02 -0.39293741886E+02  0.46748805989E+02  0.00000000000E+00 0.  1.
         21    1    1    2  503  502  0.21392461433E+02 -0.13557850266E+02  0.54880395407E+02  0.60442621635E+02  0.00000000000E+00 0. -1.
</event>
<event>
 4    1  0.6109945E+002  0.3014434E+02  0.7546771E-02  0.1418346E+00
          2   -1    0    0  502    0  0.00000000000E+00  0.00000000000E+00  0.18278953041E+04  0.18278953041E+04  0.00000000000E+00 0. -1.
         -2   -1    0    0    0  501 -0.00000000000E+00 -0.00000000000E+00 -0.71344578713E+00  0.71344578713E+00  0.00000000000E+00 0.  1.
         21    1    1    2  502  503 -0.29735388377E+02 -0.49485217657E+01  0.14170516829E+04  0.14173722705E+04  0.00000000000E+00 0. -1.
         21    1    1    2  503  501  0.29735388377E+02  0.49485217657E+01  0.41013017543E+03  0.41123647939E+03  0.00000000000E+00 0.  1.
</event>
<event>
 4    1  0.6109945E+002  0.2280239E+02  0.7546771E-02  0.1494995E+00
          2   -1    0    0  502    0  0.00000000000E+00  0.00000000000E+00  0.66699545119E+02  0.66699545119E+02  0.00000000000E+00 0. -1.
         -2   -1    0    0    0  501 -0.00000000000E+00 -0.00000000000E+00 -0.17636632493E+02  0.17636632493E+02  0.00000000000E+00 0.  1.
         21    1    1    2  502  503  0.39987571062E+01  0.22449025478E+02  0.56030771053E+02  0.60492942631E+02  0.00000000000E+00 0. -1.
         21    1    1    2  503  501 -0.39987571062E+01 -0.22449025478E+02 -0.69678584271E+01  0.23843234981E+02  0.00000000000E+00 0.  1.
</event>
<event>
 4    1  0.6109945E+002  0.2070779E+02  0.7546771E-02  0.1523478E+00
          2   -1    0    0  503    0  0.00000000000E+00  0.00000000000E+00  0.32792603795E+02  0.32792603795E+02  0.00000000000E+00 0.  1.
         -2   -1    0    0    0  501 -0.00000000000E+00 -0.00000000000E+00 -0.37833874933E+02  0.37833874933E+02  0.00000000000E+00 0. -1.
         21    1    1    2  502  501  0.20491282326E+02 -0.29866530203E+01 -0.31086631667E+02  0.37352261190E+02  0.00000000000E+00 0. -1.
         21    1    1    2  503  502 -0.20491282326E+02  0.29866530203E+01  0.26045360529E+02  0.33274217537E+02  0.00000000000E+00 0.  1.
</event>
<event>
 4    1  0.6109945E+002  0.4253396E+02  0.7546771E-02  0.1334244E+00
          2   -1    0    0  503    0  0.00000000000E+00  0.00000000000E+00  0.12583294105E+04  0.12583294105E+04  0.00000000000E+00 0.  1.
         -2   -1    0    0    0  501 -0.00000000000E+00 -0.00000000000E+00 -0.14479471634E+01  0.14479471634E+01  0.00000000000E+00 0. -1.
         21    1    1    2  502  501  0.17885453346E+02  0.38590783569E+02  0.57552907519E+03  0.57709865223E+03  0.00000000000E+00 0.  1.
         21    1    1    2  503  502 -0.17885453346E+02 -0.38590783569E+02  0.68135238816E+03  0.68267870545E+03  0.00000000000E+00 0. -1.
</event>
<event>
 4    1  0.6109945E+002  0.2102059E+02  0.7546771E-02  0.1518971E+00
          2   -1    0    0  502    0  0.00000000000E+00  0.00000000000E+00  0.19439020133E+02  0.19439020133E+02  0.00000000000E+00 0. -1.
         -2   -1    0    0    0  501 -0.00000000000E+00 -0.00000000000E+00 -0.43692418078E+02  0.43692418078E+02  0.00000000000E+00 0.  1.
         21    1    1    2  502  503  0.66272978639E+01 -0.19948538695E+02  0.97370496741E+01  0.23166255835E+02  0.00000000000E+00 0. -1.
         21    1    1    2  503  501 -0.66272978639E+01  0.19948538695E+02 -0.33990447619E+02  0.39965182377E+02  0.00000000000E+00 0.  1.
</event>
<event>
 4    1  0.6109945E+002  0.6184084E+02  0.7546771E-02  0.1253703E+00
          2   -1    0    0  502    0  0.00000000000E+00  0.00000000000E+00  0.10669660466E+03  0.10669660466E+03  0.00000000000E+00 0. -1.
         -2   -1    0    0    0  501 -0.00000000000E+00 -0.00000000000E+00 -0.73060312693E+02  0.73060312693E+02  0.00000000000E+00 0.  1.
         21    1    1    2  502  503 -0.53122723881E+02  0.31658577373E+02  0.80967071510E+02  0.10188206899E+03  0.00000000000E+00 0. -1.
         21    1    1    2  503  501  0.53122723881E+02 -0.31658577373E+02 -0.47330779545E+02  0.77874848354E+02  0.00000000000E+00 0.  1.
</event>
<event>
 4    1  0.6109945E+002  0.2215612E+02  0.7546771E-02  0.1503376E+00
          2   -1    0    0  502    0  0.00000000000E+00  0.00000000000E+00  0.13053004719E+04  0.13053004719E+04  0.00000000000E+00 0. -1.
         -2   -1    0    0    0  501 -0.00000000000E+00 -0.00000000000E+00 -0.88780295960E+00  0.88780295960E+00  0.00000000000E+00 0.  1.
         21    1    1    2  502  503 -0.97138283032E+01  0.19913189408E+02  0.11480402017E+04  0.11482539781E+04  0.00000000000E+00 0. -1.
         21    1    1    2  503  501  0.97138283032E+01 -0.19913189408E+02  0.15637246729E+03  0.15793429678E+03  0.00000000000E+00 0.  1.
</event>
<event>
 4    1  0.6109945E+002  0.2301965E+02  0.7546771E-02  0.1492252E+00
          2   -1    0    0  502    0  0.00000000000E+00  0.00000000000E+00  0.66865745300E+03  0.66865745300E+03  0.00000000000E+00 0.  1.
         -2   -1    0    0    0  501 -0.00000000000E+00 -0.00000000000E+00 -0.13865850672E+01  0.13865850672E+01  0.00000000000E+00 0. -1.
         21    1    1    2  502  503  0.19606755064E+02 -0.12061486986E+02  0.55293010750E+03  0.55340907844E+03  0.00000000000E+00 0.  1.
         21    1    1    2  503  501 -0.19606755064E+02  0.12061486986E+02  0.11434076043E+03  0.11663495963E+03  0.00000000000E+00 0. -1.
</event>
<event>
 4    1  0.6109945E+002  0.2312101E+02  0.7546771E-02  0.1490984E+00
          2   -1    0    0  503    0  0.00000000000E+00  0.00000000000E+00  0.34119454052E+03  0.34119454052E+03  0.00000000000E+00 0.  1.
         -2   -1    0    0    0  501 -0.00000000000E+00 -0.00000000000E+00 -0.51161648914E+01  0.51161648914E+01  0.00000000000E+00 0. -1.
         21    1    1    2  502  501 -0.41390143818E+01 -0.22747520721E+02  0.23814561721E+02  0.33192084733E+02  0.00000000000E+00 0. -1.
         21    1    1    2  503  502  0.41390143818E+01  0.22747520721E+02  0.31226381391E+03  0.31311862068E+03  0.00000000000E+00 0.  1.
</event>
<event>
 4    1  0.6109945E+002  0.2754848E+02  0.7546771E-02  0.1442175E+00
          2   -1    0    0  503    0  0.00000000000E+00  0.00000000000E+00  0.95163538555E+02  0.95163538555E+02  0.00000000000E+00 0. -1.
         -2   -1    0    0    0  501 -0.00000000000E+00 -0.00000000000E+00 -0.14309544733E+02  0.14309544733E+02  0.00000000000E+00 0.  1.
         21    1    1    2  502  501  0.25267200592E+02  0.10976683735E+02  0.40081805297E+01  0.27838543833E+02  0.00000000000E+00 0.  1.
         21    1    1    2  503  502 -0.25267200592E+02 -0.10976683735E+02  0.76845813292E+02  0.81634539455E+02  0.00000000000E+00 0. -1.
</event>
<event>
 4    1  0.6109945E+002  0.2933454E+02  0.7546771E-02  0.1425469E+00
          2   -1    0    0  502    0  0.00000000000E+00  0.00000000000E+00  0.60198343064E+03  0.60198343064E+03  0.00000000000E+00 0. -1.
         -2   -1    0    0    0  501 -0.00000000000E+00 -0.00000000000E+00 -0.25888556048E+01  0.25888556048E+01  0.00000000000E+00 0.  1.
         21    1    1    2  502  503  0.18103878992E+02  0.23081696460E+02  0.50198939242E+03  0.50284576686E+03  0.00000000000E+00 0. -1.
         21    1    1    2  503  501 -0.18103878992E+02 -0.23081696460E+02  0.97405182617E+02  0.10172651939E+03  0.00000000000E+00 0.  1.
</event>
<event>
 4    1  0.6109945E+002  0.2399719E+02  0.7546771E-02  0.1480342E+00
          2   -1    0    0  503    0  0.00000000000E+00  0.00000000000E+00  0.50544313400E+03  0.50544313400E+03  0.00000000000E+00 0.  1.
         -2   -1    0    0    0  501 -0.00000000000E+00 -0.00000000000E+00 -0.14691623461E+01  0.14691623461E+01  0.00000000000E+00 0. -1.
         21    1    1    2  502  501 -0.88764903396E+01 -0.22295130727E+02  0.13189427997E+03  0.13405956147E+03  0.00000000000E+00 0. -1.
         21    1    1    2  503  502  0.88764903396E+01  0.22295130727E+02  0.37207969169E+03  0.37285273488E+03  0.00000000000E+00 0.  1.
</event>
<event>
 4    1  0.6109945E+002  0.3090177E+02  0.7546771E-02  0.1411918E+00
          2   -1    0    0  503    0  0.00000000000E+00  0.00000000000E+00  0.87187986416E+02  0.87187986416E+02  0.00000000000E+00 0. -1.
         -2   -1    0    0    0  501 -0.00000000000E+00 -0.00000000000E+00 -0.11057793739E+02  0.11057793739E+02  0.00000000000E+00 0.  1.
         21    1    1    2  502  501  0.40097421153E+01  0.30640517109E+02  0.42860430037E+02  0.52838771593E+02  0.00000000000E+00 0. -1.
         21    1    1    2  503  502 -0.40097421153E+01 -0.30640517109E+02  0.33269762640E+02  0.45407008563E+02  0.00000000000E+00 0.  1.
</event>
<event>
 4    1  0.6109945E+002  0.2656777E+02  0.7546771E-02  0.1451999E+00
          2   -1    0    0  502    0  0.00000000000E+00  0.00000000000E+00  0.63307120353E+03  0.63307120353E+03  0.00000000000E+00 0.  1.
         -2   -1    0    0    0  501 -0.00000000000E+00 -0.00000000000E+00 -0.20981823344E+01  0.20981823344E+01  0.00000000000E+00 0. -1.
         21    1    1    2  502  503 -0.44564870966E+01  0.26191331888E+02  0.53288916241E+03  0.53355103369E+03  0.00000000000E+00 0.  1.
         21    1    1    2  503  501  0.44564870966E+01 -0.26191331888E+02  0.98083858785E+02  0.10161835217E+03  0.00000000000E+00 0. -1.
</event>
<event>
 4    1  0.6109945E+002  0.2432145E+02  0.7546771E-02  0.1476539E+00
          2   -1    0    0  502    0  0.00000000000E+00  0.00000000000E+00  0.56146638027E+01  0.56146638027E+01  0.00000000000E+00 0. -1.
         -2   -1    0    0    0  501 -0.00000000000E+00 -0.00000000000E+00 -0.12866012384E+03  0.12866012384E+03  0.00000000000E+00 0.  1.
         21    1    1    2  502  503 -0.23098656578E+02  0.76147771056E+01 -0.32948901505E+02  0.40953179077E+02  0.00000000000E+00 0. -1.
         21    1    1    2  503  501  0.23098656578E+02 -0.76147771056E+01 -0.90096558536E+02  0.93321608570E+02  0.00000000000E+00 0.  1.
</event>
<event>
 4    1  0.6109945E+002  0.2661956E+02  0.7546771E-02  0.1451468E+00
          2   -1    0    0  503    0  0.00000000000E+00  0.00000000000E+00  0.52990069430E+02  0.52990069430E+02  0.00000000000E+00 0. -1.
         -2   -1    0    0    0  501 -0.00000000000E+00 -0.00000000000E+00 -0.13487298895E+02  0.13487298895E+02  0.00000000000E+00 0.  1.
         21    1    1    2  502  501  0.19895611127E+02  0.17685181175E+02  0.22820135377E+02  0.35062224030E+02  0.00000000000E+00 0. -1.
         21    1    1    2  503  502 -0.19895611127E+02 -0.17685181175E+02  0.16682635157E+02  0.31415144295E+02  0.00000000000E+00 0.  1.
</event>
<event>
 4    1  0.6109945E+002  0.2047282E+02  0.7546771E-02  0.1526926E+00
          2   -1    0    0  502    0  0.00000000000E+00  0.00000000000E+00  0.93252546539E+03  0.93252546539E+03  0.00000000000E+00 0. -1.
         -2   -1    0    0    0  501 -0.00000000000E+00 -0.00000000000E+00 -0.14361264575E+01  0.14361264575E+01  0.00000000000E+00 0.  1.
         21    1    1    2  502  503 -0.20447361107E+02 -0.10207158114E+01  0.85261245320E+03  0.85285821318E+03  0.00000000000E+00 0. -1.
         21    1    1    2  503  501  0.20447361107E+02  0.10207158114E+01  0.78476885735E+02  0.81103378670E+02  0.00000000000E+00 0.  1.
</event>
<event>
 4    1  0.6109945E+002  0.2648529E+02  0.7546771E-02  0.1452848E+00
          2   -1    0    0  502    0  0.00000000000E+00  0.00000000000E+00  0.10345277982E+04  0.10345277982E+04  0.00000000000E+00 0.  1.
         -2   -1    0    0    0  501 -0.00000000000E+00 -0.00000000000E+00 -0.15364329274E+01  0.15364329274E+01  0.00000000000E+00 0. -1.
         21    1    1    2  502  503 -0.14946904965E+02  0.21864593384E+02  0.90369827490E+03  0.90408630255E+03  0.00000000000E+00 0.  1.
         21    1    1    2  503  501  0.14946904965E+02 -0.21864593384E+02  0.12929309036E+03  0.13197792856E+03  0.00000000000E+00 0. -1.
</event>
<event>
 4    1  0.6109945E+002  0.2828188E+02  0.7546771E-02  0.1435140E+00
          2   -1    0    0  502    0  0.00000000000E+00  0.00000000000E+00  0.44093322659E+02  0.44093322659E+02  0.00000000000E+00 0. -1.
         -2   -1    0    0    0  501 -0.00000000000E+00 -0.00000000000E+00 -0.21088042712E+02  0.21088042712E+02  0.00000000000E+00 0.  1.
         21    1    1    2  502  503 -0.24062058079E+02 -0.14862110778E+02  0.23687540517E+02  0.36891253049E+02  0.00000000000E+00 0.  1.
         21    1    1    2  503  501  0.24062058079E+02  0.14862110778E+02 -0.68226056988E+00  0.28290112323E+02  0.00000000000E+00 0. -1.
</event>
<event>
 4    1  0.6109945E+002  0.2206460E+02  0.7546771E-02  0.1504590E+00
          2   -1    0    0  502    0  0.00000000000E+00  0.00000000000E+00  0.15919110839E+01  0.15919110839E+01  0.00000000000E+00 0. -1.
         -2   -1    0    0    0  501 -0.00000000000E+00 -0.00000000000E+00 -0.33766964470E+03  0.33766964470E+03  0.00000000000E+00 0.  1.
         21    1    1    2  502  503 -0.16082954377E+02  0.15105791713E+02 -0.11594625025E+03  0.11802702788E+03  0.00000000000E+00 0. -1.
         21    1    1    2  503  501  0.16082954377E+02 -0.15105791713E+02 -0.22013148337E+03  0.22123452790E+03  0.00000000000E+00 0.  1.
</event>
<event>
 4    1  0.6109945E+002  0.2873951E+02  0.7546771E-02  0.1430876E+00
          2   -1    0    0  503    0  0.00000000000E+00  0.00000000000E+00  0.21250661968E+04  0.21250661968E+04  0.00000000000E+00 0. -1.
         -2   -1    0    0    0  501 -0.00000000000E+00 -0.00000000000E+00 -0.39069193505E+00  0.39069193505E+00  0.00000000000E+00 0.  1.
         21    1    1    2  502  501  0.21122703859E+02 -0.19488223683E+02  0.11387006885E+04  0.11390633071E+04  0.00000000000E+00 0.  1.
         21    1    1    2  503  502 -0.21122703859E+02  0.19488223683E+02  0.98597481629E+03  0.98639358161E+03  0.00000000000E+00 0. -1.
</event>
<event>
 4    1  0.6109945E+002  0.2148479E+02  0.7546771E-02  0.1512455E+00
          2   -1    0    0  502    0  0.00000000000E+00  0.00000000000E+00  0.17745306732E+04  0.17745306732E+04  0.00000000000E+00 0.  1.
         -2   -1    0    0    0  501 -0.00000000000E+00 -0.00000000000E+00 -0.31559411561E+00  0.31559411561E+00  0.00000000000E+00 0. -1.
         21    1    1    2  502  503  0.14117675907E+02  0.16195284299E+02  0.12591566475E+04  0.12593399299E+04  0.00000000000E+00 0.  1.
         21    1    1    2  503  501 -0.14117675907E+02 -0.16195284299E+02  0.51505843157E+03  0.51550633744E+03  0.00000000000E+00 0. -1.
</event>
<event>
 4    1  0.6109945E+002  0.2262368E+02  0.7546771E-02  0.1497278E+00
          2   -1    0    0  502    0  0.00000000000E+00  0.00000000000E+00  0.35702342293E+03  0.35702342293E+03  0.00000000000E+00 0.  1.
         -2   -1    0    0    0  501 -0.00000000000E+00 -0.00000000000E+00 -0.15361774150E+01  0.15361774150E+01  0.00000000000E+00 0. -1.
         21    1    1    2  502  503  0.11959036031E+02  0.19204489327E+02  0.13141774507E+03  0.13335087054E+03  0.00000000000E+00 0.  1.
         21    1    1    2  503  501 -0.11959036031E+02 -0.19204489327E+02  0.22406950044E+03  0.22520872981E+03  0.00000000000E+00 0. -1.
</event>
<event>
 4    1  0.6109945E+002  0.2806946E+02  0.7546771E-02  0.1437151E+00
          2   -1    0    0  502    0  0.00000000000E+00  0.00000000000E+00  0.22325868701E+04  0.22325868701E+04  0.00000000000E+00 0.  1.
         -2   -1    0    0    0  501 -0.00000000000E+00 -0.00000000000E+00 -0.35919126606E+00  0.35919126606E+00  0.00000000000E+00 0. -1.
         21    1    1    2  502  503  0.25876173641E+02  0.10877428015E+02  0.12637946150E+04  0.12641062944E+04  0.00000000000E+00 0.  1.
         21    1    1    2  503  501 -0.25876173641E+02 -0.10877428015E+02  0.96843306386E+03  0.96883976692E+03  0.00000000000E+00 0. -1.
</event>
<event>
 4    1  0.6109945E+002  0.2983353E+02  0.7546771E-02  0.1421049E+00
          2   -1    0    0  502    0  0.00000000000E+00  0.00000000000E+00  0.57298418387E+02  0.57298418387E+02  0.00000000000E+00 0. -1.
         -2   -1    0    0    0  501 -0.00000000000E+00 -0.00000000000E+00 -0.15981550147E+02  0.15981550147E+02  0.00000000000E+00 0.  1.
         21    1    1    2  502  503 -0.14460425374E+02 -0.26094743972E+02  0.26794004664E+02  0.40099354744E+02  0.00000000000E+00 0. -1.
         21    1    1    2  503  501  0.14460425374E+02  0.26094743972E+02  0.14522863576E+02  0.33180613789E+02  0.00000000000E+00 0.  1.
</event>
<event>
 4    1  0.6109945E+002  0.2705523E+02  0.7546771E-02  0.1447054E+00
          2   -1    0    0  502    0  0.00000000000E+00  0.00000000000E+00  0.86620692119E+01  0.86620692119E+01  0.00000000000E+00 0.  1.
         -2   -1    0    0    0  501 -0.00000000000E+00 -0.00000000000E+00 -0.84814620661E+02  0.84814620661E+02  0.00000000000E+00 0. -1.
         21    1    1    2  502  503  0.21554705554E+02  0.16351761875E+02 -0.35250925392E+02  0.44436619909E+02  0.00000000000E+00 0. -1.
         21    1    1    2  503  501 -0.21554705554E+02 -0.16351761875E+02 -0.40901626057E+02  0.49040069964E+02  0.00000000000E+00 0.  1.
</event>
<event>
 4    1  0.6109945E+002  0.2993386E+02  0.7546771E-02  0.1420172E+00
          2   -1    0    0  503    0  0.00000000000E+00  0.00000000000E+00  0.21118167496E+04  0.21118167496E+04  0.00000000000E+00 0. -1.
         -2   -1    0    0    0  501 -0.00000000000E+00 -0.00000000000E+00 -0.15176303765E+01  0.15176303765E+01  0.00000000000E+00 0.  1.
         21    1    1    2  502  501  0.26912333677E+02 -0.13105805931E+02  0.15827505967E+03  0.16108081936E+03  0.00000000000E+00 0.  1.
         21    1    1    2  503  502 -0.26912333677E+02  0.13105805931E+02  0.19520240596E+04  0.19522535606E+04  0.00000000000E+00 0. -1.
</event>
<event>
 4    1  0.6109945E+002  0.3332301E+02  0.7546771E-02  0.1392752E+00
          2   -1    0    0  502    0  0.00000000000E+00  0.00000000000E+00  0.56611165850E+02  0.56611165850E+02  0.00000000000E+00 0. -1.
         -2   -1    0    0    0  501 -0.00000000000E+00 -0.00000000000E+00 -0.19850614705E+02  0.19850614705E+02  0.00000000000E+00 0.  1.
         21    1    1    2  502  503 -0.24129094831E+02 -0.22982810538E+02  0.14214329916E+02  0.36228027445E+02  0.00000000000E+00 0.  1.
         21    1    1    2  503  501  0.24129094831E+02  0.22982810538E+02  0.22546221229E+02  0.40233753110E+02  0.00000000000E+00 0. -1.
</event>
<event>
 4    1  0.6109945E+002  0.2814725E+02  0.7546771E-02  0.1436412E+00
          2   -1    0    0  502    0  0.00000000000E+00  0.00000000000E+00  0.33349401172E+02  0.33349401172E+02  0.00000000000E+00 0. -1.
         -2   -1    0    0    0  501 -0.00000000000E+00 -0.00000000000E+00 -0.38223407110E+02  0.38223407110E+02  0.00000000000E+00 0.  1.
         21    1    1    2  502  503  0.25703230342E+02  0.11472209068E+02  0.19579079762E+02  0.34287140377E+02  0.00000000000E+00 0.  1.
         21    1    1    2  503  501 -0.25703230342E+02 -0.11472209068E+02 -0.24453085700E+02  0.37285667905E+02  0.00000000000E+00 0. -1.
</event>
<event>
 4    1  0.6109945E+002  0.2527934E+02  0.7546771E-02  0.1465702E+00
          2   -1    0    0  502    0  0.00000000000E+00  0.00000000000E+00  0.11074127255E+04  0.11074127255E+04  0.00000000000E+00 0. -1.
         -2   -1    0    0    0  501 -0.00000000000E+00 -0.00000000000E+00 -0.58705000678E+00  0.58705000678E+00  0.00000000000E+00 0.  1.
         21    1    1    2  502  503  0.17390281685E+02 -0.18347295858E+02  0.48114848745E+03  0.48181211290E+03  0.00000000000E+00 0.  1.
         21    1    1    2  503  501 -0.17390281685E+02  0.18347295858E+02  0.62567718804E+03  0.62618766260E+03  0.00000000000E+00 0. -1.
</event>
<event>
 4    1  0.6109945E+002  0.2115553E+02  0.7546771E-02  0.1517056E+00
          2   -1    0    0  502    0  0.00000000000E+00  0.00000000000E+00  0.23683094179E+01  0.23683094179E+01  0.00000000000E+00 0. -1.
         -2   -1    0    0    0  501 -0.00000000000E+00 -0.00000000000E+00 -0.20478534545E+03  0.20478534545E+03  0.00000000000E+00 0.  1.
         21    1    1    2  502  503  0.88045957618E+01 -0.19236306626E+02 -0.12998608757E+03  0.13169639084E+03  0.00000000000E+00 0.  1.
         21    1    1    2  503  501 -0.88045957618E+01  0.19236306626E+02 -0.72430948466E+02  0.75457264030E+02  0.00000000000E+00 0. -1.
</event>
<event>
 4    1  0.6109945E+002  0.2026886E+02  0.7546771E-02  0.1529965E+00
          2   -1    0    0  502    0  0.00000000000E+00  0.00000000000E+00  0.23926681423E+03  0.23926681423E+03  0.00000000000E+00 0. -1.
         -2   -1    0    0    0  501 -0.00000000000E+00 -0.00000000000E+00 -0.21781656509E+01  0.21781656509E+01  0.00000000000E+00 0.  1.
         21    1    1    2  502  503  0.19769616753E+02 -0.44709148031E+01  0.17409124379E+03  0.17526719028E+03  0.00000000000E+00 0. -1.
         21    1    1    2  503  501 -0.19769616753E+02  0.44709148031E+01  0.62997404785E+02  0.66177789592E+02  0.00000000000E+00 0.  1.
</event>
<event>
 4    1  0.6109945E+002  0.2152595E+02  0.7546771E-02  0.1511886E+00
          2   -1    0    0  502    0  0.00000000000E+00  0.00000000000E+00  0.30969451734E+03  0.30969451734E+03  0.00000000000E+00 0. -1.
         -2   -1    0    0    0  501 -0.00000000000E+00 -0.00000000000E+00 -0.15755122562E+01  0.15755122562E+01  0.00000000000E+00 0.  1.
         21    1    1    2  502  503 -0.14594464811E+02  0.15823022997E+02  0.18897780364E+03  0.19019983367E+03  0.00000000000E+00 0. -1.
         21    1    1    2  503  501  0.14594464811E+02 -0.15823022997E+02  0.11914120144E+03  0.12107019592E+03  0.00000000000E+00 0.  1.
</event>
<event>
 4    1  0.6109945E+002  0.4188407E+02  0.7546771E-02  0.1337785E+00
          2   -1    0    0  503    0  0.00000000000E+00  0.00000000000E+00  0.24507766546E+03  0.24507766546E+03  0.00000000000E+00 0. -1.
         -2   -1    0    0    0  501 -0.00000000000E+00 -0.00000000000E+00 -0.94006448029E+01  0.94006448029E+01  0.00000000000E+00 0.  1.
         21    1    1    2  502  501 -0.41533055491E+02  0.54111370670E+01  0.55691738028E+02  0.69683891879E+02  0.00000000000E+00 0.  1.
         21    1    1    2  503  502  0.41533055491E+02 -0.54111370670E+01  0.17998528263E+03  0.18479441839E+03  0.00000000000E+00 0. -1.
</event>
<event>
 4    1  0.6109945E+002  0.3216951E+02  0.7546771E-02  0.1401635E+00
          2   -1    0    0  502    0  0.00000000000E+00  0.00000000000E+00  0.97031821694E+03  0.97031821694E+03  0.00000000000E+00 0. -1.
         -2   -1    0    0    0  501 -0.00000000000E+00 -0.00000000000E+00 -0.13632380062E+01  0.13632380062E+01  0.00000000000E+00 0.  1.
         21    1    1    2  502  503 -0.22954245374E+02  0.22538414552E+02  0.71113477000E+03  0.71186202217E+03  0.00000000000E+00 0. -1.
         21    1    1    2  503  501  0.22954245374E+02 -0.22538414552E+02  0.25782020893E+03  0.25981943277E+03  0.00000000000E+00 0.  1.
</event>
<event>
 4    1  0.6109945E+002  0.2046108E+02  0.7546771E-02  0.1527100E+00
          2   -1    0    0  502    0  0.00000000000E+00  0.00000000000E+00  0.22353767085E+02  0.22353767085E+02  0.00000000000E+00 0.  1.
         -2   -1    0    0    0  501 -0.00000000000E+00 -0.00000000000E+00 -0.66529150020E+02  0.66529150020E+02  0.00000000000E+00 0. -1.
         21    1    1    2  502  503 -0.13661128103E+02  0.15232505427E+02  0.15582565648E+02  0.25719097861E+02  0.00000000000E+00 0.  1.
         21    1    1    2  503  501  0.13661128103E+02 -0.15232505427E+02 -0.59757948583E+02  0.63163819244E+02  0.00000000000E+00 0. -1.
</event>
<event>
 4    1  0.6109945E+002  0.3216814E+02  0.7546771E-02  0.1401646E+00
          2   -1    0    0  503    0  0.00000000000E+00  0.00000000000E+00  0.47912095375E+03  0.47912095375E+03  0.00000000000E+00 0.  1.
         -2   -1    0    0    0  501 -0.00000000000E+00 -0.00000000000E+00 -0.26055955269E+01  0.26055955269E+01  0.00000000000E+00 0. -1.
         21    1    1    2  502  501  0.32640992347E+01  0.32002106946E+02  0.13862508164E+03  0.14230847639E+03  0.00000000000E+00 0. -1.
         21    1    1    2  503  502 -0.32640992347E+01 -0.32002106946E+02  0.33789027657E+03  0.33941807288E+03  0.00000000000E+00 0.  1.
</event>
<event>
 4    1  0.6109945E+002  0.3367150E+02  0.7546771E-02  0.1390151E+00
          2   -1    0    0  503    0  0.00000000000E+00  0.00000000000E+00  0.65516230000E+01  0.65516230000E+01  0.00000000000E+00 0.  1.
         -2   -1    0    0    0  501 -0.00000000000E+00 -0.00000000000E+00 -0.25065525068E+03  0.25065525068E+03  0.00000000000E+00 0. -1.
         21    1    1    2  502  501 -0.19310115177E+02 -0.27584224956E+02 -0.19360924595E+03  0.19651541958E+03  0.00000000000E+00 0. -1.
         21    1    1    2  503  502  0.19310115177E+02  0.27584224956E+02 -0.50494381724E+02  0.60691454096E+02  0.00000000000E+00 0.  1.
</event>
<event>
 4    1  0.6109945E+002  0.2318532E+02  0.7546771E-02  0.1490184E+00
          2   -1    0    0  503    0  0.00000000000E+00  0.00000000000E+00  0.64709145486E+01  0.64709145486E+01  0.00000000000E+00 0.  1.
         -2   -1    0    0    0  501 -0.00000000000E+00 -0.00000000000E+00 -0.91513786599E+02  0.91513786599E+02  0.00000000000E+00 0. -1.
         21    1    1    2  502  501 -0.21608579032E+01  0.23084406706E+02 -0.27642459012E+02  0.36078590328E+02  0.00000000000E+00 0. -1.
         21    1    1    2  503  502  0.21608579032E+01 -0.23084406706E+02 -0.57400413039E+02  0.61906110820E+02  0.00000000000E+00 0.  1.
</event>
<event>
 4    1  0.6109945E+002  0.2077774E+02  0.7546771E-02  0.1522462E+00
          2   -1    0    0  502    0  0.00000000000E+00  0.00000000000E+00  0.15725212588E+03  0.15725212588E+03  0.00000000000E+00 0.  1.
         -2   -1    0    0    0  501 -0.00000000000E+00 -0.00000000000E+00 -0.40332100911E+01  0.40332100911E+01  0.00000000000E+00 0. -1.
         21    1    1    2  502  503  0.20719946745E+02 -0.15486495807E+01  0.12217864175E+03  0.12393278424E+03  0.00000000000E+00 0.  1.
         21    1    1    2  503  501 -0.20719946745E+02  0.15486495807E+01  0.31040274036E+02  0.37352551732E+02  0.00000000000E+00 0. -1.
</event>
<event>
 4    1  0.6109945E+002  0.2349676E+02  0.7546771E-02  0.1486353E+00
          2   -1    0    0  502    0  0.00000000000E+00  0.00000000000E+00  0.25449052130E+02  0.25449052130E+02  0.00000000000E+00 0. -1.
         -2   -1    0    0    0  501 -0.00000000000E+00 -0.00000000000E+00 -0.10423400060E+03  0.10423400060E+03  0.00000000000E+00 0.  1.
         21    1    1    2  502  503 -0.23224974825E+02  0.35634356650E+01  0.18308103451E+02  0.29787315780E+02  0.00000000000E+00 0. -1.
         21    1    1    2  503  501  0.23224974825E+02 -0.35634356650E+01 -0.97093051926E+02  0.99895736955E+02  0.00000000000E+00 0.  1.
</event>
<event>
 4    1  0.6109945E+002  0.3153233E+02  0.7546771E-02  0.1406732E+00
          2   -1    0    0  502    0  0.00000000000E+00  0.00000000000E+00  0.84954276624E+03  0.84954276624E+03  0.00000000000E+00 0.  1.
         -2   -1    0    0    0  501 -0.00000000000E+00 -0.00000000000E+00 -0.32665163764E+01  0.32665163764E+01  0.00000000000E+00 0. -1.
         21    1    1    2  502  503  0.13307310399E+02  0.28586773297E+02  0.76471561236E+03  0.76536543945E+03  0.00000000000E+00 0.  1.
         21    1    1    2  503  501 -0.13307310399E+02 -0.28586773297E+02  0.81560637496E+02  0.87443843158E+02  0.00000000000E+00 0. -1.
</event>
<event>
 4    1  0.6109945E+002  0.2507011E+02  0.7546771E-02  0.1468021E+00
          2   -1    0    0  502    0  0.00000000000E+00  0.00000000000E+00  0.10834378319E+04  0.10834378319E+04  0.00000000000E+00 0.  1.
         -2   -1    0    0    0  501 -0.00000000000E+00 -0.00000000000E+00 -0.11662810835E+01  0.11662810835E+01  0.00000000000E+00 0. -1.
         21    1    1    2  502  503  0.23874440209E+02  0.76499355304E+01  0.92559718851E+03  0.92593664243E+03  0.00000000000E+00 0.  1.
         21    1    1    2  503  501 -0.23874440209E+02 -0.76499355304E+01  0.15667436226E+03  0.15866747051E+03  0.00000000000E+00 0. -1.
</event>
<event>
 4    1  0.6109945E+002  0.3398028E+02  0.7546771E-02  0.1387877E+00
          2   -1    0    0  503    0  0.00000000000E+00  0.00000000000E+00  0.86917088190E+02  0.86917088190E+02  0.00000000000E+00 0. -1.
         -2   -1    0    0    0  501 -0.00000000000E+00 -0.00000000000E+00 -0.13326574327E+02  0.13326574327E+02  0.00000000000E+00 0.  1.
         21    1    1    2  502  501 -0.25239267423E+02  0.22751672552E+02  0.39608008072E+02  0.52186717921E+02  0.00000000000E+00 0. -1.
         21    1    1    2  503  502  0.25239267423E+02 -0.22751672552E+02  0.33982505792E+02  0.48056944596E+02  0.00000000000E+00 0.  1.
</event>
<event>
 4    1  0.6109945E+002  0.2156850E+02  0.7546771E-02  0.1511301E+00
          2   -1    0    0  503    0  0.00000000000E+00  0.00000000000E+00  0.14560545271E+04  0.14560545271E+04  0.00000000000E+00 0.  1.
         -2   -1    0    0    0  501 -0.00000000000E+00 -0.00000000000E+00 -0.40244878983E+00  0.40244878983E+00  0.00000000000E+00 0. -1.
         21    1    1    2  502  501 -0.20557768458E+02 -0.65252002775E+01  0.39720219722E+03  0.39778736224E+03  0.00000000000E+00 0.  1.
         21    1    1    2  503  502  0.20557768458E+02  0.65252002775E+01  0.10584498811E+04  0.10586696137E+04  0.00000000000E+00 0. -1.
</event>
<event>
 4    1  0.6109945E+002  0.5047898E+02  0.7546771E-02  0.1296109E+00
          2   -1    0    0  502    0  0.00000000000E+00  0.00000000000E+00  0.42989174627E+03  0.42989174627E+03  0.00000000000E+00 0.  1.
         -2   -1    0    0    0  501 -0.00000000000E+00 -0.00000000000E+00 -0.69206195639E+01  0.69206195639E+01  0.00000000000E+00 0. -1.
         21    1    1    2  502  503  0.32241261122E+00 -0.50477945642E+02  0.29422677635E+03  0.29852558159E+03  0.00000000000E+00 0.  1.
         21    1    1    2  503  501 -0.32241261122E+00  0.50477945642E+02  0.12874435036E+03  0.13828678424E+03  0.00000000000E+00 0. -1.
</event>
<event>
 4    1  0.6109945E+002  0.2042970E+02  0.7546771E-02  0.1527565E+00
          2   -1    0    0  502    0  0.00000000000E+00  0.00000000000E+00  0.16296715447E+04  0.16296715447E+04  0.00000000000E+00 0.  1.
         -2   -1    0    0    0  501 -0.00000000000E+00 -0.00000000000E+00 -0.28222738180E+00  0.28222738180E+00  0.00000000000E+00 0. -1.
         21    1    1    2  502  503  0.16453689758E+01 -0.20363334040E+02  0.10626215490E+04  0.10628179190E+04  0.00000000000E+00 0. -1.
         21    1    1    2  503  501 -0.16453689758E+01  0.20363334040E+02  0.56676776831E+03  0.56713585304E+03  0.00000000000E+00 0.  1.
</event>
<event>
 4    1  0.6109945E+002  0.2056487E+02  0.7546771E-02  0.1525569E+00
          2   -1    0    0  503    0  0.00000000000E+00  0.00000000000E+00  0.24270812780E+01  0.24270812780E+01  0.00000000000E+00 0. -1.
         -2   -1    0    0    0  501 -0.00000000000E+00 -0.00000000000E+00 -0.64512971333E+03  0.64512971333E+03  0.00000000000E+00 0.  1.
         21    1    1    2  502  501  0.17144701798E+02 -0.11356631397E+02 -0.59796922467E+03  0.59832274528E+03  0.00000000000E+00 0.  1.
         21    1    1    2  503  502 -0.17144701798E+02  0.11356631397E+02 -0.44733407381E+02  0.49234049319E+02  0.00000000000E+00 0. -1.
</event>
<event>
 4    1  0.6109945E+002  0.2063915E+02  0.7546771E-02  0.1524480E+00
          2   -1    0    0  503    0  0.00000000000E+00  0.00000000000E+00  0.15165170256E+04  0.15165170256E+04  0.00000000000E+00 0. -1.
         -2   -1    0    0    0  501 -0.00000000000E+00 -0.00000000000E+00 -0.36139240026E+00  0.36139240026E+00  0.00000000000E+00 0.  1.
         21    1    1    2  502  501 -0.18940362153E+02  0.81998365230E+01  0.40011709003E+03  0.40064904889E+03  0.00000000000E+00 0.  1.
         21    1    1    2  503  502  0.18940362153E+02 -0.81998365230E+01  0.11160385432E+04  0.11162293691E+04  0.00000000000E+00 0. -1.
</event>
<event>
 4    1  0.6109945E+002  0.2519375E+02  0.7546771E-02  0.1466648E+00
          2   -1    0    0  502    0  0.00000000000E+00  0.00000000000E+00  0.80621652957E+01  0.80621652957E+01  0.00000000000E+00 0.  1.
         -2   -1    0    0    0  501 -0.00000000000E+00 -0.00000000000E+00 -0.13585973816E+03  0.13585973816E+03  0.00000000000E+00 0. -1.
         21    1    1    2  502  503 -0.25191670055E+02  0.32353849419E+00 -0.17234240985E+02  0.30524481644E+02  0.00000000000E+00 0.  1.
         21    1    1    2  503  501  0.25191670055E+02 -0.32353849419E+00 -0.11056333188E+03  0.11339742181E+03  0.00000000000E+00 0. -1.
</event>
<event>
 4    1  0.6109945E+002  0.2017947E+02  0.7546771E-02  0.1531310E+00
          2   -1    0    0  503    0  0.00000000000E+00  0.00000000000E+00  0.37054932505E+02  0.37054932505E+02  0.00000000000E+00 0. -1.
         -2   -1    0    0    0  501 -0.00000000000E+00 -0.00000000000E+00 -0.14640699271E+02  0.14640699271E+02  0.00000000000E+00 0.  1.
         21    1    1    2  502  501  0.20149244819E+02 -0.11040754340E+01 -0.17011325627E+01  0.20251046919E+02  0.00000000000E+00 0.  1.
         21    1    1    2  503  502 -0.20149244819E+02  0.11040754340E+01  0.24115365797E+02  0.31444584857E+02  0.00000000000E+00 0. -1.
</event>
<event>
 4    1  0.6109945E+002  0.4132127E+02  0.7546771E-02  0.1340912E+00
          2   -1    0    0  502    0  0.00000000000E+00  0.00000000000E+00  0.14731111424E+04  0.14731111424E+04  0.00000000000E+00 0. -1.
         -2   -1    0    0    0  501 -0.00000000000E+00 -0.00000000000E+00 -0.99933421058E+01  0.99933421058E+01  0.00000000000E+00 0.  1.
         21    1    1    2  502  503  0.10040495813E+02  0.40082856637E+02  0.14287817747E+04  0.14293791682E+04  0.00000000000E+00 0. -1.
         21    1    1    2  503  501 -0.10040495813E+02 -0.40082856637E+02  0.34336025613E+02  0.53725316260E+02  0.00000000000E+00 0.  1.
</event>
<event>
 4    1  0.6109945E+002  0.2807588E+02  0.7546771E-02  0.1437090E+00
          2   -1    0    0  503    0  0.00000000000E+00  0.00000000000E+00  0.24409805237E+02  0.24409805237E+02  0.00000000000E+00 0. -1.
         -2   -1    0    0    0  501 -0.00000000000E+00 -0.00000000000E+00 -0.32572313078E+02  0.32572313078E+02  0.00000000000E+00 0.  1.
         21    1    1    2  502  501  0.10919273762E+02 -0.25865502635E+02 -0.67217307219E+01  0.28869299090E+02  0.00000000000E+00 0. -1.
         21    1    1    2  503  502 -0.10919273762E+02  0.25865502635E+02 -0.14407771189E+01  0.28112819224E+02  0.00000000000E+00 0.  1.
</event>
<event>
 4    1  0.6109945E+002  0.3086190E+02  0.7546771E-02  0.1412251E+00
          2   -1    0    0  502    0  0.00000000000E+00  0.00000000000E+00  0.53900745524E+03  0.53900745524E+03  0.00000000000E+00 0. -1.
         -2   -1    0    0    0  501 -0.00000000000E+00 -0.00000000000E+00 -0.49179098625E+01  0.49179098625E+01  0.00000000000E+00 0.  1.
         21    1    1    2  502  503  0.11925697173E+01  0.30838851641E+02  0.48473206789E+03  0.48571353146E+03  0.00000000000E+00 0. -1.
         21    1    1    2  503  501 -0.11925697173E+01 -0.30838851641E+02  0.49357477478E+02  0.58211833643E+02  0.00000000000E+00 0.  1.
</event>
<event>
 4    1  0.6109945E+002  0.2285678E+02  0.7546771E-02  0.1494304E+00
          2   -1    0    0  502    0  0.00000000000E+00  0.00000000000E+00  0.76096604459E+03  0.76096604459E+03  0.00000000000E+00 0.  1.
         -2   -1    0    0    0  501 -0.00000000000E+00 -0.00000000000E+00 -0.87622475144E+00  0.87622475144E+00  0.00000000000E+00 0. -1.
         21    1    1    2  502  503 -0.19980915008E+02  0.11099338659E+02  0.20281152002E+03  0.20409543096E+03  0.00000000000E+00 0. -1.
         21    1    1    2  503  501  0.19980915008E+02 -0.11099338659E+02  0.55727829981E+03  0.55774683838E+03  0.00000000000E+00 0.  1.
</event>
<event>
 4    1  0.6109945E+002  0.2513035E+02  0.7546771E-02  0.1467350E+00
          2   -1    0    0  502    0  0.00000000000E+00  0.00000000000E+00  0.17662068898E+03  0.17662068898E+03  0.00000000000E+00 0.  1.
         -2   -1    0    0    0  501 -0.00000000000E+00 -0.00000000000E+00 -0.19390755925E+02  0.19390755925E+02  0.00000000000E+00 0. -1.
         21    1    1    2  502  503  0.23795196270E+02 -0.80822797647E+01  0.16712449994E+03  0.16900335231E+03  0.00000000000E+00 0.  1.
         21    1    1    2  503  501 -0.23795196270E+02  0.80822797647E+01 -0.98945668868E+01  0.27008092594E+02  0.00000000000E+00 0. -1.
</event>
<event>
 4    1  0.6109945E+002  0.4164019E+02  0.7546771E-02  0.1339133E+00
          2   -1    0    0  502    0  0.00000000000E+00  0.00000000000E+00  0.54488754055E+02  0.54488754055E+02  0.00000000000E+00 0.  1.
         -2   -1    0    0    0  501 -0.00000000000E+00 -0.00000000000E+00 -0.31859458852E+02  0.31859458852E+02  0.00000000000E+00 0. -1.
         21    1    1    2  502  503  0.32174773528E+02 -0.26432736084E+02  0.12807889631E+02  0.43565440722E+02  0.00000000000E+00 0. -1.
         21    1    1    2  503  501 -0.32174773528E+02  0.26432736084E+02  0.98214055724E+01  0.42782772186E+02  0.00000000000E+00 0.  1.
</event>
<event>
 4    1  0.6109945E+002  0.3655762E+02  0.7546771E-02  0.1369931E+00
          2   -1    0    0  502    0  0.00000000000E+00  0.00000000000E+00  0.35131603518E+03  0.35131603518E+03  0.00000000000E+00 0.  1.
         -2   -1    0    0    0  501 -0.00000000000E+00 -0.00000000000E+00 -0.14882365883E+02  0.14882365883E+02  0.00000000000E+00 0. -1.
         21    1    1    2  502  503  0.24712433433E+02  0.26939839605E+02  0.32619073735E+03  0.32823293018E+03  0.00000000000E+00 0.  1.
         21    1    1    2  503  501 -0.24712433433E+02 -0.26939839605E+02  0.10242931946E+02  0.37965470878E+02  0.00000000000E+00 0. -1.
</event>
<event>
 4    1  0.6109945E+002  0.2722043E+02  0.7546771E-02  0.1445406E+00
          2   -1    0    0  502    0  0.00000000000E+00  0.00000000000E+00  0.28863524214E+03  0.28863524214E+03  0.00000000000E+00 0. -1.
         -2   -1    0    0    0  501 -0.00000000000E+00 -0.00000000000E+00 -0.60196068695E+01  0.60196068695E+01  0.00000000000E+00 0.  1.
         21    1    1    2  502  503  0.24853278085E+02  0.11102531038E+02  0.25288301364E+03  0.25434380318E+03  0.00000000000E+00 0. -1.
         21    1    1    2  503  501 -0.24853278085E+02 -0.11102531038E+02  0.29732621630E+02  0.40311045831E+02  0.00000000000E+00 0.  1.
</event>
<event>
 4    1  0.6109945E+002  0.6726887E+02  0.7546771E-02  0.1236953E+00
          2   -1    0    0  502    0  0.00000000000E+00  0.00000000000E+00  0.10944753347E+04  0.10944753347E+04  0.00000000000E+00 0. -1.
         -2   -1    0    0    0  501 -0.00000000000E+00 -0.00000000000E+00 -0.10903663591E+02  0.10903663591E+02  0.00000000000E+00 0.  1.
         21    1    1    2  502  503 -0.58417321204E+02  0.33354418009E+02  0.97726032696E+03  0.97957278814E+03  0.00000000000E+00 0. -1.
         21    1    1    2  503  501  0.58417321204E+02 -0.33354418009E+02  0.10631134415E+03  0.12580621015E+03  0.00000000000E+00 0.  1.
</event>
<event>
 4    1  0.6109945E+002  0.2860820E+02  0.7546771E-02  0.1432090E+00
          2   -1    0    0  502    0  0.00000000000E+00  0.00000000000E+00  0.54740292582E+01  0.54740292582E+01  0.00000000000E+00 0.  1.
         -2   -1    0    0    0  501 -0.00000000000E+00 -0.00000000000E+00 -0.17755768218E+03  0.17755768218E+03  0.00000000000E+00 0. -1.
         21    1    1    2  502  503  0.16952244448E+02 -0.23044529311E+02 -0.49669969845E+02  0.57319585025E+02  0.00000000000E+00 0.  1.
         21    1    1    2  503  501 -0.16952244448E+02  0.23044529311E+02 -0.12241368308E+03  0.12571212642E+03  0.00000000000E+00 0. -1.
</event>
<event>
 4    1  0.6109945E+002  0.2004469E+02  0.7546771E-02  0.1533354E+00
          2   -1    0    0  503    0  0.00000000000E+00  0.00000000000E+00  0.19834069301E+03  0.19834069301E+03  0.00000000000E+00 0.  1.
         -2   -1    0    0    0  501 -0.00000000000E+00 -0.00000000000E+00 -0.23337511708E+01  0.23337511708E+01  0.00000000000E+00 0. -1.
         21    1    1    2  502  501 -0.93127659633E+00 -0.20023043658E+02  0.61552608970E+02  0.64734173544E+02  0.00000000000E+00 0. -1.
         21    1    1    2  503  502  0.93127659633E+00  0.20023043658E+02  0.13445433287E+03  0.13594027063E+03  0.00000000000E+00 0.  1.
</event>
<event>
 4    1  0.6109945E+002  0.2097372E+02  0.7546771E-02  0.1519640E+00
          2   -1    0    0  503    0  0.00000000000E+00  0.00000000000E+00  0.11477991796E+03  0.11477991796E+03  0.00000000000E+00 0.  1.
         -2   -1    0    0    0  501 -0.00000000000E+00 -0.00000000000E+00 -0.19890822890E+02  0.19890822890E+02  0.00000000000E+00 0. -1.
         21    1    1    2  502  501  0.14772586469E+02  0.14888500137E+02 -0.13057023493E+02  0.24705922565E+02  0.00000000000E+00 0. -1.
         21    1    1    2  503  502 -0.14772586469E+02 -0.14888500137E+02  0.10794611856E+03  0.10996481828E+03  0.00000000000E+00 0.  1.
</event>
<event>
 4    1  0.6109945E+002  0.4303812E+02  0.7546771E-02  0.1331547E+00
          2   -1    0    0  502    0  0.00000000000E+00  0.00000000000E+00  0.17045103626E+02  0.17045103626E+02  0.00000000000E+00 0.  1.
         -2   -1    0    0    0  501 -0.00000000000E+00 -0.00000000000E+00 -0.11271413424E+03  0.11271413424E+03  0.00000000000E+00 0. -1.
         21    1    1    2  502  503  0.29034863298E+02  0.31768800595E+02 -0.60124968444E+02  0.73941137456E+02  0.00000000000E+00 0. -1.
         21    1    1    2  503  501 -0.29034863298E+02 -0.31768800595E+02 -0.35544062173E+02  0.55818100413E+02  0.00000000000E+00 0.  1.
</event>
<event>
 4    1  0.6109945E+002  0.2222690E+02  0.7546771E-02  0.1502441E+00
          2   -1    0    0  503    0  0.00000000000E+00  0.00000000000E+00  0.35737212348E+02  0.35737212348E+02  0.00000000000E+00 0. -1.
         -2   -1    0    0    0  501 -0.00000000000E+00 -0.00000000000E+00 -0.80607446869E+02  0.80607446869E+02  0.00000000000E+00 0.  1.
         21    1    1    2  502  501  0.18438462702E+02  0.12412009256E+02 -0.75384750443E+02  0.78593227952E+02  0.00000000000E+00 0.  1.
         21    1    1    2  503  502 -0.18438462702E+02 -0.12412009256E+02  0.30514515922E+02  0.37751431265E+02  0.00000000000E+00 0. -1.
</event>
<event>
 4    1  0.6109945E+002  0.2018313E+02  0.7546771E-02  0.1531255E+00
          2   -1    0    0  502    0  0.00000000000E+00  0.00000000000E+00  0.99880689512E+02  0.99880689512E+02  0.00000000000E+00 0.  1.
         -2   -1    0    0    0  501 -0.00000000000E+00 -0.00000000000E+00 -0.69593555483E+01  0.69593555483E+01  0.00000000000E+00 0. -1.
         21    1    1    2  502  503 -0.16141024566E+02 -0.12117173221E+02  0.80831015946E+02  0.83312734320E+02  0.00000000000E+00 0.  1.
         21    1    1    2  503  501  0.16141024566E+02  0.12117173221E+02  0.12090318017E+02  0.23527310740E+02  0.00000000000E+00 0. -1.
</event>
<event>
 4    1  0.6109945E+002  0.2464528E+02  0.7546771E-02  0.1472811E+00
          2   -1    0    0  502    0  0.00000000000E+00  0.00000000000E+00  0.18127461372E+03  0.18127461372E+03  0.00000000000E+00 0.  1.
         -2   -1    0    0    0  501 -0.00000000000E+00 -0.00000000000E+00 -0.11710247212E+03  0.11710247212E+03  0.00000000000E+00 0. -1.
         21    1    1    2  502  503  0.21408478273E+02  0.12209299892E+02  0.17912475202E+03  0.18081224166E+03  0.00000000000E+00 0.  1.
         21    1    1    2  503  501 -0.21408478273E+02 -0.12209299892E+02 -0.11495261042E+03  0.11756484418E+03  0.00000000000E+00 0. -1.
</event>
<event>
 4    1  0.6109945E+002  0.2343753E+02  0.7546771E-02  0.1487076E+00
          2   -1    0    0  502    0  0.00000000000E+00  0.00000000000E+00  0.98171397541E+03  0.98171397541E+03  0.00000000000E+00 0. -1.
         -2   -1    0    0    0  501 -0.00000000000E+00 -0.00000000000E+00 -0.10645852017E+01  0.10645852017E+01  0.00000000000E+00 0.  1.
         21    1    1    2  502  503  0.22713279639E+02 -0.57814038038E+01  0.82877619673E+03  0.82910753342E+03  0.00000000000E+00 0. -1.
         21    1    1    2  503  501 -0.22713279639E+02  0.57814038038E+01  0.15187319348E+03  0.15367102719E+03  0.00000000000E+00 0.  1.
</event>
<event>
 4    1  0.6109945E+002  0.2281870E+02  0.7546771E-02  0.1494787E+00
          2   -1    0    0  502    0  0.00000000000E+00  0.00000000000E+00  0.10518321543E+04  0.10518321543E+04  0.00000000000E+00 0.  1.
         -2   -1    0    0    0  501 -0.00000000000E+00 -0.00000000000E+00 -0.18100927392E+01  0.18100927392E+01  0.00000000000E+00 0. -1.
         21    1    1    2  502  503  0.15158204563E+02  0.17056436736E+02  0.97405127058E+03  0.97431851616E+03  0.00000000000E+00 0.  1.
         21    1    1    2  503  501 -0.15158204563E+02 -0.17056436736E+02  0.75970791013E+02  0.79323730918E+02  0.00000000000E+00 0. -1.
</event>
<event>
 4    1  0.6109945E+002  0.2041123E+02  0.7546771E-02  0.1527839E+00
          2   -1    0    0  502    0  0.00000000000E+00  0.00000000000E+00  0.35933757409E+01  0.35933757409E+01  0.00000000000E+00 0. -1.
         -2   -1    0    0    0  501 -0.00000000000E+00 -0.00000000000E+00 -0.11737343436E+03  0.11737343436E+03  0.00000000000E+00 0.  1.
         21    1    1    2  502  503 -0.20373956357E+02  0.12330014034E+01 -0.63572525938E+02  0.66768888295E+02  0.00000000000E+00 0.  1.
         21    1    1    2  503  501  0.20373956357E+02 -0.12330014034E+01 -0.50207532680E+02  0.54197921805E+02  0.00000000000E+00 0. -1.
</event>
<event>
 4    1  0.6109945E+002  0.2752353E+02  0.7546771E-02  0.1442419E+00
          2   -1    0    0  502    0  0.00000000000E+00  0.00000000000E+00  0.11376326258E+04  0.11376326258E+04  0.00000000000E+00 0.  1.
         -2   -1    0    0    0  501 -0.00000000000E+00 -0.00000000000E+00 -0.62752656461E+01  0.62752656461E+01  0.00000000000E+00 0. -1.
         21    1    1    2  502  503  0.12221132742E+02  0.24661483135E+02  0.11064355417E+04  0.11067778245E+04  0.00000000000E+00 0.  1.
         21    1    1    2  503  501 -0.12221132742E+02 -0.24661483135E+02  0.24921818391E+02  0.37130066898E+02  0.00000000000E+00 0. -1.
</event>
<event>
 4    1  0.6109945E+002  0.2390287E+02  0.7546771E-02  0.1481462E+00
          2   -1    0    0  503    0  0.00000000000E+00  0.00000000000E+00  0.28340059131E+03  0.28340059131E+03  0.00000000000E+00 0. -1.
         -2   -1    0    0    0  501 -0.00000000000E+00 -0.00000000000E+00 -0.61943905354E+01  0.61943905354E+01  0.00000000000E+00 0.  1.
         21    1    1    2  502  501  0.23346468368E+02 -0.51273569485E+01  0.19680581617E+02  0.30962439622E+02  0.00000000000E+00 0.  1.
         21    1    1    2  503  502 -0.23346468368E+02  0.51273569485E+01  0.25752561916E+03  0.25863254222E+03  0.00000000000E+00 0. -1.
</event>
<event>
 4    1  0.6109945E+002  0.3316086E+02  0.7546771E-02  0.1393975E+00
          2   -1    0    0  503    0  0.00000000000E+00  0.00000000000E+00  0.13014343251E+04  0.13014343251E+04  0.00000000000E+00 0. -1.
         -2   -1    0    0    0  501 -0.00000000000E+00 -0.00000000000E+00 -0.84498152196E+00  0.84498152196E+00  0.00000000000E+00 0.  1.
         21    1    1    2  502  501  0.93669925776E+01 -0.31810405947E+02  0.65448213534E+03  0.65532168281E+03  0.00000000000E+00 0.  1.
         21    1    1    2  503  502 -0.93669925776E+01  0.31810405947E+02  0.64610720827E+03  0.64695762385E+03  0.00000000000E+00 0. -1.
</event>
<event>
 4    1  0.6109945E+002  0.2023498E+02  0.7546771E-02  0.1530473E+00
          2   -1    0    0  502    0  0.00000000000E+00  0.00000000000E+00  0.28399767611E+03  0.28399767611E+03  0.00000000000E+00 0. -1.
         -2   -1    0    0    0  501 -0.00000000000E+00 -0.00000000000E+00 -0.36473617852E+01  0.36473617852E+01  0.00000000000E+00 0.  1.
         21    1    1    2  502  503  0.19271762020E+02 -0.61687692731E+01  0.25201632729E+03  0.25282737934E+03  0.00000000000E+00 0. -1.
         21    1    1    2  503  501 -0.19271762020E+02  0.61687692731E+01  0.28333987038E+02  0.34817658554E+02  0.00000000000E+00 0.  1.
</event>
<event>
 4    1  0.6109945E+002  0.2014241E+02  0.7546771E-02  0.1531870E+00
          2   -1    0    0  503    0  0.00000000000E+00  0.00000000000E+00  0.11782008380E+03  0.11782008380E+03  0.00000000000E+00 0.  1.
         -2   -1    0    0    0  501 -0.00000000000E+00 -0.00000000000E+00 -0.13229574357E+02  0.13229574357E+02  0.00000000000E+00 0. -1.
         21    1    1    2  502  501 -0.20114158881E+02  0.10663670020E+01 -0.40602883085E+01  0.20547565969E+02  0.00000000000E+00 0. -1.
         21    1    1    2  503  502  0.20114158881E+02 -0.10663670020E+01  0.10865079775E+03  0.11050209219E+03  0.00000000000E+00 0.  1.
</event>
<event>
 4    1  0.6109945E+002  0.2673003E+02  0.7546771E-02  0.1450339E+00
          2   -1    0    0  503    0  0.00000000000E+00  0.00000000000E+00  0.19883853367E+02  0.19883853367E+02  0.00000000000E+00 0. -1.
         -2   -1    0    0    0  501 -0.00000000000E+00 -0.00000000000E+00 -0.98317564220E+02  0.98317564220E+02  0.00000000000E+00 0.  1.
         21    1    1    2  502  501  0.23512205801E+02 -0.12714983942E+02 -0.86294451991E+02  0.90339510087E+02  0.00000000000E+00 0.  1.
         21    1    1    2  503  502 -0.23512205801E+02  0.12714983942E+02  0.78607411392E+01  0.27861907500E+02  0.00000000000E+00 0. -1.
</event>
<event>
 4    1  0.6109945E+002  0.7849763E+02  0.7546771E-02  0.1207379E+00
          2   -1    0    0  502    0  0.00000000000E+00  0.00000000000E+00  0.32041537894E+03  0.32041537894E+03  0.00000000000E+00 0.  1.
         -2   -1    0    0    0  501 -0.00000000000E+00 -0.00000000000E+00 -0.64875341328E+02  0.64875341328E+02  0.00000000000E+00 0. -1.
         21    1    1    2  502  503 -0.28677519982E+02 -0.73071727552E+02  0.28935933852E+03  0.29981778518E+03  0.00000000000E+00 0.  1.
         21    1    1    2  503  501  0.28677519982E+02  0.73071727552E+02 -0.33819300905E+02  0.85472935093E+02  0.00000000000E+00 0. -1.
</event>
<event>
 4    1  0.6109945E+002  0.2539968E+02  0.7546771E-02  0.1464381E+00
          2   -1    0    0  502    0  0.00000000000E+00  0.00000000000E+00  0.21385456144E+02  0.21385456144E+02  0.00000000000E+00 0.  1.
         -2   -1    0    0    0  501 -0.00000000000E+00 -0.00000000000E+00 -0.15136583330E+03  0.15136583330E+03  0.00000000000E+00 0. -1.
         21    1    1    2  502  503 -0.18748350306E+02  0.17136023351E+02  0.12300263870E+02  0.28221276136E+02  0.00000000000E+00 0.  1.
         21    1    1    2  503  501  0.18748350306E+02 -0.17136023351E+02 -0.14228064103E+03  0.14453001331E+03  0.00000000000E+00 0. -1.
</event>
<event>
 4    1  0.6109945E+002  0.2885365E+02  0.7546771E-02  0.1429827E+00
          2   -1    0    0  502    0  0.00000000000E+00  0.00000000000E+00  0.82852068294E+02  0.82852068294E+02  0.00000000000E+00 0. -1.
         -2   -1    0    0    0  501 -0.00000000000E+00 -0.00000000000E+00 -0.13906679355E+03  0.13906679355E+03  0.00000000000E+00 0.  1.
         21    1    1    2  502  503 -0.25919401765E+02  0.12677450130E+02  0.78768163626E+02  0.83886570621E+02  0.00000000000E+00 0. -1.
         21    1    1    2  503  501  0.25919401765E+02 -0.12677450130E+02 -0.13498288889E+03  0.13803229123E+03  0.00000000000E+00 0.  1.
</event>
<event>
 4    1  0.6109945E+002  0.2348779E+02  0.7546771E-02  0.1486462E+00
          2   -1    0    0  502    0  0.00000000000E+00  0.00000000000E+00  0.23184938139E+01  0.23184938139E+01  0.00000000000E+00 0. -1.
         -2   -1    0    0    0  501 -0.00000000000E+00 -0.00000000000E+00 -0.44133988089E+03  0.44133988089E+03  0.00000000000E+00 0.  1.
         21    1    1    2  502  503 -0.16929960644E+02 -0.16280444200E+02 -0.68919007352E+02  0.72811441444E+02  0.00000000000E+00 0. -1.
         21    1    1    2  503  501  0.16929960644E+02  0.16280444200E+02 -0.37010237972E+03  0.37084693326E+03  0.00000000000E+00 0.  1.
</event>
<event>
 4    1  0.6109945E+002  0.4112401E+02  0.7546771E-02  0.1342022E+00
          2   -1    0    0  503    0  0.00000000000E+00  0.00000000000E+00  0.75502703994E+03  0.75502703994E+03  0.00000000000E+00 0. -1.
         -2   -1    0    0    0  501 -0.00000000000E+00 -0.00000000000E+00 -0.23391142917E+01  0.23391142917E+01  0.00000000000E+00 0.  1.
         21    1    1    2  502  501 -0.35496792746E+02 -0.20764430976E+02  0.29835364172E+03  0.30117449995E+03  0.00000000000E+00 0.  1.
         21    1    1    2  503  502  0.35496792746E+02  0.20764430976E+02  0.45433428393E+03  0.45619165429E+03  0.00000000000E+00 0. -1.
</event>
<event>
 4    1  0.6109945E+002  0.4534166E+02  0.7546771E-02  0.1319740E+00
          2   -1    0    0  502    0  0.00000000000E+00  0.00000000000E+00  0.82574895629E+02  0.82574895629E+02  0.00000000000E+00 0. -1.
         -2   -1    0    0    0  501 -0.00000000000E+00 -0.00000000000E+00 -0.49003760484E+02  0.49003760484E+02  0.00000000000E+00 0.  1.
         21    1    1    2  502  503 -0.32634738743E+02  0.31477606560E+02  0.62929044273E+02  0.77562429699E+02  0.00000000000E+00 0. -1.
         21    1    1    2  503  501  0.32634738743E+02 -0.31477606560E+02 -0.29357909128E+02  0.54016226414E+02  0.00000000000E+00 0.  1.
</event>
<event>
 4    1  0.6109945E+002  0.3226529E+02  0.7546771E-02  0.1400881E+00
          2   -1    0    0  502    0  0.00000000000E+00  0.00000000000E+00  0.12962381203E+04  0.12962381203E+04  0.00000000000E+00 0. -1.
         -2   -1    0    0    0  501 -0.00000000000E+00 -0.00000000000E+00 -0.14121910772E+02  0.14121910772E+02  0.00000000000E+00 0.  1.
         21    1    1    2  502  503  0.30129468805E+02 -0.11544005956E+02  0.12773349661E+04  0.12777424093E+04  0.00000000000E+00 0. -1.
         21    1    1    2  503  501 -0.30129468805E+02  0.11544005956E+02  0.47812435038E+01  0.32617621824E+02  0.00000000000E+00 0.  1.
</event>
<event>
 4    1  0.6109945E+002  0.2968853E+02  0.7546771E-02  0.1422323E+00
          2   -1    0    0  502    0  0.00000000000E+00  0.00000000000E+00  0.16518297425E+04  0.16518297425E+04  0.00000000000E+00 0.  1.
         -2   -1    0    0    0  501 -0.00000000000E+00 -0.00000000000E+00 -0.57948514393E+00  0.57948514393E+00  0.00000000000E+00 0. -1.
         21    1    1    2  502  503 -0.23571978943E+02 -0.18049114664E+02  0.10581258685E+04  0.10585422818E+04  0.00000000000E+00 0. -1.
         21    1    1    2  503  501  0.23571978943E+02  0.18049114664E+02  0.59312438885E+03  0.59386694586E+03  0.00000000000E+00 0.  1.
</event>
<event>
 4    1  0.6109945E+002  0.2298542E+02  0.7546771E-02  0.1492681E+00
          2   -1    0    0  503    0  0.00000000000E+00  0.00000000000E+00  0.75091161458E+03  0.75091161458E+03  0.00000000000E+00 0.  1.
         -2   -1    0    0    0  501 -0.00000000000E+00 -0.00000000000E+00 -0.15075456268E+01  0.15075456268E+01  0.00000000000E+00 0. -1.
         21    1    1    2  502  501  0.22130318410E+02  0.62111467075E+01  0.99968103568E+02  0.10257656198E+03  0.00000000000E+00 0. -1.
         21    1    1    2  503  502 -0.22130318410E+02 -0.62111467075E+01  0.64943596538E+03  0.64984259822E+03  0.00000000000E+00 0.  1.
</event>
<event>
 4    1  0.6109945E+002  0.3021764E+02  0.7546771E-02  0.1417714E+00
          2   -1    0    0  503    0  0.00000000000E+00  0.00000000000E+00  0.20540979355E+04  0.20540979355E+04  0.00000000000E+00 0. -1.
         -2   -1    0    0    0  501 -0.00000000000E+00 -0.00000000000E+00 -0.10931165403E+01  0.10931165403E+01  0.00000000000E+00 0.  1.
         21    1    1    2  502  501 -0.73171165715E+01 -0.29318347844E+02  0.23496155488E+03  0.23689668209E+03  0.00000000000E+00 0.  1.
         21    1    1    2  503  502  0.73171165715E+01  0.29318347844E+02  0.18180432641E+04  0.18182943699E+04  0.00000000000E+00 0. -1.
</event>
<event>
 4    1  0.6109945E+002  0.2309371E+02  0.7546771E-02  0.1491325E+00
          2   -1    0    0  502    0  0.00000000000E+00  0.00000000000E+00  0.14999168428E+04  0.14999168428E+04  0.00000000000E+00 0. -1.
         -2   -1    0    0    0  501 -0.00000000000E+00 -0.00000000000E+00 -0.36417260925E+00  0.36417260925E+00  0.00000000000E+00 0.  1.
         21    1    1    2  502  503 -0.46515784880E+01 -0.22620392031E+02  0.86509694772E+03  0.86540513534E+03  0.00000000000E+00 0. -1.
         21    1    1    2  503  501  0.46515784880E+01  0.22620392031E+02  0.63445572246E+03  0.63487588005E+03  0.00000000000E+00 0.  1.
</event>
<event>
 4    1  0.6109945E+002  0.2671793E+02  0.7546771E-02  0.1450462E+00
          2   -1    0    0  502    0  0.00000000000E+00  0.00000000000E+00  0.38984917704E+03  0.38984917704E+03  0.00000000000E+00 0.  1.
         -2   -1    0    0    0  501 -0.00000000000E+00 -0.00000000000E+00 -0.34476347677E+01  0.34476347677E+01  0.00000000000E+00 0. -1.
         21    1    1    2  502  503  0.22163132099E+02  0.14921236963E+02  0.32785626697E+03  0.32894312507E+03  0.00000000000E+00 0.  1.
         21    1    1    2  503  501 -0.22163132099E+02 -0.14921236963E+02  0.58545275300E+02  0.64353686739E+02  0.00000000000E+00 0. -1.
</event>
<event>
 4    1  0.6109945E+002  0.2826625E+02  0.7546771E-02  0.1435287E+00
          2   -1    0    0  503    0  0.00000000000E+00  0.00000000000E+00  0.36881715052E+03  0.36881715052E+03  0.00000000000E+00 0.  1.
         -2   -1    0    0    0  501 -0.00000000000E+00 -0.00000000000E+00 -0.33632879575E+01  0.33632879575E+01  0.00000000000E+00 0. -1.
         21    1    1    2  502  501  0.14398169482E+02  0.24324338429E+02  0.71712242737E+02  0.77081946542E+02  0.00000000000E+00 0. -1.
         21    1    1    2  503  502 -0.14398169482E+02 -0.24324338429E+02  0.29374161983E+03  0.29509849194E+03  0.00000000000E+00 0.  1.
</event>
<event>
 4    1  0.6109945E+002  0.2407875E+02  0.7546771E-02  0.1479379E+00
          2   -1    0    0  502    0  0.00000000000E+00  0.00000000000E+00  0.16370800051E+04  0.16370800051E+04  0.00000000000E+00 0. -1.
         -2   -1    0    0    0  501 -0.00000000000E+00 -0.00000000000E+00 -0.42329135471E+00  0.42329135471E+00  0.00000000000E+00 0.  1.
         21    1    1    2  502  503  0.17152382500E+02 -0.16899164955E+02  0.11492112730E+04  0.11494634992E+04  0.00000000000E+00 0. -1.
         21    1    1    2  503  501 -0.17152382500E+02  0.16899164955E+02  0.48744544074E+03  0.48803979725E+03  0.00000000000E+00 0.  1.
</event>
<event>
 4    1  0.6109945E+002  0.2214066E+02  0.7546771E-02  0.1503580E+00
          2   -1    0    0  502    0  0.00000000000E+00  0.00000000000E+00  0.51749348682E+03  0.51749348682E+03  0.00000000000E+00 0.  1.
         -2   -1    0    0    0  501 -0.00000000000E+00 -0.00000000000E+00 -0.96811128496E+00  0.96811128496E+00  0.00000000000E+00 0. -1.
         21    1    1    2  502  503  0.17011508030E+02 -0.14171003270E+02  0.29629319872E+03  0.29711928303E+03  0.00000000000E+00 0.  1.
         21    1    1    2  503  501 -0.17011508030E+02  0.14171003270E+02  0.22023217682E+03  0.22134231508E+03  0.00000000000E+00 0. -1.
</event>
<event>
 4    1  0.6109945E+002  0.2914440E+02  0.7546771E-02  0.1427180E+00
          2   -1    0    0  503    0  0.00000000000E+00  0.00000000000E+00  0.25903224690E+03  0.25903224690E+03  0.00000000000E+00 0. -1.
         -2   -1    0    0    0  501 -0.00000000000E+00 -0.00000000000E+00 -0.33224570146E+01  0.33224570146E+01  0.00000000000E+00 0.  1.
         21    1    1    2  502  501  0.19837475904E+02  0.21351127441E+02  0.11287212547E+03  0.11657406573E+03  0.00000000000E+00 0. -1.
         21    1    1    2  503  502 -0.19837475904E+02 -0.21351127441E+02  0.14283766442E+03  0.14578063819E+03  0.00000000000E+00 0.  1.
</event>
<event>
 4    1  0.6109945E+002  0.4428586E+02  0.7546771E-02  0.1325049E+00
          2   -1    0    0  503    0  0.00000000000E+00  0.00000000000E+00  0.31817058050E+04  0.31817058050E+04  0.00000000000E+00 0. -1.
         -2   -1    0    0    0  501 -0.00000000000E+00 -0.00000000000E+00 -0.47619848453E+01  0.47619848453E+01  0.00000000000E+00 0.  1.
         21    1    1    2  502  501  0.12693125108E+02  0.42427842961E+02  0.10192752855E+03  0.11113261609E+03  0.00000000000E+00 0.  1.
         21    1    1    2  503  502 -0.12693125108E+02 -0.42427842961E+02  0.30750162916E+04  0.30753351737E+04  0.00000000000E+00 0. -1.
</event>
<event>
 4    1  0.6109945E+002  0.2015149E+02  0.7546771E-02  0.1531732E+00
          2   -1    0    0  503    0  0.00000000000E+00  0.00000000000E+00  0.48739675642E+02  0.48739675642E+02  0.00000000000E+00 0.  1.
         -2   -1    0    0    0  501 -0.00000000000E+00 -0.00000000000E+00 -0.99954600726E+01  0.99954600726E+01  0.00000000000E+00 0. -1.
         21    1    1    2  502  501  0.25012673589E+01  0.19995652855E+02  0.73904480887E+01  0.21463951044E+02  0.00000000000E+00 0. -1.
         21    1    1    2  503  502 -0.25012673589E+01 -0.19995652855E+02  0.31353767480E+02  0.37271184670E+02  0.00000000000E+00 0.  1.
</event>
<event>
 4    1  0.6109945E+002  0.3442695E+02  0.7546771E-02  0.1384637E+00
          2   -1    0    0  502    0  0.00000000000E+00  0.00000000000E+00  0.13557285865E+04  0.13557285865E+04  0.00000000000E+00 0. -1.
         -2   -1    0    0    0  501 -0.00000000000E+00 -0.00000000000E+00 -0.15152106022E+01  0.15152106022E+01  0.00000000000E+00 0.  1.
         21    1    1    2  502  503  0.10923435708E+02 -0.32648028699E+02  0.11184887270E+04  0.11190184305E+04  0.00000000000E+00 0. -1.
         21    1    1    2  503  501 -0.10923435708E+02  0.32648028699E+02  0.23572464882E+03  0.23822536659E+03  0.00000000000E+00 0.  1.
</event>
<event>
 4    1  0.6109945E+002  0.2593329E+02  0.7546771E-02  0.1458628E+00
          2   -1    0    0  502    0  0.00000000000E+00  0.00000000000E+00  0.12382298832E+03  0.12382298832E+03  0.00000000000E+00 0.  1.
         -2   -1    0    0    0  501 -0.00000000000E+00 -0.00000000000E+00 -0.22464413780E+02  0.22464413780E+02  0.00000000000E+00 0. -1.
         21    1    1    2  502  503  0.25910568899E+02  0.10852969043E+01  0.11436980788E+03  0.11727313590E+03  0.00000000000E+00 0.  1.
         21    1    1    2  503  501 -0.25910568899E+02 -0.10852969043E+01 -0.13011233338E+02  0.29014266199E+02  0.00000000000E+00 0. -1.
</event>
<event>
 4    1  0.6109945E+002  0.5404058E+02  0.7546771E-02  0.1281544E+00
          2   -1    0    0  503    0  0.00000000000E+00  0.00000000000E+00  0.24553160580E+02  0.24553160580E+02  0.00000000000E+00 0.  1.
         -2   -1    0    0    0  501 -0.00000000000E+00 -0.00000000000E+00 -0.76454192489E+03  0.76454192489E+03  0.00000000000E+00 0. -1.
         21    1    1    2  502  501  0.39199186421E+02  0.37199572719E+02 -0.73255503214E+03  0.73454561434E+03  0.00000000000E+00 0. -1.
         21    1    1    2  503  502 -0.39199186421E+02 -0.37199572719E+02 -0.74337321657E+01  0.54549471129E+02  0.00000000000E+00 0.  1.
</event>
<event>
 4    1  0.6109945E+002  0.2169128E+02  0.7546771E-02  0.1509620E+00
          2   -1    0    0  502    0  0.00000000000E+00  0.00000000000E+00  0.62272604722E+03  0.62272604722E+03  0.00000000000E+00 0.  1.
         -2   -1    0    0    0  501 -0.00000000000E+00 -0.00000000000E+00 -0.10695037837E+01  0.10695037837E+01  0.00000000000E+00 0. -1.
         21    1    1    2  502  503  0.16400048012E+02 -0.14196825615E+02  0.47981088256E+03  0.48030094155E+03  0.00000000000E+00 0.  1.
         21    1    1    2  503  501 -0.16400048012E+02  0.14196825615E+02  0.14184566088E+03  0.14349460945E+03  0.00000000000E+00 0. -1.
</event>
<event>
 4    1  0.6109945E+002  0.2438575E+02  0.7546771E-02  0.1475794E+00
          2   -1    0    0  503    0  0.00000000000E+00  0.00000000000E+00  0.21131677147E+02  0.21131677147E+02  0.00000000000E+00 0. -1.
         -2   -1    0    0    0  501 -0.00000000000E+00 -0.00000000000E+00 -0.39414315416E+02  0.39414315416E+02  0.00000000000E+00 0.  1.
         21    1    1    2  502  501  0.61876064620E+01  0.23587676356E+02 -0.25331648367E+02  0.35161873650E+02  0.00000000000E+00 0.  1.
         21    1    1    2  503  502 -0.61876064620E+01 -0.23587676356E+02  0.70490100969E+01  0.25384118913E+02  0.00000000000E+00 0. -1.
</event>
<event>
 4    1  0.6109945E+002  0.2182976E+02  0.7546771E-02  0.1507740E+00
          2   -1    0    0  503    0  0.00000000000E+00  0.00000000000E+00  0.32870179532E+02  0.32870179532E+02  0.00000000000E+00 0. -1.
         -2   -1    0    0    0  501 -0.00000000000E+00 -0.00000000000E+00 -0.14961276484E+02  0.14961276484E+02  0.00000000000E+00 0.  1.
         21    1    1    2  502  501 -0.11975604451E+02 -0.18251669703E+02  0.47441889656E+01  0.22339334767E+02  0.00000000000E+00 0.  1.
         21    1    1    2  503  502  0.11975604451E+02  0.18251669703E+02  0.13164714082E+02  0.25492121249E+02  0.00000000000E+00 0. -1.
</event>
<event>
 4    1  0.6109945E+002  0.3590982E+02  0.7546771E-02  0.1374277E+00
          2   -1    0    0  503    0  0.00000000000E+00  0.00000000000E+00  0.17649319630E+04  0.17649319630E+04  0.00000000000E+00 0.  1.
         -2   -1    0    0    0  501 -0.00000000000E+00 -0.00000000000E+00 -0.14073998283E+01  0.14073998283E+01  0.00000000000E+00 0. -1.
         21    1    1    2  502  501 -0.24748281309E+02 -0.26019948191E+02  0.26933380886E+03  0.27171716127E+03  0.00000000000E+00 0. -1.
         21    1    1    2  503  502  0.24748281309E+02  0.26019948191E+02  0.14941907543E+04  0.14946222016E+04  0.00000000000E+00 0.  1.
</event>
<event>
 4    1  0.6109945E+002  0.2831781E+02  0.7546771E-02  0.1434801E+00
          2   -1    0    0  502    0  0.00000000000E+00  0.00000000000E+00  0.22284963361E+03  0.22284963361E+03  0.00000000000E+00 0. -1.
         -2   -1    0    0    0  501 -0.00000000000E+00 -0.00000000000E+00 -0.71244785675E+01  0.71244785675E+01  0.00000000000E+00 0.  1.
         21    1    1    2  502  503 -0.14761150497E+02 -0.24166229387E+02  0.18875716923E+03  0.19086950291E+03  0.00000000000E+00 0. -1.
         21    1    1    2  503  501  0.14761150497E+02  0.24166229387E+02  0.26967985806E+02  0.39104609258E+02  0.00000000000E+00 0.  1.
</event>
<event>
 4    1  0.6109945E+002  0.2318382E+02  0.7546771E-02  0.1490203E+00
          2   -1    0    0  502    0  0.00000000000E+00  0.00000000000E+00  0.20613640356E+02  0.20613640356E+02  0.00000000000E+00 0. -1.
         -2   -1    0    0    0  501 -0.00000000000E+00 -0.00000000000E+00 -0.42966546817E+02  0.42966546817E+02  0.00000000000E+00 0.  1.
         21    1    1    2  502  503 -0.26799421906E+01  0.23028407734E+02  0.87563400774E+01  0.24782315156E+02  0.00000000000E+00 0. -1.
         21    1    1    2  503  501  0.26799421906E+01 -0.23028407734E+02 -0.31109246538E+02  0.38797872017E+02  0.00000000000E+00 0.  1.
</event>
<event>
 4    1  0.6109945E+002  0.2862428E+02  0.7546771E-02  0.1431940E+00
          2   -1    0    0  502    0  0.00000000000E+00  0.00000000000E+00  0.18391539650E+03  0.18391539650E+03  0.00000000000E+00 0.  1.
         -2   -1    0    0    0  501 -0.00000000000E+00 -0.00000000000E+00 -0.26872169806E+02  0.26872169806E+02  0.00000000000E+00 0. -1.
         21    1    1    2  502  503  0.10565041563E+02 -0.26603180935E+02  0.17478334902E+03  0.17711173997E+03  0.00000000000E+00 0.  1.
         21    1    1    2  503  501 -0.10565041563E+02  0.26603180935E+02 -0.17740122330E+02  0.33675826335E+02  0.00000000000E+00 0. -1.
</event>
<event>
 4    1  0.6109945E+002  0.3790452E+02  0.7546771E-02  0.1361223E+00
          2   -1    0    0  502    0  0.00000000000E+00  0.00000000000E+00  0.20152830925E+03  0.20152830925E+03  0.00000000000E+00 0. -1.
         -2   -1    0    0    0  501 -0.00000000000E+00 -0.00000000000E+00 -0.92383945624E+01  0.92383945624E+01  0.00000000000E+00 0.  1.
         21    1    1    2  502  503  0.25954661827E+02 -0.27624413815E+02  0.14649772504E+03  0.15132196189E+03  0.00000000000E+00 0. -1.
         21    1    1    2  503  501 -0.25954661827E+02  0.27624413815E+02  0.45792189648E+02  0.59444741920E+02  0.00000000000E+00 0.  1.
</event>
<event>
 4    1  0.6109945E+002  0.2239743E+02  0.7546771E-02  0.1500206E+00
          2   -1    0    0  502    0  0.00000000000E+00  0.00000000000E+00  0.34895804153E+03  0.34895804153E+03  0.00000000000E+00 0.  1.
         -2   -1    0    0    0  501 -0.00000000000E+00 -0.00000000000E+00 -0.48432905082E+01  0.48432905082E+01  0.00000000000E+00 0. -1.
         21    1    1    2  502  503 -0.16286983191E+02 -0.15374624701E+02  0.32039965071E+03  0.32118153914E+03  0.00000000000E+00 0.  1.
         21    1    1    2  503  501  0.16286983191E+02  0.15374624701E+02  0.23715100309E+02  0.32619792900E+02  0.00000000000E+00 0. -1.
</event>
<event>
 4    1  0.6109945E+002  0.2596965E+02  0.7546771E-02  0.1458242E+00
          2   -1    0    0  503    0  0.00000000000E+00  0.00000000000E+00  0.16066886210E+04  0.16066886210E+04  0.00000000000E+00 0. -1.
         -2   -1    0    0    0  501 -0.00000000000E+00 -0.00000000000E+00 -0.87240325257E+00  0.87240325257E+00  0.00000000000E+00 0.  1.
         21    1    1    2  502  501  0.13239330102E+02 -0.22341500745E+02  0.22393660653E+03  0.22543741096E+03  0.00000000000E+00 0.  1.
         21    1    1    2  503  502 -0.13239330102E+02  0.22341500745E+02  0.13818796112E+04  0.13821236133E+04  0.00000000000E+00 0. -1.
</event>
<event>
 4    1  0.6109945E+002  0.2458472E+02  0.7546771E-02  0.1473503E+00
          2   -1    0    0  502    0  0.00000000000E+00  0.00000000000E+00  0.94148024457E+02  0.94148024457E+02  0.00000000000E+00 0.  1.
         -2   -1    0    0    0  501 -0.00000000000E+00 -0.00000000000E+00 -0.65314087677E+01  0.65314087677E+01  0.00000000000E+00 0. -1.
         21    1    1    2  502  503  0.14468240654E+02  0.19876583731E+02  0.37226930316E+02  0.44612250662E+02  0.00000000000E+00 0.  1.
         21    1    1    2  503  501 -0.14468240654E+02 -0.19876583731E+02  0.50389685374E+02  0.56067182562E+02  0.00000000000E+00 0. -1.
</event>
<event>
 4    1  0.6109945E+002  0.3017073E+02  0.7546771E-02  0.1418118E+00
          2   -1    0    0  503    0  0.00000000000E+00  0.00000000000E+00  0.12011944254E+03  0.12011944254E+03  0.00000000000E+00 0. -1.
         -2   -1    0    0    0  501 -0.00000000000E+00 -0.00000000000E+00 -0.10765190019E+02  0.10765190019E+02  0.00000000000E+00 0.  1.
         21    1    1    2  502  501 -0.30170465500E+02 -0.12583615515E+00  0.90285113883E+02  0.95192828575E+02  0.00000000000E+00 0. -1.
         21    1    1    2  503  502  0.30170465500E+02  0.12583615515E+00  0.19069138637E+02  0.35691803983E+02  0.00000000000E+00 0.  1.
</event>
<event>
 4    1  0.6109945E+002  0.3039110E+02  0.7546771E-02  0.1416228E+00
          2   -1    0    0  502    0  0.00000000000E+00  0.00000000000E+00  0.22563160002E+03  0.22563160002E+03  0.00000000000E+00 0.  1.
         -2   -1    0    0    0  501 -0.00000000000E+00 -0.00000000000E+00 -0.57146254641E+01  0.57146254641E+01  0.00000000000E+00 0. -1.
         21    1    1    2  502  503 -0.24357022452E+02 -0.18175646602E+02  0.17156822964E+03  0.17423913480E+03  0.00000000000E+00 0.  1.
         21    1    1    2  503  501  0.24357022452E+02  0.18175646602E+02  0.48348744917E+02  0.57107090691E+02  0.00000000000E+00 0. -1.
</event>
<event>
 4    1  0.6109945E+002  0.2869282E+02  0.7546771E-02  0.1431306E+00
          2   -1    0    0  503    0  0.00000000000E+00  0.00000000000E+00  0.60655221504E+01  0.60655221504E+01  0.00000000000E+00 0.  1.
         -2   -1    0    0    0  501 -0.00000000000E+00 -0.00000000000E+00 -0.14266034241E+03  0.14266034241E+03  0.00000000000E+00 0. -1.
         21    1    1    2  502  501 -0.57738391226E+00 -0.28687011749E+02 -0.84686618380E+02  0.89415330609E+02  0.00000000000E+00 0. -1.
         21    1    1    2  503  502  0.57738391226E+00  0.28687011749E+02 -0.51908201881E+02  0.59310533953E+02  0.00000000000E+00 0.  1.
</event>
<event>
 4    1  0.6109945E+002  0.2145581E+02  0.7546771E-02  0.1512856E+00
          2   -1    0    0  502    0  0.00000000000E+00  0.00000000000E+00  0.39449428838E+01  0.39449428838E+01  0.00000000000E+00 0.  1.
         -2   -1    0    0    0  501 -0.00000000000E+00 -0.00000000000E+00 -0.30757906501E+03  0.30757906501E+03  0.00000000000E+00 0. -1.
         21    1    1    2  502  503 -0.20438795748E+02 -0.65274431806E+01 -0.29110182994E+02  0.36162890372E+02  0.00000000000E+00 0.  1.
         21    1    1    2  503  501  0.20438795748E+02  0.65274431806E+01 -0.27452393913E+03  0.27536111752E+03  0.00000000000E+00 0. -1.
</event>
<event>
 4    1  0.6109945E+002  0.4260802E+02  0.7546771E-02  0.1333845E+00
          2   -1    0    0  503    0  0.00000000000E+00  0.00000000000E+00  0.13542307044E+04  0.13542307044E+04  0.00000000000E+00 0. -1.
         -2   -1    0    0    0  501 -0.00000000000E+00 -0.00000000000E+00 -0.20456265856E+01  0.20456265856E+01  0.00000000000E+00 0.  1.
         21    1    1    2  502  501  0.42604469219E+02 -0.55039466196E+00  0.27797034786E+03  0.28121692343E+03  0.00000000000E+00 0.  1.
         21    1    1    2  503  502 -0.42604469219E+02  0.55039466196E+00  0.10742147299E+04  0.10750594075E+04  0.00000000000E+00 0. -1.
</event>
<event>
 4    1  0.6109945E+002  0.2152103E+02  0.7546771E-02  0.1511954E+00
          2   -1    0    0  503    0  0.00000000000E+00  0.00000000000E+00  0.13327872793E+04  0.13327872793E+04  0.00000000000E+00 0.  1.
         -2   -1    0    0    0  501 -0.00000000000E+00 -0.00000000000E+00 -0.14638723383E+01  0.14638723383E+01  0.00000000000E+00 0. -1.
         21    1    1    2  502  501 -0.17004403435E+02  0.13191088047E+02  0.83077208103E+02  0.85819444453E+02  0.00000000000E+00 0. -1.
         21    1    1    2  503  502  0.17004403435E+02 -0.13191088047E+02  0.12482461988E+04  0.12484317072E+04  0.00000000000E+00 0.  1.
</event>
<event>
 4    1  0.6109945E+002  0.2196026E+02  0.7546771E-02  0.1505984E+00
          2   -1    0    0  502    0  0.00000000000E+00  0.00000000000E+00  0.67430395381E+02  0.67430395381E+02  0.00000000000E+00 0.  1.
         -2   -1    0    0    0  501 -0.00000000000E+00 -0.00000000000E+00 -0.10149709729E+02  0.10149709729E+02  0.00000000000E+00 0. -1.
         21    1    1    2  502  503 -0.21950430683E+02 -0.65708288391E+00  0.49721674357E+02  0.54355294737E+02  0.00000000000E+00 0.  1.
         21    1    1    2  503  501  0.21950430683E+02  0.65708288391E+00  0.75590112958E+01  0.23224810373E+02  0.00000000000E+00 0. -1.
</event>
<event>
 4    1  0.6109945E+002  0.2608723E+02  0.7546771E-02  0.1456999E+00
          2   -1    0    0  503    0  0.00000000000E+00  0.00000000000E+00  0.76869051163E+03  0.76869051163E+03  0.00000000000E+00 0.  1.
         -2   -1    0    0    0  501 -0.00000000000E+00 -0.00000000000E+00 -0.32596151466E+01  0.32596151466E+01  0.00000000000E+00 0. -1.
         21    1    1    2  502  501  0.72764251110E+01 -0.25051885605E+02  0.53300963080E+02  0.59342531122E+02  0.00000000000E+00 0. -1.
         21    1    1    2  503  502 -0.72764251110E+01  0.25051885605E+02  0.71212993341E+03  0.71260759566E+03  0.00000000000E+00 0.  1.
</event>
<event>
 4    1  0.6109945E+002  0.2316796E+02  0.7546771E-02  0.1490400E+00
          2   -1    0    0  502    0  0.00000000000E+00  0.00000000000E+00  0.13962296490E+04  0.13962296490E+04  0.00000000000E+00 0. -1.
         -2   -1    0    0    0  501 -0.00000000000E+00 -0.00000000000E+00 -0.13290693737E+01  0.13290693737E+01  0.00000000000E+00 0.  1.
         21    1    1    2  502  503  0.23080788227E+02  0.20078914092E+01  0.12865637697E+04  0.12867723528E+04  0.00000000000E+00 0. -1.
         21    1    1    2  503  501 -0.23080788227E+02 -0.20078914092E+01  0.10833680992E+03  0.11078636557E+03  0.00000000000E+00 0.  1.
</event>
<event>
 4    1  0.6109945E+002  0.2097756E+02  0.7546771E-02  0.1519585E+00
          2   -1    0    0  503    0  0.00000000000E+00  0.00000000000E+00  0.23022075081E+01  0.23022075081E+01  0.00000000000E+00 0. -1.
         -2   -1    0    0    0  501 -0.00000000000E+00 -0.00000000000E+00 -0.19374970387E+03  0.19374970387E+03  0.00000000000E+00 0.  1.
         21    1    1    2  502  501  0.15715446642E+02 -0.13895425150E+02 -0.84360466109E+02  0.86929548172E+02  0.00000000000E+00 0.  1.
         21    1    1    2  503  502 -0.15715446642E+02  0.13895425150E+02 -0.10708703025E+03  0.10912236320E+03  0.00000000000E+00 0. -1.
</event>
<event>
 4    1  0.6109945E+002  0.3532346E+02  0.7546771E-02  0.1378303E+00
          2   -1    0    0  503    0  0.00000000000E+00  0.00000000000E+00  0.13388862665E+04  0.13388862665E+04  0.00000000000E+00 0. -1.
         -2   -1    0    0    0  501 -0.00000000000E+00 -0.00000000000E+00 -0.93617505484E+00  0.93617505484E+00  0.00000000000E+00 0.  1.
         21    1    1    2  502  501  0.34842394932E+02 -0.58098609855E+01  0.62385906718E+03  0.62485829007E+03  0.00000000000E+00 0.  1.
         21    1    1    2  503  502 -0.34842394932E+02  0.58098609855E+01  0.71409102425E+03  0.71496415147E+03  0.00000000000E+00 0. -1.
</event>
<event>
 4    1  0.6109945E+002  0.4396640E+02  0.7546771E-02  0.1326689E+00
          2   -1    0    0  502    0  0.00000000000E+00  0.00000000000E+00  0.88269519426E+02  0.88269519426E+02  0.00000000000E+00 0. -1.
         -2   -1    0    0    0  501 -0.00000000000E+00 -0.00000000000E+00 -0.22686237201E+02  0.22686237201E+02  0.00000000000E+00 0.  1.
         21    1    1    2  502  503  0.26200738635E+02 -0.35306732966E+02  0.43123964346E+02  0.61585066361E+02  0.00000000000E+00 0. -1.
         21    1    1    2  503  501 -0.26200738635E+02  0.35306732966E+02  0.22459317879E+02  0.49370690266E+02  0.00000000000E+00 0.  1.
</event>
<event>
 4    1  0.6109945E+002  0.2250655E+02  0.7546771E-02  0.1498789E+00
          2   -1    0    0  502    0  0.00000000000E+00  0.00000000000E+00  0.22691012579E+03  0.22691012579E+03  0.00000000000E+00 0. -1.
         -2   -1    0    0    0  501 -0.00000000000E+00 -0.00000000000E+00 -0.50740418896E+01  0.50740418896E+01  0.00000000000E+00 0.  1.
         21    1    1    2  502  503 -0.54949713919E+01 -0.21825450764E+02  0.24114173084E+02  0.32985426406E+02  0.00000000000E+00 0.  1.
         21    1    1    2  503  501  0.54949713919E+01  0.21825450764E+02  0.19772191082E+03  0.19899874128E+03  0.00000000000E+00 0. -1.
</event>
<event>
 4    1  0.6109945E+002  0.4314314E+02  0.7546771E-02  0.1330990E+00
          2   -1    0    0  503    0  0.00000000000E+00  0.00000000000E+00  0.18565455390E+04  0.18565455390E+04  0.00000000000E+00 0.  1.
         -2   -1    0    0    0  501 -0.00000000000E+00 -0.00000000000E+00 -0.25385253316E+01  0.25385253316E+01  0.00000000000E+00 0. -1.
         21    1    1    2  502  501  0.26483525668E+02 -0.34058082396E+02  0.20395644462E+03  0.20846956950E+03  0.00000000000E+00 0. -1.
         21    1    1    2  503  502 -0.26483525668E+02  0.34058082396E+02  0.16500505690E+04  0.16506144948E+04  0.00000000000E+00 0.  1.
</event>
<event>
 4    1  0.6109945E+002  0.3891454E+02  0.7546771E-02  0.1354967E+00
          2   -1    0    0  502    0  0.00000000000E+00  0.00000000000E+00  0.30947344677E+04  0.30947344677E+04  0.00000000000E+00 0. -1.
         -2   -1    0    0    0  501 -0.00000000000E+00 -0.00000000000E+00 -0.17846490957E+01  0.17846490957E+01  0.00000000000E+00 0.  1.
         21    1    1    2  502  503  0.18267193793E+02 -0.34360598821E+02  0.28655090077E+04  0.28657732315E+04  0.00000000000E+00 0. -1.
         21    1    1    2  503  501 -0.18267193793E+02  0.34360598821E+02  0.22744081093E+03  0.23074588533E+03  0.00000000000E+00 0.  1.
</event>
<event>
 4    1  0.6109945E+002  0.2143747E+02  0.7546771E-02  0.1513110E+00
          2   -1    0    0  502    0  0.00000000000E+00  0.00000000000E+00  0.44386011858E+01  0.44386011858E+01  0.00000000000E+00 0.  1.
         -2   -1    0    0    0  501 -0.00000000000E+00 -0.00000000000E+00 -0.14033466990E+03  0.14033466990E+03  0.00000000000E+00 0. -1.
         21    1    1    2  502  503 -0.20637096538E+02  0.58030642702E+01 -0.30881816434E+02  0.37593242673E+02  0.00000000000E+00 0.  1.
         21    1    1    2  503  501  0.20637096538E+02 -0.58030642702E+01 -0.10501425228E+03  0.10718002842E+03  0.00000000000E+00 0. -1.
</event>
<event>
 4    1  0.6109945E+002  0.3007005E+02  0.7546771E-02  0.1418989E+00
          2   -1    0    0  503    0  0.00000000000E+00  0.00000000000E+00  0.19031769798E+02  0.19031769798E+02  0.00000000000E+00 0. -1.
         -2   -1    0    0    0  501 -0.00000000000E+00 -0.00000000000E+00 -0.53552821711E+02  0.53552821711E+02  0.00000000000E+00 0.  1.
         21    1    1    2  502  501  0.83542041228E+01 -0.28886248752E+02 -0.29451171543E+02  0.42090136596E+02  0.00000000000E+00 0.  1.
         21    1    1    2  503  502 -0.83542041228E+01  0.28886248752E+02 -0.50698803700E+01  0.30494454913E+02  0.00000000000E+00 0. -1.
</event>
<event>
 4    1  0.6109945E+002  0.2178319E+02  0.7546771E-02  0.1508370E+00
          2   -1    0    0  502    0  0.00000000000E+00  0.00000000000E+00  0.42519870563E+03  0.42519870563E+03  0.00000000000E+00 0.  1.
         -2   -1    0    0    0  501 -0.00000000000E+00 -0.00000000000E+00 -0.13584806481E+01  0.13584806481E+01  0.00000000000E+00 0. -1.
         21    1    1    2  502  503 -0.15798103631E+02  0.14997573832E+02  0.30203354361E+03  0.30281804564E+03  0.00000000000E+00 0.  1.
         21    1    1    2  503  501  0.15798103631E+02 -0.14997573832E+02  0.12180668137E+03  0.12373914063E+03  0.00000000000E+00 0. -1.
</event>
<event>
 4    1  0.6109945E+002  0.3015309E+02  0.7546771E-02  0.1418271E+00
          2   -1    0    0  502    0  0.00000000000E+00  0.00000000000E+00  0.80189345054E+01  0.80189345054E+01  0.00000000000E+00 0.  1.
         -2   -1    0    0    0  501 -0.00000000000E+00 -0.00000000000E+00 -0.13535865861E+03  0.13535865861E+03  0.00000000000E+00 0. -1.
         21    1    1    2  502  503  0.25059723876E+02 -0.16769580426E+02 -0.34784221217E+02  0.46034233284E+02  0.00000000000E+00 0.  1.
         21    1    1    2  503  501 -0.25059723876E+02  0.16769580426E+02 -0.92555502892E+02  0.97343359836E+02  0.00000000000E+00 0. -1.
</event>
<event>
 4    1  0.6109945E+002  0.3043291E+02  0.7546771E-02  0.1415871E+00
          2   -1    0    0  503    0  0.00000000000E+00  0.00000000000E+00  0.39842104366E+03  0.39842104366E+03  0.00000000000E+00 0. -1.
         -2   -1    0    0    0  501 -0.00000000000E+00 -0.00000000000E+00 -0.24600519536E+01  0.24600519536E+01  0.00000000000E+00 0.  1.
         21    1    1    2  502  501  0.26639348783E+02  0.14714179112E+02  0.15094382173E+03  0.15398116537E+03  0.00000000000E+00 0. -1.
         21    1    1    2  503  502 -0.26639348783E+02 -0.14714179112E+02  0.24501716998E+03  0.24689993025E+03  0.00000000000E+00 0.  1.
</event>
<event>
 4    1  0.6109945E+002  0.2793571E+02  0.7546771E-02  0.1438429E+00
          2   -1    0    0  503    0  0.00000000000E+00  0.00000000000E+00  0.10306508608E+04  0.10306508608E+04  0.00000000000E+00 0. -1.
         -2   -1    0    0    0  501 -0.00000000000E+00 -0.00000000000E+00 -0.17997841075E+01  0.17997841075E+01  0.00000000000E+00 0.  1.
         21    1    1    2  502  501  0.17341509108E+02 -0.21901504700E+02  0.12152225715E+03  0.12469187154E+03  0.00000000000E+00 0.  1.
         21    1    1    2  503  502 -0.17341509108E+02  0.21901504700E+02  0.90732881950E+03  0.90775877333E+03  0.00000000000E+00 0. -1.
</event>
<event>
 4    1  0.6109945E+002  0.2515434E+02  0.7546771E-02  0.1467084E+00
          2   -1    0    0  503    0  0.00000000000E+00  0.00000000000E+00  0.23879030987E+01  0.23879030987E+01  0.00000000000E+00 0.  1.
         -2   -1    0    0    0  501 -0.00000000000E+00 -0.00000000000E+00 -0.27912085011E+03  0.27912085011E+03  0.00000000000E+00 0. -1.
         21    1    1    2  502  501  0.24508033464E+02 -0.56654438299E+01 -0.17005044173E+03  0.17190082516E+03  0.00000000000E+00 0. -1.
         21    1    1    2  503  502 -0.24508033464E+02  0.56654438299E+01 -0.10668250528E+03  0.10960792805E+03  0.00000000000E+00 0.  1.
</event>
<event>
 4    1  0.6109945E+002  0.2325467E+02  0.7546771E-02  0.1489325E+00
          2   -1    0    0  503    0  0.00000000000E+00  0.00000000000E+00  0.52726934899E+03  0.52726934899E+03  0.00000000000E+00 0.  1.
         -2   -1    0    0    0  501 -0.00000000000E+00 -0.00000000000E+00 -0.28440862029E+01  0.28440862029E+01  0.00000000000E+00 0. -1.
         21    1    1    2  502  501  0.23124486721E+02 -0.24572346963E+01  0.50269364323E+02  0.55387623869E+02  0.00000000000E+00 0. -1.
         21    1    1    2  503  502 -0.23124486721E+02  0.24572346963E+01  0.47415589846E+03  0.47472581132E+03  0.00000000000E+00 0.  1.
</event>
<event>
 4    1  0.6109945E+002  0.2575528E+02  0.7546771E-02  0.1460529E+00
          2   -1    0    0  503    0  0.00000000000E+00  0.00000000000E+00  0.13290131474E+03  0.13290131474E+03  0.00000000000E+00 0. -1.
         -2   -1    0    0    0  501 -0.00000000000E+00 -0.00000000000E+00 -0.65677831512E+01  0.65677831512E+01  0.00000000000E+00 0.  1.
         21    1    1    2  502  501 -0.23950388156E+02  0.94717018270E+01  0.29000308436E+02  0.38785978364E+02  0.00000000000E+00 0.  1.
         21    1    1    2  503  502  0.23950388156E+02 -0.94717018270E+01  0.97333223153E+02  0.10068311953E+03  0.00000000000E+00 0. -1.
</event>
<event>
 4    1  0.6109945E+002  0.2311155E+02  0.7546771E-02  0.1491102E+00
          2   -1    0    0  502    0  0.00000000000E+00  0.00000000000E+00  0.20894102474E+03  0.20894102474E+03  0.00000000000E+00 0. -1.
         -2   -1    0    0    0  501 -0.00000000000E+00 -0.00000000000E+00 -0.12192053283E+02  0.12192053283E+02  0.00000000000E+00 0.  1.
         21    1    1    2  502  503 -0.11956478802E+02 -0.19778430074E+02  0.19666806125E+03  0.19802138773E+03  0.00000000000E+00 0. -1.
         21    1    1    2  503  501  0.11956478802E+02  0.19778430074E+02  0.80910199812E-01  0.23111690289E+02  0.00000000000E+00 0.  1.
</event>
<event>
 4    1  0.6109945E+002  0.2271961E+02  0.7546771E-02  0.1496049E+00
          2   -1    0    0  502    0  0.00000000000E+00  0.00000000000E+00  0.17653232887E+02  0.17653232887E+02  0.00000000000E+00 0. -1.
         -2   -1    0    0    0  501 -0.00000000000E+00 -0.00000000000E+00 -0.30102754206E+02  0.30102754206E+02  0.00000000000E+00 0.  1.
         21    1    1    2  502  503  0.13542017359E+02 -0.18242656503E+02 -0.21823995356E+01  0.22824189321E+02  0.00000000000E+00 0. -1.
         21    1    1    2  503  501 -0.13542017359E+02  0.18242656503E+02 -0.10267121783E+02  0.24931797772E+02  0.00000000000E+00 0.  1.
</event>
<event>
 4    1  0.6109945E+002  0.4197930E+02  0.7546771E-02  0.1337262E+00
          2   -1    0    0  502    0  0.00000000000E+00  0.00000000000E+00  0.25791281179E+02  0.25791281179E+02  0.00000000000E+00 0. -1.
         -2   -1    0    0    0  501 -0.00000000000E+00 -0.00000000000E+00 -0.20297183530E+03  0.20297183530E+03  0.00000000000E+00 0.  1.
         21    1    1    2  502  503  0.29421852748E+02 -0.29943550235E+02  0.45701930730E+01  0.42227340486E+02  0.00000000000E+00 0. -1.
         21    1    1    2  503  501 -0.29421852748E+02  0.29943550235E+02 -0.18175074720E+03  0.18653577600E+03  0.00000000000E+00 0.  1.
</event>
<event>
 4    1  0.6109945E+002  0.3638637E+02  0.7546771E-02  0.1371070E+00
          2   -1    0    0  503    0  0.00000000000E+00  0.00000000000E+00  0.10612642248E+03  0.10612642248E+03  0.00000000000E+00 0.  1.
         -2   -1    0    0    0  501 -0.00000000000E+00 -0.00000000000E+00 -0.14596201896E+02  0.14596201896E+02  0.00000000000E+00 0. -1.
         21    1    1    2  502  501  0.32889010449E+02  0.15565383456E+02  0.22756512937E+02  0.42916512574E+02  0.00000000000E+00 0.  1.
         21    1    1    2  503  502 -0.32889010449E+02 -0.15565383456E+02  0.68773707651E+02  0.77806111807E+02  0.00000000000E+00 0. -1.
</event>
<event>
 4    1  0.6109945E+002  0.4132910E+02  0.7546771E-02  0.1340869E+00
          2   -1    0    0  503    0  0.00000000000E+00  0.00000000000E+00  0.27512328035E+02  0.27512328035E+02  0.00000000000E+00 0. -1.
         -2   -1    0    0    0  501 -0.00000000000E+00 -0.00000000000E+00 -0.67500717407E+02  0.67500717407E+02  0.00000000000E+00 0.  1.
         21    1    1    2  502  501 -0.27708965052E+02  0.30664434636E+02 -0.33450925500E+02  0.53170092275E+02  0.00000000000E+00 0.  1.
         21    1    1    2  503  502  0.27708965052E+02 -0.30664434636E+02 -0.65374638723E+01  0.41842953166E+02  0.00000000000E+00 0. -1.
</event>
<event>
 4    1  0.6109945E+002  0.3104195E+02  0.7546771E-02  0.1410753E+00
          2   -1    0    0  503    0  0.00000000000E+00  0.00000000000E+00  0.28234432042E+03  0.28234432042E+03  0.00000000000E+00 0. -1.
         -2   -1    0    0    0  501 -0.00000000000E+00 -0.00000000000E+00 -0.51466228648E+01  0.51466228648E+01  0.00000000000E+00 0.  1.
         21    1    1    2  502  501 -0.67873108195E+01 -0.30290840739E+02  0.55167855955E+02  0.63301618869E+02  0.00000000000E+00 0.  1.
         21    1    1    2  503  502  0.67873108195E+01  0.30290840739E+02  0.22202984160E+03  0.22418932442E+03  0.00000000000E+00 0. -1.
</event>
<event>
 4    1  0.6109945E+002  0.3137475E+02  0.7546771E-02  0.1408015E+00
          2   -1    0    0  502    0  0.00000000000E+00  0.00000000000E+00  0.53780740305E+01  0.53780740305E+01  0.00000000000E+00 0.  1.
         -2   -1    0    0    0  501 -0.00000000000E+00 -0.00000000000E+00 -0.29116026613E+03  0.29116026613E+03  0.00000000000E+00 0. -1.
         21    1    1    2  502  503 -0.31324949603E+02  0.17669645254E+01 -0.52536795861E+02  0.61192234398E+02  0.00000000000E+00 0.  1.
         21    1    1    2  503  501  0.31324949603E+02 -0.17669645254E+01 -0.23324539624E+03  0.23534610576E+03  0.00000000000E+00 0. -1.
</event>
<event>
 4    1  0.6109945E+002  0.2039546E+02  0.7546771E-02  0.1528074E+00
          2   -1    0    0  502    0  0.00000000000E+00  0.00000000000E+00  0.59859773721E+03  0.59859773721E+03  0.00000000000E+00 0.  1.
         -2   -1    0    0    0  501 -0.00000000000E+00 -0.00000000000E+00 -0.37562096088E+01  0.37562096088E+01  0.00000000000E+00 0. -1.
         21    1    1    2  502  503  0.20080212664E+02  0.35720952408E+01  0.56931461591E+03  0.56967982823E+03  0.00000000000E+00 0.  1.
         21    1    1    2  503  501 -0.20080212664E+02 -0.35720952408E+01  0.25526911695E+02  0.32674118591E+02  0.00000000000E+00 0. -1.
</event>
<event>
 4    1  0.6109945E+002  0.4297295E+02  0.7546771E-02  0.1331893E+00
          2   -1    0    0  502    0  0.00000000000E+00  0.00000000000E+00  0.25048438578E+02  0.25048438578E+02  0.00000000000E+00 0.  1.
         -2   -1    0    0    0  501 -0.00000000000E+00 -0.00000000000E+00 -0.76375962076E+02  0.76375962076E+02  0.00000000000E+00 0. -1.
         21    1    1    2  502  503 -0.33610391917E+02  0.26777149973E+02 -0.16214289290E+02  0.45930135887E+02  0.00000000000E+00 0.  1.
         21    1    1    2  503  501  0.33610391917E+02 -0.26777149973E+02 -0.35113234209E+02  0.55494264767E+02  0.00000000000E+00 0. -1.
</event>
<event>
 4    1  0.6109945E+002  0.2297018E+02  0.7546771E-02  0.1492873E+00
          2   -1    0    0  503    0  0.00000000000E+00  0.00000000000E+00  0.14826185030E+03  0.14826185030E+03  0.00000000000E+00 0.  1.
         -2   -1    0    0    0  501 -0.00000000000E+00 -0.00000000000E+00 -0.92104819780E+01  0.92104819780E+01  0.00000000000E+00 0. -1.
         21    1    1    2  502  501  0.88342177720E+01  0.21203441362E+02  0.78486865221E+01  0.24274085140E+02  0.00000000000E+00 0. -1.
         21    1    1    2  503  502 -0.88342177720E+01 -0.21203441362E+02  0.13120268180E+03  0.13319824714E+03  0.00000000000E+00 0.  1.
</event>
<event>
 4    1  0.6109945E+002  0.2759380E+02  0.7546771E-02  0.1441733E+00
          2   -1    0    0  503    0  0.00000000000E+00  0.00000000000E+00  0.98390560490E+02  0.98390560490E+02  0.00000000000E+00 0. -1.
         -2   -1    0    0    0  501 -0.00000000000E+00 -0.00000000000E+00 -0.78273285368E+01  0.78273285368E+01  0.00000000000E+00 0.  1.
         21    1    1    2  502  501  0.26181067261E+02 -0.87160485887E+01  0.39631217816E+02  0.48291316109E+02  0.00000000000E+00 0. -1.
         21    1    1    2  503  502 -0.26181067261E+02  0.87160485887E+01  0.50932014137E+02  0.57926572918E+02  0.00000000000E+00 0.  1.
</event>
<event>
 4    1  0.6109945E+002  0.2113556E+02  0.7546771E-02  0.1517338E+00
          2   -1    0    0  503    0  0.00000000000E+00  0.00000000000E+00  0.30959407733E+03  0.30959407733E+03  0.00000000000E+00 0.  1.
         -2   -1    0    0    0  501 -0.00000000000E+00 -0.00000000000E+00 -0.16501099984E+01  0.16501099984E+01  0.00000000000E+00 0. -1.
         21    1    1    2  502  501  0.14754074896E+02 -0.15133713384E+02  0.98824650287E+02  0.10105950480E+03  0.00000000000E+00 0. -1.
         21    1    1    2  503  502 -0.14754074896E+02  0.15133713384E+02  0.20911931704E+03  0.21018468252E+03  0.00000000000E+00 0.  1.
</event>
<event>
 4    1  0.6109945E+002  0.2600165E+02  0.7546771E-02  0.1457903E+00
          2   -1    0    0  503    0  0.00000000000E+00  0.00000000000E+00  0.51954618664E+01  0.51954618664E+01  0.00000000000E+00 0. -1.
         -2   -1    0    0    0  501 -0.00000000000E+00 -0.00000000000E+00 -0.56850493439E+03  0.56850493439E+03  0.00000000000E+00 0.  1.
         21    1    1    2  502  501  0.11436803359E+01  0.25976483951E+02 -0.53354470127E+03  0.53417790480E+03  0.00000000000E+00 0.  1.
         21    1    1    2  503  502 -0.11436803359E+01 -0.25976483951E+02 -0.29764771255E+02  0.39522491458E+02  0.00000000000E+00 0. -1.
</event>
<event>
 4    1  0.6109945E+002  0.2053405E+02  0.7546771E-02  0.1526023E+00
          2   -1    0    0  502    0  0.00000000000E+00  0.00000000000E+00  0.11022520885E+02  0.11022520885E+02  0.00000000000E+00 0.  1.
         -2   -1    0    0    0  501 -0.00000000000E+00 -0.00000000000E+00 -0.16518508408E+03  0.16518508408E+03  0.00000000000E+00 0. -1.
         21    1    1    2  502  503 -0.66070010727E+01 -0.19442082003E+02  0.15023297494E+00  0.20534594851E+02  0.00000000000E+00 0.  1.
         21    1    1    2  503  501  0.66070010727E+01  0.19442082003E+02 -0.15431279617E+03  0.15567301011E+03  0.00000000000E+00 0. -1.
</event>
<event>
 4    1  0.6109945E+002  0.2773813E+02  0.7546771E-02  0.1440331E+00
          2   -1    0    0  502    0  0.00000000000E+00  0.00000000000E+00  0.23630796237E+03  0.23630796237E+03  0.00000000000E+00 0.  1.
         -2   -1    0    0    0  501 -0.00000000000E+00 -0.00000000000E+00 -0.13107965713E+02  0.13107965713E+02  0.00000000000E+00 0. -1.
         21    1    1    2  502  503 -0.18002397058E+01 -0.27679645358E+02  0.21971585517E+03  0.22145983980E+03  0.00000000000E+00 0.  1.
         21    1    1    2  503  501  0.18002397058E+01  0.27679645358E+02  0.34841414837E+01  0.27956088282E+02  0.00000000000E+00 0. -1.
</event>
<event>
 4    1  0.6109945E+002  0.3083708E+02  0.7546771E-02  0.1412459E+00
          2   -1    0    0  502    0  0.00000000000E+00  0.00000000000E+00  0.23690845950E+04  0.23690845950E+04  0.00000000000E+00 0.  1.
         -2   -1    0    0    0  501 -0.00000000000E+00 -0.00000000000E+00 -0.97614700935E+00  0.97614700935E+00  0.00000000000E+00 0. -1.
         21    1    1    2  502  503 -0.27963395324E+02  0.12999010871E+02  0.20933688595E+04  0.20935959752E+04  0.00000000000E+00 0.  1.
         21    1    1    2  503  501  0.27963395324E+02 -0.12999010871E+02  0.27473958848E+03  0.27646476672E+03  0.00000000000E+00 0. -1.
</event>
<event>
 4    1  0.6109945E+002  0.2629094E+02  0.7546771E-02  0.1454864E+00
          2   -1    0    0  502    0  0.00000000000E+00  0.00000000000E+00  0.18439516812E+03  0.18439516812E+03  0.00000000000E+00 0. -1.
         -2   -1    0    0    0  501 -0.00000000000E+00 -0.00000000000E+00 -0.18283228960E+02  0.18283228960E+02  0.00000000000E+00 0.  1.
         21    1    1    2  502  503  0.26246150493E+02 -0.15339540640E+01  0.17341130976E+03  0.17539297530E+03  0.00000000000E+00 0. -1.
         21    1    1    2  503  501 -0.26246150493E+02  0.15339540640E+01 -0.72993705998E+01  0.27285421784E+02  0.00000000000E+00 0.  1.
</event>
<event>
 4    1  0.6109945E+002  0.2603046E+02  0.7546771E-02  0.1457598E+00
          2   -1    0    0  502    0  0.00000000000E+00  0.00000000000E+00  0.33544211548E+03  0.33544211548E+03  0.00000000000E+00 0. -1.
         -2   -1    0    0    0  501 -0.00000000000E+00 -0.00000000000E+00 -0.23316208917E+01  0.23316208917E+01  0.00000000000E+00 0.  1.
         21    1    1    2  502  503  0.23366813062E+02 -0.11470698113E+02  0.10481089473E+03  0.10799494674E+03  0.00000000000E+00 0. -1.
         21    1    1    2  503  501 -0.23366813062E+02  0.11470698113E+02  0.22829959986E+03  0.22977878963E+03  0.00000000000E+00 0.  1.
</event>
<event>
 4    1  0.6109945E+002  0.3143689E+02  0.7546771E-02  0.1407508E+00
          2   -1    0    0  502    0  0.00000000000E+00  0.00000000000E+00  0.19888134636E+02  0.19888134636E+02  0.00000000000E+00 0.  1.
         -2   -1    0    0    0  501 -0.00000000000E+00 -0.00000000000E+00 -0.10149395311E+03  0.10149395311E+03  0.00000000000E+00 0. -1.
         21    1    1    2  502  503  0.26939269951E+01 -0.31321251510E+02  0.25559905672E+01  0.31540626605E+02  0.00000000000E+00 0.  1.
         21    1    1    2  503  501 -0.26939269951E+01  0.31321251510E+02 -0.84161809043E+02  0.89841461142E+02  0.00000000000E+00 0. -1.
</event>
<event>
 4    1  0.6109945E+002  0.4191665E+02  0.7546771E-02  0.1337606E+00
          2   -1    0    0  502    0  0.00000000000E+00  0.00000000000E+00  0.70273181653E+01  0.70273181653E+01  0.00000000000E+00 0.  1.
         -2   -1    0    0    0  501 -0.00000000000E+00 -0.00000000000E+00 -0.93389565543E+03  0.93389565543E+03  0.00000000000E+00 0. -1.
         21    1    1    2  502  503  0.32638340973E+01  0.41789386173E+02 -0.60845195696E+02  0.73886015247E+02  0.00000000000E+00 0.  1.
         21    1    1    2  503  501 -0.32638340973E+01 -0.41789386173E+02 -0.86602314157E+03  0.86703695835E+03  0.00000000000E+00 0. -1.
</event>
<event>
 4    1  0.6109945E+002  0.2110291E+02  0.7546771E-02  0.1517800E+00
          2   -1    0    0  503    0  0.00000000000E+00  0.00000000000E+00  0.25872161015E+02  0.25872161015E+02  0.00000000000E+00 0. -1.
         -2   -1    0    0    0  501 -0.00000000000E+00 -0.00000000000E+00 -0.17245747011E+02  0.17245747011E+02  0.00000000000E+00 0.  1.
         21    1    1    2  502  501 -0.16885153892E+02  0.12657982498E+02  0.52551818502E+01  0.21747410861E+02  0.00000000000E+00 0. -1.
         21    1    1    2  503  502  0.16885153892E+02 -0.12657982498E+02  0.33712321536E+01  0.21370497165E+02  0.00000000000E+00 0.  1.
</event>
<event>
 4    1  0.6109945E+002  0.3931907E+02  0.7546771E-02  0.1352523E+00
          2   -1    0    0  502    0  0.00000000000E+00  0.00000000000E+00  0.12957551483E+02  0.12957551483E+02  0.00000000000E+00 0.  1.
         -2   -1    0    0    0  501 -0.00000000000E+00 -0.00000000000E+00 -0.19468468533E+03  0.19468468533E+03  0.00000000000E+00 0. -1.
         21    1    1    2  502  503  0.34240035734E+02  0.19328976562E+02 -0.26264350938E+02  0.47284305136E+02  0.00000000000E+00 0.  1.
         21    1    1    2  503  501 -0.34240035734E+02 -0.19328976562E+02 -0.15546278291E+03  0.16035793168E+03  0.00000000000E+00 0. -1.
</event>
<event>
 4    1  0.6109945E+002  0.2703197E+02  0.7546771E-02  0.1447287E+00
          2   -1    0    0  503    0  0.00000000000E+00  0.00000000000E+00  0.14761220482E+03  0.14761220482E+03  0.00000000000E+00 0. -1.
         -2   -1    0    0    0  501 -0.00000000000E+00 -0.00000000000E+00 -0.27748132244E+02  0.27748132244E+02  0.00000000000E+00 0.  1.
         21    1    1    2  502  501  0.90575099636E+01  0.25469367935E+02 -0.19543069394E+02  0.33356539855E+02  0.00000000000E+00 0.  1.
         21    1    1    2  503  502 -0.90575099636E+01 -0.25469367935E+02  0.13940714197E+03  0.14200379721E+03  0.00000000000E+00 0. -1.
</event>
<event>
 4    1  0.6109945E+002  0.2558566E+02  0.7546771E-02  0.1462357E+00
          2   -1    0    0  503    0  0.00000000000E+00  0.00000000000E+00  0.47699248153E+03  0.47699248153E+03  0.00000000000E+00 0.  1.
         -2   -1    0    0    0  501 -0.00000000000E+00 -0.00000000000E+00 -0.87379528910E+01  0.87379528910E+01  0.00000000000E+00 0. -1.
         21    1    1    2  502  501  0.18739277949E+02 -0.17420258839E+02  0.11148730283E+02  0.27909140850E+02  0.00000000000E+00 0. -1.
         21    1    1    2  503  502 -0.18739277949E+02  0.17420258839E+02  0.45710579835E+03  0.45782129357E+03  0.00000000000E+00 0.  1.
</event>
<event>
 4    1  0.6109945E+002  0.2047573E+02  0.7546771E-02  0.1526883E+00
          2   -1    0    0  502    0  0.00000000000E+00  0.00000000000E+00  0.57897374788E+02  0.57897374788E+02  0.00000000000E+00 0. -1.
         -2   -1    0    0    0  501 -0.00000000000E+00 -0.00000000000E+00 -0.79955834599E+01  0.79955834599E+01  0.00000000000E+00 0.  1.
         21    1    1    2  502  503  0.18959355965E+02 -0.77329357329E+01  0.14831950511E+02  0.25283240093E+02  0.00000000000E+00 0.  1.
         21    1    1    2  503  501 -0.18959355965E+02  0.77329357329E+01  0.35069840816E+02  0.40609718154E+02  0.00000000000E+00 0. -1.
</event>
<event>
 4    1  0.6109945E+002  0.2210557E+02  0.7546771E-02  0.1504046E+00
          2   -1    0    0  503    0  0.00000000000E+00  0.00000000000E+00  0.63931539782E+03  0.63931539782E+03  0.00000000000E+00 0. -1.
         -2   -1    0    0    0  501 -0.00000000000E+00 -0.00000000000E+00 -0.22074157417E+01  0.22074157417E+01  0.00000000000E+00 0.  1.
         21    1    1    2  502  501  0.17500406522E+02  0.13505261330E+02  0.59205253223E+02  0.63197455022E+02  0.00000000000E+00 0.  1.
         21    1    1    2  503  502 -0.17500406522E+02 -0.13505261330E+02  0.57790272886E+03  0.57832535854E+03  0.00000000000E+00 0. -1.
</event>
<event>
 4    1  0.6109945E+002  0.2612419E+02  0.7546771E-02  0.1456610E+00
          2   -1    0    0  503    0  0.00000000000E+00  0.00000000000E+00  0.20829558398E+03  0.20829558398E+03  0.00000000000E+00 0.  1.
         -2   -1    0    0    0  501 -0.00000000000E+00 -0.00000000000E+00 -0.66840432989E+01  0.66840432989E+01  0.00000000000E+00 0. -1.
         21    1    1    2  502  501 -0.26123341024E+02 -0.21113279493E+00  0.24057163159E+02  0.35513668110E+02  0.00000000000E+00 0. -1.
         21    1    1    2  503  502  0.26123341024E+02  0.21113279493E+00  0.17755437752E+03  0.17946595917E+03  0.00000000000E+00 0.  1.
</event>
<event>
 4    1  0.6109945E+002  0.3131789E+02  0.7546771E-02  0.1408479E+00
          2   -1    0    0  503    0  0.00000000000E+00  0.00000000000E+00  0.92127434482E+03  0.92127434482E+03  0.00000000000E+00 0.  1.
         -2   -1    0    0    0  501 -0.00000000000E+00 -0.00000000000E+00 -0.84070872236E+01  0.84070872236E+01  0.00000000000E+00 0. -1.
         21    1    1    2  502  501 -0.31203761440E+02 -0.26712786757E+01  0.22021157060E+02  0.38285007719E+02  0.00000000000E+00 0. -1.
         21    1    1    2  503  502  0.31203761440E+02  0.26712786757E+01  0.89084610054E+03  0.89139642432E+03  0.00000000000E+00 0.  1.
</event>
<event>
 4    1  0.6109945E+002  0.2107843E+02  0.7546771E-02  0.1518148E+00
          2   -1    0    0  503    0  0.00000000000E+00  0.00000000000E+00  0.74424365143E+03  0.74424365143E+03  0.00000000000E+00 0. -1.
         -2   -1    0    0    0  501 -0.00000000000E+00 -0.00000000000E+00 -0.17198661084E+01  0.17198661084E+01  0.00000000000E+00 0.  1.
         21    1    1    2  502  501  0.11111148571E+02  0.17912081551E+02  0.69886573905E+02  0.72996119761E+02  0.00000000000E+00 0.  1.
         21    1    1    2  503  502 -0.11111148571E+02 -0.17912081551E+02  0.67263721141E+03  0.67296739777E+03  0.00000000000E+00 0. -1.
</event>
<event>
 4    1  0.6109945E+002  0.2015332E+02  0.7546771E-02  0.1531705E+00
          2   -1    0    0  503    0  0.00000000000E+00  0.00000000000E+00  0.26080390419E+02  0.26080390419E+02  0.00000000000E+00 0.  1.
         -2   -1    0    0    0  501 -0.00000000000E+00 -0.00000000000E+00 -0.18860175213E+02  0.18860175213E+02  0.00000000000E+00 0. -1.
         21    1    1    2  502  501  0.18888033306E+02  0.70283951640E+01 -0.57705081460E+01  0.20963179745E+02  0.00000000000E+00 0. -1.
         21    1    1    2  503  502 -0.18888033306E+02 -0.70283951640E+01  0.12990723352E+02  0.23977385887E+02  0.00000000000E+00 0.  1.
</event>
<event>
 4    1  0.6109945E+002  0.2193007E+02  0.7546771E-02  0.1506389E+00
          2   -1    0    0  502    0  0.00000000000E+00  0.00000000000E+00  0.68472853371E+03  0.68472853371E+03  0.00000000000E+00 0.  1.
         -2   -1    0    0    0  501 -0.00000000000E+00 -0.00000000000E+00 -0.60521564332E+01  0.60521564332E+01  0.00000000000E+00 0. -1.
         21    1    1    2  502  503  0.19911724572E+02 -0.91897436322E+01  0.66406908925E+03  0.66443109761E+03  0.00000000000E+00 0.  1.
         21    1    1    2  503  501 -0.19911724572E+02  0.91897436322E+01  0.14607288022E+02  0.26349592536E+02  0.00000000000E+00 0. -1.
</event>
<event>
 4    1  0.6109945E+002  0.2278727E+02  0.7546771E-02  0.1495187E+00
          2   -1    0    0  503    0  0.00000000000E+00  0.00000000000E+00  0.46152293054E+03  0.46152293054E+03  0.00000000000E+00 0. -1.
         -2   -1    0    0    0  501 -0.00000000000E+00 -0.00000000000E+00 -0.49842309070E+01  0.49842309070E+01  0.00000000000E+00 0.  1.
         21    1    1    2  502  501 -0.18060809383E+01  0.22715581467E+02  0.23023689559E+02  0.32393669916E+02  0.00000000000E+00 0.  1.
         21    1    1    2  503  502  0.18060809383E+01 -0.22715581467E+02  0.43351501008E+03  0.43411349154E+03  0.00000000000E+00 0. -1.
</event>
<event>
 4    1  0.6109945E+002  0.2155838E+02  0.7546771E-02  0.1511440E+00
          2   -1    0    0  502    0  0.00000000000E+00  0.00000000000E+00  0.70393184022E+00  0.70393184022E+00  0.00000000000E+00 0.  1.
         -2   -1    0    0    0  501 -0.00000000000E+00 -0.00000000000E+00 -0.73635161512E+03  0.73635161512E+03  0.00000000000E+00 0. -1.
         21    1    1    2  502  503 -0.24672522156E+01  0.21416734807E+02 -0.24934154742E+03  0.25027179453E+03  0.00000000000E+00 0.  1.
         21    1    1    2  503  501  0.24672522156E+01 -0.21416734807E+02 -0.48630613586E+03  0.48678375244E+03  0.00000000000E+00 0. -1.
</event>
<event>
 4    1  0.6109945E+002  0.2622248E+02  0.7546771E-02  0.1455579E+00
          2   -1    0    0  503    0  0.00000000000E+00  0.00000000000E+00  0.54339183967E+02  0.54339183967E+02  0.00000000000E+00 0.  1.
         -2   -1    0    0    0  501 -0.00000000000E+00 -0.00000000000E+00 -0.12767060895E+02  0.12767060895E+02  0.00000000000E+00 0. -1.
         21    1    1    2  502  501  0.12670480775E+02  0.22958168412E+02  0.17631270358E+02  0.31598738493E+02  0.00000000000E+00 0. -1.
         21    1    1    2  503  502 -0.12670480775E+02 -0.22958168412E+02  0.23940852715E+02  0.35507506370E+02  0.00000000000E+00 0.  1.
</event>
<event>
 4    1  0.6109945E+002  0.2156373E+02  0.7546771E-02  0.1511366E+00
          2   -1    0    0  503    0  0.00000000000E+00  0.00000000000E+00  0.69311160994E+02  0.69311160994E+02  0.00000000000E+00 0.  1.
         -2   -1    0    0    0  501 -0.00000000000E+00 -0.00000000000E+00 -0.86166128704E+01  0.86166128704E+01  0.00000000000E+00 0. -1.
         21    1    1    2  502  501 -0.20738845267E+02  0.59071599130E+01  0.12013045043E+02  0.24684154684E+02  0.00000000000E+00 0.  1.
         21    1    1    2  503  502  0.20738845267E+02 -0.59071599130E+01  0.48681503081E+02  0.53243619181E+02  0.00000000000E+00 0. -1.
</event>
<event>
 4    1  0.6109945E+002  0.3264210E+02  0.7546771E-02  0.1397944E+00
          2   -1    0    0  503    0  0.00000000000E+00  0.00000000000E+00  0.48825871698E+01  0.48825871698E+01  0.00000000000E+00 0.  1.
         -2   -1    0    0    0  501 -0.00000000000E+00 -0.00000000000E+00 -0.44722084871E+03  0.44722084871E+03  0.00000000000E+00 0. -1.
         21    1    1    2  502  501 -0.91504053965E+01  0.31333316548E+02 -0.38292491049E+03  0.38431366580E+03  0.00000000000E+00 0. -1.
         21    1    1    2  503  502  0.91504053965E+01 -0.31333316548E+02 -0.59413351051E+02  0.67789770084E+02  0.00000000000E+00 0.  1.
</event>
<event>
 4    1  0.6109945E+002  0.2519031E+02  0.7546771E-02  0.1466686E+00
          2   -1    0    0  503    0  0.00000000000E+00  0.00000000000E+00  0.95994236769E+03  0.95994236769E+03  0.00000000000E+00 0.  1.
         -2   -1    0    0    0  501 -0.00000000000E+00 -0.00000000000E+00 -0.70755202125E+01  0.70755202125E+01  0.00000000000E+00 0. -1.
         21    1    1    2  502  501  0.23185439456E+02 -0.98482021529E+01  0.16064115228E+02  0.29876537391E+02  0.00000000000E+00 0. -1.
         21    1    1    2  503  502 -0.23185439456E+02  0.98482021529E+01  0.93680273225E+03  0.93714135052E+03  0.00000000000E+00 0.  1.
</event>
<event>
 4    1  0.6109945E+002  0.3086091E+02  0.7546771E-02  0.1412260E+00
          2   -1    0    0  503    0  0.00000000000E+00  0.00000000000E+00  0.20347415115E+04  0.20347415115E+04  0.00000000000E+00 0.  1.
         -2   -1    0    0    0  501 -0.00000000000E+00 -0.00000000000E+00 -0.57277352978E+00  0.57277352978E+00  0.00000000000E+00 0. -1.
         21    1    1    2  502  501  0.17714841406E+02  0.25270142275E+02  0.58197688789E+03  0.58279455534E+03  0.00000000000E+00 0.  1.
         21    1    1    2  503  502 -0.17714841406E+02 -0.25270142275E+02  0.14521918500E+04  0.14525197297E+04  0.00000000000E+00 0. -1.
</event>
<event>
 4    1  0.6109945E+002  0.3032968E+02  0.7546771E-02  0.1416753E+00
          2   -1    0    0  502    0  0.00000000000E+00  0.00000000000E+00  0.19803010090E+03  0.19803010090E+03  0.00000000000E+00 0. -1.
         -2   -1    0    0    0  501 -0.00000000000E+00 -0.00000000000E+00 -0.65626582126E+01  0.65626582126E+01  0.00000000000E+00 0.  1.
         21    1    1    2  502  503 -0.30261392863E+02 -0.20341088162E+01  0.15102839296E+03  0.15404371125E+03  0.00000000000E+00 0. -1.
         21    1    1    2  503  501  0.30261392863E+02  0.20341088162E+01  0.40439049732E+02  0.50549047864E+02  0.00000000000E+00 0.  1.
</event>
<event>
 4    1  0.6109945E+002  0.2252520E+02  0.7546771E-02  0.1498548E+00
          2   -1    0    0  502    0  0.00000000000E+00  0.00000000000E+00  0.91175367000E+02  0.91175367000E+02  0.00000000000E+00 0.  1.
         -2   -1    0    0    0  501 -0.00000000000E+00 -0.00000000000E+00 -0.55749264137E+01  0.55749264137E+01  0.00000000000E+00 0. -1.
         21    1    1    2  502  503  0.12547499437E+01 -0.22490227461E+02  0.40751990363E+02  0.46562962183E+02  0.00000000000E+00 0. -1.
         21    1    1    2  503  501 -0.12547499437E+01  0.22490227461E+02  0.44848450223E+02  0.50187331231E+02  0.00000000000E+00 0.  1.
</event>
<event>
 4    1  0.6109945E+002  0.2222318E+02  0.7546771E-02  0.1502490E+00
          2   -1    0    0  503    0  0.00000000000E+00  0.00000000000E+00  0.13342956734E+03  0.13342956734E+03  0.00000000000E+00 0. -1.
         -2   -1    0    0    0  501 -0.00000000000E+00 -0.00000000000E+00 -0.45327416730E+01  0.45327416730E+01  0.00000000000E+00 0.  1.
         21    1    1    2  502  501 -0.17003991948E+02  0.14308535833E+02  0.34905588953E+02  0.41379585305E+02  0.00000000000E+00 0.  1.
         21    1    1    2  503  502  0.17003991948E+02 -0.14308535833E+02  0.93991236715E+02  0.96582723709E+02  0.00000000000E+00 0. -1.
</event>
<event>
 4    1  0.6109945E+002  0.2176664E+02  0.7546771E-02  0.1508595E+00
          2   -1    0    0  502    0  0.00000000000E+00  0.00000000000E+00  0.76724746666E+02  0.76724746666E+02  0.00000000000E+00 0.  1.
         -2   -1    0    0    0  501 -0.00000000000E+00 -0.00000000000E+00 -0.11620789539E+02  0.11620789539E+02  0.00000000000E+00 0. -1.
         21    1    1    2  502  503 -0.18920266142E+02  0.10761517201E+02  0.62790551590E+02  0.66456302127E+02  0.00000000000E+00 0.  1.
         21    1    1    2  503  501  0.18920266142E+02 -0.10761517201E+02  0.23134055366E+01  0.21889234078E+02  0.00000000000E+00 0. -1.
</event>
<event>
 4    1  0.6109945E+002  0.2304746E+02  0.7546771E-02  0.1491903E+00
          2   -1    0    0  502    0  0.00000000000E+00  0.00000000000E+00  0.64472393952E+02  0.64472393952E+02  0.00000000000E+00 0. -1.
         -2   -1    0    0    0  501 -0.00000000000E+00 -0.00000000000E+00 -0.10994713721E+02  0.10994713721E+02  0.00000000000E+00 0.  1.
         21    1    1    2  502  503 -0.23039515565E+02  0.60498217939E+00  0.45629893943E+02  0.51120177055E+02  0.00000000000E+00 0. -1.
         21    1    1    2  503  501  0.23039515565E+02 -0.60498217939E+00  0.78477862872E+01  0.24346930618E+02  0.00000000000E+00 0.  1.
</event>
<event>
 4    1  0.6109945E+002  0.2529134E+02  0.7546771E-02  0.1465570E+00
          2   -1    0    0  503    0  0.00000000000E+00  0.00000000000E+00  0.17739002905E+04  0.17739002905E+04  0.00000000000E+00 0. -1.
         -2   -1    0    0    0  501 -0.00000000000E+00 -0.00000000000E+00 -0.56247692788E+00  0.56247692788E+00  0.00000000000E+00 0.  1.
         21    1    1    2  502  501  0.20296083629E+02 -0.15090428326E+02  0.35512660694E+03  0.35602606505E+03  0.00000000000E+00 0.  1.
         21    1    1    2  503  502 -0.20296083629E+02  0.15090428326E+02  0.14182112066E+04  0.14184367024E+04  0.00000000000E+00 0. -1.
</event>
<event>
 4    1  0.6109945E+002  0.3111937E+02  0.7546771E-02  0.1410112E+00
          2   -1    0    0  502    0  0.00000000000E+00  0.00000000000E+00  0.85736279114E+01  0.85736279114E+01  0.00000000000E+00 0.  1.
         -2   -1    0    0    0  501 -0.00000000000E+00 -0.00000000000E+00 -0.12972818095E+03  0.12972818095E+03  0.00000000000E+00 0. -1.
         21    1    1    2  502  503 -0.30753586351E+02  0.47573405909E+01 -0.35710655874E+02  0.47367354854E+02  0.00000000000E+00 0.  1.
         21    1    1    2  503  501  0.30753586351E+02 -0.47573405909E+01 -0.85443897165E+02  0.90934454008E+02  0.00000000000E+00 0. -1.
</event>
<event>
 4    1  0.6109945E+002  0.2234575E+02  0.7546771E-02  0.1500881E+00
          2   -1    0    0  502    0  0.00000000000E+00  0.00000000000E+00  0.47859654707E+02  0.47859654707E+02  0.00000000000E+00 0.  1.
         -2   -1    0    0    0  501 -0.00000000000E+00 -0.00000000000E+00 -0.33620940075E+02  0.33620940075E+02  0.00000000000E+00 0. -1.
         21    1    1    2  502  503  0.74224052961E+01  0.21077013868E+02  0.40952928573E+02  0.46652705952E+02  0.00000000000E+00 0.  1.
         21    1    1    2  503  501 -0.74224052961E+01 -0.21077013868E+02 -0.26714213940E+02  0.34827888830E+02  0.00000000000E+00 0. -1.
</event>
<event>
 4    1  0.6109945E+002  0.3446052E+02  0.7546771E-02  0.1384396E+00
          2   -1    0    0  502    0  0.00000000000E+00  0.00000000000E+00  0.10875803159E+03  0.10875803159E+03  0.00000000000E+00 0.  1.
         -2   -1    0    0    0  501 -0.00000000000E+00 -0.00000000000E+00 -0.11274914691E+02  0.11274914691E+02  0.00000000000E+00 0. -1.
         21    1    1    2  502  503  0.31581330577E+02  0.13789367535E+02  0.59404994463E+02  0.68676636968E+02  0.00000000000E+00 0.  1.
         21    1    1    2  503  501 -0.31581330577E+02 -0.13789367535E+02  0.38078122431E+02  0.51356309309E+02  0.00000000000E+00 0. -1.
</event>
<event>
 4    1  0.6109945E+002  0.4057163E+02  0.7546771E-02  0.1345168E+00
          2   -1    0    0  502    0  0.00000000000E+00  0.00000000000E+00  0.56752393528E+03  0.56752393528E+03  0.00000000000E+00 0.  1.
         -2   -1    0    0    0  501 -0.00000000000E+00 -0.00000000000E+00 -0.61104087035E+01  0.61104087035E+01  0.00000000000E+00 0. -1.
         21    1    1    2  502  503 -0.31982434908E+02  0.24963587275E+02  0.48859115528E+03  0.49027275455E+03  0.00000000000E+00 0.  1.
         21    1    1    2  503  501  0.31982434908E+02 -0.24963587275E+02  0.72822371297E+02  0.83361589438E+02  0.00000000000E+00 0. -1.
</event>
<event>
 4    1  0.6109945E+002  0.2892034E+02  0.7546771E-02  0.1429216E+00
          2   -1    0    0  502    0  0.00000000000E+00  0.00000000000E+00  0.25824741613E+02  0.25824741613E+02  0.00000000000E+00 0. -1.
         -2   -1    0    0    0  501 -0.00000000000E+00 -0.00000000000E+00 -0.55418074102E+02  0.55418074102E+02  0.00000000000E+00 0.  1.
         21    1    1    2  502  503 -0.28675427016E+02  0.37557863382E+01  0.11390367159E+02  0.31082575659E+02  0.00000000000E+00 0.  1.
         21    1    1    2  503  501  0.28675427016E+02 -0.37557863382E+01 -0.40983699649E+02  0.50160240056E+02  0.00000000000E+00 0. -1.
</event>
<event>
 4    1  0.6109945E+002  0.3087858E+02  0.7546771E-02  0.1412112E+00
          2   -1    0    0  503    0  0.00000000000E+00  0.00000000000E+00  0.22855824565E+02  0.22855824565E+02  0.00000000000E+00 0. -1.
         -2   -1    0    0    0  501 -0.00000000000E+00 -0.00000000000E+00 -0.51100148149E+02  0.51100148149E+02  0.00000000000E+00 0.  1.
         21    1    1    2  502  501 -0.14887892805E+02  0.27052496424E+02 -0.29967293436E+02  0.43029357314E+02  0.00000000000E+00 0. -1.
         21    1    1    2  503  502  0.14887892805E+02 -0.27052496424E+02  0.17229698524E+01  0.30926615399E+02  0.00000000000E+00 0.  1.
</event>
<event>
 4    1  0.6109945E+002  0.2901758E+02  0.7546771E-02  0.1428330E+00
          2   -1    0    0  503    0  0.00000000000E+00  0.00000000000E+00  0.77230863615E+01  0.77230863615E+01  0.00000000000E+00 0. -1.
         -2   -1    0    0    0  501 -0.00000000000E+00 -0.00000000000E+00 -0.12072756558E+03  0.12072756558E+03  0.00000000000E+00 0.  1.
         21    1    1    2  502  501 -0.20071859251E+02 -0.20955681314E+02 -0.76497087928E+02  0.81815796607E+02  0.00000000000E+00 0.  1.
         21    1    1    2  503  502  0.20071859251E+02  0.20955681314E+02 -0.36507391287E+02  0.46634855331E+02  0.00000000000E+00 0. -1.
</event>
<event>
 4    1  0.6109945E+002  0.2344920E+02  0.7546771E-02  0.1486933E+00
          2   -1    0    0  502    0  0.00000000000E+00  0.00000000000E+00  0.14592520843E+01  0.14592520843E+01  0.00000000000E+00 0.  1.
         -2   -1    0    0    0  501 -0.00000000000E+00 -0.00000000000E+00 -0.40431217605E+03  0.40431217605E+03  0.00000000000E+00 0. -1.
         21    1    1    2  502  503  0.12427350018E+02 -0.19885318666E+02 -0.14851446705E+03  0.15035428777E+03  0.00000000000E+00 0. -1.
         21    1    1    2  503  501 -0.12427350018E+02  0.19885318666E+02 -0.25433845691E+03  0.25541714036E+03  0.00000000000E+00 0.  1.
</event>
<event>
 4    1  0.6109945E+002  0.2111827E+02  0.7546771E-02  0.1517583E+00
          2   -1    0    0  502    0  0.00000000000E+00  0.00000000000E+00  0.28586859488E+02  0.28586859488E+02  0.00000000000E+00 0. -1.
         -2   -1    0    0    0  501 -0.00000000000E+00 -0.00000000000E+00 -0.21612329486E+02  0.21612329486E+02  0.00000000000E+00 0.  1.
         21    1    1    2  502  503 -0.14105465073E+02 -0.15716775893E+02  0.16724711594E+02  0.26938766997E+02  0.00000000000E+00 0. -1.
         21    1    1    2  503  501  0.14105465073E+02  0.15716775893E+02 -0.97501815925E+01  0.23260421976E+02  0.00000000000E+00 0.  1.
</event>
<event>
 4    1  0.6109945E+002  0.4626493E+02  0.7546771E-02  0.1315233E+00
          2   -1    0    0  502    0  0.00000000000E+00  0.00000000000E+00  0.14188456847E+04  0.14188456847E+04  0.00000000000E+00 0. -1.
         -2   -1    0    0    0  501 -0.00000000000E+00 -0.00000000000E+00 -0.17310076261E+01  0.17310076261E+01  0.00000000000E+00 0.  1.
         21    1    1    2  502  503  0.27039935200E+02 -0.37540449373E+02  0.96316925643E+03  0.96427976230E+03  0.00000000000E+00 0. -1.
         21    1    1    2  503  501 -0.27039935200E+02  0.37540449373E+02  0.45394542069E+03  0.45629693008E+03  0.00000000000E+00 0.  1.
</event>
<event>
 4    1  0.6109945E+002  0.2836116E+02  0.7546771E-02  0.1434394E+00
          2   -1    0    0  502    0  0.00000000000E+00  0.00000000000E+00  0.13807506613E+04  0.13807506613E+04  0.00000000000E+00 0. -1.
         -2   -1    0    0    0  501 -0.00000000000E+00 -0.00000000000E+00 -0.30014421007E+01  0.30014421007E+01  0.00000000000E+00 0.  1.
         21    1    1    2  502  503  0.18321313339E+02  0.21649132611E+02  0.13099890347E+04  0.13102960072E+04  0.00000000000E+00 0. -1.
         21    1    1    2  503  501 -0.18321313339E+02 -0.21649132611E+02  0.67760184542E+02  0.73456096237E+02  0.00000000000E+00 0.  1.
</event>
<event>
 4    1  0.6109945E+002  0.2144293E+02  0.7546771E-02  0.1513034E+00
          2   -1    0    0  502    0  0.00000000000E+00  0.00000000000E+00  0.87459582946E+03  0.87459582946E+03  0.00000000000E+00 0. -1.
         -2   -1    0    0    0  501 -0.00000000000E+00 -0.00000000000E+00 -0.54934263227E+00  0.54934263227E+00  0.00000000000E+00 0.  1.
         21    1    1    2  502  503 -0.10939519464E+02  0.18442513407E+02  0.52774687101E+03  0.52818231629E+03  0.00000000000E+00 0.  1.
         21    1    1    2  503  501  0.10939519464E+02 -0.18442513407E+02  0.34629961582E+03  0.34696285580E+03  0.00000000000E+00 0. -1.
</event>
<event>
 4    1  0.6109945E+002  0.2696279E+02  0.7546771E-02  0.1447982E+00
          2   -1    0    0  503    0  0.00000000000E+00  0.00000000000E+00  0.16074285268E+02  0.16074285268E+02  0.00000000000E+00 0.  1.
         -2   -1    0    0    0  501 -0.00000000000E+00 -0.00000000000E+00 -0.66975043698E+02  0.66975043698E+02  0.00000000000E+00 0. -1.
         21    1    1    2  502  501  0.12772035285E+02  0.23745891559E+02 -0.49112811556E+02  0.56027319320E+02  0.00000000000E+00 0. -1.
         21    1    1    2  503  502 -0.12772035285E+02 -0.23745891559E+02 -0.17879468739E+01  0.27022009645E+02  0.00000000000E+00 0.  1.
</event>
<event>
 4    1  0.6109945E+002  0.3740811E+02  0.7546771E-02  0.1364382E+00
          2   -1    0    0  502    0  0.00000000000E+00  0.00000000000E+00  0.22829193633E+03  0.22829193633E+03  0.00000000000E+00 0.  1.
         -2   -1    0    0    0  501 -0.00000000000E+00 -0.00000000000E+00 -0.61313496509E+01  0.61313496509E+01  0.00000000000E+00 0. -1.
         21    1    1    2  502  503 -0.35753272396E+02  0.11003198021E+02  0.11298810329E+03  0.11901965527E+03  0.00000000000E+00 0. -1.
         21    1    1    2  503  501  0.35753272396E+02 -0.11003198021E+02  0.10917248339E+03  0.11540363072E+03  0.00000000000E+00 0.  1.
</event>
<event>
 4    1  0.6109945E+002  0.2987291E+02  0.7546771E-02  0.1420704E+00
          2   -1    0    0  502    0  0.00000000000E+00  0.00000000000E+00  0.15855290558E+02  0.15855290558E+02  0.00000000000E+00 0.  1.
         -2   -1    0    0    0  501 -0.00000000000E+00 -0.00000000000E+00 -0.10976352059E+03  0.10976352059E+03  0.00000000000E+00 0. -1.
         21    1    1    2  502  503  0.27727818142E+02  0.11115714090E+02 -0.31119981487E+01  0.30034572265E+02  0.00000000000E+00 0.  1.
         21    1    1    2  503  501 -0.27727818142E+02 -0.11115714090E+02 -0.90796231878E+02  0.95584238878E+02  0.00000000000E+00 0. -1.
</event>
<event>
 4    1  0.6109945E+002  0.2007097E+02  0.7546771E-02  0.1532954E+00
          2   -1    0    0  503    0  0.00000000000E+00  0.00000000000E+00  0.24509512968E+03  0.24509512968E+03  0.00000000000E+00 0. -1.
         -2   -1    0    0    0  501 -0.00000000000E+00 -0.00000000000E+00 -0.44710449957E+01  0.44710449957E+01  0.00000000000E+00 0.  1.
         21    1    1    2  502  501 -0.53971896791E+01  0.19331688714E+02  0.21081224989E+02  0.29107763431E+02  0.00000000000E+00 0.  1.
         21    1    1    2  503  502  0.53971896791E+01 -0.19331688714E+02  0.21954285970E+03  0.22045841124E+03  0.00000000000E+00 0. -1.
</event>
<event>
 4    1  0.6109945E+002  0.2369886E+02  0.7546771E-02  0.1483904E+00
          2   -1    0    0  502    0  0.00000000000E+00  0.00000000000E+00  0.32309399123E+03  0.32309399123E+03  0.00000000000E+00 0.  1.
         -2   -1    0    0    0  501 -0.00000000000E+00 -0.00000000000E+00 -0.52726530314E+01  0.52726530314E+01  0.00000000000E+00 0. -1.
         21    1    1    2  502  503  0.66035668224E+01 -0.22760243184E+02  0.29333228895E+03  0.29428806892E+03  0.00000000000E+00 0.  1.
         21    1    1    2  503  501 -0.66035668224E+01  0.22760243184E+02  0.24489049248E+02  0.34078575347E+02  0.00000000000E+00 0. -1.
</event>
<event>
 4    1  0.6109945E+002  0.3582658E+02  0.7546771E-02  0.1374843E+00
          2   -1    0    0  503    0  0.00000000000E+00  0.00000000000E+00  0.19472264432E+04  0.19472264432E+04  0.00000000000E+00 0.  1.
         -2   -1    0    0    0  501 -0.00000000000E+00 -0.00000000000E+00 -0.12755026242E+01  0.12755026242E+01  0.00000000000E+00 0. -1.
         21    1    1    2  502  501 -0.78130380582E+01  0.34964274391E+02  0.29574043981E+03  0.29790258775E+03  0.00000000000E+00 0. -1.
         21    1    1    2  503  502  0.78130380582E+01 -0.34964274391E+02  0.16502105007E+04  0.16505993580E+04  0.00000000000E+00 0.  1.
</event>
<event>
 4    1  0.6109945E+002  0.2726725E+02  0.7546771E-02  0.1444942E+00
          2   -1    0    0  502    0  0.00000000000E+00  0.00000000000E+00  0.12446098665E+04  0.12446098665E+04  0.00000000000E+00 0. -1.
         -2   -1    0    0    0  501 -0.00000000000E+00 -0.00000000000E+00 -0.12016976009E+01  0.12016976009E+01  0.00000000000E+00 0.  1.
         21    1    1    2  502  503 -0.21297963146E+02  0.17026442682E+02  0.10634351886E+04  0.10637847072E+04  0.00000000000E+00 0. -1.
         21    1    1    2  503  501  0.21297963146E+02 -0.17026442682E+02  0.17997298033E+03  0.18202685690E+03  0.00000000000E+00 0.  1.
</event>
<event>
 4    1  0.6109945E+002  0.2573724E+02  0.7546771E-02  0.1460722E+00
          2   -1    0    0  503    0  0.00000000000E+00  0.00000000000E+00  0.20528248833E+04  0.20528248833E+04  0.00000000000E+00 0.  1.
         -2   -1    0    0    0  501 -0.00000000000E+00 -0.00000000000E+00 -0.40803437178E+00  0.40803437178E+00  0.00000000000E+00 0. -1.
         21    1    1    2  502  501  0.77470852311E+01 -0.24543601591E+02  0.55666851029E+03  0.55726316589E+03  0.00000000000E+00 0.  1.
         21    1    1    2  503  502 -0.77470852311E+01  0.24543601591E+02  0.14957483386E+04  0.14959697517E+04  0.00000000000E+00 0. -1.
</event>
<event>
 4    1  0.6109945E+002  0.2118431E+02  0.7546771E-02  0.1516650E+00
          2   -1    0    0  502    0  0.00000000000E+00  0.00000000000E+00  0.22309287062E+04  0.22309287062E+04  0.00000000000E+00 0. -1.
         -2   -1    0    0    0  501 -0.00000000000E+00 -0.00000000000E+00 -0.23471532949E+00  0.23471532949E+00  0.00000000000E+00 0.  1.
         21    1    1    2  502  503 -0.54567600522E+01  0.20469462413E+02  0.15371474580E+04  0.15372934277E+04  0.00000000000E+00 0. -1.
         21    1    1    2  503  501  0.54567600522E+01 -0.20469462413E+02  0.69354653280E+03  0.69386999379E+03  0.00000000000E+00 0.  1.
</event>
<event>
 4    1  0.6109945E+002  0.4384739E+02  0.7546771E-02  0.1327304E+00
          2   -1    0    0  503    0  0.00000000000E+00  0.00000000000E+00  0.31940647439E+02  0.31940647439E+02  0.00000000000E+00 0. -1.
         -2   -1    0    0    0  501 -0.00000000000E+00 -0.00000000000E+00 -0.65493490145E+02  0.65493490145E+02  0.00000000000E+00 0.  1.
         21    1    1    2  502  501 -0.40405565451E+02  0.17028925289E+02 -0.30636066875E+02  0.53489836507E+02  0.00000000000E+00 0. -1.
         21    1    1    2  503  502  0.40405565451E+02 -0.17028925289E+02 -0.29167758315E+01  0.43944301078E+02  0.00000000000E+00 0.  1.
</event>
<event>
 4    1  0.6109945E+002  0.3022757E+02  0.7546771E-02  0.1417629E+00
          2   -1    0    0  502    0  0.00000000000E+00  0.00000000000E+00  0.17605880464E+02  0.17605880464E+02  0.00000000000E+00 0. -1.
         -2   -1    0    0    0  501 -0.00000000000E+00 -0.00000000000E+00 -0.55942212646E+02  0.55942212646E+02  0.00000000000E+00 0.  1.
         21    1    1    2  502  503  0.30165971592E+02  0.19287539804E+01 -0.29055995045E+02  0.41927995207E+02  0.00000000000E+00 0. -1.
         21    1    1    2  503  501 -0.30165971592E+02 -0.19287539804E+01 -0.92803371371E+01  0.31620097903E+02  0.00000000000E+00 0.  1.
</event>
<event>
 4    1  0.6109945E+002  0.2484076E+02  0.7546771E-02  0.1470593E+00
          2   -1    0    0  502    0  0.00000000000E+00  0.00000000000E+00  0.11711754235E+04  0.11711754235E+04  0.00000000000E+00 0.  1.
         -2   -1    0    0    0  501 -0.00000000000E+00 -0.00000000000E+00 -0.67289436768E+00  0.67289436768E+00  0.00000000000E+00 0. -1.
         21    1    1    2  502  503  0.24814412211E+02 -0.11437619559E+01  0.85819488306E+03  0.85855432009E+03  0.00000000000E+00 0.  1.
         21    1    1    2  503  501 -0.24814412211E+02  0.11437619559E+01  0.31230764613E+03  0.31329399782E+03  0.00000000000E+00 0. -1.
</event>
<event>
 4    1  0.6109945E+002  0.2767171E+02  0.7546771E-02  0.1440975E+00
          2   -1    0    0  502    0  0.00000000000E+00  0.00000000000E+00  0.94366654525E+02  0.94366654525E+02  0.00000000000E+00 0.  1.
         -2   -1    0    0    0  501 -0.00000000000E+00 -0.00000000000E+00 -0.10602711905E+02  0.10602711905E+02  0.00000000000E+00 0. -1.
         21    1    1    2  502  503  0.22232816518E+02 -0.16474996356E+02  0.67308160106E+02  0.72774391458E+02  0.00000000000E+00 0. -1.
         21    1    1    2  503  501 -0.22232816518E+02  0.16474996356E+02  0.16455782515E+02  0.32194974972E+02  0.00000000000E+00 0.  1.
</event>
<event>
 4    1  0.6109945E+002  0.2355874E+02  0.7546771E-02  0.1485599E+00
          2   -1    0    0  503    0  0.00000000000E+00  0.00000000000E+00  0.10831643454E+04  0.10831643454E+04  0.00000000000E+00 0. -1.
         -2   -1    0    0    0  501 -0.00000000000E+00 -0.00000000000E+00 -0.53999776837E+00  0.53999776837E+00  0.00000000000E+00 0.  1.
         21    1    1    2  502  501  0.19354351169E+02 -0.13432168253E+02  0.41881751548E+03  0.41947958869E+03  0.00000000000E+00 0.  1.
         21    1    1    2  503  502 -0.19354351169E+02  0.13432168253E+02  0.66380683218E+03  0.66422475451E+03  0.00000000000E+00 0. -1.
</event>
<event>
 4    1  0.6109945E+002  0.2093524E+02  0.7546771E-02  0.1520191E+00
          2   -1    0    0  502    0  0.00000000000E+00  0.00000000000E+00  0.58204540726E+03  0.58204540726E+03  0.00000000000E+00 0.  1.
         -2   -1    0    0    0  501 -0.00000000000E+00 -0.00000000000E+00 -0.11203296770E+01  0.11203296770E+01  0.00000000000E+00 0. -1.
         21    1    1    2  502  503 -0.39046007136E+01  0.20567892145E+02  0.45742280515E+03  0.45790163437E+03  0.00000000000E+00 0.  1.
         21    1    1    2  503  501  0.39046007136E+01 -0.20567892145E+02  0.12350227243E+03  0.12526410256E+03  0.00000000000E+00 0. -1.
</event>
<event>
 4    1  0.6109945E+002  0.3310102E+02  0.7546771E-02  0.1394429E+00
          2   -1    0    0  502    0  0.00000000000E+00  0.00000000000E+00  0.10335392933E+02  0.10335392933E+02  0.00000000000E+00 0. -1.
         -2   -1    0    0    0  501 -0.00000000000E+00 -0.00000000000E+00 -0.13979763709E+03  0.13979763709E+03  0.00000000000E+00 0.  1.
         21    1    1    2  502  503  0.16290992016E+02 -0.28814604053E+02 -0.27828174456E+02  0.43244480817E+02  0.00000000000E+00 0.  1.
         21    1    1    2  503  501 -0.16290992016E+02  0.28814604053E+02 -0.10163406970E+03  0.10688854921E+03  0.00000000000E+00 0. -1.
</event>
<event>
 4    1  0.6109945E+002  0.2224756E+02  0.7546771E-02  0.1502169E+00
          2   -1    0    0  502    0  0.00000000000E+00  0.00000000000E+00  0.12136868386E+04  0.12136868386E+04  0.00000000000E+00 0.  1.
         -2   -1    0    0    0  501 -0.00000000000E+00 -0.00000000000E+00 -0.59512695107E+00  0.59512695107E+00  0.00000000000E+00 0. -1.
         21    1    1    2  502  503 -0.51713783738E+01 -0.21638178244E+02  0.94716810366E+03  0.94742934855E+03  0.00000000000E+00 0.  1.
         21    1    1    2  503  501  0.51713783738E+01  0.21638178244E+02  0.26592360803E+03  0.26685261703E+03  0.00000000000E+00 0. -1.
</event>
<event>
 4    1  0.6109945E+002  0.2102375E+02  0.7546771E-02  0.1518926E+00
          2   -1    0    0  502    0  0.00000000000E+00  0.00000000000E+00  0.23652065213E+04  0.23652065213E+04  0.00000000000E+00 0.  1.
         -2   -1    0    0    0  501 -0.00000000000E+00 -0.00000000000E+00 -0.20613833541E+00  0.20613833541E+00  0.00000000000E+00 0. -1.
         21    1    1    2  502  503  0.19979964596E+02 -0.65421067312E+01  0.15440452567E+04  0.15441883800E+04  0.00000000000E+00 0.  1.
         21    1    1    2  503  501 -0.19979964596E+02  0.65421067312E+01  0.82095512622E+03  0.82122427960E+03  0.00000000000E+00 0. -1.
</event>
<event>
 4    1  0.6109945E+002  0.2640954E+02  0.7546771E-02  0.1453631E+00
          2   -1    0    0  503    0  0.00000000000E+00  0.00000000000E+00  0.61592797177E+03  0.61592797177E+03  0.00000000000E+00 0.  1.
         -2   -1    0    0    0  501 -0.00000000000E+00 -0.00000000000E+00 -0.14653598575E+01  0.14653598575E+01  0.00000000000E+00 0. -1.
         21    1    1    2  502  501  0.32953533585E+01 -0.26203136401E+02  0.16007813389E+03  0.16224201879E+03  0.00000000000E+00 0. -1.
         21    1    1    2  503  502 -0.32953533585E+01  0.26203136401E+02  0.45438447802E+03  0.45515131283E+03  0.00000000000E+00 0.  1.
</event>
<event>
 4    1  0.6109945E+002  0.2135391E+02  0.7546771E-02  0.1514271E+00
          2   -1    0    0  503    0  0.00000000000E+00  0.00000000000E+00  0.11422543253E+02  0.11422543253E+02  0.00000000000E+00 0. -1.
         -2   -1    0    0    0  501 -0.00000000000E+00 -0.00000000000E+00 -0.44370505358E+02  0.44370505358E+02  0.00000000000E+00 0.  1.
         21    1    1    2  502  501  0.19761241953E+02  0.80921519331E+01 -0.25308855826E+02  0.33113860990E+02  0.00000000000E+00 0.  1.
         21    1    1    2  503  502 -0.19761241953E+02 -0.80921519331E+01 -0.76391062786E+01  0.22679187621E+02  0.00000000000E+00 0. -1.
</event>
<event>
 4    1  0.6109945E+002  0.3501429E+02  0.7546771E-02  0.1380463E+00
          2   -1    0    0  502    0  0.00000000000E+00  0.00000000000E+00  0.85537873476E+01  0.85537873476E+01  0.00000000000E+00 0.  1.
         -2   -1    0    0    0  501 -0.00000000000E+00 -0.00000000000E+00 -0.30125536097E+03  0.30125536097E+03  0.00000000000E+00 0. -1.
         21    1    1    2  502  503  0.30243304598E+02  0.17644911459E+02 -0.34194135387E+02  0.48941181721E+02  0.00000000000E+00 0.  1.
         21    1    1    2  503  501 -0.30243304598E+02 -0.17644911459E+02 -0.25850743824E+03  0.26086796660E+03  0.00000000000E+00 0. -1.
</event>
<event>
 4    1  0.6109945E+002  0.2003489E+02  0.7546771E-02  0.1533503E+00
          2   -1    0    0  502    0  0.00000000000E+00  0.00000000000E+00  0.65892806302E+03  0.65892806302E+03  0.00000000000E+00 0.  1.
         -2   -1    0    0    0  501 -0.00000000000E+00 -0.00000000000E+00 -0.96336308195E+00  0.96336308195E+00  0.00000000000E+00 0. -1.
         21    1    1    2  502  503 -0.16985958726E+02 -0.10624215706E+02  0.52904674797E+03  0.52942597055E+03  0.00000000000E+00 0.  1.
         21    1    1    2  503  501  0.16985958726E+02  0.10624215706E+02  0.12891795197E+03  0.13046545555E+03  0.00000000000E+00 0. -1.
</event>
<event>
 4    1  0.6109945E+002  0.2489630E+02  0.7546771E-02  0.1469967E+00
          2   -1    0    0  502    0  0.00000000000E+00  0.00000000000E+00  0.31711145576E+01  0.31711145576E+01  0.00000000000E+00 0. -1.
         -2   -1    0    0    0  501 -0.00000000000E+00 -0.00000000000E+00 -0.34819892797E+03  0.34819892797E+03  0.00000000000E+00 0.  1.
         21    1    1    2  502  503  0.71321052744E+01 -0.23852853104E+02 -0.56155939639E+02  0.61427315451E+02  0.00000000000E+00 0. -1.
         21    1    1    2  503  501 -0.71321052744E+01  0.23852853104E+02 -0.28887187377E+03  0.28994272708E+03  0.00000000000E+00 0.  1.
</event>
<event>
 4    1  0.6109945E+002  0.2318373E+02  0.7546771E-02  0.1490204E+00
          2   -1    0    0  503    0  0.00000000000E+00  0.00000000000E+00  0.79150027614E+03  0.79150027614E+03  0.00000000000E+00 0.  1.
         -2   -1    0    0    0  501 -0.00000000000E+00 -0.00000000000E+00 -0.10236272665E+01  0.10236272665E+01  0.00000000000E+00 0. -1.
         21    1    1    2  502  501  0.10045344586E+02 -0.20894409650E+02  0.16533714746E+03  0.16695465742E+03  0.00000000000E+00 0. -1.
         21    1    1    2  503  502 -0.10045344586E+02  0.20894409650E+02  0.62513950141E+03  0.62556924598E+03  0.00000000000E+00 0.  1.
</event>
<event>
 4    1  0.6109945E+002  0.6148795E+02  0.7546771E-02  0.1254859E+00
          2   -1    0    0  502    0  0.00000000000E+00  0.00000000000E+00  0.66621425426E+03  0.66621425426E+03  0.00000000000E+00 0. -1.
         -2   -1    0    0    0  501 -0.00000000000E+00 -0.00000000000E+00 -0.56794666479E+01  0.56794666479E+01  0.00000000000E+00 0.  1.
         21    1    1    2  502  503  0.23782973011E+02  0.56702190183E+02  0.32084977847E+03  0.32668845789E+03  0.00000000000E+00 0.  1.
         21    1    1    2  503  501 -0.23782973011E+02 -0.56702190183E+02  0.33968500915E+03  0.34520526302E+03  0.00000000000E+00 0. -1.
</event>
<event>
 4    1  0.6109945E+002  0.2356549E+02  0.7546771E-02  0.1485517E+00
          2   -1    0    0  502    0  0.00000000000E+00  0.00000000000E+00  0.20378765148E+02  0.20378765148E+02  0.00000000000E+00 0.  1.
         -2   -1    0    0    0  501 -0.00000000000E+00 -0.00000000000E+00 -0.42011002173E+02  0.42011002173E+02  0.00000000000E+00 0. -1.
         21    1    1    2  502  503  0.11131585916E+02 -0.20770660022E+02  0.76745113964E+01  0.24783677046E+02  0.00000000000E+00 0.  1.
         21    1    1    2  503  501 -0.11131585916E+02  0.20770660022E+02 -0.29306748422E+02  0.37606090275E+02  0.00000000000E+00 0. -1.
</event>
<event>
 4    1  0.6109945E+002  0.2729759E+02  0.7546771E-02  0.1444641E+00
          2   -1    0    0  503    0  0.00000000000E+00  0.00000000000E+00  0.25220055174E+03  0.25220055174E+03  0.00000000000E+00 0. -1.
         -2   -1    0    0    0  501 -0.00000000000E+00 -0.00000000000E+00 -0.60789824122E+01  0.60789824122E+01  0.00000000000E+00 0.  1.
         21    1    1    2  502  501 -0.63187879866E+01 -0.26556194776E+02  0.30479165872E+02  0.40916232901E+02  0.00000000000E+00 0. -1.
         21    1    1    2  503  502  0.63187879866E+01  0.26556194776E+02  0.21564240346E+03  0.21736330126E+03  0.00000000000E+00 0.  1.
</event>
<event>
 4    1  0.6109945E+002  0.2465073E+02  0.7546771E-02  0.1472749E+00
          2   -1    0    0  503    0  0.00000000000E+00  0.00000000000E+00  0.50430630024E+03  0.50430630024E+03  0.00000000000E+00 0.  1.
         -2   -1    0    0    0  501 -0.00000000000E+00 -0.00000000000E+00 -0.12374478998E+01  0.12374478998E+01  0.00000000000E+00 0. -1.
         21    1    1    2  502  501 -0.20402979893E+02 -0.13833911703E+02  0.21056484823E+03  0.21200286322E+03  0.00000000000E+00 0. -1.
         21    1    1    2  503  502  0.20402979893E+02  0.13833911703E+02  0.29250400410E+03  0.29354088492E+03  0.00000000000E+00 0.  1.
</event>
<event>
 4    1  0.6109945E+002  0.2048580E+02  0.7546771E-02  0.1526735E+00
          2   -1    0    0  503    0  0.00000000000E+00  0.00000000000E+00  0.94171986136E+03  0.94171986136E+03  0.00000000000E+00 0. -1.
         -2   -1    0    0    0  501 -0.00000000000E+00 -0.00000000000E+00 -0.57623605959E+00  0.57623605959E+00  0.00000000000E+00 0.  1.
         21    1    1    2  502  501 -0.19166619677E+02  0.72324630674E+01  0.24627526797E+03  0.24712582917E+03  0.00000000000E+00 0.  1.
         21    1    1    2  503  502  0.19166619677E+02 -0.72324630674E+01  0.69486835734E+03  0.69517026825E+03  0.00000000000E+00 0. -1.
</event>
<event>
 4    1  0.6109945E+002  0.2719764E+02  0.7546771E-02  0.1445633E+00
          2   -1    0    0  502    0  0.00000000000E+00  0.00000000000E+00  0.64883620734E+03  0.64883620734E+03  0.00000000000E+00 0.  1.
         -2   -1    0    0    0  501 -0.00000000000E+00 -0.00000000000E+00 -0.11404432368E+01  0.11404432368E+01  0.00000000000E+00 0. -1.
         21    1    1    2  502  503 -0.55837126891E+01  0.26618297149E+02  0.31788300064E+03  0.31904437573E+03  0.00000000000E+00 0.  1.
         21    1    1    2  503  501  0.55837126891E+01 -0.26618297149E+02  0.32981276347E+03  0.33093227485E+03  0.00000000000E+00 0. -1.
</event>
<event>
 4    1  0.6109945E+002  0.2075584E+02  0.7546771E-02  0.1522780E+00
          2   -1    0    0  503    0  0.00000000000E+00  0.00000000000E+00  0.87160339744E+03  0.87160339744E+03  0.00000000000E+00 0. -1.
         -2   -1    0    0    0  501 -0.00000000000E+00 -0.00000000000E+00 -0.23828196993E+01  0.23828196993E+01  0.00000000000E+00 0.  1.
         21    1    1    2  502  501 -0.20410888555E+02 -0.37683584023E+01  0.45570932482E+02  0.50075091452E+02  0.00000000000E+00 0.  1.
         21    1    1    2  503  502  0.20410888555E+02  0.37683584023E+01  0.82364964526E+03  0.82391112569E+03  0.00000000000E+00 0. -1.
</event>
<event>
 4    1  0.6109945E+002  0.2160474E+02  0.7546771E-02  0.1510803E+00
          2   -1    0    0  502    0  0.00000000000E+00  0.00000000000E+00  0.97693942319E+02  0.97693942319E+02  0.00000000000E+00 0. -1.
         -2   -1    0    0    0  501 -0.00000000000E+00 -0.00000000000E+00 -0.53877405355E+01  0.53877405355E+01  0.00000000000E+00 0.  1.
         21    1    1    2  502  503 -0.15834315364E+02  0.14698276013E+02  0.63494411595E+02  0.67069405578E+02  0.00000000000E+00 0. -1.
         21    1    1    2  503  501  0.15834315364E+02 -0.14698276013E+02  0.28811790189E+02  0.36012277277E+02  0.00000000000E+00 0.  1.
</event>
<event>
 4    1  0.6109945E+002  0.2114769E+02  0.7546771E-02  0.1517167E+00
          2   -1    0    0  503    0  0.00000000000E+00  0.00000000000E+00  0.75094484711E+02  0.75094484711E+02  0.00000000000E+00 0. -1.
         -2   -1    0    0    0  501 -0.00000000000E+00 -0.00000000000E+00 -0.75602096865E+01  0.75602096865E+01  0.00000000000E+00 0.  1.
         21    1    1    2  502  501 -0.14917328983E+02 -0.14989933891E+02  0.14727024006E+02  0.25770332907E+02  0.00000000000E+00 0.  1.
         21    1    1    2  503  502  0.14917328983E+02  0.14989933891E+02  0.52807251019E+02  0.56884361491E+02  0.00000000000E+00 0. -1.
</event>
<event>
 4    1  0.6109945E+002  0.2746623E+02  0.7546771E-02  0.1442980E+00
          2   -1    0    0  502    0  0.00000000000E+00  0.00000000000E+00  0.15134897424E+04  0.15134897424E+04  0.00000000000E+00 0.  1.
         -2   -1    0    0    0  501 -0.00000000000E+00 -0.00000000000E+00 -0.55416077592E+00  0.55416077592E+00  0.00000000000E+00 0. -1.
         21    1    1    2  502  503  0.12855274224E+02 -0.24272122858E+02  0.99650186893E+03  0.99688031819E+03  0.00000000000E+00 0.  1.
         21    1    1    2  503  501 -0.12855274224E+02  0.24272122858E+02  0.51643371267E+03  0.51716358496E+03  0.00000000000E+00 0. -1.
</event>
<event>
 4    1  0.6109945E+002  0.2437999E+02  0.7546771E-02  0.1475860E+00
          2   -1    0    0  503    0  0.00000000000E+00  0.00000000000E+00  0.22603387147E+03  0.22603387147E+03  0.00000000000E+00 0.  1.
         -2   -1    0    0    0  501 -0.00000000000E+00 -0.00000000000E+00 -0.30358488259E+01  0.30358488259E+01  0.00000000000E+00 0. -1.
         21    1    1    2  502  501  0.20768863475E+02  0.12768640641E+02  0.69602161649E+02  0.73748523918E+02  0.00000000000E+00 0.  1.
         21    1    1    2  503  502 -0.20768863475E+02 -0.12768640641E+02  0.15339586099E+03  0.15532119638E+03  0.00000000000E+00 0. -1.
</event>
<event>
 4    1  0.6109945E+002  0.3048158E+02  0.7546771E-02  0.1415457E+00
          2   -1    0    0  503    0  0.00000000000E+00  0.00000000000E+00  0.21789641610E+02  0.21789641610E+02  0.00000000000E+00 0.  1.
         -2   -1    0    0    0  501 -0.00000000000E+00 -0.00000000000E+00 -0.79866079819E+02  0.79866079819E+02  0.00000000000E+00 0. -1.
         21    1    1    2  502  501 -0.47958952786E+01  0.30101924785E+02 -0.63739057737E+02  0.70652628886E+02  0.00000000000E+00 0. -1.
         21    1    1    2  503  502  0.47958952786E+01 -0.30101924785E+02  0.56626195287E+01  0.31003092543E+02  0.00000000000E+00 0.  1.
</event>
<event>
 4    1  0.6109945E+002  0.3514086E+02  0.7546771E-02  0.1379576E+00
          2   -1    0    0  502    0  0.00000000000E+00  0.00000000000E+00  0.25303252324E+03  0.25303252324E+03  0.00000000000E+00 0.  1.
         -2   -1    0    0    0  501 -0.00000000000E+00 -0.00000000000E+00 -0.33921090815E+03  0.33921090815E+03  0.00000000000E+00 0. -1.
         21    1    1    2  502  503 -0.23616026738E+02 -0.26022363892E+02  0.25089461290E+03  0.25334361434E+03  0.00000000000E+00 0.  1.
         21    1    1    2  503  501  0.23616026738E+02  0.26022363892E+02 -0.33707299781E+03  0.33889981705E+03  0.00000000000E+00 0. -1.
</event>
<event>
 4    1  0.6109945E+002  0.2116028E+02  0.7546771E-02  0.1516989E+00
          2   -1    0    0  503    0  0.00000000000E+00  0.00000000000E+00  0.59319762252E+03  0.59319762252E+03  0.00000000000E+00 0.  1.
         -2   -1    0    0    0  501 -0.00000000000E+00 -0.00000000000E+00 -0.84567876198E+00  0.84567876198E+00  0.00000000000E+00 0. -1.
         21    1    1    2  502  501 -0.77258334111E+01  0.19699462778E+02  0.19881852403E+03  0.19994139850E+03  0.00000000000E+00 0.  1.
         21    1    1    2  503  502  0.77258334111E+01 -0.19699462778E+02  0.39353341973E+03  0.39410190279E+03  0.00000000000E+00 0. -1.
</event>
<event>
 4    1  0.6109945E+002  0.2563130E+02  0.7546771E-02  0.1461863E+00
          2   -1    0    0  503    0  0.00000000000E+00  0.00000000000E+00  0.19466796520E+04  0.19466796520E+04  0.00000000000E+00 0.  1.
         -2   -1    0    0    0  501 -0.00000000000E+00 -0.00000000000E+00 -0.78353169663E+00  0.78353169663E+00  0.00000000000E+00 0. -1.
         21    1    1    2  502  501  0.16423399246E+02 -0.19678296349E+02  0.23825812839E+03  0.23963284235E+03  0.00000000000E+00 0. -1.
         21    1    1    2  503  502 -0.16423399246E+02  0.19678296349E+02  0.17076379920E+04  0.17078303414E+04  0.00000000000E+00 0.  1.
</event>
<event>
 4    1  0.6109945E+002  0.3046370E+02  0.7546771E-02  0.1415609E+00
          2   -1    0    0  503    0  0.00000000000E+00  0.00000000000E+00  0.70035996493E+03  0.70035996493E+03  0.00000000000E+00 0.  1.
         -2   -1    0    0    0  501 -0.00000000000E+00 -0.00000000000E+00 -0.15494145261E+01  0.15494145261E+01  0.00000000000E+00 0. -1.
         21    1    1    2  502  501 -0.15933483538E+02  0.25964610470E+02  0.21586573065E+03  0.21800470307E+03  0.00000000000E+00 0. -1.
         21    1    1    2  503  502  0.15933483538E+02 -0.25964610470E+02  0.48294481976E+03  0.48390467639E+03  0.00000000000E+00 0.  1.
</event>
<event>
 4    1  0.6109945E+002  0.3408389E+02  0.7546771E-02  0.1387121E+00
          2   -1    0    0  503    0  0.00000000000E+00  0.00000000000E+00  0.34345916152E+03  0.34345916152E+03  0.00000000000E+00 0. -1.
         -2   -1    0    0    0  501 -0.00000000000E+00 -0.00000000000E+00 -0.58096973851E+01  0.58096973851E+01  0.00000000000E+00 0.  1.
         21    1    1    2  502  501  0.17422180531E+02 -0.29294695379E+02  0.55945034718E+02  0.65509987493E+02  0.00000000000E+00 0.  1.
         21    1    1    2  503  502 -0.17422180531E+02  0.29294695379E+02  0.28170442942E+03  0.28375887142E+03  0.00000000000E+00 0. -1.
</event>
<event>
 4    1  0.6109945E+002  0.2004977E+02  0.7546771E-02  0.1533276E+00
          2   -1    0    0  503    0  0.00000000000E+00  0.00000000000E+00  0.11625505583E+04  0.11625505583E+04  0.00000000000E+00 0.  1.
         -2   -1    0    0    0  501 -0.00000000000E+00 -0.00000000000E+00 -0.34616949189E+00  0.34616949189E+00  0.00000000000E+00 0. -1.
         21    1    1    2  502  501  0.99743086124E+01 -0.17392717171E+02  0.56174360886E+03  0.56210130362E+03  0.00000000000E+00 0. -1.
         21    1    1    2  503  502 -0.99743086124E+01  0.17392717171E+02  0.60046077998E+03  0.60079542420E+03  0.00000000000E+00 0.  1.
</event>
<event>
 4    1  0.6109945E+002  0.2584996E+02  0.7546771E-02  0.1459515E+00
          2   -1    0    0  503    0  0.00000000000E+00  0.00000000000E+00  0.73838648700E+01  0.73838648700E+01  0.00000000000E+00 0.  1.
         -2   -1    0    0    0  501 -0.00000000000E+00 -0.00000000000E+00 -0.17437428550E+03  0.17437428550E+03  0.00000000000E+00 0. -1.
         21    1    1    2  502  501 -0.11392405230E+02 -0.23204172261E+02 -0.14652470847E+03  0.14878746822E+03  0.00000000000E+00 0. -1.
         21    1    1    2  503  502  0.11392405230E+02  0.23204172261E+02 -0.20465712163E+02  0.32970682153E+02  0.00000000000E+00 0.  1.
</event>
<event>
 4    1  0.6109945E+002  0.2460719E+02  0.7546771E-02  0.1473246E+00
          2   -1    0    0  503    0  0.00000000000E+00  0.00000000000E+00  0.11553472890E+04  0.11553472890E+04  0.00000000000E+00 0.  1.
         -2   -1    0    0    0  501 -0.00000000000E+00 -0.00000000000E+00 -0.53869850602E+00  0.53869850602E+00  0.00000000000E+00 0. -1.
         21    1    1    2  502  501 -0.11040661982E+02  0.21991310159E+02  0.48225351763E+03  0.48288090582E+03  0.00000000000E+00 0. -1.
         21    1    1    2  503  502  0.11040661982E+02 -0.21991310159E+02  0.67255507284E+03  0.67300508166E+03  0.00000000000E+00 0.  1.
</event>
<event>
 4    1  0.6109945E+002  0.2395587E+02  0.7546771E-02  0.1480832E+00
          2   -1    0    0  503    0  0.00000000000E+00  0.00000000000E+00  0.10530423707E+04  0.10530423707E+04  0.00000000000E+00 0.  1.
         -2   -1    0    0    0  501 -0.00000000000E+00 -0.00000000000E+00 -0.63644118096E+00  0.63644118096E+00  0.00000000000E+00 0. -1.
         21    1    1    2  502  501 -0.22605043380E+02  0.79306851523E+01  0.32648142400E+03  0.32735913608E+03  0.00000000000E+00 0. -1.
         21    1    1    2  503  502  0.22605043380E+02 -0.79306851523E+01  0.72592450555E+03  0.72631967584E+03  0.00000000000E+00 0.  1.
</event>
<event>
 4    1  0.6109945E+002  0.2141721E+02  0.7546771E-02  0.1513391E+00
          2   -1    0    0  503    0  0.00000000000E+00  0.00000000000E+00  0.12925969767E+03  0.12925969767E+03  0.00000000000E+00 0. -1.
         -2   -1    0    0    0  501 -0.00000000000E+00 -0.00000000000E+00 -0.35830258020E+01  0.35830258020E+01  0.00000000000E+00 0.  1.
         21    1    1    2  502  501 -0.11631391264E+02  0.17983533421E+02  0.56331903841E+02  0.60265911819E+02  0.00000000000E+00 0. -1.
         21    1    1    2  503  502  0.11631391264E+02 -0.17983533421E+02  0.69344768031E+02  0.72576811657E+02  0.00000000000E+00 0.  1.
</event>
<event>
 4    1  0.6109945E+002  0.2864751E+02  0.7546771E-02  0.1431725E+00
          2   -1    0    0  502    0  0.00000000000E+00  0.00000000000E+00  0.20721733908E+04  0.20721733908E+04  0.00000000000E+00 0.  1.
         -2   -1    0    0    0  501 -0.00000000000E+00 -0.00000000000E+00 -0.47095787268E+00  0.47095787268E+00  0.00000000000E+00 0. -1.
         21    1    1    2  502  503  0.26436749392E+02 -0.11035310853E+02  0.14491591499E+04  0.14494422795E+04  0.00000000000E+00 0.  1.
         21    1    1    2  503  501 -0.26436749392E+02  0.11035310853E+02  0.62254328297E+03  0.62320206914E+03  0.00000000000E+00 0. -1.
</event>
<event>
 4    1  0.6109945E+002  0.8504723E+02  0.7546771E-02  0.1192591E+00
          2   -1    0    0  502    0  0.00000000000E+00  0.00000000000E+00  0.81077643773E+03  0.81077643773E+03  0.00000000000E+00 0. -1.
         -2   -1    0    0    0  501 -0.00000000000E+00 -0.00000000000E+00 -0.28419402322E+02  0.28419402322E+02  0.00000000000E+00 0.  1.
         21    1    1    2  502  503 -0.82995353104E+02  0.18568847269E+02  0.73873394711E+03  0.74361339105E+03  0.00000000000E+00 0. -1.
         21    1    1    2  503  501  0.82995353104E+02 -0.18568847269E+02  0.43623088295E+02  0.95582449006E+02  0.00000000000E+00 0.  1.
</event>
<event>
 4    1  0.6109945E+002  0.2053804E+02  0.7546771E-02  0.1525964E+00
          2   -1    0    0  503    0  0.00000000000E+00  0.00000000000E+00  0.47260043744E+01  0.47260043744E+01  0.00000000000E+00 0.  1.
         -2   -1    0    0    0  501 -0.00000000000E+00 -0.00000000000E+00 -0.97036653351E+02  0.97036653351E+02  0.00000000000E+00 0. -1.
         21    1    1    2  502  501 -0.17993542661E+02  0.99016825989E+01 -0.31744879252E+02  0.37809367285E+02  0.00000000000E+00 0. -1.
         21    1    1    2  503  502  0.17993542661E+02 -0.99016825989E+01 -0.60565769725E+02  0.63953290440E+02  0.00000000000E+00 0.  1.
</event>
<event>
 4    1  0.6109945E+002  0.2085143E+02  0.7546771E-02  0.1521397E+00
          2   -1    0    0  502    0  0.00000000000E+00  0.00000000000E+00  0.63400174170E+03  0.63400174170E+03  0.00000000000E+00 0.  1.
         -2   -1    0    0    0  501 -0.00000000000E+00 -0.00000000000E+00 -0.88024820009E+00  0.88024820009E+00  0.00000000000E+00 0. -1.
         21    1    1    2  502  503  0.17458603718E+02  0.11400842164E+02  0.46576843348E+03  0.46623493613E+03  0.00000000000E+00 0.  1.
         21    1    1    2  503  501 -0.17458603718E+02 -0.11400842164E+02  0.16735306002E+03  0.16864705377E+03  0.00000000000E+00 0. -1.
</event>
<event>
 4    1  0.6109945E+002  0.4014667E+02  0.7546771E-02  0.1347628E+00
          2   -1    0    0  503    0  0.00000000000E+00  0.00000000000E+00  0.46463752509E+03  0.46463752509E+03  0.00000000000E+00 0.  1.
         -2   -1    0    0    0  501 -0.00000000000E+00 -0.00000000000E+00 -0.99964421185E+01  0.99964421185E+01  0.00000000000E+00 0. -1.
         21    1    1    2  502  501 -0.33914378037E+02  0.21484184280E+02  0.35549605718E+02  0.53623965524E+02  0.00000000000E+00 0. -1.
         21    1    1    2  503  502  0.33914378037E+02 -0.21484184280E+02  0.41909147725E+03  0.42101000168E+03  0.00000000000E+00 0.  1.
</event>
<event>
 4    1  0.6109945E+002  0.2208518E+02  0.7546771E-02  0.1504316E+00
          2   -1    0    0  503    0  0.00000000000E+00  0.00000000000E+00  0.17101768331E+01  0.17101768331E+01  0.00000000000E+00 0. -1.
         -2   -1    0    0    0  501 -0.00000000000E+00 -0.00000000000E+00 -0.56384556314E+03  0.56384556314E+03  0.00000000000E+00 0.  1.
         21    1    1    2  502  501  0.75729536250E+01  0.20746222423E+02 -0.47985356061E+03  0.48036152532E+03  0.00000000000E+00 0.  1.
         21    1    1    2  503  502 -0.75729536250E+01 -0.20746222423E+02 -0.82281825694E+02  0.85194214656E+02  0.00000000000E+00 0. -1.
</event>
<event>
 4    1  0.6109945E+002  0.2151156E+02  0.7546771E-02  0.1512085E+00
          2   -1    0    0  503    0  0.00000000000E+00  0.00000000000E+00  0.15262116071E+04  0.15262116071E+04  0.00000000000E+00 0.  1.
         -2   -1    0    0    0  501 -0.00000000000E+00 -0.00000000000E+00 -0.31316302438E+00  0.31316302438E+00  0.00000000000E+00 0. -1.
         21    1    1    2  502  501 -0.18740136467E+02 -0.10561930938E+02  0.89908990373E+03  0.89934720886E+03  0.00000000000E+00 0.  1.
         21    1    1    2  503  502  0.18740136467E+02  0.10561930938E+02  0.62680854035E+03  0.62717756127E+03  0.00000000000E+00 0. -1.
</event>
<event>
 4    1  0.6109945E+002  0.2301905E+02  0.7546771E-02  0.1492259E+00
          2   -1    0    0  502    0  0.00000000000E+00  0.00000000000E+00  0.14259181428E+02  0.14259181428E+02  0.00000000000E+00 0.  1.
         -2   -1    0    0    0  501 -0.00000000000E+00 -0.00000000000E+00 -0.47832362007E+02  0.47832362007E+02  0.00000000000E+00 0. -1.
         21    1    1    2  502  503 -0.21195299773E+02 -0.89797408398E+01 -0.31450989091E+02  0.38974878997E+02  0.00000000000E+00 0.  1.
         21    1    1    2  503  501  0.21195299773E+02  0.89797408398E+01 -0.21221914880E+01  0.23116664438E+02  0.00000000000E+00 0. -1.
</event>
<event>
 4    1  0.6109945E+002  0.2248213E+02  0.7546771E-02  0.1499105E+00
          2   -1    0    0  502    0  0.00000000000E+00  0.00000000000E+00  0.25642820365E+04  0.25642820365E+04  0.00000000000E+00 0. -1.
         -2   -1    0    0    0  501 -0.00000000000E+00 -0.00000000000E+00 -0.20185418397E+00  0.20185418397E+00  0.00000000000E+00 0.  1.
         21    1    1    2  502  503 -0.16679566338E+02 -0.15074430276E+02  0.10854695243E+04  0.10857023232E+04  0.00000000000E+00 0. -1.
         21    1    1    2  503  501  0.16679566338E+02  0.15074430276E+02  0.14786106580E+04  0.14787815675E+04  0.00000000000E+00 0.  1.
</event>
<event>
 4    1  0.6109945E+002  0.3253811E+02  0.7546771E-02  0.1398749E+00
          2   -1    0    0  503    0  0.00000000000E+00  0.00000000000E+00  0.10472861450E+04  0.10472861450E+04  0.00000000000E+00 0. -1.
         -2   -1    0    0    0  501 -0.00000000000E+00 -0.00000000000E+00 -0.13951728446E+01  0.13951728446E+01  0.00000000000E+00 0.  1.
         21    1    1    2  502  501  0.30958880161E+02  0.10013804695E+02  0.24777312075E+03  0.24990047601E+03  0.00000000000E+00 0.  1.
         21    1    1    2  503  502 -0.30958880161E+02 -0.10013804695E+02  0.79811785140E+03  0.79878084182E+03  0.00000000000E+00 0. -1.
</event>
<event>
 4    1  0.6109945E+002  0.4258489E+02  0.7546771E-02  0.1333970E+00
          2   -1    0    0  503    0  0.00000000000E+00  0.00000000000E+00  0.32013526769E+03  0.32013526769E+03  0.00000000000E+00 0.  1.
         -2   -1    0    0    0  501 -0.00000000000E+00 -0.00000000000E+00 -0.10148686776E+02  0.10148686776E+02  0.00000000000E+00 0. -1.
         21    1    1    2  502  501 -0.17702892281E+02  0.38730867058E+02  0.45223108703E+02  0.62117646598E+02  0.00000000000E+00 0. -1.
         21    1    1    2  503  502  0.17702892281E+02 -0.38730867058E+02  0.26476347221E+03  0.26816630787E+03  0.00000000000E+00 0.  1.
</event>
<event>
 4    1  0.6109945E+002  0.2001411E+02  0.7546771E-02  0.1533820E+00
          2   -1    0    0  502    0  0.00000000000E+00  0.00000000000E+00  0.19122380317E+02  0.19122380317E+02  0.00000000000E+00 0. -1.
         -2   -1    0    0    0  501 -0.00000000000E+00 -0.00000000000E+00 -0.12829226950E+03  0.12829226950E+03  0.00000000000E+00 0.  1.
         21    1    1    2  502  503  0.19119234520E+02  0.59177109199E+01  0.12836960806E+02  0.23777131742E+02  0.00000000000E+00 0. -1.
         21    1    1    2  503  501 -0.19119234520E+02 -0.59177109199E+01 -0.12200684999E+03  0.12363751807E+03  0.00000000000E+00 0.  1.
</event>
<event>
 4    1  0.6109945E+002  0.4007799E+02  0.7546771E-02  0.1348029E+00
          2   -1    0    0  503    0  0.00000000000E+00  0.00000000000E+00  0.13493764853E+02  0.13493764853E+02  0.00000000000E+00 0.  1.
         -2   -1    0    0    0  501 -0.00000000000E+00 -0.00000000000E+00 -0.12827018742E+03  0.12827018742E+03  0.00000000000E+00 0. -1.
         21    1    1    2  502  501 -0.37340005922E+02 -0.14559157550E+02 -0.38369985541E+02  0.55484240116E+02  0.00000000000E+00 0. -1.
         21    1    1    2  503  502  0.37340005922E+02  0.14559157550E+02 -0.76406437031E+02  0.86279712161E+02  0.00000000000E+00 0.  1.
</event>
<event>
 4    1  0.6109945E+002  0.2005590E+02  0.7546771E-02  0.1533183E+00
          2   -1    0    0  503    0  0.00000000000E+00  0.00000000000E+00  0.23853775580E+03  0.23853775580E+03  0.00000000000E+00 0.  1.
         -2   -1    0    0    0  501 -0.00000000000E+00 -0.00000000000E+00 -0.19850004265E+01  0.19850004265E+01  0.00000000000E+00 0. -1.
         21    1    1    2  502  501  0.19878847144E+02 -0.26590688910E+01  0.16492997617E+03  0.16614492545E+03  0.00000000000E+00 0.  1.
         21    1    1    2  503  502 -0.19878847144E+02  0.26590688910E+01  0.71622779197E+02  0.74377830777E+02  0.00000000000E+00 0. -1.
</event>
<event>
 4    1  0.6109945E+002  0.2408913E+02  0.7546771E-02  0.1479257E+00
          2   -1    0    0  503    0  0.00000000000E+00  0.00000000000E+00  0.15697242552E+02  0.15697242552E+02  0.00000000000E+00 0. -1.
         -2   -1    0    0    0  501 -0.00000000000E+00 -0.00000000000E+00 -0.12483808726E+03  0.12483808726E+03  0.00000000000E+00 0.  1.
         21    1    1    2  502  501  0.23853544400E+02  0.33607624581E+01 -0.11352315905E+03  0.11605082484E+03  0.00000000000E+00 0.  1.
         21    1    1    2  503  502 -0.23853544400E+02 -0.33607624581E+01  0.43823143439E+01  0.24484504972E+02  0.00000000000E+00 0. -1.
</event>
<event>
 4    1  0.6109945E+002  0.2293606E+02  0.7546771E-02  0.1493303E+00
          2   -1    0    0  503    0  0.00000000000E+00  0.00000000000E+00  0.18456697463E+04  0.18456697463E+04  0.00000000000E+00 0. -1.
         -2   -1    0    0    0  501 -0.00000000000E+00 -0.00000000000E+00 -0.66262873790E+00  0.66262873790E+00  0.00000000000E+00 0.  1.
         21    1    1    2  502  501  0.13096668736E+02 -0.18829234130E+02  0.22561608540E+03  0.22677892490E+03  0.00000000000E+00 0.  1.
         21    1    1    2  503  502 -0.13096668736E+02  0.18829234130E+02  0.16193910322E+04  0.16195534501E+04  0.00000000000E+00 0. -1.
</event>
<event>
 4    1  0.6109945E+002  0.2670136E+02  0.7546771E-02  0.1450631E+00
          2   -1    0    0  503    0  0.00000000000E+00  0.00000000000E+00  0.18458585484E+04  0.18458585484E+04  0.00000000000E+00 0.  1.
         -2   -1    0    0    0  501 -0.00000000000E+00 -0.00000000000E+00 -0.11175692486E+01  0.11175692486E+01  0.00000000000E+00 0. -1.
         21    1    1    2  502  501  0.25235097056E+02  0.87265517431E+01  0.17532410112E+03  0.17734571679E+03  0.00000000000E+00 0. -1.
         21    1    1    2  503  502 -0.25235097056E+02 -0.87265517431E+01  0.16694168781E+04  0.16696304009E+04  0.00000000000E+00 0.  1.
</event>
<event>
 4    1  0.6109945E+002  0.2160137E+02  0.7546771E-02  0.1510849E+00
          2   -1    0    0  503    0  0.00000000000E+00  0.00000000000E+00  0.11797266161E+04  0.11797266161E+04  0.00000000000E+00 0.  1.
         -2   -1    0    0    0  501 -0.00000000000E+00 -0.00000000000E+00 -0.41468214574E+00  0.41468214574E+00  0.00000000000E+00 0. -1.
         21    1    1    2  502  501  0.46163825852E+01  0.21102326562E+02  0.46285086019E+03  0.46335465677E+03  0.00000000000E+00 0. -1.
         21    1    1    2  503  502 -0.46163825852E+01 -0.21102326562E+02  0.71646107375E+03  0.71678664146E+03  0.00000000000E+00 0.  1.
</event>
<event>
 4    1  0.6109945E+002  0.2816872E+02  0.7546771E-02  0.1436209E+00
          2   -1    0    0  503    0  0.00000000000E+00  0.00000000000E+00  0.25444387244E+02  0.25444387244E+02  0.00000000000E+00 0.  1.
         -2   -1    0    0    0  501 -0.00000000000E+00 -0.00000000000E+00 -0.53304406016E+02  0.53304406016E+02  0.00000000000E+00 0. -1.
         21    1    1    2  502  501 -0.73283477136E+01 -0.27198754112E+02 -0.39294230042E+02  0.48347837801E+02  0.00000000000E+00 0.  1.
         21    1    1    2  503  502  0.73283477136E+01  0.27198754112E+02  0.11434211270E+02  0.30400955459E+02  0.00000000000E+00 0. -1.
</event>
<event>
 4    1  0.6109945E+002  0.3219295E+02  0.7546771E-02  0.1401450E+00
          2   -1    0    0  502    0  0.00000000000E+00  0.00000000000E+00  0.60857109469E+02  0.60857109469E+02  0.00000000000E+00 0.  1.
         -2   -1    0    0    0  501 -0.00000000000E+00 -0.00000000000E+00 -0.20612625253E+02  0.20612625253E+02  0.00000000000E+00 0. -1.
         21    1    1    2  502  503  0.25467907887E+02  0.19691921278E+02  0.31393840417E+01  0.32345661655E+02  0.00000000000E+00 0. -1.
         21    1    1    2  503  501 -0.25467907887E+02 -0.19691921278E+02  0.37105100174E+02  0.49124073067E+02  0.00000000000E+00 0.  1.
</event>
<event>
 4    1  0.6109945E+002  0.2173685E+02  0.7546771E-02  0.1508999E+00
          2   -1    0    0  503    0  0.00000000000E+00  0.00000000000E+00  0.19885151339E+01  0.19885151339E+01  0.00000000000E+00 0.  1.
         -2   -1    0    0    0  501 -0.00000000000E+00 -0.00000000000E+00 -0.60011365548E+03  0.60011365548E+03  0.00000000000E+00 0. -1.
         21    1    1    2  502  501  0.14977036816E+02 -0.15753693050E+02 -0.53304315379E+03  0.53348617065E+03  0.00000000000E+00 0. -1.
         21    1    1    2  503  502 -0.14977036816E+02  0.15753693050E+02 -0.65081986561E+02  0.68615999965E+02  0.00000000000E+00 0.  1.
</event>
<event>
 4    1  0.6109945E+002  0.2238658E+02  0.7546771E-02  0.1500348E+00
          2   -1    0    0  503    0  0.00000000000E+00  0.00000000000E+00  0.15067208190E+02  0.15067208190E+02  0.00000000000E+00 0.  1.
         -2   -1    0    0    0  501 -0.00000000000E+00 -0.00000000000E+00 -0.21919514167E+03  0.21919514167E+03  0.00000000000E+00 0. -1.
         21    1    1    2  502  501  0.50698896108E+01 -0.21804933983E+02 -0.20994272759E+03  0.21113291499E+03  0.00000000000E+00 0. -1.
         21    1    1    2  503  502 -0.50698896108E+01  0.21804933983E+02  0.58147941098E+01  0.23129434865E+02  0.00000000000E+00 0.  1.
</event>
<event>
 4    1  0.6109945E+002  0.3503290E+02  0.7546771E-02  0.1380332E+00
          2   -1    0    0  502    0  0.00000000000E+00  0.00000000000E+00  0.10042978255E+04  0.10042978255E+04  0.00000000000E+00 0. -1.
         -2   -1    0    0    0  501 -0.00000000000E+00 -0.00000000000E+00 -0.13243844747E+01  0.13243844747E+01  0.00000000000E+00 0.  1.
         21    1    1    2  502  503 -0.12004560526E+02 -0.32911918915E+02  0.64125388784E+03  0.64221013115E+03  0.00000000000E+00 0.  1.
         21    1    1    2  503  501  0.12004560526E+02  0.32911918915E+02  0.36171955318E+03  0.36341207882E+03  0.00000000000E+00 0. -1.
</event>
<event>
 4    1  0.6109945E+002  0.2272357E+02  0.7546771E-02  0.1495999E+00
          2   -1    0    0  502    0  0.00000000000E+00  0.00000000000E+00  0.95772694357E+03  0.95772694357E+03  0.00000000000E+00 0.  1.
         -2   -1    0    0    0  501 -0.00000000000E+00 -0.00000000000E+00 -0.96649495768E+00  0.96649495768E+00  0.00000000000E+00 0. -1.
         21    1    1    2  502  503 -0.10540487897E+02 -0.20131044415E+02  0.79712128002E+03  0.79744510526E+03  0.00000000000E+00 0.  1.
         21    1    1    2  503  501  0.10540487897E+02  0.20131044415E+02  0.15963916858E+03  0.16124833326E+03  0.00000000000E+00 0. -1.
</event>
<event>
 4    1  0.6109945E+002  0.2342917E+02  0.7546771E-02  0.1487178E+00
          2   -1    0    0  502    0  0.00000000000E+00  0.00000000000E+00  0.52900333108E+03  0.52900333108E+03  0.00000000000E+00 0. -1.
         -2   -1    0    0    0  501 -0.00000000000E+00 -0.00000000000E+00 -0.68881837049E+01  0.68881837049E+01  0.00000000000E+00 0.  1.
         21    1    1    2  502  503 -0.21728706785E+02 -0.87629444336E+01  0.50799781897E+03  0.50853781567E+03  0.00000000000E+00 0. -1.
         21    1    1    2  503  501  0.21728706785E+02  0.87629444336E+01  0.14117328406E+02  0.27353699111E+02  0.00000000000E+00 0.  1.
</event>
<event>
 4    1  0.6109945E+002  0.5988962E+02  0.7546771E-02  0.1260208E+00
          2   -1    0    0  503    0  0.00000000000E+00  0.00000000000E+00  0.12079349035E+04  0.12079349035E+04  0.00000000000E+00 0.  1.
         -2   -1    0    0    0  501 -0.00000000000E+00 -0.00000000000E+00 -0.43380072493E+01  0.43380072493E+01  0.00000000000E+00 0. -1.
         21    1    1    2  502  501  0.32685479307E+02  0.50183918021E+02  0.26133175583E+03  0.26810642065E+03  0.00000000000E+00 0. -1.
         21    1    1    2  503  502 -0.32685479307E+02 -0.50183918021E+02  0.94226514038E+03  0.94416649006E+03  0.00000000000E+00 0.  1.
</event>
<event>
 4    1  0.6109945E+002  0.2264932E+02  0.7546771E-02  0.1496949E+00
          2   -1    0    0  502    0  0.00000000000E+00  0.00000000000E+00  0.43142092923E+03  0.43142092923E+03  0.00000000000E+00 0. -1.
         -2   -1    0    0    0  501 -0.00000000000E+00 -0.00000000000E+00 -0.40265198662E+01  0.40265198662E+01  0.00000000000E+00 0.  1.
         21    1    1    2  502  503  0.16732853950E+02 -0.15264445792E+02  0.39646706154E+03  0.39711348831E+03  0.00000000000E+00 0. -1.
         21    1    1    2  503  501 -0.16732853950E+02  0.15264445792E+02  0.30927347825E+02  0.38333960794E+02  0.00000000000E+00 0.  1.
</event>
<event>
 4    1  0.6109945E+002  0.2509582E+02  0.7546771E-02  0.1467734E+00
          2   -1    0    0  502    0  0.00000000000E+00  0.00000000000E+00  0.18383777155E+03  0.18383777155E+03  0.00000000000E+00 0.  1.
         -2   -1    0    0    0  501 -0.00000000000E+00 -0.00000000000E+00 -0.97401779229E+01  0.97401779229E+01  0.00000000000E+00 0. -1.
         21    1    1    2  502  503  0.18109738905E+01 -0.25030393932E+02  0.16497904911E+03  0.16687686147E+03  0.00000000000E+00 0.  1.
         21    1    1    2  503  501 -0.18109738905E+01  0.25030393932E+02  0.91185445191E+01  0.26701088011E+02  0.00000000000E+00 0. -1.
</event>
<event>
 4    1  0.6109945E+002  0.5603693E+02  0.7546771E-02  0.1273927E+00
          2   -1    0    0  503    0  0.00000000000E+00  0.00000000000E+00  0.44524599857E+02  0.44524599857E+02  0.00000000000E+00 0. -1.
         -2   -1    0    0    0  501 -0.00000000000E+00 -0.00000000000E+00 -0.82646124360E+02  0.82646124360E+02  0.00000000000E+00 0.  1.
         21    1    1    2  502  501 -0.15030397355E+02 -0.53983557287E+02 -0.43410893292E+02  0.70884715972E+02  0.00000000000E+00 0. -1.
         21    1    1    2  503  502  0.15030397355E+02  0.53983557287E+02  0.52893687885E+01  0.56286008245E+02  0.00000000000E+00 0.  1.
</event>
<event>
 4    1  0.6109945E+002  0.2124328E+02  0.7546771E-02  0.1515820E+00
          2   -1    0    0  503    0  0.00000000000E+00  0.00000000000E+00  0.68767448791E+03  0.68767448791E+03  0.00000000000E+00 0.  1.
         -2   -1    0    0    0  501 -0.00000000000E+00 -0.00000000000E+00 -0.77069613761E+00  0.77069613761E+00  0.00000000000E+00 0. -1.
         21    1    1    2  502  501  0.18797566844E+02  0.98958866802E+01  0.21079678686E+03  0.21186449076E+03  0.00000000000E+00 0. -1.
         21    1    1    2  503  502 -0.18797566844E+02 -0.98958866802E+01  0.47610700491E+03  0.47658069329E+03  0.00000000000E+00 0.  1.
</event>
<event>
 4    1  0.6109945E+002  0.2062672E+02  0.7546771E-02  0.1524662E+00
          2   -1    0    0  503    0  0.00000000000E+00  0.00000000000E+00  0.13995386227E+03  0.13995386227E+03  0.00000000000E+00 0.  1.
         -2   -1    0    0    0  501 -0.00000000000E+00 -0.00000000000E+00 -0.35809225373E+01  0.35809225373E+01  0.00000000000E+00 0. -1.
         21    1    1    2  502  501  0.20451473101E+02  0.26830809729E+01  0.40293696775E+02  0.45266363619E+02  0.00000000000E+00 0. -1.
         21    1    1    2  503  502 -0.20451473101E+02 -0.26830809729E+01  0.96079242954E+02  0.98268421184E+02  0.00000000000E+00 0.  1.
</event>
<event>
 4    1  0.6109945E+002  0.2311365E+02  0.7546771E-02  0.1491076E+00
          2   -1    0    0  503    0  0.00000000000E+00  0.00000000000E+00  0.10616352653E+04  0.10616352653E+04  0.00000000000E+00 0.  1.
         -2   -1    0    0    0  501 -0.00000000000E+00 -0.00000000000E+00 -0.50376304152E+00  0.50376304152E+00  0.00000000000E+00 0. -1.
         21    1    1    2  502  501  0.73737304946E+00 -0.23101886604E+02  0.54792955018E+03  0.54841684224E+03  0.00000000000E+00 0.  1.
         21    1    1    2  503  502 -0.73737304946E+00  0.23101886604E+02  0.51320195211E+03  0.51372218615E+03  0.00000000000E+00 0. -1.
</event>
<event>
 4    1  0.6109945E+002  0.2128282E+02  0.7546771E-02  0.1515265E+00
          2   -1    0    0  503    0  0.00000000000E+00  0.00000000000E+00  0.47797269847E+03  0.47797269847E+03  0.00000000000E+00 0. -1.
         -2   -1    0    0    0  501 -0.00000000000E+00 -0.00000000000E+00 -0.17180484279E+01  0.17180484279E+01  0.00000000000E+00 0.  1.
         21    1    1    2  502  501  0.19084236118E+01 -0.21197087028E+02  0.77519475336E+02  0.80387981910E+02  0.00000000000E+00 0.  1.
         21    1    1    2  503  502 -0.19084236118E+01  0.21197087028E+02  0.39873517471E+03  0.39930276499E+03  0.00000000000E+00 0. -1.
</event>
<event>
 4    1  0.6109945E+002  0.3342080E+02  0.7546771E-02  0.1392019E+00
          2   -1    0    0  502    0  0.00000000000E+00  0.00000000000E+00  0.19837072301E+03  0.19837072301E+03  0.00000000000E+00 0. -1.
         -2   -1    0    0    0  501 -0.00000000000E+00 -0.00000000000E+00 -0.99511103880E+01  0.99511103880E+01  0.00000000000E+00 0.  1.
         21    1    1    2  502  503  0.19164207295E+02  0.27380345254E+02  0.16284321146E+03  0.16623736543E+03  0.00000000000E+00 0. -1.
         21    1    1    2  503  501 -0.19164207295E+02 -0.27380345254E+02  0.25576401162E+02  0.42084467965E+02  0.00000000000E+00 0.  1.
</event>
<event>
 4    1  0.6109945E+002  0.2087165E+02  0.7546771E-02  0.1521105E+00
          2   -1    0    0  502    0  0.00000000000E+00  0.00000000000E+00  0.21878798848E+03  0.21878798848E+03  0.00000000000E+00 0. -1.
         -2   -1    0    0    0  501 -0.00000000000E+00 -0.00000000000E+00 -0.38306908573E+01  0.38306908573E+01  0.00000000000E+00 0.  1.
         21    1    1    2  502  503 -0.39190688782E+00  0.20867972113E+02  0.18461431710E+03  0.18579039784E+03  0.00000000000E+00 0. -1.
         21    1    1    2  503  501  0.39190688782E+00 -0.20867972113E+02  0.30342980525E+02  0.36828281500E+02  0.00000000000E+00 0.  1.
</event>
<event>
 4    1  0.6109945E+002  0.3617300E+02  0.7546771E-02  0.1372499E+00
          2   -1    0    0  502    0  0.00000000000E+00  0.00000000000E+00  0.15220423025E+04  0.15220423025E+04  0.00000000000E+00 0.  1.
         -2   -1    0    0    0  501 -0.00000000000E+00 -0.00000000000E+00 -0.22040650364E+01  0.22040650364E+01  0.00000000000E+00 0. -1.
         21    1    1    2  502  503  0.15572227050E+02  0.32649524248E+02  0.13551330245E+04  0.13556157272E+04  0.00000000000E+00 0.  1.
         21    1    1    2  503  501 -0.15572227050E+02 -0.32649524248E+02  0.16470521290E+03  0.16863064029E+03  0.00000000000E+00 0. -1.
</event>
<event>
 4    1  0.6109945E+002  0.5986800E+02  0.7546771E-02  0.1260282E+00
          2   -1    0    0  503    0  0.00000000000E+00  0.00000000000E+00  0.22636072902E+03  0.22636072902E+03  0.00000000000E+00 0.  1.
         -2   -1    0    0    0  501 -0.00000000000E+00 -0.00000000000E+00 -0.38428846507E+02  0.38428846507E+02  0.00000000000E+00 0. -1.
         21    1    1    2  502  501 -0.21521394231E+02 -0.55865977056E+02 -0.75531390034E+01  0.60342586213E+02  0.00000000000E+00 0. -1.
         21    1    1    2  503  502  0.21521394231E+02  0.55865977056E+02  0.19548502152E+03  0.20444698932E+03  0.00000000000E+00 0.  1.
</event>
<event>
 4    1  0.6109945E+002  0.2365481E+02  0.7546771E-02  0.1484435E+00
          2   -1    0    0  503    0  0.00000000000E+00  0.00000000000E+00  0.54913088873E+02  0.54913088873E+02  0.00000000000E+00 0.  1.
         -2   -1    0    0    0  501 -0.00000000000E+00 -0.00000000000E+00 -0.22106278100E+02  0.22106278100E+02  0.00000000000E+00 0. -1.
         21    1    1    2  502  501 -0.64445283776E+00 -0.23646029210E+02 -0.11870592063E+02  0.26466223243E+02  0.00000000000E+00 0. -1.
         21    1    1    2  503  502  0.64445283776E+00  0.23646029210E+02  0.44677402836E+02  0.50553143730E+02  0.00000000000E+00 0.  1.
</event>
<event>
 4    1  0.6109945E+002  0.5731538E+02  0.7546771E-02  0.1269237E+00
          2   -1    0    0  503    0  0.00000000000E+00  0.00000000000E+00  0.12069988310E+04  0.12069988310E+04  0.00000000000E+00 0. -1.
         -2   -1    0    0    0  501 -0.00000000000E+00 -0.00000000000E+00 -0.51214288950E+01  0.51214288950E+01  0.00000000000E+00 0.  1.
         21    1    1    2  502  501  0.53562867740E+02  0.20397852542E+02  0.18607647347E+03  0.19470363933E+03  0.00000000000E+00 0.  1.
         21    1    1    2  503  502 -0.53562867740E+02 -0.20397852542E+02  0.10158009287E+04  0.10174166206E+04  0.00000000000E+00 0. -1.
</event>
<event>
 4    1  0.6109945E+002  0.2189990E+02  0.7546771E-02  0.1506794E+00
          2   -1    0    0  503    0  0.00000000000E+00  0.00000000000E+00  0.58023196752E+02  0.58023196752E+02  0.00000000000E+00 0. -1.
         -2   -1    0    0    0  501 -0.00000000000E+00 -0.00000000000E+00 -0.82963012624E+01  0.82963012624E+01  0.00000000000E+00 0.  1.
         21    1    1    2  502  501 -0.40132633207E+01  0.21529032868E+02  0.26875534881E+02  0.34668428200E+02  0.00000000000E+00 0. -1.
         21    1    1    2  503  502  0.40132633207E+01 -0.21529032868E+02  0.22851360609E+02  0.31651069815E+02  0.00000000000E+00 0.  1.
</event>
<event>
 4    1  0.6109945E+002  0.2366433E+02  0.7546771E-02  0.1484320E+00
          2   -1    0    0  502    0  0.00000000000E+00  0.00000000000E+00  0.10490496146E+04  0.10490496146E+04  0.00000000000E+00 0. -1.
         -2   -1    0    0    0  501 -0.00000000000E+00 -0.00000000000E+00 -0.86618059750E+00  0.86618059750E+00  0.00000000000E+00 0.  1.
         21    1    1    2  502  503  0.86100128402E+01 -0.22042418222E+02  0.84927407141E+03  0.84960370108E+03  0.00000000000E+00 0. -1.
         21    1    1    2  503  501 -0.86100128402E+01  0.22042418222E+02  0.19890936261E+03  0.20031209413E+03  0.00000000000E+00 0.  1.
</event>
<event>
 4    1  0.6109945E+002  0.2065066E+02  0.7546771E-02  0.1524311E+00
          2   -1    0    0  503    0  0.00000000000E+00  0.00000000000E+00  0.63101025371E+03  0.63101025371E+03  0.00000000000E+00 0. -1.
         -2   -1    0    0    0  501 -0.00000000000E+00 -0.00000000000E+00 -0.21471151589E+01  0.21471151589E+01  0.00000000000E+00 0.  1.
         21    1    1    2  502  501  0.18997506009E+02  0.80959661950E+01  0.52369736211E+02  0.56294219721E+02  0.00000000000E+00 0.  1.
         21    1    1    2  503  502 -0.18997506009E+02 -0.80959661950E+01  0.57649340234E+03  0.57686314915E+03  0.00000000000E+00 0. -1.
</event>
<event>
 4    1  0.6109945E+002  0.2040493E+02  0.7546771E-02  0.1527933E+00
          2   -1    0    0  502    0  0.00000000000E+00  0.00000000000E+00  0.26667810852E+03  0.26667810852E+03  0.00000000000E+00 0.  1.
         -2   -1    0    0    0  501 -0.00000000000E+00 -0.00000000000E+00 -0.15913689867E+01  0.15913689867E+01  0.00000000000E+00 0. -1.
         21    1    1    2  502  503  0.14528169174E+02  0.14328059754E+02  0.15098549326E+03  0.15235806566E+03  0.00000000000E+00 0.  1.
         21    1    1    2  503  501 -0.14528169174E+02 -0.14328059754E+02  0.11410124628E+03  0.11591141185E+03  0.00000000000E+00 0. -1.
</event>
<event>
 4    1  0.6109945E+002  0.3157889E+02  0.7546771E-02  0.1406355E+00
          2   -1    0    0  503    0  0.00000000000E+00  0.00000000000E+00  0.98976547790E+03  0.98976547790E+03  0.00000000000E+00 0. -1.
         -2   -1    0    0    0  501 -0.00000000000E+00 -0.00000000000E+00 -0.17883680567E+01  0.17883680567E+01  0.00000000000E+00 0.  1.
         21    1    1    2  502  501  0.27503084090E+02 -0.15517950789E+02  0.16639444207E+03  0.16936450863E+03  0.00000000000E+00 0.  1.
         21    1    1    2  503  502 -0.27503084090E+02  0.15517950789E+02  0.82158266777E+03  0.82218933732E+03  0.00000000000E+00 0. -1.
</event>
<event>
 4    1  0.6109945E+002  0.2364501E+02  0.7546771E-02  0.1484554E+00
          2   -1    0    0  502    0  0.00000000000E+00  0.00000000000E+00  0.17456885508E+03  0.17456885508E+03  0.00000000000E+00 0. -1.
         -2   -1    0    0    0  501 -0.00000000000E+00 -0.00000000000E+00 -0.32061493592E+01  0.32061493592E+01  0.00000000000E+00 0.  1.
         21    1    1    2  502  503  0.17833035261E+02  0.15526401494E+02  0.82752818409E+02  0.86064599253E+02  0.00000000000E+00 0. -1.
         21    1    1    2  503  501 -0.17833035261E+02 -0.15526401494E+02  0.88609887314E+02  0.91710405188E+02  0.00000000000E+00 0.  1.
</event>
<event>
 4    1  0.6109945E+002  0.2319694E+02  0.7546771E-02  0.1490040E+00
          2   -1    0    0  502    0  0.00000000000E+00  0.00000000000E+00  0.17960889227E+04  0.17960889227E+04  0.00000000000E+00 0. -1.
         -2   -1    0    0    0  501 -0.00000000000E+00 -0.00000000000E+00 -0.39191956605E+00  0.39191956605E+00  0.00000000000E+00 0.  1.
         21    1    1    2  502  503 -0.23165809659E+02  0.12014613228E+01  0.13338159738E+04  0.13340176724E+04  0.00000000000E+00 0. -1.
         21    1    1    2  503  501  0.23165809659E+02 -0.12014613228E+01  0.46188102930E+03  0.46246316985E+03  0.00000000000E+00 0.  1.
</event>
<event>
 4    1  0.6109945E+002  0.2602597E+02  0.7546771E-02  0.1457646E+00
          2   -1    0    0  502    0  0.00000000000E+00  0.00000000000E+00  0.34018761097E+03  0.34018761097E+03  0.00000000000E+00 0.  1.
         -2   -1    0    0    0  501 -0.00000000000E+00 -0.00000000000E+00 -0.20223761669E+01  0.20223761669E+01  0.00000000000E+00 0. -1.
         21    1    1    2  502  503 -0.22465280623E+02  0.13140103387E+02  0.19035739486E+03  0.19212831371E+03  0.00000000000E+00 0. -1.
         21    1    1    2  503  501  0.22465280623E+02 -0.13140103387E+02  0.14780783995E+03  0.15008167343E+03  0.00000000000E+00 0.  1.
</event>
<event>
 4    1  0.6109945E+002  0.3303413E+02  0.7546771E-02  0.1394937E+00
          2   -1    0    0  502    0  0.00000000000E+00  0.00000000000E+00  0.40081388770E+03  0.40081388770E+03  0.00000000000E+00 0.  1.
         -2   -1    0    0    0  501 -0.00000000000E+00 -0.00000000000E+00 -0.81287817173E+01  0.81287817173E+01  0.00000000000E+00 0. -1.
         21    1    1    2  502  503  0.28814806670E+02  0.16154274425E+02  0.36309232310E+03  0.36459194829E+03  0.00000000000E+00 0.  1.
         21    1    1    2  503  501 -0.28814806670E+02 -0.16154274425E+02  0.29592782885E+02  0.44350721127E+02  0.00000000000E+00 0. -1.
</event>
<event>
 4    1  0.6109945E+002  0.2010654E+02  0.7546771E-02  0.1532413E+00
          2   -1    0    0  503    0  0.00000000000E+00  0.00000000000E+00  0.63525768815E+03  0.63525768815E+03  0.00000000000E+00 0. -1.
         -2   -1    0    0    0  501 -0.00000000000E+00 -0.00000000000E+00 -0.41490864143E+01  0.41490864143E+01  0.00000000000E+00 0.  1.
         21    1    1    2  502  501  0.47926661918E+01  0.19526988239E+02  0.21389176816E+02  0.29355915993E+02  0.00000000000E+00 0.  1.
         21    1    1    2  503  502 -0.47926661918E+01 -0.19526988239E+02  0.60971942492E+03  0.61005085858E+03  0.00000000000E+00 0. -1.
</event>
<event>
 4    1  0.6109945E+002  0.2679265E+02  0.7546771E-02  0.1449702E+00
          2   -1    0    0  503    0  0.00000000000E+00  0.00000000000E+00  0.15647502547E+04  0.15647502547E+04  0.00000000000E+00 0. -1.
         -2   -1    0    0    0  501 -0.00000000000E+00 -0.00000000000E+00 -0.67009494324E+00  0.67009494324E+00  0.00000000000E+00 0.  1.
         21    1    1    2  502  501 -0.54195947448E+01  0.26238791466E+02  0.34248067854E+03  0.34352708970E+03  0.00000000000E+00 0.  1.
         21    1    1    2  503  502  0.54195947448E+01 -0.26238791466E+02  0.12215994812E+04  0.12218932599E+04  0.00000000000E+00 0. -1.
</event>
<event>
 4    1  0.6109945E+002  0.1410096E+03  0.7546771E-02  0.1107206E+00
          2   -1    0    0  503    0  0.00000000000E+00  0.00000000000E+00  0.96835531418E+03  0.96835531418E+03  0.00000000000E+00 0.  1.
         -2   -1    0    0    0  501 -0.00000000000E+00 -0.00000000000E+00 -0.20664639067E+02  0.20664639067E+02  0.00000000000E+00 0. -1.
         21    1    1    2  502  501 -0.86472564079E+02 -0.11138319824E+03  0.43445118798E+03  0.45676203424E+03  0.00000000000E+00 0. -1.
         21    1    1    2  503  502  0.86472564079E+02  0.11138319824E+03  0.51323948713E+03  0.53225791900E+03  0.00000000000E+00 0.  1.
</event>
<event>
 4    1  0.6109945E+002  0.2192775E+02  0.7546771E-02  0.1506420E+00
          2   -1    0    0  503    0  0.00000000000E+00  0.00000000000E+00  0.66586505977E+02  0.66586505977E+02  0.00000000000E+00 0. -1.
         -2   -1    0    0    0  501 -0.00000000000E+00 -0.00000000000E+00 -0.10315542016E+02  0.10315542016E+02  0.00000000000E+00 0.  1.
         21    1    1    2  502  501  0.20150791427E+02  0.86470773499E+01  0.70756639404E+01  0.23041079880E+02  0.00000000000E+00 0.  1.
         21    1    1    2  503  502 -0.20150791427E+02 -0.86470773499E+01  0.49195300021E+02  0.53860968112E+02  0.00000000000E+00 0. -1.
</event>
<event>
 4    1  0.6109945E+002  0.2063541E+02  0.7546771E-02  0.1524534E+00
          2   -1    0    0  502    0  0.00000000000E+00  0.00000000000E+00  0.89186022437E+03  0.89186022437E+03  0.00000000000E+00 0.  1.
         -2   -1    0    0    0  501 -0.00000000000E+00 -0.00000000000E+00 -0.49230315378E+00  0.49230315378E+00  0.00000000000E+00 0. -1.
         21    1    1    2  502  503 -0.14935641853E+02  0.14238923395E+02  0.52317867249E+03  0.52358546932E+03  0.00000000000E+00 0.  1.
         21    1    1    2  503  501  0.14935641853E+02 -0.14238923395E+02  0.36818924873E+03  0.36876705820E+03  0.00000000000E+00 0. -1.
</event>
<event>
 4    1  0.6109945E+002  0.2708268E+02  0.7546771E-02  0.1446779E+00
          2   -1    0    0  502    0  0.00000000000E+00  0.00000000000E+00  0.11681112446E+02  0.11681112446E+02  0.00000000000E+00 0. -1.
         -2   -1    0    0    0  501 -0.00000000000E+00 -0.00000000000E+00 -0.22382501289E+03  0.22382501289E+03  0.00000000000E+00 0.  1.
         21    1    1    2  502  503 -0.27043639132E+02  0.14536844478E+01 -0.61924461498E+01  0.27781612719E+02  0.00000000000E+00 0. -1.
         21    1    1    2  503  501  0.27043639132E+02 -0.14536844478E+01 -0.20595145429E+03  0.20772451261E+03  0.00000000000E+00 0.  1.
</event>
<event>
 4    1  0.6109945E+002  0.2311019E+02  0.7546771E-02  0.1491119E+00
          2   -1    0    0  503    0  0.00000000000E+00  0.00000000000E+00  0.10399130550E+04  0.10399130550E+04  0.00000000000E+00 0.  1.
         -2   -1    0    0    0  501 -0.00000000000E+00 -0.00000000000E+00 -0.67555994656E+01  0.67555994656E+01  0.00000000000E+00 0. -1.
         21    1    1    2  502  501  0.17889496291E+02  0.14630341202E+02  0.13530347805E+02  0.26779680225E+02  0.00000000000E+00 0. -1.
         21    1    1    2  503  502 -0.17889496291E+02 -0.14630341202E+02  0.10196271078E+04  0.10198889743E+04  0.00000000000E+00 0.  1.
</event>
<event>
 4    1  0.6109945E+002  0.2003950E+02  0.7546771E-02  0.1533433E+00
          2   -1    0    0  503    0  0.00000000000E+00  0.00000000000E+00  0.11377156868E+04  0.11377156868E+04  0.00000000000E+00 0.  1.
         -2   -1    0    0    0  501 -0.00000000000E+00 -0.00000000000E+00 -0.42162648120E+01  0.42162648120E+01  0.00000000000E+00 0. -1.
         21    1    1    2  502  501 -0.19883396391E+02  0.24964508516E+01  0.20205743258E+02  0.28457929994E+02  0.00000000000E+00 0. -1.
         21    1    1    2  503  502  0.19883396391E+02 -0.24964508516E+01  0.11132936787E+04  0.11134740216E+04  0.00000000000E+00 0.  1.
</event>
<event>
 4    1  0.6109945E+002  0.2831370E+02  0.7546771E-02  0.1434840E+00
          2   -1    0    0  502    0  0.00000000000E+00  0.00000000000E+00  0.60381466329E+03  0.60381466329E+03  0.00000000000E+00 0.  1.
         -2   -1    0    0    0  501 -0.00000000000E+00 -0.00000000000E+00 -0.29255645047E+01  0.29255645047E+01  0.00000000000E+00 0. -1.
         21    1    1    2  502  503  0.17999139702E+01 -0.28256428289E+02  0.52464799035E+03  0.52541143802E+03  0.00000000000E+00 0. -1.
         21    1    1    2  503  501 -0.17999139702E+01  0.28256428289E+02  0.76241108445E+02  0.81328789779E+02  0.00000000000E+00 0.  1.
</event>
<event>
 4    1  0.6109945E+002  0.2226617E+02  0.7546771E-02  0.1501924E+00
          2   -1    0    0  502    0  0.00000000000E+00  0.00000000000E+00  0.37555174263E+02  0.37555174263E+02  0.00000000000E+00 0.  1.
         -2   -1    0    0    0  501 -0.00000000000E+00 -0.00000000000E+00 -0.20938758010E+02  0.20938758010E+02  0.00000000000E+00 0. -1.
         21    1    1    2  502  503  0.10973795106E+02 -0.19374164715E+02  0.26086930320E+02  0.34297381400E+02  0.00000000000E+00 0.  1.
         21    1    1    2  503  501 -0.10973795106E+02  0.19374164715E+02 -0.94705140667E+01  0.24196550872E+02  0.00000000000E+00 0. -1.
</event>
<event>
 4    1  0.6109945E+002  0.2006607E+02  0.7546771E-02  0.1533028E+00
          2   -1    0    0  502    0  0.00000000000E+00  0.00000000000E+00  0.54927352147E+02  0.54927352147E+02  0.00000000000E+00 0. -1.
         -2   -1    0    0    0  501 -0.00000000000E+00 -0.00000000000E+00 -0.34268095431E+02  0.34268095431E+02  0.00000000000E+00 0.  1.
         21    1    1    2  502  503  0.16118083408E+01  0.20001235124E+02  0.49870548708E+02  0.53756106268E+02  0.00000000000E+00 0. -1.
         21    1    1    2  503  501 -0.16118083408E+01 -0.20001235124E+02 -0.29211291992E+02  0.35439341310E+02  0.00000000000E+00 0.  1.
</event>
<event>
 4    1  0.6109945E+002  0.2206261E+02  0.7546771E-02  0.1504617E+00
          2   -1    0    0  502    0  0.00000000000E+00  0.00000000000E+00  0.10743930804E+02  0.10743930804E+02  0.00000000000E+00 0.  1.
         -2   -1    0    0    0  501 -0.00000000000E+00 -0.00000000000E+00 -0.12933376852E+03  0.12933376852E+03  0.00000000000E+00 0. -1.
         21    1    1    2  502  503 -0.13158056798E+02 -0.17709445289E+02 -0.28407776997E+01  0.22244750596E+02  0.00000000000E+00 0.  1.
         21    1    1    2  503  501  0.13158056798E+02  0.17709445289E+02 -0.11574906001E+03  0.11783294872E+03  0.00000000000E+00 0. -1.
</event>
<event>
 4    1  0.6109945E+002  0.2506343E+02  0.7546771E-02  0.1468095E+00
          2   -1    0    0  503    0  0.00000000000E+00  0.00000000000E+00  0.30242593053E+03  0.30242593053E+03  0.00000000000E+00 0.  1.
         -2   -1    0    0    0  501 -0.00000000000E+00 -0.00000000000E+00 -0.21052497022E+01  0.21052497022E+01  0.00000000000E+00 0. -1.
         21    1    1    2  502  501 -0.64060364021E+01 -0.24230932529E+02  0.13255999560E+03  0.13490859063E+03  0.00000000000E+00 0.  1.
         21    1    1    2  503  502  0.64060364021E+01  0.24230932529E+02  0.16776068523E+03  0.16962258960E+03  0.00000000000E+00 0. -1.
</event>
<event>
 4    1  0.6109945E+002  0.2123057E+02  0.7546771E-02  0.1515998E+00
          2   -1    0    0  502    0  0.00000000000E+00  0.00000000000E+00  0.35604758605E+02  0.35604758605E+02  0.00000000000E+00 0.  1.
         -2   -1    0    0    0  501 -0.00000000000E+00 -0.00000000000E+00 -0.21961072642E+02  0.21961072642E+02  0.00000000000E+00 0. -1.
         21    1    1    2  502  503 -0.11491382432E+02 -0.17851762576E+02  0.25553963862E+02  0.33222618294E+02  0.00000000000E+00 0.  1.
         21    1    1    2  503  501  0.11491382432E+02  0.17851762576E+02 -0.11910277898E+02  0.24343212953E+02  0.00000000000E+00 0. -1.
</event>
<event>
 4    1  0.6109945E+002  0.2936075E+02  0.7546771E-02  0.1425234E+00
          2   -1    0    0  502    0  0.00000000000E+00  0.00000000000E+00  0.27543183774E+02  0.27543183774E+02  0.00000000000E+00 0. -1.
         -2   -1    0    0    0  501 -0.00000000000E+00 -0.00000000000E+00 -0.12526956485E+03  0.12526956485E+03  0.00000000000E+00 0.  1.
         21    1    1    2  502  503  0.87426764842E+01  0.28028904345E+02  0.17313405435E+02  0.34085302971E+02  0.00000000000E+00 0. -1.
         21    1    1    2  503  501 -0.87426764842E+01 -0.28028904345E+02 -0.11503978651E+03  0.11872744565E+03  0.00000000000E+00 0.  1.
</event>
<event>
 4    1  0.6109945E+002  0.2254567E+02  0.7546771E-02  0.1498283E+00
          2   -1    0    0  502    0  0.00000000000E+00  0.00000000000E+00  0.88269488016E+01  0.88269488016E+01  0.00000000000E+00 0. -1.
         -2   -1    0    0    0  501 -0.00000000000E+00 -0.00000000000E+00 -0.16639295894E+03  0.16639295894E+03  0.00000000000E+00 0.  1.
         21    1    1    2  502  503  0.21808600663E+02  0.57177170663E+01 -0.79371225859E+01  0.23901992935E+02  0.00000000000E+00 0. -1.
         21    1    1    2  503  501 -0.21808600663E+02 -0.57177170663E+01 -0.14962888756E+03  0.15131791481E+03  0.00000000000E+00 0.  1.
</event>
<event>
 4    1  0.6109945E+002  0.2282263E+02  0.7546771E-02  0.1494737E+00
          2   -1    0    0  503    0  0.00000000000E+00  0.00000000000E+00  0.27801085110E+02  0.27801085110E+02  0.00000000000E+00 0.  1.
         -2   -1    0    0    0  501 -0.00000000000E+00 -0.00000000000E+00 -0.18608148672E+03  0.18608148672E+03  0.00000000000E+00 0. -1.
         21    1    1    2  502  501 -0.16092287720E+02 -0.16183659705E+02 -0.18055497316E+03  0.18199167810E+03  0.00000000000E+00 0. -1.
         21    1    1    2  503  502  0.16092287720E+02  0.16183659705E+02  0.22274571547E+02  0.31890893733E+02  0.00000000000E+00 0.  1.
</event>
<event>
 4    1  0.6109945E+002  0.2935097E+02  0.7546771E-02  0.1425322E+00
          2   -1    0    0  502    0  0.00000000000E+00  0.00000000000E+00  0.69095936593E+03  0.69095936593E+03  0.00000000000E+00 0.  1.
         -2   -1    0    0    0  501 -0.00000000000E+00 -0.00000000000E+00 -0.15932451028E+01  0.15932451028E+01  0.00000000000E+00 0. -1.
         21    1    1    2  502  503 -0.12414450225E+02 -0.26596261366E+02  0.50615845428E+03  0.50700873813E+03  0.00000000000E+00 0.  1.
         21    1    1    2  503  501  0.12414450225E+02  0.26596261366E+02  0.18320766654E+03  0.18554387290E+03  0.00000000000E+00 0. -1.
</event>
<event>
 4    1  0.6109945E+002  0.6949833E+02  0.7546771E-02  0.1230581E+00
          2   -1    0    0  502    0  0.00000000000E+00  0.00000000000E+00  0.20004885084E+04  0.20004885084E+04  0.00000000000E+00 0. -1.
         -2   -1    0    0    0  501 -0.00000000000E+00 -0.00000000000E+00 -0.52533564653E+01  0.52533564653E+01  0.00000000000E+00 0.  1.
         21    1    1    2  502  503 -0.60460101916E+01 -0.69234839747E+02  0.17348501717E+04  0.17362416697E+04  0.00000000000E+00 0. -1.
         21    1    1    2  503  501  0.60460101916E+01  0.69234839747E+02  0.26038498019E+03  0.26950019514E+03  0.00000000000E+00 0.  1.
</event>
<event>
 4    1  0.6109945E+002  0.2337842E+02  0.7546771E-02  0.1487800E+00
          2   -1    0    0  502    0  0.00000000000E+00  0.00000000000E+00  0.73240299957E+03  0.73240299957E+03  0.00000000000E+00 0. -1.
         -2   -1    0    0    0  501 -0.00000000000E+00 -0.00000000000E+00 -0.74737924076E+00  0.74737924076E+00  0.00000000000E+00 0.  1.
         21    1    1    2  502  503  0.53005111097E+01 -0.22769605001E+02  0.38012337191E+03  0.38084160514E+03  0.00000000000E+00 0. -1.
         21    1    1    2  503  501 -0.53005111097E+01  0.22769605001E+02  0.35153224842E+03  0.35230877368E+03  0.00000000000E+00 0.  1.
</event>
<event>
 4    1  0.6109945E+002  0.2746498E+02  0.7546771E-02  0.1442992E+00
          2   -1    0    0  503    0  0.00000000000E+00  0.00000000000E+00  0.42610831385E+03  0.42610831385E+03  0.00000000000E+00 0. -1.
         -2   -1    0    0    0  501 -0.00000000000E+00 -0.00000000000E+00 -0.21436453945E+01  0.21436453945E+01  0.00000000000E+00 0.  1.
         21    1    1    2  502  501  0.92705988326E+01 -0.25853070642E+02  0.12261726721E+03  0.12565555890E+03  0.00000000000E+00 0.  1.
         21    1    1    2  503  502 -0.92705988326E+01  0.25853070642E+02  0.30134740124E+03  0.30259640034E+03  0.00000000000E+00 0. -1.
</event>
<event>
 4    1  0.6109945E+002  0.2388686E+02  0.7546771E-02  0.1481652E+00
          2   -1    0    0  503    0  0.00000000000E+00  0.00000000000E+00  0.19159412136E+01  0.19159412136E+01  0.00000000000E+00 0. -1.
         -2   -1    0    0    0  501 -0.00000000000E+00 -0.00000000000E+00 -0.48357969062E+03  0.48357969062E+03  0.00000000000E+00 0.  1.
         21    1    1    2  502  501  0.22691793684E+02 -0.74608625588E+01 -0.39128855248E+03  0.39201698085E+03  0.00000000000E+00 0.  1.
         21    1    1    2  503  502 -0.22691793684E+02  0.74608625588E+01 -0.90375196918E+02  0.93478650978E+02  0.00000000000E+00 0. -1.
</event>
<event>
 4    1  0.6109945E+002  0.5323467E+02  0.7546771E-02  0.1284726E+00
          2   -1    0    0  502    0  0.00000000000E+00  0.00000000000E+00  0.84937057167E+02  0.84937057167E+02  0.00000000000E+00 0. -1.
         -2   -1    0    0    0  501 -0.00000000000E+00 -0.00000000000E+00 -0.33543326542E+02  0.33543326542E+02  0.00000000000E+00 0.  1.
         21    1    1    2  502  503  0.26337206675E+02  0.46263173135E+02  0.30015570335E+02  0.61113534560E+02  0.00000000000E+00 0.  1.
         21    1    1    2  503  501 -0.26337206675E+02 -0.46263173135E+02  0.21378160290E+02  0.57366849149E+02  0.00000000000E+00 0. -1.
</event>
<event>
 4    1  0.6109945E+002  0.2191131E+02  0.7546771E-02  0.1506641E+00
          2   -1    0    0  503    0  0.00000000000E+00  0.00000000000E+00  0.26116607491E+03  0.26116607491E+03  0.00000000000E+00 0.  1.
         -2   -1    0    0    0  501 -0.00000000000E+00 -0.00000000000E+00 -0.21619510996E+01  0.21619510996E+01  0.00000000000E+00 0. -1.
         21    1    1    2  502  501 -0.68116561777E-01 -0.21911208245E+02  0.78560508076E+02  0.81558930325E+02  0.00000000000E+00 0. -1.
         21    1    1    2  503  502  0.68116561777E-01  0.21911208245E+02  0.18044361573E+03  0.18176909568E+03  0.00000000000E+00 0.  1.
</event>
<event>
 4    1  0.6109945E+002  0.2277187E+02  0.7546771E-02  0.1495383E+00
          2   -1    0    0  503    0  0.00000000000E+00  0.00000000000E+00  0.91982625215E+02  0.91982625215E+02  0.00000000000E+00 0.  1.
         -2   -1    0    0    0  501 -0.00000000000E+00 -0.00000000000E+00 -0.57497764242E+01  0.57497764242E+01  0.00000000000E+00 0. -1.
         21    1    1    2  502  501  0.17988097998E+02 -0.13963753159E+02  0.36289883100E+02  0.42842895412E+02  0.00000000000E+00 0.  1.
         21    1    1    2  503  502 -0.17988097998E+02  0.13963753159E+02  0.49942965691E+02  0.54889506228E+02  0.00000000000E+00 0. -1.
</event>
<event>
 4    1  0.6109945E+002  0.2377319E+02  0.7546771E-02  0.1483011E+00
          2   -1    0    0  502    0  0.00000000000E+00  0.00000000000E+00  0.23886032774E+03  0.23886032774E+03  0.00000000000E+00 0. -1.
         -2   -1    0    0    0  501 -0.00000000000E+00 -0.00000000000E+00 -0.31462725013E+01  0.31462725013E+01  0.00000000000E+00 0.  1.
         21    1    1    2  502  503 -0.13631573127E+02  0.19476774372E+02  0.17811267283E+03  0.17969220558E+03  0.00000000000E+00 0. -1.
         21    1    1    2  503  501  0.13631573127E+02 -0.19476774372E+02  0.57601382409E+02  0.62314394656E+02  0.00000000000E+00 0.  1.
</event>
<event>
 4    1  0.6109945E+002  0.2558918E+02  0.7546771E-02  0.1462319E+00
          2   -1    0    0  503    0  0.00000000000E+00  0.00000000000E+00  0.15868302766E+03  0.15868302766E+03  0.00000000000E+00 0. -1.
         -2   -1    0    0    0  501 -0.00000000000E+00 -0.00000000000E+00 -0.13986762616E+02  0.13986762616E+02  0.00000000000E+00 0.  1.
         21    1    1    2  502  501  0.78224452413E+01 -0.24364222627E+02 -0.14083903013E+00  0.25589564854E+02  0.00000000000E+00 0.  1.
         21    1    1    2  503  502 -0.78224452413E+01  0.24364222627E+02  0.14483710407E+03  0.14708022542E+03  0.00000000000E+00 0. -1.
</event>
<event>
 4    1  0.6109945E+002  0.2893600E+02  0.7546771E-02  0.1429073E+00
          2   -1    0    0  502    0  0.00000000000E+00  0.00000000000E+00  0.95981161161E+03  0.95981161161E+03  0.00000000000E+00 0.  1.
         -2   -1    0    0    0  501 -0.00000000000E+00 -0.00000000000E+00 -0.97468330393E+00  0.97468330393E+00  0.00000000000E+00 0. -1.
         21    1    1    2  502  503 -0.23567072505E+02  0.16789433345E+02  0.63507696122E+03  0.63573582457E+03  0.00000000000E+00 0.  1.
         21    1    1    2  503  501  0.23567072505E+02 -0.16789433345E+02  0.32375996709E+03  0.32505047034E+03  0.00000000000E+00 0. -1.
</event>
<event>
 4    1  0.6109945E+002  0.2707456E+02  0.7546771E-02  0.1446861E+00
          2   -1    0    0  502    0  0.00000000000E+00  0.00000000000E+00  0.11314452090E+03  0.11314452090E+03  0.00000000000E+00 0. -1.
         -2   -1    0    0    0  501 -0.00000000000E+00 -0.00000000000E+00 -0.14002813181E+02  0.14002813181E+02  0.00000000000E+00 0.  1.
         21    1    1    2  502  503  0.26963091892E+02 -0.24542890633E+01  0.96172005581E+02  0.99910392435E+02  0.00000000000E+00 0. -1.
         21    1    1    2  503  501 -0.26963091892E+02  0.24542890633E+01  0.29697021344E+01  0.27236941641E+02  0.00000000000E+00 0.  1.
</event>
<event>
 4    1  0.6109945E+002  0.2857430E+02  0.7546771E-02  0.1432404E+00
          2   -1    0    0  503    0  0.00000000000E+00  0.00000000000E+00  0.63160078619E+03  0.63160078619E+03  0.00000000000E+00 0.  1.
         -2   -1    0    0    0  501 -0.00000000000E+00 -0.00000000000E+00 -0.32682649063E+01  0.32682649063E+01  0.00000000000E+00 0. -1.
         21    1    1    2  502  501 -0.12891888159E+01 -0.28545202829E+02  0.67370521095E+02  0.73179763083E+02  0.00000000000E+00 0. -1.
         21    1    1    2  503  502  0.12891888159E+01  0.28545202829E+02  0.56096200019E+03  0.56168928801E+03  0.00000000000E+00 0.  1.
</event>
<event>
 4    1  0.6109945E+002  0.2515182E+02  0.7546771E-02  0.1467112E+00
          2   -1    0    0  502    0  0.00000000000E+00  0.00000000000E+00  0.15767106672E+03  0.15767106672E+03  0.00000000000E+00 0. -1.
         -2   -1    0    0    0  501 -0.00000000000E+00 -0.00000000000E+00 -0.32568569961E+02  0.32568569961E+02  0.00000000000E+00 0.  1.
         21    1    1    2  502  503 -0.14254757958E+01 -0.25111389328E+02  0.15161948984E+03  0.15369152077E+03  0.00000000000E+00 0. -1.
         21    1    1    2  503  501  0.14254757958E+01  0.25111389328E+02 -0.26516993080E+02  0.36548115919E+02  0.00000000000E+00 0.  1.
</event>
<event>
 4    1  0.6109945E+002  0.2364522E+02  0.7546771E-02  0.1484551E+00
          2   -1    0    0  502    0  0.00000000000E+00  0.00000000000E+00  0.25002232921E+03  0.25002232921E+03  0.00000000000E+00 0.  1.
         -2   -1    0    0    0  501 -0.00000000000E+00 -0.00000000000E+00 -0.28083418926E+01  0.28083418926E+01  0.00000000000E+00 0. -1.
         21    1    1    2  502  503 -0.13834281408E+02 -0.19175736122E+02  0.66546921589E+02  0.70622864364E+02  0.00000000000E+00 0. -1.
         21    1    1    2  503  501  0.13834281408E+02  0.19175736122E+02  0.18066706573E+03  0.18220780674E+03  0.00000000000E+00 0.  1.
</event>
<event>
 4    1  0.6109945E+002  0.2226795E+02  0.7546771E-02  0.1501901E+00
          2   -1    0    0  502    0  0.00000000000E+00  0.00000000000E+00  0.14772926346E+04  0.14772926346E+04  0.00000000000E+00 0. -1.
         -2   -1    0    0    0  501 -0.00000000000E+00 -0.00000000000E+00 -0.33705824034E+00  0.33705824034E+00  0.00000000000E+00 0.  1.
         21    1    1    2  502  503  0.22118510479E+02  0.25755201266E+01  0.78613499940E+03  0.78645031572E+03  0.00000000000E+00 0.  1.
         21    1    1    2  503  501 -0.22118510479E+02 -0.25755201266E+01  0.69082057692E+03  0.69117937708E+03  0.00000000000E+00 0. -1.
</event>
<event>
 4    1  0.6109945E+002  0.2158294E+02  0.7546771E-02  0.1511102E+00
          2   -1    0    0  503    0  0.00000000000E+00  0.00000000000E+00  0.54507765538E+03  0.54507765538E+03  0.00000000000E+00 0.  1.
         -2   -1    0    0    0  501 -0.00000000000E+00 -0.00000000000E+00 -0.12682674424E+01  0.12682674424E+01  0.00000000000E+00 0. -1.
         21    1    1    2  502  501 -0.66467473884E+01  0.20533978000E+02  0.11589275820E+03  0.11788534645E+03  0.00000000000E+00 0. -1.
         21    1    1    2  503  502  0.66467473884E+01 -0.20533978000E+02  0.42791662973E+03  0.42846057637E+03  0.00000000000E+00 0.  1.
</event>
<event>
 4    1  0.6109945E+002  0.2460283E+02  0.7546771E-02  0.1473296E+00
          2   -1    0    0  502    0  0.00000000000E+00  0.00000000000E+00  0.11825960138E+03  0.11825960138E+03  0.00000000000E+00 0. -1.
         -2   -1    0    0    0  501 -0.00000000000E+00 -0.00000000000E+00 -0.51913127045E+01  0.51913127045E+01  0.00000000000E+00 0.  1.
         21    1    1    2  502  503  0.13594151231E+02  0.20506058756E+02  0.63849596612E+02  0.68425655867E+02  0.00000000000E+00 0.  1.
         21    1    1    2  503  501 -0.13594151231E+02 -0.20506058756E+02  0.49218692063E+02  0.55025258217E+02  0.00000000000E+00 0. -1.
</event>
<event>
 4    1  0.6109945E+002  0.5156364E+02  0.7546771E-02  0.1291532E+00
          2   -1    0    0  503    0  0.00000000000E+00  0.00000000000E+00  0.13887250530E+03  0.13887250530E+03  0.00000000000E+00 0.  1.
         -2   -1    0    0    0  501 -0.00000000000E+00 -0.00000000000E+00 -0.80213640298E+02  0.80213640298E+02  0.00000000000E+00 0. -1.
         21    1    1    2  502  501  0.43197895300E+02 -0.28155830921E+02 -0.66250672323E+02  0.83952132531E+02  0.00000000000E+00 0. -1.
         21    1    1    2  503  502 -0.43197895300E+02  0.28155830921E+02  0.12490953733E+03  0.13513401307E+03  0.00000000000E+00 0.  1.
</event>
<event>
 4    1  0.6109945E+002  0.2471531E+02  0.7546771E-02  0.1472013E+00
          2   -1    0    0  502    0  0.00000000000E+00  0.00000000000E+00  0.40739278254E+03  0.40739278254E+03  0.00000000000E+00 0.  1.
         -2   -1    0    0    0  501 -0.00000000000E+00 -0.00000000000E+00 -0.28320968259E+01  0.28320968259E+01  0.00000000000E+00 0. -1.
         21    1    1    2  502  503  0.58821671365E+01 -0.24005138737E+02  0.34298319414E+03  0.34387253167E+03  0.00000000000E+00 0.  1.
         21    1    1    2  503  501 -0.58821671365E+01  0.24005138737E+02  0.61577491578E+02  0.66352347698E+02  0.00000000000E+00 0. -1.
</event>
<event>
 4    1  0.6109945E+002  0.3133024E+02  0.7546771E-02  0.1408378E+00
          2   -1    0    0  503    0  0.00000000000E+00  0.00000000000E+00  0.52265396123E+02  0.52265396123E+02  0.00000000000E+00 0. -1.
         -2   -1    0    0    0  501 -0.00000000000E+00 -0.00000000000E+00 -0.61338527913E+02  0.61338527913E+02  0.00000000000E+00 0.  1.
         21    1    1    2  502  501 -0.28888100333E+02  0.12126888130E+02 -0.51850176766E+02  0.60580727853E+02  0.00000000000E+00 0.  1.
         21    1    1    2  503  502  0.28888100333E+02 -0.12126888130E+02  0.42777044976E+02  0.53023196183E+02  0.00000000000E+00 0. -1.
</event>
<event>
 4    1  0.6109945E+002  0.3491236E+02  0.7546771E-02  0.1381180E+00
          2   -1    0    0  503    0  0.00000000000E+00  0.00000000000E+00  0.12436988184E+03  0.12436988184E+03  0.00000000000E+00 0. -1.
         -2   -1    0    0    0  501 -0.00000000000E+00 -0.00000000000E+00 -0.13309641118E+02  0.13309641118E+02  0.00000000000E+00 0.  1.
         21    1    1    2  502  501 -0.30604795933E+02 -0.16799378773E+02  0.20182209711E+02  0.40326098870E+02  0.00000000000E+00 0.  1.
         21    1    1    2  503  502  0.30604795933E+02  0.16799378773E+02  0.90878031014E+02  0.97353424090E+02  0.00000000000E+00 0. -1.
</event>
<event>
 4    1  0.6109945E+002  0.2759568E+02  0.7546771E-02  0.1441714E+00
          2   -1    0    0  503    0  0.00000000000E+00  0.00000000000E+00  0.20146079127E+03  0.20146079127E+03  0.00000000000E+00 0. -1.
         -2   -1    0    0    0  501 -0.00000000000E+00 -0.00000000000E+00 -0.98485743186E+01  0.98485743186E+01  0.00000000000E+00 0.  1.
         21    1    1    2  502  501 -0.27291162372E+02 -0.40882685395E+01  0.12869655155E+02  0.30449129824E+02  0.00000000000E+00 0.  1.
         21    1    1    2  503  502  0.27291162372E+02  0.40882685395E+01  0.17874256180E+03  0.18086023577E+03  0.00000000000E+00 0. -1.
</event>
<event>
 4    1  0.6109945E+002  0.3774373E+02  0.7546771E-02  0.1362240E+00
          2   -1    0    0  503    0  0.00000000000E+00  0.00000000000E+00  0.80341253949E+03  0.80341253949E+03  0.00000000000E+00 0.  1.
         -2   -1    0    0    0  501 -0.00000000000E+00 -0.00000000000E+00 -0.31623610384E+01  0.31623610384E+01  0.00000000000E+00 0. -1.
         21    1    1    2  502  501 -0.25443454108E+02  0.27878664765E+02  0.13283089696E+03  0.13808923380E+03  0.00000000000E+00 0.  1.
         21    1    1    2  503  502  0.25443454108E+02 -0.27878664765E+02  0.66741928150E+03  0.66848566673E+03  0.00000000000E+00 0. -1.
</event>
<event>
 4    1  0.6109945E+002  0.4735011E+02  0.7546771E-02  0.1310089E+00
          2   -1    0    0  503    0  0.00000000000E+00  0.00000000000E+00  0.13651470637E+03  0.13651470637E+03  0.00000000000E+00 0. -1.
         -2   -1    0    0    0  501 -0.00000000000E+00 -0.00000000000E+00 -0.66720788380E+02  0.66720788380E+02  0.00000000000E+00 0.  1.
         21    1    1    2  502  501 -0.67235461028E+01 -0.46870323543E+02 -0.53332124949E+02  0.71318643094E+02  0.00000000000E+00 0.  1.
         21    1    1    2  503  502  0.67235461028E+01  0.46870323543E+02  0.12312604294E+03  0.13191685165E+03  0.00000000000E+00 0. -1.
</event>
<event>
 4    1  0.6109945E+002  0.2718896E+02  0.7546771E-02  0.1445719E+00
          2   -1    0    0  502    0  0.00000000000E+00  0.00000000000E+00  0.55715509825E+03  0.55715509825E+03  0.00000000000E+00 0.  1.
         -2   -1    0    0    0  501 -0.00000000000E+00 -0.00000000000E+00 -0.42573311377E+01  0.42573311377E+01  0.00000000000E+00 0. -1.
         21    1    1    2  502  503 -0.23291043319E+02  0.14027366884E+02  0.50934145691E+03  0.51006662255E+03  0.00000000000E+00 0.  1.
         21    1    1    2  503  501  0.23291043319E+02 -0.14027366884E+02  0.43556310207E+02  0.51345806834E+02  0.00000000000E+00 0. -1.
</event>
<event>
 4    1  0.6109945E+002  0.2120775E+02  0.7546771E-02  0.1516319E+00
          2   -1    0    0  502    0  0.00000000000E+00  0.00000000000E+00  0.93438948693E+03  0.93438948693E+03  0.00000000000E+00 0.  1.
         -2   -1    0    0    0  501 -0.00000000000E+00 -0.00000000000E+00 -0.61998330892E+00  0.61998330892E+00  0.00000000000E+00 0. -1.
         21    1    1    2  502  503  0.12832198627E+02 -0.16884998512E+02  0.24581485226E+03  0.24672800832E+03  0.00000000000E+00 0. -1.
         21    1    1    2  503  501 -0.12832198627E+02  0.16884998512E+02  0.68795465136E+03  0.68828146193E+03  0.00000000000E+00 0.  1.
</event>
<event>
 4    1  0.6109945E+002  0.3030191E+02  0.7546771E-02  0.1416991E+00
          2   -1    0    0  503    0  0.00000000000E+00  0.00000000000E+00  0.27453057808E+01  0.27453057808E+01  0.00000000000E+00 0.  1.
         -2   -1    0    0    0  501 -0.00000000000E+00 -0.00000000000E+00 -0.39927588326E+03  0.39927588326E+03  0.00000000000E+00 0. -1.
         21    1    1    2  502  501  0.28408794169E+02 -0.10542595184E+02 -0.27925125983E+03  0.28089049827E+03  0.00000000000E+00 0. -1.
         21    1    1    2  503  502 -0.28408794169E+02  0.10542595184E+02 -0.11727931764E+03  0.12113069077E+03  0.00000000000E+00 0.  1.
</event>
<event>
 4    1  0.6109945E+002  0.2421411E+02  0.7546771E-02  0.1477790E+00
          2   -1    0    0  502    0  0.00000000000E+00  0.00000000000E+00  0.44593194771E+02  0.44593194771E+02  0.00000000000E+00 0. -1.
         -2   -1    0    0    0  501 -0.00000000000E+00 -0.00000000000E+00 -0.13381856908E+02  0.13381856908E+02  0.00000000000E+00 0.  1.
         21    1    1    2  502  503  0.48354254409E+01 -0.23726397468E+02  0.11775842760E+02  0.26925707952E+02  0.00000000000E+00 0.  1.
         21    1    1    2  503  501 -0.48354254409E+01  0.23726397468E+02  0.19435495103E+02  0.31049343727E+02  0.00000000000E+00 0. -1.
</event>
<event>
 4    1  0.6109945E+002  0.2128648E+02  0.7546771E-02  0.1515214E+00
          2   -1    0    0  502    0  0.00000000000E+00  0.00000000000E+00  0.11024535381E+03  0.11024535381E+03  0.00000000000E+00 0.  1.
         -2   -1    0    0    0  501 -0.00000000000E+00 -0.00000000000E+00 -0.42104531538E+01  0.42104531538E+01  0.00000000000E+00 0. -1.
         21    1    1    2  502  503  0.16234078745E+02 -0.13768398104E+02  0.44180274186E+02  0.49040908701E+02  0.00000000000E+00 0. -1.
         21    1    1    2  503  501 -0.16234078745E+02  0.13768398104E+02  0.61854626474E+02  0.65414898267E+02  0.00000000000E+00 0.  1.
</event>
<event>
 4    1  0.6109945E+002  0.3762505E+02  0.7546771E-02  0.1362994E+00
          2   -1    0    0  503    0  0.00000000000E+00  0.00000000000E+00  0.62062813581E+03  0.62062813581E+03  0.00000000000E+00 0. -1.
         -2   -1    0    0    0  501 -0.00000000000E+00 -0.00000000000E+00 -0.32740897763E+01  0.32740897763E+01  0.00000000000E+00 0.  1.
         21    1    1    2  502  501 -0.37530502806E+02  0.26656273173E+01  0.13687094598E+03  0.14194823022E+03  0.00000000000E+00 0.  1.
         21    1    1    2  503  502  0.37530502806E+02 -0.26656273173E+01  0.48048310006E+03  0.48195399537E+03  0.00000000000E+00 0. -1.
</event>
<event>
 4    1  0.6109945E+002  0.2299483E+02  0.7546771E-02  0.1492563E+00
          2   -1    0    0  503    0  0.00000000000E+00  0.00000000000E+00  0.80083319943E+02  0.80083319943E+02  0.00000000000E+00 0. -1.
         -2   -1    0    0    0  501 -0.00000000000E+00 -0.00000000000E+00 -0.89160655678E+01  0.89160655678E+01  0.00000000000E+00 0.  1.
         21    1    1    2  502  501  0.14505477742E+02 -0.17842457371E+02  0.12916464116E+02  0.26374177045E+02  0.00000000000E+00 0.  1.
         21    1    1    2  503  502 -0.14505477742E+02  0.17842457371E+02  0.58250790259E+02  0.62625208465E+02  0.00000000000E+00 0. -1.
</event>
<event>
 4    1  0.6109945E+002  0.2933157E+02  0.7546771E-02  0.1425495E+00
          2   -1    0    0  502    0  0.00000000000E+00  0.00000000000E+00  0.36154798916E+01  0.36154798916E+01  0.00000000000E+00 0.  1.
         -2   -1    0    0    0  501 -0.00000000000E+00 -0.00000000000E+00 -0.24138737973E+03  0.24138737973E+03  0.00000000000E+00 0. -1.
         21    1    1    2  502  503 -0.19390573115E+02  0.22007881480E+02 -0.10428983291E+03  0.10833609935E+03  0.00000000000E+00 0.  1.
         21    1    1    2  503  501  0.19390573115E+02 -0.22007881480E+02 -0.13348206692E+03  0.13666676027E+03  0.00000000000E+00 0. -1.
</event>
<event>
 4    1  0.6109945E+002  0.2703920E+02  0.7546771E-02  0.1447215E+00
          2   -1    0    0  503    0  0.00000000000E+00  0.00000000000E+00  0.14772761279E+02  0.14772761279E+02  0.00000000000E+00 0.  1.
         -2   -1    0    0    0  501 -0.00000000000E+00 -0.00000000000E+00 -0.26883504529E+03  0.26883504529E+03  0.00000000000E+00 0. -1.
         21    1    1    2  502  501  0.19038640284E+02  0.19200217158E+02 -0.25511907176E+03  0.25654796615E+03  0.00000000000E+00 0. -1.
         21    1    1    2  503  502 -0.19038640284E+02 -0.19200217158E+02  0.10567877496E+01  0.27059840412E+02  0.00000000000E+00 0.  1.
</event>
<event>
 4    1  0.6109945E+002  0.2293132E+02  0.7546771E-02  0.1493362E+00
          2   -1    0    0  503    0  0.00000000000E+00  0.00000000000E+00  0.32040799684E+03  0.32040799684E+03  0.00000000000E+00 0.  1.
         -2   -1    0    0    0  501 -0.00000000000E+00 -0.00000000000E+00 -0.21574749216E+01  0.21574749216E+01  0.00000000000E+00 0. -1.
         21    1    1    2  502  501  0.22808254734E+02  0.23724980031E+01  0.80227167209E+02  0.83440059858E+02  0.00000000000E+00 0. -1.
         21    1    1    2  503  502 -0.22808254734E+02 -0.23724980031E+01  0.23802335471E+03  0.23912541190E+03  0.00000000000E+00 0.  1.
</event>
<event>
 4    1  0.6109945E+002  0.2568485E+02  0.7546771E-02  0.1461286E+00
          2   -1    0    0  502    0  0.00000000000E+00  0.00000000000E+00  0.21846728348E+04  0.21846728348E+04  0.00000000000E+00 0. -1.
         -2   -1    0    0    0  501 -0.00000000000E+00 -0.00000000000E+00 -0.52613163637E+00  0.52613163637E+00  0.00000000000E+00 0.  1.
         21    1    1    2  502  503  0.21645745658E+02 -0.13826544801E+02  0.18052412239E+04  0.18054239359E+04  0.00000000000E+00 0. -1.
         21    1    1    2  503  501 -0.21645745658E+02  0.13826544801E+02  0.37890547920E+03  0.37977503053E+03  0.00000000000E+00 0.  1.
</event>
<event>
 4    1  0.6109945E+002  0.4734848E+02  0.7546771E-02  0.1310097E+00
          2   -1    0    0  503    0  0.00000000000E+00  0.00000000000E+00  0.25614916980E+02  0.25614916980E+02  0.00000000000E+00 0.  1.
         -2   -1    0    0    0  501 -0.00000000000E+00 -0.00000000000E+00 -0.97168169146E+02  0.97168169146E+02  0.00000000000E+00 0. -1.
         21    1    1    2  502  501  0.46403013505E+02  0.94148343207E+01 -0.55119240935E+02  0.72663673791E+02  0.00000000000E+00 0. -1.
         21    1    1    2  503  502 -0.46403013505E+02 -0.94148343207E+01 -0.16434011231E+02  0.50119412335E+02  0.00000000000E+00 0.  1.
</event>
<event>
 4    1  0.6109945E+002  0.2267786E+02  0.7546771E-02  0.1496583E+00
          2   -1    0    0  503    0  0.00000000000E+00  0.00000000000E+00  0.14371731316E+01  0.14371731316E+01  0.00000000000E+00 0. -1.
         -2   -1    0    0    0  501 -0.00000000000E+00 -0.00000000000E+00 -0.38785955402E+03  0.38785955402E+03  0.00000000000E+00 0.  1.
         21    1    1    2  502  501 -0.22676514673E+02 -0.24723400956E+00 -0.24735868100E+03  0.24839605977E+03  0.00000000000E+00 0. -1.
         21    1    1    2  503  502  0.22676514673E+02  0.24723400956E+00 -0.13906369988E+03  0.14090066738E+03  0.00000000000E+00 0.  1.
</event>
<event>
 4    1  0.6109945E+002  0.2475160E+02  0.7546771E-02  0.1471601E+00
          2   -1    0    0  502    0  0.00000000000E+00  0.00000000000E+00  0.10278463245E+02  0.10278463245E+02  0.00000000000E+00 0.  1.
         -2   -1    0    0    0  501 -0.00000000000E+00 -0.00000000000E+00 -0.60916878584E+02  0.60916878584E+02  0.00000000000E+00 0. -1.
         21    1    1    2  502  503  0.11653007120E+02  0.21836879300E+02 -0.20094102369E+02  0.31881261307E+02  0.00000000000E+00 0.  1.
         21    1    1    2  503  501 -0.11653007120E+02 -0.21836879300E+02 -0.30544312970E+02  0.39314080522E+02  0.00000000000E+00 0. -1.
</event>
<event>
 4    1  0.6109945E+002  0.2579584E+02  0.7546771E-02  0.1460094E+00
          2   -1    0    0  503    0  0.00000000000E+00  0.00000000000E+00  0.23528882375E+02  0.23528882375E+02  0.00000000000E+00 0. -1.
         -2   -1    0    0    0  501 -0.00000000000E+00 -0.00000000000E+00 -0.30241025065E+02  0.30241025065E+02  0.00000000000E+00 0.  1.
         21    1    1    2  502  501 -0.25364649944E+02 -0.46967713808E+01  0.34880739755E+01  0.26030593313E+02  0.00000000000E+00 0. -1.
         21    1    1    2  503  502  0.25364649944E+02  0.46967713808E+01 -0.10200216666E+02  0.27739314127E+02  0.00000000000E+00 0.  1.
</event>
<event>
 4    1  0.6109945E+002  0.2171655E+02  0.7546771E-02  0.1509275E+00
          2   -1    0    0  502    0  0.00000000000E+00  0.00000000000E+00  0.14715498092E+04  0.14715498092E+04  0.00000000000E+00 0.  1.
         -2   -1    0    0    0  501 -0.00000000000E+00 -0.00000000000E+00 -0.55788749404E+00  0.55788749404E+00  0.00000000000E+00 0. -1.
         21    1    1    2  502  503  0.13286493844E+02  0.17177823611E+02  0.12156489044E+04  0.12158428629E+04  0.00000000000E+00 0.  1.
         21    1    1    2  503  501 -0.13286493844E+02 -0.17177823611E+02  0.25534301729E+03  0.25626483376E+03  0.00000000000E+00 0. -1.
</event>
<event>
 4    1  0.6109945E+002  0.2017823E+02  0.7546771E-02  0.1531328E+00
          2   -1    0    0  503    0  0.00000000000E+00  0.00000000000E+00  0.49414217913E+03  0.49414217913E+03  0.00000000000E+00 0. -1.
         -2   -1    0    0    0  501 -0.00000000000E+00 -0.00000000000E+00 -0.83250112885E+00  0.83250112885E+00  0.00000000000E+00 0.  1.
         21    1    1    2  502  501  0.98565993961E+01  0.17607058717E+02  0.22160973766E+03  0.22252648583E+03  0.00000000000E+00 0. -1.
         21    1    1    2  503  502 -0.98565993961E+01 -0.17607058717E+02  0.27169994034E+03  0.27244819443E+03  0.00000000000E+00 0.  1.
</event>
<event>
 4    1  0.6109945E+002  0.3875166E+02  0.7546771E-02  0.1355960E+00
          2   -1    0    0  502    0  0.00000000000E+00  0.00000000000E+00  0.18181822570E+04  0.18181822570E+04  0.00000000000E+00 0. -1.
         -2   -1    0    0    0  501 -0.00000000000E+00 -0.00000000000E+00 -0.10045677536E+01  0.10045677536E+01  0.00000000000E+00 0.  1.
         21    1    1    2  502  503  0.21399209565E+02 -0.32307348536E+02  0.12921587595E+04  0.12927397073E+04  0.00000000000E+00 0. -1.
         21    1    1    2  503  501 -0.21399209565E+02  0.32307348536E+02  0.52501892975E+03  0.52644711751E+03  0.00000000000E+00 0.  1.
</event>
<event>
 4    1  0.6109945E+002  0.6377009E+02  0.7546771E-02  0.1247534E+00
          2   -1    0    0  503    0  0.00000000000E+00  0.00000000000E+00  0.93493941277E+02  0.93493941277E+02  0.00000000000E+00 0. -1.
         -2   -1    0    0    0  501 -0.00000000000E+00 -0.00000000000E+00 -0.50927077557E+02  0.50927077557E+02  0.00000000000E+00 0.  1.
         21    1    1    2  502  501 -0.58648646765E+02 -0.25039192264E+02  0.48866847142E+02  0.80340485848E+02  0.00000000000E+00 0. -1.
         21    1    1    2  503  502  0.58648646765E+02  0.25039192264E+02 -0.62999834217E+01  0.64080532986E+02  0.00000000000E+00 0.  1.
</event>
<event>
 4    1  0.6109945E+002  0.5047246E+02  0.7546771E-02  0.1296137E+00
          2   -1    0    0  502    0  0.00000000000E+00  0.00000000000E+00  0.24070170904E+03  0.24070170904E+03  0.00000000000E+00 0.  1.
         -2   -1    0    0    0  501 -0.00000000000E+00 -0.00000000000E+00 -0.20317918003E+02  0.20317918003E+02  0.00000000000E+00 0. -1.
         21    1    1    2  502  503  0.85203525103E+01  0.49748090381E+02  0.20052737288E+03  0.20678175978E+03  0.00000000000E+00 0.  1.
         21    1    1    2  503  501 -0.85203525103E+01 -0.49748090381E+02  0.19856418160E+02  0.54237867266E+02  0.00000000000E+00 0. -1.
</event>
<event>
 4    1  0.6109945E+002  0.2561011E+02  0.7546771E-02  0.1462092E+00
          2   -1    0    0  503    0  0.00000000000E+00  0.00000000000E+00  0.11876581624E+04  0.11876581624E+04  0.00000000000E+00 0. -1.
         -2   -1    0    0    0  501 -0.00000000000E+00 -0.00000000000E+00 -0.84947427930E+00  0.84947427930E+00  0.00000000000E+00 0.  1.
         21    1    1    2  502  501  0.24331916745E+02 -0.79897149623E+01  0.24189003752E+03  0.24324199466E+03  0.00000000000E+00 0.  1.
         21    1    1    2  503  502 -0.24331916745E+02  0.79897149623E+01  0.94491865059E+03  0.94526564200E+03  0.00000000000E+00 0. -1.
</event>
<event>
 4    1  0.6109945E+002  0.5503066E+02  0.7546771E-02  0.1277720E+00
          2   -1    0    0  503    0  0.00000000000E+00  0.00000000000E+00  0.35932815058E+03  0.35932815058E+03  0.00000000000E+00 0. -1.
         -2   -1    0    0    0  501 -0.00000000000E+00 -0.00000000000E+00 -0.22183522135E+02  0.22183522135E+02  0.00000000000E+00 0.  1.
         21    1    1    2  502  501 -0.30479034690E+02 -0.45819236007E+02  0.18360862254E+02  0.58012888280E+02  0.00000000000E+00 0.  1.
         21    1    1    2  503  502  0.30479034690E+02  0.45819236007E+02  0.31878376619E+03  0.32349878444E+03  0.00000000000E+00 0. -1.
</event>
<event>
 4    1  0.6109945E+002  0.2205302E+02  0.7546771E-02  0.1504744E+00
          2   -1    0    0  503    0  0.00000000000E+00  0.00000000000E+00  0.50353408463E+02  0.50353408463E+02  0.00000000000E+00 0.  1.
         -2   -1    0    0    0  501 -0.00000000000E+00 -0.00000000000E+00 -0.96961777045E+01  0.96961777045E+01  0.00000000000E+00 0. -1.
         21    1    1    2  502  501  0.11975526829E+02 -0.18518166837E+02  0.18455670344E+02  0.28756695111E+02  0.00000000000E+00 0. -1.
         21    1    1    2  503  502 -0.11975526829E+02  0.18518166837E+02  0.22201560415E+02  0.31292891057E+02  0.00000000000E+00 0.  1.
</event>
<event>
 4    1  0.6109945E+002  0.2107343E+02  0.7546771E-02  0.1518219E+00
          2   -1    0    0  502    0  0.00000000000E+00  0.00000000000E+00  0.40925699922E+02  0.40925699922E+02  0.00000000000E+00 0.  1.
         -2   -1    0    0    0  501 -0.00000000000E+00 -0.00000000000E+00 -0.33668620009E+02  0.33668620009E+02  0.00000000000E+00 0. -1.
         21    1    1    2  502  503  0.69268998293E+00 -0.21062044661E+02  0.34332696139E+02  0.40284284391E+02  0.00000000000E+00 0.  1.
         21    1    1    2  503  501 -0.69268998293E+00  0.21062044661E+02 -0.27075616226E+02  0.34310035540E+02  0.00000000000E+00 0. -1.
</event>
<event>
 4    1  0.6109945E+002  0.4461276E+02  0.7546771E-02  0.1323387E+00
          2   -1    0    0  503    0  0.00000000000E+00  0.00000000000E+00  0.96099010104E+03  0.96099010104E+03  0.00000000000E+00 0. -1.
         -2   -1    0    0    0  501 -0.00000000000E+00 -0.00000000000E+00 -0.49858549371E+01  0.49858549371E+01  0.00000000000E+00 0.  1.
         21    1    1    2  502  501 -0.41259108297E+02 -0.16970110140E+02  0.10871161874E+03  0.11750963665E+03  0.00000000000E+00 0.  1.
         21    1    1    2  503  502  0.41259108297E+02  0.16970110140E+02  0.84729262736E+03  0.84846631933E+03  0.00000000000E+00 0. -1.
</event>
<event>
 4    1  0.6109945E+002  0.2020132E+02  0.7546771E-02  0.1530980E+00
          2   -1    0    0  502    0  0.00000000000E+00  0.00000000000E+00  0.54948543359E+03  0.54948543359E+03  0.00000000000E+00 0. -1.
         -2   -1    0    0    0  501 -0.00000000000E+00 -0.00000000000E+00 -0.40791196438E+01  0.40791196438E+01  0.00000000000E+00 0.  1.
         21    1    1    2  502  503 -0.18256272852E+02 -0.86488116051E+01  0.52302370586E+03  0.52341368947E+03  0.00000000000E+00 0. -1.
         21    1    1    2  503  501  0.18256272852E+02  0.86488116051E+01  0.22382608093E+02  0.30150863763E+02  0.00000000000E+00 0.  1.
</event>
<event>
 4    1  0.6109945E+002  0.2539696E+02  0.7546771E-02  0.1464411E+00
          2   -1    0    0  502    0  0.00000000000E+00  0.00000000000E+00  0.20315572178E+04  0.20315572178E+04  0.00000000000E+00 0. -1.
         -2   -1    0    0    0  501 -0.00000000000E+00 -0.00000000000E+00 -0.53714501770E+00  0.53714501770E+00  0.00000000000E+00 0.  1.
         21    1    1    2  502  503 -0.24823295106E+02  0.53674628939E+01  0.36577620200E+03  0.36665683627E+03  0.00000000000E+00 0.  1.
         21    1    1    2  503  501  0.24823295106E+02 -0.53674628939E+01  0.16652438708E+04  0.16654375265E+04  0.00000000000E+00 0. -1.
</event>
<event>
 4    1  0.6109945E+002  0.5213501E+02  0.7546771E-02  0.1289172E+00
          2   -1    0    0  502    0  0.00000000000E+00  0.00000000000E+00  0.15488191415E+04  0.15488191415E+04  0.00000000000E+00 0.  1.
         -2   -1    0    0    0  501 -0.00000000000E+00 -0.00000000000E+00 -0.97598792689E+01  0.97598792689E+01  0.00000000000E+00 0. -1.
         21    1    1    2  502  503 -0.32131824633E+01  0.52035901710E+02  0.14752880497E+04  0.14762089585E+04  0.00000000000E+00 0.  1.
         21    1    1    2  503  501  0.32131824633E+01 -0.52035901710E+02  0.63771212533E+02  0.82370062257E+02  0.00000000000E+00 0. -1.
</event>
<event>
 4    1  0.6109945E+002  0.2282458E+02  0.7546771E-02  0.1494713E+00
          2   -1    0    0  502    0  0.00000000000E+00  0.00000000000E+00  0.25265731544E+03  0.25265731544E+03  0.00000000000E+00 0. -1.
         -2   -1    0    0    0  501 -0.00000000000E+00 -0.00000000000E+00 -0.84249644801E+01  0.84249644801E+01  0.00000000000E+00 0.  1.
         21    1    1    2  502  503  0.10379639139E+02  0.20327928605E+02  0.23556382819E+03  0.23666702082E+03  0.00000000000E+00 0. -1.
         21    1    1    2  503  501 -0.10379639139E+02 -0.20327928605E+02  0.86685227659E+01  0.24415259101E+02  0.00000000000E+00 0.  1.
</event>
<event>
 4    1  0.6109945E+002  0.2334667E+02  0.7546771E-02  0.1488190E+00
          2   -1    0    0  502    0  0.00000000000E+00  0.00000000000E+00  0.21850487896E+01  0.21850487896E+01  0.00000000000E+00 0.  1.
         -2   -1    0    0    0  501 -0.00000000000E+00 -0.00000000000E+00 -0.30767053369E+03  0.30767053369E+03  0.00000000000E+00 0. -1.
         21    1    1    2  502  503 -0.23021340851E+02  0.38838970315E+01 -0.85349927920E+02  0.88485462008E+02  0.00000000000E+00 0.  1.
         21    1    1    2  503  501  0.23021340851E+02 -0.38838970315E+01 -0.22013555698E+03  0.22137012047E+03  0.00000000000E+00 0. -1.
</event>
<event>
 4    1  0.6109945E+002  0.5750131E+02  0.7546771E-02  0.1268567E+00
          2   -1    0    0  503    0  0.00000000000E+00  0.00000000000E+00  0.27702205117E+03  0.27702205117E+03  0.00000000000E+00 0. -1.
         -2   -1    0    0    0  501 -0.00000000000E+00 -0.00000000000E+00 -0.12563769227E+02  0.12563769227E+02  0.00000000000E+00 0.  1.
         21    1    1    2  502  501  0.57390346852E+02 -0.35704900912E+01  0.99850717421E+02  0.11522398223E+03  0.00000000000E+00 0. -1.
         21    1    1    2  503  502 -0.57390346852E+02  0.35704900912E+01  0.16460756452E+03  0.17436183817E+03  0.00000000000E+00 0.  1.
</event>
<event>
 4    1  0.6109945E+002  0.2776396E+02  0.7546771E-02  0.1440081E+00
          2   -1    0    0  503    0  0.00000000000E+00  0.00000000000E+00  0.21441832577E+04  0.21441832577E+04  0.00000000000E+00 0.  1.
         -2   -1    0    0    0  501 -0.00000000000E+00 -0.00000000000E+00 -0.61970585697E+00  0.61970585697E+00  0.00000000000E+00 0. -1.
         21    1    1    2  502  501 -0.25493905386E+02 -0.10995377863E+02  0.37688273466E+03  0.37790400002E+03  0.00000000000E+00 0. -1.
         21    1    1    2  503  502  0.25493905386E+02  0.10995377863E+02  0.17666808172E+04  0.17668989636E+04  0.00000000000E+00 0.  1.
</event>
<event>
 4    1  0.6109945E+002  0.3129565E+02  0.7546771E-02  0.1408662E+00
          2   -1    0    0  503    0  0.00000000000E+00  0.00000000000E+00  0.36780488383E+01  0.36780488383E+01  0.00000000000E+00 0. -1.
         -2   -1    0    0    0  501 -0.00000000000E+00 -0.00000000000E+00 -0.26733254511E+03  0.26733254511E+03  0.00000000000E+00 0.  1.
         21    1    1    2  502  501  0.22513513076E+02 -0.21738431218E+02 -0.14030032628E+03  0.14374838857E+03  0.00000000000E+00 0. -1.
         21    1    1    2  503  502 -0.22513513076E+02  0.21738431218E+02 -0.12335416999E+03  0.12726220537E+03  0.00000000000E+00 0.  1.
</event>
<event>
 4    1  0.6109945E+002  0.5876843E+02  0.7546771E-02  0.1264075E+00
          2   -1    0    0  502    0  0.00000000000E+00  0.00000000000E+00  0.13912138887E+04  0.13912138887E+04  0.00000000000E+00 0.  1.
         -2   -1    0    0    0  501 -0.00000000000E+00 -0.00000000000E+00 -0.25907248178E+01  0.25907248178E+01  0.00000000000E+00 0. -1.
         21    1    1    2  502  503  0.49671443150E+01  0.58558136928E+02  0.83673053726E+03  0.83879182156E+03  0.00000000000E+00 0.  1.
         21    1    1    2  503  501 -0.49671443150E+01 -0.58558136928E+02  0.55189262665E+03  0.55501279199E+03  0.00000000000E+00 0. -1.
</event>
<event>
 4    1  0.6109945E+002  0.2069483E+02  0.7546771E-02  0.1523667E+00
          2   -1    0    0  503    0  0.00000000000E+00  0.00000000000E+00  0.37799344024E+03  0.37799344024E+03  0.00000000000E+00 0.  1.
         -2   -1    0    0    0  501 -0.00000000000E+00 -0.00000000000E+00 -0.11556297891E+01  0.11556297891E+01  0.00000000000E+00 0. -1.
         21    1    1    2  502  501 -0.16941059929E+02 -0.11885980176E+02  0.16190520197E+03  0.16322245697E+03  0.00000000000E+00 0. -1.
         21    1    1    2  503  502  0.16941059929E+02  0.11885980176E+02  0.21493260848E+03  0.21592661306E+03  0.00000000000E+00 0.  1.
</event>
<event>
 4    1  0.6109945E+002  0.3199109E+02  0.7546771E-02  0.1403048E+00
          2   -1    0    0  503    0  0.00000000000E+00  0.00000000000E+00  0.12432552141E+04  0.12432552141E+04  0.00000000000E+00 0. -1.
         -2   -1    0    0    0  501 -0.00000000000E+00 -0.00000000000E+00 -0.99573250509E+00  0.99573250509E+00  0.00000000000E+00 0.  1.
         21    1    1    2  502  501  0.26062668119E+02  0.18551748069E+02  0.88010602147E+03  0.88068725382E+03  0.00000000000E+00 0. -1.
         21    1    1    2  503  502 -0.26062668119E+02 -0.18551748069E+02  0.36215346012E+03  0.36356369277E+03  0.00000000000E+00 0.  1.
</event>
<event>
 4    1  0.6109945E+002  0.3773049E+02  0.7546771E-02  0.1362324E+00
          2   -1    0    0  503    0  0.00000000000E+00  0.00000000000E+00  0.42730042426E+03  0.42730042426E+03  0.00000000000E+00 0. -1.
         -2   -1    0    0    0  501 -0.00000000000E+00 -0.00000000000E+00 -0.15622055843E+02  0.15622055843E+02  0.00000000000E+00 0.  1.
         21    1    1    2  502  501  0.36151879593E+02  0.10799611680E+02  0.94069308516E+01  0.38885477477E+02  0.00000000000E+00 0.  1.
         21    1    1    2  503  502 -0.36151879593E+02 -0.10799611680E+02  0.40227143756E+03  0.40403700262E+03  0.00000000000E+00 0. -1.
</event>
<event>
 4    1  0.6109945E+002  0.2583875E+02  0.7546771E-02  0.1459635E+00
          2   -1    0    0  503    0  0.00000000000E+00  0.00000000000E+00  0.76048464474E+03  0.76048464474E+03  0.00000000000E+00 0.  1.
         -2   -1    0    0    0  501 -0.00000000000E+00 -0.00000000000E+00 -0.93201383267E+00  0.93201383267E+00  0.00000000000E+00 0. -1.
         21    1    1    2  502  501  0.13891247062E+02 -0.21787017611E+02  0.28805397599E+03  0.28921053571E+03  0.00000000000E+00 0. -1.
         21    1    1    2  503  502 -0.13891247062E+02  0.21787017611E+02  0.47149865492E+03  0.47220612286E+03  0.00000000000E+00 0.  1.
</event>
<event>
 4    1  0.6109945E+002  0.2363761E+02  0.7546771E-02  0.1484643E+00
          2   -1    0    0  503    0  0.00000000000E+00  0.00000000000E+00  0.13518725395E+03  0.13518725395E+03  0.00000000000E+00 0. -1.
         -2   -1    0    0    0  501 -0.00000000000E+00 -0.00000000000E+00 -0.68783729993E+01  0.68783729993E+01  0.00000000000E+00 0.  1.
         21    1    1    2  502  501 -0.23633398488E+02 -0.44639623724E+00  0.19278638009E+02  0.30502502802E+02  0.00000000000E+00 0.  1.
         21    1    1    2  503  502  0.23633398488E+02  0.44639623724E+00  0.10903024294E+03  0.11156312415E+03  0.00000000000E+00 0. -1.
</event>
<event>
 4    1  0.6109945E+002  0.4751271E+02  0.7546771E-02  0.1309332E+00
          2   -1    0    0  503    0  0.00000000000E+00  0.00000000000E+00  0.29682483780E+02  0.29682483780E+02  0.00000000000E+00 0. -1.
         -2   -1    0    0    0  501 -0.00000000000E+00 -0.00000000000E+00 -0.91678327650E+02  0.91678327650E+02  0.00000000000E+00 0.  1.
         21    1    1    2  502  501  0.45568014950E+02  0.13454118294E+02 -0.59470690945E+01  0.47883451383E+02  0.00000000000E+00 0. -1.
         21    1    1    2  503  502 -0.45568014950E+02 -0.13454118294E+02 -0.56048774775E+02  0.73477360046E+02  0.00000000000E+00 0.  1.
</event>
<event>
 4    1  0.6109945E+002  0.2042803E+02  0.7546771E-02  0.1527590E+00
          2   -1    0    0  502    0  0.00000000000E+00  0.00000000000E+00  0.29127148627E+01  0.29127148627E+01  0.00000000000E+00 0. -1.
         -2   -1    0    0    0  501 -0.00000000000E+00 -0.00000000000E+00 -0.36371888008E+03  0.36371888008E+03  0.00000000000E+00 0.  1.
         21    1    1    2  502  503  0.57051581379E+01 -0.19615192692E+02 -0.37687651617E+02  0.42867979870E+02  0.00000000000E+00 0. -1.
         21    1    1    2  503  501 -0.57051581379E+01  0.19615192692E+02 -0.32311851360E+03  0.32376361507E+03  0.00000000000E+00 0.  1.
</event>
<event>
 4    1  0.6109945E+002  0.3663524E+02  0.7546771E-02  0.1369417E+00
          2   -1    0    0  503    0  0.00000000000E+00  0.00000000000E+00  0.15520429542E+03  0.15520429542E+03  0.00000000000E+00 0. -1.
         -2   -1    0    0    0  501 -0.00000000000E+00 -0.00000000000E+00 -0.11897134857E+02  0.11897134857E+02  0.00000000000E+00 0.  1.
         21    1    1    2  502  501  0.14275725664E+02  0.33739361693E+02  0.27987801229E+02  0.46102688515E+02  0.00000000000E+00 0.  1.
         21    1    1    2  503  502 -0.14275725664E+02 -0.33739361693E+02  0.11531935933E+03  0.12099874176E+03  0.00000000000E+00 0. -1.
</event>
<event>
 4    1  0.6109945E+002  0.6932378E+02  0.7546771E-02  0.1231070E+00
          2   -1    0    0  502    0  0.00000000000E+00  0.00000000000E+00  0.24383943089E+04  0.24383943089E+04  0.00000000000E+00 0.  1.
         -2   -1    0    0    0  501 -0.00000000000E+00 -0.00000000000E+00 -0.97157926739E+01  0.97157926739E+01  0.00000000000E+00 0. -1.
         21    1    1    2  502  503 -0.52059457246E+02 -0.45777720020E+02  0.23072131365E+04  0.23082543715E+04  0.00000000000E+00 0.  1.
         21    1    1    2  503  501  0.52059457246E+02  0.45777720020E+02  0.12146537979E+03  0.13985573005E+03  0.00000000000E+00 0. -1.
</event>
<event>
 4    1  0.6109945E+002  0.2109694E+02  0.7546771E-02  0.1517885E+00
          2   -1    0    0  502    0  0.00000000000E+00  0.00000000000E+00  0.10127249389E+03  0.10127249389E+03  0.00000000000E+00 0. -1.
         -2   -1    0    0    0  501 -0.00000000000E+00 -0.00000000000E+00 -0.46054800452E+01  0.46054800452E+01  0.00000000000E+00 0.  1.
         21    1    1    2  502  503  0.10040439305E+02  0.18554528614E+02  0.59653922196E+02  0.63274571408E+02  0.00000000000E+00 0.  1.
         21    1    1    2  503  501 -0.10040439305E+02 -0.18554528614E+02  0.37013091651E+02  0.42603402530E+02  0.00000000000E+00 0. -1.
</event>
<event>
 4    1  0.6109945E+002  0.2189539E+02  0.7546771E-02  0.1506855E+00
          2   -1    0    0  503    0  0.00000000000E+00  0.00000000000E+00  0.94001544036E+03  0.94001544036E+03  0.00000000000E+00 0.  1.
         -2   -1    0    0    0  501 -0.00000000000E+00 -0.00000000000E+00 -0.58779093201E+00  0.58779093201E+00  0.00000000000E+00 0. -1.
         21    1    1    2  502  501 -0.21875384286E+02  0.93575834748E+00  0.29862213984E+03  0.29942376406E+03  0.00000000000E+00 0. -1.
         21    1    1    2  503  502  0.21875384286E+02 -0.93575834748E+00  0.64080550958E+03  0.64117946722E+03  0.00000000000E+00 0.  1.
</event>
<event>
 4    1  0.6109945E+002  0.2990176E+02  0.7546771E-02  0.1420452E+00
          2   -1    0    0  502    0  0.00000000000E+00  0.00000000000E+00  0.43013189867E+03  0.43013189867E+03  0.00000000000E+00 0.  1.
         -2   -1    0    0    0  501 -0.00000000000E+00 -0.00000000000E+00 -0.21858876431E+01  0.21858876431E+01  0.00000000000E+00 0. -1.
         21    1    1    2  502  503  0.10572353944E+02 -0.27970356790E+02  0.26183931086E+03  0.26354115474E+03  0.00000000000E+00 0.  1.
         21    1    1    2  503  501 -0.10572353944E+02  0.27970356790E+02  0.16610670016E+03  0.16877663157E+03  0.00000000000E+00 0. -1.
</event>
<event>
 4    1  0.6109945E+002  0.3063096E+02  0.7546771E-02  0.1414191E+00
          2   -1    0    0  503    0  0.00000000000E+00  0.00000000000E+00  0.19099156338E+04  0.19099156338E+04  0.00000000000E+00 0.  1.
         -2   -1    0    0    0  501 -0.00000000000E+00 -0.00000000000E+00 -0.53425740241E+00  0.53425740241E+00  0.00000000000E+00 0. -1.
         21    1    1    2  502  501 -0.92033851532E+01 -0.29215631764E+02  0.68368576386E+03  0.68437159434E+03  0.00000000000E+00 0. -1.
         21    1    1    2  503  502  0.92033851532E+01  0.29215631764E+02  0.12256956125E+04  0.12260782968E+04  0.00000000000E+00 0.  1.
</event>
<event>
 4    1  0.6109945E+002  0.2606036E+02  0.7546771E-02  0.1457282E+00
          2   -1    0    0  503    0  0.00000000000E+00  0.00000000000E+00  0.81431761807E+03  0.81431761807E+03  0.00000000000E+00 0.  1.
         -2   -1    0    0    0  501 -0.00000000000E+00 -0.00000000000E+00 -0.21422017974E+03  0.21422017974E+03  0.00000000000E+00 0. -1.
         21    1    1    2  502  501 -0.22248288018E+02  0.13570419589E+02 -0.21321812753E+03  0.21480482424E+03  0.00000000000E+00 0. -1.
         21    1    1    2  503  502  0.22248288018E+02 -0.13570419589E+02  0.81331556586E+03  0.81373297358E+03  0.00000000000E+00 0.  1.
</event>
<event>
 4    1  0.6109945E+002  0.2165444E+02  0.7546771E-02  0.1510123E+00
          2   -1    0    0  503    0  0.00000000000E+00  0.00000000000E+00  0.10566891832E+04  0.10566891832E+04  0.00000000000E+00 0.  1.
         -2   -1    0    0    0  501 -0.00000000000E+00 -0.00000000000E+00 -0.92069262508E+01  0.92069262508E+01  0.00000000000E+00 0. -1.
         21    1    1    2  502  501  0.21147268695E+02 -0.46591493334E+01  0.37952791571E+01  0.21984512495E+02  0.00000000000E+00 0. -1.
         21    1    1    2  503  502 -0.21147268695E+02  0.46591493334E+01  0.10436869778E+04  0.10439115970E+04  0.00000000000E+00 0.  1.
</event>
<event>
 4    1  0.6109945E+002  0.2010276E+02  0.7546771E-02  0.1532471E+00
          2   -1    0    0  503    0  0.00000000000E+00  0.00000000000E+00  0.10554233852E+02  0.10554233852E+02  0.00000000000E+00 0. -1.
         -2   -1    0    0    0  501 -0.00000000000E+00 -0.00000000000E+00 -0.60523580228E+02  0.60523580228E+02  0.00000000000E+00 0.  1.
         21    1    1    2  502  501  0.17232033532E+02  0.10352688809E+02 -0.34446137612E+01  0.20395747330E+02  0.00000000000E+00 0. -1.
         21    1    1    2  503  502 -0.17232033532E+02 -0.10352688809E+02 -0.46524732615E+02  0.50682066750E+02  0.00000000000E+00 0.  1.
</event>
<event>
 4    1  0.6109945E+002  0.4751458E+02  0.7546771E-02  0.1309324E+00
          2   -1    0    0  503    0  0.00000000000E+00  0.00000000000E+00  0.11407297506E+03  0.11407297506E+03  0.00000000000E+00 0.  1.
         -2   -1    0    0    0  501 -0.00000000000E+00 -0.00000000000E+00 -0.25987641814E+02  0.25987641814E+02  0.00000000000E+00 0. -1.
         21    1    1    2  502  501  0.28501279087E+02 -0.38017268728E+02  0.98466546914E+01  0.48524140794E+02  0.00000000000E+00 0. -1.
         21    1    1    2  503  502 -0.28501279087E+02  0.38017268728E+02  0.78238678552E+02  0.91536476078E+02  0.00000000000E+00 0.  1.
</event>
<event>
 4    1  0.6109945E+002  0.2376350E+02  0.7546771E-02  0.1483127E+00
          2   -1    0    0  503    0  0.00000000000E+00  0.00000000000E+00  0.31379905094E+03  0.31379905094E+03  0.00000000000E+00 0. -1.
         -2   -1    0    0    0  501 -0.00000000000E+00 -0.00000000000E+00 -0.39980274472E+01  0.39980274472E+01  0.00000000000E+00 0.  1.
         21    1    1    2  502  501 -0.23671431709E+02 -0.20897808300E+01  0.37070507867E+02  0.44033242177E+02  0.00000000000E+00 0.  1.
         21    1    1    2  503  502  0.23671431709E+02  0.20897808300E+01  0.27273051562E+03  0.27376383621E+03  0.00000000000E+00 0. -1.
</event>
<event>
 4    1  0.6109945E+002  0.2200590E+02  0.7546771E-02  0.1505373E+00
          2   -1    0    0  503    0  0.00000000000E+00  0.00000000000E+00  0.29489607182E+00  0.29489607182E+00  0.00000000000E+00 0. -1.
         -2   -1    0    0    0  501 -0.00000000000E+00 -0.00000000000E+00 -0.16431791657E+04  0.16431791657E+04  0.00000000000E+00 0.  1.
         21    1    1    2  502  501  0.22001237871E+02 -0.45300021836E+00 -0.84213929629E+03  0.84242676479E+03  0.00000000000E+00 0. -1.
         21    1    1    2  503  502 -0.22001237871E+02  0.45300021836E+00 -0.80074497334E+03  0.80104729698E+03  0.00000000000E+00 0.  1.
</event>
<event>
 4    1  0.6109945E+002  0.2553166E+02  0.7546771E-02  0.1462943E+00
          2   -1    0    0  502    0  0.00000000000E+00  0.00000000000E+00  0.12261750915E+02  0.12261750915E+02  0.00000000000E+00 0.  1.
         -2   -1    0    0    0  501 -0.00000000000E+00 -0.00000000000E+00 -0.15827347394E+03  0.15827347394E+03  0.00000000000E+00 0. -1.
         21    1    1    2  502  503 -0.88248187989E+01 -0.23958056803E+02 -0.35187966304E+01  0.25773006079E+02  0.00000000000E+00 0.  1.
         21    1    1    2  503  501  0.88248187989E+01  0.23958056803E+02 -0.14249292640E+03  0.14476221878E+03  0.00000000000E+00 0. -1.
</event>
<event>
 4    1  0.6109945E+002  0.5109414E+02  0.7546771E-02  0.1293497E+00
          2   -1    0    0  503    0  0.00000000000E+00  0.00000000000E+00  0.26034873115E+03  0.26034873115E+03  0.00000000000E+00 0. -1.
         -2   -1    0    0    0  501 -0.00000000000E+00 -0.00000000000E+00 -0.14913616193E+02  0.14913616193E+02  0.00000000000E+00 0.  1.
         21    1    1    2  502  501 -0.36701889679E+02  0.35546911022E+02  0.43938051093E+02  0.67388158626E+02  0.00000000000E+00 0.  1.
         21    1    1    2  503  502  0.36701889679E+02 -0.35546911022E+02  0.20149706386E+03  0.20787418871E+03  0.00000000000E+00 0. -1.
</event>
<event>
 4    1  0.6109945E+002  0.2603238E+02  0.7546771E-02  0.1457578E+00
          2   -1    0    0  502    0  0.00000000000E+00  0.00000000000E+00  0.28724063061E+03  0.28724063061E+03  0.00000000000E+00 0. -1.
         -2   -1    0    0    0  501 -0.00000000000E+00 -0.00000000000E+00 -0.33033022842E+01  0.33033022842E+01  0.00000000000E+00 0.  1.
         21    1    1    2  502  503  0.19638213875E+02  0.17088753747E+02  0.21962835859E+03  0.22116577684E+03  0.00000000000E+00 0. -1.
         21    1    1    2  503  501 -0.19638213875E+02 -0.17088753747E+02  0.64308969737E+02  0.69378156054E+02  0.00000000000E+00 0.  1.
</event>
<event>
 4    1  0.6109945E+002  0.2664396E+02  0.7546771E-02  0.1451218E+00
          2   -1    0    0  502    0  0.00000000000E+00  0.00000000000E+00  0.90078761751E+02  0.90078761751E+02  0.00000000000E+00 0. -1.
         -2   -1    0    0    0  501 -0.00000000000E+00 -0.00000000000E+00 -0.19974948915E+02  0.19974948915E+02  0.00000000000E+00 0.  1.
         21    1    1    2  502  503  0.21001569281E+02 -0.16396186639E+02  0.77869069462E+02  0.82301232235E+02  0.00000000000E+00 0. -1.
         21    1    1    2  503  501 -0.21001569281E+02  0.16396186639E+02 -0.77652566248E+01  0.27752478431E+02  0.00000000000E+00 0.  1.
</event>
<event>
 4    1  0.6109945E+002  0.2160167E+02  0.7546771E-02  0.1510845E+00
          2   -1    0    0  502    0  0.00000000000E+00  0.00000000000E+00  0.15340243213E+02  0.15340243213E+02  0.00000000000E+00 0. -1.
         -2   -1    0    0    0  501 -0.00000000000E+00 -0.00000000000E+00 -0.48592245920E+02  0.48592245920E+02  0.00000000000E+00 0.  1.
         21    1    1    2  502  503 -0.21118539707E+02 -0.45430432316E+01  0.29230928732E+01  0.21798541995E+02  0.00000000000E+00 0. -1.
         21    1    1    2  503  501  0.21118539707E+02  0.45430432316E+01 -0.36175095580E+02  0.42133947138E+02  0.00000000000E+00 0.  1.
</event>
<event>
 4    1  0.6109945E+002  0.2718967E+02  0.7546771E-02  0.1445712E+00
          2   -1    0    0  503    0  0.00000000000E+00  0.00000000000E+00  0.56637868515E+03  0.56637868515E+03  0.00000000000E+00 0. -1.
         -2   -1    0    0    0  501 -0.00000000000E+00 -0.00000000000E+00 -0.10794648568E+02  0.10794648568E+02  0.00000000000E+00 0.  1.
         21    1    1    2  502  501 -0.21499440774E+02  0.16644885521E+02  0.72150342594E+01  0.28130675196E+02  0.00000000000E+00 0.  1.
         21    1    1    2  503  502  0.21499440774E+02 -0.16644885521E+02  0.54836900233E+03  0.54904265852E+03  0.00000000000E+00 0. -1.
</event>
<event>
 4    1  0.6109945E+002  0.2505678E+02  0.7546771E-02  0.1468169E+00
          2   -1    0    0  503    0  0.00000000000E+00  0.00000000000E+00  0.28090870884E+03  0.28090870884E+03  0.00000000000E+00 0.  1.
         -2   -1    0    0    0  501 -0.00000000000E+00 -0.00000000000E+00 -0.27134629294E+01  0.27134629294E+01  0.00000000000E+00 0. -1.
         21    1    1    2  502  501 -0.16421379297E+02 -0.18925654607E+02  0.79551376419E+02  0.83404218062E+02  0.00000000000E+00 0. -1.
         21    1    1    2  503  502  0.16421379297E+02  0.18925654607E+02  0.19864386949E+03  0.20021795370E+03  0.00000000000E+00 0.  1.
</event>
<event>
 4    1  0.6109945E+002  0.3880709E+02  0.7546771E-02  0.1355622E+00
          2   -1    0    0  502    0  0.00000000000E+00  0.00000000000E+00  0.40417540241E+03  0.40417540241E+03  0.00000000000E+00 0.  1.
         -2   -1    0    0    0  501 -0.00000000000E+00 -0.00000000000E+00 -0.71132465645E+01  0.71132465645E+01  0.00000000000E+00 0. -1.
         21    1    1    2  502  503  0.16116181056E+00  0.38806753725E+02  0.34043716922E+03  0.34264187762E+03  0.00000000000E+00 0.  1.
         21    1    1    2  503  501 -0.16116181056E+00 -0.38806753725E+02  0.56624986620E+02  0.68646771356E+02  0.00000000000E+00 0. -1.
</event>
<event>
 4    1  0.6109945E+002  0.2720025E+02  0.7546771E-02  0.1445607E+00
          2   -1    0    0  502    0  0.00000000000E+00  0.00000000000E+00  0.55762369345E+01  0.55762369345E+01  0.00000000000E+00 0.  1.
         -2   -1    0    0    0  501 -0.00000000000E+00 -0.00000000000E+00 -0.17150963173E+03  0.17150963173E+03  0.00000000000E+00 0. -1.
         21    1    1    2  502  503 -0.21700693197E+02  0.16399190080E+02 -0.12509683617E+03  0.12801981074E+03  0.00000000000E+00 0.  1.
         21    1    1    2  503  501  0.21700693197E+02 -0.16399190080E+02 -0.40836558627E+02  0.49066057932E+02  0.00000000000E+00 0. -1.
</event>
<event>
 4    1  0.6109945E+002  0.3712299E+02  0.7546771E-02  0.1366223E+00
          2   -1    0    0  503    0  0.00000000000E+00  0.00000000000E+00  0.39907990477E+03  0.39907990477E+03  0.00000000000E+00 0.  1.
         -2   -1    0    0    0  501 -0.00000000000E+00 -0.00000000000E+00 -0.74952631040E+02  0.74952631040E+02  0.00000000000E+00 0. -1.
         21    1    1    2  502  501 -0.60666196889E+01  0.36623931818E+02 -0.69428318949E+02  0.78729967156E+02  0.00000000000E+00 0. -1.
         21    1    1    2  503  502  0.60666196889E+01 -0.36623931818E+02  0.39355559268E+03  0.39530256865E+03  0.00000000000E+00 0.  1.
</event>
<event>
 4    1  0.6109945E+002  0.2078625E+02  0.7546771E-02  0.1522339E+00
          2   -1    0    0  503    0  0.00000000000E+00  0.00000000000E+00  0.11919052634E+02  0.11919052634E+02  0.00000000000E+00 0.  1.
         -2   -1    0    0    0  501 -0.00000000000E+00 -0.00000000000E+00 -0.51056256352E+02  0.51056256352E+02  0.00000000000E+00 0. -1.
         21    1    1    2  502  501 -0.20508384990E+02 -0.33873650822E+01 -0.36525072356E+02  0.42025575638E+02  0.00000000000E+00 0. -1.
         21    1    1    2  503  502  0.20508384990E+02  0.33873650822E+01 -0.26121313615E+01  0.20949733348E+02  0.00000000000E+00 0.  1.
</event>
<event>
 4    1  0.6109945E+002  0.2400422E+02  0.7546771E-02  0.1480259E+00
          2   -1    0    0  502    0  0.00000000000E+00  0.00000000000E+00  0.99278323657E+02  0.99278323657E+02  0.00000000000E+00 0.  1.
         -2   -1    0    0    0  501 -0.00000000000E+00 -0.00000000000E+00 -0.82217021443E+01  0.82217021443E+01  0.00000000000E+00 0. -1.
         21    1    1    2  502  503 -0.15132609486E+02  0.18633487872E+02  0.74676187664E+02  0.78439376235E+02  0.00000000000E+00 0.  1.
         21    1    1    2  503  501  0.15132609486E+02 -0.18633487872E+02  0.16380433850E+02  0.29060649567E+02  0.00000000000E+00 0. -1.
</event>
<event>
 4    1  0.6109945E+002  0.5737129E+02  0.7546771E-02  0.1269035E+00
          2   -1    0    0  503    0  0.00000000000E+00  0.00000000000E+00  0.22957421663E+03  0.22957421663E+03  0.00000000000E+00 0. -1.
         -2   -1    0    0    0  501 -0.00000000000E+00 -0.00000000000E+00 -0.18426614118E+02  0.18426614118E+02  0.00000000000E+00 0.  1.
         21    1    1    2  502  501 -0.14779237680E+02 -0.55434999697E+02  0.47158345433E+02  0.74265568077E+02  0.00000000000E+00 0.  1.
         21    1    1    2  503  502  0.14779237680E+02  0.55434999697E+02  0.16398925708E+03  0.17373526267E+03  0.00000000000E+00 0. -1.
</event>
<event>
 4    1  0.6109945E+002  0.3686898E+02  0.7546771E-02  0.1367879E+00
          2   -1    0    0  502    0  0.00000000000E+00  0.00000000000E+00  0.93348275421E+03  0.93348275421E+03  0.00000000000E+00 0. -1.
         -2   -1    0    0    0  501 -0.00000000000E+00 -0.00000000000E+00 -0.14561845104E+01  0.14561845104E+01  0.00000000000E+00 0.  1.
         21    1    1    2  502  503  0.71818029751E+01 -0.36162737797E+02  0.46645767356E+03  0.46791247379E+03  0.00000000000E+00 0.  1.
         21    1    1    2  503  501 -0.71818029751E+01  0.36162737797E+02  0.46556889613E+03  0.46702646493E+03  0.00000000000E+00 0. -1.
</event>
<event>
 4    1  0.6109945E+002  0.2164046E+02  0.7546771E-02  0.1510314E+00
          2   -1    0    0  503    0  0.00000000000E+00  0.00000000000E+00  0.15543458710E+04  0.15543458710E+04  0.00000000000E+00 0.  1.
         -2   -1    0    0    0  501 -0.00000000000E+00 -0.00000000000E+00 -0.51135608842E+00  0.51135608842E+00  0.00000000000E+00 0. -1.
         21    1    1    2  502  501 -0.21314204037E+02  0.37435490760E+01  0.27863389093E+03  0.27947299445E+03  0.00000000000E+00 0. -1.
         21    1    1    2  503  502  0.21314204037E+02 -0.37435490760E+01  0.12752006240E+04  0.12753842326E+04  0.00000000000E+00 0.  1.
</event>
<event>
 4    1  0.6109945E+002  0.2627764E+02  0.7546771E-02  0.1455002E+00
          2   -1    0    0  502    0  0.00000000000E+00  0.00000000000E+00  0.15626955680E+03  0.15626955680E+03  0.00000000000E+00 0. -1.
         -2   -1    0    0    0  501 -0.00000000000E+00 -0.00000000000E+00 -0.72374320274E+01  0.72374320274E+01  0.00000000000E+00 0.  1.
         21    1    1    2  502  503  0.46032303194E+01 -0.25871306262E+02  0.12553577987E+03  0.12825656414E+03  0.00000000000E+00 0. -1.
         21    1    1    2  503  501 -0.46032303194E+01  0.25871306262E+02  0.23496344909E+02  0.35250424695E+02  0.00000000000E+00 0.  1.
</event>
<event>
 4    1  0.6109945E+002  0.2435035E+02  0.7546771E-02  0.1476204E+00
          2   -1    0    0  503    0  0.00000000000E+00  0.00000000000E+00  0.35227080078E+02  0.35227080078E+02  0.00000000000E+00 0.  1.
         -2   -1    0    0    0  501 -0.00000000000E+00 -0.00000000000E+00 -0.30129214163E+02  0.30129214163E+02  0.00000000000E+00 0. -1.
         21    1    1    2  502  501  0.13941385089E+02  0.19964401451E+02 -0.19160330552E+02  0.30984799666E+02  0.00000000000E+00 0. -1.
         21    1    1    2  503  502 -0.13941385089E+02 -0.19964401451E+02  0.24258196467E+02  0.34371494575E+02  0.00000000000E+00 0.  1.
</event>
<event>
 4    1  0.6109945E+002  0.5578644E+02  0.7546771E-02  0.1274862E+00
          2   -1    0    0  502    0  0.00000000000E+00  0.00000000000E+00  0.33400387717E+03  0.33400387717E+03  0.00000000000E+00 0. -1.
         -2   -1    0    0    0  501 -0.00000000000E+00 -0.00000000000E+00 -0.11639917620E+02  0.11639917620E+02  0.00000000000E+00 0.  1.
         21    1    1    2  502  503  0.55001705845E+02 -0.93241361773E+01  0.83988416783E+02  0.10082748293E+03  0.00000000000E+00 0.  1.
         21    1    1    2  503  501 -0.55001705845E+02  0.93241361773E+01  0.23837554277E+03  0.24481631186E+03  0.00000000000E+00 0. -1.
</event>
<event>
 4    1  0.6109945E+002  0.2243869E+02  0.7546771E-02  0.1499669E+00
          2   -1    0    0  503    0  0.00000000000E+00  0.00000000000E+00  0.20433038689E+04  0.20433038689E+04  0.00000000000E+00 0. -1.
         -2   -1    0    0    0  501 -0.00000000000E+00 -0.00000000000E+00 -0.27209385632E+00  0.27209385632E+00  0.00000000000E+00 0.  1.
         21    1    1    2  502  501 -0.92019408283E+01 -0.20465073096E+02  0.70760005092E+03  0.70795573802E+03  0.00000000000E+00 0.  1.
         21    1    1    2  503  502  0.92019408283E+01  0.20465073096E+02  0.13354317241E+04  0.13356202247E+04  0.00000000000E+00 0. -1.
</event>
<event>
 4    1  0.6109945E+002  0.2055385E+02  0.7546771E-02  0.1525731E+00
          2   -1    0    0  503    0  0.00000000000E+00  0.00000000000E+00  0.18792376938E+01  0.18792376938E+01  0.00000000000E+00 0. -1.
         -2   -1    0    0    0  501 -0.00000000000E+00 -0.00000000000E+00 -0.22687670677E+03  0.22687670677E+03  0.00000000000E+00 0.  1.
         21    1    1    2  502  501 -0.19929686752E+02 -0.50267751047E+01 -0.12343012955E+03  0.12512976369E+03  0.00000000000E+00 0. -1.
         21    1    1    2  503  502  0.19929686752E+02  0.50267751047E+01 -0.10156733953E+03  0.10362618077E+03  0.00000000000E+00 0.  1.
</event>
<event>
 4    1  0.6109945E+002  0.3630454E+02  0.7546771E-02  0.1371617E+00
          2   -1    0    0  503    0  0.00000000000E+00  0.00000000000E+00  0.19415112651E+04  0.19415112651E+04  0.00000000000E+00 0. -1.
         -2   -1    0    0    0  501 -0.00000000000E+00 -0.00000000000E+00 -0.51052359092E+01  0.51052359092E+01  0.00000000000E+00 0.  1.
         21    1    1    2  502  501 -0.31084639589E+02 -0.18755399687E+02  0.61914439953E+02  0.71773377450E+02  0.00000000000E+00 0.  1.
         21    1    1    2  503  502  0.31084639589E+02  0.18755399687E+02  0.18744915893E+04  0.18748431236E+04  0.00000000000E+00 0. -1.
</event>
<event>
 4    1  0.6109945E+002  0.2730619E+02  0.7546771E-02  0.1444556E+00
          2   -1    0    0  502    0  0.00000000000E+00  0.00000000000E+00  0.39118541372E+03  0.39118541372E+03  0.00000000000E+00 0. -1.
         -2   -1    0    0    0  501 -0.00000000000E+00 -0.00000000000E+00 -0.19938632157E+01  0.19938632157E+01  0.00000000000E+00 0.  1.
         21    1    1    2  502  503 -0.25784280347E+02 -0.89888245160E+01  0.15334470538E+03  0.15575694767E+03  0.00000000000E+00 0.  1.
         21    1    1    2  503  501  0.25784280347E+02  0.89888245160E+01  0.23584684513E+03  0.23742232928E+03  0.00000000000E+00 0. -1.
</event>
<event>
 4    1  0.6109945E+002  0.2370727E+02  0.7546771E-02  0.1483803E+00
          2   -1    0    0  502    0  0.00000000000E+00  0.00000000000E+00  0.26867253975E+04  0.26867253975E+04  0.00000000000E+00 0. -1.
         -2   -1    0    0    0  501 -0.00000000000E+00 -0.00000000000E+00 -0.20924021443E+00  0.20924021443E+00  0.00000000000E+00 0.  1.
         21    1    1    2  502  503 -0.12627852699E+02 -0.20064199224E+02  0.13641727763E+04  0.13643787591E+04  0.00000000000E+00 0. -1.
         21    1    1    2  503  501  0.12627852699E+02  0.20064199224E+02  0.13223433810E+04  0.13225558786E+04  0.00000000000E+00 0.  1.
</event>
<event>
 4    1  0.6109945E+002  0.2716940E+02  0.7546771E-02  0.1445914E+00
          2   -1    0    0  503    0  0.00000000000E+00  0.00000000000E+00  0.15821822188E+03  0.15821822188E+03  0.00000000000E+00 0.  1.
         -2   -1    0    0    0  501 -0.00000000000E+00 -0.00000000000E+00 -0.22190923069E+02  0.22190923069E+02  0.00000000000E+00 0. -1.
         21    1    1    2  502  501  0.71010434727E+01  0.26225020588E+02 -0.12149429112E+02  0.29762142916E+02  0.00000000000E+00 0. -1.
         21    1    1    2  503  502 -0.71010434727E+01 -0.26225020588E+02  0.14817672792E+03  0.15064700203E+03  0.00000000000E+00 0.  1.
</event>
<event>
 4    1  0.6109945E+002  0.6274662E+02  0.7546771E-02  0.1250776E+00
          2   -1    0    0  502    0  0.00000000000E+00  0.00000000000E+00  0.23204162786E+04  0.23204162786E+04  0.00000000000E+00 0. -1.
         -2   -1    0    0    0  501 -0.00000000000E+00 -0.00000000000E+00 -0.65240599181E+01  0.65240599181E+01  0.00000000000E+00 0.  1.
         21    1    1    2  502  503  0.60244205156E+02  0.17543497076E+02  0.21577509829E+04  0.21586631147E+04  0.00000000000E+00 0. -1.
         21    1    1    2  503  501 -0.60244205156E+02 -0.17543497076E+02  0.15614123573E+03  0.16827722377E+03  0.00000000000E+00 0.  1.
</event>
<event>
 4    1  0.6109945E+002  0.2592869E+02  0.7546771E-02  0.1458677E+00
          2   -1    0    0  502    0  0.00000000000E+00  0.00000000000E+00  0.13469811448E+03  0.13469811448E+03  0.00000000000E+00 0. -1.
         -2   -1    0    0    0  501 -0.00000000000E+00 -0.00000000000E+00 -0.86445015313E+01  0.86445015313E+01  0.00000000000E+00 0.  1.
         21    1    1    2  502  503 -0.22289310553E+00 -0.25927727704E+02  0.10961993321E+03  0.11264469141E+03  0.00000000000E+00 0. -1.
         21    1    1    2  503  501  0.22289310553E+00  0.25927727704E+02  0.16433679737E+02  0.30697924603E+02  0.00000000000E+00 0.  1.
</event>
<event>
 4    1  0.6109945E+002  0.3666166E+02  0.7546771E-02  0.1369243E+00
          2   -1    0    0  502    0  0.00000000000E+00  0.00000000000E+00  0.24496577904E+02  0.24496577904E+02  0.00000000000E+00 0. -1.
         -2   -1    0    0    0  501 -0.00000000000E+00 -0.00000000000E+00 -0.84201778621E+02  0.84201778621E+02  0.00000000000E+00 0.  1.
         21    1    1    2  502  503 -0.72327430010E+01  0.35941125437E+02  0.22260957433E+01  0.36729178745E+02  0.00000000000E+00 0. -1.
         21    1    1    2  503  501  0.72327430010E+01 -0.35941125437E+02 -0.61931296460E+02  0.71969177780E+02  0.00000000000E+00 0.  1.
</event>
<event>
 4    1  0.6109945E+002  0.1969699E+03  0.7546771E-02  0.1057306E+00
          2   -1    0    0  502    0  0.00000000000E+00  0.00000000000E+00  0.64928027449E+03  0.64928027449E+03  0.00000000000E+00 0. -1.
         -2   -1    0    0    0  501 -0.00000000000E+00 -0.00000000000E+00 -0.62716724845E+02  0.62716724845E+02  0.00000000000E+00 0.  1.
         21    1    1    2  502  503 -0.34288903411E+02  0.19396242201E+03  0.37065590165E+03  0.41974152461E+03  0.00000000000E+00 0.  1.
         21    1    1    2  503  501  0.34288903411E+02 -0.19396242201E+03  0.21590764799E+03  0.29225547473E+03  0.00000000000E+00 0. -1.
</event>
<event>
 4    1  0.6109945E+002  0.2419636E+02  0.7546771E-02  0.1477998E+00
          2   -1    0    0  502    0  0.00000000000E+00  0.00000000000E+00  0.48231608268E+01  0.48231608268E+01  0.00000000000E+00 0.  1.
         -2   -1    0    0    0  501 -0.00000000000E+00 -0.00000000000E+00 -0.14145406876E+03  0.14145406876E+03  0.00000000000E+00 0. -1.
         21    1    1    2  502  503  0.24127930939E+02 -0.18183978917E+01 -0.40767262336E+02  0.47407101796E+02  0.00000000000E+00 0.  1.
         21    1    1    2  503  501 -0.24127930939E+02  0.18183978917E+01 -0.95863645596E+02  0.98870127790E+02  0.00000000000E+00 0. -1.
</event>
<event>
 4    1  0.6109945E+002  0.2347141E+02  0.7546771E-02  0.1486662E+00
          2   -1    0    0  502    0  0.00000000000E+00  0.00000000000E+00  0.17449406022E+02  0.17449406022E+02  0.00000000000E+00 0.  1.
         -2   -1    0    0    0  501 -0.00000000000E+00 -0.00000000000E+00 -0.33495066734E+02  0.33495066734E+02  0.00000000000E+00 0. -1.
         21    1    1    2  502  503  0.13638784439E+02  0.19102111103E+02 -0.19188969103E+01  0.23549718787E+02  0.00000000000E+00 0.  1.
         21    1    1    2  503  501 -0.13638784439E+02 -0.19102111103E+02 -0.14126763802E+02  0.27394753970E+02  0.00000000000E+00 0. -1.
</event>
<event>
 4    1  0.6109945E+002  0.3073281E+02  0.7546771E-02  0.1413333E+00
          2   -1    0    0  502    0  0.00000000000E+00  0.00000000000E+00  0.23826486046E+03  0.23826486046E+03  0.00000000000E+00 0. -1.
         -2   -1    0    0    0  501 -0.00000000000E+00 -0.00000000000E+00 -0.13862347840E+02  0.13862347840E+02  0.00000000000E+00 0.  1.
         21    1    1    2  502  503 -0.66472398168E+01 -0.30005331281E+02  0.21872599759E+03  0.22087455201E+03  0.00000000000E+00 0. -1.
         21    1    1    2  503  501  0.66472398168E+01  0.30005331281E+02  0.56765150299E+01  0.31252656293E+02  0.00000000000E+00 0.  1.
</event>
<event>
 4    1  0.6109945E+002  0.3350387E+02  0.7546771E-02  0.1391398E+00
          2   -1    0    0  503    0  0.00000000000E+00  0.00000000000E+00  0.81796572501E+02  0.81796572501E+02  0.00000000000E+00 0.  1.
         -2   -1    0    0    0  501 -0.00000000000E+00 -0.00000000000E+00 -0.15739763302E+03  0.15739763302E+03  0.00000000000E+00 0. -1.
         21    1    1    2  502  501 -0.14891660942E+02  0.30012457669E+02 -0.15206503325E+03  0.15571218166E+03  0.00000000000E+00 0. -1.
         21    1    1    2  503  502  0.14891660942E+02 -0.30012457669E+02  0.76463972733E+02  0.83482023856E+02  0.00000000000E+00 0.  1.
</event>
<event>
 4    1  0.6109945E+002  0.2390683E+02  0.7546771E-02  0.1481414E+00
          2   -1    0    0  502    0  0.00000000000E+00  0.00000000000E+00  0.44134085084E+01  0.44134085084E+01  0.00000000000E+00 0.  1.
         -2   -1    0    0    0  501 -0.00000000000E+00 -0.00000000000E+00 -0.25562422907E+03  0.25562422907E+03  0.00000000000E+00 0. -1.
         21    1    1    2  502  503  0.23398629049E+02 -0.49031356676E+01 -0.34277314844E+02  0.41790799151E+02  0.00000000000E+00 0.  1.
         21    1    1    2  503  501 -0.23398629049E+02  0.49031356676E+01 -0.21693350572E+03  0.21824683843E+03  0.00000000000E+00 0. -1.
</event>
<event>
 4    1  0.6109945E+002  0.3271964E+02  0.7546771E-02  0.1397345E+00
          2   -1    0    0  502    0  0.00000000000E+00  0.00000000000E+00  0.39177368562E+02  0.39177368562E+02  0.00000000000E+00 0. -1.
         -2   -1    0    0    0  501 -0.00000000000E+00 -0.00000000000E+00 -0.57118767126E+02  0.57118767126E+02  0.00000000000E+00 0.  1.
         21    1    1    2  502  503 -0.14054920114E+02  0.29547145878E+02  0.25802311751E+02  0.41669340055E+02  0.00000000000E+00 0. -1.
         21    1    1    2  503  501  0.14054920114E+02 -0.29547145878E+02 -0.43743710315E+02  0.54626795633E+02  0.00000000000E+00 0.  1.
</event>
<event>
 4    1  0.6109945E+002  0.2794954E+02  0.7546771E-02  0.1438296E+00
          2   -1    0    0  503    0  0.00000000000E+00  0.00000000000E+00  0.75697927669E+02  0.75697927669E+02  0.00000000000E+00 0.  1.
         -2   -1    0    0    0  501 -0.00000000000E+00 -0.00000000000E+00 -0.14267277410E+02  0.14267277410E+02  0.00000000000E+00 0. -1.
         21    1    1    2  502  501  0.27945578884E+01 -0.27809484606E+02  0.70538687354E+01  0.28825926733E+02  0.00000000000E+00 0.  1.
         21    1    1    2  503  502 -0.27945578884E+01  0.27809484606E+02  0.54376781524E+02  0.61139278347E+02  0.00000000000E+00 0. -1.
</event>
<event>
 4    1  0.6109945E+002  0.2635999E+02  0.7546771E-02  0.1454145E+00
          2   -1    0    0  503    0  0.00000000000E+00  0.00000000000E+00  0.73322001250E+03  0.73322001250E+03  0.00000000000E+00 0.  1.
         -2   -1    0    0    0  501 -0.00000000000E+00 -0.00000000000E+00 -0.14084375573E+01  0.14084375573E+01  0.00000000000E+00 0. -1.
         21    1    1    2  502  501  0.12442853883E+02 -0.23238429666E+02  0.15581317362E+03  0.15802719481E+03  0.00000000000E+00 0. -1.
         21    1    1    2  503  502 -0.12442853883E+02  0.23238429666E+02  0.57599840132E+03  0.57660125525E+03  0.00000000000E+00 0.  1.
</event>
<event>
 4    1  0.6109945E+002  0.2756871E+02  0.7546771E-02  0.1441977E+00
          2   -1    0    0  503    0  0.00000000000E+00  0.00000000000E+00  0.75300480885E+02  0.75300480885E+02  0.00000000000E+00 0. -1.
         -2   -1    0    0    0  501 -0.00000000000E+00 -0.00000000000E+00 -0.11924276727E+02  0.11924276727E+02  0.00000000000E+00 0.  1.
         21    1    1    2  502  501 -0.25779549194E+02  0.97697894763E+01  0.14598596600E+02  0.31195399753E+02  0.00000000000E+00 0.  1.
         21    1    1    2  503  502  0.25779549194E+02 -0.97697894763E+01  0.48777607558E+02  0.56029357859E+02  0.00000000000E+00 0. -1.
</event>
<event>
 4    1  0.6109945E+002  0.2724527E+02  0.7546771E-02  0.1445160E+00
          2   -1    0    0  502    0  0.00000000000E+00  0.00000000000E+00  0.46532558258E+03  0.46532558258E+03  0.00000000000E+00 0.  1.
         -2   -1    0    0    0  501 -0.00000000000E+00 -0.00000000000E+00 -0.16642097204E+01  0.16642097204E+01  0.00000000000E+00 0. -1.
         21    1    1    2  502  503  0.25133620680E+02 -0.10516929745E+02  0.18429592972E+03  0.18629893830E+03  0.00000000000E+00 0.  1.
         21    1    1    2  503  501 -0.25133620680E+02  0.10516929745E+02  0.27936544314E+03  0.28069085400E+03  0.00000000000E+00 0. -1.
</event>
<event>
 4    1  0.6109945E+002  0.2463772E+02  0.7546771E-02  0.1472897E+00
          2   -1    0    0  503    0  0.00000000000E+00  0.00000000000E+00  0.13811258916E+03  0.13811258916E+03  0.00000000000E+00 0.  1.
         -2   -1    0    0    0  501 -0.00000000000E+00 -0.00000000000E+00 -0.44252543882E+01  0.44252543882E+01  0.00000000000E+00 0. -1.
         21    1    1    2  502  501  0.24548513370E+02  0.20947230933E+01  0.72727663632E+02  0.76787566903E+02  0.00000000000E+00 0.  1.
         21    1    1    2  503  502 -0.24548513370E+02 -0.20947230933E+01  0.60959671141E+02  0.65750276647E+02  0.00000000000E+00 0. -1.
</event>
<event>
 4    1  0.6109945E+002  0.2285365E+02  0.7546771E-02  0.1494344E+00
          2   -1    0    0  503    0  0.00000000000E+00  0.00000000000E+00  0.16994942609E+03  0.16994942609E+03  0.00000000000E+00 0.  1.
         -2   -1    0    0    0  501 -0.00000000000E+00 -0.00000000000E+00 -0.59276853133E+01  0.59276853133E+01  0.00000000000E+00 0. -1.
         21    1    1    2  502  501 -0.37811046242E+01 -0.22538690326E+02  0.20986917673E+02  0.31028052263E+02  0.00000000000E+00 0. -1.
         21    1    1    2  503  502  0.37811046242E+01  0.22538690326E+02  0.14303482311E+03  0.14484905914E+03  0.00000000000E+00 0.  1.
</event>
<event>
 4    1  0.6109945E+002  0.2022785E+02  0.7546771E-02  0.1530581E+00
          2   -1    0    0  503    0  0.00000000000E+00  0.00000000000E+00  0.14035910068E+03  0.14035910068E+03  0.00000000000E+00 0.  1.
         -2   -1    0    0    0  501 -0.00000000000E+00 -0.00000000000E+00 -0.29933585245E+01  0.29933585245E+01  0.00000000000E+00 0. -1.
         21    1    1    2  502  501 -0.10439796963E+02  0.17325601030E+02  0.57096090102E+02  0.60573338331E+02  0.00000000000E+00 0. -1.
         21    1    1    2  503  502  0.10439796963E+02 -0.17325601030E+02  0.80269652049E+02  0.82779120869E+02  0.00000000000E+00 0.  1.
</event>
<event>
 4    1  0.6109945E+002  0.2353064E+02  0.7546771E-02  0.1485940E+00
          2   -1    0    0  502    0  0.00000000000E+00  0.00000000000E+00  0.69725283099E+02  0.69725283099E+02  0.00000000000E+00 0.  1.
         -2   -1    0    0    0  501 -0.00000000000E+00 -0.00000000000E+00 -0.96797035199E+01  0.96797035199E+01  0.00000000000E+00 0. -1.
         21    1    1    2  502  503  0.15994449815E+02 -0.17258870120E+02  0.46849334867E+02  0.52426626824E+02  0.00000000000E+00 0. -1.
         21    1    1    2  503  501 -0.15994449815E+02  0.17258870120E+02  0.13196244712E+02  0.26978359795E+02  0.00000000000E+00 0.  1.
</event>
<event>
 4    1  0.6109945E+002  0.3023744E+02  0.7546771E-02  0.1417544E+00
          2   -1    0    0  502    0  0.00000000000E+00  0.00000000000E+00  0.36088191957E+02  0.36088191957E+02  0.00000000000E+00 0. -1.
         -2   -1    0    0    0  501 -0.00000000000E+00 -0.00000000000E+00 -0.27682985880E+02  0.27682985880E+02  0.00000000000E+00 0.  1.
         21    1    1    2  502  503  0.18982247154E+02 -0.23536712171E+02 -0.50830990183E+01  0.30661709386E+02  0.00000000000E+00 0.  1.
         21    1    1    2  503  501 -0.18982247154E+02  0.23536712171E+02  0.13488305095E+02  0.33109468452E+02  0.00000000000E+00 0. -1.
</event>
<event>
 4    1  0.6109945E+002  0.2468508E+02  0.7546771E-02  0.1472357E+00
          2   -1    0    0  502    0  0.00000000000E+00  0.00000000000E+00  0.24865180532E+02  0.24865180532E+02  0.00000000000E+00 0. -1.
         -2   -1    0    0    0  501 -0.00000000000E+00 -0.00000000000E+00 -0.37326013676E+02  0.37326013676E+02  0.00000000000E+00 0.  1.
         21    1    1    2  502  503  0.20410228919E+02  0.13884371243E+02  0.11993113432E+02  0.27444270424E+02  0.00000000000E+00 0. -1.
         21    1    1    2  503  501 -0.20410228919E+02 -0.13884371243E+02 -0.24453946575E+02  0.34746923784E+02  0.00000000000E+00 0.  1.
</event>
<event>
 4    1  0.6109945E+002  0.2121057E+02  0.7546771E-02  0.1516280E+00
          2   -1    0    0  503    0  0.00000000000E+00  0.00000000000E+00  0.39760035706E+02  0.39760035706E+02  0.00000000000E+00 0. -1.
         -2   -1    0    0    0  501 -0.00000000000E+00 -0.00000000000E+00 -0.23768749543E+02  0.23768749543E+02  0.00000000000E+00 0.  1.
         21    1    1    2  502  501  0.21189464118E+02 -0.94598150264E+00 -0.14996842973E+02  0.25976789058E+02  0.00000000000E+00 0.  1.
         21    1    1    2  503  502 -0.21189464118E+02  0.94598150264E+00  0.30988129136E+02  0.37551996192E+02  0.00000000000E+00 0. -1.
</event>
<event>
 4    1  0.6109945E+002  0.3610638E+02  0.7546771E-02  0.1372948E+00
          2   -1    0    0  502    0  0.00000000000E+00  0.00000000000E+00  0.25581771850E+03  0.25581771850E+03  0.00000000000E+00 0.  1.
         -2   -1    0    0    0  501 -0.00000000000E+00 -0.00000000000E+00 -0.10718119169E+02  0.10718119169E+02  0.00000000000E+00 0. -1.
         21    1    1    2  502  503  0.32572310812E+02  0.15579310400E+02  0.21906880506E+03  0.22202434933E+03  0.00000000000E+00 0.  1.
         21    1    1    2  503  501 -0.32572310812E+02 -0.15579310400E+02  0.26030794278E+02  0.44511488347E+02  0.00000000000E+00 0. -1.
</event>
<event>
 4    1  0.6109945E+002  0.2135344E+02  0.7546771E-02  0.1514278E+00
          2   -1    0    0  502    0  0.00000000000E+00  0.00000000000E+00  0.20813691838E+01  0.20813691838E+01  0.00000000000E+00 0. -1.
         -2   -1    0    0    0  501 -0.00000000000E+00 -0.00000000000E+00 -0.76560737715E+03  0.76560737715E+03  0.00000000000E+00 0.  1.
         21    1    1    2  502  503 -0.98239675348E+01  0.18959405463E+02 -0.57452269559E+02  0.61292190947E+02  0.00000000000E+00 0. -1.
         21    1    1    2  503  501  0.98239675348E+01 -0.18959405463E+02 -0.70607373840E+03  0.70639655538E+03  0.00000000000E+00 0.  1.
</event>
<event>
 4    1  0.6109945E+002  0.2173655E+02  0.7546771E-02  0.1509003E+00
          2   -1    0    0  503    0  0.00000000000E+00  0.00000000000E+00  0.15620009772E+03  0.15620009772E+03  0.00000000000E+00 0.  1.
         -2   -1    0    0    0  501 -0.00000000000E+00 -0.00000000000E+00 -0.45367054026E+01  0.45367054026E+01  0.00000000000E+00 0. -1.
         21    1    1    2  502  501 -0.19761345781E+02  0.90535472193E+01  0.29436375592E+02  0.36592044385E+02  0.00000000000E+00 0. -1.
         21    1    1    2  503  502  0.19761345781E+02 -0.90535472193E+01  0.12222701673E+03  0.12414475874E+03  0.00000000000E+00 0.  1.
</event>
<event>
 4    1  0.6109945E+002  0.3636943E+02  0.7546771E-02  0.1371183E+00
          2   -1    0    0  502    0  0.00000000000E+00  0.00000000000E+00  0.40781050218E+02  0.40781050218E+02  0.00000000000E+00 0. -1.
         -2   -1    0    0    0  501 -0.00000000000E+00 -0.00000000000E+00 -0.32467334688E+02  0.32467334688E+02  0.00000000000E+00 0.  1.
         21    1    1    2  502  503  0.49367801954E+00 -0.36366077525E+02  0.53117937897E+01  0.36755278068E+02  0.00000000000E+00 0.  1.
         21    1    1    2  503  501 -0.49367801954E+00  0.36366077525E+02  0.30019217411E+01  0.36493106838E+02  0.00000000000E+00 0. -1.
</event>
<event>
 4    1  0.6109945E+002  0.3148431E+02  0.7546771E-02  0.1407122E+00
          2   -1    0    0  502    0  0.00000000000E+00  0.00000000000E+00  0.31160311655E+02  0.31160311655E+02  0.00000000000E+00 0.  1.
         -2   -1    0    0    0  501 -0.00000000000E+00 -0.00000000000E+00 -0.33793174649E+02  0.33793174649E+02  0.00000000000E+00 0. -1.
         21    1    1    2  502  503  0.27012066605E+02  0.16174369422E+02  0.65477595497E+01  0.32157971385E+02  0.00000000000E+00 0.  1.
         21    1    1    2  503  501 -0.27012066605E+02 -0.16174369422E+02 -0.91806225441E+01  0.32795514919E+02  0.00000000000E+00 0. -1.
</event>
<event>
 4    1  0.6109945E+002  0.2224131E+02  0.7546771E-02  0.1502251E+00
          2   -1    0    0  503    0  0.00000000000E+00  0.00000000000E+00  0.56426775602E+02  0.56426775602E+02  0.00000000000E+00 0. -1.
         -2   -1    0    0    0  501 -0.00000000000E+00 -0.00000000000E+00 -0.16583078431E+02  0.16583078431E+02  0.00000000000E+00 0.  1.
         21    1    1    2  502  501 -0.21948255411E+02 -0.35986142177E+01 -0.51405150900E+01  0.22827633151E+02  0.00000000000E+00 0.  1.
         21    1    1    2  503  502  0.21948255411E+02  0.35986142177E+01  0.44984212262E+02  0.50182220882E+02  0.00000000000E+00 0. -1.
</event>
<event>
 4    1  0.6109945E+002  0.2641751E+02  0.7546771E-02  0.1453549E+00
          2   -1    0    0  502    0  0.00000000000E+00  0.00000000000E+00  0.22027030339E+01  0.22027030339E+01  0.00000000000E+00 0. -1.
         -2   -1    0    0    0  501 -0.00000000000E+00 -0.00000000000E+00 -0.31773315161E+03  0.31773315161E+03  0.00000000000E+00 0.  1.
         21    1    1    2  502  503 -0.84819800361E+01 -0.25018810043E+02 -0.16628867764E+03  0.16837401567E+03  0.00000000000E+00 0.  1.
         21    1    1    2  503  501  0.84819800361E+01  0.25018810043E+02 -0.14924177094E+03  0.15156183898E+03  0.00000000000E+00 0. -1.
</event>
<event>
 4    1  0.6109945E+002  0.4950370E+02  0.7546771E-02  0.1300339E+00
          2   -1    0    0  502    0  0.00000000000E+00  0.00000000000E+00  0.26777134666E+02  0.26777134666E+02  0.00000000000E+00 0.  1.
         -2   -1    0    0    0  501 -0.00000000000E+00 -0.00000000000E+00 -0.97097604103E+02  0.97097604103E+02  0.00000000000E+00 0. -1.
         21    1    1    2  502  503  0.96799200867E+01  0.48548073305E+02 -0.50006312276E+02  0.70365101733E+02  0.00000000000E+00 0. -1.
         21    1    1    2  503  501 -0.96799200867E+01 -0.48548073305E+02 -0.20314157161E+02  0.53509637036E+02  0.00000000000E+00 0.  1.
</event>
<event>
 4    1  0.6109945E+002  0.2343308E+02  0.7546771E-02  0.1487130E+00
          2   -1    0    0  503    0  0.00000000000E+00  0.00000000000E+00  0.53113887502E+03  0.53113887502E+03  0.00000000000E+00 0. -1.
         -2   -1    0    0    0  501 -0.00000000000E+00 -0.00000000000E+00 -0.12622282350E+01  0.12622282350E+01  0.00000000000E+00 0.  1.
         21    1    1    2  502  501 -0.74404838385E+01 -0.22220446159E+02  0.15170264369E+03  0.15350179520E+03  0.00000000000E+00 0.  1.
         21    1    1    2  503  502  0.74404838385E+01  0.22220446159E+02  0.37817400309E+03  0.37889930805E+03  0.00000000000E+00 0. -1.
</event>
<event>
 4    1  0.6109945E+002  0.2063771E+02  0.7546771E-02  0.1524501E+00
          2   -1    0    0  503    0  0.00000000000E+00  0.00000000000E+00  0.22354166666E+02  0.22354166666E+02  0.00000000000E+00 0. -1.
         -2   -1    0    0    0  501 -0.00000000000E+00 -0.00000000000E+00 -0.20898456120E+02  0.20898456120E+02  0.00000000000E+00 0.  1.
         21    1    1    2  502  501  0.78674872255E+01  0.19079251485E+02 -0.56985869263E+01  0.21410023013E+02  0.00000000000E+00 0. -1.
         21    1    1    2  503  502 -0.78674872255E+01 -0.19079251485E+02  0.71542974723E+01  0.21842599772E+02  0.00000000000E+00 0.  1.
</event>
<event>
 4    1  0.6109945E+002  0.2898890E+02  0.7546771E-02  0.1428591E+00
          2   -1    0    0  502    0  0.00000000000E+00  0.00000000000E+00  0.63159502417E+02  0.63159502417E+02  0.00000000000E+00 0.  1.
         -2   -1    0    0    0  501 -0.00000000000E+00 -0.00000000000E+00 -0.83325923736E+02  0.83325923736E+02  0.00000000000E+00 0. -1.
         21    1    1    2  502  503 -0.24413488150E+02  0.15631321343E+02  0.57057714085E+02  0.63999526148E+02  0.00000000000E+00 0.  1.
         21    1    1    2  503  501  0.24413488150E+02 -0.15631321343E+02 -0.77224135404E+02  0.82485900004E+02  0.00000000000E+00 0. -1.
</event>
<event>
 4    1  0.6109945E+002  0.3758216E+02  0.7546771E-02  0.1363268E+00
          2   -1    0    0  503    0  0.00000000000E+00  0.00000000000E+00  0.16889857445E+04  0.16889857445E+04  0.00000000000E+00 0. -1.
         -2   -1    0    0    0  501 -0.00000000000E+00 -0.00000000000E+00 -0.83656484799E+00  0.83656484799E+00  0.00000000000E+00 0.  1.
         21    1    1    2  502  501  0.28777502282E+02 -0.24171770468E+02  0.82775744125E+03  0.82861016206E+03  0.00000000000E+00 0. -1.
         21    1    1    2  503  502 -0.28777502282E+02  0.24171770468E+02  0.86039173841E+03  0.86121214730E+03  0.00000000000E+00 0.  1.
</event>
<event>
 4    1  0.6109945E+002  0.5220175E+02  0.7546771E-02  0.1288899E+00
          2   -1    0    0  502    0  0.00000000000E+00  0.00000000000E+00  0.11678115428E+03  0.11678115428E+03  0.00000000000E+00 0. -1.
         -2   -1    0    0    0  501 -0.00000000000E+00 -0.00000000000E+00 -0.61741634163E+02  0.61741634163E+02  0.00000000000E+00 0.  1.
         21    1    1    2  502  503 -0.50723039343E+02 -0.12336762808E+02  0.97921098506E+02  0.11096649931E+03  0.00000000000E+00 0. -1.
         21    1    1    2  503  501  0.50723039343E+02  0.12336762808E+02 -0.42881578386E+02  0.67556289134E+02  0.00000000000E+00 0.  1.
</event>
<event>
 4    1  0.6109945E+002  0.3475679E+02  0.7546771E-02  0.1382281E+00
          2   -1    0    0  503    0  0.00000000000E+00  0.00000000000E+00  0.44364465499E+02  0.44364465499E+02  0.00000000000E+00 0. -1.
         -2   -1    0    0    0  501 -0.00000000000E+00 -0.00000000000E+00 -0.50356145269E+02  0.50356145269E+02  0.00000000000E+00 0.  1.
         21    1    1    2  502  501  0.12915760898E+02 -0.32267901954E+02 -0.35091181348E+02  0.49390539422E+02  0.00000000000E+00 0.  1.
         21    1    1    2  503  502 -0.12915760898E+02  0.32267901954E+02  0.29099501578E+02  0.45330071345E+02  0.00000000000E+00 0. -1.
</event>
<event>
 4    1  0.6109945E+002  0.2045688E+02  0.7546771E-02  0.1527162E+00
          2   -1    0    0  503    0  0.00000000000E+00  0.00000000000E+00  0.11096856418E+02  0.11096856418E+02  0.00000000000E+00 0. -1.
         -2   -1    0    0    0  501 -0.00000000000E+00 -0.00000000000E+00 -0.84870611797E+02  0.84870611797E+02  0.00000000000E+00 0.  1.
         21    1    1    2  502  501  0.87353666687E+01 -0.18498035702E+02 -0.72655002262E+02  0.75480019272E+02  0.00000000000E+00 0.  1.
         21    1    1    2  503  502 -0.87353666687E+01  0.18498035702E+02 -0.11187531166E+01  0.20487448943E+02  0.00000000000E+00 0. -1.
</event>
<event>
 4    1  0.6109945E+002  0.3348452E+02  0.7546771E-02  0.1391542E+00
          2   -1    0    0  502    0  0.00000000000E+00  0.00000000000E+00  0.13861299030E+01  0.13861299030E+01  0.00000000000E+00 0. -1.
         -2   -1    0    0    0  501 -0.00000000000E+00 -0.00000000000E+00 -0.96713807169E+03  0.96713807169E+03  0.00000000000E+00 0.  1.
         21    1    1    2  502  503  0.98026086001E+01  0.32017523830E+02 -0.28698294836E+03  0.28892979358E+03  0.00000000000E+00 0. -1.
         21    1    1    2  503  501 -0.98026086001E+01 -0.32017523830E+02 -0.67876899343E+03  0.67959440802E+03  0.00000000000E+00 0.  1.
</event>
<event>
 4    1  0.6109945E+002  0.2455111E+02  0.7546771E-02  0.1473888E+00
          2   -1    0    0  502    0  0.00000000000E+00  0.00000000000E+00  0.15479414619E+01  0.15479414619E+01  0.00000000000E+00 0.  1.
         -2   -1    0    0    0  501 -0.00000000000E+00 -0.00000000000E+00 -0.44867845447E+03  0.44867845447E+03  0.00000000000E+00 0. -1.
         21    1    1    2  502  503 -0.93851701364E+01 -0.22686460420E+02 -0.14173592567E+03  0.14384654856E+03  0.00000000000E+00 0.  1.
         21    1    1    2  503  501  0.93851701364E+01  0.22686460420E+02 -0.30539458733E+03  0.30637984737E+03  0.00000000000E+00 0. -1.
</event>
<event>
 4    1  0.6109945E+002  0.2179072E+02  0.7546771E-02  0.1508268E+00
          2   -1    0    0  503    0  0.00000000000E+00  0.00000000000E+00  0.37153001405E+03  0.37153001405E+03  0.00000000000E+00 0. -1.
         -2   -1    0    0    0  501 -0.00000000000E+00 -0.00000000000E+00 -0.14866449190E+01  0.14866449190E+01  0.00000000000E+00 0.  1.
         21    1    1    2  502  501  0.20904750286E+02 -0.61503517862E+01  0.11515947283E+03  0.11720298458E+03  0.00000000000E+00 0.  1.
         21    1    1    2  503  502 -0.20904750286E+02  0.61503517862E+01  0.25488389630E+03  0.25581367439E+03  0.00000000000E+00 0. -1.
</event>
<event>
 4    1  0.6109945E+002  0.2028020E+02  0.7546771E-02  0.1529795E+00
          2   -1    0    0  502    0  0.00000000000E+00  0.00000000000E+00  0.40421414032E+02  0.40421414032E+02  0.00000000000E+00 0. -1.
         -2   -1    0    0    0  501 -0.00000000000E+00 -0.00000000000E+00 -0.11152268623E+02  0.11152268623E+02  0.00000000000E+00 0.  1.
         21    1    1    2  502  503 -0.68889291228E+01  0.19074307889E+02  0.22268196991E+02  0.30119083039E+02  0.00000000000E+00 0. -1.
         21    1    1    2  503  501  0.68889291228E+01 -0.19074307889E+02  0.70009484178E+01  0.21454599615E+02  0.00000000000E+00 0.  1.
</event>
<event>
 4    1  0.6109945E+002  0.2453066E+02  0.7546771E-02  0.1474123E+00
          2   -1    0    0  502    0  0.00000000000E+00  0.00000000000E+00  0.10429637041E+04  0.10429637041E+04  0.00000000000E+00 0. -1.
         -2   -1    0    0    0  501 -0.00000000000E+00 -0.00000000000E+00 -0.87446896398E+01  0.87446896398E+01  0.00000000000E+00 0.  1.
         21    1    1    2  502  503 -0.23913767221E+02 -0.54667318121E+01  0.10253200750E+04  0.10256134796E+04  0.00000000000E+00 0. -1.
         21    1    1    2  503  501  0.23913767221E+02  0.54667318121E+01  0.88989394892E+01  0.26094914130E+02  0.00000000000E+00 0.  1.
</event>
<event>
 4    1  0.6109945E+002  0.4263582E+02  0.7546771E-02  0.1333696E+00
          2   -1    0    0  503    0  0.00000000000E+00  0.00000000000E+00  0.29848028494E+02  0.29848028494E+02  0.00000000000E+00 0. -1.
         -2   -1    0    0    0  501 -0.00000000000E+00 -0.00000000000E+00 -0.74383569865E+02  0.74383569865E+02  0.00000000000E+00 0.  1.
         21    1    1    2  502  501 -0.20633345942E+02 -0.37310561518E+02 -0.44454670845E+02  0.61595703791E+02  0.00000000000E+00 0. -1.
         21    1    1    2  503  502  0.20633345942E+02  0.37310561518E+02 -0.80870526257E-01  0.42635894568E+02  0.00000000000E+00 0.  1.
</event>
<event>
 4    1  0.6109945E+002  0.2906835E+02  0.7546771E-02  0.1427869E+00
          2   -1    0    0  503    0  0.00000000000E+00  0.00000000000E+00  0.75071849267E+02  0.75071849267E+02  0.00000000000E+00 0. -1.
         -2   -1    0    0    0  501 -0.00000000000E+00 -0.00000000000E+00 -0.12323238221E+02  0.12323238221E+02  0.00000000000E+00 0.  1.
         21    1    1    2  502  501 -0.28350920828E+02 -0.64182557421E+01  0.18511558775E+02  0.34462247849E+02  0.00000000000E+00 0.  1.
         21    1    1    2  503  502  0.28350920828E+02  0.64182557421E+01  0.44237052271E+02  0.52932839638E+02  0.00000000000E+00 0. -1.
</event>
<event>
 4    1  0.6109945E+002  0.2716304E+02  0.7546771E-02  0.1445977E+00
          2   -1    0    0  502    0  0.00000000000E+00  0.00000000000E+00  0.61690096645E+01  0.61690096645E+01  0.00000000000E+00 0. -1.
         -2   -1    0    0    0  501 -0.00000000000E+00 -0.00000000000E+00 -0.20111729459E+03  0.20111729459E+03  0.00000000000E+00 0.  1.
         21    1    1    2  502  503 -0.14631298653E+02  0.22885715551E+02 -0.31490953175E+02  0.41587390016E+02  0.00000000000E+00 0. -1.
         21    1    1    2  503  501  0.14631298653E+02 -0.22885715551E+02 -0.16345733175E+03  0.16569891424E+03  0.00000000000E+00 0.  1.
</event>
<event>
 4    1  0.6109945E+002  0.2789251E+02  0.7546771E-02  0.1438843E+00
          2   -1    0    0  503    0  0.00000000000E+00  0.00000000000E+00  0.87561405677E+01  0.87561405677E+01  0.00000000000E+00 0. -1.
         -2   -1    0    0    0  501 -0.00000000000E+00 -0.00000000000E+00 -0.10232136690E+03  0.10232136690E+03  0.00000000000E+00 0.  1.
         21    1    1    2  502  501  0.13818587934E+02 -0.24228884925E+02 -0.66933861494E+02  0.72512992295E+02  0.00000000000E+00 0. -1.
         21    1    1    2  503  502 -0.13818587934E+02  0.24228884925E+02 -0.26631364835E+02  0.38564515169E+02  0.00000000000E+00 0.  1.
</event>
<event>
 4    1  0.6109945E+002  0.2368101E+02  0.7546771E-02  0.1484119E+00
          2   -1    0    0  502    0  0.00000000000E+00  0.00000000000E+00  0.89185719059E+03  0.89185719059E+03  0.00000000000E+00 0.  1.
         -2   -1    0    0    0  501 -0.00000000000E+00 -0.00000000000E+00 -0.69268843312E+00  0.69268843312E+00  0.00000000000E+00 0. -1.
         21    1    1    2  502  503 -0.23505217460E+02 -0.28800717957E+01  0.31003779271E+03  0.31094086732E+03  0.00000000000E+00 0. -1.
         21    1    1    2  503  501  0.23505217460E+02  0.28800717957E+01  0.58112670944E+03  0.58160901170E+03  0.00000000000E+00 0.  1.
</event>
<event>
 4    1  0.6109945E+002  0.2175364E+02  0.7546771E-02  0.1508771E+00
          2   -1    0    0  502    0  0.00000000000E+00  0.00000000000E+00  0.18369416962E+01  0.18369416962E+01  0.00000000000E+00 0. -1.
         -2   -1    0    0    0  501 -0.00000000000E+00 -0.00000000000E+00 -0.26109917194E+03  0.26109917194E+03  0.00000000000E+00 0.  1.
         21    1    1    2  502  503  0.47110012123E+01  0.21237401838E+02 -0.14482146886E+03  0.14644616285E+03  0.00000000000E+00 0.  1.
         21    1    1    2  503  501 -0.47110012123E+01 -0.21237401838E+02 -0.11444076138E+03  0.11648995079E+03  0.00000000000E+00 0. -1.
</event>
<event>
 4    1  0.6109945E+002  0.3553500E+02  0.7546771E-02  0.1376841E+00
          2   -1    0    0  502    0  0.00000000000E+00  0.00000000000E+00  0.87877684731E+01  0.87877684731E+01  0.00000000000E+00 0.  1.
         -2   -1    0    0    0  501 -0.00000000000E+00 -0.00000000000E+00 -0.49106617473E+03  0.49106617473E+03  0.00000000000E+00 0. -1.
         21    1    1    2  502  503  0.31887791391E+02 -0.15681350805E+02 -0.30934902160E+02  0.47113736580E+02  0.00000000000E+00 0.  1.
         21    1    1    2  503  501 -0.31887791391E+02  0.15681350805E+02 -0.45134350410E+03  0.45274020663E+03  0.00000000000E+00 0. -1.
</event>
<event>
 4    1  0.6109945E+002  0.2520720E+02  0.7546771E-02  0.1466499E+00
          2   -1    0    0  503    0  0.00000000000E+00  0.00000000000E+00  0.12255001224E+04  0.12255001224E+04  0.00000000000E+00 0.  1.
         -2   -1    0    0    0  501 -0.00000000000E+00 -0.00000000000E+00 -0.95072594524E+00  0.95072594524E+00  0.00000000000E+00 0. -1.
         21    1    1    2  502  501 -0.12234544297E+02 -0.22039027219E+02  0.19879357040E+03  0.20038534484E+03  0.00000000000E+00 0. -1.
         21    1    1    2  503  502  0.12234544297E+02  0.22039027219E+02  0.10257558261E+04  0.10260655035E+04  0.00000000000E+00 0.  1.
</event>
<event>
 4    1  0.6109945E+002  0.2578245E+02  0.7546771E-02  0.1460237E+00
          2   -1    0    0  502    0  0.00000000000E+00  0.00000000000E+00  0.31194945020E+02  0.31194945020E+02  0.00000000000E+00 0.  1.
         -2   -1    0    0    0  501 -0.00000000000E+00 -0.00000000000E+00 -0.44918510465E+02  0.44918510465E+02  0.00000000000E+00 0. -1.
         21    1    1    2  502  503 -0.25693597064E+02  0.21386136876E+01  0.20728859816E+02  0.33082022730E+02  0.00000000000E+00 0.  1.
         21    1    1    2  503  501  0.25693597064E+02 -0.21386136876E+01 -0.34452425261E+02  0.43031432755E+02  0.00000000000E+00 0. -1.
</event>
<event>
 4    1  0.6109945E+002  0.4007089E+02  0.7546771E-02  0.1348071E+00
          2   -1    0    0  503    0  0.00000000000E+00  0.00000000000E+00  0.12019933468E+02  0.12019933468E+02  0.00000000000E+00 0.  1.
         -2   -1    0    0    0  501 -0.00000000000E+00 -0.00000000000E+00 -0.15796394797E+03  0.15796394797E+03  0.00000000000E+00 0. -1.
         21    1    1    2  502  501  0.29432051574E+02  0.27192466617E+02 -0.10636161817E+03  0.11365944624E+03  0.00000000000E+00 0. -1.
         21    1    1    2  503  502 -0.29432051574E+02 -0.27192466617E+02 -0.39582396332E+02  0.56324435194E+02  0.00000000000E+00 0.  1.
</event>
<event>
 4    1  0.6109945E+002  0.2301406E+02  0.7546771E-02  0.1492322E+00
          2   -1    0    0  503    0  0.00000000000E+00  0.00000000000E+00  0.44667717023E+03  0.44667717023E+03  0.00000000000E+00 0.  1.
         -2   -1    0    0    0  501 -0.00000000000E+00 -0.00000000000E+00 -0.89078175880E+01  0.89078175880E+01  0.00000000000E+00 0. -1.
         21    1    1    2  502  501 -0.19333805013E+02 -0.12484019758E+02  0.67944798410E+01  0.23996077220E+02  0.00000000000E+00 0. -1.
         21    1    1    2  503  502  0.19333805013E+02  0.12484019758E+02  0.43097487280E+03  0.43158891060E+03  0.00000000000E+00 0.  1.
</event>
<event>
 4    1  0.6109945E+002  0.2285720E+02  0.7546771E-02  0.1494299E+00
          2   -1    0    0  502    0  0.00000000000E+00  0.00000000000E+00  0.14149187185E+04  0.14149187185E+04  0.00000000000E+00 0.  1.
         -2   -1    0    0    0  501 -0.00000000000E+00 -0.00000000000E+00 -0.86851945974E+00  0.86851945974E+00  0.00000000000E+00 0. -1.
         21    1    1    2  502  503  0.10656725611E+02  0.20220925924E+02  0.12437452505E+04  0.12439552643E+04  0.00000000000E+00 0.  1.
         21    1    1    2  503  501 -0.10656725611E+02 -0.20220925924E+02  0.17030494859E+03  0.17183197362E+03  0.00000000000E+00 0. -1.
</event>
<event>
 4    1  0.6109945E+002  0.2636858E+02  0.7546771E-02  0.1454056E+00
          2   -1    0    0  503    0  0.00000000000E+00  0.00000000000E+00  0.11857859555E+04  0.11857859555E+04  0.00000000000E+00 0. -1.
         -2   -1    0    0    0  501 -0.00000000000E+00 -0.00000000000E+00 -0.62324778077E+00  0.62324778077E+00  0.00000000000E+00 0.  1.
         21    1    1    2  502  501  0.26165091358E+02  0.32695926286E+01  0.73688975993E+03  0.73736139072E+03  0.00000000000E+00 0.  1.
         21    1    1    2  503  502 -0.26165091358E+02 -0.32695926286E+01  0.44827294774E+03  0.44904781251E+03  0.00000000000E+00 0. -1.
</event>
<event>
 4    1  0.6109945E+002  0.2820550E+02  0.7546771E-02  0.1435860E+00
          2   -1    0    0  503    0  0.00000000000E+00  0.00000000000E+00  0.23521182778E+04  0.23521182778E+04  0.00000000000E+00 0. -1.
         -2   -1    0    0    0  501 -0.00000000000E+00 -0.00000000000E+00 -0.40779716400E+00  0.40779716400E+00  0.00000000000E+00 0.  1.
         21    1    1    2  502  501 -0.10170886317E+02  0.26307855110E+02  0.69001496099E+03  0.69059119352E+03  0.00000000000E+00 0.  1.
         21    1    1    2  503  502  0.10170886317E+02 -0.26307855110E+02  0.16616955196E+04  0.16619348814E+04  0.00000000000E+00 0. -1.
</event>
<event>
 4    1  0.6109945E+002  0.8807866E+02  0.7546771E-02  0.1186241E+00
          2   -1    0    0  502    0  0.00000000000E+00  0.00000000000E+00  0.24648851475E+04  0.24648851475E+04  0.00000000000E+00 0. -1.
         -2   -1    0    0    0  501 -0.00000000000E+00 -0.00000000000E+00 -0.63483901008E+01  0.63483901008E+01  0.00000000000E+00 0.  1.
         21    1    1    2  502  503 -0.71782259040E+02 -0.51040752640E+02  0.35186825935E+03  0.36272458296E+03  0.00000000000E+00 0.  1.
         21    1    1    2  503  501  0.71782259040E+02  0.51040752640E+02  0.21066684980E+04  0.21085089546E+04  0.00000000000E+00 0. -1.
</event>
<event>
 4    1  0.6109945E+002  0.4456887E+02  0.7546771E-02  0.1323609E+00
          2   -1    0    0  503    0  0.00000000000E+00  0.00000000000E+00  0.72368617210E+03  0.72368617210E+03  0.00000000000E+00 0.  1.
         -2   -1    0    0    0  501 -0.00000000000E+00 -0.00000000000E+00 -0.28050348046E+01  0.28050348046E+01  0.00000000000E+00 0. -1.
         21    1    1    2  502  501  0.44484739302E+02 -0.27372351994E+01  0.41366386550E+03  0.41605790235E+03  0.00000000000E+00 0.  1.
         21    1    1    2  503  502 -0.44484739302E+02  0.27372351994E+01  0.30721727179E+03  0.31043330455E+03  0.00000000000E+00 0. -1.
</event>
<event>
 4    1  0.6109945E+002  0.2725798E+02  0.7546771E-02  0.1445034E+00
          2   -1    0    0  503    0  0.00000000000E+00  0.00000000000E+00  0.13483025099E+04  0.13483025099E+04  0.00000000000E+00 0.  1.
         -2   -1    0    0    0  501 -0.00000000000E+00 -0.00000000000E+00 -0.89450380513E+00  0.89450380513E+00  0.00000000000E+00 0. -1.
         21    1    1    2  502  501 -0.25924904254E+02 -0.84200377767E+01  0.25569933582E+03  0.25714810525E+03  0.00000000000E+00 0. -1.
         21    1    1    2  503  502  0.25924904254E+02  0.84200377767E+01  0.10917086703E+04  0.10920489084E+04  0.00000000000E+00 0.  1.
</event>
<event>
 4    1  0.6109945E+002  0.2863231E+02  0.7546771E-02  0.1431866E+00
          2   -1    0    0  502    0  0.00000000000E+00  0.00000000000E+00  0.26654127892E+04  0.26654127892E+04  0.00000000000E+00 0. -1.
         -2   -1    0    0    0  501 -0.00000000000E+00 -0.00000000000E+00 -0.33529924904E+00  0.33529924904E+00  0.00000000000E+00 0.  1.
         21    1    1    2  502  503 -0.24729919428E+02 -0.14430539884E+02  0.17158196991E+04  0.17160585798E+04  0.00000000000E+00 0. -1.
         21    1    1    2  503  501  0.24729919428E+02  0.14430539884E+02  0.94925779089E+03  0.94968950872E+03  0.00000000000E+00 0.  1.
</event>
<event>
 4    1  0.6109945E+002  0.2245491E+02  0.7546771E-02  0.1499459E+00
          2   -1    0    0  503    0  0.00000000000E+00  0.00000000000E+00  0.22469495749E+02  0.22469495749E+02  0.00000000000E+00 0.  1.
         -2   -1    0    0    0  501 -0.00000000000E+00 -0.00000000000E+00 -0.26918618207E+02  0.26918618207E+02  0.00000000000E+00 0. -1.
         21    1    1    2  502  501 -0.17991623928E+02  0.13435946454E+02 -0.12296694427E+02  0.25601403917E+02  0.00000000000E+00 0. -1.
         21    1    1    2  503  502  0.17991623928E+02 -0.13435946454E+02  0.78475719690E+01  0.23786710040E+02  0.00000000000E+00 0.  1.
</event>
<event>
 4    1  0.6109945E+002  0.4980770E+02  0.7546771E-02  0.1299008E+00
          2   -1    0    0  503    0  0.00000000000E+00  0.00000000000E+00  0.24301311909E+03  0.24301311909E+03  0.00000000000E+00 0. -1.
         -2   -1    0    0    0  501 -0.00000000000E+00 -0.00000000000E+00 -0.21473119532E+02  0.21473119532E+02  0.00000000000E+00 0.  1.
         21    1    1    2  502  501  0.24676084168E+02 -0.43265437073E+02  0.14988162563E+02  0.52013961510E+02  0.00000000000E+00 0.  1.
         21    1    1    2  503  502 -0.24676084168E+02  0.43265437073E+02  0.20655183700E+03  0.21247227711E+03  0.00000000000E+00 0. -1.
</event>
<event>
 4    1  0.6109945E+002  0.2058186E+02  0.7546771E-02  0.1525319E+00
          2   -1    0    0  502    0  0.00000000000E+00  0.00000000000E+00  0.29380111707E+02  0.29380111707E+02  0.00000000000E+00 0. -1.
         -2   -1    0    0    0  501 -0.00000000000E+00 -0.00000000000E+00 -0.49142621883E+02  0.49142621883E+02  0.00000000000E+00 0.  1.
         21    1    1    2  502  503  0.72657730568E+01  0.19256731321E+02  0.23121692991E+02  0.30955223243E+02  0.00000000000E+00 0. -1.
         21    1    1    2  503  501 -0.72657730568E+01 -0.19256731321E+02 -0.42884203167E+02  0.47567510347E+02  0.00000000000E+00 0.  1.
</event>
<event>
 4    1  0.6109945E+002  0.2223434E+02  0.7546771E-02  0.1502343E+00
          2   -1    0    0  502    0  0.00000000000E+00  0.00000000000E+00  0.12653223675E+04  0.12653223675E+04  0.00000000000E+00 0. -1.
         -2   -1    0    0    0  501 -0.00000000000E+00 -0.00000000000E+00 -0.61906113266E+00  0.61906113266E+00  0.00000000000E+00 0.  1.
         21    1    1    2  502  503  0.21392028705E+02 -0.60619366087E+01  0.10167880927E+04  0.10170311655E+04  0.00000000000E+00 0. -1.
         21    1    1    2  503  501 -0.21392028705E+02  0.60619366087E+01  0.24791521360E+03  0.24891026315E+03  0.00000000000E+00 0.  1.
</event>
<event>
 4    1  0.6109945E+002  0.2858757E+02  0.7546771E-02  0.1432281E+00
          2   -1    0    0  503    0  0.00000000000E+00  0.00000000000E+00  0.71126789458E+02  0.71126789458E+02  0.00000000000E+00 0.  1.
         -2   -1    0    0    0  501 -0.00000000000E+00 -0.00000000000E+00 -0.21237809072E+02  0.21237809072E+02  0.00000000000E+00 0. -1.
         21    1    1    2  502  501  0.16555361312E+02 -0.23305987012E+02 -0.63432005814E+01  0.29282848434E+02  0.00000000000E+00 0. -1.
         21    1    1    2  503  502 -0.16555361312E+02  0.23305987012E+02  0.56232180967E+02  0.63081750095E+02  0.00000000000E+00 0.  1.
</event>
<event>
 4    1  0.6109945E+002  0.3007657E+02  0.7546771E-02  0.1418932E+00
          2   -1    0    0  502    0  0.00000000000E+00  0.00000000000E+00  0.12061192240E+04  0.12061192240E+04  0.00000000000E+00 0.  1.
         -2   -1    0    0    0  501 -0.00000000000E+00 -0.00000000000E+00 -0.14453779394E+01  0.14453779394E+01  0.00000000000E+00 0. -1.
         21    1    1    2  502  503 -0.25046196403E+02  0.16651965712E+02  0.10211279843E+04  0.10215708298E+04  0.00000000000E+00 0.  1.
         21    1    1    2  503  501  0.25046196403E+02 -0.16651965712E+02  0.18354586176E+03  0.18599377217E+03  0.00000000000E+00 0. -1.
</event>
<event>
 4    1  0.6109945E+002  0.2458280E+02  0.7546771E-02  0.1473525E+00
          2   -1    0    0  503    0  0.00000000000E+00  0.00000000000E+00  0.69945272228E+01  0.69945272228E+01  0.00000000000E+00 0. -1.
         -2   -1    0    0    0  501 -0.00000000000E+00 -0.00000000000E+00 -0.58861014124E+03  0.58861014124E+03  0.00000000000E+00 0.  1.
         21    1    1    2  502  501 -0.18703602628E+02  0.15952721207E+02 -0.56588702147E+03  0.56642072273E+03  0.00000000000E+00 0.  1.
         21    1    1    2  503  502  0.18703602628E+02 -0.15952721207E+02 -0.15728592544E+02  0.29183945734E+02  0.00000000000E+00 0. -1.
</event>
<event>
 4    1  0.6109945E+002  0.5057542E+02  0.7546771E-02  0.1295697E+00
          2   -1    0    0  502    0  0.00000000000E+00  0.00000000000E+00  0.11730195036E+02  0.11730195036E+02  0.00000000000E+00 0. -1.
         -2   -1    0    0    0  501 -0.00000000000E+00 -0.00000000000E+00 -0.34109749942E+03  0.34109749942E+03  0.00000000000E+00 0.  1.
         21    1    1    2  502  503  0.89615781182E+01  0.49775130457E+02 -0.58730451048E+02  0.77505737689E+02  0.00000000000E+00 0. -1.
         21    1    1    2  503  501 -0.89615781182E+01 -0.49775130457E+02 -0.27063685333E+03  0.27532195676E+03  0.00000000000E+00 0.  1.
</event>
<event>
 4    1  0.6109945E+002  0.3580964E+02  0.7546771E-02  0.1374959E+00
          2   -1    0    0  503    0  0.00000000000E+00  0.00000000000E+00  0.45792311887E+02  0.45792311887E+02  0.00000000000E+00 0.  1.
         -2   -1    0    0    0  501 -0.00000000000E+00 -0.00000000000E+00 -0.90772539826E+02  0.90772539826E+02  0.00000000000E+00 0. -1.
         21    1    1    2  502  501 -0.14787945080E+02 -0.32613601442E+02 -0.79271442605E+02  0.86984434995E+02  0.00000000000E+00 0. -1.
         21    1    1    2  503  502  0.14787945080E+02  0.32613601442E+02  0.34291214665E+02  0.49580416718E+02  0.00000000000E+00 0.  1.
</event>
<event>
 4    1  0.6109945E+002  0.2036855E+02  0.7546771E-02  0.1528474E+00
          2   -1    0    0  503    0  0.00000000000E+00  0.00000000000E+00  0.15044294214E+02  0.15044294214E+02  0.00000000000E+00 0. -1.
         -2   -1    0    0    0  501 -0.00000000000E+00 -0.00000000000E+00 -0.73033375366E+02  0.73033375366E+02  0.00000000000E+00 0.  1.
         21    1    1    2  502  501 -0.41027380416E+01  0.19951070938E+02 -0.63737927812E+02  0.66913385304E+02  0.00000000000E+00 0.  1.
         21    1    1    2  503  502  0.41027380416E+01 -0.19951070938E+02  0.57488466605E+01  0.21164284276E+02  0.00000000000E+00 0. -1.
</event>
<event>
 4    1  0.6109945E+002  0.2151304E+02  0.7546771E-02  0.1512065E+00
          2   -1    0    0  503    0  0.00000000000E+00  0.00000000000E+00  0.30137467772E+03  0.30137467772E+03  0.00000000000E+00 0.  1.
         -2   -1    0    0    0  501 -0.00000000000E+00 -0.00000000000E+00 -0.24617128931E+01  0.24617128931E+01  0.00000000000E+00 0. -1.
         21    1    1    2  502  501 -0.20083037853E+02 -0.77124847401E+01  0.56279724711E+02  0.60251292466E+02  0.00000000000E+00 0. -1.
         21    1    1    2  503  502  0.20083037853E+02  0.77124847401E+01  0.24263324012E+03  0.24358509815E+03  0.00000000000E+00 0.  1.
</event>
<event>
 4    1  0.6109945E+002  0.2615500E+02  0.7546771E-02  0.1456286E+00
          2   -1    0    0  502    0  0.00000000000E+00  0.00000000000E+00  0.19548638614E+03  0.19548638614E+03  0.00000000000E+00 0. -1.
         -2   -1    0    0    0  501 -0.00000000000E+00 -0.00000000000E+00 -0.41191988766E+01  0.41191988766E+01  0.00000000000E+00 0.  1.
         21    1    1    2  502  503 -0.11646284212E+02  0.23418966041E+02  0.13439721268E+03  0.13691856953E+03  0.00000000000E+00 0. -1.
         21    1    1    2  503  501  0.11646284212E+02 -0.23418966041E+02  0.56969974580E+02  0.62687015482E+02  0.00000000000E+00 0.  1.
</event>
<event>
 4    1  0.6109945E+002  0.3571577E+02  0.7546771E-02  0.1375600E+00
          2   -1    0    0  502    0  0.00000000000E+00  0.00000000000E+00  0.26533250908E+03  0.26533250908E+03  0.00000000000E+00 0. -1.
         -2   -1    0    0    0  501 -0.00000000000E+00 -0.00000000000E+00 -0.13109469665E+02  0.13109469665E+02  0.00000000000E+00 0.  1.
         21    1    1    2  502  503  0.67355773332E+01  0.35074897761E+02  0.23690130655E+03  0.23957847462E+03  0.00000000000E+00 0. -1.
         21    1    1    2  503  501 -0.67355773332E+01 -0.35074897761E+02  0.15321732863E+02  0.38863504125E+02  0.00000000000E+00 0.  1.
</event>
<event>
 4    1  0.6109945E+002  0.3136151E+02  0.7546771E-02  0.1408123E+00
          2   -1    0    0  503    0  0.00000000000E+00  0.00000000000E+00  0.53623855263E+03  0.53623855263E+03  0.00000000000E+00 0.  1.
         -2   -1    0    0    0  501 -0.00000000000E+00 -0.00000000000E+00 -0.35875516934E+01  0.35875516934E+01  0.00000000000E+00 0. -1.
         21    1    1    2  502  501 -0.35683792581E+01 -0.31157836731E+02  0.77628494203E+02  0.83724113805E+02  0.00000000000E+00 0. -1.
         21    1    1    2  503  502  0.35683792581E+01  0.31157836731E+02  0.45502250673E+03  0.45610199052E+03  0.00000000000E+00 0.  1.
</event>
<event>
 4    1  0.6109945E+002  0.4130452E+02  0.7546771E-02  0.1341006E+00
          2   -1    0    0  503    0  0.00000000000E+00  0.00000000000E+00  0.41137820725E+03  0.41137820725E+03  0.00000000000E+00 0. -1.
         -2   -1    0    0    0  501 -0.00000000000E+00 -0.00000000000E+00 -0.48460597303E+01  0.48460597303E+01  0.00000000000E+00 0.  1.
         21    1    1    2  502  501 -0.33361878248E+02 -0.24352589406E+02  0.12423440033E+03  0.13092077664E+03  0.00000000000E+00 0.  1.
         21    1    1    2  503  502  0.33361878248E+02  0.24352589406E+02  0.28229774719E+03  0.28530349034E+03  0.00000000000E+00 0. -1.
</event>
<event>
 4    1  0.6109945E+002  0.3605155E+02  0.7546771E-02  0.1373317E+00
          2   -1    0    0  502    0  0.00000000000E+00  0.00000000000E+00  0.90420786926E+02  0.90420786926E+02  0.00000000000E+00 0.  1.
         -2   -1    0    0    0  501 -0.00000000000E+00 -0.00000000000E+00 -0.15216967140E+02  0.15216967140E+02  0.00000000000E+00 0. -1.
         21    1    1    2  502  503 -0.10932798540E+02 -0.34353866726E+02  0.50033130214E+02  0.61668698397E+02  0.00000000000E+00 0.  1.
         21    1    1    2  503  501  0.10932798540E+02  0.34353866726E+02  0.25170689572E+02  0.43969055670E+02  0.00000000000E+00 0. -1.
</event>
<event>
 4    1  0.6109945E+002  0.2701754E+02  0.7546771E-02  0.1447432E+00
          2   -1    0    0  503    0  0.00000000000E+00  0.00000000000E+00  0.11791912000E+04  0.11791912000E+04  0.00000000000E+00 0. -1.
         -2   -1    0    0    0  501 -0.00000000000E+00 -0.00000000000E+00 -0.83645371932E+00  0.83645371932E+00  0.00000000000E+00 0.  1.
         21    1    1    2  502  501 -0.25852075913E+01 -0.26893573649E+02  0.28836151498E+03  0.28962443082E+03  0.00000000000E+00 0.  1.
         21    1    1    2  503  502  0.25852075913E+01  0.26893573649E+02  0.88999323134E+03  0.89040322294E+03  0.00000000000E+00 0. -1.
</event>
<event>
 4    1  0.6109945E+002  0.2534094E+02  0.7546771E-02  0.1465025E+00
          2   -1    0    0  503    0  0.00000000000E+00  0.00000000000E+00  0.45945991528E+02  0.45945991528E+02  0.00000000000E+00 0.  1.
         -2   -1    0    0    0  501 -0.00000000000E+00 -0.00000000000E+00 -0.24324764156E+02  0.24324764156E+02  0.00000000000E+00 0. -1.
         21    1    1    2  502  501 -0.87565799622E+01 -0.23779944141E+02 -0.12106208164E+02  0.28084225325E+02  0.00000000000E+00 0. -1.
         21    1    1    2  503  502  0.87565799622E+01  0.23779944141E+02  0.33727435535E+02  0.42186530359E+02  0.00000000000E+00 0.  1.
</event>
<event>
 4    1  0.6109945E+002  0.2545222E+02  0.7546771E-02  0.1463807E+00
          2   -1    0    0  503    0  0.00000000000E+00  0.00000000000E+00  0.18527241183E+03  0.18527241183E+03  0.00000000000E+00 0. -1.
         -2   -1    0    0    0  501 -0.00000000000E+00 -0.00000000000E+00 -0.55973194183E+01  0.55973194183E+01  0.00000000000E+00 0.  1.
         21    1    1    2  502  501 -0.21082762122E+02 -0.14259475676E+02  0.31371259138E+02  0.40397665838E+02  0.00000000000E+00 0.  1.
         21    1    1    2  503  502  0.21082762122E+02  0.14259475676E+02  0.14830383327E+03  0.15047206541E+03  0.00000000000E+00 0. -1.
</event>
<event>
 4    1  0.6109945E+002  0.3820047E+02  0.7546771E-02  0.1359366E+00
          2   -1    0    0  502    0  0.00000000000E+00  0.00000000000E+00  0.23502455257E+03  0.23502455257E+03  0.00000000000E+00 0. -1.
         -2   -1    0    0    0  501 -0.00000000000E+00 -0.00000000000E+00 -0.65415061908E+01  0.65415061908E+01  0.00000000000E+00 0.  1.
         21    1    1    2  502  503  0.10552563078E+02 -0.36714021179E+02  0.14147125164E+03  0.14653801889E+03  0.00000000000E+00 0. -1.
         21    1    1    2  503  501 -0.10552563078E+02  0.36714021179E+02  0.87011794743E+02  0.95028039878E+02  0.00000000000E+00 0.  1.
</event>
<event>
 4    1  0.6109945E+002  0.2019591E+02  0.7546771E-02  0.1531062E+00
          2   -1    0    0  502    0  0.00000000000E+00  0.00000000000E+00  0.12847639275E+03  0.12847639275E+03  0.00000000000E+00 0.  1.
         -2   -1    0    0    0  501 -0.00000000000E+00 -0.00000000000E+00 -0.64660327856E+01  0.64660327856E+01  0.00000000000E+00 0. -1.
         21    1    1    2  502  503  0.18872191292E+02  0.71913281593E+01  0.10914284851E+03  0.11099565841E+03  0.00000000000E+00 0.  1.
         21    1    1    2  503  501 -0.18872191292E+02 -0.71913281593E+01  0.12867511457E+02  0.23946767129E+02  0.00000000000E+00 0. -1.
</event>
<event>
 4    1  0.6109945E+002  0.2367764E+02  0.7546771E-02  0.1484160E+00
          2   -1    0    0  502    0  0.00000000000E+00  0.00000000000E+00  0.22670133637E+04  0.22670133637E+04  0.00000000000E+00 0. -1.
         -2   -1    0    0    0  501 -0.00000000000E+00 -0.00000000000E+00 -0.29034535690E+00  0.29034535690E+00  0.00000000000E+00 0.  1.
         21    1    1    2  502  503 -0.19366171832E+02 -0.13622855196E+02  0.15698662838E+04  0.15700448337E+04  0.00000000000E+00 0.  1.
         21    1    1    2  503  501  0.19366171832E+02  0.13622855196E+02  0.69685673445E+03  0.69725887527E+03  0.00000000000E+00 0. -1.
</event>
<event>
 4    1  0.6109945E+002  0.2867428E+02  0.7546771E-02  0.1431478E+00
          2   -1    0    0  503    0  0.00000000000E+00  0.00000000000E+00  0.12019511586E+03  0.12019511586E+03  0.00000000000E+00 0.  1.
         -2   -1    0    0    0  501 -0.00000000000E+00 -0.00000000000E+00 -0.69728930444E+01  0.69728930444E+01  0.00000000000E+00 0. -1.
         21    1    1    2  502  501 -0.28267680726E+02 -0.48117028445E+01  0.47855090833E+02  0.55788206429E+02  0.00000000000E+00 0. -1.
         21    1    1    2  503  502  0.28267680726E+02  0.48117028445E+01  0.65367131985E+02  0.71379802478E+02  0.00000000000E+00 0.  1.
</event>
<event>
 4    1  0.6109945E+002  0.3280061E+02  0.7546771E-02  0.1396722E+00
          2   -1    0    0  503    0  0.00000000000E+00  0.00000000000E+00  0.85102574207E+03  0.85102574207E+03  0.00000000000E+00 0. -1.
         -2   -1    0    0    0  501 -0.00000000000E+00 -0.00000000000E+00 -0.17481954569E+01  0.17481954569E+01  0.00000000000E+00 0.  1.
         21    1    1    2  502  501 -0.16301397924E+02  0.28463040134E+02  0.20029063863E+03  0.20295866611E+03  0.00000000000E+00 0.  1.
         21    1    1    2  503  502  0.16301397924E+02 -0.28463040134E+02  0.64898690799E+03  0.64981527142E+03  0.00000000000E+00 0. -1.
</event>
<event>
 4    1  0.6109945E+002  0.2032907E+02  0.7546771E-02  0.1529063E+00
          2   -1    0    0  502    0  0.00000000000E+00  0.00000000000E+00  0.13208389579E+04  0.13208389579E+04  0.00000000000E+00 0.  1.
         -2   -1    0    0    0  501 -0.00000000000E+00 -0.00000000000E+00 -0.71314396751E+00  0.71314396751E+00  0.00000000000E+00 0. -1.
         21    1    1    2  502  503  0.12303225121E+01 -0.20291805618E+02  0.11550980950E+04  0.11552769712E+04  0.00000000000E+00 0.  1.
         21    1    1    2  503  501 -0.12303225121E+01  0.20291805618E+02  0.16502771893E+03  0.16627513068E+03  0.00000000000E+00 0. -1.
</event>
<event>
 4    1  0.6109945E+002  0.3387292E+02  0.7546771E-02  0.1388665E+00
          2   -1    0    0  503    0  0.00000000000E+00  0.00000000000E+00  0.54605298695E+02  0.54605298695E+02  0.00000000000E+00 0.  1.
         -2   -1    0    0    0  501 -0.00000000000E+00 -0.00000000000E+00 -0.21166839903E+02  0.21166839903E+02  0.00000000000E+00 0. -1.
         21    1    1    2  502  501 -0.12600017547E+02 -0.31442240716E+02  0.19957975896E+02  0.39315337278E+02  0.00000000000E+00 0. -1.
         21    1    1    2  503  502  0.12600017547E+02  0.31442240716E+02  0.13480482897E+02  0.36456801321E+02  0.00000000000E+00 0.  1.
</event>
<event>
 4    1  0.6109945E+002  0.3121121E+02  0.7546771E-02  0.1409355E+00
          2   -1    0    0  502    0  0.00000000000E+00  0.00000000000E+00  0.30538331984E+01  0.30538331984E+01  0.00000000000E+00 0.  1.
         -2   -1    0    0    0  501 -0.00000000000E+00 -0.00000000000E+00 -0.46992049686E+03  0.46992049686E+03  0.00000000000E+00 0. -1.
         21    1    1    2  502  503 -0.18263249887E+02 -0.25309940011E+02 -0.99408508229E+02  0.10419304616E+03  0.00000000000E+00 0.  1.
         21    1    1    2  503  501  0.18263249887E+02  0.25309940011E+02 -0.36745815544E+03  0.36878128390E+03  0.00000000000E+00 0. -1.
</event>
<event>
 4    1  0.6109945E+002  0.1242532E+03  0.7546771E-02  0.1127375E+00
          2   -1    0    0  503    0  0.00000000000E+00  0.00000000000E+00  0.23207521850E+04  0.23207521850E+04  0.00000000000E+00 0.  1.
         -2   -1    0    0    0  501 -0.00000000000E+00 -0.00000000000E+00 -0.12580067697E+02  0.12580067697E+02  0.00000000000E+00 0. -1.
         21    1    1    2  502  501 -0.11724067439E+03 -0.41151997102E+02  0.35325218553E+03  0.37446758095E+03  0.00000000000E+00 0. -1.
         21    1    1    2  503  502  0.11724067439E+03  0.41151997102E+02  0.19549199318E+04  0.19588646718E+04  0.00000000000E+00 0.  1.
</event>
<event>
 4    1  0.6109945E+002  0.2300261E+02  0.7546771E-02  0.1492465E+00
          2   -1    0    0  502    0  0.00000000000E+00  0.00000000000E+00  0.10552668731E+04  0.10552668731E+04  0.00000000000E+00 0. -1.
         -2   -1    0    0    0  501 -0.00000000000E+00 -0.00000000000E+00 -0.78840969684E+01  0.78840969684E+01  0.00000000000E+00 0.  1.
         21    1    1    2  502  503  0.14328259055E+02  0.17995025627E+02  0.10380857881E+04  0.10383406105E+04  0.00000000000E+00 0. -1.
         21    1    1    2  503  501 -0.14328259055E+02 -0.17995025627E+02  0.92969880099E+01  0.24810359548E+02  0.00000000000E+00 0.  1.
</event>
<event>
 4    1  0.6109945E+002  0.3123415E+02  0.7546771E-02  0.1409166E+00
          2   -1    0    0  503    0  0.00000000000E+00  0.00000000000E+00  0.37230310328E+03  0.37230310328E+03  0.00000000000E+00 0. -1.
         -2   -1    0    0    0  501 -0.00000000000E+00 -0.00000000000E+00 -0.26503525532E+01  0.26503525532E+01  0.00000000000E+00 0.  1.
         21    1    1    2  502  501  0.22770586090E+02  0.21379254803E+02  0.16488637785E+03  0.16781862151E+03  0.00000000000E+00 0. -1.
         21    1    1    2  503  502 -0.22770586090E+02 -0.21379254803E+02  0.20476637288E+03  0.20713483432E+03  0.00000000000E+00 0.  1.
</event>
<event>
 4    1  0.6109945E+002  0.2080120E+02  0.7546771E-02  0.1522122E+00
          2   -1    0    0  502    0  0.00000000000E+00  0.00000000000E+00  0.71880902864E+03  0.71880902864E+03  0.00000000000E+00 0.  1.
         -2   -1    0    0    0  501 -0.00000000000E+00 -0.00000000000E+00 -0.11626134545E+01  0.11626134545E+01  0.00000000000E+00 0. -1.
         21    1    1    2  502  503  0.83887540528E+01  0.19034673533E+02  0.60881012815E+03  0.60916538159E+03  0.00000000000E+00 0.  1.
         21    1    1    2  503  501 -0.83887540528E+01 -0.19034673533E+02  0.10883628703E+03  0.11080626050E+03  0.00000000000E+00 0. -1.
</event>
<event>
 4    1  0.6109945E+002  0.2164335E+02  0.7546771E-02  0.1510274E+00
          2   -1    0    0  502    0  0.00000000000E+00  0.00000000000E+00  0.42357037945E+01  0.42357037945E+01  0.00000000000E+00 0. -1.
         -2   -1    0    0    0  501 -0.00000000000E+00 -0.00000000000E+00 -0.11918548043E+03  0.11918548043E+03  0.00000000000E+00 0.  1.
         21    1    1    2  502  503  0.19787259331E+02 -0.87692073187E+01 -0.74045346761E+02  0.77143684160E+02  0.00000000000E+00 0.  1.
         21    1    1    2  503  501 -0.19787259331E+02  0.87692073187E+01 -0.40904429874E+02  0.46277500064E+02  0.00000000000E+00 0. -1.
</event>
<event>
 4    1  0.6109945E+002  0.2057435E+02  0.7546771E-02  0.1525430E+00
          2   -1    0    0  502    0  0.00000000000E+00  0.00000000000E+00  0.31638807670E+02  0.31638807670E+02  0.00000000000E+00 0.  1.
         -2   -1    0    0    0  501 -0.00000000000E+00 -0.00000000000E+00 -0.27739075441E+02  0.27739075441E+02  0.00000000000E+00 0. -1.
         21    1    1    2  502  503 -0.12047605529E+02  0.16678100785E+02  0.23310943228E+02  0.31091862584E+02  0.00000000000E+00 0.  1.
         21    1    1    2  503  501  0.12047605529E+02 -0.16678100785E+02 -0.19411211000E+02  0.28286020527E+02  0.00000000000E+00 0. -1.
</event>
<event>
 4    1  0.6109945E+002  0.2752822E+02  0.7546771E-02  0.1442373E+00
          2   -1    0    0  502    0  0.00000000000E+00  0.00000000000E+00  0.21911962928E+03  0.21911962928E+03  0.00000000000E+00 0.  1.
         -2   -1    0    0    0  501 -0.00000000000E+00 -0.00000000000E+00 -0.49234809145E+01  0.49234809145E+01  0.00000000000E+00 0. -1.
         21    1    1    2  502  503 -0.38035850079E+01  0.27264179806E+02  0.16820587531E+03  0.17044359551E+03  0.00000000000E+00 0.  1.
         21    1    1    2  503  501  0.38035850079E+01 -0.27264179806E+02  0.45990273056E+02  0.53599514692E+02  0.00000000000E+00 0. -1.
</event>
<event>
 4    1  0.6109945E+002  0.2030629E+02  0.7546771E-02  0.1529404E+00
          2   -1    0    0  503    0  0.00000000000E+00  0.00000000000E+00  0.62179315544E+03  0.62179315544E+03  0.00000000000E+00 0.  1.
         -2   -1    0    0    0  501 -0.00000000000E+00 -0.00000000000E+00 -0.67244665653E+00  0.67244665653E+00  0.00000000000E+00 0. -1.
         21    1    1    2  502  501  0.91883076822E+01  0.18108568753E+02  0.27397542246E+03  0.27472691417E+03  0.00000000000E+00 0. -1.
         21    1    1    2  503  502 -0.91883076822E+01 -0.18108568753E+02  0.34714528633E+03  0.34773868793E+03  0.00000000000E+00 0.  1.
</event>
<event>
 4    1  0.6109945E+002  0.2461423E+02  0.7546771E-02  0.1473166E+00
          2   -1    0    0  502    0  0.00000000000E+00  0.00000000000E+00  0.38387089547E+02  0.38387089547E+02  0.00000000000E+00 0.  1.
         -2   -1    0    0    0  501 -0.00000000000E+00 -0.00000000000E+00 -0.16326305771E+02  0.16326305771E+02  0.00000000000E+00 0. -1.
         21    1    1    2  502  503  0.19745729999E+02 -0.14695796025E+02  0.60395389975E+01  0.25344354506E+02  0.00000000000E+00 0. -1.
         21    1    1    2  503  501 -0.19745729999E+02  0.14695796025E+02  0.16021244778E+02  0.29369040813E+02  0.00000000000E+00 0.  1.
</event>
<event>
 4    1  0.6109945E+002  0.2157521E+02  0.7546771E-02  0.1511209E+00
          2   -1    0    0  502    0  0.00000000000E+00  0.00000000000E+00  0.60148411777E+02  0.60148411777E+02  0.00000000000E+00 0.  1.
         -2   -1    0    0    0  501 -0.00000000000E+00 -0.00000000000E+00 -0.10139935992E+02  0.10139935992E+02  0.00000000000E+00 0. -1.
         21    1    1    2  502  503  0.21111446516E+01 -0.21471668747E+02  0.42105360560E+02  0.47311213030E+02  0.00000000000E+00 0.  1.
         21    1    1    2  503  501 -0.21111446516E+01  0.21471668747E+02  0.79031152255E+01  0.22977134739E+02  0.00000000000E+00 0. -1.
</event>
<event>
 4    1  0.6109945E+002  0.2740150E+02  0.7546771E-02  0.1443616E+00
          2   -1    0    0  502    0  0.00000000000E+00  0.00000000000E+00  0.17369901021E+04  0.17369901021E+04  0.00000000000E+00 0. -1.
         -2   -1    0    0    0  501 -0.00000000000E+00 -0.00000000000E+00 -0.49010785383E+00  0.49010785383E+00  0.00000000000E+00 0.  1.
         21    1    1    2  502  503 -0.19267467676E+02  0.19483508063E+02  0.11666946296E+04  0.11670163671E+04  0.00000000000E+00 0. -1.
         21    1    1    2  503  501  0.19267467676E+02 -0.19483508063E+02  0.56980536471E+03  0.57046384290E+03  0.00000000000E+00 0.  1.
</event>
<event>
 4    1  0.6109945E+002  0.2037422E+02  0.7546771E-02  0.1528390E+00
          2   -1    0    0  503    0  0.00000000000E+00  0.00000000000E+00  0.16588215772E+03  0.16588215772E+03  0.00000000000E+00 0. -1.
         -2   -1    0    0    0  501 -0.00000000000E+00 -0.00000000000E+00 -0.76615828751E+01  0.76615828751E+01  0.00000000000E+00 0.  1.
         21    1    1    2  502  501  0.62071391207E+01 -0.19405677870E+02  0.79055649500E+01  0.21854218513E+02  0.00000000000E+00 0.  1.
         21    1    1    2  503  502 -0.62071391207E+01  0.19405677870E+02  0.15031500990E+03  0.15168952209E+03  0.00000000000E+00 0. -1.
</event>
<event>
 4    1  0.6109945E+002  0.3001008E+02  0.7546771E-02  0.1419509E+00
          2   -1    0    0  503    0  0.00000000000E+00  0.00000000000E+00  0.12396137023E+03  0.12396137023E+03  0.00000000000E+00 0.  1.
         -2   -1    0    0    0  501 -0.00000000000E+00 -0.00000000000E+00 -0.70353011860E+02  0.70353011860E+02  0.00000000000E+00 0. -1.
         21    1    1    2  502  501 -0.83778858746E+01 -0.28816939985E+02 -0.65199736538E+02  0.71774721500E+02  0.00000000000E+00 0. -1.
         21    1    1    2  503  502  0.83778858746E+01  0.28816939985E+02  0.11880809491E+03  0.12253966059E+03  0.00000000000E+00 0.  1.
</event>
<event>
 4    1  0.6109945E+002  0.2269199E+02  0.7546771E-02  0.1496403E+00
          2   -1    0    0  502    0  0.00000000000E+00  0.00000000000E+00  0.70714441026E+03  0.70714441026E+03  0.00000000000E+00 0. -1.
         -2   -1    0    0    0  501 -0.00000000000E+00 -0.00000000000E+00 -0.13408017667E+01  0.13408017667E+01  0.00000000000E+00 0.  1.
         21    1    1    2  502  503 -0.29381513588E+01  0.22500967117E+02  0.59235233434E+03  0.59278682024E+03  0.00000000000E+00 0. -1.
         21    1    1    2  503  501  0.29381513588E+01 -0.22500967117E+02  0.11345127416E+03  0.11569839179E+03  0.00000000000E+00 0.  1.
</event>
<event>
 4    1  0.6109945E+002  0.2961623E+02  0.7546771E-02  0.1422961E+00
          2   -1    0    0  502    0  0.00000000000E+00  0.00000000000E+00  0.27804957440E+01  0.27804957440E+01  0.00000000000E+00 0.  1.
         -2   -1    0    0    0  501 -0.00000000000E+00 -0.00000000000E+00 -0.32099604804E+03  0.32099604804E+03  0.00000000000E+00 0. -1.
         21    1    1    2  502  503 -0.55437460567E+01 -0.29092744224E+02 -0.13783779463E+03  0.14098361080E+03  0.00000000000E+00 0. -1.
         21    1    1    2  503  501  0.55437460567E+01  0.29092744224E+02 -0.18037775767E+03  0.18279293299E+03  0.00000000000E+00 0.  1.
</event>
<event>
 4    1  0.6109945E+002  0.7450556E+02  0.7546771E-02  0.1217212E+00
          2   -1    0    0  502    0  0.00000000000E+00  0.00000000000E+00  0.90413777635E+02  0.90413777635E+02  0.00000000000E+00 0. -1.
         -2   -1    0    0    0  501 -0.00000000000E+00 -0.00000000000E+00 -0.10522297995E+03  0.10522297995E+03  0.00000000000E+00 0.  1.
         21    1    1    2  502  503 -0.70694654224E+02  0.23523259737E+02  0.55725152388E+02  0.93039617869E+02  0.00000000000E+00 0. -1.
         21    1    1    2  503  501  0.70694654224E+02 -0.23523259737E+02 -0.70534354701E+02  0.10259713971E+03  0.00000000000E+00 0.  1.
</event>
<event>
 4    1  0.6109945E+002  0.2178075E+02  0.7546771E-02  0.1508403E+00
          2   -1    0    0  502    0  0.00000000000E+00  0.00000000000E+00  0.68042502781E+03  0.68042502781E+03  0.00000000000E+00 0.  1.
         -2   -1    0    0    0  501 -0.00000000000E+00 -0.00000000000E+00 -0.18380495164E+01  0.18380495164E+01  0.00000000000E+00 0. -1.
         21    1    1    2  502  503 -0.21383777889E+02  0.41394527474E+01  0.60804753957E+03  0.60843751643E+03  0.00000000000E+00 0.  1.
         21    1    1    2  503  501  0.21383777889E+02 -0.41394527474E+01  0.70539438731E+02  0.73825560901E+02  0.00000000000E+00 0. -1.
</event>
<event>
 4    1  0.6109945E+002  0.1712605E+03  0.7546771E-02  0.1077621E+00
          2   -1    0    0  502    0  0.00000000000E+00  0.00000000000E+00  0.59873501276E+03  0.59873501276E+03  0.00000000000E+00 0.  1.
         -2   -1    0    0    0  501 -0.00000000000E+00 -0.00000000000E+00 -0.48995751865E+02  0.48995751865E+02  0.00000000000E+00 0. -1.
         21    1    1    2  502  503  0.27443791954E+02 -0.16904735598E+03  0.27922355794E+03  0.32756062887E+03  0.00000000000E+00 0.  1.
         21    1    1    2  503  501 -0.27443791954E+02  0.16904735598E+03  0.27051570296E+03  0.32017013576E+03  0.00000000000E+00 0. -1.
</event>
<event>
 4    1  0.6109945E+002  0.2911781E+02  0.7546771E-02  0.1427421E+00
          2   -1    0    0  502    0  0.00000000000E+00  0.00000000000E+00  0.43581740783E+03  0.43581740783E+03  0.00000000000E+00 0. -1.
         -2   -1    0    0    0  501 -0.00000000000E+00 -0.00000000000E+00 -0.21317456059E+01  0.21317456059E+01  0.00000000000E+00 0.  1.
         21    1    1    2  502  503 -0.16090405285E+02  0.24268203744E+02  0.28158169540E+03  0.28308319986E+03  0.00000000000E+00 0. -1.
         21    1    1    2  503  501  0.16090405285E+02 -0.24268203744E+02  0.15210396682E+03  0.15486595357E+03  0.00000000000E+00 0.  1.
</event>
<event>
 4    1  0.6109945E+002  0.2732239E+02  0.7546771E-02  0.1444396E+00
          2   -1    0    0  502    0  0.00000000000E+00  0.00000000000E+00  0.51389184888E+03  0.51389184888E+03  0.00000000000E+00 0. -1.
         -2   -1    0    0    0  501 -0.00000000000E+00 -0.00000000000E+00 -0.17831207897E+02  0.17831207897E+02  0.00000000000E+00 0.  1.
         21    1    1    2  502  503 -0.24392941494E+02  0.12308421936E+02  0.50283226789E+03  0.50357402879E+03  0.00000000000E+00 0. -1.
         21    1    1    2  503  501  0.24392941494E+02 -0.12308421936E+02 -0.67716269079E+01  0.28149027981E+02  0.00000000000E+00 0.  1.
</event>
<event>
 4    1  0.6109945E+002  0.2651302E+02  0.7546771E-02  0.1452562E+00
          2   -1    0    0  502    0  0.00000000000E+00  0.00000000000E+00  0.36410342396E+02  0.36410342396E+02  0.00000000000E+00 0. -1.
         -2   -1    0    0    0  501 -0.00000000000E+00 -0.00000000000E+00 -0.21369909640E+02  0.21369909640E+02  0.00000000000E+00 0.  1.
         21    1    1    2  502  503  0.23101661091E+02 -0.13009741733E+02 -0.14579468198E+01  0.26553073910E+02  0.00000000000E+00 0.  1.
         21    1    1    2  503  501 -0.23101661091E+02  0.13009741733E+02  0.16498379575E+02  0.31227178126E+02  0.00000000000E+00 0. -1.
</event>
<event>
 4    1  0.6109945E+002  0.2242813E+02  0.7546771E-02  0.1499807E+00
          2   -1    0    0  503    0  0.00000000000E+00  0.00000000000E+00  0.86460409746E+01  0.86460409746E+01  0.00000000000E+00 0. -1.
         -2   -1    0    0    0  501 -0.00000000000E+00 -0.00000000000E+00 -0.15148739539E+04  0.15148739539E+04  0.00000000000E+00 0.  1.
         21    1    1    2  502  501 -0.22421730914E+02  0.53586003075E+00 -0.15001028885E+04  0.15002705414E+04  0.00000000000E+00 0.  1.
         21    1    1    2  503  502  0.22421730914E+02 -0.53586003075E+00 -0.61250243750E+01  0.23249453472E+02  0.00000000000E+00 0. -1.
</event>
<event>
 4    1  0.6109945E+002  0.3160016E+02  0.7546771E-02  0.1406183E+00
          2   -1    0    0  502    0  0.00000000000E+00  0.00000000000E+00  0.11112969103E+04  0.11112969103E+04  0.00000000000E+00 0. -1.
         -2   -1    0    0    0  501 -0.00000000000E+00 -0.00000000000E+00 -0.94699374611E+00  0.94699374611E+00  0.00000000000E+00 0.  1.
         21    1    1    2  502  503 -0.68311510270E+01  0.30852968346E+02  0.42941074309E+03  0.43057189476E+03  0.00000000000E+00 0. -1.
         21    1    1    2  503  501  0.68311510270E+01 -0.30852968346E+02  0.68093917349E+03  0.68167200931E+03  0.00000000000E+00 0.  1.
</event>
<event>
 4    1  0.6109945E+002  0.3540161E+02  0.7546771E-02  0.1377762E+00
          2   -1    0    0  503    0  0.00000000000E+00  0.00000000000E+00  0.22267138389E+03  0.22267138389E+03  0.00000000000E+00 0.  1.
         -2   -1    0    0    0  501 -0.00000000000E+00 -0.00000000000E+00 -0.76285959003E+01  0.76285959003E+01  0.00000000000E+00 0. -1.
         21    1    1    2  502  501 -0.21361093099E+02  0.28230797191E+02  0.16648478508E+03  0.17020710288E+03  0.00000000000E+00 0.  1.
         21    1    1    2  503  502  0.21361093099E+02 -0.28230797191E+02  0.48558002908E+02  0.60092876906E+02  0.00000000000E+00 0. -1.
</event>
<event>
 4    1  0.6109945E+002  0.2530624E+02  0.7546771E-02  0.1465406E+00
          2   -1    0    0  503    0  0.00000000000E+00  0.00000000000E+00  0.42889597629E+03  0.42889597629E+03  0.00000000000E+00 0. -1.
         -2   -1    0    0    0  501 -0.00000000000E+00 -0.00000000000E+00 -0.15880817187E+01  0.15880817187E+01  0.00000000000E+00 0.  1.
         21    1    1    2  502  501  0.37782565350E+01 -0.25022600175E+02  0.26627964250E+03  0.26747944547E+03  0.00000000000E+00 0. -1.
         21    1    1    2  503  502 -0.37782565350E+01  0.25022600175E+02  0.16102825208E+03  0.16300461254E+03  0.00000000000E+00 0.  1.
</event>
<event>
 4    1  0.6109945E+002  0.2226029E+02  0.7546771E-02  0.1502002E+00
          2   -1    0    0  502    0  0.00000000000E+00  0.00000000000E+00  0.98455109111E+03  0.98455109111E+03  0.00000000000E+00 0.  1.
         -2   -1    0    0    0  501 -0.00000000000E+00 -0.00000000000E+00 -0.59625117350E+00  0.59625117350E+00  0.00000000000E+00 0. -1.
         21    1    1    2  502  503 -0.50661720521E+01  0.21676128694E+02  0.68646563315E+03  0.68682645999E+03  0.00000000000E+00 0.  1.
         21    1    1    2  503  501  0.50661720521E+01 -0.21676128694E+02  0.29748920679E+03  0.29832088229E+03  0.00000000000E+00 0. -1.
</event>
<event>
 4    1  0.6109945E+002  0.3019181E+02  0.7546771E-02  0.1417937E+00
          2   -1    0    0  502    0  0.00000000000E+00  0.00000000000E+00  0.15689221214E+03  0.15689221214E+03  0.00000000000E+00 0.  1.
         -2   -1    0    0    0  501 -0.00000000000E+00 -0.00000000000E+00 -0.61802808224E+01  0.61802808224E+01  0.00000000000E+00 0. -1.
         21    1    1    2  502  503  0.19571524108E+02 -0.22989142684E+02  0.95313490121E+02  0.99981031382E+02  0.00000000000E+00 0.  1.
         21    1    1    2  503  501 -0.19571524108E+02  0.22989142684E+02  0.55398441194E+02  0.63091461578E+02  0.00000000000E+00 0. -1.
</event>
<event>
 4    1  0.6109945E+002  0.2287914E+02  0.7546771E-02  0.1494021E+00
          2   -1    0    0  503    0  0.00000000000E+00  0.00000000000E+00  0.12372641753E+03  0.12372641753E+03  0.00000000000E+00 0.  1.
         -2   -1    0    0    0  501 -0.00000000000E+00 -0.00000000000E+00 -0.16267743527E+02  0.16267743527E+02  0.00000000000E+00 0. -1.
         21    1    1    2  502  501  0.26481883649E+01 -0.22725367742E+02 -0.64815916483E+01  0.23779534708E+02  0.00000000000E+00 0. -1.
         21    1    1    2  503  502 -0.26481883649E+01  0.22725367742E+02  0.11394026566E+03  0.11621462635E+03  0.00000000000E+00 0.  1.
</event>
<event>
 4    1  0.6109945E+002  0.2385552E+02  0.7546771E-02  0.1482026E+00
          2   -1    0    0  503    0  0.00000000000E+00  0.00000000000E+00  0.26129421956E+03  0.26129421956E+03  0.00000000000E+00 0. -1.
         -2   -1    0    0    0  501 -0.00000000000E+00 -0.00000000000E+00 -0.10687020014E+02  0.10687020014E+02  0.00000000000E+00 0.  1.
         21    1    1    2  502  501 -0.10574593202E+02  0.21383728171E+02  0.39586573538E+01  0.24181745593E+02  0.00000000000E+00 0.  1.
         21    1    1    2  503  502  0.10574593202E+02 -0.21383728171E+02  0.24664854220E+03  0.24779949398E+03  0.00000000000E+00 0. -1.
</event>
<event>
 4    1  0.6109945E+002  0.2092564E+02  0.7546771E-02  0.1520329E+00
          2   -1    0    0  502    0  0.00000000000E+00  0.00000000000E+00  0.16997207114E+04  0.16997207114E+04  0.00000000000E+00 0. -1.
         -2   -1    0    0    0  501 -0.00000000000E+00 -0.00000000000E+00 -0.39003612425E+00  0.39003612425E+00  0.00000000000E+00 0.  1.
         21    1    1    2  502  503 -0.14119676061E+02  0.15444000013E+02  0.13449614398E+04  0.13451242162E+04  0.00000000000E+00 0. -1.
         21    1    1    2  503  501  0.14119676061E+02 -0.15444000013E+02  0.35436923543E+03  0.35498653131E+03  0.00000000000E+00 0.  1.
</event>
<event>
 4    1  0.6109945E+002  0.2272650E+02  0.7546771E-02  0.1495961E+00
          2   -1    0    0  503    0  0.00000000000E+00  0.00000000000E+00  0.98952020268E+01  0.98952020268E+01  0.00000000000E+00 0. -1.
         -2   -1    0    0    0  501 -0.00000000000E+00 -0.00000000000E+00 -0.87981397069E+02  0.87981397069E+02  0.00000000000E+00 0.  1.
         21    1    1    2  502  501  0.15066166616E+02  0.17014835311E+02 -0.70253825282E+02  0.73838296052E+02  0.00000000000E+00 0. -1.
         21    1    1    2  503  502 -0.15066166616E+02 -0.17014835311E+02 -0.78323697602E+01  0.24038303043E+02  0.00000000000E+00 0.  1.
</event>
<event>
 4    1  0.6109945E+002  0.2789684E+02  0.7546771E-02  0.1438801E+00
          2   -1    0    0  502    0  0.00000000000E+00  0.00000000000E+00  0.21708248292E+04  0.21708248292E+04  0.00000000000E+00 0.  1.
         -2   -1    0    0    0  501 -0.00000000000E+00 -0.00000000000E+00 -0.51499888186E+00  0.51499888186E+00  0.00000000000E+00 0. -1.
         21    1    1    2  502  503  0.16899660047E+02 -0.22195385435E+02  0.16836420096E+04  0.16838731099E+04  0.00000000000E+00 0.  1.
         21    1    1    2  503  501 -0.16899660047E+02  0.22195385435E+02  0.48666782070E+03  0.48746671820E+03  0.00000000000E+00 0. -1.
</event>
<event>
 4    1  0.6109945E+002  0.2004269E+02  0.7546771E-02  0.1533384E+00
          2   -1    0    0  502    0  0.00000000000E+00  0.00000000000E+00  0.85545512782E+02  0.85545512782E+02  0.00000000000E+00 0. -1.
         -2   -1    0    0    0  501 -0.00000000000E+00 -0.00000000000E+00 -0.71727941386E+01  0.71727941386E+01  0.00000000000E+00 0.  1.
         21    1    1    2  502  503  0.11398020159E+02 -0.16486194425E+02  0.66428976749E+02  0.69386730879E+02  0.00000000000E+00 0.  1.
         21    1    1    2  503  501 -0.11398020159E+02  0.16486194425E+02  0.11943741894E+02  0.23331576042E+02  0.00000000000E+00 0. -1.
</event>
<event>
 4    1  0.6109945E+002  0.2405669E+02  0.7546771E-02  0.1479639E+00
          2   -1    0    0  502    0  0.00000000000E+00  0.00000000000E+00  0.24639834166E+03  0.24639834166E+03  0.00000000000E+00 0.  1.
         -2   -1    0    0    0  501 -0.00000000000E+00 -0.00000000000E+00 -0.66531178175E+01  0.66531178175E+01  0.00000000000E+00 0. -1.
         21    1    1    2  502  503 -0.23578738604E+02  0.47715183398E+01  0.22164306552E+03  0.22294477521E+03  0.00000000000E+00 0.  1.
         21    1    1    2  503  501  0.23578738604E+02 -0.47715183398E+01  0.18102158319E+02  0.30106684262E+02  0.00000000000E+00 0. -1.
</event>
<event>
 4    1  0.6109945E+002  0.2275398E+02  0.7546771E-02  0.1495611E+00
          2   -1    0    0  503    0  0.00000000000E+00  0.00000000000E+00  0.39569234495E+03  0.39569234495E+03  0.00000000000E+00 0.  1.
         -2   -1    0    0    0  501 -0.00000000000E+00 -0.00000000000E+00 -0.45432940227E+01  0.45432940227E+01  0.00000000000E+00 0. -1.
         21    1    1    2  502  501  0.16669387506E+02  0.15487907385E+02  0.26714443889E+02  0.35091384517E+02  0.00000000000E+00 0. -1.
         21    1    1    2  503  502 -0.16669387506E+02 -0.15487907385E+02  0.36443460703E+03  0.36514425445E+03  0.00000000000E+00 0.  1.
</event>
<event>
 4    1  0.6109945E+002  0.2125769E+02  0.7546771E-02  0.1515617E+00
          2   -1    0    0  502    0  0.00000000000E+00  0.00000000000E+00  0.67690659886E+02  0.67690659886E+02  0.00000000000E+00 0. -1.
         -2   -1    0    0    0  501 -0.00000000000E+00 -0.00000000000E+00 -0.75361496934E+02  0.75361496934E+02  0.00000000000E+00 0.  1.
         21    1    1    2  502  503  0.11595426930E+02  0.17816716116E+02  0.64449188007E+02  0.67864476227E+02  0.00000000000E+00 0. -1.
         21    1    1    2  503  501 -0.11595426930E+02 -0.17816716116E+02 -0.72120025055E+02  0.75187680592E+02  0.00000000000E+00 0.  1.
</event>
<event>
 4    1  0.6109945E+002  0.2517780E+02  0.7546771E-02  0.1466824E+00
          2   -1    0    0  502    0  0.00000000000E+00  0.00000000000E+00  0.68939739955E+02  0.68939739955E+02  0.00000000000E+00 0.  1.
         -2   -1    0    0    0  501 -0.00000000000E+00 -0.00000000000E+00 -0.17450251236E+02  0.17450251236E+02  0.00000000000E+00 0. -1.
         21    1    1    2  502  503  0.11428652644E+02 -0.22434512157E+02  0.55453872490E+02  0.60901998417E+02  0.00000000000E+00 0.  1.
         21    1    1    2  503  501 -0.11428652644E+02  0.22434512157E+02 -0.39643837719E+01  0.25487992774E+02  0.00000000000E+00 0. -1.
</event>
<event>
 4    1  0.6109945E+002  0.5841559E+02  0.7546771E-02  0.1265313E+00
          2   -1    0    0  502    0  0.00000000000E+00  0.00000000000E+00  0.12851638835E+04  0.12851638835E+04  0.00000000000E+00 0. -1.
         -2   -1    0    0    0  501 -0.00000000000E+00 -0.00000000000E+00 -0.42395460785E+01  0.42395460785E+01  0.00000000000E+00 0.  1.
         21    1    1    2  502  503 -0.60181804869E+01 -0.58104759115E+02  0.10345768725E+04  0.10362247278E+04  0.00000000000E+00 0.  1.
         21    1    1    2  503  501  0.60181804869E+01  0.58104759115E+02  0.24634746495E+03  0.25317870174E+03  0.00000000000E+00 0. -1.
</event>
<event>
 4    1  0.6109945E+002  0.3713505E+02  0.7546771E-02  0.1366145E+00
          2   -1    0    0  503    0  0.00000000000E+00  0.00000000000E+00  0.82689743068E+02  0.82689743068E+02  0.00000000000E+00 0. -1.
         -2   -1    0    0    0  501 -0.00000000000E+00 -0.00000000000E+00 -0.18746185615E+02  0.18746185615E+02  0.00000000000E+00 0.  1.
         21    1    1    2  502  501  0.33131463584E+02  0.16772531450E+02  0.48822233432E+02  0.61340216561E+02  0.00000000000E+00 0. -1.
         21    1    1    2  503  502 -0.33131463584E+02 -0.16772531450E+02  0.15121324022E+02  0.40095712123E+02  0.00000000000E+00 0.  1.
</event>
<event>
 4    1  0.6109945E+002  0.2358478E+02  0.7546771E-02  0.1485283E+00
          2   -1    0    0  502    0  0.00000000000E+00  0.00000000000E+00  0.99760625560E+03  0.99760625560E+03  0.00000000000E+00 0. -1.
         -2   -1    0    0    0  501 -0.00000000000E+00 -0.00000000000E+00 -0.18307279383E+01  0.18307279383E+01  0.00000000000E+00 0.  1.
         21    1    1    2  502  503  0.18447253169E+02 -0.14694927809E+02  0.91461655471E+03  0.91492058901E+03  0.00000000000E+00 0. -1.
         21    1    1    2  503  501 -0.18447253169E+02  0.14694927809E+02  0.81158972955E+02  0.84516394527E+02  0.00000000000E+00 0.  1.
</event>
<event>
 4    1  0.6109945E+002  0.3300691E+02  0.7546771E-02  0.1395144E+00
          2   -1    0    0  503    0  0.00000000000E+00  0.00000000000E+00  0.32936600890E+03  0.32936600890E+03  0.00000000000E+00 0. -1.
         -2   -1    0    0    0  501 -0.00000000000E+00 -0.00000000000E+00 -0.36404543848E+01  0.36404543848E+01  0.00000000000E+00 0.  1.
         21    1    1    2  502  501  0.78776885302E-01 -0.33006820754E+02  0.11252638948E+03  0.11726740703E+03  0.00000000000E+00 0.  1.
         21    1    1    2  503  502 -0.78776885302E-01  0.33006820754E+02  0.21319916503E+03  0.21573905625E+03  0.00000000000E+00 0. -1.
</event>
<event>
 4    1  0.6109945E+002  0.3518963E+03  0.7546771E-02  0.9807660E-01
          2   -1    0    0  502    0  0.00000000000E+00  0.00000000000E+00  0.10073633002E+04  0.10073633002E+04  0.00000000000E+00 0. -1.
         -2   -1    0    0    0  501 -0.00000000000E+00 -0.00000000000E+00 -0.12401191141E+03  0.12401191141E+03  0.00000000000E+00 0.  1.
         21    1    1    2  502  503  0.34592987142E+03 -0.64525418497E+02  0.38873750899E+03  0.52435470482E+03  0.00000000000E+00 0.  1.
         21    1    1    2  503  501 -0.34592987142E+03  0.64525418497E+02  0.49461387978E+03  0.60702050678E+03  0.00000000000E+00 0. -1.
</event>
<event>
 4    1  0.6109945E+002  0.3213024E+02  0.7546771E-02  0.1401945E+00
          2   -1    0    0  502    0  0.00000000000E+00  0.00000000000E+00  0.12232590357E+04  0.12232590357E+04  0.00000000000E+00 0.  1.
         -2   -1    0    0    0  501 -0.00000000000E+00 -0.00000000000E+00 -0.51123672334E+01  0.51123672334E+01  0.00000000000E+00 0. -1.
         21    1    1    2  502  503 -0.14368172616E+02  0.28738613359E+02  0.11702800083E+04  0.11707209959E+04  0.00000000000E+00 0.  1.
         21    1    1    2  503  501  0.14368172616E+02 -0.28738613359E+02  0.47866660167E+02  0.57650407090E+02  0.00000000000E+00 0. -1.
</event>
<event>
 4    1  0.6109945E+002  0.2737344E+02  0.7546771E-02  0.1443892E+00
          2   -1    0    0  503    0  0.00000000000E+00  0.00000000000E+00  0.13123193047E+03  0.13123193047E+03  0.00000000000E+00 0.  1.
         -2   -1    0    0    0  501 -0.00000000000E+00 -0.00000000000E+00 -0.58024321219E+01  0.58024321219E+01  0.00000000000E+00 0. -1.
         21    1    1    2  502  501 -0.12186712716E+02 -0.24511006232E+02  0.71372860929E+02  0.76442073954E+02  0.00000000000E+00 0.  1.
         21    1    1    2  503  502  0.12186712716E+02  0.24511006232E+02  0.54056637425E+02  0.60592288643E+02  0.00000000000E+00 0. -1.
</event>
<event>
 4    1  0.6109945E+002  0.2350222E+02  0.7546771E-02  0.1486286E+00
          2   -1    0    0  503    0  0.00000000000E+00  0.00000000000E+00  0.17562632064E+03  0.17562632064E+03  0.00000000000E+00 0.  1.
         -2   -1    0    0    0  501 -0.00000000000E+00 -0.00000000000E+00 -0.33488125289E+01  0.33488125289E+01  0.00000000000E+00 0. -1.
         21    1    1    2  502  501  0.23495002005E+02 -0.58237419689E+00  0.64065057014E+02  0.68239913607E+02  0.00000000000E+00 0.  1.
         21    1    1    2  503  502 -0.23495002005E+02  0.58237419689E+00  0.10821245110E+03  0.11073521957E+03  0.00000000000E+00 0. -1.
</event>
<event>
 4    1  0.6109945E+002  0.3020945E+02  0.7546771E-02  0.1417785E+00
          2   -1    0    0  502    0  0.00000000000E+00  0.00000000000E+00  0.10505122682E+04  0.10505122682E+04  0.00000000000E+00 0. -1.
         -2   -1    0    0    0  501 -0.00000000000E+00 -0.00000000000E+00 -0.17594114144E+01  0.17594114144E+01  0.00000000000E+00 0.  1.
         21    1    1    2  502  503  0.23123919848E+02 -0.19439520371E+02  0.15002836725E+03  0.15303960795E+03  0.00000000000E+00 0.  1.
         21    1    1    2  503  501 -0.23123919848E+02  0.19439520371E+02  0.89872448958E+03  0.89923207171E+03  0.00000000000E+00 0. -1.
</event>
<event>
 4    1  0.6109945E+002  0.2062408E+02  0.7546771E-02  0.1524700E+00
          2   -1    0    0  502    0  0.00000000000E+00  0.00000000000E+00  0.80488442463E+03  0.80488442463E+03  0.00000000000E+00 0. -1.
         -2   -1    0    0    0  501 -0.00000000000E+00 -0.00000000000E+00 -0.14426864580E+01  0.14426864580E+01  0.00000000000E+00 0.  1.
         21    1    1    2  502  503  0.18965870946E+02  0.81023780215E+01  0.72265885971E+03  0.72295309689E+03  0.00000000000E+00 0. -1.
         21    1    1    2  503  501 -0.18965870946E+02 -0.81023780215E+01  0.80782878464E+02  0.83374014197E+02  0.00000000000E+00 0.  1.
</event>
<event>
 4    1  0.6109945E+002  0.2285805E+02  0.7546771E-02  0.1494288E+00
          2   -1    0    0  503    0  0.00000000000E+00  0.00000000000E+00  0.14902529427E+02  0.14902529427E+02  0.00000000000E+00 0. -1.
         -2   -1    0    0    0  501 -0.00000000000E+00 -0.00000000000E+00 -0.70761767718E+02  0.70761767718E+02  0.00000000000E+00 0.  1.
         21    1    1    2  502  501 -0.22244940249E+02  0.52586049317E+01 -0.58353336471E+02  0.62670584565E+02  0.00000000000E+00 0.  1.
         21    1    1    2  503  502  0.22244940249E+02 -0.52586049317E+01  0.24940981797E+01  0.22993712581E+02  0.00000000000E+00 0. -1.
</event>
<event>
 4    1  0.6109945E+002  0.2596937E+02  0.7546771E-02  0.1458245E+00
          2   -1    0    0  503    0  0.00000000000E+00  0.00000000000E+00  0.65113475474E+01  0.65113475474E+01  0.00000000000E+00 0. -1.
         -2   -1    0    0    0  501 -0.00000000000E+00 -0.00000000000E+00 -0.20345161713E+03  0.20345161713E+03  0.00000000000E+00 0.  1.
         21    1    1    2  502  501 -0.26046508137E+01 -0.25838417309E+02 -0.17202571827E+03  0.17397487107E+03  0.00000000000E+00 0.  1.
         21    1    1    2  503  502  0.26046508137E+01  0.25838417309E+02 -0.24914551312E+02  0.35988093614E+02  0.00000000000E+00 0. -1.
</event>
<event>
 4    1  0.6109945E+002  0.2403654E+02  0.7546771E-02  0.1479877E+00
          2   -1    0    0  503    0  0.00000000000E+00  0.00000000000E+00  0.47485666905E+03  0.47485666905E+03  0.00000000000E+00 0. -1.
         -2   -1    0    0    0  501 -0.00000000000E+00 -0.00000000000E+00 -0.14902616475E+01  0.14902616475E+01  0.00000000000E+00 0.  1.
         21    1    1    2  502  501 -0.18381527766E+02 -0.15487889694E+02  0.13463756911E+03  0.13676633470E+03  0.00000000000E+00 0. -1.
         21    1    1    2  503  502  0.18381527766E+02  0.15487889694E+02  0.33872883829E+03  0.33958059600E+03  0.00000000000E+00 0.  1.
</event>
<event>
 4    1  0.6109945E+002  0.3591803E+02  0.7546771E-02  0.1374222E+00
          2   -1    0    0  502    0  0.00000000000E+00  0.00000000000E+00  0.13643247468E+02  0.13643247468E+02  0.00000000000E+00 0. -1.
         -2   -1    0    0    0  501 -0.00000000000E+00 -0.00000000000E+00 -0.11430733582E+03  0.11430733582E+03  0.00000000000E+00 0.  1.
         21    1    1    2  502  503 -0.35177040728E+02  0.72581266852E+01 -0.23741318431E+02  0.43055252853E+02  0.00000000000E+00 0.  1.
         21    1    1    2  503  501  0.35177040728E+02 -0.72581266852E+01 -0.76922769920E+02  0.84895330434E+02  0.00000000000E+00 0. -1.
</event>
<event>
 4    1  0.6109945E+002  0.2655156E+02  0.7546771E-02  0.1452165E+00
          2   -1    0    0  503    0  0.00000000000E+00  0.00000000000E+00  0.17823868587E+03  0.17823868587E+03  0.00000000000E+00 0. -1.
         -2   -1    0    0    0  501 -0.00000000000E+00 -0.00000000000E+00 -0.73590489154E+01  0.73590489154E+01  0.00000000000E+00 0.  1.
         21    1    1    2  502  501  0.21430280761E+02 -0.15675732649E+02  0.22327914019E+02  0.34691804104E+02  0.00000000000E+00 0.  1.
         21    1    1    2  503  502 -0.21430280761E+02  0.15675732649E+02  0.14855172294E+03  0.15090593068E+03  0.00000000000E+00 0. -1.
</event>
<event>
 4    1  0.6109945E+002  0.2280154E+02  0.7546771E-02  0.1495005E+00
          2   -1    0    0  502    0  0.00000000000E+00  0.00000000000E+00  0.18017358513E+04  0.18017358513E+04  0.00000000000E+00 0. -1.
         -2   -1    0    0    0  501 -0.00000000000E+00 -0.00000000000E+00 -0.47680087137E+00  0.47680087137E+00  0.00000000000E+00 0.  1.
         21    1    1    2  502  503  0.64882727116E+01  0.21858921706E+02  0.14668214675E+04  0.14669986802E+04  0.00000000000E+00 0. -1.
         21    1    1    2  503  501 -0.64882727116E+01 -0.21858921706E+02  0.33443758299E+03  0.33521397205E+03  0.00000000000E+00 0.  1.
</event>
<event>
 4    1  0.6109945E+002  0.3779942E+02  0.7546771E-02  0.1361887E+00
          2   -1    0    0  502    0  0.00000000000E+00  0.00000000000E+00  0.35184394134E+03  0.35184394134E+03  0.00000000000E+00 0.  1.
         -2   -1    0    0    0  501 -0.00000000000E+00 -0.00000000000E+00 -0.40633165747E+01  0.40633165747E+01  0.00000000000E+00 0. -1.
         21    1    1    2  502  503 -0.37007663045E+02 -0.76960336169E+01  0.17824791914E+03  0.18221173600E+03  0.00000000000E+00 0. -1.
         21    1    1    2  503  501  0.37007663045E+02  0.76960336169E+01  0.16953270562E+03  0.17369552191E+03  0.00000000000E+00 0.  1.
</event>
<event>
 4    1  0.6109945E+002  0.2201583E+02  0.7546771E-02  0.1505241E+00
          2   -1    0    0  502    0  0.00000000000E+00  0.00000000000E+00  0.28871602859E+01  0.28871602859E+01  0.00000000000E+00 0. -1.
         -2   -1    0    0    0  501 -0.00000000000E+00 -0.00000000000E+00 -0.30500479390E+03  0.30500479390E+03  0.00000000000E+00 0.  1.
         21    1    1    2  502  503 -0.14890152205E+02 -0.16216659700E+02 -0.47836669983E+02  0.52659696918E+02  0.00000000000E+00 0. -1.
         21    1    1    2  503  501  0.14890152205E+02  0.16216659700E+02 -0.25428096363E+03  0.25523225727E+03  0.00000000000E+00 0.  1.
</event>
<event>
 4    1  0.6109945E+002  0.2406116E+02  0.7546771E-02  0.1479586E+00
          2   -1    0    0  503    0  0.00000000000E+00  0.00000000000E+00  0.44528214528E+02  0.44528214528E+02  0.00000000000E+00 0. -1.
         -2   -1    0    0    0  501 -0.00000000000E+00 -0.00000000000E+00 -0.19931479672E+02  0.19931479672E+02  0.00000000000E+00 0.  1.
         21    1    1    2  502  501  0.17733886629E+01 -0.23995716051E+02 -0.67058693783E+01  0.24978150057E+02  0.00000000000E+00 0.  1.
         21    1    1    2  503  502 -0.17733886629E+01  0.23995716051E+02  0.31302604234E+02  0.39481544144E+02  0.00000000000E+00 0. -1.
</event>
<event>
 4    1  0.6109945E+002  0.3069404E+02  0.7546771E-02  0.1413659E+00
          2   -1    0    0  503    0  0.00000000000E+00  0.00000000000E+00  0.45278418370E+03  0.45278418370E+03  0.00000000000E+00 0.  1.
         -2   -1    0    0    0  501 -0.00000000000E+00 -0.00000000000E+00 -0.24456345630E+01  0.24456345630E+01  0.00000000000E+00 0. -1.
         21    1    1    2  502  501 -0.13719269163E+02 -0.27457339775E+02  0.13724846990E+03  0.14063877966E+03  0.00000000000E+00 0. -1.
         21    1    1    2  503  502  0.13719269163E+02  0.27457339775E+02  0.31309007923E+03  0.31459103860E+03  0.00000000000E+00 0.  1.
</event>
<event>
 4    1  0.6109945E+002  0.7932255E+02  0.7546771E-02  0.1205429E+00
          2   -1    0    0  503    0  0.00000000000E+00  0.00000000000E+00  0.84653958078E+03  0.84653958078E+03  0.00000000000E+00 0. -1.
         -2   -1    0    0    0  501 -0.00000000000E+00 -0.00000000000E+00 -0.14545261140E+02  0.14545261140E+02  0.00000000000E+00 0.  1.
         21    1    1    2  502  501 -0.79283638402E+02  0.24843041066E+01  0.11492647557E+03  0.13964298003E+03  0.00000000000E+00 0.  1.
         21    1    1    2  503  502  0.79283638402E+02 -0.24843041066E+01  0.71706784407E+03  0.72144186189E+03  0.00000000000E+00 0. -1.
</event>
<event>
 4    1  0.6109945E+002  0.3053565E+02  0.7546771E-02  0.1414998E+00
          2   -1    0    0  503    0  0.00000000000E+00  0.00000000000E+00  0.18460309281E+03  0.18460309281E+03  0.00000000000E+00 0. -1.
         -2   -1    0    0    0  501 -0.00000000000E+00 -0.00000000000E+00 -0.63706829997E+01  0.63706829997E+01  0.00000000000E+00 0.  1.
         21    1    1    2  502  501  0.16818543314E+02  0.25486513600E+02  0.45656225490E+02  0.54926466305E+02  0.00000000000E+00 0.  1.
         21    1    1    2  503  502 -0.16818543314E+02 -0.25486513600E+02  0.13257618432E+03  0.13604730951E+03  0.00000000000E+00 0. -1.
</event>
<event>
 4    1  0.6109945E+002  0.3288228E+02  0.7546771E-02  0.1396096E+00
          2   -1    0    0  503    0  0.00000000000E+00  0.00000000000E+00  0.86803689190E+02  0.86803689190E+02  0.00000000000E+00 0.  1.
         -2   -1    0    0    0  501 -0.00000000000E+00 -0.00000000000E+00 -0.24175411209E+02  0.24175411209E+02  0.00000000000E+00 0. -1.
         21    1    1    2  502  501 -0.28093332176E+02 -0.17088265439E+02 -0.73201974005E+01  0.33687229308E+02  0.00000000000E+00 0. -1.
         21    1    1    2  503  502  0.28093332176E+02  0.17088265439E+02  0.69948475382E+02  0.77291871091E+02  0.00000000000E+00 0.  1.
</event>
<event>
 4    1  0.6109945E+002  0.2970238E+02  0.7546771E-02  0.1422201E+00
          2   -1    0    0  502    0  0.00000000000E+00  0.00000000000E+00  0.87230409327E+02  0.87230409327E+02  0.00000000000E+00 0.  1.
         -2   -1    0    0    0  501 -0.00000000000E+00 -0.00000000000E+00 -0.30470100692E+02  0.30470100692E+02  0.00000000000E+00 0. -1.
         21    1    1    2  502  503 -0.23182972188E+02  0.18568278422E+02  0.76481896096E+02  0.82047008437E+02  0.00000000000E+00 0.  1.
         21    1    1    2  503  501  0.23182972188E+02 -0.18568278422E+02 -0.19721587460E+02  0.35653501581E+02  0.00000000000E+00 0. -1.
</event>
<event>
 4    1  0.6109945E+002  0.6456762E+02  0.7546771E-02  0.1245056E+00
          2   -1    0    0  503    0  0.00000000000E+00  0.00000000000E+00  0.10836806031E+03  0.10836806031E+03  0.00000000000E+00 0.  1.
         -2   -1    0    0    0  501 -0.00000000000E+00 -0.00000000000E+00 -0.38862402455E+02  0.38862402455E+02  0.00000000000E+00 0. -1.
         21    1    1    2  502  501  0.64019518402E+02  0.83951865247E+01  0.42144952261E+02  0.77104960244E+02  0.00000000000E+00 0.  1.
         21    1    1    2  503  502 -0.64019518402E+02 -0.83951865247E+01  0.27360705592E+02  0.70125502520E+02  0.00000000000E+00 0. -1.
</event>
<event>
 4    1  0.6109945E+002  0.2238939E+02  0.7546771E-02  0.1500311E+00
          2   -1    0    0  502    0  0.00000000000E+00  0.00000000000E+00  0.13291737163E+02  0.13291737163E+02  0.00000000000E+00 0.  1.
         -2   -1    0    0    0  501 -0.00000000000E+00 -0.00000000000E+00 -0.91247559033E+02  0.91247559033E+02  0.00000000000E+00 0. -1.
         21    1    1    2  502  503  0.76605609405E+01  0.21038073884E+02 -0.79014028406E+02  0.82124913587E+02  0.00000000000E+00 0. -1.
         21    1    1    2  503  501 -0.76605609405E+01 -0.21038073884E+02  0.10582065366E+01  0.22414382609E+02  0.00000000000E+00 0.  1.
</event>
<event>
 4    1  0.6109945E+002  0.3653403E+02  0.7546771E-02  0.1370088E+00
          2   -1    0    0  503    0  0.00000000000E+00  0.00000000000E+00  0.17853924108E+04  0.17853924108E+04  0.00000000000E+00 0.  1.
         -2   -1    0    0    0  501 -0.00000000000E+00 -0.00000000000E+00 -0.75193632688E+00  0.75193632688E+00  0.00000000000E+00 0. -1.
         21    1    1    2  502  501  0.30468935403E+02 -0.20158845838E+02  0.82439410925E+03  0.82520323706E+03  0.00000000000E+00 0. -1.
         21    1    1    2  503  502 -0.30468935403E+02  0.20158845838E+02  0.96024636521E+03  0.96094111005E+03  0.00000000000E+00 0.  1.
</event>
<event>
 4    1  0.6109945E+002  0.4050449E+02  0.7546771E-02  0.1345555E+00
          2   -1    0    0  502    0  0.00000000000E+00  0.00000000000E+00  0.34005341491E+03  0.34005341491E+03  0.00000000000E+00 0. -1.
         -2   -1    0    0    0  501 -0.00000000000E+00 -0.00000000000E+00 -0.61825293880E+01  0.61825293880E+01  0.00000000000E+00 0.  1.
         21    1    1    2  502  503  0.38893389667E+02 -0.11310097707E+02  0.24806913604E+03  0.25135415319E+03  0.00000000000E+00 0. -1.
         21    1    1    2  503  501 -0.38893389667E+02  0.11310097707E+02  0.85801749487E+02  0.94881791114E+02  0.00000000000E+00 0.  1.
</event>
<event>
 4    1  0.6109945E+002  0.4026122E+02  0.7546771E-02  0.1346962E+00
          2   -1    0    0  502    0  0.00000000000E+00  0.00000000000E+00  0.36358103973E+03  0.36358103973E+03  0.00000000000E+00 0. -1.
         -2   -1    0    0    0  501 -0.00000000000E+00 -0.00000000000E+00 -0.44622965545E+01  0.44622965545E+01  0.00000000000E+00 0.  1.
         21    1    1    2  502  503 -0.38707198564E+02 -0.11077826383E+02  0.17407514324E+03  0.17867042551E+03  0.00000000000E+00 0.  1.
         21    1    1    2  503  501  0.38707198564E+02  0.11077826383E+02  0.18504359994E+03  0.18937291078E+03  0.00000000000E+00 0. -1.
</event>
<event>
 4    1  0.6109945E+002  0.2843472E+02  0.7546771E-02  0.1433705E+00
          2   -1    0    0  502    0  0.00000000000E+00  0.00000000000E+00  0.58651212029E+03  0.58651212029E+03  0.00000000000E+00 0.  1.
         -2   -1    0    0    0  501 -0.00000000000E+00 -0.00000000000E+00 -0.14850106763E+01  0.14850106763E+01  0.00000000000E+00 0. -1.
         21    1    1    2  502  503 -0.97412660535E+01 -0.26714065879E+02  0.37123343686E+03  0.37232082700E+03  0.00000000000E+00 0.  1.
         21    1    1    2  503  501  0.97412660535E+01  0.26714065879E+02  0.21379367276E+03  0.21567630397E+03  0.00000000000E+00 0. -1.
</event>
<event>
 4    1  0.6109945E+002  0.2576785E+02  0.7546771E-02  0.1460394E+00
          2   -1    0    0  503    0  0.00000000000E+00  0.00000000000E+00  0.70049264535E+03  0.70049264535E+03  0.00000000000E+00 0. -1.
         -2   -1    0    0    0  501 -0.00000000000E+00 -0.00000000000E+00 -0.13622855955E+01  0.13622855955E+01  0.00000000000E+00 0.  1.
         21    1    1    2  502  501  0.17948140845E+02  0.18489081269E+02  0.15601352325E+03  0.15812716820E+03  0.00000000000E+00 0.  1.
         21    1    1    2  503  502 -0.17948140845E+02 -0.18489081269E+02  0.54311683650E+03  0.54372776275E+03  0.00000000000E+00 0. -1.
</event>
<event>
 4    1  0.6109945E+002  0.2232988E+02  0.7546771E-02  0.1501089E+00
          2   -1    0    0  503    0  0.00000000000E+00  0.00000000000E+00  0.73428387346E+03  0.73428387346E+03  0.00000000000E+00 0.  1.
         -2   -1    0    0    0  501 -0.00000000000E+00 -0.00000000000E+00 -0.10286357787E+01  0.10286357787E+01  0.00000000000E+00 0. -1.
         21    1    1    2  502  501  0.18262428448E+02  0.12849411713E+02  0.15229854912E+03  0.15392683892E+03  0.00000000000E+00 0. -1.
         21    1    1    2  503  502 -0.18262428448E+02 -0.12849411713E+02  0.58095668856E+03  0.58138567032E+03  0.00000000000E+00 0.  1.
</event>
<event>
 4    1  0.6109945E+002  0.2301670E+02  0.7546771E-02  0.1492289E+00
          2   -1    0    0  503    0  0.00000000000E+00  0.00000000000E+00  0.12175329652E+01  0.12175329652E+01  0.00000000000E+00 0. -1.
         -2   -1    0    0    0  501 -0.00000000000E+00 -0.00000000000E+00 -0.80999087443E+03  0.80999087443E+03  0.00000000000E+00 0.  1.
         21    1    1    2  502  501 -0.14836593248E+02  0.17596697673E+02 -0.68032082440E+03  0.68071006485E+03  0.00000000000E+00 0.  1.
         21    1    1    2  503  502  0.14836593248E+02 -0.17596697673E+02 -0.12845251706E+03  0.13049834254E+03  0.00000000000E+00 0. -1.
</event>
<event>
 4    1  0.6109945E+002  0.2175004E+02  0.7546771E-02  0.1508820E+00
          2   -1    0    0  503    0  0.00000000000E+00  0.00000000000E+00  0.11354076037E+04  0.11354076037E+04  0.00000000000E+00 0. -1.
         -2   -1    0    0    0  501 -0.00000000000E+00 -0.00000000000E+00 -0.44285584776E+00  0.44285584776E+00  0.00000000000E+00 0.  1.
         21    1    1    2  502  501  0.11730233483E+02 -0.18315727144E+02  0.42932201610E+03  0.42987260641E+03  0.00000000000E+00 0. -1.
         21    1    1    2  503  502 -0.11730233483E+02  0.18315727144E+02  0.70564273174E+03  0.70597785312E+03  0.00000000000E+00 0.  1.
</event>
<event>
 4    1  0.6109945E+002  0.2636388E+02  0.7546771E-02  0.1454105E+00
          2   -1    0    0  503    0  0.00000000000E+00  0.00000000000E+00  0.12255861354E+04  0.12255861354E+04  0.00000000000E+00 0. -1.
         -2   -1    0    0    0  501 -0.00000000000E+00 -0.00000000000E+00 -0.11043643814E+01  0.11043643814E+01  0.00000000000E+00 0.  1.
         21    1    1    2  502  501 -0.12226707989E+02  0.23357266532E+02  0.18444678446E+03  0.18632141741E+03  0.00000000000E+00 0.  1.
         21    1    1    2  503  502  0.12226707989E+02 -0.23357266532E+02  0.10400349865E+04  0.10403690823E+04  0.00000000000E+00 0. -1.
</event>
<event>
 4    1  0.6109945E+002  0.2350230E+02  0.7546771E-02  0.1486285E+00
          2   -1    0    0  502    0  0.00000000000E+00  0.00000000000E+00  0.19167547519E+03  0.19167547519E+03  0.00000000000E+00 0.  1.
         -2   -1    0    0    0  501 -0.00000000000E+00 -0.00000000000E+00 -0.29465308208E+01  0.29465308208E+01  0.00000000000E+00 0. -1.
         21    1    1    2  502  503 -0.23187425359E+02  0.38342724090E+01  0.10879468417E+03  0.11130427505E+03  0.00000000000E+00 0.  1.
         21    1    1    2  503  501  0.23187425359E+02 -0.38342724090E+01  0.79934260195E+02  0.83317730962E+02  0.00000000000E+00 0. -1.
</event>
<event>
 4    1  0.6109945E+002  0.2956441E+02  0.7546771E-02  0.1423420E+00
          2   -1    0    0  503    0  0.00000000000E+00  0.00000000000E+00  0.40166336707E+02  0.40166336707E+02  0.00000000000E+00 0.  1.
         -2   -1    0    0    0  501 -0.00000000000E+00 -0.00000000000E+00 -0.25025755405E+02  0.25025755405E+02  0.00000000000E+00 0. -1.
         21    1    1    2  502  501 -0.27794183615E+02 -0.10076592425E+02 -0.42032047435E+01  0.29861702695E+02  0.00000000000E+00 0. -1.
         21    1    1    2  503  502  0.27794183615E+02  0.10076592425E+02  0.19343786045E+02  0.35330389416E+02  0.00000000000E+00 0.  1.
</event>
<event>
 4    1  0.6109945E+002  0.2690642E+02  0.7546771E-02  0.1448550E+00
          2   -1    0    0  503    0  0.00000000000E+00  0.00000000000E+00  0.72202372650E+01  0.72202372650E+01  0.00000000000E+00 0.  1.
         -2   -1    0    0    0  501 -0.00000000000E+00 -0.00000000000E+00 -0.10058545480E+03  0.10058545480E+03  0.00000000000E+00 0. -1.
         21    1    1    2  502  501 -0.21476684796E+02 -0.16208253350E+02 -0.43652236997E+02  0.51278389808E+02  0.00000000000E+00 0.  1.
         21    1    1    2  503  502  0.21476684796E+02  0.16208253350E+02 -0.49712980537E+02  0.56527302256E+02  0.00000000000E+00 0. -1.
</event>
<event>
 4    1  0.6109945E+002  0.3417633E+02  0.7546771E-02  0.1386448E+00
          2   -1    0    0  502    0  0.00000000000E+00  0.00000000000E+00  0.45004601217E+03  0.45004601217E+03  0.00000000000E+00 0.  1.
         -2   -1    0    0    0  501 -0.00000000000E+00 -0.00000000000E+00 -0.13666434956E+02  0.13666434956E+02  0.00000000000E+00 0. -1.
         21    1    1    2  502  503 -0.30040145062E+02 -0.16297574046E+02  0.42687250339E+03  0.42823843286E+03  0.00000000000E+00 0.  1.
         21    1    1    2  503  501  0.30040145062E+02  0.16297574046E+02  0.95070738278E+01  0.35474014262E+02  0.00000000000E+00 0. -1.
</event>
<event>
 4    1  0.6109945E+002  0.2187370E+02  0.7546771E-02  0.1507147E+00
          2   -1    0    0  503    0  0.00000000000E+00  0.00000000000E+00  0.16873759791E+03  0.16873759791E+03  0.00000000000E+00 0.  1.
         -2   -1    0    0    0  501 -0.00000000000E+00 -0.00000000000E+00 -0.14032097858E+03  0.14032097858E+03  0.00000000000E+00 0. -1.
         21    1    1    2  502  501 -0.19462248095E+02 -0.99839661647E+01 -0.13875169445E+03  0.14046526757E+03  0.00000000000E+00 0. -1.
         21    1    1    2  503  502  0.19462248095E+02  0.99839661647E+01  0.16716831377E+03  0.16859330892E+03  0.00000000000E+00 0.  1.
</event>
<event>
 4    1  0.6109945E+002  0.2140837E+02  0.7546771E-02  0.1513514E+00
          2   -1    0    0  503    0  0.00000000000E+00  0.00000000000E+00  0.31469642966E+01  0.31469642966E+01  0.00000000000E+00 0. -1.
         -2   -1    0    0    0  501 -0.00000000000E+00 -0.00000000000E+00 -0.25719672003E+03  0.25719672003E+03  0.00000000000E+00 0.  1.
         21    1    1    2  502  501  0.21401166853E+02 -0.55529817764E+00 -0.21275543749E+03  0.21382982598E+03  0.00000000000E+00 0.  1.
         21    1    1    2  503  502 -0.21401166853E+02  0.55529817764E+00 -0.41294318243E+02  0.46513858342E+02  0.00000000000E+00 0. -1.
</event>
<event>
 4    1  0.6109945E+002  0.2063642E+02  0.7546771E-02  0.1524520E+00
          2   -1    0    0  502    0  0.00000000000E+00  0.00000000000E+00  0.12681208926E+04  0.12681208926E+04  0.00000000000E+00 0. -1.
         -2   -1    0    0    0  501 -0.00000000000E+00 -0.00000000000E+00 -0.70987500035E+00  0.70987500035E+00  0.00000000000E+00 0.  1.
         21    1    1    2  502  503  0.18356475775E+02  0.94287558156E+01  0.10942270088E+04  0.10944215863E+04  0.00000000000E+00 0. -1.
         21    1    1    2  503  501 -0.18356475775E+02 -0.94287558156E+01  0.17318400879E+03  0.17440918135E+03  0.00000000000E+00 0.  1.
</event>
<event>
 4    1  0.6109945E+002  0.2129216E+02  0.7546771E-02  0.1515134E+00
          2   -1    0    0  503    0  0.00000000000E+00  0.00000000000E+00  0.11231365912E+04  0.11231365912E+04  0.00000000000E+00 0. -1.
         -2   -1    0    0    0  501 -0.00000000000E+00 -0.00000000000E+00 -0.41386141825E+00  0.41386141825E+00  0.00000000000E+00 0.  1.
         21    1    1    2  502  501 -0.12306809967E+02  0.17375230812E+02  0.64959573064E+03  0.64994458955E+03  0.00000000000E+00 0.  1.
         21    1    1    2  503  502  0.12306809967E+02 -0.17375230812E+02  0.47312699910E+03  0.47360586303E+03  0.00000000000E+00 0. -1.
</event>
<event>
 4    1  0.6109945E+002  0.2519922E+02  0.7546771E-02  0.1466587E+00
          2   -1    0    0  503    0  0.00000000000E+00  0.00000000000E+00  0.11620224202E+04  0.11620224202E+04  0.00000000000E+00 0.  1.
         -2   -1    0    0    0  501 -0.00000000000E+00 -0.00000000000E+00 -0.63216392624E+01  0.63216392624E+01  0.00000000000E+00 0. -1.
         21    1    1    2  502  501 -0.51632849683E+01 -0.24664577224E+02  0.19497754708E+02  0.31861627704E+02  0.00000000000E+00 0. -1.
         21    1    1    2  503  502  0.51632849683E+01  0.24664577224E+02  0.11362030263E+04  0.11364824318E+04  0.00000000000E+00 0.  1.
</event>
<event>
 4    1  0.6109945E+002  0.2482344E+02  0.7546771E-02  0.1470788E+00
          2   -1    0    0  502    0  0.00000000000E+00  0.00000000000E+00  0.10320478540E+04  0.10320478540E+04  0.00000000000E+00 0.  1.
         -2   -1    0    0    0  501 -0.00000000000E+00 -0.00000000000E+00 -0.29359719488E+01  0.29359719488E+01  0.00000000000E+00 0. -1.
         21    1    1    2  502  503 -0.20149433604E+01 -0.24741530914E+02  0.97644083189E+03  0.97675631636E+03  0.00000000000E+00 0.  1.
         21    1    1    2  503  501  0.20149433604E+01  0.24741530914E+02  0.52671050142E+02  0.58227509579E+02  0.00000000000E+00 0. -1.
</event>
<event>
 4    1  0.6109945E+002  0.2975925E+02  0.7546771E-02  0.1421700E+00
          2   -1    0    0  502    0  0.00000000000E+00  0.00000000000E+00  0.22743476974E+02  0.22743476974E+02  0.00000000000E+00 0.  1.
         -2   -1    0    0    0  501 -0.00000000000E+00 -0.00000000000E+00 -0.15568192052E+03  0.15568192052E+03  0.00000000000E+00 0. -1.
         21    1    1    2  502  503 -0.25457316777E+02  0.15412270929E+02  0.10785044025E+02  0.31653281777E+02  0.00000000000E+00 0.  1.
         21    1    1    2  503  501  0.25457316777E+02 -0.15412270929E+02 -0.14372348757E+03  0.14677211572E+03  0.00000000000E+00 0. -1.
</event>
<event>
 4    1  0.6109945E+002  0.2657343E+02  0.7546771E-02  0.1451941E+00
          2   -1    0    0  502    0  0.00000000000E+00  0.00000000000E+00  0.15531973585E+02  0.15531973585E+02  0.00000000000E+00 0. -1.
         -2   -1    0    0    0  501 -0.00000000000E+00 -0.00000000000E+00 -0.79885840441E+02  0.79885840441E+02  0.00000000000E+00 0.  1.
         21    1    1    2  502  503 -0.13753161915E+02 -0.22737583801E+02 -0.85987345551E+00  0.26587338380E+02  0.00000000000E+00 0. -1.
         21    1    1    2  503  501  0.13753161915E+02  0.22737583801E+02 -0.63493993400E+02  0.68830475646E+02  0.00000000000E+00 0.  1.
</event>
<event>
 4    1  0.6109945E+002  0.2059936E+02  0.7546771E-02  0.1525062E+00
          2   -1    0    0  503    0  0.00000000000E+00  0.00000000000E+00  0.14271330861E+04  0.14271330861E+04  0.00000000000E+00 0.  1.
         -2   -1    0    0    0  501 -0.00000000000E+00 -0.00000000000E+00 -0.39147773264E+00  0.39147773264E+00  0.00000000000E+00 0. -1.
         21    1    1    2  502  501 -0.17810782546E+02 -0.10349384283E+02  0.36334655955E+03  0.36393001534E+03  0.00000000000E+00 0. -1.
         21    1    1    2  503  502  0.17810782546E+02  0.10349384283E+02  0.10633950488E+04  0.10635945485E+04  0.00000000000E+00 0.  1.
</event>
<event>
 4    1  0.6109945E+002  0.2874382E+02  0.7546771E-02  0.1430836E+00
          2   -1    0    0  502    0  0.00000000000E+00  0.00000000000E+00  0.24165221491E+03  0.24165221491E+03  0.00000000000E+00 0.  1.
         -2   -1    0    0    0  501 -0.00000000000E+00 -0.00000000000E+00 -0.47719579796E+01  0.47719579796E+01  0.00000000000E+00 0. -1.
         21    1    1    2  502  503  0.24355898824E+02  0.15264258816E+02  0.18404682477E+03  0.18627785996E+03  0.00000000000E+00 0.  1.
         21    1    1    2  503  501 -0.24355898824E+02 -0.15264258816E+02  0.52833432159E+02  0.60146312924E+02  0.00000000000E+00 0. -1.
</event>
<event>
 4    1  0.6109945E+002  0.3453879E+02  0.7546771E-02  0.1383835E+00
          2   -1    0    0  502    0  0.00000000000E+00  0.00000000000E+00  0.74760978993E+00  0.74760978993E+00  0.00000000000E+00 0. -1.
         -2   -1    0    0    0  501 -0.00000000000E+00 -0.00000000000E+00 -0.17231287166E+04  0.17231287166E+04  0.00000000000E+00 0.  1.
         21    1    1    2  502  503  0.12608540046E+02  0.32155131367E+02 -0.62675334839E+03  0.62770429939E+03  0.00000000000E+00 0. -1.
         21    1    1    2  503  501 -0.12608540046E+02 -0.32155131367E+02 -0.10956277584E+04  0.10961720270E+04  0.00000000000E+00 0.  1.
</event>
<event>
 4    1  0.6109945E+002  0.4686580E+02  0.7546771E-02  0.1312365E+00
          2   -1    0    0  502    0  0.00000000000E+00  0.00000000000E+00  0.35742372263E+04  0.35742372263E+04  0.00000000000E+00 0. -1.
         -2   -1    0    0    0  501 -0.00000000000E+00 -0.00000000000E+00 -0.65999698800E+00  0.65999698800E+00  0.00000000000E+00 0.  1.
         21    1    1    2  502  503 -0.13027763905E+02  0.45018667093E+02  0.22560428271E+04  0.22565295568E+04  0.00000000000E+00 0. -1.
         21    1    1    2  503  501  0.13027763905E+02 -0.45018667093E+02  0.13175344022E+04  0.13183676664E+04  0.00000000000E+00 0.  1.
</event>
<event>
 4    1  0.6109945E+002  0.3023804E+02  0.7546771E-02  0.1417539E+00
          2   -1    0    0  503    0  0.00000000000E+00  0.00000000000E+00  0.52241347746E+03  0.52241347746E+03  0.00000000000E+00 0.  1.
         -2   -1    0    0    0  501 -0.00000000000E+00 -0.00000000000E+00 -0.32697308622E+02  0.32697308622E+02  0.00000000000E+00 0. -1.
         21    1    1    2  502  501  0.19793427972E+02 -0.22859554137E+02 -0.25166657564E+02  0.39340814165E+02  0.00000000000E+00 0. -1.
         21    1    1    2  503  502 -0.19793427972E+02  0.22859554137E+02  0.51488282641E+03  0.51576997192E+03  0.00000000000E+00 0.  1.
</event>
<event>
 4    1  0.6109945E+002  0.2596688E+02  0.7546771E-02  0.1458271E+00
          2   -1    0    0  502    0  0.00000000000E+00  0.00000000000E+00  0.83770224493E+03  0.83770224493E+03  0.00000000000E+00 0. -1.
         -2   -1    0    0    0  501 -0.00000000000E+00 -0.00000000000E+00 -0.12195512092E+01  0.12195512092E+01  0.00000000000E+00 0.  1.
         21    1    1    2  502  503  0.28609466665E+01  0.25808792628E+02  0.66282378392E+03  0.66333222998E+03  0.00000000000E+00 0. -1.
         21    1    1    2  503  501 -0.28609466665E+01 -0.25808792628E+02  0.17365890980E+03  0.17558956617E+03  0.00000000000E+00 0.  1.
</event>
<event>
 4    1  0.6109945E+002  0.3526654E+02  0.7546771E-02  0.1378699E+00
          2   -1    0    0  502    0  0.00000000000E+00  0.00000000000E+00  0.35222548743E+01  0.35222548743E+01  0.00000000000E+00 0.  1.
         -2   -1    0    0    0  501 -0.00000000000E+00 -0.00000000000E+00 -0.56054744253E+03  0.56054744253E+03  0.00000000000E+00 0. -1.
         21    1    1    2  502  503  0.18811079807E+01 -0.35216330553E+02 -0.10694131312E+03  0.11260627406E+03  0.00000000000E+00 0.  1.
         21    1    1    2  503  501 -0.18811079807E+01  0.35216330553E+02 -0.45008387453E+03  0.45146342335E+03  0.00000000000E+00 0. -1.
</event>
<event>
 4    1  0.6109945E+002  0.2098115E+02  0.7546771E-02  0.1519534E+00
          2   -1    0    0  502    0  0.00000000000E+00  0.00000000000E+00  0.35244843806E+03  0.35244843806E+03  0.00000000000E+00 0. -1.
         -2   -1    0    0    0  501 -0.00000000000E+00 -0.00000000000E+00 -0.65726829393E+01  0.65726829393E+01  0.00000000000E+00 0.  1.
         21    1    1    2  502  503 -0.11230694123E+02 -0.17722306982E+02  0.33449447149E+03  0.33515184635E+03  0.00000000000E+00 0. -1.
         21    1    1    2  503  501  0.11230694123E+02  0.17722306982E+02  0.11381283635E+02  0.23869274652E+02  0.00000000000E+00 0.  1.
</event>
<event>
 4    1  0.6109945E+002  0.3247995E+02  0.7546771E-02  0.1399202E+00
          2   -1    0    0  502    0  0.00000000000E+00  0.00000000000E+00  0.19729816099E+04  0.19729816099E+04  0.00000000000E+00 0.  1.
         -2   -1    0    0    0  501 -0.00000000000E+00 -0.00000000000E+00 -0.65308919567E+00  0.65308919567E+00  0.00000000000E+00 0. -1.
         21    1    1    2  502  503 -0.29908886432E+02  0.12665148466E+02  0.14063215934E+04  0.14066966167E+04  0.00000000000E+00 0.  1.
         21    1    1    2  503  501  0.29908886432E+02 -0.12665148466E+02  0.56600692731E+03  0.56693808237E+03  0.00000000000E+00 0. -1.
</event>
<event>
 4    1  0.6109945E+002  0.4285611E+02  0.7546771E-02  0.1332516E+00
          2   -1    0    0  503    0  0.00000000000E+00  0.00000000000E+00  0.28731470060E+01  0.28731470060E+01  0.00000000000E+00 0.  1.
         -2   -1    0    0    0  501 -0.00000000000E+00 -0.00000000000E+00 -0.13504138973E+04  0.13504138973E+04  0.00000000000E+00 0. -1.
         21    1    1    2  502  501 -0.71562080223E+01 -0.42254407792E+02 -0.18273508654E+03  0.18769325546E+03  0.00000000000E+00 0.  1.
         21    1    1    2  503  502  0.71562080223E+01  0.42254407792E+02 -0.11648056638E+04  0.11655937889E+04  0.00000000000E+00 0. -1.
</event>
<event>
 4    1  0.6109945E+002  0.3026352E+02  0.7546771E-02  0.1417320E+00
          2   -1    0    0  502    0  0.00000000000E+00  0.00000000000E+00  0.23998409593E+02  0.23998409593E+02  0.00000000000E+00 0. -1.
         -2   -1    0    0    0  501 -0.00000000000E+00 -0.00000000000E+00 -0.11733412558E+03  0.11733412558E+03  0.00000000000E+00 0.  1.
         21    1    1    2  502  503 -0.29703702549E+01  0.30117393439E+02  0.11379179189E+02  0.32332123438E+02  0.00000000000E+00 0. -1.
         21    1    1    2  503  501  0.29703702549E+01 -0.30117393439E+02 -0.10471489518E+03  0.10900041174E+03  0.00000000000E+00 0.  1.
</event>
<event>
 4    1  0.6109945E+002  0.2024029E+02  0.7546771E-02  0.1530394E+00
          2   -1    0    0  502    0  0.00000000000E+00  0.00000000000E+00  0.12275904766E+04  0.12275904766E+04  0.00000000000E+00 0.  1.
         -2   -1    0    0    0  501 -0.00000000000E+00 -0.00000000000E+00 -0.27157390576E+01  0.27157390576E+01  0.00000000000E+00 0. -1.
         21    1    1    2  502  503  0.20176586550E+02  0.16046340635E+01  0.11885560628E+04  0.11887283895E+04  0.00000000000E+00 0.  1.
         21    1    1    2  503  501 -0.20176586550E+02 -0.16046340635E+01  0.36318674669E+02  0.41577826122E+02  0.00000000000E+00 0. -1.
</event>
<event>
 4    1  0.6109945E+002  0.3236108E+02  0.7546771E-02  0.1400130E+00
          2   -1    0    0  502    0  0.00000000000E+00  0.00000000000E+00  0.11947869804E+03  0.11947869804E+03  0.00000000000E+00 0.  1.
         -2   -1    0    0    0  501 -0.00000000000E+00 -0.00000000000E+00 -0.94345554793E+01  0.94345554793E+01  0.00000000000E+00 0. -1.
         21    1    1    2  502  503  0.29104435698E+02  0.14148182858E+02  0.37851800195E+02  0.49799578648E+02  0.00000000000E+00 0.  1.
         21    1    1    2  503  501 -0.29104435698E+02 -0.14148182858E+02  0.72192342369E+02  0.79113674875E+02  0.00000000000E+00 0. -1.
</event>
<event>
 4    1  0.6109945E+002  0.8509270E+02  0.7546771E-02  0.1192494E+00
          2   -1    0    0  503    0  0.00000000000E+00  0.00000000000E+00  0.15602320012E+03  0.15602320012E+03  0.00000000000E+00 0. -1.
         -2   -1    0    0    0  501 -0.00000000000E+00 -0.00000000000E+00 -0.60810744361E+02  0.60810744361E+02  0.00000000000E+00 0.  1.
         21    1    1    2  502  501 -0.25756006540E+02 -0.81101145621E+02  0.10036875441E+03  0.13158516085E+03  0.00000000000E+00 0. -1.
         21    1    1    2  503  502  0.25756006540E+02  0.81101145621E+02 -0.51562986568E+01  0.85248783627E+02  0.00000000000E+00 0.  1.
</event>
<event>
 4    1  0.6109945E+002  0.2603636E+02  0.7546771E-02  0.1457536E+00
          2   -1    0    0  503    0  0.00000000000E+00  0.00000000000E+00  0.46307328783E+02  0.46307328783E+02  0.00000000000E+00 0. -1.
         -2   -1    0    0    0  501 -0.00000000000E+00 -0.00000000000E+00 -0.18557395427E+02  0.18557395427E+02  0.00000000000E+00 0.  1.
         21    1    1    2  502  501  0.11559699297E+02  0.23329498635E+02 -0.10280845738E+01  0.26056651977E+02  0.00000000000E+00 0.  1.
         21    1    1    2  503  502 -0.11559699297E+02 -0.23329498635E+02  0.28778017930E+02  0.38808072232E+02  0.00000000000E+00 0. -1.
</event>
<event>
 4    1  0.6109945E+002  0.2131781E+02  0.7546771E-02  0.1514775E+00
          2   -1    0    0  502    0  0.00000000000E+00  0.00000000000E+00  0.11720545590E+03  0.11720545590E+03  0.00000000000E+00 0. -1.
         -2   -1    0    0    0  501 -0.00000000000E+00 -0.00000000000E+00 -0.39872090511E+01  0.39872090511E+01  0.00000000000E+00 0.  1.
         21    1    1    2  502  503 -0.59003103868E+01 -0.20485003451E+02  0.66666584474E+02  0.69992017505E+02  0.00000000000E+00 0. -1.
         21    1    1    2  503  501  0.59003103868E+01  0.20485003451E+02  0.46551662380E+02  0.51200647450E+02  0.00000000000E+00 0.  1.
</event>
<event>
 4    1  0.6109945E+002  0.2158823E+02  0.7546771E-02  0.1511030E+00
          2   -1    0    0  502    0  0.00000000000E+00  0.00000000000E+00  0.11316599121E+04  0.11316599121E+04  0.00000000000E+00 0. -1.
         -2   -1    0    0    0  501 -0.00000000000E+00 -0.00000000000E+00 -0.46540546566E+00  0.46540546566E+00  0.00000000000E+00 0.  1.
         21    1    1    2  502  503 -0.21465680595E+02 -0.22970030489E+01  0.75765470153E+03  0.75796220118E+03  0.00000000000E+00 0. -1.
         21    1    1    2  503  501  0.21465680595E+02  0.22970030489E+01  0.37353980513E+03  0.37416311641E+03  0.00000000000E+00 0.  1.
</event>
<event>
 4    1  0.6109945E+002  0.2107345E+02  0.7546771E-02  0.1518219E+00
          2   -1    0    0  502    0  0.00000000000E+00  0.00000000000E+00  0.59607638254E+01  0.59607638254E+01  0.00000000000E+00 0. -1.
         -2   -1    0    0    0  501 -0.00000000000E+00 -0.00000000000E+00 -0.13533265849E+03  0.13533265849E+03  0.00000000000E+00 0.  1.
         21    1    1    2  502  503 -0.16147061816E+02  0.13541141373E+02 -0.17321646657E+02  0.27278738202E+02  0.00000000000E+00 0. -1.
         21    1    1    2  503  501  0.16147061816E+02 -0.13541141373E+02 -0.11205024801E+03  0.11401468412E+03  0.00000000000E+00 0.  1.
</event>
<event>
 4    1  0.6109945E+002  0.3620397E+02  0.7546771E-02  0.1372291E+00
          2   -1    0    0  503    0  0.00000000000E+00  0.00000000000E+00  0.25441653789E+03  0.25441653789E+03  0.00000000000E+00 0.  1.
         -2   -1    0    0    0  501 -0.00000000000E+00 -0.00000000000E+00 -0.84124903083E+02  0.84124903083E+02  0.00000000000E+00 0. -1.
         21    1    1    2  502  501 -0.10378458305E+02  0.34684511436E+02 -0.78859862835E+02  0.86773300598E+02  0.00000000000E+00 0. -1.
         21    1    1    2  503  502  0.10378458305E+02 -0.34684511436E+02  0.24915149765E+03  0.25176814038E+03  0.00000000000E+00 0.  1.
</event>
<event>
 4    1  0.6109945E+002  0.3812925E+02  0.7546771E-02  0.1359811E+00
          2   -1    0    0  503    0  0.00000000000E+00  0.00000000000E+00  0.59791576311E+03  0.59791576311E+03  0.00000000000E+00 0. -1.
         -2   -1    0    0    0  501 -0.00000000000E+00 -0.00000000000E+00 -0.38694005039E+01  0.38694005039E+01  0.00000000000E+00 0.  1.
         21    1    1    2  502  501  0.32944139955E+02 -0.19196954978E+02  0.11360084403E+03  0.11982900818E+03  0.00000000000E+00 0.  1.
         21    1    1    2  503  502 -0.32944139955E+02  0.19196954978E+02  0.48044551857E+03  0.48195615543E+03  0.00000000000E+00 0. -1.
</event>
<event>
 4    1  0.6109945E+002  0.3109087E+02  0.7546771E-02  0.1410348E+00
          2   -1    0    0  502    0  0.00000000000E+00  0.00000000000E+00  0.23751454760E+03  0.23751454760E+03  0.00000000000E+00 0. -1.
         -2   -1    0    0    0  501 -0.00000000000E+00 -0.00000000000E+00 -0.57329497709E+01  0.57329497709E+01  0.00000000000E+00 0.  1.
         21    1    1    2  502  503 -0.16068144262E+02  0.26616857778E+02  0.18139842762E+03  0.18404355985E+03  0.00000000000E+00 0. -1.
         21    1    1    2  503  501  0.16068144262E+02 -0.26616857778E+02  0.50383170204E+02  0.59203937519E+02  0.00000000000E+00 0.  1.
</event>
<event>
 4    1  0.6109945E+002  0.2718130E+02  0.7546771E-02  0.1445795E+00
          2   -1    0    0  503    0  0.00000000000E+00  0.00000000000E+00  0.66333393818E+03  0.66333393818E+03  0.00000000000E+00 0.  1.
         -2   -1    0    0    0  501 -0.00000000000E+00 -0.00000000000E+00 -0.16097593837E+01  0.16097593837E+01  0.00000000000E+00 0. -1.
         21    1    1    2  502  501 -0.24160417091E+02 -0.12453797183E+02  0.14631955697E+03  0.14882283283E+03  0.00000000000E+00 0. -1.
         21    1    1    2  503  502  0.24160417091E+02  0.12453797183E+02  0.51540462182E+03  0.51612086474E+03  0.00000000000E+00 0.  1.
</event>
<event>
 4    1  0.6109945E+002  0.2241625E+02  0.7546771E-02  0.1499961E+00
          2   -1    0    0  503    0  0.00000000000E+00  0.00000000000E+00  0.14463834530E+02  0.14463834530E+02  0.00000000000E+00 0.  1.
         -2   -1    0    0    0  501 -0.00000000000E+00 -0.00000000000E+00 -0.43946332395E+02  0.43946332395E+02  0.00000000000E+00 0. -1.
         21    1    1    2  502  501  0.53855820274E+01 -0.21759679380E+02 -0.28107720071E+02  0.35951802014E+02  0.00000000000E+00 0. -1.
         21    1    1    2  503  502 -0.53855820274E+01  0.21759679380E+02 -0.13747777938E+01  0.22458364911E+02  0.00000000000E+00 0.  1.
</event>
<event>
 4    1  0.6109945E+002  0.2638276E+02  0.7546771E-02  0.1453909E+00
          2   -1    0    0  502    0  0.00000000000E+00  0.00000000000E+00  0.95034982928E+01  0.95034982928E+01  0.00000000000E+00 0. -1.
         -2   -1    0    0    0  501 -0.00000000000E+00 -0.00000000000E+00 -0.84372347788E+02  0.84372347788E+02  0.00000000000E+00 0.  1.
         21    1    1    2  502  503  0.13791054403E+02 -0.22491263329E+02 -0.20385826855E+02  0.33341146415E+02  0.00000000000E+00 0. -1.
         21    1    1    2  503  501 -0.13791054403E+02  0.22491263329E+02 -0.54483022640E+02  0.60534699666E+02  0.00000000000E+00 0.  1.
</event>
<event>
 4    1  0.6109945E+002  0.2584299E+02  0.7546771E-02  0.1459590E+00
          2   -1    0    0  503    0  0.00000000000E+00  0.00000000000E+00  0.17808307584E+03  0.17808307584E+03  0.00000000000E+00 0. -1.
         -2   -1    0    0    0  501 -0.00000000000E+00 -0.00000000000E+00 -0.12057560723E+02  0.12057560723E+02  0.00000000000E+00 0.  1.
         21    1    1    2  502  501  0.21800466742E+02  0.13878031356E+02  0.41004302191E+01  0.26166268982E+02  0.00000000000E+00 0.  1.
         21    1    1    2  503  502 -0.21800466742E+02 -0.13878031356E+02  0.16192508490E+03  0.16397436758E+03  0.00000000000E+00 0. -1.
</event>
<event>
 4    1  0.6109945E+002  0.2118543E+02  0.7546771E-02  0.1516634E+00
          2   -1    0    0  502    0  0.00000000000E+00  0.00000000000E+00  0.15750993053E+02  0.15750993053E+02  0.00000000000E+00 0.  1.
         -2   -1    0    0    0  501 -0.00000000000E+00 -0.00000000000E+00 -0.28973484439E+02  0.28973484439E+02  0.00000000000E+00 0. -1.
         21    1    1    2  502  503  0.21118467725E+02 -0.16830984414E+01 -0.37371063894E+01  0.21512518765E+02  0.00000000000E+00 0.  1.
         21    1    1    2  503  501 -0.21118467725E+02  0.16830984414E+01 -0.94853849960E+01  0.23211958727E+02  0.00000000000E+00 0. -1.
</event>
<event>
 4    1  0.6109945E+002  0.2320039E+02  0.7546771E-02  0.1489997E+00
          2   -1    0    0  503    0  0.00000000000E+00  0.00000000000E+00  0.11619397640E+04  0.11619397640E+04  0.00000000000E+00 0.  1.
         -2   -1    0    0    0  501 -0.00000000000E+00 -0.00000000000E+00 -0.99654954576E+00  0.99654954576E+00  0.00000000000E+00 0. -1.
         21    1    1    2  502  501  0.20392890492E+02 -0.11062926009E+02  0.15510274250E+03  0.15682831073E+03  0.00000000000E+00 0. -1.
         21    1    1    2  503  502 -0.20392890492E+02  0.11062926009E+02  0.10058404720E+04  0.10061080029E+04  0.00000000000E+00 0.  1.
</event>
<event>
 4    1  0.6109945E+002  0.3467038E+02  0.7546771E-02  0.1382895E+00
          2   -1    0    0  502    0  0.00000000000E+00  0.00000000000E+00  0.10060471265E+04  0.10060471265E+04  0.00000000000E+00 0.  1.
         -2   -1    0    0    0  501 -0.00000000000E+00 -0.00000000000E+00 -0.15659734887E+01  0.15659734887E+01  0.00000000000E+00 0. -1.
         21    1    1    2  502  503 -0.27468760583E+02  0.21154259696E+02  0.74751599806E+03  0.74831958605E+03  0.00000000000E+00 0. -1.
         21    1    1    2  503  501  0.27468760583E+02 -0.21154259696E+02  0.25696515495E+03  0.25929351394E+03  0.00000000000E+00 0.  1.
</event>
<event>
 4    1  0.6109945E+002  0.2680620E+02  0.7546771E-02  0.1449565E+00
          2   -1    0    0  502    0  0.00000000000E+00  0.00000000000E+00  0.10482402947E+04  0.10482402947E+04  0.00000000000E+00 0. -1.
         -2   -1    0    0    0  501 -0.00000000000E+00 -0.00000000000E+00 -0.10424979874E+01  0.10424979874E+01  0.00000000000E+00 0.  1.
         21    1    1    2  502  503 -0.56787868761E+01 -0.26197784107E+02  0.83061109353E+03  0.83104353749E+03  0.00000000000E+00 0.  1.
         21    1    1    2  503  501  0.56787868761E+01  0.26197784107E+02  0.21658670313E+03  0.21823925515E+03  0.00000000000E+00 0. -1.
</event>
<event>
 4    1  0.6109945E+002  0.2409337E+02  0.7546771E-02  0.1479207E+00
          2   -1    0    0  503    0  0.00000000000E+00  0.00000000000E+00  0.70791556728E+03  0.70791556728E+03  0.00000000000E+00 0.  1.
         -2   -1    0    0    0  501 -0.00000000000E+00 -0.00000000000E+00 -0.80379466201E+01  0.80379466201E+01  0.00000000000E+00 0. -1.
         21    1    1    2  502  501  0.15918954087E+02 -0.18085283183E+02  0.10712825626E+02  0.26367692351E+02  0.00000000000E+00 0. -1.
         21    1    1    2  503  502 -0.15918954087E+02  0.18085283183E+02  0.68916479504E+03  0.68958582155E+03  0.00000000000E+00 0.  1.
</event>
<event>
 4    1  0.6109945E+002  0.6663793E+02  0.7546771E-02  0.1238807E+00
          2   -1    0    0  503    0  0.00000000000E+00  0.00000000000E+00  0.24991746121E+04  0.24991746121E+04  0.00000000000E+00 0.  1.
         -2   -1    0    0    0  501 -0.00000000000E+00 -0.00000000000E+00 -0.38645767835E+01  0.38645767835E+01  0.00000000000E+00 0. -1.
         21    1    1    2  502  501 -0.61578662375E+02 -0.25469248789E+02  0.32778735730E+03  0.33449240036E+03  0.00000000000E+00 0. -1.
         21    1    1    2  503  502  0.61578662375E+02  0.25469248789E+02  0.21675226780E+04  0.21685467885E+04  0.00000000000E+00 0.  1.
</event>
<event>
 4    1  0.6109945E+002  0.3485728E+02  0.7546771E-02  0.1381569E+00
          2   -1    0    0  503    0  0.00000000000E+00  0.00000000000E+00  0.65473127182E+03  0.65473127182E+03  0.00000000000E+00 0. -1.
         -2   -1    0    0    0  501 -0.00000000000E+00 -0.00000000000E+00 -0.46052260729E+01  0.46052260729E+01  0.00000000000E+00 0.  1.
         21    1    1    2  502  501 -0.17050752466E+02  0.30402327474E+02  0.70335920988E+02  0.78499499723E+02  0.00000000000E+00 0.  1.
         21    1    1    2  503  502  0.17050752466E+02 -0.30402327474E+02  0.57979012476E+03  0.58083699817E+03  0.00000000000E+00 0. -1.
</event>
<event>
 4    1  0.6109945E+002  0.4186720E+02  0.7546771E-02  0.1337878E+00
          2   -1    0    0  502    0  0.00000000000E+00  0.00000000000E+00  0.89658904048E+03  0.89658904048E+03  0.00000000000E+00 0.  1.
         -2   -1    0    0    0  501 -0.00000000000E+00 -0.00000000000E+00 -0.21070032990E+01  0.21070032990E+01  0.00000000000E+00 0. -1.
         21    1    1    2  502  503  0.26981513200E+02 -0.32013441586E+02  0.32656319823E+03  0.32923606263E+03  0.00000000000E+00 0. -1.
         21    1    1    2  503  501 -0.26981513200E+02  0.32013441586E+02  0.56791883895E+03  0.56945998115E+03  0.00000000000E+00 0.  1.
</event>
<event>
 4    1  0.6109945E+002  0.2322614E+02  0.7546771E-02  0.1489678E+00
          2   -1    0    0  503    0  0.00000000000E+00  0.00000000000E+00  0.12900944839E+04  0.12900944839E+04  0.00000000000E+00 0. -1.
         -2   -1    0    0    0  501 -0.00000000000E+00 -0.00000000000E+00 -0.72626731163E+00  0.72626731163E+00  0.00000000000E+00 0.  1.
         21    1    1    2  502  501  0.18643946187E+02  0.13851234940E+02  0.10650674605E+04  0.10653206789E+04  0.00000000000E+00 0. -1.
         21    1    1    2  503  502 -0.18643946187E+02 -0.13851234940E+02  0.22430075616E+03  0.22550007240E+03  0.00000000000E+00 0.  1.
</event>
<event>
 4    1  0.6109945E+002  0.2484266E+02  0.7546771E-02  0.1470571E+00
          2   -1    0    0  503    0  0.00000000000E+00  0.00000000000E+00  0.45315410344E+02  0.45315410344E+02  0.00000000000E+00 0. -1.
         -2   -1    0    0    0  501 -0.00000000000E+00 -0.00000000000E+00 -0.18423471048E+02  0.18423471048E+02  0.00000000000E+00 0.  1.
         21    1    1    2  502  501 -0.15690350052E+02 -0.19260596672E+02 -0.28284093987E+01  0.25003151174E+02  0.00000000000E+00 0.  1.
         21    1    1    2  503  502  0.15690350052E+02  0.19260596672E+02  0.29720348695E+02  0.38735730218E+02  0.00000000000E+00 0. -1.
</event>
<event>
 4    1  0.6109945E+002  0.2238008E+02  0.7546771E-02  0.1500433E+00
          2   -1    0    0  502    0  0.00000000000E+00  0.00000000000E+00  0.20531985998E+03  0.20531985998E+03  0.00000000000E+00 0.  1.
         -2   -1    0    0    0  501 -0.00000000000E+00 -0.00000000000E+00 -0.31928181673E+01  0.31928181673E+01  0.00000000000E+00 0. -1.
         21    1    1    2  502  503 -0.31736053555E+01  0.22153923169E+02  0.15170638255E+03  0.15334827873E+03  0.00000000000E+00 0.  1.
         21    1    1    2  503  501  0.31736053555E+01 -0.22153923169E+02  0.50420659267E+02  0.55164399422E+02  0.00000000000E+00 0. -1.
</event>
<event>
 4    1  0.6109945E+002  0.2605462E+02  0.7546771E-02  0.1457343E+00
          2   -1    0    0  503    0  0.00000000000E+00  0.00000000000E+00  0.16145731674E+03  0.16145731674E+03  0.00000000000E+00 0.  1.
         -2   -1    0    0    0  501 -0.00000000000E+00 -0.00000000000E+00 -0.76122837759E+01  0.76122837759E+01  0.00000000000E+00 0. -1.
         21    1    1    2  502  501 -0.14812198397E+02  0.21434599722E+02  0.20361703830E+02  0.33067238612E+02  0.00000000000E+00 0. -1.
         21    1    1    2  503  502  0.14812198397E+02 -0.21434599722E+02  0.13348332914E+03  0.13600236191E+03  0.00000000000E+00 0.  1.
</event>
<event>
 4    1  0.6109945E+002  0.2657857E+02  0.7546771E-02  0.1451888E+00
          2   -1    0    0  502    0  0.00000000000E+00  0.00000000000E+00  0.83396035651E+03  0.83396035651E+03  0.00000000000E+00 0.  1.
         -2   -1    0    0    0  501 -0.00000000000E+00 -0.00000000000E+00 -0.10304069255E+01  0.10304069255E+01  0.00000000000E+00 0. -1.
         21    1    1    2  502  503  0.13435890256E+01 -0.26544583032E+02  0.59257175165E+03  0.59316751511E+03  0.00000000000E+00 0.  1.
         21    1    1    2  503  501 -0.13435890256E+01  0.26544583032E+02  0.24035819793E+03  0.24182324833E+03  0.00000000000E+00 0. -1.
</event>
<event>
 4    1  0.6109945E+002  0.2260350E+02  0.7546771E-02  0.1497538E+00
          2   -1    0    0  503    0  0.00000000000E+00  0.00000000000E+00  0.12510658869E+03  0.12510658869E+03  0.00000000000E+00 0.  1.
         -2   -1    0    0    0  501 -0.00000000000E+00 -0.00000000000E+00 -0.46065923389E+01  0.46065923389E+01  0.00000000000E+00 0. -1.
         21    1    1    2  502  501  0.19315395862E+02  0.11740268079E+02  0.38402492838E+02  0.44560855783E+02  0.00000000000E+00 0. -1.
         21    1    1    2  503  502 -0.19315395862E+02 -0.11740268079E+02  0.82097503517E+02  0.85152325250E+02  0.00000000000E+00 0.  1.
</event>
<event>
 4    1  0.6109945E+002  0.2436508E+02  0.7546771E-02  0.1476033E+00
          2   -1    0    0  502    0  0.00000000000E+00  0.00000000000E+00  0.14288116129E+04  0.14288116129E+04  0.00000000000E+00 0.  1.
         -2   -1    0    0    0  501 -0.00000000000E+00 -0.00000000000E+00 -0.57757261078E+00  0.57757261078E+00  0.00000000000E+00 0. -1.
         21    1    1    2  502  503 -0.10299904731E+02  0.22080961123E+02  0.10927212529E+04  0.10929928606E+04  0.00000000000E+00 0. -1.
         21    1    1    2  503  501  0.10299904731E+02 -0.22080961123E+02  0.33551278743E+03  0.33639632491E+03  0.00000000000E+00 0.  1.
</event>
<event>
 4    1  0.6109945E+002  0.2410733E+02  0.7546771E-02  0.1479043E+00
          2   -1    0    0  503    0  0.00000000000E+00  0.00000000000E+00  0.81745914935E+03  0.81745914935E+03  0.00000000000E+00 0.  1.
         -2   -1    0    0    0  501 -0.00000000000E+00 -0.00000000000E+00 -0.71474248690E+00  0.71474248690E+00  0.00000000000E+00 0. -1.
         21    1    1    2  502  501 -0.19520691522E+02  0.14145878180E+02  0.43821601956E+03  0.43887861996E+03  0.00000000000E+00 0.  1.
         21    1    1    2  503  502  0.19520691522E+02 -0.14145878180E+02  0.37852838731E+03  0.37929527187E+03  0.00000000000E+00 0. -1.
</event>
<event>
 4    1  0.6109945E+002  0.4014109E+02  0.7546771E-02  0.1347661E+00
          2   -1    0    0  503    0  0.00000000000E+00  0.00000000000E+00  0.78043089268E+03  0.78043089268E+03  0.00000000000E+00 0. -1.
         -2   -1    0    0    0  501 -0.00000000000E+00 -0.00000000000E+00 -0.23211623245E+01  0.23211623245E+01  0.00000000000E+00 0.  1.
         21    1    1    2  502  501  0.84454452349E+01 -0.39242599803E+02  0.25894631381E+03  0.26203912040E+03  0.00000000000E+00 0.  1.
         21    1    1    2  503  502 -0.84454452349E+01  0.39242599803E+02  0.51916341655E+03  0.52071293461E+03  0.00000000000E+00 0. -1.
</event>
<event>
 4    1  0.6109945E+002  0.4357143E+02  0.7546771E-02  0.1328739E+00
          2   -1    0    0  503    0  0.00000000000E+00  0.00000000000E+00  0.30417753782E+03  0.30417753782E+03  0.00000000000E+00 0.  1.
         -2   -1    0    0    0  501 -0.00000000000E+00 -0.00000000000E+00 -0.14572563537E+02  0.14572563537E+02  0.00000000000E+00 0. -1.
         21    1    1    2  502  501  0.12711597718E+02 -0.41675949917E+02  0.24296879306E+02  0.49887953075E+02  0.00000000000E+00 0. -1.
         21    1    1    2  503  502 -0.12711597718E+02  0.41675949917E+02  0.26530809498E+03  0.26886214828E+03  0.00000000000E+00 0.  1.
</event>
<event>
 4    1  0.6109945E+002  0.2170108E+02  0.7546771E-02  0.1509486E+00
          2   -1    0    0  503    0  0.00000000000E+00  0.00000000000E+00  0.20666917880E+04  0.20666917880E+04  0.00000000000E+00 0. -1.
         -2   -1    0    0    0  501 -0.00000000000E+00 -0.00000000000E+00 -0.28047213726E+00  0.28047213726E+00  0.00000000000E+00 0.  1.
         21    1    1    2  502  501 -0.13418833499E+02  0.17054968585E+02  0.58563510075E+03  0.58603703661E+03  0.00000000000E+00 0.  1.
         21    1    1    2  503  502  0.13418833499E+02 -0.17054968585E+02  0.14807762151E+04  0.14809352235E+04  0.00000000000E+00 0. -1.
</event>
<event>
 4    1  0.6109945E+002  0.2648786E+02  0.7546771E-02  0.1452822E+00
          2   -1    0    0  502    0  0.00000000000E+00  0.00000000000E+00  0.40398066744E+03  0.40398066744E+03  0.00000000000E+00 0.  1.
         -2   -1    0    0    0  501 -0.00000000000E+00 -0.00000000000E+00 -0.11339432930E+02  0.11339432930E+02  0.00000000000E+00 0. -1.
         21    1    1    2  502  503 -0.15256747579E+02  0.21652674454E+02  0.38741765707E+03  0.38832209269E+03  0.00000000000E+00 0.  1.
         21    1    1    2  503  501  0.15256747579E+02 -0.21652674454E+02  0.52235774405E+01  0.26998007685E+02  0.00000000000E+00 0. -1.
</event>
<event>
 4    1  0.6109945E+002  0.4594714E+02  0.7546771E-02  0.1316770E+00
          2   -1    0    0  502    0  0.00000000000E+00  0.00000000000E+00  0.21724341928E+03  0.21724341928E+03  0.00000000000E+00 0.  1.
         -2   -1    0    0    0  501 -0.00000000000E+00 -0.00000000000E+00 -0.12404218704E+02  0.12404218704E+02  0.00000000000E+00 0. -1.
         21    1    1    2  502  503  0.32589160820E+02 -0.32389598253E+02  0.15585510275E+03  0.16248677648E+03  0.00000000000E+00 0.  1.
         21    1    1    2  503  501 -0.32589160820E+02  0.32389598253E+02  0.48984097823E+02  0.67160861500E+02  0.00000000000E+00 0. -1.
</event>
<event>
 4    1  0.6109945E+002  0.2050139E+02  0.7546771E-02  0.1526504E+00
          2   -1    0    0  502    0  0.00000000000E+00  0.00000000000E+00  0.23317694830E+02  0.23317694830E+02  0.00000000000E+00 0. -1.
         -2   -1    0    0    0  501 -0.00000000000E+00 -0.00000000000E+00 -0.30246846247E+02  0.30246846247E+02  0.00000000000E+00 0.  1.
         21    1    1    2  502  503  0.14795739156E+02 -0.14191303161E+02  0.13559813331E+02  0.24579982102E+02  0.00000000000E+00 0. -1.
         21    1    1    2  503  501 -0.14795739156E+02  0.14191303161E+02 -0.20488964748E+02  0.28984558976E+02  0.00000000000E+00 0.  1.
</event>
<event>
 4    1  0.6109945E+002  0.3651805E+02  0.7546771E-02  0.1370194E+00
          2   -1    0    0  502    0  0.00000000000E+00  0.00000000000E+00  0.49231430358E+03  0.49231430358E+03  0.00000000000E+00 0.  1.
         -2   -1    0    0    0  501 -0.00000000000E+00 -0.00000000000E+00 -0.29224743974E+01  0.29224743974E+01  0.00000000000E+00 0. -1.
         21    1    1    2  502  503 -0.13145701564E+02 -0.34069909001E+02  0.31165511130E+03  0.31378731104E+03  0.00000000000E+00 0.  1.
         21    1    1    2  503  501  0.13145701564E+02  0.34069909001E+02  0.17773671788E+03  0.18144946694E+03  0.00000000000E+00 0. -1.
</event>
<event>
 4    1  0.6109945E+002  0.2193570E+02  0.7546771E-02  0.1506313E+00
          2   -1    0    0  502    0  0.00000000000E+00  0.00000000000E+00  0.35060127260E+03  0.35060127260E+03  0.00000000000E+00 0. -1.
         -2   -1    0    0    0  501 -0.00000000000E+00 -0.00000000000E+00 -0.63296786742E+02  0.63296786742E+02  0.00000000000E+00 0.  1.
         21    1    1    2  502  503 -0.17990489319E+02 -0.12550590642E+02  0.34834539857E+03  0.34903537318E+03  0.00000000000E+00 0. -1.
         21    1    1    2  503  501  0.17990489319E+02  0.12550590642E+02 -0.61040912708E+02  0.64862686158E+02  0.00000000000E+00 0.  1.
</event>
<event>
 4    1  0.6109945E+002  0.2017629E+02  0.7546771E-02  0.1531358E+00
          2   -1    0    0  502    0  0.00000000000E+00  0.00000000000E+00  0.18517183114E+01  0.18517183114E+01  0.00000000000E+00 0. -1.
         -2   -1    0    0    0  501 -0.00000000000E+00 -0.00000000000E+00 -0.30668693607E+03  0.30668693607E+03  0.00000000000E+00 0.  1.
         21    1    1    2  502  503 -0.18910527988E+02 -0.70338189538E+01 -0.23451095346E+03  0.23537729281E+03  0.00000000000E+00 0.  1.
         21    1    1    2  503  501  0.18910527988E+02  0.70338189538E+01 -0.70324264299E+02  0.73161361572E+02  0.00000000000E+00 0. -1.
</event>
<event>
 4    1  0.6109945E+002  0.2025637E+02  0.7546771E-02  0.1530152E+00
          2   -1    0    0  502    0  0.00000000000E+00  0.00000000000E+00  0.47318293892E+01  0.47318293892E+01  0.00000000000E+00 0.  1.
         -2   -1    0    0    0  501 -0.00000000000E+00 -0.00000000000E+00 -0.21728152485E+03  0.21728152485E+03  0.00000000000E+00 0. -1.
         21    1    1    2  502  503 -0.17176230549E+02  0.10737680009E+02 -0.20224308519E+02  0.28624173751E+02  0.00000000000E+00 0.  1.
         21    1    1    2  503  501  0.17176230549E+02 -0.10737680009E+02 -0.19232538694E+03  0.19338918049E+03  0.00000000000E+00 0. -1.
</event>
<event>
 4    1  0.6109945E+002  0.2142980E+02  0.7546771E-02  0.1513216E+00
          2   -1    0    0  503    0  0.00000000000E+00  0.00000000000E+00  0.61621590607E+03  0.61621590607E+03  0.00000000000E+00 0. -1.
         -2   -1    0    0    0  501 -0.00000000000E+00 -0.00000000000E+00 -0.10748504160E+01  0.10748504160E+01  0.00000000000E+00 0.  1.
         21    1    1    2  502  501  0.21373931408E+02  0.15463728195E+01  0.13665629105E+03  0.13832634635E+03  0.00000000000E+00 0.  1.
         21    1    1    2  503  502 -0.21373931408E+02 -0.15463728195E+01  0.47848476460E+03  0.47896441013E+03  0.00000000000E+00 0. -1.
</event>
<event>
 4    1  0.6109945E+002  0.2672844E+02  0.7546771E-02  0.1450355E+00
          2   -1    0    0  502    0  0.00000000000E+00  0.00000000000E+00  0.51262588115E+02  0.51262588115E+02  0.00000000000E+00 0. -1.
         -2   -1    0    0    0  501 -0.00000000000E+00 -0.00000000000E+00 -0.21843303750E+02  0.21843303750E+02  0.00000000000E+00 0.  1.
         21    1    1    2  502  503  0.23391090700E+02  0.12933151225E+02  0.36701903168E+02  0.45403075016E+02  0.00000000000E+00 0.  1.
         21    1    1    2  503  501 -0.23391090700E+02 -0.12933151225E+02 -0.72826188033E+01  0.27702816849E+02  0.00000000000E+00 0. -1.
</event>
<event>
 4    1  0.6109945E+002  0.2039157E+02  0.7546771E-02  0.1528132E+00
          2   -1    0    0  502    0  0.00000000000E+00  0.00000000000E+00  0.13034275716E+02  0.13034275716E+02  0.00000000000E+00 0.  1.
         -2   -1    0    0    0  501 -0.00000000000E+00 -0.00000000000E+00 -0.37984667317E+02  0.37984667317E+02  0.00000000000E+00 0. -1.
         21    1    1    2  502  503 -0.16127970155E+02 -0.12478169134E+02 -0.22668947058E+01  0.20517186402E+02  0.00000000000E+00 0.  1.
         21    1    1    2  503  501  0.16127970155E+02  0.12478169134E+02 -0.22683496894E+02  0.30501756631E+02  0.00000000000E+00 0. -1.
</event>
<event>
 4    1  0.6109945E+002  0.2223028E+02  0.7546771E-02  0.1502397E+00
          2   -1    0    0  503    0  0.00000000000E+00  0.00000000000E+00  0.31639650964E+03  0.31639650964E+03  0.00000000000E+00 0. -1.
         -2   -1    0    0    0  501 -0.00000000000E+00 -0.00000000000E+00 -0.15312923754E+02  0.15312923754E+02  0.00000000000E+00 0.  1.
         21    1    1    2  502  501 -0.70595246186E+01 -0.21079572347E+02 -0.66268871340E+01  0.23197001773E+02  0.00000000000E+00 0.  1.
         21    1    1    2  503  502  0.70595246186E+01  0.21079572347E+02  0.30771047302E+03  0.30851243163E+03  0.00000000000E+00 0. -1.
</event>
<event>
 4    1  0.6109945E+002  0.4359293E+02  0.7546771E-02  0.1328627E+00
          2   -1    0    0  502    0  0.00000000000E+00  0.00000000000E+00  0.54224905827E+03  0.54224905827E+03  0.00000000000E+00 0. -1.
         -2   -1    0    0    0  501 -0.00000000000E+00 -0.00000000000E+00 -0.70850220379E+01  0.70850220379E+01  0.00000000000E+00 0.  1.
         21    1    1    2  502  503 -0.11564500080E+02  0.42031007369E+02  0.46283856587E+03  0.46488695539E+03  0.00000000000E+00 0. -1.
         21    1    1    2  503  501  0.11564500080E+02 -0.42031007369E+02  0.72325470364E+02  0.84447124912E+02  0.00000000000E+00 0.  1.
</event>
<event>
 4    1  0.6109945E+002  0.2713666E+02  0.7546771E-02  0.1446240E+00
          2   -1    0    0  503    0  0.00000000000E+00  0.00000000000E+00  0.13510541566E+04  0.13510541566E+04  0.00000000000E+00 0. -1.
         -2   -1    0    0    0  501 -0.00000000000E+00 -0.00000000000E+00 -0.66096573653E+00  0.66096573653E+00  0.00000000000E+00 0.  1.
         21    1    1    2  502  501  0.20939408139E+02  0.17260928674E+02  0.39216949413E+03  0.39310725076E+03  0.00000000000E+00 0. -1.
         21    1    1    2  503  502 -0.20939408139E+02 -0.17260928674E+02  0.95822369673E+03  0.95860787158E+03  0.00000000000E+00 0.  1.
</event>
<event>
 4    1  0.6109945E+002  0.2298542E+02  0.7546771E-02  0.1492681E+00
          2   -1    0    0  503    0  0.00000000000E+00  0.00000000000E+00  0.73385517608E+03  0.73385517608E+03  0.00000000000E+00 0.  1.
         -2   -1    0    0    0  501 -0.00000000000E+00 -0.00000000000E+00 -0.86298429787E+00  0.86298429787E+00  0.00000000000E+00 0. -1.
         21    1    1    2  502  501  0.12348016605E+02 -0.19387001996E+02  0.21693128117E+03  0.21814561676E+03  0.00000000000E+00 0. -1.
         21    1    1    2  503  502 -0.12348016605E+02  0.19387001996E+02  0.51606091061E+03  0.51657254362E+03  0.00000000000E+00 0.  1.
</event>
<event>
 4    1  0.6109945E+002  0.2351883E+02  0.7546771E-02  0.1486084E+00
          2   -1    0    0  503    0  0.00000000000E+00  0.00000000000E+00  0.29271938040E+01  0.29271938040E+01  0.00000000000E+00 0.  1.
         -2   -1    0    0    0  501 -0.00000000000E+00 -0.00000000000E+00 -0.30417937652E+03  0.30417937652E+03  0.00000000000E+00 0. -1.
         21    1    1    2  502  501 -0.62555398447E+01 -0.22671650533E+02 -0.24512975294E+03  0.24625541881E+03  0.00000000000E+00 0. -1.
         21    1    1    2  503  502  0.62555398447E+01  0.22671650533E+02 -0.56122429770E+02  0.60851151509E+02  0.00000000000E+00 0.  1.
</event>
<event>
 4    1  0.6109945E+002  0.2659213E+02  0.7546771E-02  0.1451749E+00
          2   -1    0    0  502    0  0.00000000000E+00  0.00000000000E+00  0.46137730345E+02  0.46137730345E+02  0.00000000000E+00 0.  1.
         -2   -1    0    0    0  501 -0.00000000000E+00 -0.00000000000E+00 -0.34168936370E+02  0.34168936370E+02  0.00000000000E+00 0. -1.
         21    1    1    2  502  503 -0.24093665212E+02  0.11253291595E+02  0.35801920319E+02  0.44597295586E+02  0.00000000000E+00 0.  1.
         21    1    1    2  503  501  0.24093665212E+02 -0.11253291595E+02 -0.23833126344E+02  0.35709371129E+02  0.00000000000E+00 0. -1.
</event>
<event>
 4    1  0.6109945E+002  0.2167480E+02  0.7546771E-02  0.1509845E+00
          2   -1    0    0  502    0  0.00000000000E+00  0.00000000000E+00  0.50942133218E+02  0.50942133218E+02  0.00000000000E+00 0.  1.
         -2   -1    0    0    0  501 -0.00000000000E+00 -0.00000000000E+00 -0.12782002746E+02  0.12782002746E+02  0.00000000000E+00 0. -1.
         21    1    1    2  502  503  0.15115492226E+02  0.15534447628E+02  0.35894765000E+02  0.41931269033E+02  0.00000000000E+00 0.  1.
         21    1    1    2  503  501 -0.15115492226E+02 -0.15534447628E+02  0.22653654717E+01  0.21792866931E+02  0.00000000000E+00 0. -1.
</event>
<event>
 4    1  0.6109945E+002  0.3230440E+02  0.7546771E-02  0.1400574E+00
          2   -1    0    0  503    0  0.00000000000E+00  0.00000000000E+00  0.83478699647E+01  0.83478699647E+01  0.00000000000E+00 0. -1.
         -2   -1    0    0    0  501 -0.00000000000E+00 -0.00000000000E+00 -0.31261955943E+03  0.31261955943E+03  0.00000000000E+00 0.  1.
         21    1    1    2  502  501  0.32063326700E+02  0.39392329372E+01 -0.27645824073E+03  0.27833924147E+03  0.00000000000E+00 0.  1.
         21    1    1    2  503  502 -0.32063326700E+02 -0.39392329372E+01 -0.27813448738E+02  0.42628187926E+02  0.00000000000E+00 0. -1.
</event>
<event>
 4    1  0.6109945E+002  0.2413810E+02  0.7546771E-02  0.1478681E+00
          2   -1    0    0  502    0  0.00000000000E+00  0.00000000000E+00  0.19938510769E+03  0.19938510769E+03  0.00000000000E+00 0.  1.
         -2   -1    0    0    0  501 -0.00000000000E+00 -0.00000000000E+00 -0.47413475641E+01  0.47413475641E+01  0.00000000000E+00 0. -1.
         21    1    1    2  502  503 -0.22772098935E+02 -0.80049627283E+01  0.16054115623E+03  0.16234565211E+03  0.00000000000E+00 0.  1.
         21    1    1    2  503  501  0.22772098935E+02  0.80049627283E+01  0.34102603898E+02  0.41780803138E+02  0.00000000000E+00 0. -1.
</event>
<event>
 4    1  0.6109945E+002  0.5418012E+02  0.7546771E-02  0.1281000E+00
          2   -1    0    0  503    0  0.00000000000E+00  0.00000000000E+00  0.24617972064E+03  0.24617972064E+03  0.00000000000E+00 0.  1.
         -2   -1    0    0    0  501 -0.00000000000E+00 -0.00000000000E+00 -0.33152725160E+02  0.33152725160E+02  0.00000000000E+00 0. -1.
         21    1    1    2  502  501  0.48246122110E+02  0.24653551575E+02 -0.52479739446E+01  0.54433694845E+02  0.00000000000E+00 0. -1.
         21    1    1    2  503  502 -0.48246122110E+02 -0.24653551575E+02  0.21827496942E+03  0.22489875095E+03  0.00000000000E+00 0.  1.
</event>
<event>
 4    1  0.6109945E+002  0.3660930E+02  0.7546771E-02  0.1369589E+00
          2   -1    0    0  502    0  0.00000000000E+00  0.00000000000E+00  0.54369809663E+03  0.54369809663E+03  0.00000000000E+00 0. -1.
         -2   -1    0    0    0  501 -0.00000000000E+00 -0.00000000000E+00 -0.30271308171E+01  0.30271308171E+01  0.00000000000E+00 0.  1.
         21    1    1    2  502  503 -0.15082226562E+02  0.33358169158E+02  0.38812979390E+03  0.38985250791E+03  0.00000000000E+00 0. -1.
         21    1    1    2  503  501  0.15082226562E+02 -0.33358169158E+02  0.15254117191E+03  0.15687271954E+03  0.00000000000E+00 0.  1.
</event>
<event>
 4    1  0.6109945E+002  0.2477139E+02  0.7546771E-02  0.1471377E+00
          2   -1    0    0  503    0  0.00000000000E+00  0.00000000000E+00  0.24065894555E+01  0.24065894555E+01  0.00000000000E+00 0. -1.
         -2   -1    0    0    0  501 -0.00000000000E+00 -0.00000000000E+00 -0.31835297420E+03  0.31835297420E+03  0.00000000000E+00 0.  1.
         21    1    1    2  502  501 -0.24771099467E+02 -0.11947738312E+00 -0.22953185373E+03  0.23086466495E+03  0.00000000000E+00 0.  1.
         21    1    1    2  503  502  0.24771099467E+02  0.11947738312E+00 -0.86414531011E+02  0.89894898706E+02  0.00000000000E+00 0. -1.
</event>
<event>
 4    1  0.6109945E+002  0.4806859E+02  0.7546771E-02  0.1306771E+00
          2   -1    0    0  503    0  0.00000000000E+00  0.00000000000E+00  0.19602857162E+02  0.19602857162E+02  0.00000000000E+00 0.  1.
         -2   -1    0    0    0  501 -0.00000000000E+00 -0.00000000000E+00 -0.19205154379E+03  0.19205154379E+03  0.00000000000E+00 0. -1.
         21    1    1    2  502  501 -0.43098495018E+02 -0.21286366250E+02 -0.15199561022E+03  0.15941535430E+03  0.00000000000E+00 0.  1.
         21    1    1    2  503  502  0.43098495018E+02  0.21286366250E+02 -0.20453076416E+02  0.52239046659E+02  0.00000000000E+00 0. -1.
</event>
<event>
 4    1  0.6109945E+002  0.3580979E+02  0.7546771E-02  0.1374958E+00
          2   -1    0    0  502    0  0.00000000000E+00  0.00000000000E+00  0.10607976516E+02  0.10607976516E+02  0.00000000000E+00 0.  1.
         -2   -1    0    0    0  501 -0.00000000000E+00 -0.00000000000E+00 -0.15965097326E+03  0.15965097326E+03  0.00000000000E+00 0. -1.
         21    1    1    2  502  503  0.18612645762E+02 -0.30592656113E+02 -0.32572494333E+02  0.48407732620E+02  0.00000000000E+00 0.  1.
         21    1    1    2  503  501 -0.18612645762E+02  0.30592656113E+02 -0.11647050241E+03  0.12185121715E+03  0.00000000000E+00 0. -1.
</event>
<event>
 4    1  0.6109945E+002  0.2301707E+02  0.7546771E-02  0.1492284E+00
          2   -1    0    0  502    0  0.00000000000E+00  0.00000000000E+00  0.30957694040E+03  0.30957694040E+03  0.00000000000E+00 0.  1.
         -2   -1    0    0    0  501 -0.00000000000E+00 -0.00000000000E+00 -0.24650924153E+01  0.24650924153E+01  0.00000000000E+00 0. -1.
         21    1    1    2  502  503  0.58367260601E+01  0.22264727798E+02  0.23983120316E+03  0.24093316809E+03  0.00000000000E+00 0.  1.
         21    1    1    2  503  501 -0.58367260601E+01 -0.22264727798E+02  0.67280644826E+02  0.71108864730E+02  0.00000000000E+00 0. -1.
</event>
<event>
 4    1  0.6109945E+002  0.2362902E+02  0.7546771E-02  0.1484747E+00
          2   -1    0    0  503    0  0.00000000000E+00  0.00000000000E+00  0.35789615276E+02  0.35789615276E+02  0.00000000000E+00 0. -1.
         -2   -1    0    0    0  501 -0.00000000000E+00 -0.00000000000E+00 -0.55381848913E+02  0.55381848913E+02  0.00000000000E+00 0.  1.
         21    1    1    2  502  501 -0.13930904872E+02  0.19085607804E+02 -0.48431549318E+02  0.53888268715E+02  0.00000000000E+00 0.  1.
         21    1    1    2  503  502  0.13930904872E+02 -0.19085607804E+02  0.28839315681E+02  0.37283195474E+02  0.00000000000E+00 0. -1.
</event>
<event>
 4    1  0.6109945E+002  0.2338447E+02  0.7546771E-02  0.1487726E+00
          2   -1    0    0  503    0  0.00000000000E+00  0.00000000000E+00  0.53624114920E+01  0.53624114920E+01  0.00000000000E+00 0.  1.
         -2   -1    0    0    0  501 -0.00000000000E+00 -0.00000000000E+00 -0.10953043845E+03  0.10953043845E+03  0.00000000000E+00 0. -1.
         21    1    1    2  502  501  0.22646267250E+02 -0.58292217109E+01 -0.67171548071E+02  0.71125593961E+02  0.00000000000E+00 0. -1.
         21    1    1    2  503  502 -0.22646267250E+02  0.58292217109E+01 -0.36996478891E+02  0.43767255985E+02  0.00000000000E+00 0.  1.
</event>
<event>
 4    1  0.6109945E+002  0.3763215E+02  0.7546771E-02  0.1362949E+00
          2   -1    0    0  503    0  0.00000000000E+00  0.00000000000E+00  0.18450046548E+04  0.18450046548E+04  0.00000000000E+00 0.  1.
         -2   -1    0    0    0  501 -0.00000000000E+00 -0.00000000000E+00 -0.13356212592E+01  0.13356212592E+01  0.00000000000E+00 0. -1.
         21    1    1    2  502  501 -0.33611961671E+02 -0.16923782777E+02  0.31978507594E+03  0.32199172844E+03  0.00000000000E+00 0. -1.
         21    1    1    2  503  502  0.33611961671E+02  0.16923782777E+02  0.15238839576E+04  0.15243485476E+04  0.00000000000E+00 0.  1.
</event>
<event>
 4    1  0.6109945E+002  0.2788697E+02  0.7546771E-02  0.1438896E+00
          2   -1    0    0  503    0  0.00000000000E+00  0.00000000000E+00  0.95702409492E+01  0.95702409492E+01  0.00000000000E+00 0.  1.
         -2   -1    0    0    0  501 -0.00000000000E+00 -0.00000000000E+00 -0.98148788303E+02  0.98148788303E+02  0.00000000000E+00 0. -1.
         21    1    1    2  502  501  0.54708751903E+01  0.27345061971E+02 -0.66630774533E+02  0.72231177509E+02  0.00000000000E+00 0. -1.
         21    1    1    2  503  502 -0.54708751903E+01 -0.27345061971E+02 -0.21947772821E+02  0.35487851743E+02  0.00000000000E+00 0.  1.
</event>
<event>
 4    1  0.6109945E+002  0.2105938E+02  0.7546771E-02  0.1518419E+00
          2   -1    0    0  502    0  0.00000000000E+00  0.00000000000E+00  0.10598387961E+04  0.10598387961E+04  0.00000000000E+00 0. -1.
         -2   -1    0    0    0  501 -0.00000000000E+00 -0.00000000000E+00 -0.45327829651E+00  0.45327829651E+00  0.00000000000E+00 0.  1.
         21    1    1    2  502  503  0.88375681699E+01  0.19115301252E+02  0.67663045658E+03  0.67695810219E+03  0.00000000000E+00 0. -1.
         21    1    1    2  503  501 -0.88375681699E+01 -0.19115301252E+02  0.38275506121E+03  0.38333397219E+03  0.00000000000E+00 0.  1.
</event>
<event>
 4    1  0.6109945E+002  0.2101974E+02  0.7546771E-02  0.1518983E+00
          2   -1    0    0  502    0  0.00000000000E+00  0.00000000000E+00  0.85596670696E+01  0.85596670696E+01  0.00000000000E+00 0.  1.
         -2   -1    0    0    0  501 -0.00000000000E+00 -0.00000000000E+00 -0.80902670102E+02  0.80902670102E+02  0.00000000000E+00 0. -1.
         21    1    1    2  502  503  0.47454934233E+01  0.20477055866E+02 -0.92591340665E+01  0.22968698014E+02  0.00000000000E+00 0.  1.
         21    1    1    2  503  501 -0.47454934233E+01 -0.20477055866E+02 -0.63083868966E+02  0.66493639158E+02  0.00000000000E+00 0. -1.
</event>
<event>
 4    1  0.6109945E+002  0.2203808E+02  0.7546771E-02  0.1504944E+00
          2   -1    0    0  503    0  0.00000000000E+00  0.00000000000E+00  0.19335009698E+03  0.19335009698E+03  0.00000000000E+00 0. -1.
         -2   -1    0    0    0  501 -0.00000000000E+00 -0.00000000000E+00 -0.54082945509E+01  0.54082945509E+01  0.00000000000E+00 0.  1.
         21    1    1    2  502  501  0.78271854322E+01  0.20601270122E+02  0.21244221290E+02  0.30610359368E+02  0.00000000000E+00 0.  1.
         21    1    1    2  503  502 -0.78271854322E+01 -0.20601270122E+02  0.16669758114E+03  0.16814803216E+03  0.00000000000E+00 0. -1.
</event>
<event>
 4    1  0.6109945E+002  0.2004880E+02  0.7546771E-02  0.1533291E+00
          2   -1    0    0  502    0  0.00000000000E+00  0.00000000000E+00  0.89383198806E+03  0.89383198806E+03  0.00000000000E+00 0.  1.
         -2   -1    0    0    0  501 -0.00000000000E+00 -0.00000000000E+00 -0.12587359748E+01  0.12587359748E+01  0.00000000000E+00 0. -1.
         21    1    1    2  502  503 -0.10549899560E+02 -0.17048578805E+02  0.80508808749E+03  0.80533768261E+03  0.00000000000E+00 0.  1.
         21    1    1    2  503  501  0.10549899560E+02  0.17048578805E+02  0.87485164594E+02  0.89753041420E+02  0.00000000000E+00 0. -1.
</event>
<event>
 4    1  0.6109945E+002  0.2452892E+02  0.7546771E-02  0.1474143E+00
          2   -1    0    0  503    0  0.00000000000E+00  0.00000000000E+00  0.50439839815E+03  0.50439839815E+03  0.00000000000E+00 0.  1.
         -2   -1    0    0    0  501 -0.00000000000E+00 -0.00000000000E+00 -0.75364517132E+02  0.75364517132E+02  0.00000000000E+00 0. -1.
         21    1    1    2  502  501  0.12910757664E+02  0.20856181852E+02 -0.73061296834E+02  0.77068937193E+02  0.00000000000E+00 0. -1.
         21    1    1    2  503  502 -0.12910757664E+02 -0.20856181852E+02  0.50209517785E+03  0.50269397809E+03  0.00000000000E+00 0.  1.
</event>
<event>
 4    1  0.6109945E+002  0.2897830E+02  0.7546771E-02  0.1428688E+00
          2   -1    0    0  503    0  0.00000000000E+00  0.00000000000E+00  0.18789082888E+04  0.18789082888E+04  0.00000000000E+00 0. -1.
         -2   -1    0    0    0  501 -0.00000000000E+00 -0.00000000000E+00 -0.71625022929E+00  0.71625022929E+00  0.00000000000E+00 0.  1.
         21    1    1    2  502  501 -0.26098967348E+02  0.12593079663E+02  0.36280391936E+03  0.36395937363E+03  0.00000000000E+00 0.  1.
         21    1    1    2  503  502  0.26098967348E+02 -0.12593079663E+02  0.15153881192E+04  0.15156651653E+04  0.00000000000E+00 0. -1.
</event>
<event>
 4    1  0.6109945E+002  0.6315283E+02  0.7546771E-02  0.1249481E+00
          2   -1    0    0  503    0  0.00000000000E+00  0.00000000000E+00  0.12063319564E+04  0.12063319564E+04  0.00000000000E+00 0. -1.
         -2   -1    0    0    0  501 -0.00000000000E+00 -0.00000000000E+00 -0.35927850478E+01  0.35927850478E+01  0.00000000000E+00 0.  1.
         21    1    1    2  502  501  0.58867437865E+02 -0.22867101190E+02  0.43048642471E+03  0.43509406043E+03  0.00000000000E+00 0. -1.
         21    1    1    2  503  502 -0.58867437865E+02  0.22867101190E+02  0.77225274668E+03  0.77483068106E+03  0.00000000000E+00 0.  1.
</event>
<event>
 4    1  0.6109945E+002  0.2657737E+02  0.7546771E-02  0.1451900E+00
          2   -1    0    0  502    0  0.00000000000E+00  0.00000000000E+00  0.41168595346E+01  0.41168595346E+01  0.00000000000E+00 0. -1.
         -2   -1    0    0    0  501 -0.00000000000E+00 -0.00000000000E+00 -0.37647153692E+03  0.37647153692E+03  0.00000000000E+00 0.  1.
         21    1    1    2  502  503 -0.13719026157E+02 -0.22762793992E+02 -0.45790898146E+02  0.52944903645E+02  0.00000000000E+00 0. -1.
         21    1    1    2  503  501  0.13719026157E+02  0.22762793992E+02 -0.32656377924E+03  0.32764349281E+03  0.00000000000E+00 0.  1.
</event>
<event>
 4    1  0.6109945E+002  0.3454753E+02  0.7546771E-02  0.1383772E+00
          2   -1    0    0  503    0  0.00000000000E+00  0.00000000000E+00  0.58197484191E+02  0.58197484191E+02  0.00000000000E+00 0.  1.
         -2   -1    0    0    0  501 -0.00000000000E+00 -0.00000000000E+00 -0.42378728725E+02  0.42378728725E+02  0.00000000000E+00 0. -1.
         21    1    1    2  502  501  0.21539849907E+02  0.27010488861E+02 -0.28216627355E+02  0.44606162151E+02  0.00000000000E+00 0. -1.
         21    1    1    2  503  502 -0.21539849907E+02 -0.27010488861E+02  0.44035382820E+02  0.55970050765E+02  0.00000000000E+00 0.  1.
</event>
<event>
 4    1  0.6109945E+002  0.2742073E+02  0.7546771E-02  0.1443427E+00
          2   -1    0    0  503    0  0.00000000000E+00  0.00000000000E+00  0.44829325968E+03  0.44829325968E+03  0.00000000000E+00 0. -1.
         -2   -1    0    0    0  501 -0.00000000000E+00 -0.00000000000E+00 -0.59220783071E+01  0.59220783071E+01  0.00000000000E+00 0.  1.
         21    1    1    2  502  501  0.17969450654E+01  0.27361787221E+02  0.28909543228E+02  0.39845427606E+02  0.00000000000E+00 0.  1.
         21    1    1    2  503  502 -0.17969450654E+01 -0.27361787221E+02  0.41346163814E+03  0.41436991038E+03  0.00000000000E+00 0. -1.
</event>
<event>
 4    1  0.6109945E+002  0.2838666E+02  0.7546771E-02  0.1434155E+00
          2   -1    0    0  503    0  0.00000000000E+00  0.00000000000E+00  0.19114652035E+04  0.19114652035E+04  0.00000000000E+00 0. -1.
         -2   -1    0    0    0  501 -0.00000000000E+00 -0.00000000000E+00 -0.11193941675E+01  0.11193941675E+01  0.00000000000E+00 0.  1.
         21    1    1    2  502  501  0.18504647386E+02  0.21526280328E+02  0.20012524401E+03  0.20212846412E+03  0.00000000000E+00 0.  1.
         21    1    1    2  503  502 -0.18504647386E+02 -0.21526280328E+02  0.17102205653E+04  0.17104561336E+04  0.00000000000E+00 0. -1.
</event>
<event>
 4    1  0.6109945E+002  0.2409018E+02  0.7546771E-02  0.1479244E+00
          2   -1    0    0  503    0  0.00000000000E+00  0.00000000000E+00  0.61192221560E+03  0.61192221560E+03  0.00000000000E+00 0. -1.
         -2   -1    0    0    0  501 -0.00000000000E+00 -0.00000000000E+00 -0.22637725600E+01  0.22637725600E+01  0.00000000000E+00 0.  1.
         21    1    1    2  502  501  0.64221202321E+01  0.23218377680E+02  0.70740391446E+02  0.74729777681E+02  0.00000000000E+00 0.  1.
         21    1    1    2  503  502 -0.64221202321E+01 -0.23218377680E+02  0.53891805159E+03  0.53945621048E+03  0.00000000000E+00 0. -1.
</event>
<event>
 4    1  0.6109945E+002  0.2449143E+02  0.7546771E-02  0.1474574E+00
          2   -1    0    0  502    0  0.00000000000E+00  0.00000000000E+00  0.21425565395E+02  0.21425565395E+02  0.00000000000E+00 0. -1.
         -2   -1    0    0    0  501 -0.00000000000E+00 -0.00000000000E+00 -0.19516473099E+03  0.19516473099E+03  0.00000000000E+00 0.  1.
         21    1    1    2  502  503  0.42401821748E+01 -0.24121589085E+02  0.13357675278E+02  0.27897270363E+02  0.00000000000E+00 0. -1.
         21    1    1    2  503  501 -0.42401821748E+01  0.24121589085E+02 -0.18709684088E+03  0.18869302603E+03  0.00000000000E+00 0.  1.
</event>
<event>
 4    1  0.6109945E+002  0.2287417E+02  0.7546771E-02  0.1494084E+00
          2   -1    0    0  503    0  0.00000000000E+00  0.00000000000E+00  0.38109638436E+02  0.38109638436E+02  0.00000000000E+00 0. -1.
         -2   -1    0    0    0  501 -0.00000000000E+00 -0.00000000000E+00 -0.14629682826E+02  0.14629682826E+02  0.00000000000E+00 0.  1.
         21    1    1    2  502  501 -0.22112618497E+02  0.58532003270E+01  0.18280953102E+02  0.29281753657E+02  0.00000000000E+00 0. -1.
         21    1    1    2  503  502  0.22112618497E+02 -0.58532003270E+01  0.51990025083E+01  0.23457567605E+02  0.00000000000E+00 0.  1.
</event>
<event>
 4    1  0.6109945E+002  0.2608979E+02  0.7546771E-02  0.1456972E+00
          2   -1    0    0  502    0  0.00000000000E+00  0.00000000000E+00  0.98136376566E+01  0.98136376566E+01  0.00000000000E+00 0.  1.
         -2   -1    0    0    0  501 -0.00000000000E+00 -0.00000000000E+00 -0.66188076923E+03  0.66188076923E+03  0.00000000000E+00 0. -1.
         21    1    1    2  502  503  0.22050235957E+02 -0.13945046789E+02 -0.82704248932E+01  0.27369274079E+02  0.00000000000E+00 0.  1.
         21    1    1    2  503  501 -0.22050235957E+02  0.13945046789E+02 -0.64379670668E+03  0.64432513281E+03  0.00000000000E+00 0. -1.
</event>
<event>
 4    1  0.6109945E+002  0.2476648E+02  0.7546771E-02  0.1471433E+00
          2   -1    0    0  502    0  0.00000000000E+00  0.00000000000E+00  0.17064301027E+04  0.17064301027E+04  0.00000000000E+00 0.  1.
         -2   -1    0    0    0  501 -0.00000000000E+00 -0.00000000000E+00 -0.79160587467E+01  0.79160587467E+01  0.00000000000E+00 0. -1.
         21    1    1    2  502  503  0.23769053561E+02  0.69577768205E+01  0.16867428171E+04  0.16869246307E+04  0.00000000000E+00 0.  1.
         21    1    1    2  503  501 -0.23769053561E+02 -0.69577768205E+01  0.11771226779E+02  0.27421530690E+02  0.00000000000E+00 0. -1.
</event>
<event>
 4    1  0.6109945E+002  0.2924912E+02  0.7546771E-02  0.1426236E+00
          2   -1    0    0  503    0  0.00000000000E+00  0.00000000000E+00  0.34851390026E+03  0.34851390026E+03  0.00000000000E+00 0. -1.
         -2   -1    0    0    0  501 -0.00000000000E+00 -0.00000000000E+00 -0.52758277477E+01  0.52758277477E+01  0.00000000000E+00 0.  1.
         21    1    1    2  502  501  0.26739512866E+02  0.11853677818E+02  0.42265540528E+02  0.51399291263E+02  0.00000000000E+00 0.  1.
         21    1    1    2  503  502 -0.26739512866E+02 -0.11853677818E+02  0.30097253198E+03  0.30239043674E+03  0.00000000000E+00 0. -1.
</event>
<event>
 4    1  0.6109945E+002  0.2083298E+02  0.7546771E-02  0.1521663E+00
          2   -1    0    0  502    0  0.00000000000E+00  0.00000000000E+00  0.27272123362E+01  0.27272123362E+01  0.00000000000E+00 0. -1.
         -2   -1    0    0    0  501 -0.00000000000E+00 -0.00000000000E+00 -0.34207624976E+03  0.34207624976E+03  0.00000000000E+00 0.  1.
         21    1    1    2  502  503 -0.31510362422E+01  0.20593304074E+02 -0.43599793209E+02  0.48321373842E+02  0.00000000000E+00 0. -1.
         21    1    1    2  503  501  0.31510362422E+01 -0.20593304074E+02 -0.29574924422E+03  0.29648208826E+03  0.00000000000E+00 0.  1.
</event>
<event>
 4    1  0.6109945E+002  0.7848028E+02  0.7546771E-02  0.1207420E+00
          2   -1    0    0  503    0  0.00000000000E+00  0.00000000000E+00  0.17571736566E+04  0.17571736566E+04  0.00000000000E+00 0.  1.
         -2   -1    0    0    0  501 -0.00000000000E+00 -0.00000000000E+00 -0.10289855037E+02  0.10289855037E+02  0.00000000000E+00 0. -1.
         21    1    1    2  502  501  0.57298054927E+02 -0.53629164854E+02  0.15584365224E+03  0.17448896345E+03  0.00000000000E+00 0. -1.
         21    1    1    2  503  502 -0.57298054927E+02  0.53629164854E+02  0.15910401493E+04  0.15929745482E+04  0.00000000000E+00 0.  1.
</event>
<event>
 4    1  0.6109945E+002  0.3292890E+02  0.7546771E-02  0.1395739E+00
          2   -1    0    0  502    0  0.00000000000E+00  0.00000000000E+00  0.46348948788E+02  0.46348948788E+02  0.00000000000E+00 0. -1.
         -2   -1    0    0    0  501 -0.00000000000E+00 -0.00000000000E+00 -0.50327758463E+02  0.50327758463E+02  0.00000000000E+00 0.  1.
         21    1    1    2  502  503  0.32439021425E+02  0.56588448635E+01  0.33372213735E+02  0.46883017029E+02  0.00000000000E+00 0. -1.
         21    1    1    2  503  501 -0.32439021425E+02 -0.56588448635E+01 -0.37351023410E+02  0.49793690222E+02  0.00000000000E+00 0.  1.
</event>
<event>
 4    1  0.6109945E+002  0.4949115E+02  0.7546771E-02  0.1300394E+00
          2   -1    0    0  502    0  0.00000000000E+00  0.00000000000E+00  0.51641822624E+02  0.51641822624E+02  0.00000000000E+00 0.  1.
         -2   -1    0    0    0  501 -0.00000000000E+00 -0.00000000000E+00 -0.47457790415E+02  0.47457790415E+02  0.00000000000E+00 0. -1.
         21    1    1    2  502  503  0.49230179556E+02 -0.50757269193E+01  0.32902528086E+01  0.49600396636E+02  0.00000000000E+00 0.  1.
         21    1    1    2  503  501 -0.49230179556E+02  0.50757269193E+01  0.89377940013E+00  0.49499216403E+02  0.00000000000E+00 0. -1.
</event>
<event>
 4    1  0.6109945E+002  0.2007700E+02  0.7546771E-02  0.1532862E+00
          2   -1    0    0  503    0  0.00000000000E+00  0.00000000000E+00  0.62461016054E+02  0.62461016054E+02  0.00000000000E+00 0. -1.
         -2   -1    0    0    0  501 -0.00000000000E+00 -0.00000000000E+00 -0.18761800253E+02  0.18761800253E+02  0.00000000000E+00 0.  1.
         21    1    1    2  502  501 -0.14011219578E+02  0.14379562206E+02 -0.11044003227E+02  0.22914102439E+02  0.00000000000E+00 0.  1.
         21    1    1    2  503  502  0.14011219578E+02 -0.14379562206E+02  0.54743219028E+02  0.58308713868E+02  0.00000000000E+00 0. -1.
</event>
<event>
 4    1  0.6109945E+002  0.2707602E+02  0.7546771E-02  0.1446846E+00
          2   -1    0    0  502    0  0.00000000000E+00  0.00000000000E+00  0.84914535966E+03  0.84914535966E+03  0.00000000000E+00 0.  1.
         -2   -1    0    0    0  501 -0.00000000000E+00 -0.00000000000E+00 -0.17846153885E+01  0.17846153885E+01  0.00000000000E+00 0. -1.
         21    1    1    2  502  503  0.17727422968E+02  0.20465811991E+02  0.72937197978E+03  0.72987436993E+03  0.00000000000E+00 0.  1.
         21    1    1    2  503  501 -0.17727422968E+02 -0.20465811991E+02  0.11798876449E+03  0.12105560512E+03  0.00000000000E+00 0. -1.
</event>
<event>
 4    1  0.6109945E+002  0.5197843E+02  0.7546771E-02  0.1289815E+00
          2   -1    0    0  502    0  0.00000000000E+00  0.00000000000E+00  0.14262877602E+03  0.14262877602E+03  0.00000000000E+00 0.  1.
         -2   -1    0    0    0  501 -0.00000000000E+00 -0.00000000000E+00 -0.32069389152E+02  0.32069389152E+02  0.00000000000E+00 0. -1.
         21    1    1    2  502  503  0.45975161001E+02 -0.24249561936E+02  0.11116435516E+03  0.12271621956E+03  0.00000000000E+00 0.  1.
         21    1    1    2  503  501 -0.45975161001E+02  0.24249561936E+02 -0.60496829754E+00  0.51981945614E+02  0.00000000000E+00 0. -1.
</event>
<event>
 4    1  0.6109945E+002  0.2216854E+02  0.7546771E-02  0.1503211E+00
          2   -1    0    0  502    0  0.00000000000E+00  0.00000000000E+00  0.60530778586E+02  0.60530778586E+02  0.00000000000E+00 0. -1.
         -2   -1    0    0    0  501 -0.00000000000E+00 -0.00000000000E+00 -0.10780537821E+02  0.10780537821E+02  0.00000000000E+00 0.  1.
         21    1    1    2  502  503 -0.16960974776E+02  0.14274786524E+02  0.42591768852E+02  0.48015653381E+02  0.00000000000E+00 0. -1.
         21    1    1    2  503  501  0.16960974776E+02 -0.14274786524E+02  0.71584719131E+01  0.23295663026E+02  0.00000000000E+00 0.  1.
</event>
<event>
 4    1  0.6109945E+002  0.3321506E+02  0.7546771E-02  0.1393566E+00
          2   -1    0    0  503    0  0.00000000000E+00  0.00000000000E+00  0.37140379863E+03  0.37140379863E+03  0.00000000000E+00 0. -1.
         -2   -1    0    0    0  501 -0.00000000000E+00 -0.00000000000E+00 -0.12098596571E+02  0.12098596571E+02  0.00000000000E+00 0.  1.
         21    1    1    2  502  501 -0.33159110946E+02  0.19269904108E+01  0.13096070916E+02  0.35703599318E+02  0.00000000000E+00 0.  1.
         21    1    1    2  503  502  0.33159110946E+02 -0.19269904108E+01  0.34620913114E+03  0.34779879588E+03  0.00000000000E+00 0. -1.
</event>
<event>
 4    1  0.6109945E+002  0.5672802E+02  0.7546771E-02  0.1271374E+00
          2   -1    0    0  503    0  0.00000000000E+00  0.00000000000E+00  0.36784186140E+02  0.36784186140E+02  0.00000000000E+00 0.  1.
         -2   -1    0    0    0  501 -0.00000000000E+00 -0.00000000000E+00 -0.98283552374E+02  0.98283552374E+02  0.00000000000E+00 0. -1.
         21    1    1    2  502  501 -0.53313745495E+02  0.19383300493E+02 -0.53134945576E+02  0.77726380580E+02  0.00000000000E+00 0. -1.
         21    1    1    2  503  502  0.53313745495E+02 -0.19383300493E+02 -0.83644206588E+01  0.57341357934E+02  0.00000000000E+00 0.  1.
</event>
<event>
 4    1  0.6109945E+002  0.2386484E+02  0.7546771E-02  0.1481915E+00
          2   -1    0    0  502    0  0.00000000000E+00  0.00000000000E+00  0.53406182876E+02  0.53406182876E+02  0.00000000000E+00 0.  1.
         -2   -1    0    0    0  501 -0.00000000000E+00 -0.00000000000E+00 -0.13189970806E+02  0.13189970806E+02  0.00000000000E+00 0. -1.
         21    1    1    2  502  503  0.84103453701E+01 -0.22333759645E+02  0.34679456901E+02  0.42097451942E+02  0.00000000000E+00 0.  1.
         21    1    1    2  503  501 -0.84103453701E+01  0.22333759645E+02  0.55367551696E+01  0.24498701740E+02  0.00000000000E+00 0. -1.
</event>
<event>
 4    1  0.6109945E+002  0.2313470E+02  0.7546771E-02  0.1490814E+00
          2   -1    0    0  502    0  0.00000000000E+00  0.00000000000E+00  0.29733982751E+03  0.29733982751E+03  0.00000000000E+00 0. -1.
         -2   -1    0    0    0  501 -0.00000000000E+00 -0.00000000000E+00 -0.21410946181E+01  0.21410946181E+01  0.00000000000E+00 0.  1.
         21    1    1    2  502  503 -0.95610200131E+01 -0.21066594486E+02  0.20736515270E+03  0.20865167399E+03  0.00000000000E+00 0. -1.
         21    1    1    2  503  501  0.95610200131E+01  0.21066594486E+02  0.87833580193E+02  0.90829248133E+02  0.00000000000E+00 0.  1.
</event>
<event>
 4    1  0.6109945E+002  0.5454040E+02  0.7546771E-02  0.1279602E+00
          2   -1    0    0  503    0  0.00000000000E+00  0.00000000000E+00  0.31276453679E+03  0.31276453679E+03  0.00000000000E+00 0. -1.
         -2   -1    0    0    0  501 -0.00000000000E+00 -0.00000000000E+00 -0.12419739011E+02  0.12419739011E+02  0.00000000000E+00 0.  1.
         21    1    1    2  502  501 -0.40100502313E+02  0.36967614330E+02  0.71484615449E+02  0.89914987855E+02  0.00000000000E+00 0.  1.
         21    1    1    2  503  502  0.40100502313E+02 -0.36967614330E+02  0.22886018233E+03  0.23526928795E+03  0.00000000000E+00 0. -1.
</event>
<event>
 4    1  0.6109945E+002  0.2728202E+02  0.7546771E-02  0.1444796E+00
          2   -1    0    0  502    0  0.00000000000E+00  0.00000000000E+00  0.20734465475E+04  0.20734465475E+04  0.00000000000E+00 0. -1.
         -2   -1    0    0    0  501 -0.00000000000E+00 -0.00000000000E+00 -0.35903394356E+00  0.35903394356E+00  0.00000000000E+00 0.  1.
         21    1    1    2  502  503  0.26579399431E+02  0.61517629548E+01  0.10228926537E+04  0.10232564144E+04  0.00000000000E+00 0. -1.
         21    1    1    2  503  501 -0.26579399431E+02 -0.61517629548E+01  0.10501948598E+04  0.10505491670E+04  0.00000000000E+00 0.  1.
</event>
<event>
 4    1  0.6109945E+002  0.2965788E+02  0.7546771E-02  0.1422593E+00
          2   -1    0    0  503    0  0.00000000000E+00  0.00000000000E+00  0.66268053694E+02  0.66268053694E+02  0.00000000000E+00 0. -1.
         -2   -1    0    0    0  501 -0.00000000000E+00 -0.00000000000E+00 -0.13860376591E+02  0.13860376591E+02  0.00000000000E+00 0.  1.
         21    1    1    2  502  501  0.12837219403E+02  0.26735664406E+02  0.34449944272E+02  0.45457547377E+02  0.00000000000E+00 0. -1.
         21    1    1    2  503  502 -0.12837219403E+02 -0.26735664406E+02  0.17957732830E+02  0.34670882908E+02  0.00000000000E+00 0.  1.
</event>
<event>
 4    1  0.6109945E+002  0.2039400E+02  0.7546771E-02  0.1528095E+00
          2   -1    0    0  503    0  0.00000000000E+00  0.00000000000E+00  0.99570708644E+03  0.99570708644E+03  0.00000000000E+00 0.  1.
         -2   -1    0    0    0  501 -0.00000000000E+00 -0.00000000000E+00 -0.14017934076E+01  0.14017934076E+01  0.00000000000E+00 0. -1.
         21    1    1    2  502  501 -0.17748538622E+02  0.10045129877E+02  0.79431097588E+02  0.82007405284E+02  0.00000000000E+00 0. -1.
         21    1    1    2  503  502  0.17748538622E+02 -0.10045129877E+02  0.91487419544E+03  0.91510147456E+03  0.00000000000E+00 0.  1.
</event>
<event>
 4    1  0.6109945E+002  0.2919607E+02  0.7546771E-02  0.1426714E+00
          2   -1    0    0  502    0  0.00000000000E+00  0.00000000000E+00  0.21172128966E+04  0.21172128966E+04  0.00000000000E+00 0. -1.
         -2   -1    0    0    0  501 -0.00000000000E+00 -0.00000000000E+00 -0.70309325070E+00  0.70309325070E+00  0.00000000000E+00 0.  1.
         21    1    1    2  502  503 -0.26888729822E+02  0.11375705715E+02  0.17505362207E+04  0.17507796750E+04  0.00000000000E+00 0. -1.
         21    1    1    2  503  501  0.26888729822E+02 -0.11375705715E+02  0.36597358258E+03  0.36713631476E+03  0.00000000000E+00 0.  1.
</event>
<event>
 4    1  0.6109945E+002  0.2456919E+02  0.7546771E-02  0.1473681E+00
          2   -1    0    0  503    0  0.00000000000E+00  0.00000000000E+00  0.14631878989E+04  0.14631878989E+04  0.00000000000E+00 0.  1.
         -2   -1    0    0    0  501 -0.00000000000E+00 -0.00000000000E+00 -0.44186682479E+00  0.44186682479E+00  0.00000000000E+00 0. -1.
         21    1    1    2  502  501  0.12935817234E+02  0.20888032873E+02  0.54288750386E+03  0.54344317747E+03  0.00000000000E+00 0.  1.
         21    1    1    2  503  502 -0.12935817234E+02 -0.20888032873E+02  0.91985852821E+03  0.92018658825E+03  0.00000000000E+00 0. -1.
</event>
<event>
 4    1  0.6109945E+002  0.2135055E+02  0.7546771E-02  0.1514318E+00
          2   -1    0    0  503    0  0.00000000000E+00  0.00000000000E+00  0.32267550338E+03  0.32267550338E+03  0.00000000000E+00 0.  1.
         -2   -1    0    0    0  501 -0.00000000000E+00 -0.00000000000E+00 -0.16265475819E+01  0.16265475819E+01  0.00000000000E+00 0. -1.
         21    1    1    2  502  501  0.20310586195E+02  0.65822625463E+01  0.10173076236E+03  0.10394707357E+03  0.00000000000E+00 0.  1.
         21    1    1    2  503  502 -0.20310586195E+02 -0.65822625463E+01  0.21931819344E+03  0.22035497740E+03  0.00000000000E+00 0. -1.
</event>
<event>
 4    1  0.6109945E+002  0.2550538E+02  0.7546771E-02  0.1463228E+00
          2   -1    0    0  502    0  0.00000000000E+00  0.00000000000E+00  0.21102596079E+02  0.21102596079E+02  0.00000000000E+00 0. -1.
         -2   -1    0    0    0  501 -0.00000000000E+00 -0.00000000000E+00 -0.37333013615E+02  0.37333013615E+02  0.00000000000E+00 0.  1.
         21    1    1    2  502  503  0.12790188299E+02 -0.22066610498E+02  0.40821911683E+01  0.25829992264E+02  0.00000000000E+00 0. -1.
         21    1    1    2  503  501 -0.12790188299E+02  0.22066610498E+02 -0.20312608705E+02  0.32605617430E+02  0.00000000000E+00 0.  1.
</event>
<event>
 4    1  0.6109945E+002  0.2001651E+02  0.7546771E-02  0.1533783E+00
          2   -1    0    0  503    0  0.00000000000E+00  0.00000000000E+00  0.13109374863E+03  0.13109374863E+03  0.00000000000E+00 0. -1.
         -2   -1    0    0    0  501 -0.00000000000E+00 -0.00000000000E+00 -0.31882202331E+01  0.31882202331E+01  0.00000000000E+00 0.  1.
         21    1    1    2  502  501  0.87862650864E+01  0.17985060403E+02  0.50294941884E+02  0.54131710032E+02  0.00000000000E+00 0. -1.
         21    1    1    2  503  502 -0.87862650864E+01 -0.17985060403E+02  0.77610586515E+02  0.80150258833E+02  0.00000000000E+00 0.  1.
</event>
<event>
 4    1  0.6109945E+002  0.3634635E+02  0.7546771E-02  0.1371337E+00
          2   -1    0    0  503    0  0.00000000000E+00  0.00000000000E+00  0.76356462106E+02  0.76356462106E+02  0.00000000000E+00 0. -1.
         -2   -1    0    0    0  501 -0.00000000000E+00 -0.00000000000E+00 -0.50446121613E+02  0.50446121613E+02  0.00000000000E+00 0.  1.
         21    1    1    2  502  501  0.25930349609E+02  0.25469077510E+02 -0.38436512842E+02  0.52900117765E+02  0.00000000000E+00 0.  1.
         21    1    1    2  503  502 -0.25930349609E+02 -0.25469077510E+02  0.64346853335E+02  0.73902465954E+02  0.00000000000E+00 0. -1.
</event>
<event>
 4    1  0.6109945E+002  0.2057857E+02  0.7546771E-02  0.1525368E+00
          2   -1    0    0  502    0  0.00000000000E+00  0.00000000000E+00  0.11225656662E+04  0.11225656662E+04  0.00000000000E+00 0.  1.
         -2   -1    0    0    0  501 -0.00000000000E+00 -0.00000000000E+00 -0.46501217426E+00  0.46501217426E+00  0.00000000000E+00 0. -1.
         21    1    1    2  502  503 -0.15301258308E+02 -0.13760408369E+02  0.80500346543E+03  0.80526645074E+03  0.00000000000E+00 0.  1.
         21    1    1    2  503  501  0.15301258308E+02  0.13760408369E+02  0.31709718861E+03  0.31776422764E+03  0.00000000000E+00 0. -1.
</event>
<event>
 4    1  0.6109945E+002  0.2828031E+02  0.7546771E-02  0.1435154E+00
          2   -1    0    0  502    0  0.00000000000E+00  0.00000000000E+00  0.82695941268E+03  0.82695941268E+03  0.00000000000E+00 0. -1.
         -2   -1    0    0    0  501 -0.00000000000E+00 -0.00000000000E+00 -0.14514212578E+01  0.14514212578E+01  0.00000000000E+00 0.  1.
         21    1    1    2  502  503 -0.57620623636E+01  0.27687087214E+02  0.65201556304E+03  0.65262858549E+03  0.00000000000E+00 0. -1.
         21    1    1    2  503  501  0.57620623636E+01 -0.27687087214E+02  0.17349242839E+03  0.17578224845E+03  0.00000000000E+00 0.  1.
</event>
<event>
 4    1  0.6109945E+002  0.2309826E+02  0.7546771E-02  0.1491268E+00
          2   -1    0    0  502    0  0.00000000000E+00  0.00000000000E+00  0.33001553898E+03  0.33001553898E+03  0.00000000000E+00 0. -1.
         -2   -1    0    0    0  501 -0.00000000000E+00 -0.00000000000E+00 -0.22450522169E+01  0.22450522169E+01  0.00000000000E+00 0.  1.
         21    1    1    2  502  503  0.29741358630E+01 -0.22905986423E+02  0.25177614445E+03  0.25283345628E+03  0.00000000000E+00 0. -1.
         21    1    1    2  503  501 -0.29741358630E+01  0.22905986423E+02  0.75994342307E+02  0.79427134915E+02  0.00000000000E+00 0.  1.
</event>
<event>
 4    1  0.6109945E+002  0.2559187E+02  0.7546771E-02  0.1462290E+00
          2   -1    0    0  502    0  0.00000000000E+00  0.00000000000E+00  0.18677157645E+04  0.18677157645E+04  0.00000000000E+00 0. -1.
         -2   -1    0    0    0  501 -0.00000000000E+00 -0.00000000000E+00 -0.42517799143E+00  0.42517799143E+00  0.00000000000E+00 0.  1.
         21    1    1    2  502  503  0.25028227302E+02  0.53415252508E+01  0.13246733375E+04  0.13249205241E+04  0.00000000000E+00 0. -1.
         21    1    1    2  503  501 -0.25028227302E+02 -0.53415252508E+01  0.54261724905E+03  0.54322041845E+03  0.00000000000E+00 0.  1.
</event>
<event>
 4    1  0.6109945E+002  0.6748060E+02  0.7546771E-02  0.1236336E+00
          2   -1    0    0  502    0  0.00000000000E+00  0.00000000000E+00  0.70248275368E+03  0.70248275368E+03  0.00000000000E+00 0. -1.
         -2   -1    0    0    0  501 -0.00000000000E+00 -0.00000000000E+00 -0.15134526179E+02  0.15134526179E+02  0.00000000000E+00 0.  1.
         21    1    1    2  502  503 -0.85546907267E+01 -0.66936150007E+02  0.61497113109E+03  0.61866236591E+03  0.00000000000E+00 0. -1.
         21    1    1    2  503  501  0.85546907267E+01  0.66936150007E+02  0.72377096409E+02  0.98954913954E+02  0.00000000000E+00 0.  1.
</event>
<event>
 4    1  0.6109945E+002  0.2934715E+02  0.7546771E-02  0.1425356E+00
          2   -1    0    0  502    0  0.00000000000E+00  0.00000000000E+00  0.28998563524E+02  0.28998563524E+02  0.00000000000E+00 0. -1.
         -2   -1    0    0    0  501 -0.00000000000E+00 -0.00000000000E+00 -0.81456398345E+02  0.81456398345E+02  0.00000000000E+00 0.  1.
         21    1    1    2  502  503 -0.27548772399E+02  0.10115348931E+02  0.17793610064E+02  0.34320077269E+02  0.00000000000E+00 0. -1.
         21    1    1    2  503  501  0.27548772399E+02 -0.10115348931E+02 -0.70251444884E+02  0.76134884600E+02  0.00000000000E+00 0.  1.
</event>
<event>
 4    1  0.6109945E+002  0.2505876E+02  0.7546771E-02  0.1468147E+00
          2   -1    0    0  502    0  0.00000000000E+00  0.00000000000E+00  0.25525307767E+02  0.25525307767E+02  0.00000000000E+00 0.  1.
         -2   -1    0    0    0  501 -0.00000000000E+00 -0.00000000000E+00 -0.28296450896E+02  0.28296450896E+02  0.00000000000E+00 0. -1.
         21    1    1    2  502  503  0.16074173887E+02  0.19224009306E+02  0.83398979718E+01  0.26410140063E+02  0.00000000000E+00 0.  1.
         21    1    1    2  503  501 -0.16074173887E+02 -0.19224009306E+02 -0.11111041101E+02  0.27411618601E+02  0.00000000000E+00 0. -1.
</event>
<event>
 4    1  0.6109945E+002  0.2674384E+02  0.7546771E-02  0.1450198E+00
          2   -1    0    0  503    0  0.00000000000E+00  0.00000000000E+00  0.69986986667E+03  0.69986986667E+03  0.00000000000E+00 0. -1.
         -2   -1    0    0    0  501 -0.00000000000E+00 -0.00000000000E+00 -0.10494242589E+01  0.10494242589E+01  0.00000000000E+00 0.  1.
         21    1    1    2  502  501  0.23916118629E+02 -0.11968795088E+02  0.40611461329E+03  0.40699424064E+03  0.00000000000E+00 0.  1.
         21    1    1    2  503  502 -0.23916118629E+02  0.11968795088E+02  0.29270582913E+03  0.29392505029E+03  0.00000000000E+00 0. -1.
</event>
<event>
 4    1  0.6109945E+002  0.2321063E+02  0.7546771E-02  0.1489870E+00
          2   -1    0    0  503    0  0.00000000000E+00  0.00000000000E+00  0.19694791483E+04  0.19694791483E+04  0.00000000000E+00 0. -1.
         -2   -1    0    0    0  501 -0.00000000000E+00 -0.00000000000E+00 -0.47755558260E+00  0.47755558260E+00  0.00000000000E+00 0.  1.
         21    1    1    2  502  501 -0.13309740606E+02  0.19015360997E+02  0.34070904588E+03  0.34149873659E+03  0.00000000000E+00 0.  1.
         21    1    1    2  503  502  0.13309740606E+02 -0.19015360997E+02  0.16282925468E+04  0.16284579673E+04  0.00000000000E+00 0. -1.
</event>
<event>
 4    1  0.6109945E+002  0.2068988E+02  0.7546771E-02  0.1523739E+00
          2   -1    0    0  502    0  0.00000000000E+00  0.00000000000E+00  0.40106481016E+03  0.40106481016E+03  0.00000000000E+00 0. -1.
         -2   -1    0    0    0  501 -0.00000000000E+00 -0.00000000000E+00 -0.11337272307E+01  0.11337272307E+01  0.00000000000E+00 0.  1.
         21    1    1    2  502  503  0.31107480781E+00 -0.20687542249E+02  0.24862972352E+03  0.24948909914E+03  0.00000000000E+00 0. -1.
         21    1    1    2  503  501 -0.31107480781E+00  0.20687542249E+02  0.15130135941E+03  0.15270943825E+03  0.00000000000E+00 0.  1.
</event>
<event>
 4    1  0.6109945E+002  0.2495528E+02  0.7546771E-02  0.1469304E+00
          2   -1    0    0  503    0  0.00000000000E+00  0.00000000000E+00  0.15308473500E+04  0.15308473500E+04  0.00000000000E+00 0.  1.
         -2   -1    0    0    0  501 -0.00000000000E+00 -0.00000000000E+00 -0.15464894054E+01  0.15464894054E+01  0.00000000000E+00 0. -1.
         21    1    1    2  502  501  0.14515761132E+02  0.20299227030E+02  0.10690470046E+03  0.10977878174E+03  0.00000000000E+00 0. -1.
         21    1    1    2  503  502 -0.14515761132E+02 -0.20299227030E+02  0.14223961601E+04  0.14226150576E+04  0.00000000000E+00 0.  1.
</event>
<event>
 4    1  0.6109945E+002  0.2178958E+02  0.7546771E-02  0.1508284E+00
          2   -1    0    0  503    0  0.00000000000E+00  0.00000000000E+00  0.54503703252E+02  0.54503703252E+02  0.00000000000E+00 0. -1.
         -2   -1    0    0    0  501 -0.00000000000E+00 -0.00000000000E+00 -0.20815819510E+02  0.20815819510E+02  0.00000000000E+00 0.  1.
         21    1    1    2  502  501 -0.17892340235E+02  0.12435828803E+02 -0.11874354739E+02  0.24815035313E+02  0.00000000000E+00 0. -1.
         21    1    1    2  503  502  0.17892340235E+02 -0.12435828803E+02  0.45562238481E+02  0.50504487450E+02  0.00000000000E+00 0.  1.
</event>
<event>
 4    1  0.6109945E+002  0.3204725E+02  0.7546771E-02  0.1402602E+00
          2   -1    0    0  503    0  0.00000000000E+00  0.00000000000E+00  0.12377387822E+04  0.12377387822E+04  0.00000000000E+00 0. -1.
         -2   -1    0    0    0  501 -0.00000000000E+00 -0.00000000000E+00 -0.13849294058E+01  0.13849294058E+01  0.00000000000E+00 0.  1.
         21    1    1    2  502  501 -0.11582461577E+02 -0.29880973515E+02  0.22590822327E+03  0.22817000534E+03  0.00000000000E+00 0.  1.
         21    1    1    2  503  502  0.11582461577E+02  0.29880973515E+02  0.10104456295E+04  0.10109537063E+04  0.00000000000E+00 0. -1.
</event>
<event>
 4    1  0.6109945E+002  0.2604651E+02  0.7546771E-02  0.1457429E+00
          2   -1    0    0  503    0  0.00000000000E+00  0.00000000000E+00  0.12805755022E+02  0.12805755022E+02  0.00000000000E+00 0. -1.
         -2   -1    0    0    0  501 -0.00000000000E+00 -0.00000000000E+00 -0.70894502260E+02  0.70894502260E+02  0.00000000000E+00 0.  1.
         21    1    1    2  502  501 -0.17962213941E+02 -0.18862114323E+02 -0.50083116489E+02  0.56451209408E+02  0.00000000000E+00 0.  1.
         21    1    1    2  503  502  0.17962213941E+02  0.18862114323E+02 -0.80056307482E+01  0.27249047874E+02  0.00000000000E+00 0. -1.
</event>
<event>
 4    1  0.6109945E+002  0.3280503E+02  0.7546771E-02  0.1396688E+00
          2   -1    0    0  502    0  0.00000000000E+00  0.00000000000E+00  0.51812162210E+03  0.51812162210E+03  0.00000000000E+00 0. -1.
         -2   -1    0    0    0  501 -0.00000000000E+00 -0.00000000000E+00 -0.24680684736E+01  0.24680684736E+01  0.00000000000E+00 0.  1.
         21    1    1    2  502  503 -0.30307083067E+02  0.12555911591E+02  0.36143148943E+03  0.36291719682E+03  0.00000000000E+00 0. -1.
         21    1    1    2  503  501  0.30307083067E+02 -0.12555911591E+02  0.15422206421E+03  0.15767249376E+03  0.00000000000E+00 0.  1.
</event>
<event>
 4    1  0.6109945E+002  0.2776518E+02  0.7546771E-02  0.1440070E+00
          2   -1    0    0  503    0  0.00000000000E+00  0.00000000000E+00  0.33816883490E+03  0.33816883490E+03  0.00000000000E+00 0.  1.
         -2   -1    0    0    0  501 -0.00000000000E+00 -0.00000000000E+00 -0.24078035186E+01  0.24078035186E+01  0.00000000000E+00 0. -1.
         21    1    1    2  502  501 -0.26526642386E+02 -0.82001401193E+01  0.20716737135E+03  0.20901967564E+03  0.00000000000E+00 0.  1.
         21    1    1    2  503  502  0.26526642386E+02  0.82001401193E+01  0.12859366003E+03  0.13155696278E+03  0.00000000000E+00 0. -1.
</event>
<event>
 4    1  0.6109945E+002  0.3378601E+02  0.7546771E-02  0.1389305E+00
          2   -1    0    0  503    0  0.00000000000E+00  0.00000000000E+00  0.61562087514E+02  0.61562087514E+02  0.00000000000E+00 0. -1.
         -2   -1    0    0    0  501 -0.00000000000E+00 -0.00000000000E+00 -0.12158009718E+03  0.12158009718E+03  0.00000000000E+00 0.  1.
         21    1    1    2  502  501 -0.32233554054E+02 -0.10123850016E+02 -0.11430864490E+03  0.11919715032E+03  0.00000000000E+00 0.  1.
         21    1    1    2  503  502  0.32233554054E+02  0.10123850016E+02  0.54290635236E+02  0.63945034369E+02  0.00000000000E+00 0. -1.
</event>
<event>
 4    1  0.6109945E+002  0.3238930E+02  0.7546771E-02  0.1399909E+00
          2   -1    0    0  503    0  0.00000000000E+00  0.00000000000E+00  0.48136037883E+02  0.48136037883E+02  0.00000000000E+00 0.  1.
         -2   -1    0    0    0  501 -0.00000000000E+00 -0.00000000000E+00 -0.10030714853E+03  0.10030714853E+03  0.00000000000E+00 0. -1.
         21    1    1    2  502  501  0.15516217405E+01 -0.32352113474E+02 -0.91750881136E+02  0.97300004962E+02  0.00000000000E+00 0. -1.
         21    1    1    2  503  502 -0.15516217405E+01  0.32352113474E+02  0.39579770493E+02  0.51143181447E+02  0.00000000000E+00 0.  1.
</event>
<event>
 4    1  0.6109945E+002  0.2741032E+02  0.7546771E-02  0.1443529E+00
          2   -1    0    0  503    0  0.00000000000E+00  0.00000000000E+00  0.51116745466E+03  0.51116745466E+03  0.00000000000E+00 0. -1.
         -2   -1    0    0    0  501 -0.00000000000E+00 -0.00000000000E+00 -0.17794608695E+02  0.17794608695E+02  0.00000000000E+00 0.  1.
         21    1    1    2  502  501  0.28763262980E+01 -0.27258991020E+02 -0.66362426466E+01  0.28202226168E+02  0.00000000000E+00 0.  1.
         21    1    1    2  503  502 -0.28763262980E+01  0.27258991020E+02  0.50000908861E+03  0.50075983719E+03  0.00000000000E+00 0. -1.
</event>
<event>
 4    1  0.6109945E+002  0.3011678E+02  0.7546771E-02  0.1418584E+00
          2   -1    0    0  502    0  0.00000000000E+00  0.00000000000E+00  0.23052163898E+04  0.23052163898E+04  0.00000000000E+00 0.  1.
         -2   -1    0    0    0  501 -0.00000000000E+00 -0.00000000000E+00 -0.16295521401E+01  0.16295521401E+01  0.00000000000E+00 0. -1.
         21    1    1    2  502  503 -0.24736667820E+02  0.17178991326E+02  0.21563609183E+04  0.21565712208E+04  0.00000000000E+00 0.  1.
         21    1    1    2  503  501  0.24736667820E+02 -0.17178991326E+02  0.14722591937E+03  0.15027472113E+03  0.00000000000E+00 0. -1.
</event>
<event>
 4    1  0.6109945E+002  0.2044737E+02  0.7546771E-02  0.1527303E+00
          2   -1    0    0  503    0  0.00000000000E+00  0.00000000000E+00  0.50674712049E+03  0.50674712049E+03  0.00000000000E+00 0. -1.
         -2   -1    0    0    0  501 -0.00000000000E+00 -0.00000000000E+00 -0.83931751521E+00  0.83931751521E+00  0.00000000000E+00 0.  1.
         21    1    1    2  502  501 -0.13225494960E+02  0.15594263797E+02  0.28603644273E+03  0.28676635324E+03  0.00000000000E+00 0. -1.
         21    1    1    2  503  502  0.13225494960E+02 -0.15594263797E+02  0.21987136025E+03  0.22082008477E+03  0.00000000000E+00 0.  1.
</event>
<event>
 4    1  0.6109945E+002  0.2548446E+02  0.7546771E-02  0.1463456E+00
          2   -1    0    0  503    0  0.00000000000E+00  0.00000000000E+00  0.14798709896E+04  0.14798709896E+04  0.00000000000E+00 0. -1.
         -2   -1    0    0    0  501 -0.00000000000E+00 -0.00000000000E+00 -0.20707163436E+01  0.20707163436E+01  0.00000000000E+00 0.  1.
         21    1    1    2  502  501  0.77715208822E+01 -0.24270581055E+02  0.81118644002E+02  0.85027595793E+02  0.00000000000E+00 0.  1.
         21    1    1    2  503  502 -0.77715208822E+01  0.24270581055E+02  0.13966816293E+04  0.13969141102E+04  0.00000000000E+00 0. -1.
</event>
<event>
 4    1  0.6109945E+002  0.2316145E+02  0.7546771E-02  0.1490481E+00
          2   -1    0    0  503    0  0.00000000000E+00  0.00000000000E+00  0.42626132036E+02  0.42626132036E+02  0.00000000000E+00 0.  1.
         -2   -1    0    0    0  501 -0.00000000000E+00 -0.00000000000E+00 -0.18817170327E+03  0.18817170327E+03  0.00000000000E+00 0. -1.
         21    1    1    2  502  501 -0.22052111266E+02 -0.70821828991E+01 -0.18424594273E+03  0.18569604288E+03  0.00000000000E+00 0. -1.
         21    1    1    2  503  502  0.22052111266E+02  0.70821828991E+01  0.38700371501E+02  0.45101792429E+02  0.00000000000E+00 0.  1.
</event>
<event>
 4    1  0.6109945E+002  0.4747610E+02  0.7546771E-02  0.1309502E+00
          2   -1    0    0  502    0  0.00000000000E+00  0.00000000000E+00  0.33324832443E+03  0.33324832443E+03  0.00000000000E+00 0. -1.
         -2   -1    0    0    0  501 -0.00000000000E+00 -0.00000000000E+00 -0.10932923113E+02  0.10932923113E+02  0.00000000000E+00 0.  1.
         21    1    1    2  502  503 -0.43932120988E+02 -0.17998587799E+02  0.26742958769E+03  0.27161105425E+03  0.00000000000E+00 0. -1.
         21    1    1    2  503  501  0.43932120988E+02  0.17998587799E+02  0.54885813620E+02  0.72570193289E+02  0.00000000000E+00 0.  1.
</event>
<event>
 4    1  0.6109945E+002  0.2327948E+02  0.7546771E-02  0.1489018E+00
          2   -1    0    0  502    0  0.00000000000E+00  0.00000000000E+00  0.17431719670E+04  0.17431719670E+04  0.00000000000E+00 0. -1.
         -2   -1    0    0    0  501 -0.00000000000E+00 -0.00000000000E+00 -0.20055114707E+01  0.20055114707E+01  0.00000000000E+00 0.  1.
         21    1    1    2  502  503  0.22442155865E+02 -0.61873824254E+01  0.16726923041E+04  0.16728542908E+04  0.00000000000E+00 0. -1.
         21    1    1    2  503  501 -0.22442155865E+02  0.61873824254E+01  0.68474151511E+02  0.72323187750E+02  0.00000000000E+00 0.  1.
</event>
<event>
 4    1  0.6109945E+002  0.2033364E+02  0.7546771E-02  0.1528995E+00
          2   -1    0    0  503    0  0.00000000000E+00  0.00000000000E+00  0.13638232925E+04  0.13638232925E+04  0.00000000000E+00 0. -1.
         -2   -1    0    0    0  501 -0.00000000000E+00 -0.00000000000E+00 -0.32557515025E+00  0.32557515025E+00  0.00000000000E+00 0.  1.
         21    1    1    2  502  501 -0.99539654113E+01 -0.17730639018E+02  0.50278113495E+03  0.50319213691E+03  0.00000000000E+00 0. -1.
         21    1    1    2  503  502  0.99539654113E+01  0.17730639018E+02  0.86071658239E+03  0.86095673073E+03  0.00000000000E+00 0.  1.
</event>
<event>
 4    1  0.6109945E+002  0.3613291E+02  0.7546771E-02  0.1372769E+00
          2   -1    0    0  503    0  0.00000000000E+00  0.00000000000E+00  0.14125068238E+03  0.14125068238E+03  0.00000000000E+00 0. -1.
         -2   -1    0    0    0  501 -0.00000000000E+00 -0.00000000000E+00 -0.15439163425E+02  0.15439163425E+02  0.00000000000E+00 0.  1.
         21    1    1    2  502  501 -0.10571323061E+02 -0.34551905364E+02  0.13274113776E+02  0.38494014237E+02  0.00000000000E+00 0.  1.
         21    1    1    2  503  502  0.10571323061E+02  0.34551905364E+02  0.11253740518E+03  0.11819583157E+03  0.00000000000E+00 0. -1.
</event>
<event>
 4    1  0.6109945E+002  0.2107736E+02  0.7546771E-02  0.1518163E+00
          2   -1    0    0  502    0  0.00000000000E+00  0.00000000000E+00  0.70225480254E+03  0.70225480254E+03  0.00000000000E+00 0.  1.
         -2   -1    0    0    0  501 -0.00000000000E+00 -0.00000000000E+00 -0.70582195792E+00  0.70582195792E+00  0.00000000000E+00 0. -1.
         21    1    1    2  502  503  0.94696954516E+01  0.18830298458E+02  0.46397192118E+03  0.46445042676E+03  0.00000000000E+00 0. -1.
         21    1    1    2  503  501 -0.94696954516E+01 -0.18830298458E+02  0.23757705940E+03  0.23851019774E+03  0.00000000000E+00 0.  1.
</event>
<event>
 4    1  0.6109945E+002  0.2127477E+02  0.7546771E-02  0.1515378E+00
          2   -1    0    0  503    0  0.00000000000E+00  0.00000000000E+00  0.35220496636E+02  0.35220496636E+02  0.00000000000E+00 0. -1.
         -2   -1    0    0    0  501 -0.00000000000E+00 -0.00000000000E+00 -0.22854453447E+02  0.22854453447E+02  0.00000000000E+00 0.  1.
         21    1    1    2  502  501  0.17068846503E+02 -0.12699219117E+02 -0.13027988668E+02  0.24946826969E+02  0.00000000000E+00 0.  1.
         21    1    1    2  503  502 -0.17068846503E+02  0.12699219117E+02  0.25394031857E+02  0.33128123114E+02  0.00000000000E+00 0. -1.
</event>
<event>
 4    1  0.6109945E+002  0.2414942E+02  0.7546771E-02  0.1478548E+00
          2   -1    0    0  502    0  0.00000000000E+00  0.00000000000E+00  0.15333222374E+04  0.15333222374E+04  0.00000000000E+00 0. -1.
         -2   -1    0    0    0  501 -0.00000000000E+00 -0.00000000000E+00 -0.26367846051E+01  0.26367846051E+01  0.00000000000E+00 0.  1.
         21    1    1    2  502  503  0.23891015853E+02  0.35233301421E+01  0.14757771097E+04  0.14759746854E+04  0.00000000000E+00 0. -1.
         21    1    1    2  503  501 -0.23891015853E+02 -0.35233301421E+01  0.54908343089E+02  0.59984336577E+02  0.00000000000E+00 0.  1.
</event>
<event>
 4    1  0.6109945E+002  0.2103003E+02  0.7546771E-02  0.1518836E+00
          2   -1    0    0  503    0  0.00000000000E+00  0.00000000000E+00  0.11800114472E+03  0.11800114472E+03  0.00000000000E+00 0.  1.
         -2   -1    0    0    0  501 -0.00000000000E+00 -0.00000000000E+00 -0.43776913116E+01  0.43776913116E+01  0.00000000000E+00 0. -1.
         21    1    1    2  502  501 -0.19827519582E+02 -0.70094065895E+01  0.33603867986E+02  0.39641925497E+02  0.00000000000E+00 0.  1.
         21    1    1    2  503  502  0.19827519582E+02  0.70094065895E+01  0.80019585420E+02  0.82736910532E+02  0.00000000000E+00 0. -1.
</event>
<event>
 4    1  0.6109945E+002  0.2510313E+02  0.7546771E-02  0.1467653E+00
          2   -1    0    0  502    0  0.00000000000E+00  0.00000000000E+00  0.11647902912E+02  0.11647902912E+02  0.00000000000E+00 0.  1.
         -2   -1    0    0    0  501 -0.00000000000E+00 -0.00000000000E+00 -0.83834255263E+02  0.83834255263E+02  0.00000000000E+00 0. -1.
         21    1    1    2  502  503 -0.22300680020E+01  0.25003876136E+02 -0.76616413944E+01  0.26246290671E+02  0.00000000000E+00 0.  1.
         21    1    1    2  503  501  0.22300680020E+01 -0.25003876136E+02 -0.64524710956E+02  0.69235867505E+02  0.00000000000E+00 0. -1.
</event>
<event>
 4    1  0.6109945E+002  0.2285434E+02  0.7546771E-02  0.1494335E+00
          2   -1    0    0  503    0  0.00000000000E+00  0.00000000000E+00  0.37275053924E+03  0.37275053924E+03  0.00000000000E+00 0.  1.
         -2   -1    0    0    0  501 -0.00000000000E+00 -0.00000000000E+00 -0.17435937811E+01  0.17435937811E+01  0.00000000000E+00 0. -1.
         21    1    1    2  502  501 -0.16918422737E+02 -0.15365156565E+02  0.10253441647E+03  0.10505059555E+03  0.00000000000E+00 0. -1.
         21    1    1    2  503  502  0.16918422737E+02  0.15365156565E+02  0.26847252899E+03  0.26944353747E+03  0.00000000000E+00 0.  1.
</event>
<event>
 4    1  0.6109945E+002  0.2125605E+02  0.7546771E-02  0.1515640E+00
          2   -1    0    0  502    0  0.00000000000E+00  0.00000000000E+00  0.83018671141E+02  0.83018671141E+02  0.00000000000E+00 0. -1.
         -2   -1    0    0    0  501 -0.00000000000E+00 -0.00000000000E+00 -0.55577452345E+01  0.55577452345E+01  0.00000000000E+00 0.  1.
         21    1    1    2  502  503  0.51475231346E+01 -0.20623356525E+02  0.45111055360E+02  0.49868097462E+02  0.00000000000E+00 0.  1.
         21    1    1    2  503  501 -0.51475231346E+01  0.20623356525E+02  0.32349870547E+02  0.38708318914E+02  0.00000000000E+00 0. -1.
</event>
<event>
 4    1  0.6109945E+002  0.2251090E+02  0.7546771E-02  0.1498733E+00
          2   -1    0    0  503    0  0.00000000000E+00  0.00000000000E+00  0.56404943018E+02  0.56404943018E+02  0.00000000000E+00 0.  1.
         -2   -1    0    0    0  501 -0.00000000000E+00 -0.00000000000E+00 -0.10213604556E+02  0.10213604556E+02  0.00000000000E+00 0. -1.
         21    1    1    2  502  501  0.41285963876E+00 -0.22507113426E+02  0.34653138851E+02  0.41322882766E+02  0.00000000000E+00 0.  1.
         21    1    1    2  503  502 -0.41285963876E+00  0.22507113426E+02  0.11538199611E+02  0.25295664809E+02  0.00000000000E+00 0. -1.
</event>
<event>
 4    1  0.6109945E+002  0.3308498E+02  0.7546771E-02  0.1394550E+00
          2   -1    0    0  502    0  0.00000000000E+00  0.00000000000E+00  0.90396869579E+03  0.90396869579E+03  0.00000000000E+00 0. -1.
         -2   -1    0    0    0  501 -0.00000000000E+00 -0.00000000000E+00 -0.32004978799E+01  0.32004978799E+01  0.00000000000E+00 0.  1.
         21    1    1    2  502  503  0.19706084220E+02  0.26576041143E+02  0.80801264571E+03  0.80868971265E+03  0.00000000000E+00 0. -1.
         21    1    1    2  503  501 -0.19706084220E+02 -0.26576041143E+02  0.92755552204E+02  0.98479481024E+02  0.00000000000E+00 0.  1.
</event>
<event>
 4    1  0.6109945E+002  0.4297371E+02  0.7546771E-02  0.1331889E+00
          2   -1    0    0  502    0  0.00000000000E+00  0.00000000000E+00  0.69071144322E+02  0.69071144322E+02  0.00000000000E+00 0.  1.
         -2   -1    0    0    0  501 -0.00000000000E+00 -0.00000000000E+00 -0.14685898026E+03  0.14685898026E+03  0.00000000000E+00 0. -1.
         21    1    1    2  502  503  0.35263926887E+02  0.24560035565E+02  0.58749871911E+02  0.72789335318E+02  0.00000000000E+00 0.  1.
         21    1    1    2  503  501 -0.35263926887E+02 -0.24560035565E+02 -0.13653770785E+03  0.14314078926E+03  0.00000000000E+00 0. -1.
</event>
<event>
 4    1  0.6109945E+002  0.2043832E+02  0.7546771E-02  0.1527437E+00
          2   -1    0    0  502    0  0.00000000000E+00  0.00000000000E+00  0.19694811685E+03  0.19694811685E+03  0.00000000000E+00 0. -1.
         -2   -1    0    0    0  501 -0.00000000000E+00 -0.00000000000E+00 -0.16474810557E+02  0.16474810557E+02  0.00000000000E+00 0.  1.
         21    1    1    2  502  503  0.19249830454E+02 -0.68679621346E+01  0.18984245293E+03  0.19093947159E+03  0.00000000000E+00 0. -1.
         21    1    1    2  503  501 -0.19249830454E+02  0.68679621346E+01 -0.93691466436E+01  0.22483455812E+02  0.00000000000E+00 0.  1.
</event>
<event>
 4    1  0.6109945E+002  0.4283669E+02  0.7546771E-02  0.1332619E+00
          2   -1    0    0  502    0  0.00000000000E+00  0.00000000000E+00  0.12198419491E+03  0.12198419491E+03  0.00000000000E+00 0.  1.
         -2   -1    0    0    0  501 -0.00000000000E+00 -0.00000000000E+00 -0.65332065451E+02  0.65332065451E+02  0.00000000000E+00 0. -1.
         21    1    1    2  502  503  0.34308546943E+02  0.25649666940E+02  0.11049733623E+03  0.11851009713E+03  0.00000000000E+00 0.  1.
         21    1    1    2  503  501 -0.34308546943E+02 -0.25649666940E+02 -0.53845206767E+02  0.68806163237E+02  0.00000000000E+00 0. -1.
</event>
<event>
 4    1  0.6109945E+002  0.2500030E+02  0.7546771E-02  0.1468800E+00
          2   -1    0    0  503    0  0.00000000000E+00  0.00000000000E+00  0.19481555897E+03  0.19481555897E+03  0.00000000000E+00 0.  1.
         -2   -1    0    0    0  501 -0.00000000000E+00 -0.00000000000E+00 -0.47094296294E+01  0.47094296294E+01  0.00000000000E+00 0. -1.
         21    1    1    2  502  501  0.12965920703E+02  0.21375214010E+02  0.38728082121E+02  0.46096412208E+02  0.00000000000E+00 0. -1.
         21    1    1    2  503  502 -0.12965920703E+02 -0.21375214010E+02  0.15137804722E+03  0.15342857639E+03  0.00000000000E+00 0.  1.
</event>
<event>
 4    1  0.6109945E+002  0.2015479E+02  0.7546771E-02  0.1531683E+00
          2   -1    0    0  503    0  0.00000000000E+00  0.00000000000E+00  0.32276867970E+03  0.32276867970E+03  0.00000000000E+00 0.  1.
         -2   -1    0    0    0  501 -0.00000000000E+00 -0.00000000000E+00 -0.12662671017E+01  0.12662671017E+01  0.00000000000E+00 0. -1.
         21    1    1    2  502  501 -0.95288941567E+01  0.17759947728E+02  0.17341190924E+03  0.17457922510E+03  0.00000000000E+00 0.  1.
         21    1    1    2  503  502  0.95288941567E+01 -0.17759947728E+02  0.14809050336E+03  0.14945572171E+03  0.00000000000E+00 0. -1.
</event>
<event>
 4    1  0.6109945E+002  0.3317355E+02  0.7546771E-02  0.1393879E+00
          2   -1    0    0  502    0  0.00000000000E+00  0.00000000000E+00  0.13910943426E+03  0.13910943426E+03  0.00000000000E+00 0.  1.
         -2   -1    0    0    0  501 -0.00000000000E+00 -0.00000000000E+00 -0.43772072800E+02  0.43772072800E+02  0.00000000000E+00 0. -1.
         21    1    1    2  502  503 -0.10607328876E+02 -0.31431978938E+02  0.13043493755E+03  0.13458736070E+03  0.00000000000E+00 0.  1.
         21    1    1    2  503  501  0.10607328876E+02  0.31431978938E+02 -0.35097576088E+02  0.48294146365E+02  0.00000000000E+00 0. -1.
</event>
<event>
 4    1  0.6109945E+002  0.6482963E+02  0.7546771E-02  0.1244251E+00
          2   -1    0    0  502    0  0.00000000000E+00  0.00000000000E+00  0.52151085926E+02  0.52151085926E+02  0.00000000000E+00 0.  1.
         -2   -1    0    0    0  501 -0.00000000000E+00 -0.00000000000E+00 -0.82708599690E+02  0.82708599690E+02  0.00000000000E+00 0. -1.
         21    1    1    2  502  503  0.64229526288E+02 -0.88004831108E+01 -0.44879718873E+01  0.64984786233E+02  0.00000000000E+00 0. -1.
         21    1    1    2  503  501 -0.64229526288E+02  0.88004831108E+01 -0.26069541877E+02  0.69874899383E+02  0.00000000000E+00 0.  1.
</event>
<event>
 4    1  0.6109945E+002  0.6484183E+02  0.7546771E-02  0.1244213E+00
          2   -1    0    0  503    0  0.00000000000E+00  0.00000000000E+00  0.18086512708E+03  0.18086512708E+03  0.00000000000E+00 0.  1.
         -2   -1    0    0    0  501 -0.00000000000E+00 -0.00000000000E+00 -0.88315098396E+02  0.88315098396E+02  0.00000000000E+00 0. -1.
         21    1    1    2  502  501  0.29148063221E+02 -0.57921090818E+02 -0.69251521715E+02  0.94869571576E+02  0.00000000000E+00 0. -1.
         21    1    1    2  503  502 -0.29148063221E+02  0.57921090818E+02  0.16180155040E+03  0.17431065390E+03  0.00000000000E+00 0.  1.
</event>
<event>
 4    1  0.6109945E+002  0.2389102E+02  0.7546771E-02  0.1481603E+00
          2   -1    0    0  503    0  0.00000000000E+00  0.00000000000E+00  0.30012957735E+03  0.30012957735E+03  0.00000000000E+00 0. -1.
         -2   -1    0    0    0  501 -0.00000000000E+00 -0.00000000000E+00 -0.35189155101E+01  0.35189155101E+01  0.00000000000E+00 0.  1.
         21    1    1    2  502  501  0.23262563578E+02  0.54437263044E+01  0.45382989833E+02  0.51287394031E+02  0.00000000000E+00 0.  1.
         21    1    1    2  503  502 -0.23262563578E+02 -0.54437263044E+01  0.25122767201E+03  0.25236109883E+03  0.00000000000E+00 0. -1.
</event>
<event>
 4    1  0.6109945E+002  0.3122530E+02  0.7546771E-02  0.1409239E+00
          2   -1    0    0  502    0  0.00000000000E+00  0.00000000000E+00  0.16551167671E+04  0.16551167671E+04  0.00000000000E+00 0. -1.
         -2   -1    0    0    0  501 -0.00000000000E+00 -0.00000000000E+00 -0.63265092287E+00  0.63265092287E+00  0.00000000000E+00 0.  1.
         21    1    1    2  502  503 -0.11382266442E+02 -0.29076854987E+02  0.10444675308E+04  0.10449341809E+04  0.00000000000E+00 0. -1.
         21    1    1    2  503  501  0.11382266442E+02  0.29076854987E+02  0.61001658539E+03  0.61081523715E+03  0.00000000000E+00 0.  1.
</event>
<event>
 4    1  0.6109945E+002  0.2332042E+02  0.7546771E-02  0.1488513E+00
          2   -1    0    0  502    0  0.00000000000E+00  0.00000000000E+00  0.60486628957E+01  0.60486628957E+01  0.00000000000E+00 0.  1.
         -2   -1    0    0    0  501 -0.00000000000E+00 -0.00000000000E+00 -0.23741465853E+03  0.23741465853E+03  0.00000000000E+00 0. -1.
         21    1    1    2  502  503 -0.80604576113E+01  0.21883122738E+02 -0.19731666309E+02  0.30548006367E+02  0.00000000000E+00 0.  1.
         21    1    1    2  503  501  0.80604576113E+01 -0.21883122738E+02 -0.21163432932E+03  0.21291531506E+03  0.00000000000E+00 0. -1.
</event>
<event>
 4    1  0.6109945E+002  0.2238142E+02  0.7546771E-02  0.1500415E+00
          2   -1    0    0  502    0  0.00000000000E+00  0.00000000000E+00  0.42877450519E+01  0.42877450519E+01  0.00000000000E+00 0. -1.
         -2   -1    0    0    0  501 -0.00000000000E+00 -0.00000000000E+00 -0.16537646125E+03  0.16537646125E+03  0.00000000000E+00 0.  1.
         21    1    1    2  502  503  0.20688630271E+02  0.85386475921E+01 -0.12650773281E+03  0.12847230980E+03  0.00000000000E+00 0.  1.
         21    1    1    2  503  501 -0.20688630271E+02 -0.85386475921E+01 -0.34580983394E+02  0.41191896505E+02  0.00000000000E+00 0. -1.
</event>
<event>
 4    1  0.6109945E+002  0.2157109E+02  0.7546771E-02  0.1511265E+00
          2   -1    0    0  502    0  0.00000000000E+00  0.00000000000E+00  0.17189306832E+03  0.17189306832E+03  0.00000000000E+00 0.  1.
         -2   -1    0    0    0  501 -0.00000000000E+00 -0.00000000000E+00 -0.57309683885E+01  0.57309683885E+01  0.00000000000E+00 0. -1.
         21    1    1    2  502  503 -0.19490288120E+02  0.92433998234E+01  0.14759409065E+03  0.14916208421E+03  0.00000000000E+00 0.  1.
         21    1    1    2  503  501  0.19490288120E+02 -0.92433998234E+01  0.18568009280E+02  0.28461952496E+02  0.00000000000E+00 0. -1.
</event>
<event>
 4    1  0.6109945E+002  0.2017086E+02  0.7546771E-02  0.1531440E+00
          2   -1    0    0  502    0  0.00000000000E+00  0.00000000000E+00  0.12128622648E+03  0.12128622648E+03  0.00000000000E+00 0.  1.
         -2   -1    0    0    0  501 -0.00000000000E+00 -0.00000000000E+00 -0.46691986408E+01  0.46691986408E+01  0.00000000000E+00 0. -1.
         21    1    1    2  502  503 -0.11157332507E+02  0.16804097075E+02  0.91725434062E+02  0.93917085777E+02  0.00000000000E+00 0.  1.
         21    1    1    2  503  501  0.11157332507E+02 -0.16804097075E+02  0.24891593783E+02  0.32038339348E+02  0.00000000000E+00 0. -1.
</event>
<event>
 4    1  0.6109945E+002  0.2006201E+02  0.7546771E-02  0.1533090E+00
          2   -1    0    0  502    0  0.00000000000E+00  0.00000000000E+00  0.34698134112E+01  0.34698134112E+01  0.00000000000E+00 0.  1.
         -2   -1    0    0    0  501 -0.00000000000E+00 -0.00000000000E+00 -0.14046955256E+03  0.14046955256E+03  0.00000000000E+00 0. -1.
         21    1    1    2  502  503  0.11499847281E+02  0.16438914787E+02 -0.38459368255E+02  0.43377498930E+02  0.00000000000E+00 0. -1.
         21    1    1    2  503  501 -0.11499847281E+02 -0.16438914787E+02 -0.98540370890E+02  0.10056186704E+03  0.00000000000E+00 0.  1.
</event>
<event>
 4    1  0.6109945E+002  0.2750533E+02  0.7546771E-02  0.1442597E+00
          2   -1    0    0  503    0  0.00000000000E+00  0.00000000000E+00  0.73242187875E+03  0.73242187875E+03  0.00000000000E+00 0. -1.
         -2   -1    0    0    0  501 -0.00000000000E+00 -0.00000000000E+00 -0.32828980106E+01  0.32828980106E+01  0.00000000000E+00 0.  1.
         21    1    1    2  502  501  0.25386401366E+02  0.10586501364E+02  0.60037668686E+02  0.66038360418E+02  0.00000000000E+00 0.  1.
         21    1    1    2  503  502 -0.25386401366E+02 -0.10586501364E+02  0.66910131205E+03  0.66966641634E+03  0.00000000000E+00 0. -1.
</event>
<event>
 4    1  0.6109945E+002  0.2120888E+02  0.7546771E-02  0.1516303E+00
          2   -1    0    0  503    0  0.00000000000E+00  0.00000000000E+00  0.13593531061E+01  0.13593531061E+01  0.00000000000E+00 0. -1.
         -2   -1    0    0    0  501 -0.00000000000E+00 -0.00000000000E+00 -0.33217280147E+03  0.33217280147E+03  0.00000000000E+00 0.  1.
         21    1    1    2  502  501 -0.13961843049E+02 -0.15965065658E+02 -0.17571049650E+03  0.17698586091E+03  0.00000000000E+00 0.  1.
         21    1    1    2  503  502  0.13961843049E+02  0.15965065658E+02 -0.15510295186E+03  0.15654629366E+03  0.00000000000E+00 0. -1.
</event>
<event>
 4    1  0.6109945E+002  0.2436316E+02  0.7546771E-02  0.1476055E+00
          2   -1    0    0  502    0  0.00000000000E+00  0.00000000000E+00  0.16850125682E+04  0.16850125682E+04  0.00000000000E+00 0. -1.
         -2   -1    0    0    0  501 -0.00000000000E+00 -0.00000000000E+00 -0.71484415167E+00  0.71484415167E+00  0.00000000000E+00 0.  1.
         21    1    1    2  502  503 -0.74731618382E+01 -0.23188688471E+02  0.14424314695E+04  0.14426372059E+04  0.00000000000E+00 0. -1.
         21    1    1    2  503  501  0.74731618382E+01  0.23188688471E+02  0.24186625452E+03  0.24309020650E+03  0.00000000000E+00 0.  1.
</event>
