<event>
 4    1  0.5548812E+002  0.3676427E+02  0.7546771E-02  0.1368567E+00
          2   -1    0    0  502    0  0.00000000000E+00  0.00000000000E+00  0.17548026042E+04  0.17548026042E+04  0.00000000000E+00 0. -1.
         -2   -1    0    0    0  501 -0.00000000000E+00 -0.00000000000E+00 -0.41446714722E+01  0.41446714722E+01  0.00000000000E+00 0.  1.
         21    1    1    2  502  503 -0.31679567788E+01  0.36627523641E+02  0.16688863916E+04  0.16692912866E+04  0.00000000000E+00 0. -1.
         21    1    1    2  503  501  0.31679567788E+01 -0.36627523641E+02  0.81771541093E+02  0.89655989041E+02  0.00000000000E+00 0.  1.
</event>
<event>
 4    1  0.5548812E+002  0.3195878E+02  0.7546771E-02  0.1403305E+00
          2   -1    0    0  502    0  0.00000000000E+00  0.00000000000E+00  0.16321178906E+01  0.16321178906E+01  0.00000000000E+00 0. -1.
         -2   -1    0    0    0  501 -0.00000000000E+00 -0.00000000000E+00 -0.68919898442E+03  0.68919898442E+03  0.00000000000E+00 0.  1.
         21    1    1    2  502  503 -0.23324311669E+02  0.21848108210E+02 -0.23901164491E+03  0.24113881842E+03  0.00000000000E+00 0. -1.
         21    1    1    2  503  501  0.23324311669E+02 -0.21848108210E+02 -0.44855522163E+03  0.44969228390E+03  0.00000000000E+00 0.  1.
</event>
<event>
 4    1  0.5548812E+002  0.3518746E+02  0.7546771E-02  0.1379250E+00
          2   -1    0    0  503    0  0.00000000000E+00  0.00000000000E+00  0.13766282713E+04  0.13766282713E+04  0.00000000000E+00 0. -1.
         -2   -1    0    0    0  501 -0.00000000000E+00 -0.00000000000E+00 -0.10167150733E+01  0.10167150733E+01  0.00000000000E+00 0.  1.
         21    1    1    2  502  501  0.32631607374E+02  0.13165704280E+02  0.45383573405E+03  0.45519779335E+03  0.00000000000E+00 0.  1.
         21    1    1    2  503  502 -0.32631607374E+02 -0.13165704280E+02  0.92177582215E+03  0.92244719299E+03  0.00000000000E+00 0. -1.
</event>
<event>
 4    1  0.5548812E+002  0.2858959E+02  0.7546771E-02  0.1432262E+00
          2   -1    0    0  503    0  0.00000000000E+00  0.00000000000E+00  0.48852442306E+03  0.48852442306E+03  0.00000000000E+00 0. -1.
         -2   -1    0    0    0  501 -0.00000000000E+00 -0.00000000000E+00 -0.21191012581E+01  0.21191012581E+01  0.00000000000E+00 0.  1.
         21    1    1    2  502  501  0.28142360551E+02  0.50370997926E+01  0.35574441819E+03  0.35689137830E+03  0.00000000000E+00 0. -1.
         21    1    1    2  503  502 -0.28142360551E+02 -0.50370997926E+01  0.13066090360E+03  0.13375214601E+03  0.00000000000E+00 0.  1.
</event>
<event>
 4    1  0.5548812E+002  0.3371818E+02  0.7546771E-02  0.1389806E+00
          2   -1    0    0  503    0  0.00000000000E+00  0.00000000000E+00  0.11642729199E+03  0.11642729199E+03  0.00000000000E+00 0. -1.
         -2   -1    0    0    0  501 -0.00000000000E+00 -0.00000000000E+00 -0.25074641488E+02  0.25074641488E+02  0.00000000000E+00 0.  1.
         21    1    1    2  502  501  0.19900569342E+02 -0.27219161620E+02 -0.96073831752E+01  0.35060194393E+02  0.00000000000E+00 0.  1.
         21    1    1    2  503  502 -0.19900569342E+02  0.27219161620E+02  0.10096003368E+03  0.10644173909E+03  0.00000000000E+00 0. -1.
</event>
<event>
 4    1  0.5548812E+002  0.2805695E+02  0.7546771E-02  0.1437270E+00
          2   -1    0    0  503    0  0.00000000000E+00  0.00000000000E+00  0.78307653284E+03  0.78307653284E+03  0.00000000000E+00 0. -1.
         -2   -1    0    0    0  501 -0.00000000000E+00 -0.00000000000E+00 -0.66615505899E+01  0.66615505899E+01  0.00000000000E+00 0.  1.
         21    1    1    2  502  501  0.38881100642E+01  0.27786241410E+02  0.24349917193E+02  0.37149846283E+02  0.00000000000E+00 0.  1.
         21    1    1    2  503  502 -0.38881100642E+01 -0.27786241410E+02  0.75206506506E+03  0.75258823715E+03  0.00000000000E+00 0. -1.
</event>
<event>
 4    1  0.5548812E+002  0.2114312E+02  0.7546771E-02  0.1517231E+00
          2   -1    0    0  503    0  0.00000000000E+00  0.00000000000E+00  0.62778491339E+01  0.62778491339E+01  0.00000000000E+00 0. -1.
         -2   -1    0    0    0  501 -0.00000000000E+00 -0.00000000000E+00 -0.78549206408E+02  0.78549206408E+02  0.00000000000E+00 0.  1.
         21    1    1    2  502  501 -0.14946151482E+02 -0.14954733097E+02 -0.49102237273E+02  0.53460837922E+02  0.00000000000E+00 0.  1.
         21    1    1    2  503  502  0.14946151482E+02  0.14954733097E+02 -0.23169120002E+02  0.31366217620E+02  0.00000000000E+00 0. -1.
</event>
<event>
 4    1  0.5548812E+002  0.2341985E+02  0.7546771E-02  0.1487292E+00
          2   -1    0    0  503    0  0.00000000000E+00  0.00000000000E+00  0.10100106818E+04  0.10100106818E+04  0.00000000000E+00 0. -1.
         -2   -1    0    0    0  501 -0.00000000000E+00 -0.00000000000E+00 -0.59784160153E+00  0.59784160153E+00  0.00000000000E+00 0.  1.
         21    1    1    2  502  501 -0.10519251030E+02  0.20924501468E+02  0.65767587364E+03  0.65809273220E+03  0.00000000000E+00 0. -1.
         21    1    1    2  503  502  0.10519251030E+02 -0.20924501468E+02  0.35173696653E+03  0.35251579117E+03  0.00000000000E+00 0.  1.
</event>
<event>
 4    1  0.5548812E+002  0.2889877E+02  0.7546771E-02  0.1429414E+00
          2   -1    0    0  503    0  0.00000000000E+00  0.00000000000E+00  0.33253605075E+02  0.33253605075E+02  0.00000000000E+00 0.  1.
         -2   -1    0    0    0  501 -0.00000000000E+00 -0.00000000000E+00 -0.20408126504E+03  0.20408126504E+03  0.00000000000E+00 0. -1.
         21    1    1    2  502  501  0.18323905819E+02 -0.22346662996E+02 -0.19654003961E+03  0.19865328098E+03  0.00000000000E+00 0. -1.
         21    1    1    2  503  502 -0.18323905819E+02  0.22346662996E+02  0.25712379644E+02  0.38681589142E+02  0.00000000000E+00 0.  1.
</event>
<event>
 4    1  0.5548812E+002  0.2132723E+02  0.7546771E-02  0.1514644E+00
          2   -1    0    0  503    0  0.00000000000E+00  0.00000000000E+00  0.68411833940E+03  0.68411833940E+03  0.00000000000E+00 0.  1.
         -2   -1    0    0    0  501 -0.00000000000E+00 -0.00000000000E+00 -0.20131677750E+01  0.20131677750E+01  0.00000000000E+00 0. -1.
         21    1    1    2  502  501 -0.19426150211E+02  0.88020007305E+01  0.60295898201E+02  0.63956593630E+02  0.00000000000E+00 0. -1.
         21    1    1    2  503  502  0.19426150211E+02 -0.88020007305E+01  0.62180927342E+03  0.62217491354E+03  0.00000000000E+00 0.  1.
</event>
<event>
 4    1  0.5548812E+002  0.2018093E+02  0.7546771E-02  0.1531288E+00
          2   -1    0    0  502    0  0.00000000000E+00  0.00000000000E+00  0.16324507130E+03  0.16324507130E+03  0.00000000000E+00 0.  1.
         -2   -1    0    0    0  501 -0.00000000000E+00 -0.00000000000E+00 -0.34128762754E+01  0.34128762754E+01  0.00000000000E+00 0. -1.
         21    1    1    2  502  503 -0.14192627675E+02  0.14347094023E+02  0.12313427754E+03  0.12477708160E+03  0.00000000000E+00 0.  1.
         21    1    1    2  503  501  0.14192627675E+02 -0.14347094023E+02  0.36697917489E+02  0.41880865980E+02  0.00000000000E+00 0. -1.
</event>
<event>
 4    1  0.5548812E+002  0.2731180E+02  0.7546771E-02  0.1444501E+00
          2   -1    0    0  503    0  0.00000000000E+00  0.00000000000E+00  0.16068667741E+04  0.16068667741E+04  0.00000000000E+00 0.  1.
         -2   -1    0    0    0  501 -0.00000000000E+00 -0.00000000000E+00 -0.11777496818E+01  0.11777496818E+01  0.00000000000E+00 0. -1.
         21    1    1    2  502  501 -0.12715696154E+02  0.24171168668E+02  0.17702569854E+03  0.17912016153E+03  0.00000000000E+00 0. -1.
         21    1    1    2  503  502  0.12715696154E+02 -0.24171168668E+02  0.14286633259E+04  0.14289243623E+04  0.00000000000E+00 0.  1.
</event>
<event>
 4    1  0.5548812E+002  0.2872379E+02  0.7546771E-02  0.1431021E+00
          2   -1    0    0  502    0  0.00000000000E+00  0.00000000000E+00  0.20953320364E+03  0.20953320364E+03  0.00000000000E+00 0. -1.
         -2   -1    0    0    0  501 -0.00000000000E+00 -0.00000000000E+00 -0.50711282772E+01  0.50711282772E+01  0.00000000000E+00 0.  1.
         21    1    1    2  502  503 -0.46787836082E+01  0.28340168675E+02  0.15296210323E+03  0.15563566816E+03  0.00000000000E+00 0. -1.
         21    1    1    2  503  501  0.46787836082E+01 -0.28340168675E+02  0.51499972131E+02  0.58968663764E+02  0.00000000000E+00 0.  1.
</event>
<event>
 4    1  0.5548812E+002  0.2041372E+02  0.7546771E-02  0.1527802E+00
          2   -1    0    0  502    0  0.00000000000E+00  0.00000000000E+00  0.38413397311E+03  0.38413397311E+03  0.00000000000E+00 0.  1.
         -2   -1    0    0    0  501 -0.00000000000E+00 -0.00000000000E+00 -0.23106061815E+01  0.23106061815E+01  0.00000000000E+00 0. -1.
         21    1    1    2  502  503  0.17013194498E+02  0.11281446412E+02  0.33164598351E+03  0.33227364957E+03  0.00000000000E+00 0.  1.
         21    1    1    2  503  501 -0.17013194498E+02 -0.11281446412E+02  0.50177383417E+02  0.54170929720E+02  0.00000000000E+00 0. -1.
</event>
<event>
 4    1  0.5548812E+002  0.2983687E+02  0.7546771E-02  0.1421019E+00
          2   -1    0    0  503    0  0.00000000000E+00  0.00000000000E+00  0.57443391730E+01  0.57443391730E+01  0.00000000000E+00 0. -1.
         -2   -1    0    0    0  501 -0.00000000000E+00 -0.00000000000E+00 -0.18153357398E+03  0.18153357398E+03  0.00000000000E+00 0.  1.
         21    1    1    2  502  501  0.24914990512E+02 -0.16415912432E+02 -0.12370972598E+03  0.12725696537E+03  0.00000000000E+00 0. -1.
         21    1    1    2  503  502 -0.24914990512E+02  0.16415912432E+02 -0.52079508835E+02  0.60020947791E+02  0.00000000000E+00 0.  1.
</event>
<event>
 4    1  0.5548812E+002  0.3135911E+02  0.7546771E-02  0.1408142E+00
          2   -1    0    0  502    0  0.00000000000E+00  0.00000000000E+00  0.29311594639E+03  0.29311594639E+03  0.00000000000E+00 0.  1.
         -2   -1    0    0    0  501 -0.00000000000E+00 -0.00000000000E+00 -0.43261142734E+01  0.43261142734E+01  0.00000000000E+00 0. -1.
         21    1    1    2  502  503  0.29146707064E+02 -0.11569932848E+02  0.21485875199E+03  0.21713515880E+03  0.00000000000E+00 0.  1.
         21    1    1    2  503  501 -0.29146707064E+02  0.11569932848E+02  0.73931080125E+02  0.80306901866E+02  0.00000000000E+00 0. -1.
</event>
<event>
 4    1  0.5548812E+002  0.4338205E+02  0.7546771E-02  0.1329731E+00
          2   -1    0    0  502    0  0.00000000000E+00  0.00000000000E+00  0.28405771008E+03  0.28405771008E+03  0.00000000000E+00 0. -1.
         -2   -1    0    0    0  501 -0.00000000000E+00 -0.00000000000E+00 -0.11654171398E+02  0.11654171398E+02  0.00000000000E+00 0.  1.
         21    1    1    2  502  503 -0.33519912809E+02  0.27539384550E+02  0.23332610626E+03  0.23732482828E+03  0.00000000000E+00 0. -1.
         21    1    1    2  503  501  0.33519912809E+02 -0.27539384550E+02  0.39077432415E+02  0.58387053191E+02  0.00000000000E+00 0.  1.
</event>
<event>
 4    1  0.5548812E+002  0.2942183E+02  0.7546771E-02  0.1424688E+00
          2   -1    0    0  502    0  0.00000000000E+00  0.00000000000E+00  0.10443190734E+04  0.10443190734E+04  0.00000000000E+00 0.  1.
         -2   -1    0    0    0  501 -0.00000000000E+00 -0.00000000000E+00 -0.20892552189E+01  0.20892552189E+01  0.00000000000E+00 0. -1.
         21    1    1    2  502  503 -0.79878901794E+01 -0.28316735091E+02  0.92748397439E+03  0.92795051950E+03  0.00000000000E+00 0.  1.
         21    1    1    2  503  501  0.79878901794E+01  0.28316735091E+02  0.11474584379E+03  0.11845780912E+03  0.00000000000E+00 0. -1.
</event>
<event>
 4    1  0.5548812E+002  0.2609240E+02  0.7546771E-02  0.1456944E+00
          2   -1    0    0  503    0  0.00000000000E+00  0.00000000000E+00  0.93922912042E+03  0.93922912042E+03  0.00000000000E+00 0.  1.
         -2   -1    0    0    0  501 -0.00000000000E+00 -0.00000000000E+00 -0.12832003195E+01  0.12832003195E+01  0.00000000000E+00 0. -1.
         21    1    1    2  502  501 -0.25541936626E+02  0.53313280234E+01  0.15877772835E+03  0.16090736653E+03  0.00000000000E+00 0. -1.
         21    1    1    2  503  502  0.25541936626E+02 -0.53313280234E+01  0.77916819175E+03  0.77960495421E+03  0.00000000000E+00 0.  1.
</event>
<event>
 4    1  0.5548812E+002  0.3268823E+02  0.7546771E-02  0.1397587E+00
          2   -1    0    0  503    0  0.00000000000E+00  0.00000000000E+00  0.88148543792E+03  0.88148543792E+03  0.00000000000E+00 0.  1.
         -2   -1    0    0    0  501 -0.00000000000E+00 -0.00000000000E+00 -0.12135736510E+01  0.12135736510E+01  0.00000000000E+00 0. -1.
         21    1    1    2  502  501  0.26244812036E+02 -0.19486662764E+02  0.42518665046E+03  0.42644132998E+03  0.00000000000E+00 0. -1.
         21    1    1    2  503  502 -0.26244812036E+02  0.19486662764E+02  0.45508521381E+03  0.45625768159E+03  0.00000000000E+00 0.  1.
</event>
<event>
 4    1  0.5548812E+002  0.2431704E+02  0.7546771E-02  0.1476591E+00
          2   -1    0    0  502    0  0.00000000000E+00  0.00000000000E+00  0.10640271226E+03  0.10640271226E+03  0.00000000000E+00 0.  1.
         -2   -1    0    0    0  501 -0.00000000000E+00 -0.00000000000E+00 -0.94736359679E+01  0.94736359679E+01  0.00000000000E+00 0. -1.
         21    1    1    2  502  503  0.83745878604E+00  0.24302611023E+02  0.85715978466E+02  0.89098525263E+02  0.00000000000E+00 0.  1.
         21    1    1    2  503  501 -0.83745878604E+00 -0.24302611023E+02  0.11213097824E+02  0.26777822962E+02  0.00000000000E+00 0. -1.
</event>
<event>
 4    1  0.5548812E+002  0.4277551E+02  0.7546771E-02  0.1332946E+00
          2   -1    0    0  502    0  0.00000000000E+00  0.00000000000E+00  0.10642626852E+02  0.10642626852E+02  0.00000000000E+00 0. -1.
         -2   -1    0    0    0  501 -0.00000000000E+00 -0.00000000000E+00 -0.34402524607E+03  0.34402524607E+03  0.00000000000E+00 0.  1.
         21    1    1    2  502  503 -0.38078501561E+02 -0.19487734505E+02 -0.41265704880E+02  0.59435700353E+02  0.00000000000E+00 0. -1.
         21    1    1    2  503  501  0.38078501561E+02  0.19487734505E+02 -0.29211691434E+03  0.29523217257E+03  0.00000000000E+00 0.  1.
</event>
<event>
 4    1  0.5548812E+002  0.3829113E+02  0.7546771E-02  0.1358801E+00
          2   -1    0    0  503    0  0.00000000000E+00  0.00000000000E+00  0.56363545430E+03  0.56363545430E+03  0.00000000000E+00 0. -1.
         -2   -1    0    0    0  501 -0.00000000000E+00 -0.00000000000E+00 -0.12468538829E+02  0.12468538829E+02  0.00000000000E+00 0.  1.
         21    1    1    2  502  501 -0.28749366777E+01  0.38183047261E+02  0.19335781901E+02  0.42896186553E+02  0.00000000000E+00 0.  1.
         21    1    1    2  503  502  0.28749366777E+01 -0.38183047261E+02  0.53183113357E+03  0.53320780658E+03  0.00000000000E+00 0. -1.
</event>
<event>
 4    1  0.5548812E+002  0.2322414E+02  0.7546771E-02  0.1489703E+00
          2   -1    0    0  503    0  0.00000000000E+00  0.00000000000E+00  0.62227790389E+02  0.62227790389E+02  0.00000000000E+00 0.  1.
         -2   -1    0    0    0  501 -0.00000000000E+00 -0.00000000000E+00 -0.15469748969E+02  0.15469748969E+02  0.00000000000E+00 0. -1.
         21    1    1    2  502  501  0.22134275988E+02 -0.70309588901E+01 -0.23818946703E+01  0.23345962791E+02  0.00000000000E+00 0. -1.
         21    1    1    2  503  502 -0.22134275988E+02  0.70309588901E+01  0.49139936090E+02  0.54351576567E+02  0.00000000000E+00 0.  1.
</event>
<event>
 4    1  0.5548812E+002  0.2431127E+02  0.7546771E-02  0.1476658E+00
          2   -1    0    0  503    0  0.00000000000E+00  0.00000000000E+00  0.12311157674E+03  0.12311157674E+03  0.00000000000E+00 0. -1.
         -2   -1    0    0    0  501 -0.00000000000E+00 -0.00000000000E+00 -0.61086023721E+01  0.61086023721E+01  0.00000000000E+00 0.  1.
         21    1    1    2  502  501 -0.22892741707E+02  0.81829337697E+01  0.28606723803E+02  0.37541745760E+02  0.00000000000E+00 0.  1.
         21    1    1    2  503  502  0.22892741707E+02 -0.81829337697E+01  0.88396250565E+02  0.91678433352E+02  0.00000000000E+00 0. -1.
</event>
<event>
 4    1  0.5548812E+002  0.2224649E+02  0.7546771E-02  0.1502183E+00
          2   -1    0    0  503    0  0.00000000000E+00  0.00000000000E+00  0.75516267997E+03  0.75516267997E+03  0.00000000000E+00 0. -1.
         -2   -1    0    0    0  501 -0.00000000000E+00 -0.00000000000E+00 -0.12786179768E+01  0.12786179768E+01  0.00000000000E+00 0.  1.
         21    1    1    2  502  501 -0.26149147214E+01 -0.22092275344E+02  0.11287914015E+03  0.11505045280E+03  0.00000000000E+00 0.  1.
         21    1    1    2  503  502  0.26149147214E+01  0.22092275344E+02  0.64100492184E+03  0.64139084514E+03  0.00000000000E+00 0. -1.
</event>
<event>
 4    1  0.5548812E+002  0.2391083E+02  0.7546771E-02  0.1481367E+00
          2   -1    0    0  502    0  0.00000000000E+00  0.00000000000E+00  0.10038801102E+03  0.10038801102E+03  0.00000000000E+00 0. -1.
         -2   -1    0    0    0  501 -0.00000000000E+00 -0.00000000000E+00 -0.59764702542E+01  0.59764702542E+01  0.00000000000E+00 0.  1.
         21    1    1    2  502  503 -0.22543666736E+02  0.79693852791E+01  0.58743488055E+02  0.63423382128E+02  0.00000000000E+00 0. -1.
         21    1    1    2  503  501  0.22543666736E+02 -0.79693852791E+01  0.35668052705E+02  0.42941099141E+02  0.00000000000E+00 0.  1.
</event>
<event>
 4    1  0.5548812E+002  0.4093721E+02  0.7546771E-02  0.1343080E+00
          2   -1    0    0  503    0  0.00000000000E+00  0.00000000000E+00  0.22376835629E+04  0.22376835629E+04  0.00000000000E+00 0.  1.
         -2   -1    0    0    0  501 -0.00000000000E+00 -0.00000000000E+00 -0.81344426006E+00  0.81344426006E+00  0.00000000000E+00 0. -1.
         21    1    1    2  502  501 -0.34738449204E+02  0.21658599775E+02  0.80321716105E+03  0.80425969849E+03  0.00000000000E+00 0. -1.
         21    1    1    2  503  502  0.34738449204E+02 -0.21658599775E+02  0.14336529576E+04  0.14342373087E+04  0.00000000000E+00 0.  1.
</event>
<event>
 4    1  0.5548812E+002  0.3279963E+02  0.7546771E-02  0.1396729E+00
          2   -1    0    0  503    0  0.00000000000E+00  0.00000000000E+00  0.21902786560E+03  0.21902786560E+03  0.00000000000E+00 0. -1.
         -2   -1    0    0    0  501 -0.00000000000E+00 -0.00000000000E+00 -0.71738965953E+01  0.71738965953E+01  0.00000000000E+00 0.  1.
         21    1    1    2  502  501  0.29955273252E+02  0.13360289915E+02  0.42416366288E+02  0.53618689571E+02  0.00000000000E+00 0.  1.
         21    1    1    2  503  502 -0.29955273252E+02 -0.13360289915E+02  0.16943760272E+03  0.17258307263E+03  0.00000000000E+00 0. -1.
</event>
<event>
 4    1  0.5548812E+002  0.3102309E+02  0.7546771E-02  0.1410909E+00
          2   -1    0    0  502    0  0.00000000000E+00  0.00000000000E+00  0.11082078989E+04  0.11082078989E+04  0.00000000000E+00 0.  1.
         -2   -1    0    0    0  501 -0.00000000000E+00 -0.00000000000E+00 -0.39449919167E+01  0.39449919167E+01  0.00000000000E+00 0. -1.
         21    1    1    2  502  503 -0.18693635051E+02  0.24758438124E+02  0.10432001824E+04  0.10436613688E+04  0.00000000000E+00 0.  1.
         21    1    1    2  503  501  0.18693635051E+02 -0.24758438124E+02  0.61062724626E+02  0.68491522020E+02  0.00000000000E+00 0. -1.
</event>
<event>
 4    1  0.5548812E+002  0.2539101E+02  0.7546771E-02  0.1464476E+00
          2   -1    0    0  502    0  0.00000000000E+00  0.00000000000E+00  0.12312953248E+01  0.12312953248E+01  0.00000000000E+00 0.  1.
         -2   -1    0    0    0  501 -0.00000000000E+00 -0.00000000000E+00 -0.67945354969E+03  0.67945354969E+03  0.00000000000E+00 0. -1.
         21    1    1    2  502  503 -0.89821171701E+01  0.23749209445E+02 -0.17610730867E+03  0.17792832137E+03  0.00000000000E+00 0.  1.
         21    1    1    2  503  501  0.89821171701E+01 -0.23749209445E+02 -0.50211494569E+03  0.50275652364E+03  0.00000000000E+00 0. -1.
</event>
<event>
 4    1  0.5548812E+002  0.2314666E+02  0.7546771E-02  0.1490665E+00
          2   -1    0    0  503    0  0.00000000000E+00  0.00000000000E+00  0.12814061977E+04  0.12814061977E+04  0.00000000000E+00 0.  1.
         -2   -1    0    0    0  501 -0.00000000000E+00 -0.00000000000E+00 -0.27727279792E+01  0.27727279792E+01  0.00000000000E+00 0. -1.
         21    1    1    2  502  501  0.20125245377E+02 -0.11434258572E+02  0.47615863907E+02  0.52943727354E+02  0.00000000000E+00 0. -1.
         21    1    1    2  503  502 -0.20125245377E+02  0.11434258572E+02  0.12310176059E+04  0.12312351984E+04  0.00000000000E+00 0.  1.
</event>
<event>
 4    1  0.5548812E+002  0.2283983E+02  0.7546771E-02  0.1494519E+00
          2   -1    0    0  502    0  0.00000000000E+00  0.00000000000E+00  0.19295010564E+03  0.19295010564E+03  0.00000000000E+00 0.  1.
         -2   -1    0    0    0  501 -0.00000000000E+00 -0.00000000000E+00 -0.14011128867E+02  0.14011128867E+02  0.00000000000E+00 0. -1.
         21    1    1    2  502  503  0.14775558022E+02 -0.17416676408E+02  0.18243171466E+03  0.18385588988E+03  0.00000000000E+00 0.  1.
         21    1    1    2  503  501 -0.14775558022E+02  0.17416676408E+02 -0.34927378895E+01  0.23105344619E+02  0.00000000000E+00 0. -1.
</event>
<event>
 4    1  0.5548812E+002  0.3389830E+02  0.7546771E-02  0.1388478E+00
          2   -1    0    0  503    0  0.00000000000E+00  0.00000000000E+00  0.22538349889E+03  0.22538349889E+03  0.00000000000E+00 0. -1.
         -2   -1    0    0    0  501 -0.00000000000E+00 -0.00000000000E+00 -0.58435029897E+01  0.58435029897E+01  0.00000000000E+00 0.  1.
         21    1    1    2  502  501 -0.30445090671E+02 -0.14906071551E+02  0.68486071507E+02  0.76416205778E+02  0.00000000000E+00 0.  1.
         21    1    1    2  503  502  0.30445090671E+02  0.14906071551E+02  0.15105392439E+03  0.15481079610E+03  0.00000000000E+00 0. -1.
</event>
<event>
 4    1  0.5548812E+002  0.2756158E+02  0.7546771E-02  0.1442047E+00
          2   -1    0    0  502    0  0.00000000000E+00  0.00000000000E+00  0.49414183719E+03  0.49414183719E+03  0.00000000000E+00 0.  1.
         -2   -1    0    0    0  501 -0.00000000000E+00 -0.00000000000E+00 -0.84591208270E+01  0.84591208270E+01  0.00000000000E+00 0. -1.
         21    1    1    2  502  503 -0.24048424754E+02 -0.13465291470E+02  0.47016316391E+03  0.47097031914E+03  0.00000000000E+00 0.  1.
         21    1    1    2  503  501  0.24048424754E+02  0.13465291470E+02  0.15519552444E+02  0.31630638874E+02  0.00000000000E+00 0. -1.
</event>
<event>
 4    1  0.5548812E+002  0.2697711E+02  0.7546771E-02  0.1447838E+00
          2   -1    0    0  502    0  0.00000000000E+00  0.00000000000E+00  0.58651403445E+02  0.58651403445E+02  0.00000000000E+00 0. -1.
         -2   -1    0    0    0  501 -0.00000000000E+00 -0.00000000000E+00 -0.14437614732E+02  0.14437614732E+02  0.00000000000E+00 0.  1.
         21    1    1    2  502  503  0.22953859849E+02  0.14173380111E+02  0.35807784697E+02  0.44832597858E+02  0.00000000000E+00 0. -1.
         21    1    1    2  503  501 -0.22953859849E+02 -0.14173380111E+02  0.84060040162E+01  0.28256420320E+02  0.00000000000E+00 0.  1.
</event>
<event>
 4    1  0.5548812E+002  0.2379223E+02  0.7546771E-02  0.1482783E+00
          2   -1    0    0  502    0  0.00000000000E+00  0.00000000000E+00  0.11695796245E+02  0.11695796245E+02  0.00000000000E+00 0. -1.
         -2   -1    0    0    0  501 -0.00000000000E+00 -0.00000000000E+00 -0.48808790547E+02  0.48808790547E+02  0.00000000000E+00 0.  1.
         21    1    1    2  502  503 -0.17233330065E+02  0.16403732819E+02 -0.15786041438E+02  0.28552919637E+02  0.00000000000E+00 0.  1.
         21    1    1    2  503  501  0.17233330065E+02 -0.16403732819E+02 -0.21326952864E+02  0.31951667155E+02  0.00000000000E+00 0. -1.
</event>
<event>
 4    1  0.5548812E+002  0.2305215E+02  0.7546771E-02  0.1491844E+00
          2   -1    0    0  503    0  0.00000000000E+00  0.00000000000E+00  0.21050631933E+02  0.21050631933E+02  0.00000000000E+00 0.  1.
         -2   -1    0    0    0  501 -0.00000000000E+00 -0.00000000000E+00 -0.25429623388E+02  0.25429623388E+02  0.00000000000E+00 0. -1.
         21    1    1    2  502  501  0.22389671637E+02 -0.54867108894E+01 -0.20373403254E+00  0.23053045351E+02  0.00000000000E+00 0. -1.
         21    1    1    2  503  502 -0.22389671637E+02  0.54867108894E+01 -0.41752574226E+01  0.23427209969E+02  0.00000000000E+00 0.  1.
</event>
<event>
 4    1  0.5548812E+002  0.2536575E+02  0.7546771E-02  0.1464753E+00
          2   -1    0    0  503    0  0.00000000000E+00  0.00000000000E+00  0.15730727776E+04  0.15730727776E+04  0.00000000000E+00 0.  1.
         -2   -1    0    0    0  501 -0.00000000000E+00 -0.00000000000E+00 -0.85911229663E+00  0.85911229663E+00  0.00000000000E+00 0. -1.
         21    1    1    2  502  501 -0.12169765295E+02 -0.22255742770E+02  0.21649260643E+03  0.21797355324E+03  0.00000000000E+00 0. -1.
         21    1    1    2  503  502  0.12169765295E+02  0.22255742770E+02  0.13557210589E+04  0.13559583367E+04  0.00000000000E+00 0.  1.
</event>
<event>
 4    1  0.5548812E+002  0.2209369E+02  0.7546771E-02  0.1504203E+00
          2   -1    0    0  503    0  0.00000000000E+00  0.00000000000E+00  0.29009713368E+03  0.29009713368E+03  0.00000000000E+00 0. -1.
         -2   -1    0    0    0  501 -0.00000000000E+00 -0.00000000000E+00 -0.16900430773E+01  0.16900430773E+01  0.00000000000E+00 0.  1.
         21    1    1    2  502  501 -0.46307893436E+00  0.22088839635E+02  0.13455266099E+03  0.13635450069E+03  0.00000000000E+00 0.  1.
         21    1    1    2  503  502  0.46307893436E+00 -0.22088839635E+02  0.15385442962E+03  0.15543267607E+03  0.00000000000E+00 0. -1.
</event>
<event>
 4    1  0.5548812E+002  0.3054014E+02  0.7546771E-02  0.1414960E+00
          2   -1    0    0  503    0  0.00000000000E+00  0.00000000000E+00  0.10331087991E+01  0.10331087991E+01  0.00000000000E+00 0.  1.
         -2   -1    0    0    0  501 -0.00000000000E+00 -0.00000000000E+00 -0.14773771412E+04  0.14773771412E+04  0.00000000000E+00 0. -1.
         21    1    1    2  502  501 -0.10854391073E+02 -0.28546139172E+02 -0.11991604960E+04  0.11995493300E+04  0.00000000000E+00 0. -1.
         21    1    1    2  503  502  0.10854391073E+02  0.28546139172E+02 -0.27718353640E+03  0.27886092003E+03  0.00000000000E+00 0.  1.
</event>
<event>
 4    1  0.5548812E+002  0.2051638E+02  0.7546771E-02  0.1526283E+00
          2   -1    0    0  503    0  0.00000000000E+00  0.00000000000E+00  0.13920654304E+03  0.13920654304E+03  0.00000000000E+00 0.  1.
         -2   -1    0    0    0  501 -0.00000000000E+00 -0.00000000000E+00 -0.34908479930E+01  0.34908479930E+01  0.00000000000E+00 0. -1.
         21    1    1    2  502  501  0.84355203163E+01  0.18701979319E+02  0.41758052578E+02  0.46525874399E+02  0.00000000000E+00 0. -1.
         21    1    1    2  503  502 -0.84355203163E+01 -0.18701979319E+02  0.93957642468E+02  0.96171516633E+02  0.00000000000E+00 0.  1.
</event>
<event>
 4    1  0.5548812E+002  0.2544437E+02  0.7546771E-02  0.1463893E+00
          2   -1    0    0  502    0  0.00000000000E+00  0.00000000000E+00  0.72027559507E+03  0.72027559507E+03  0.00000000000E+00 0. -1.
         -2   -1    0    0    0  501 -0.00000000000E+00 -0.00000000000E+00 -0.14877691594E+02  0.14877691594E+02  0.00000000000E+00 0.  1.
         21    1    1    2  502  503  0.15384611054E+02 -0.20266462295E+02  0.70899894076E+03  0.70945536417E+03  0.00000000000E+00 0. -1.
         21    1    1    2  503  501 -0.15384611054E+02  0.20266462295E+02 -0.36010372789E+01  0.25697922499E+02  0.00000000000E+00 0.  1.
</event>
<event>
 4    1  0.5548812E+002  0.2870931E+02  0.7546771E-02  0.1431154E+00
          2   -1    0    0  503    0  0.00000000000E+00  0.00000000000E+00  0.22645666921E+04  0.22645666921E+04  0.00000000000E+00 0.  1.
         -2   -1    0    0    0  501 -0.00000000000E+00 -0.00000000000E+00 -0.41216168467E+00  0.41216168467E+00  0.00000000000E+00 0. -1.
         21    1    1    2  502  501  0.44723968383E+01  0.28358807207E+02  0.74481389873E+03  0.74536700223E+03  0.00000000000E+00 0. -1.
         21    1    1    2  503  502 -0.44723968383E+01 -0.28358807207E+02  0.15193406317E+04  0.15196118516E+04  0.00000000000E+00 0.  1.
</event>
<event>
 4    1  0.5548812E+002  0.2144230E+02  0.7546771E-02  0.1513043E+00
          2   -1    0    0  503    0  0.00000000000E+00  0.00000000000E+00  0.43831459096E+03  0.43831459096E+03  0.00000000000E+00 0. -1.
         -2   -1    0    0    0  501 -0.00000000000E+00 -0.00000000000E+00 -0.16510981363E+01  0.16510981363E+01  0.00000000000E+00 0.  1.
         21    1    1    2  502  501 -0.62801088439E+01 -0.20502012353E+02  0.85484595906E+02  0.88132788534E+02  0.00000000000E+00 0.  1.
         21    1    1    2  503  502  0.62801088439E+01  0.20502012353E+02  0.35117889692E+03  0.35183290056E+03  0.00000000000E+00 0. -1.
</event>
<event>
 4    1  0.5548812E+002  0.2223111E+02  0.7546771E-02  0.1502386E+00
          2   -1    0    0  503    0  0.00000000000E+00  0.00000000000E+00  0.57728459614E+01  0.57728459614E+01  0.00000000000E+00 0. -1.
         -2   -1    0    0    0  501 -0.00000000000E+00 -0.00000000000E+00 -0.26273872371E+03  0.26273872371E+03  0.00000000000E+00 0.  1.
         21    1    1    2  502  501  0.51410967559E+01  0.21628485161E+02 -0.23871643224E+03  0.23974936343E+03  0.00000000000E+00 0.  1.
         21    1    1    2  503  502 -0.51410967559E+01 -0.21628485161E+02 -0.18249445509E+02  0.28762206236E+02  0.00000000000E+00 0. -1.
</event>
<event>
 4    1  0.5548812E+002  0.2131575E+02  0.7546771E-02  0.1514804E+00
          2   -1    0    0  503    0  0.00000000000E+00  0.00000000000E+00  0.97719833271E+03  0.97719833271E+03  0.00000000000E+00 0. -1.
         -2   -1    0    0    0  501 -0.00000000000E+00 -0.00000000000E+00 -0.49441329371E+01  0.49441329371E+01  0.00000000000E+00 0.  1.
         21    1    1    2  502  501 -0.95181614237E+01  0.19072645783E+02  0.18716898744E+02  0.28366944013E+02  0.00000000000E+00 0.  1.
         21    1    1    2  503  502  0.95181614237E+01 -0.19072645783E+02  0.95353730103E+03  0.95377552163E+03  0.00000000000E+00 0. -1.
</event>
<event>
 4    1  0.5548812E+002  0.5156784E+02  0.7546771E-02  0.1291514E+00
          2   -1    0    0  502    0  0.00000000000E+00  0.00000000000E+00  0.50162063105E+03  0.50162063105E+03  0.00000000000E+00 0.  1.
         -2   -1    0    0    0  501 -0.00000000000E+00 -0.00000000000E+00 -0.42931973787E+02  0.42931973787E+02  0.00000000000E+00 0. -1.
         21    1    1    2  502  503  0.80224358403E+00  0.51561598317E+02  0.48425640304E+03  0.48699435921E+03  0.00000000000E+00 0.  1.
         21    1    1    2  503  501 -0.80224358403E+00 -0.51561598317E+02 -0.25567745776E+02  0.57558245629E+02  0.00000000000E+00 0. -1.
</event>
<event>
 4    1  0.5548812E+002  0.2098441E+02  0.7546771E-02  0.1519487E+00
          2   -1    0    0  503    0  0.00000000000E+00  0.00000000000E+00  0.35989766773E+03  0.35989766773E+03  0.00000000000E+00 0. -1.
         -2   -1    0    0    0  501 -0.00000000000E+00 -0.00000000000E+00 -0.48871923650E+01  0.48871923650E+01  0.00000000000E+00 0.  1.
         21    1    1    2  502  501 -0.19351869699E+02 -0.81148409136E+01  0.19586076285E+02  0.28704701498E+02  0.00000000000E+00 0.  1.
         21    1    1    2  503  502  0.19351869699E+02  0.81148409136E+01  0.33542439908E+03  0.33608015860E+03  0.00000000000E+00 0. -1.
</event>
<event>
 4    1  0.5548812E+002  0.2558680E+02  0.7546771E-02  0.1462345E+00
          2   -1    0    0  502    0  0.00000000000E+00  0.00000000000E+00  0.60810528043E+03  0.60810528043E+03  0.00000000000E+00 0.  1.
         -2   -1    0    0    0  501 -0.00000000000E+00 -0.00000000000E+00 -0.38764069020E+01  0.38764069020E+01  0.00000000000E+00 0. -1.
         21    1    1    2  502  503  0.22654900961E+02 -0.11892843034E+02  0.56216514037E+03  0.56274712732E+03  0.00000000000E+00 0.  1.
         21    1    1    2  503  501 -0.22654900961E+02  0.11892843034E+02  0.42063733157E+02  0.49234560017E+02  0.00000000000E+00 0. -1.
</event>
<event>
 4    1  0.5548812E+002  0.2327203E+02  0.7546771E-02  0.1489110E+00
          2   -1    0    0  503    0  0.00000000000E+00  0.00000000000E+00  0.69024668122E+03  0.69024668122E+03  0.00000000000E+00 0.  1.
         -2   -1    0    0    0  501 -0.00000000000E+00 -0.00000000000E+00 -0.11262362924E+01  0.11262362924E+01  0.00000000000E+00 0. -1.
         21    1    1    2  502  501  0.27484211587E+01 -0.23109162782E+02  0.15417576613E+03  0.15592226937E+03  0.00000000000E+00 0. -1.
         21    1    1    2  503  502 -0.27484211587E+01  0.23109162782E+02  0.53494467879E+03  0.53545064814E+03  0.00000000000E+00 0.  1.
</event>
<event>
 4    1  0.5548812E+002  0.2038060E+02  0.7546771E-02  0.1528295E+00
          2   -1    0    0  502    0  0.00000000000E+00  0.00000000000E+00  0.32127780787E+03  0.32127780787E+03  0.00000000000E+00 0. -1.
         -2   -1    0    0    0  501 -0.00000000000E+00 -0.00000000000E+00 -0.26680132552E+01  0.26680132552E+01  0.00000000000E+00 0.  1.
         21    1    1    2  502  503  0.11471169058E+02 -0.16845800982E+02  0.27558976589E+03  0.27634233804E+03  0.00000000000E+00 0.  1.
         21    1    1    2  503  501 -0.11471169058E+02  0.16845800982E+02  0.43020028721E+02  0.47603483081E+02  0.00000000000E+00 0. -1.
</event>
<event>
 4    1  0.5548812E+002  0.3455096E+02  0.7546771E-02  0.1383748E+00
          2   -1    0    0  502    0  0.00000000000E+00  0.00000000000E+00  0.16444351860E+04  0.16444351860E+04  0.00000000000E+00 0.  1.
         -2   -1    0    0    0  501 -0.00000000000E+00 -0.00000000000E+00 -0.11784007741E+01  0.11784007741E+01  0.00000000000E+00 0. -1.
         21    1    1    2  502  503 -0.67162511719E+00 -0.34544428253E+02  0.13314751817E+04  0.13319233942E+04  0.00000000000E+00 0.  1.
         21    1    1    2  503  501  0.67162511719E+00  0.34544428253E+02  0.31178160354E+03  0.31369019256E+03  0.00000000000E+00 0. -1.
</event>
<event>
 4    1  0.5548812E+002  0.2177656E+02  0.7546771E-02  0.1508460E+00
          2   -1    0    0  502    0  0.00000000000E+00  0.00000000000E+00  0.62650618153E+03  0.62650618153E+03  0.00000000000E+00 0.  1.
         -2   -1    0    0    0  501 -0.00000000000E+00 -0.00000000000E+00 -0.10450435126E+01  0.10450435126E+01  0.00000000000E+00 0. -1.
         21    1    1    2  502  503 -0.19961705403E+02  0.87033919394E+01  0.47748494283E+03  0.47798126464E+03  0.00000000000E+00 0.  1.
         21    1    1    2  503  501  0.19961705403E+02 -0.87033919394E+01  0.14797619518E+03  0.14956996040E+03  0.00000000000E+00 0. -1.
</event>
<event>
 4    1  0.5548812E+002  0.2278746E+02  0.7546771E-02  0.1495184E+00
          2   -1    0    0  502    0  0.00000000000E+00  0.00000000000E+00  0.42450206528E+02  0.42450206528E+02  0.00000000000E+00 0.  1.
         -2   -1    0    0    0  501 -0.00000000000E+00 -0.00000000000E+00 -0.38796214104E+02  0.38796214104E+02  0.00000000000E+00 0. -1.
         21    1    1    2  502  503  0.13788415144E+02 -0.18142434627E+02  0.35441345060E+02  0.42134988620E+02  0.00000000000E+00 0.  1.
         21    1    1    2  503  501 -0.13788415144E+02  0.18142434627E+02 -0.31787352636E+02  0.39111432011E+02  0.00000000000E+00 0. -1.
</event>
<event>
 4    1  0.5548812E+002  0.2647019E+02  0.7546771E-02  0.1453004E+00
          2   -1    0    0  503    0  0.00000000000E+00  0.00000000000E+00  0.39654492275E+03  0.39654492275E+03  0.00000000000E+00 0. -1.
         -2   -1    0    0    0  501 -0.00000000000E+00 -0.00000000000E+00 -0.17682620033E+01  0.17682620033E+01  0.00000000000E+00 0.  1.
         21    1    1    2  502  501  0.78314898050E+01 -0.25285151774E+02  0.19194307576E+03  0.19375968483E+03  0.00000000000E+00 0.  1.
         21    1    1    2  503  502 -0.78314898050E+01  0.25285151774E+02  0.20283358499E+03  0.20455349993E+03  0.00000000000E+00 0. -1.
</event>
<event>
 4    1  0.5548812E+002  0.2235944E+02  0.7546771E-02  0.1500702E+00
          2   -1    0    0  502    0  0.00000000000E+00  0.00000000000E+00  0.11745917160E+04  0.11745917160E+04  0.00000000000E+00 0.  1.
         -2   -1    0    0    0  501 -0.00000000000E+00 -0.00000000000E+00 -0.44872070504E+00  0.44872070504E+00  0.00000000000E+00 0. -1.
         21    1    1    2  502  503 -0.20291278871E+02 -0.93919336036E+01  0.72034069907E+03  0.72068763494E+03  0.00000000000E+00 0.  1.
         21    1    1    2  503  501  0.20291278871E+02  0.93919336036E+01  0.45380229621E+03  0.45435280176E+03  0.00000000000E+00 0. -1.
</event>
<event>
 4    1  0.5548812E+002  0.2582539E+02  0.7546771E-02  0.1459778E+00
          2   -1    0    0  503    0  0.00000000000E+00  0.00000000000E+00  0.17520840388E+03  0.17520840388E+03  0.00000000000E+00 0. -1.
         -2   -1    0    0    0  501 -0.00000000000E+00 -0.00000000000E+00 -0.45271037002E+01  0.45271037002E+01  0.00000000000E+00 0.  1.
         21    1    1    2  502  501  0.50432218723E+00 -0.25820460395E+02  0.49489096581E+02  0.55822228514E+02  0.00000000000E+00 0. -1.
         21    1    1    2  503  502 -0.50432218723E+00  0.25820460395E+02  0.12119220360E+03  0.12391327907E+03  0.00000000000E+00 0.  1.
</event>
<event>
 4    1  0.5548812E+002  0.2467344E+02  0.7546771E-02  0.1472490E+00
          2   -1    0    0  502    0  0.00000000000E+00  0.00000000000E+00  0.15399335872E+03  0.15399335872E+03  0.00000000000E+00 0. -1.
         -2   -1    0    0    0  501 -0.00000000000E+00 -0.00000000000E+00 -0.17689341724E+02  0.17689341724E+02  0.00000000000E+00 0.  1.
         21    1    1    2  502  503  0.24110429192E+02 -0.52407688699E+01  0.14379555170E+03  0.14589701554E+03  0.00000000000E+00 0. -1.
         21    1    1    2  503  501 -0.24110429192E+02  0.52407688699E+01 -0.74915346998E+01  0.25785684911E+02  0.00000000000E+00 0.  1.
</event>
<event>
 4    1  0.5548812E+002  0.2365083E+02  0.7546771E-02  0.1484483E+00
          2   -1    0    0  503    0  0.00000000000E+00  0.00000000000E+00  0.12274880195E+04  0.12274880195E+04  0.00000000000E+00 0. -1.
         -2   -1    0    0    0  501 -0.00000000000E+00 -0.00000000000E+00 -0.36308042567E+01  0.36308042567E+01  0.00000000000E+00 0.  1.
         21    1    1    2  502  501  0.53574055532E+01 -0.23036054718E+02  0.36292783630E+02  0.43318907591E+02  0.00000000000E+00 0.  1.
         21    1    1    2  503  502 -0.53574055532E+01  0.23036054718E+02  0.11875644316E+04  0.11877999162E+04  0.00000000000E+00 0. -1.
</event>
<event>
 4    1  0.5548812E+002  0.2504511E+02  0.7546771E-02  0.1468299E+00
          2   -1    0    0  503    0  0.00000000000E+00  0.00000000000E+00  0.98561450779E+01  0.98561450779E+01  0.00000000000E+00 0.  1.
         -2   -1    0    0    0  501 -0.00000000000E+00 -0.00000000000E+00 -0.15522683741E+03  0.15522683741E+03  0.00000000000E+00 0. -1.
         21    1    1    2  502  501 -0.17123959947E+02 -0.18276414926E+02 -0.13608727713E+03  0.13837270086E+03  0.00000000000E+00 0. -1.
         21    1    1    2  503  502  0.17123959947E+02  0.18276414926E+02 -0.92834152033E+01  0.26710281628E+02  0.00000000000E+00 0.  1.
</event>
<event>
 4    1  0.5548812E+002  0.2543141E+02  0.7546771E-02  0.1464035E+00
          2   -1    0    0  503    0  0.00000000000E+00  0.00000000000E+00  0.83150028903E+01  0.83150028903E+01  0.00000000000E+00 0. -1.
         -2   -1    0    0    0  501 -0.00000000000E+00 -0.00000000000E+00 -0.12729282963E+03  0.12729282963E+03  0.00000000000E+00 0.  1.
         21    1    1    2  502  501  0.25176948074E+02 -0.35885633970E+01 -0.10177558136E+03  0.10490484004E+03  0.00000000000E+00 0.  1.
         21    1    1    2  503  502 -0.25176948074E+02  0.35885633970E+01 -0.17202245383E+02  0.30702992489E+02  0.00000000000E+00 0. -1.
</event>
<event>
 4    1  0.5548812E+002  0.3322844E+02  0.7546771E-02  0.1393465E+00
          2   -1    0    0  502    0  0.00000000000E+00  0.00000000000E+00  0.52453407472E+03  0.52453407472E+03  0.00000000000E+00 0. -1.
         -2   -1    0    0    0  501 -0.00000000000E+00 -0.00000000000E+00 -0.12008058580E+02  0.12008058580E+02  0.00000000000E+00 0.  1.
         21    1    1    2  502  503 -0.31482711379E+02  0.10628640322E+02  0.49988850784E+03  0.50099166598E+03  0.00000000000E+00 0. -1.
         21    1    1    2  503  501  0.31482711379E+02 -0.10628640322E+02  0.12637508304E+02  0.35550467324E+02  0.00000000000E+00 0.  1.
</event>
<event>
 4    1  0.5548812E+002  0.2575105E+02  0.7546771E-02  0.1460574E+00
          2   -1    0    0  502    0  0.00000000000E+00  0.00000000000E+00  0.63271747779E+03  0.63271747779E+03  0.00000000000E+00 0.  1.
         -2   -1    0    0    0  501 -0.00000000000E+00 -0.00000000000E+00 -0.92491652527E+01  0.92491652527E+01  0.00000000000E+00 0. -1.
         21    1    1    2  502  503 -0.21799602568E-02 -0.25751044951E+02  0.61398518673E+03  0.61452495949E+03  0.00000000000E+00 0.  1.
         21    1    1    2  503  501  0.21799602568E-02  0.25751044951E+02  0.94831258085E+01  0.27441683547E+02  0.00000000000E+00 0. -1.
</event>
<event>
 4    1  0.5548812E+002  0.2947581E+02  0.7546771E-02  0.1424207E+00
          2   -1    0    0  503    0  0.00000000000E+00  0.00000000000E+00  0.12852512155E+02  0.12852512155E+02  0.00000000000E+00 0. -1.
         -2   -1    0    0    0  501 -0.00000000000E+00 -0.00000000000E+00 -0.14737870750E+03  0.14737870750E+03  0.00000000000E+00 0.  1.
         21    1    1    2  502  501 -0.28906284591E+02  0.57662875407E+01 -0.12620778079E+03  0.12960411758E+03  0.00000000000E+00 0.  1.
         21    1    1    2  503  502  0.28906284591E+02 -0.57662875407E+01 -0.83184145498E+01  0.30627102074E+02  0.00000000000E+00 0. -1.
</event>
<event>
 4    1  0.5548812E+002  0.2678755E+02  0.7546771E-02  0.1449754E+00
          2   -1    0    0  502    0  0.00000000000E+00  0.00000000000E+00  0.19593599411E+01  0.19593599411E+01  0.00000000000E+00 0. -1.
         -2   -1    0    0    0  501 -0.00000000000E+00 -0.00000000000E+00 -0.41645588026E+03  0.41645588026E+03  0.00000000000E+00 0.  1.
         21    1    1    2  502  503  0.26272922445E+02  0.52255616572E+01 -0.13459344958E+03  0.13723326717E+03  0.00000000000E+00 0. -1.
         21    1    1    2  503  501 -0.26272922445E+02 -0.52255616572E+01 -0.27990307074E+03  0.28118197303E+03  0.00000000000E+00 0.  1.
</event>
<event>
 4    1  0.5548812E+002  0.3239032E+02  0.7546771E-02  0.1399901E+00
          2   -1    0    0  503    0  0.00000000000E+00  0.00000000000E+00  0.10132142759E+04  0.10132142759E+04  0.00000000000E+00 0. -1.
         -2   -1    0    0    0  501 -0.00000000000E+00 -0.00000000000E+00 -0.14886138114E+01  0.14886138114E+01  0.00000000000E+00 0.  1.
         21    1    1    2  502  501 -0.30496420680E+02  0.10913335923E+02  0.22593533505E+03  0.22824528078E+03  0.00000000000E+00 0.  1.
         21    1    1    2  503  502  0.30496420680E+02 -0.10913335923E+02  0.78579032704E+03  0.78645760893E+03  0.00000000000E+00 0. -1.
</event>
<event>
 4    1  0.5548812E+002  0.2246558E+02  0.7546771E-02  0.1499320E+00
          2   -1    0    0  503    0  0.00000000000E+00  0.00000000000E+00  0.20966802077E+01  0.20966802077E+01  0.00000000000E+00 0.  1.
         -2   -1    0    0    0  501 -0.00000000000E+00 -0.00000000000E+00 -0.29767443843E+03  0.29767443843E+03  0.00000000000E+00 0. -1.
         21    1    1    2  502  501  0.15848708513E+02  0.15922333327E+02 -0.21335388158E+03  0.21453340310E+03  0.00000000000E+00 0. -1.
         21    1    1    2  503  502 -0.15848708513E+02 -0.15922333327E+02 -0.82223876640E+02  0.85237715537E+02  0.00000000000E+00 0.  1.
</event>
<event>
 4    1  0.5548812E+002  0.6941948E+02  0.7546771E-02  0.1230801E+00
          2   -1    0    0  503    0  0.00000000000E+00  0.00000000000E+00  0.10472680220E+02  0.10472680220E+02  0.00000000000E+00 0.  1.
         -2   -1    0    0    0  501 -0.00000000000E+00 -0.00000000000E+00 -0.50360289702E+03  0.50360289702E+03  0.00000000000E+00 0. -1.
         21    1    1    2  502  501 -0.68731126790E+02  0.97517048643E+01 -0.32206280971E+03  0.32945943140E+03  0.00000000000E+00 0. -1.
         21    1    1    2  503  502  0.68731126790E+02 -0.97517048643E+01 -0.17106740709E+03  0.18461614584E+03  0.00000000000E+00 0.  1.
</event>
<event>
 4    1  0.5548812E+002  0.7767339E+02  0.7546771E-02  0.1209354E+00
          2   -1    0    0  503    0  0.00000000000E+00  0.00000000000E+00  0.47004868182E+03  0.47004868182E+03  0.00000000000E+00 0.  1.
         -2   -1    0    0    0  501 -0.00000000000E+00 -0.00000000000E+00 -0.14723585806E+02  0.14723585806E+02  0.00000000000E+00 0. -1.
         21    1    1    2  502  501 -0.75142729276E+02 -0.19665327129E+02  0.14085654469E+03  0.16085310391E+03  0.00000000000E+00 0. -1.
         21    1    1    2  503  502  0.75142729276E+02  0.19665327129E+02  0.31446855132E+03  0.32391916371E+03  0.00000000000E+00 0.  1.
</event>
<event>
 4    1  0.5548812E+002  0.4723914E+02  0.7546771E-02  0.1310608E+00
          2   -1    0    0  502    0  0.00000000000E+00  0.00000000000E+00  0.29488890786E+03  0.29488890786E+03  0.00000000000E+00 0.  1.
         -2   -1    0    0    0  501 -0.00000000000E+00 -0.00000000000E+00 -0.30948346303E+02  0.30948346303E+02  0.00000000000E+00 0. -1.
         21    1    1    2  502  503 -0.41009631380E+02 -0.23446665069E+02  0.27357680403E+03  0.27762529364E+03  0.00000000000E+00 0.  1.
         21    1    1    2  503  501  0.41009631380E+02  0.23446665069E+02 -0.96362424655E+01  0.48211960524E+02  0.00000000000E+00 0. -1.
</event>
<event>
 4    1  0.5548812E+002  0.2066803E+02  0.7546771E-02  0.1524058E+00
          2   -1    0    0  503    0  0.00000000000E+00  0.00000000000E+00  0.17215215146E+04  0.17215215146E+04  0.00000000000E+00 0. -1.
         -2   -1    0    0    0  501 -0.00000000000E+00 -0.00000000000E+00 -0.27717077158E+00  0.27717077158E+00  0.00000000000E+00 0.  1.
         21    1    1    2  502  501  0.18332083114E+02 -0.95447529703E+01  0.58197494096E+03  0.58234182358E+03  0.00000000000E+00 0. -1.
         21    1    1    2  503  502 -0.18332083114E+02  0.95447529703E+01  0.11392694028E+04  0.11394568618E+04  0.00000000000E+00 0.  1.
</event>
<event>
 4    1  0.5548812E+002  0.4048859E+02  0.7546771E-02  0.1345646E+00
          2   -1    0    0  502    0  0.00000000000E+00  0.00000000000E+00  0.33208190494E+03  0.33208190494E+03  0.00000000000E+00 0. -1.
         -2   -1    0    0    0  501 -0.00000000000E+00 -0.00000000000E+00 -0.10926538183E+02  0.10926538183E+02  0.00000000000E+00 0.  1.
         21    1    1    2  502  503 -0.30478408168E+02  0.26653186267E+02  0.28756137462E+03  0.29039777871E+03  0.00000000000E+00 0. -1.
         21    1    1    2  503  501  0.30478408168E+02 -0.26653186267E+02  0.33593992130E+02  0.52610664412E+02  0.00000000000E+00 0.  1.
</event>
<event>
 4    1  0.5548812E+002  0.3037483E+02  0.7546771E-02  0.1416367E+00
          2   -1    0    0  502    0  0.00000000000E+00  0.00000000000E+00  0.45926398054E+03  0.45926398054E+03  0.00000000000E+00 0. -1.
         -2   -1    0    0    0  501 -0.00000000000E+00 -0.00000000000E+00 -0.20567218163E+01  0.20567218163E+01  0.00000000000E+00 0.  1.
         21    1    1    2  502  503  0.29070253090E+02 -0.88062791447E+01  0.19344335484E+03  0.19581358916E+03  0.00000000000E+00 0. -1.
         21    1    1    2  503  501 -0.29070253090E+02  0.88062791447E+01  0.26376390389E+03  0.26550711320E+03  0.00000000000E+00 0.  1.
</event>
<event>
 4    1  0.5548812E+002  0.8773664E+02  0.7546771E-02  0.1186943E+00
          2   -1    0    0  502    0  0.00000000000E+00  0.00000000000E+00  0.12312897330E+04  0.12312897330E+04  0.00000000000E+00 0. -1.
         -2   -1    0    0    0  501 -0.00000000000E+00 -0.00000000000E+00 -0.12151536144E+02  0.12151536144E+02  0.00000000000E+00 0.  1.
         21    1    1    2  502  503 -0.82840351440E+02  0.28899727533E+02  0.10427783775E+04  0.10464628339E+04  0.00000000000E+00 0. -1.
         21    1    1    2  503  501  0.82840351440E+02 -0.28899727533E+02  0.17635981927E+03  0.19697843519E+03  0.00000000000E+00 0.  1.
</event>
<event>
 4    1  0.5548812E+002  0.2849269E+02  0.7546771E-02  0.1433164E+00
          2   -1    0    0  503    0  0.00000000000E+00  0.00000000000E+00  0.52459464247E+02  0.52459464247E+02  0.00000000000E+00 0. -1.
         -2   -1    0    0    0  501 -0.00000000000E+00 -0.00000000000E+00 -0.23520438695E+02  0.23520438695E+02  0.00000000000E+00 0.  1.
         21    1    1    2  502  501 -0.77954249262E+01  0.27405563373E+02 -0.77486878475E+01  0.29527541667E+02  0.00000000000E+00 0.  1.
         21    1    1    2  503  502  0.77954249262E+01 -0.27405563373E+02  0.36687713399E+02  0.46452361275E+02  0.00000000000E+00 0. -1.
</event>
<event>
 4    1  0.5548812E+002  0.2006993E+02  0.7546771E-02  0.1532969E+00
          2   -1    0    0  503    0  0.00000000000E+00  0.00000000000E+00  0.58935254000E+02  0.58935254000E+02  0.00000000000E+00 0.  1.
         -2   -1    0    0    0  501 -0.00000000000E+00 -0.00000000000E+00 -0.69972881634E+01  0.69972881634E+01  0.00000000000E+00 0. -1.
         21    1    1    2  502  501  0.19900492390E+02 -0.26023802494E+01  0.30994871491E+02  0.36925384752E+02  0.00000000000E+00 0.  1.
         21    1    1    2  503  502 -0.19900492390E+02  0.26023802494E+01  0.20943094346E+02  0.29007157412E+02  0.00000000000E+00 0. -1.
</event>
<event>
 4    1  0.5548812E+002  0.4145767E+02  0.7546771E-02  0.1340149E+00
          2   -1    0    0  502    0  0.00000000000E+00  0.00000000000E+00  0.14279486478E+04  0.14279486478E+04  0.00000000000E+00 0.  1.
         -2   -1    0    0    0  501 -0.00000000000E+00 -0.00000000000E+00 -0.12042073318E+01  0.12042073318E+01  0.00000000000E+00 0. -1.
         21    1    1    2  502  503  0.23450848261E+02 -0.34187656070E+02  0.72886322241E+03  0.73004132424E+03  0.00000000000E+00 0. -1.
         21    1    1    2  503  501 -0.23450848261E+02  0.34187656070E+02  0.69788121803E+03  0.69911153087E+03  0.00000000000E+00 0.  1.
</event>
<event>
 4    1  0.5548812E+002  0.2052622E+02  0.7546771E-02  0.1526138E+00
          2   -1    0    0  502    0  0.00000000000E+00  0.00000000000E+00  0.33814430447E+02  0.33814430447E+02  0.00000000000E+00 0. -1.
         -2   -1    0    0    0  501 -0.00000000000E+00 -0.00000000000E+00 -0.47715347967E+02  0.47715347967E+02  0.00000000000E+00 0.  1.
         21    1    1    2  502  503 -0.13434347777E+01  0.20482212418E+02  0.28090023812E+02  0.34790448118E+02  0.00000000000E+00 0. -1.
         21    1    1    2  503  501  0.13434347777E+01 -0.20482212418E+02 -0.41990941332E+02  0.46739330296E+02  0.00000000000E+00 0.  1.
</event>
<event>
 4    1  0.5548812E+002  0.2130743E+02  0.7546771E-02  0.1514920E+00
          2   -1    0    0  503    0  0.00000000000E+00  0.00000000000E+00  0.12741749760E+02  0.12741749760E+02  0.00000000000E+00 0. -1.
         -2   -1    0    0    0  501 -0.00000000000E+00 -0.00000000000E+00 -0.13643170864E+03  0.13643170864E+03  0.00000000000E+00 0.  1.
         21    1    1    2  502  501  0.17524614908E+02 -0.12120008465E+02 -0.12595630780E+03  0.12774583440E+03  0.00000000000E+00 0.  1.
         21    1    1    2  503  502 -0.17524614908E+02  0.12120008465E+02  0.22663489162E+01  0.21427624000E+02  0.00000000000E+00 0. -1.
</event>
<event>
 4    1  0.5548812E+002  0.2508762E+02  0.7546771E-02  0.1467826E+00
          2   -1    0    0  503    0  0.00000000000E+00  0.00000000000E+00  0.64199386773E+01  0.64199386773E+01  0.00000000000E+00 0. -1.
         -2   -1    0    0    0  501 -0.00000000000E+00 -0.00000000000E+00 -0.53847650049E+03  0.53847650049E+03  0.00000000000E+00 0.  1.
         21    1    1    2  502  501  0.23725599765E+02  0.81537934724E+01 -0.51243013141E+03  0.51304388507E+03  0.00000000000E+00 0.  1.
         21    1    1    2  503  502 -0.23725599765E+02 -0.81537934724E+01 -0.19626430408E+02  0.31852554102E+02  0.00000000000E+00 0. -1.
</event>
<event>
 4    1  0.5548812E+002  0.2350295E+02  0.7546771E-02  0.1486277E+00
          2   -1    0    0  503    0  0.00000000000E+00  0.00000000000E+00  0.44961776935E+03  0.44961776935E+03  0.00000000000E+00 0.  1.
         -2   -1    0    0    0  501 -0.00000000000E+00 -0.00000000000E+00 -0.17402961563E+01  0.17402961563E+01  0.00000000000E+00 0. -1.
         21    1    1    2  502  501  0.45734314451E+01 -0.23053683813E+02  0.10156257540E+03  0.10424656030E+03  0.00000000000E+00 0. -1.
         21    1    1    2  503  502 -0.45734314451E+01  0.23053683813E+02  0.34631489780E+03  0.34711150521E+03  0.00000000000E+00 0.  1.
</event>
<event>
 4    1  0.5548812E+002  0.2609198E+02  0.7546771E-02  0.1456949E+00
          2   -1    0    0  503    0  0.00000000000E+00  0.00000000000E+00  0.71039733596E+03  0.71039733596E+03  0.00000000000E+00 0. -1.
         -2   -1    0    0    0  501 -0.00000000000E+00 -0.00000000000E+00 -0.10536807910E+01  0.10536807910E+01  0.00000000000E+00 0.  1.
         21    1    1    2  502  501  0.14589923889E+02 -0.21631585064E+02  0.24765931122E+03  0.24902996965E+03  0.00000000000E+00 0.  1.
         21    1    1    2  503  502 -0.14589923889E+02  0.21631585064E+02  0.46168434395E+03  0.46242104710E+03  0.00000000000E+00 0. -1.
</event>
<event>
 4    1  0.5548812E+002  0.4816070E+02  0.7546771E-02  0.1306350E+00
          2   -1    0    0  502    0  0.00000000000E+00  0.00000000000E+00  0.97779151284E+02  0.97779151284E+02  0.00000000000E+00 0.  1.
         -2   -1    0    0    0  501 -0.00000000000E+00 -0.00000000000E+00 -0.11560858692E+03  0.11560858692E+03  0.00000000000E+00 0. -1.
         21    1    1    2  502  503  0.44501392228E+02  0.18414104174E+02  0.86205321723E+02  0.98746193022E+02  0.00000000000E+00 0.  1.
         21    1    1    2  503  501 -0.44501392228E+02 -0.18414104174E+02 -0.10403475736E+03  0.11464154518E+03  0.00000000000E+00 0. -1.
</event>
<event>
 4    1  0.5548812E+002  0.2157588E+02  0.7546771E-02  0.1511199E+00
          2   -1    0    0  503    0  0.00000000000E+00  0.00000000000E+00  0.45666096343E+02  0.45666096343E+02  0.00000000000E+00 0. -1.
         -2   -1    0    0    0  501 -0.00000000000E+00 -0.00000000000E+00 -0.15140069144E+03  0.15140069144E+03  0.00000000000E+00 0.  1.
         21    1    1    2  502  501 -0.17715955266E+02 -0.12315171290E+02 -0.14802571429E+03  0.14958987468E+03  0.00000000000E+00 0.  1.
         21    1    1    2  503  502  0.17715955266E+02  0.12315171290E+02  0.42291119196E+02  0.47476913103E+02  0.00000000000E+00 0. -1.
</event>
<event>
 4    1  0.5548812E+002  0.2257664E+02  0.7546771E-02  0.1497884E+00
          2   -1    0    0  502    0  0.00000000000E+00  0.00000000000E+00  0.11019857267E+04  0.11019857267E+04  0.00000000000E+00 0. -1.
         -2   -1    0    0    0  501 -0.00000000000E+00 -0.00000000000E+00 -0.51254272877E+00  0.51254272877E+00  0.00000000000E+00 0.  1.
         21    1    1    2  502  503  0.19219304409E+02 -0.11845807615E+02  0.72292737930E+03  0.72327982176E+03  0.00000000000E+00 0. -1.
         21    1    1    2  503  501 -0.19219304409E+02  0.11845807615E+02  0.37854580467E+03  0.37921844767E+03  0.00000000000E+00 0.  1.
</event>
<event>
 4    1  0.5548812E+002  0.4234431E+02  0.7546771E-02  0.1335270E+00
          2   -1    0    0  503    0  0.00000000000E+00  0.00000000000E+00  0.52367943577E+03  0.52367943577E+03  0.00000000000E+00 0. -1.
         -2   -1    0    0    0  501 -0.00000000000E+00 -0.00000000000E+00 -0.40076273073E+01  0.40076273073E+01  0.00000000000E+00 0.  1.
         21    1    1    2  502  501  0.39744692869E+02 -0.14608208882E+02  0.15914329530E+03  0.16468038383E+03  0.00000000000E+00 0.  1.
         21    1    1    2  503  502 -0.39744692869E+02  0.14608208882E+02  0.36052851316E+03  0.36300667925E+03  0.00000000000E+00 0. -1.
</event>
<event>
 4    1  0.5548812E+002  0.2015809E+02  0.7546771E-02  0.1531633E+00
          2   -1    0    0  503    0  0.00000000000E+00  0.00000000000E+00  0.90423009042E+03  0.90423009042E+03  0.00000000000E+00 0. -1.
         -2   -1    0    0    0  501 -0.00000000000E+00 -0.00000000000E+00 -0.65654395950E+00  0.65654395950E+00  0.00000000000E+00 0.  1.
         21    1    1    2  502  501  0.76415016418E+01 -0.18653574896E+02  0.19764092743E+03  0.19866626437E+03  0.00000000000E+00 0.  1.
         21    1    1    2  503  502 -0.76415016418E+01  0.18653574896E+02  0.70593261903E+03  0.70622037001E+03  0.00000000000E+00 0. -1.
</event>
<event>
 4    1  0.5548812E+002  0.3878639E+02  0.7546771E-02  0.1355748E+00
          2   -1    0    0  502    0  0.00000000000E+00  0.00000000000E+00  0.11982616582E+04  0.11982616582E+04  0.00000000000E+00 0.  1.
         -2   -1    0    0    0  501 -0.00000000000E+00 -0.00000000000E+00 -0.14419892337E+01  0.14419892337E+01  0.00000000000E+00 0. -1.
         21    1    1    2  502  503  0.22648150429E+02 -0.31487221910E+02  0.81414580049E+03  0.81506918008E+03  0.00000000000E+00 0.  1.
         21    1    1    2  503  501 -0.22648150429E+02  0.31487221910E+02  0.38267386845E+03  0.38463446733E+03  0.00000000000E+00 0. -1.
</event>
<event>
 4    1  0.5548812E+002  0.2010501E+02  0.7546771E-02  0.1532436E+00
          2   -1    0    0  503    0  0.00000000000E+00  0.00000000000E+00  0.23608915045E+02  0.23608915045E+02  0.00000000000E+00 0.  1.
         -2   -1    0    0    0  501 -0.00000000000E+00 -0.00000000000E+00 -0.22584947076E+02  0.22584947076E+02  0.00000000000E+00 0. -1.
         21    1    1    2  502  501  0.16192937868E+02  0.11916383630E+02 -0.10848389064E+02  0.22845108468E+02  0.00000000000E+00 0. -1.
         21    1    1    2  503  502 -0.16192937868E+02 -0.11916383630E+02  0.11872357033E+02  0.23348753653E+02  0.00000000000E+00 0.  1.
</event>
<event>
 4    1  0.5548812E+002  0.5513557E+02  0.7546771E-02  0.1277320E+00
          2   -1    0    0  502    0  0.00000000000E+00  0.00000000000E+00  0.18113659283E+03  0.18113659283E+03  0.00000000000E+00 0.  1.
         -2   -1    0    0    0  501 -0.00000000000E+00 -0.00000000000E+00 -0.46087218170E+02  0.46087218170E+02  0.00000000000E+00 0. -1.
         21    1    1    2  502  503  0.91501098410E+01  0.54371007024E+02  0.15811924809E+03  0.16745634515E+03  0.00000000000E+00 0.  1.
         21    1    1    2  503  501 -0.91501098410E+01 -0.54371007024E+02 -0.23069873424E+02  0.59767465854E+02  0.00000000000E+00 0. -1.
</event>
<event>
 4    1  0.5548812E+002  0.2067426E+02  0.7546771E-02  0.1523967E+00
          2   -1    0    0  503    0  0.00000000000E+00  0.00000000000E+00  0.88122620331E+02  0.88122620331E+02  0.00000000000E+00 0. -1.
         -2   -1    0    0    0  501 -0.00000000000E+00 -0.00000000000E+00 -0.50897051444E+01  0.50897051444E+01  0.00000000000E+00 0.  1.
         21    1    1    2  502  501 -0.16469743668E+02 -0.12496900337E+02  0.31409408890E+02  0.37602871451E+02  0.00000000000E+00 0.  1.
         21    1    1    2  503  502  0.16469743668E+02  0.12496900337E+02  0.51623506297E+02  0.55609454025E+02  0.00000000000E+00 0. -1.
</event>
<event>
 4    1  0.5548812E+002  0.2585897E+02  0.7546771E-02  0.1459419E+00
          2   -1    0    0  503    0  0.00000000000E+00  0.00000000000E+00  0.20491937677E+02  0.20491937677E+02  0.00000000000E+00 0.  1.
         -2   -1    0    0    0  501 -0.00000000000E+00 -0.00000000000E+00 -0.89785645188E+02  0.89785645188E+02  0.00000000000E+00 0. -1.
         21    1    1    2  502  501 -0.18145860261E+02  0.18423194502E+02 -0.78639184737E+02  0.82781687084E+02  0.00000000000E+00 0. -1.
         21    1    1    2  503  502  0.18145860261E+02 -0.18423194502E+02  0.93454772262E+01  0.27495895782E+02  0.00000000000E+00 0.  1.
</event>
<event>
 4    1  0.5548812E+002  0.3290389E+02  0.7546771E-02  0.1395930E+00
          2   -1    0    0  502    0  0.00000000000E+00  0.00000000000E+00  0.91819137043E+02  0.91819137043E+02  0.00000000000E+00 0. -1.
         -2   -1    0    0    0  501 -0.00000000000E+00 -0.00000000000E+00 -0.22102722700E+03  0.22102722700E+03  0.00000000000E+00 0.  1.
         21    1    1    2  502  503 -0.30859889482E+02  0.11416346931E+02  0.87589548491E+02  0.93565991476E+02  0.00000000000E+00 0. -1.
         21    1    1    2  503  501  0.30859889482E+02 -0.11416346931E+02 -0.21679763845E+03  0.21928037256E+03  0.00000000000E+00 0.  1.
</event>
<event>
 4    1  0.5548812E+002  0.2350615E+02  0.7546771E-02  0.1486238E+00
          2   -1    0    0  502    0  0.00000000000E+00  0.00000000000E+00  0.77266550806E+01  0.77266550806E+01  0.00000000000E+00 0.  1.
         -2   -1    0    0    0  501 -0.00000000000E+00 -0.00000000000E+00 -0.71687034995E+02  0.71687034995E+02  0.00000000000E+00 0. -1.
         21    1    1    2  502  503  0.35443944993E+01  0.23237393950E+02 -0.30011382287E+02  0.38121152616E+02  0.00000000000E+00 0.  1.
         21    1    1    2  503  501 -0.35443944993E+01 -0.23237393950E+02 -0.33948997628E+02  0.41292537460E+02  0.00000000000E+00 0. -1.
</event>
<event>
 4    1  0.5548812E+002  0.2280166E+02  0.7546771E-02  0.1495004E+00
          2   -1    0    0  503    0  0.00000000000E+00  0.00000000000E+00  0.23753259251E+02  0.23753259251E+02  0.00000000000E+00 0. -1.
         -2   -1    0    0    0  501 -0.00000000000E+00 -0.00000000000E+00 -0.22396921257E+02  0.22396921257E+02  0.00000000000E+00 0.  1.
         21    1    1    2  502  501 -0.22367533519E+02 -0.44282434249E+01  0.41558734229E+01  0.23177298795E+02  0.00000000000E+00 0. -1.
         21    1    1    2  503  502  0.22367533519E+02  0.44282434249E+01 -0.27995354287E+01  0.22972881712E+02  0.00000000000E+00 0.  1.
</event>
<event>
 4    1  0.5548812E+002  0.2726760E+02  0.7546771E-02  0.1444938E+00
          2   -1    0    0  502    0  0.00000000000E+00  0.00000000000E+00  0.98603357079E+01  0.98603357079E+01  0.00000000000E+00 0. -1.
         -2   -1    0    0    0  501 -0.00000000000E+00 -0.00000000000E+00 -0.76168835848E+02  0.76168835848E+02  0.00000000000E+00 0.  1.
         21    1    1    2  502  503  0.10889403945E+02 -0.24998860010E+02 -0.37460765404E+02  0.46333908368E+02  0.00000000000E+00 0.  1.
         21    1    1    2  503  501 -0.10889403945E+02  0.24998860010E+02 -0.28847734736E+02  0.39695263187E+02  0.00000000000E+00 0. -1.
</event>
<event>
 4    1  0.5548812E+002  0.2792405E+02  0.7546771E-02  0.1438540E+00
          2   -1    0    0  503    0  0.00000000000E+00  0.00000000000E+00  0.28815324201E+03  0.28815324201E+03  0.00000000000E+00 0.  1.
         -2   -1    0    0    0  501 -0.00000000000E+00 -0.00000000000E+00 -0.33921075765E+01  0.33921075765E+01  0.00000000000E+00 0. -1.
         21    1    1    2  502  501  0.77367760496E+01 -0.26830859937E+02  0.76822467736E+02  0.81740102138E+02  0.00000000000E+00 0. -1.
         21    1    1    2  503  502 -0.77367760496E+01  0.26830859937E+02  0.20793866669E+03  0.20980524744E+03  0.00000000000E+00 0.  1.
</event>
<event>
 4    1  0.5548812E+002  0.2992172E+02  0.7546771E-02  0.1420278E+00
          2   -1    0    0  503    0  0.00000000000E+00  0.00000000000E+00  0.82991503248E+03  0.82991503248E+03  0.00000000000E+00 0. -1.
         -2   -1    0    0    0  501 -0.00000000000E+00 -0.00000000000E+00 -0.11864312903E+01  0.11864312903E+01  0.00000000000E+00 0.  1.
         21    1    1    2  502  501 -0.22602712362E+02  0.19606810056E+02  0.28920052185E+03  0.29074430595E+03  0.00000000000E+00 0.  1.
         21    1    1    2  503  502  0.22602712362E+02 -0.19606810056E+02  0.53952807935E+03  0.54035715782E+03  0.00000000000E+00 0. -1.
</event>
<event>
 4    1  0.5548812E+002  0.2935972E+02  0.7546771E-02  0.1425243E+00
          2   -1    0    0  502    0  0.00000000000E+00  0.00000000000E+00  0.14325923403E+04  0.14325923403E+04  0.00000000000E+00 0.  1.
         -2   -1    0    0    0  501 -0.00000000000E+00 -0.00000000000E+00 -0.19313523321E+01  0.19313523321E+01  0.00000000000E+00 0. -1.
         21    1    1    2  502  503  0.19783617327E+02 -0.21693354228E+02  0.12019512551E+03  0.12372898338E+03  0.00000000000E+00 0. -1.
         21    1    1    2  503  501 -0.19783617327E+02  0.21693354228E+02  0.13104658625E+04  0.13107947093E+04  0.00000000000E+00 0.  1.
</event>
<event>
 4    1  0.5548812E+002  0.2626799E+02  0.7546771E-02  0.1455103E+00
          2   -1    0    0  502    0  0.00000000000E+00  0.00000000000E+00  0.14080523852E+03  0.14080523852E+03  0.00000000000E+00 0. -1.
         -2   -1    0    0    0  501 -0.00000000000E+00 -0.00000000000E+00 -0.98130846823E+01  0.98130846823E+01  0.00000000000E+00 0.  1.
         21    1    1    2  502  503 -0.34133770951E+01 -0.26045267062E+02  0.11878082134E+03  0.12165069091E+03  0.00000000000E+00 0. -1.
         21    1    1    2  503  501  0.34133770951E+01  0.26045267062E+02  0.12211332498E+02  0.28967632298E+02  0.00000000000E+00 0.  1.
</event>
<event>
 4    1  0.5548812E+002  0.2322767E+02  0.7546771E-02  0.1489659E+00
          2   -1    0    0  502    0  0.00000000000E+00  0.00000000000E+00  0.10350080938E+04  0.10350080938E+04  0.00000000000E+00 0. -1.
         -2   -1    0    0    0  501 -0.00000000000E+00 -0.00000000000E+00 -0.63304757812E+00  0.63304757812E+00  0.00000000000E+00 0.  1.
         21    1    1    2  502  503  0.19913427292E+02  0.11957421001E+02  0.73477180530E+03  0.73513885108E+03  0.00000000000E+00 0. -1.
         21    1    1    2  503  501 -0.19913427292E+02 -0.11957421001E+02  0.29960324094E+03  0.30050229032E+03  0.00000000000E+00 0.  1.
</event>
<event>
 4    1  0.5548812E+002  0.2064758E+02  0.7546771E-02  0.1524357E+00
          2   -1    0    0  502    0  0.00000000000E+00  0.00000000000E+00  0.47364636841E+01  0.47364636841E+01  0.00000000000E+00 0. -1.
         -2   -1    0    0    0  501 -0.00000000000E+00 -0.00000000000E+00 -0.91497223887E+02  0.91497223887E+02  0.00000000000E+00 0.  1.
         21    1    1    2  502  503 -0.81263906738E+01 -0.18981152944E+02 -0.49517829215E+02  0.53650142615E+02  0.00000000000E+00 0.  1.
         21    1    1    2  503  501  0.81263906738E+01  0.18981152944E+02 -0.37242930989E+02  0.42583544957E+02  0.00000000000E+00 0. -1.
</event>
<event>
 4    1  0.5548812E+002  0.2271087E+02  0.7546771E-02  0.1496161E+00
          2   -1    0    0  503    0  0.00000000000E+00  0.00000000000E+00  0.55499446836E+03  0.55499446836E+03  0.00000000000E+00 0.  1.
         -2   -1    0    0    0  501 -0.00000000000E+00 -0.00000000000E+00 -0.56887565369E+02  0.56887565369E+02  0.00000000000E+00 0. -1.
         21    1    1    2  502  501 -0.22308412726E+02  0.42565484348E+01 -0.54378258201E+02  0.58930284641E+02  0.00000000000E+00 0. -1.
         21    1    1    2  503  502  0.22308412726E+02 -0.42565484348E+01  0.55248516119E+03  0.55295174909E+03  0.00000000000E+00 0.  1.
</event>
<event>
 4    1  0.5548812E+002  0.5993403E+02  0.7546771E-02  0.1260057E+00
          2   -1    0    0  503    0  0.00000000000E+00  0.00000000000E+00  0.55997809909E+03  0.55997809909E+03  0.00000000000E+00 0.  1.
         -2   -1    0    0    0  501 -0.00000000000E+00 -0.00000000000E+00 -0.80646636456E+01  0.80646636456E+01  0.00000000000E+00 0. -1.
         21    1    1    2  502  501 -0.53857628450E+02  0.26295319012E+02  0.14748843107E+03  0.15920089586E+03  0.00000000000E+00 0. -1.
         21    1    1    2  503  502  0.53857628450E+02 -0.26295319012E+02  0.40442500437E+03  0.40884186687E+03  0.00000000000E+00 0.  1.
</event>
<event>
 4    1  0.5548812E+002  0.2304355E+02  0.7546771E-02  0.1491952E+00
          2   -1    0    0  503    0  0.00000000000E+00  0.00000000000E+00  0.15972921212E+03  0.15972921212E+03  0.00000000000E+00 0.  1.
         -2   -1    0    0    0  501 -0.00000000000E+00 -0.00000000000E+00 -0.79094167296E+01  0.79094167296E+01  0.00000000000E+00 0. -1.
         21    1    1    2  502  501 -0.56840187931E+01 -0.22331529690E+02  0.12092088052E+02  0.26023525538E+02  0.00000000000E+00 0. -1.
         21    1    1    2  503  502  0.56840187931E+01  0.22331529690E+02  0.13972770734E+03  0.14161510331E+03  0.00000000000E+00 0.  1.
</event>
<event>
 4    1  0.5548812E+002  0.3006881E+02  0.7546771E-02  0.1418999E+00
          2   -1    0    0  502    0  0.00000000000E+00  0.00000000000E+00  0.34018581502E+03  0.34018581502E+03  0.00000000000E+00 0. -1.
         -2   -1    0    0    0  501 -0.00000000000E+00 -0.00000000000E+00 -0.61831831188E+01  0.61831831188E+01  0.00000000000E+00 0.  1.
         21    1    1    2  502  503 -0.79174155692E+01  0.29007715824E+02  0.29777141227E+03  0.29928572804E+03  0.00000000000E+00 0. -1.
         21    1    1    2  503  501  0.79174155692E+01 -0.29007715824E+02  0.36231219629E+02  0.47083270091E+02  0.00000000000E+00 0.  1.
</event>
<event>
 4    1  0.5548812E+002  0.2547403E+02  0.7546771E-02  0.1463570E+00
          2   -1    0    0  502    0  0.00000000000E+00  0.00000000000E+00  0.79310062762E+01  0.79310062762E+01  0.00000000000E+00 0.  1.
         -2   -1    0    0    0  501 -0.00000000000E+00 -0.00000000000E+00 -0.14838106183E+03  0.14838106183E+03  0.00000000000E+00 0. -1.
         21    1    1    2  502  503 -0.11648986115E+02  0.22654526516E+02 -0.12257044430E+03  0.12518961724E+03  0.00000000000E+00 0. -1.
         21    1    1    2  503  501  0.11648986115E+02 -0.22654526516E+02 -0.17879611252E+02  0.31122450863E+02  0.00000000000E+00 0.  1.
</event>
<event>
 4    1  0.5548812E+002  0.2294326E+02  0.7546771E-02  0.1493212E+00
          2   -1    0    0  502    0  0.00000000000E+00  0.00000000000E+00  0.62788768436E+03  0.62788768436E+03  0.00000000000E+00 0.  1.
         -2   -1    0    0    0  501 -0.00000000000E+00 -0.00000000000E+00 -0.98823441419E+00  0.98823441419E+00  0.00000000000E+00 0. -1.
         21    1    1    2  502  503  0.48464314924E+01  0.22425551198E+02  0.19099518176E+03  0.19236827363E+03  0.00000000000E+00 0. -1.
         21    1    1    2  503  501 -0.48464314924E+01 -0.22425551198E+02  0.43590426819E+03  0.43650764514E+03  0.00000000000E+00 0.  1.
</event>
<event>
 4    1  0.5548812E+002  0.2863958E+02  0.7546771E-02  0.1431799E+00
          2   -1    0    0  503    0  0.00000000000E+00  0.00000000000E+00  0.35619746141E+04  0.35619746141E+04  0.00000000000E+00 0.  1.
         -2   -1    0    0    0  501 -0.00000000000E+00 -0.00000000000E+00 -0.23126321650E+00  0.23126321650E+00  0.00000000000E+00 0. -1.
         21    1    1    2  502  501 -0.21311597794E+02  0.19132205124E+02  0.16643064652E+04  0.16645528636E+04  0.00000000000E+00 0. -1.
         21    1    1    2  503  502  0.21311597794E+02 -0.19132205124E+02  0.18974368856E+04  0.18976530137E+04  0.00000000000E+00 0.  1.
</event>
<event>
 4    1  0.5548812E+002  0.3616592E+02  0.7546771E-02  0.1372547E+00
          2   -1    0    0  503    0  0.00000000000E+00  0.00000000000E+00  0.19957809933E+04  0.19957809933E+04  0.00000000000E+00 0. -1.
         -2   -1    0    0    0  501 -0.00000000000E+00 -0.00000000000E+00 -0.93620428078E+00  0.93620428078E+00  0.00000000000E+00 0.  1.
         21    1    1    2  502  501  0.10229857309E+02 -0.34688959411E+02  0.45062461881E+03  0.45207357914E+03  0.00000000000E+00 0.  1.
         21    1    1    2  503  502 -0.10229857309E+02  0.34688959411E+02  0.15442201702E+04  0.15446436184E+04  0.00000000000E+00 0. -1.
</event>
<event>
 4    1  0.5548812E+002  0.2318565E+02  0.7546771E-02  0.1490180E+00
          2   -1    0    0  503    0  0.00000000000E+00  0.00000000000E+00  0.31324263158E+02  0.31324263158E+02  0.00000000000E+00 0.  1.
         -2   -1    0    0    0  501 -0.00000000000E+00 -0.00000000000E+00 -0.49693451259E+02  0.49693451259E+02  0.00000000000E+00 0. -1.
         21    1    1    2  502  501  0.22707846612E+02 -0.46827401133E+01 -0.41960509188E+02  0.47940157322E+02  0.00000000000E+00 0. -1.
         21    1    1    2  503  502 -0.22707846612E+02  0.46827401133E+01  0.23591321088E+02  0.33077557095E+02  0.00000000000E+00 0.  1.
</event>
<event>
 4    1  0.5548812E+002  0.2639010E+02  0.7546771E-02  0.1453833E+00
          2   -1    0    0  503    0  0.00000000000E+00  0.00000000000E+00  0.93220430651E+02  0.93220430651E+02  0.00000000000E+00 0. -1.
         -2   -1    0    0    0  501 -0.00000000000E+00 -0.00000000000E+00 -0.74718109515E+01  0.74718109515E+01  0.00000000000E+00 0.  1.
         21    1    1    2  502  501 -0.10200297326E+02  0.24339090348E+02  0.42308249807E+02  0.49864069090E+02  0.00000000000E+00 0. -1.
         21    1    1    2  503  502  0.10200297326E+02 -0.24339090348E+02  0.43440369893E+02  0.50828172512E+02  0.00000000000E+00 0.  1.
</event>
<event>
 4    1  0.5548812E+002  0.2592788E+02  0.7546771E-02  0.1458685E+00
          2   -1    0    0  503    0  0.00000000000E+00  0.00000000000E+00  0.79703424961E+03  0.79703424961E+03  0.00000000000E+00 0.  1.
         -2   -1    0    0    0  501 -0.00000000000E+00 -0.00000000000E+00 -0.22268517461E+01  0.22268517461E+01  0.00000000000E+00 0. -1.
         21    1    1    2  502  501  0.19443796110E+02  0.17152074747E+02  0.82420122222E+02  0.86402149409E+02  0.00000000000E+00 0. -1.
         21    1    1    2  503  502 -0.19443796110E+02 -0.17152074747E+02  0.71238727564E+03  0.71285895194E+03  0.00000000000E+00 0.  1.
</event>
<event>
 4    1  0.5548812E+002  0.3406440E+02  0.7546771E-02  0.1387263E+00
          2   -1    0    0  503    0  0.00000000000E+00  0.00000000000E+00  0.13219270873E+03  0.13219270873E+03  0.00000000000E+00 0. -1.
         -2   -1    0    0    0  501 -0.00000000000E+00 -0.00000000000E+00 -0.96491678191E+01  0.96491678191E+01  0.00000000000E+00 0.  1.
         21    1    1    2  502  501 -0.14679282279E+02 -0.30739257863E+02  0.39961520032E+02  0.52510059850E+02  0.00000000000E+00 0.  1.
         21    1    1    2  503  502  0.14679282279E+02  0.30739257863E+02  0.82582020877E+02  0.89331816697E+02  0.00000000000E+00 0. -1.
</event>
<event>
 4    1  0.5548812E+002  0.2178314E+02  0.7546771E-02  0.1508371E+00
          2   -1    0    0  502    0  0.00000000000E+00  0.00000000000E+00  0.44286581088E+03  0.44286581088E+03  0.00000000000E+00 0. -1.
         -2   -1    0    0    0  501 -0.00000000000E+00 -0.00000000000E+00 -0.12305460738E+01  0.12305460738E+01  0.00000000000E+00 0.  1.
         21    1    1    2  502  503  0.17218198369E+01  0.21714984276E+02  0.30066091509E+03  0.30144898584E+03  0.00000000000E+00 0. -1.
         21    1    1    2  503  501 -0.17218198369E+01 -0.21714984276E+02  0.14097434972E+03  0.14264737111E+03  0.00000000000E+00 0.  1.
</event>
<event>
 4    1  0.5548812E+002  0.2651156E+02  0.7546771E-02  0.1452577E+00
          2   -1    0    0  503    0  0.00000000000E+00  0.00000000000E+00  0.19871338056E+02  0.19871338056E+02  0.00000000000E+00 0.  1.
         -2   -1    0    0    0  501 -0.00000000000E+00 -0.00000000000E+00 -0.35814374202E+02  0.35814374202E+02  0.00000000000E+00 0. -1.
         21    1    1    2  502  501 -0.53337902369E+01 -0.25969477210E+02 -0.11070499439E+02  0.28730106555E+02  0.00000000000E+00 0. -1.
         21    1    1    2  503  502  0.53337902369E+01  0.25969477210E+02 -0.48725367071E+01  0.26955605703E+02  0.00000000000E+00 0.  1.
</event>
<event>
 4    1  0.5548812E+002  0.2272593E+02  0.7546771E-02  0.1495969E+00
          2   -1    0    0  502    0  0.00000000000E+00  0.00000000000E+00  0.33746373810E+03  0.33746373810E+03  0.00000000000E+00 0.  1.
         -2   -1    0    0    0  501 -0.00000000000E+00 -0.00000000000E+00 -0.11865715013E+02  0.11865715013E+02  0.00000000000E+00 0. -1.
         21    1    1    2  502  503 -0.22284323909E+02 -0.44583481174E+01  0.32581089787E+03  0.32660252468E+03  0.00000000000E+00 0.  1.
         21    1    1    2  503  501  0.22284323909E+02  0.44583481174E+01 -0.21287478381E+00  0.22726928426E+02  0.00000000000E+00 0. -1.
</event>
<event>
 4    1  0.5548812E+002  0.3385547E+02  0.7546771E-02  0.1388793E+00
          2   -1    0    0  503    0  0.00000000000E+00  0.00000000000E+00  0.19624429888E+04  0.19624429888E+04  0.00000000000E+00 0. -1.
         -2   -1    0    0    0  501 -0.00000000000E+00 -0.00000000000E+00 -0.11656789685E+01  0.11656789685E+01  0.00000000000E+00 0.  1.
         21    1    1    2  502  501  0.15465535855E+02 -0.30116610287E+02  0.28712803435E+03  0.28911710625E+03  0.00000000000E+00 0.  1.
         21    1    1    2  503  502 -0.15465535855E+02  0.30116610287E+02  0.16741492755E+04  0.16744915615E+04  0.00000000000E+00 0. -1.
</event>
<event>
 4    1  0.5548812E+002  0.2004108E+02  0.7546771E-02  0.1533409E+00
          2   -1    0    0  503    0  0.00000000000E+00  0.00000000000E+00  0.67518328562E+03  0.67518328562E+03  0.00000000000E+00 0. -1.
         -2   -1    0    0    0  501 -0.00000000000E+00 -0.00000000000E+00 -0.64251554542E+00  0.64251554542E+00  0.00000000000E+00 0.  1.
         21    1    1    2  502  501 -0.54394763901E+01  0.19288777698E+02  0.42929071241E+03  0.42975825834E+03  0.00000000000E+00 0. -1.
         21    1    1    2  503  502  0.54394763901E+01 -0.19288777698E+02  0.24525005767E+03  0.24606754283E+03  0.00000000000E+00 0.  1.
</event>
<event>
 4    1  0.5548812E+002  0.2048384E+02  0.7546771E-02  0.1526763E+00
          2   -1    0    0  503    0  0.00000000000E+00  0.00000000000E+00  0.47935554638E+01  0.47935554638E+01  0.00000000000E+00 0.  1.
         -2   -1    0    0    0  501 -0.00000000000E+00 -0.00000000000E+00 -0.10662511337E+03  0.10662511337E+03  0.00000000000E+00 0. -1.
         21    1    1    2  502  501  0.11205359053E+02  0.17147228688E+02 -0.74490212980E+02  0.77255286893E+02  0.00000000000E+00 0. -1.
         21    1    1    2  503  502 -0.11205359053E+02 -0.17147228688E+02 -0.27341344925E+02  0.34163381939E+02  0.00000000000E+00 0.  1.
</event>
<event>
 4    1  0.5548812E+002  0.2226329E+02  0.7546771E-02  0.1501962E+00
          2   -1    0    0  503    0  0.00000000000E+00  0.00000000000E+00  0.82778390129E+03  0.82778390129E+03  0.00000000000E+00 0. -1.
         -2   -1    0    0    0  501 -0.00000000000E+00 -0.00000000000E+00 -0.10116084947E+01  0.10116084947E+01  0.00000000000E+00 0.  1.
         21    1    1    2  502  501  0.20986788716E+02 -0.74302571159E+01  0.14865802707E+03  0.15031587751E+03  0.00000000000E+00 0.  1.
         21    1    1    2  503  502 -0.20986788716E+02  0.74302571159E+01  0.67811426573E+03  0.67847963227E+03  0.00000000000E+00 0. -1.
</event>
<event>
 4    1  0.5548812E+002  0.2914059E+02  0.7546771E-02  0.1427215E+00
          2   -1    0    0  503    0  0.00000000000E+00  0.00000000000E+00  0.17336929558E+01  0.17336929558E+01  0.00000000000E+00 0. -1.
         -2   -1    0    0    0  501 -0.00000000000E+00 -0.00000000000E+00 -0.56660286374E+03  0.56660286374E+03  0.00000000000E+00 0.  1.
         21    1    1    2  502  501 -0.19864693269E+02  0.21320599597E+02 -0.38705264503E+03  0.38814806973E+03  0.00000000000E+00 0.  1.
         21    1    1    2  503  502  0.19864693269E+02 -0.21320599597E+02 -0.17781652575E+03  0.18018848697E+03  0.00000000000E+00 0. -1.
</event>
<event>
 4    1  0.5548812E+002  0.2997089E+02  0.7546771E-02  0.1419850E+00
          2   -1    0    0  502    0  0.00000000000E+00  0.00000000000E+00  0.31491875733E+03  0.31491875733E+03  0.00000000000E+00 0. -1.
         -2   -1    0    0    0  501 -0.00000000000E+00 -0.00000000000E+00 -0.39993554081E+01  0.39993554081E+01  0.00000000000E+00 0.  1.
         21    1    1    2  502  503 -0.77889535338E+00  0.29960768455E+02  0.24085607746E+03  0.24271362626E+03  0.00000000000E+00 0.  1.
         21    1    1    2  503  501  0.77889535338E+00 -0.29960768455E+02  0.70063324470E+02  0.76204486483E+02  0.00000000000E+00 0. -1.
</event>
<event>
 4    1  0.5548812E+002  0.3675911E+02  0.7546771E-02  0.1368601E+00
          2   -1    0    0  502    0  0.00000000000E+00  0.00000000000E+00  0.78470316304E+03  0.78470316304E+03  0.00000000000E+00 0.  1.
         -2   -1    0    0    0  501 -0.00000000000E+00 -0.00000000000E+00 -0.28397643268E+01  0.28397643268E+01  0.00000000000E+00 0. -1.
         21    1    1    2  502  503  0.30064280875E+02 -0.21151147284E+02  0.63798169768E+03  0.63903980987E+03  0.00000000000E+00 0. -1.
         21    1    1    2  503  501 -0.30064280875E+02  0.21151147284E+02  0.14388170103E+03  0.14850311750E+03  0.00000000000E+00 0.  1.
</event>
<event>
 4    1  0.5548812E+002  0.2271480E+02  0.7546771E-02  0.1496111E+00
          2   -1    0    0  502    0  0.00000000000E+00  0.00000000000E+00  0.12517807131E+01  0.12517807131E+01  0.00000000000E+00 0.  1.
         -2   -1    0    0    0  501 -0.00000000000E+00 -0.00000000000E+00 -0.58454059610E+03  0.58454059610E+03  0.00000000000E+00 0. -1.
         21    1    1    2  502  503 -0.20154977480E+02  0.10475640928E+02 -0.45069019062E+03  0.45126224093E+03  0.00000000000E+00 0. -1.
         21    1    1    2  503  501  0.20154977480E+02 -0.10475640928E+02 -0.13259862477E+03  0.13453013588E+03  0.00000000000E+00 0.  1.
</event>
<event>
 4    1  0.5548812E+002  0.5454491E+02  0.7546771E-02  0.1279585E+00
          2   -1    0    0  503    0  0.00000000000E+00  0.00000000000E+00  0.91719649915E+03  0.91719649915E+03  0.00000000000E+00 0.  1.
         -2   -1    0    0    0  501 -0.00000000000E+00 -0.00000000000E+00 -0.38291945024E+01  0.38291945024E+01  0.00000000000E+00 0. -1.
         21    1    1    2  502  501 -0.47099698799E+01 -0.54341173645E+02  0.27661645168E+03  0.28194291676E+03  0.00000000000E+00 0. -1.
         21    1    1    2  503  502  0.47099698799E+01  0.54341173645E+02  0.63675085297E+03  0.63908277690E+03  0.00000000000E+00 0.  1.
</event>
<event>
 4    1  0.5548812E+002  0.3012371E+02  0.7546771E-02  0.1418524E+00
          2   -1    0    0  503    0  0.00000000000E+00  0.00000000000E+00  0.58038966502E+02  0.58038966502E+02  0.00000000000E+00 0. -1.
         -2   -1    0    0    0  501 -0.00000000000E+00 -0.00000000000E+00 -0.17178200772E+02  0.17178200772E+02  0.00000000000E+00 0.  1.
         21    1    1    2  502  501 -0.19817176496E+02 -0.22687383895E+02  0.31702686423E+02  0.43732118617E+02  0.00000000000E+00 0. -1.
         21    1    1    2  503  502  0.19817176496E+02  0.22687383895E+02  0.91580793069E+01  0.31485048656E+02  0.00000000000E+00 0.  1.
</event>
<event>
 4    1  0.5548812E+002  0.2223443E+02  0.7546771E-02  0.1502342E+00
          2   -1    0    0  503    0  0.00000000000E+00  0.00000000000E+00  0.28794023419E+01  0.28794023419E+01  0.00000000000E+00 0. -1.
         -2   -1    0    0    0  501 -0.00000000000E+00 -0.00000000000E+00 -0.19012389986E+03  0.19012389986E+03  0.00000000000E+00 0.  1.
         21    1    1    2  502  501  0.21796041221E+02  0.43934611044E+01 -0.12366939368E+03  0.12565225365E+03  0.00000000000E+00 0. -1.
         21    1    1    2  503  502 -0.21796041221E+02 -0.43934611044E+01 -0.63575103838E+02  0.67351048554E+02  0.00000000000E+00 0.  1.
</event>
<event>
 4    1  0.5548812E+002  0.2423987E+02  0.7546771E-02  0.1477490E+00
          2   -1    0    0  502    0  0.00000000000E+00  0.00000000000E+00  0.32316053326E+02  0.32316053326E+02  0.00000000000E+00 0. -1.
         -2   -1    0    0    0  501 -0.00000000000E+00 -0.00000000000E+00 -0.34975966779E+02  0.34975966779E+02  0.00000000000E+00 0.  1.
         21    1    1    2  502  503 -0.12771324509E+02  0.20602534587E+02  0.21984488161E+02  0.32724438587E+02  0.00000000000E+00 0. -1.
         21    1    1    2  503  501  0.12771324509E+02 -0.20602534587E+02 -0.24644401614E+02  0.34567581518E+02  0.00000000000E+00 0.  1.
</event>
<event>
 4    1  0.5548812E+002  0.2034508E+02  0.7546771E-02  0.1528824E+00
          2   -1    0    0  503    0  0.00000000000E+00  0.00000000000E+00  0.64577744694E+02  0.64577744694E+02  0.00000000000E+00 0.  1.
         -2   -1    0    0    0  501 -0.00000000000E+00 -0.00000000000E+00 -0.36599091052E+02  0.36599091052E+02  0.00000000000E+00 0. -1.
         21    1    1    2  502  501  0.15544260260E+01 -0.20285612070E+02 -0.31956207897E+02  0.37882997776E+02  0.00000000000E+00 0. -1.
         21    1    1    2  503  502 -0.15544260260E+01  0.20285612070E+02  0.59934861539E+02  0.63293837970E+02  0.00000000000E+00 0.  1.
</event>
<event>
 4    1  0.5548812E+002  0.2215587E+02  0.7546771E-02  0.1503379E+00
          2   -1    0    0  502    0  0.00000000000E+00  0.00000000000E+00  0.16252710382E+01  0.16252710382E+01  0.00000000000E+00 0.  1.
         -2   -1    0    0    0  501 -0.00000000000E+00 -0.00000000000E+00 -0.30232979804E+03  0.30232979804E+03  0.00000000000E+00 0. -1.
         21    1    1    2  502  503  0.16830856830E+02  0.14408494655E+02 -0.14557556203E+03  0.14725191584E+03  0.00000000000E+00 0.  1.
         21    1    1    2  503  501 -0.16830856830E+02 -0.14408494655E+02 -0.15512896497E+03  0.15670315323E+03  0.00000000000E+00 0. -1.
</event>
<event>
 4    1  0.5548812E+002  0.5087672E+02  0.7546771E-02  0.1294415E+00
          2   -1    0    0  502    0  0.00000000000E+00  0.00000000000E+00  0.60990700784E+03  0.60990700784E+03  0.00000000000E+00 0. -1.
         -2   -1    0    0    0  501 -0.00000000000E+00 -0.00000000000E+00 -0.16686612239E+02  0.16686612239E+02  0.00000000000E+00 0.  1.
         21    1    1    2  502  503 -0.77826377182E+01  0.50277934356E+02  0.56714791336E+03  0.56942532062E+03  0.00000000000E+00 0. -1.
         21    1    1    2  503  501  0.77826377182E+01 -0.50277934356E+02  0.26072482240E+02  0.57168299460E+02  0.00000000000E+00 0.  1.
</event>
<event>
 4    1  0.5548812E+002  0.2285941E+02  0.7546771E-02  0.1494271E+00
          2   -1    0    0  502    0  0.00000000000E+00  0.00000000000E+00  0.13167210352E+04  0.13167210352E+04  0.00000000000E+00 0. -1.
         -2   -1    0    0    0  501 -0.00000000000E+00 -0.00000000000E+00 -0.74320911602E+00  0.74320911602E+00  0.00000000000E+00 0.  1.
         21    1    1    2  502  503  0.12182449143E+02 -0.19342718105E+02  0.11076764930E+04  0.11079123458E+04  0.00000000000E+00 0. -1.
         21    1    1    2  503  501 -0.12182449143E+02  0.19342718105E+02  0.20830133303E+03  0.20955189847E+03  0.00000000000E+00 0.  1.
</event>
<event>
 4    1  0.5548812E+002  0.2380258E+02  0.7546771E-02  0.1482659E+00
          2   -1    0    0  503    0  0.00000000000E+00  0.00000000000E+00  0.14456072096E+04  0.14456072096E+04  0.00000000000E+00 0. -1.
         -2   -1    0    0    0  501 -0.00000000000E+00 -0.00000000000E+00 -0.92325867873E+00  0.92325867873E+00  0.00000000000E+00 0.  1.
         21    1    1    2  502  501 -0.15119151193E+02 -0.18384076522E+02  0.17365907002E+03  0.17528273047E+03  0.00000000000E+00 0.  1.
         21    1    1    2  503  502  0.15119151193E+02  0.18384076522E+02  0.12710248809E+04  0.12712477378E+04  0.00000000000E+00 0. -1.
</event>
<event>
 4    1  0.5548812E+002  0.3044646E+02  0.7546771E-02  0.1415756E+00
          2   -1    0    0  503    0  0.00000000000E+00  0.00000000000E+00  0.23757619927E+04  0.23757619927E+04  0.00000000000E+00 0. -1.
         -2   -1    0    0    0  501 -0.00000000000E+00 -0.00000000000E+00 -0.97812476078E+00  0.97812476078E+00  0.00000000000E+00 0.  1.
         21    1    1    2  502  501  0.27670263838E+02 -0.12702092006E+02  0.26604966035E+03  0.26778612439E+03  0.00000000000E+00 0.  1.
         21    1    1    2  503  502 -0.27670263838E+02  0.12702092006E+02  0.21087342076E+04  0.21089539930E+04  0.00000000000E+00 0. -1.
</event>
<event>
 4    1  0.5548812E+002  0.2013883E+02  0.7546771E-02  0.1531924E+00
          2   -1    0    0  502    0  0.00000000000E+00  0.00000000000E+00  0.16603407088E+02  0.16603407088E+02  0.00000000000E+00 0. -1.
         -2   -1    0    0    0  501 -0.00000000000E+00 -0.00000000000E+00 -0.16217718342E+03  0.16217718342E+03  0.00000000000E+00 0.  1.
         21    1    1    2  502  503 -0.19912423557E+02 -0.30112733608E+01  0.95968505753E+01  0.22308561589E+02  0.00000000000E+00 0. -1.
         21    1    1    2  503  501  0.19912423557E+02  0.30112733608E+01 -0.15517062690E+03  0.15647202892E+03  0.00000000000E+00 0.  1.
</event>
<event>
 4    1  0.5548812E+002  0.2013812E+02  0.7546771E-02  0.1531935E+00
          2   -1    0    0  502    0  0.00000000000E+00  0.00000000000E+00  0.80167562396E+01  0.80167562396E+01  0.00000000000E+00 0. -1.
         -2   -1    0    0    0  501 -0.00000000000E+00 -0.00000000000E+00 -0.16454077259E+03  0.16454077259E+03  0.00000000000E+00 0.  1.
         21    1    1    2  502  503  0.10445267270E+02 -0.17217443073E+02 -0.64608529254E+01  0.21149150688E+02  0.00000000000E+00 0. -1.
         21    1    1    2  503  501 -0.10445267270E+02  0.17217443073E+02 -0.15006316343E+03  0.15140837815E+03  0.00000000000E+00 0.  1.
</event>
<event>
 4    1  0.5548812E+002  0.2218255E+02  0.7546771E-02  0.1503026E+00
          2   -1    0    0  502    0  0.00000000000E+00  0.00000000000E+00  0.87489815527E+02  0.87489815527E+02  0.00000000000E+00 0. -1.
         -2   -1    0    0    0  501 -0.00000000000E+00 -0.00000000000E+00 -0.28400828464E+02  0.28400828464E+02  0.00000000000E+00 0.  1.
         21    1    1    2  502  503  0.18380941635E+02  0.12417995732E+02  0.81436086764E+02  0.84403210015E+02  0.00000000000E+00 0. -1.
         21    1    1    2  503  501 -0.18380941635E+02 -0.12417995732E+02 -0.22347099701E+02  0.31487433976E+02  0.00000000000E+00 0.  1.
</event>
<event>
 4    1  0.5548812E+002  0.3508751E+02  0.7546771E-02  0.1379949E+00
          2   -1    0    0  502    0  0.00000000000E+00  0.00000000000E+00  0.30401229298E+02  0.30401229298E+02  0.00000000000E+00 0.  1.
         -2   -1    0    0    0  501 -0.00000000000E+00 -0.00000000000E+00 -0.54335468403E+02  0.54335468403E+02  0.00000000000E+00 0. -1.
         21    1    1    2  502  503 -0.14931356327E+02  0.31751976927E+02 -0.33349537872E+02  0.48407903454E+02  0.00000000000E+00 0. -1.
         21    1    1    2  503  501  0.14931356327E+02 -0.31751976927E+02  0.94152987683E+01  0.36328794247E+02  0.00000000000E+00 0.  1.
</event>
<event>
 4    1  0.5548812E+002  0.2297208E+02  0.7546771E-02  0.1492849E+00
          2   -1    0    0  503    0  0.00000000000E+00  0.00000000000E+00  0.10691080080E+03  0.10691080080E+03  0.00000000000E+00 0.  1.
         -2   -1    0    0    0  501 -0.00000000000E+00 -0.00000000000E+00 -0.94730884130E+01  0.94730884130E+01  0.00000000000E+00 0. -1.
         21    1    1    2  502  501  0.12277998287E+02 -0.19415646197E+02  0.84468257457E+01  0.24475813048E+02  0.00000000000E+00 0. -1.
         21    1    1    2  503  502 -0.12277998287E+02  0.19415646197E+02  0.88990886642E+02  0.91908076166E+02  0.00000000000E+00 0.  1.
</event>
<event>
 4    1  0.5548812E+002  0.3205713E+02  0.7546771E-02  0.1402524E+00
          2   -1    0    0  502    0  0.00000000000E+00  0.00000000000E+00  0.27820809855E+04  0.27820809855E+04  0.00000000000E+00 0.  1.
         -2   -1    0    0    0  501 -0.00000000000E+00 -0.00000000000E+00 -0.37825563781E+00  0.37825563781E+00  0.00000000000E+00 0. -1.
         21    1    1    2  502  503  0.31797420167E+02  0.40722843816E+01  0.11778023047E+04  0.11782384854E+04  0.00000000000E+00 0.  1.
         21    1    1    2  503  501 -0.31797420167E+02 -0.40722843816E+01  0.16039004252E+04  0.16042207558E+04  0.00000000000E+00 0. -1.
</event>
<event>
 4    1  0.5548812E+002  0.4420670E+02  0.7546771E-02  0.1325454E+00
          2   -1    0    0  503    0  0.00000000000E+00  0.00000000000E+00  0.18278168407E+02  0.18278168407E+02  0.00000000000E+00 0. -1.
         -2   -1    0    0    0  501 -0.00000000000E+00 -0.00000000000E+00 -0.15921332782E+03  0.15921332782E+03  0.00000000000E+00 0.  1.
         21    1    1    2  502  501  0.38859356158E+02  0.21075634137E+02 -0.12132998020E+03  0.12913247466E+03  0.00000000000E+00 0.  1.
         21    1    1    2  503  502 -0.38859356158E+02 -0.21075634137E+02 -0.19605179210E+02  0.48359021569E+02  0.00000000000E+00 0. -1.
</event>
<event>
 4    1  0.5548812E+002  0.2183238E+02  0.7546771E-02  0.1507705E+00
          2   -1    0    0  503    0  0.00000000000E+00  0.00000000000E+00  0.66423644723E+02  0.66423644723E+02  0.00000000000E+00 0. -1.
         -2   -1    0    0    0  501 -0.00000000000E+00 -0.00000000000E+00 -0.83307061046E+01  0.83307061046E+01  0.00000000000E+00 0.  1.
         21    1    1    2  502  501  0.41509214624E+01 -0.21434144281E+02  0.15130582594E+02  0.26562891780E+02  0.00000000000E+00 0. -1.
         21    1    1    2  503  502 -0.41509214624E+01  0.21434144281E+02  0.42962356024E+02  0.48191459048E+02  0.00000000000E+00 0.  1.
</event>
<event>
 4    1  0.5548812E+002  0.2322174E+02  0.7546771E-02  0.1489732E+00
          2   -1    0    0  502    0  0.00000000000E+00  0.00000000000E+00  0.96204141939E+02  0.96204141939E+02  0.00000000000E+00 0.  1.
         -2   -1    0    0    0  501 -0.00000000000E+00 -0.00000000000E+00 -0.11314154773E+02  0.11314154773E+02  0.00000000000E+00 0. -1.
         21    1    1    2  502  503  0.22537355850E+02 -0.55961491365E+01  0.80632149607E+02  0.83909432391E+02  0.00000000000E+00 0.  1.
         21    1    1    2  503  501 -0.22537355850E+02  0.55961491365E+01  0.42578375584E+01  0.23608864321E+02  0.00000000000E+00 0. -1.
</event>
<event>
 4    1  0.5548812E+002  0.2212696E+02  0.7546771E-02  0.1503762E+00
          2   -1    0    0  502    0  0.00000000000E+00  0.00000000000E+00  0.76869132653E+03  0.76869132653E+03  0.00000000000E+00 0. -1.
         -2   -1    0    0    0  501 -0.00000000000E+00 -0.00000000000E+00 -0.67259515842E+00  0.67259515842E+00  0.00000000000E+00 0.  1.
         21    1    1    2  502  503  0.15649501112E+02 -0.15642741597E+02  0.29542653761E+03  0.29625401495E+03  0.00000000000E+00 0.  1.
         21    1    1    2  503  501 -0.15649501112E+02  0.15642741597E+02  0.47259219376E+03  0.47310990674E+03  0.00000000000E+00 0. -1.
</event>
<event>
 4    1  0.5548812E+002  0.2086891E+02  0.7546771E-02  0.1521145E+00
          2   -1    0    0  503    0  0.00000000000E+00  0.00000000000E+00  0.13511357428E+04  0.13511357428E+04  0.00000000000E+00 0. -1.
         -2   -1    0    0    0  501 -0.00000000000E+00 -0.00000000000E+00 -0.35194865282E+00  0.35194865282E+00  0.00000000000E+00 0.  1.
         21    1    1    2  502  501  0.75893423853E+01 -0.19439994291E+02  0.47936052752E+03  0.47981457548E+03  0.00000000000E+00 0.  1.
         21    1    1    2  503  502 -0.75893423853E+01  0.19439994291E+02  0.87142326660E+03  0.87167311595E+03  0.00000000000E+00 0. -1.
</event>
<event>
 4    1  0.5548812E+002  0.3630422E+02  0.7546771E-02  0.1371619E+00
          2   -1    0    0  502    0  0.00000000000E+00  0.00000000000E+00  0.18471653733E+02  0.18471653733E+02  0.00000000000E+00 0. -1.
         -2   -1    0    0    0  501 -0.00000000000E+00 -0.00000000000E+00 -0.93358551381E+02  0.93358551381E+02  0.00000000000E+00 0.  1.
         21    1    1    2  502  503  0.24374705186E+02  0.26904830461E+02 -0.10296283980E+02  0.37736051977E+02  0.00000000000E+00 0. -1.
         21    1    1    2  503  501 -0.24374705186E+02 -0.26904830461E+02 -0.64590613668E+02  0.74094153137E+02  0.00000000000E+00 0.  1.
</event>
<event>
 4    1  0.5548812E+002  0.2114547E+02  0.7546771E-02  0.1517198E+00
          2   -1    0    0  503    0  0.00000000000E+00  0.00000000000E+00  0.36800698385E+01  0.36800698385E+01  0.00000000000E+00 0.  1.
         -2   -1    0    0    0  501 -0.00000000000E+00 -0.00000000000E+00 -0.22277660676E+03  0.22277660676E+03  0.00000000000E+00 0. -1.
         21    1    1    2  502  501  0.91601029196E+01 -0.19058425870E+02 -0.18589200279E+03  0.18709080091E+03  0.00000000000E+00 0. -1.
         21    1    1    2  503  502 -0.91601029196E+01  0.19058425870E+02 -0.33204534126E+02  0.39365875688E+02  0.00000000000E+00 0.  1.
</event>
<event>
 4    1  0.7337705E+002  0.2223638E+03  0.7546771E-02  0.1040322E+00
          2   -1    0    0  502    0  0.00000000000E+00  0.00000000000E+00  0.13851208983E+04  0.13851208983E+04  0.00000000000E+00 0.  1.
         -2   -1    0    0    0  501 -0.00000000000E+00 -0.00000000000E+00 -0.37255068711E+02  0.37255068711E+02  0.00000000000E+00 0. -1.
         21    1    1    2  502  503 -0.21197070662E+03  0.67186767657E+02  0.52852560220E+03  0.57339772793E+03  0.00000000000E+00 0. -1.
         21    1    1    2  503  501  0.21197070662E+03 -0.67186767657E+02  0.81934022737E+03  0.84897823906E+03  0.00000000000E+00 0.  1.
</event>
<event>
 4    1  0.5548812E+002  0.2321252E+02  0.7546771E-02  0.1489847E+00
          2   -1    0    0  503    0  0.00000000000E+00  0.00000000000E+00  0.14493792023E+02  0.14493792023E+02  0.00000000000E+00 0. -1.
         -2   -1    0    0    0  501 -0.00000000000E+00 -0.00000000000E+00 -0.13181402111E+03  0.13181402111E+03  0.00000000000E+00 0.  1.
         21    1    1    2  502  501 -0.17445717663E+02 -0.15312346855E+02 -0.12064553806E+03  0.12285832037E+03  0.00000000000E+00 0.  1.
         21    1    1    2  503  502  0.17445717663E+02  0.15312346855E+02  0.33253089723E+01  0.23449492761E+02  0.00000000000E+00 0. -1.
</event>
<event>
 4    1  0.5548812E+002  0.2046414E+02  0.7546771E-02  0.1527055E+00
          2   -1    0    0  502    0  0.00000000000E+00  0.00000000000E+00  0.61952532056E+02  0.61952532056E+02  0.00000000000E+00 0.  1.
         -2   -1    0    0    0  501 -0.00000000000E+00 -0.00000000000E+00 -0.23127109793E+02  0.23127109793E+02  0.00000000000E+00 0. -1.
         21    1    1    2  502  503  0.52438080208E+01  0.19780885010E+02  0.55199676079E+02  0.58870919591E+02  0.00000000000E+00 0.  1.
         21    1    1    2  503  501 -0.52438080208E+01 -0.19780885010E+02 -0.16374253816E+02  0.26208722257E+02  0.00000000000E+00 0. -1.
</event>
<event>
 4    1  0.5548812E+002  0.2073745E+02  0.7546771E-02  0.1523047E+00
          2   -1    0    0  503    0  0.00000000000E+00  0.00000000000E+00  0.44921582964E+02  0.44921582964E+02  0.00000000000E+00 0. -1.
         -2   -1    0    0    0  501 -0.00000000000E+00 -0.00000000000E+00 -0.11348262953E+02  0.11348262953E+02  0.00000000000E+00 0.  1.
         21    1    1    2  502  501 -0.15976882474E+01 -0.20675816483E+02  0.56593173081E+01  0.21495810461E+02  0.00000000000E+00 0.  1.
         21    1    1    2  503  502  0.15976882474E+01  0.20675816483E+02  0.27914002702E+02  0.34774035455E+02  0.00000000000E+00 0. -1.
</event>
<event>
 4    1  0.5548812E+002  0.3781913E+02  0.7546771E-02  0.1361762E+00
          2   -1    0    0  502    0  0.00000000000E+00  0.00000000000E+00  0.69386782026E+03  0.69386782026E+03  0.00000000000E+00 0. -1.
         -2   -1    0    0    0  501 -0.00000000000E+00 -0.00000000000E+00 -0.25542601401E+01  0.25542601401E+01  0.00000000000E+00 0.  1.
         21    1    1    2  502  503 -0.86640532324E+00 -0.37809204229E+02  0.49862639788E+03  0.50005856782E+03  0.00000000000E+00 0.  1.
         21    1    1    2  503  501  0.86640532324E+00  0.37809204229E+02  0.19268716224E+03  0.19636351258E+03  0.00000000000E+00 0. -1.
</event>
<event>
 4    1  0.5548812E+002  0.2193937E+02  0.7546771E-02  0.1506264E+00
          2   -1    0    0  502    0  0.00000000000E+00  0.00000000000E+00  0.90698830922E+03  0.90698830922E+03  0.00000000000E+00 0.  1.
         -2   -1    0    0    0  501 -0.00000000000E+00 -0.00000000000E+00 -0.10031249060E+01  0.10031249060E+01  0.00000000000E+00 0. -1.
         21    1    1    2  502  503  0.20267796370E+02 -0.83995454929E+01  0.76455284044E+03  0.76486755831E+03  0.00000000000E+00 0.  1.
         21    1    1    2  503  501 -0.20267796370E+02  0.83995454929E+01  0.14143234387E+03  0.14312387581E+03  0.00000000000E+00 0. -1.
</event>
<event>
 4    1  0.5548812E+002  0.2037588E+02  0.7546771E-02  0.1528365E+00
          2   -1    0    0  502    0  0.00000000000E+00  0.00000000000E+00  0.83559290556E+03  0.83559290556E+03  0.00000000000E+00 0. -1.
         -2   -1    0    0    0  501 -0.00000000000E+00 -0.00000000000E+00 -0.16738757200E+01  0.16738757200E+01  0.00000000000E+00 0.  1.
         21    1    1    2  502  503 -0.10707898743E+02 -0.17335443052E+02  0.76800428793E+03  0.76827453619E+03  0.00000000000E+00 0. -1.
         21    1    1    2  503  501  0.10707898743E+02  0.17335443052E+02  0.65914741911E+02  0.68992245089E+02  0.00000000000E+00 0.  1.
</event>
<event>
 4    1  0.5548812E+002  0.4202670E+02  0.7546771E-02  0.1337002E+00
          2   -1    0    0  503    0  0.00000000000E+00  0.00000000000E+00  0.94514115891E+03  0.94514115891E+03  0.00000000000E+00 0. -1.
         -2   -1    0    0    0  501 -0.00000000000E+00 -0.00000000000E+00 -0.19442809454E+01  0.19442809454E+01  0.00000000000E+00 0.  1.
         21    1    1    2  502  501 -0.16109381032E+02  0.38816633240E+02  0.56492596847E+03  0.56648706342E+03  0.00000000000E+00 0. -1.
         21    1    1    2  503  502  0.16109381032E+02 -0.38816633240E+02  0.37827090949E+03  0.38059837643E+03  0.00000000000E+00 0.  1.
</event>
<event>
 4    1  0.5548812E+002  0.2863256E+02  0.7546771E-02  0.1431864E+00
          2   -1    0    0  503    0  0.00000000000E+00  0.00000000000E+00  0.44761817388E+02  0.44761817388E+02  0.00000000000E+00 0. -1.
         -2   -1    0    0    0  501 -0.00000000000E+00 -0.00000000000E+00 -0.78086226874E+02  0.78086226874E+02  0.00000000000E+00 0.  1.
         21    1    1    2  502  501 -0.76808014471E+01 -0.27583126646E+02 -0.70402027849E+02  0.76001770451E+02  0.00000000000E+00 0.  1.
         21    1    1    2  503  502  0.76808014471E+01  0.27583126646E+02  0.37077618363E+02  0.46846273811E+02  0.00000000000E+00 0. -1.
</event>
<event>
 4    1  0.5548812E+002  0.2005508E+02  0.7546771E-02  0.1533195E+00
          2   -1    0    0  502    0  0.00000000000E+00  0.00000000000E+00  0.86097729190E+03  0.86097729190E+03  0.00000000000E+00 0. -1.
         -2   -1    0    0    0  501 -0.00000000000E+00 -0.00000000000E+00 -0.47096091755E+00  0.47096091755E+00  0.00000000000E+00 0.  1.
         21    1    1    2  502  503  0.15783348924E+02  0.12373038649E+02  0.46899487084E+03  0.46942347093E+03  0.00000000000E+00 0.  1.
         21    1    1    2  503  501 -0.15783348924E+02 -0.12373038649E+02  0.39151146014E+03  0.39202478188E+03  0.00000000000E+00 0. -1.
</event>
<event>
 4    1  0.5548812E+002  0.2384685E+02  0.7546771E-02  0.1482129E+00
          2   -1    0    0  503    0  0.00000000000E+00  0.00000000000E+00  0.44948243646E+03  0.44948243646E+03  0.00000000000E+00 0.  1.
         -2   -1    0    0    0  501 -0.00000000000E+00 -0.00000000000E+00 -0.25144644529E+02  0.25144644529E+02  0.00000000000E+00 0. -1.
         21    1    1    2  502  501  0.23669832261E+02  0.29002345942E+01 -0.19097290345E+02  0.30551249049E+02  0.00000000000E+00 0. -1.
         21    1    1    2  503  502 -0.23669832261E+02 -0.29002345942E+01  0.44343508228E+03  0.44407583194E+03  0.00000000000E+00 0.  1.
</event>
<event>
 4    1  0.5548812E+002  0.2612235E+02  0.7546771E-02  0.1456629E+00
          2   -1    0    0  503    0  0.00000000000E+00  0.00000000000E+00  0.56288449723E+03  0.56288449723E+03  0.00000000000E+00 0. -1.
         -2   -1    0    0    0  501 -0.00000000000E+00 -0.00000000000E+00 -0.13664279764E+01  0.13664279764E+01  0.00000000000E+00 0.  1.
         21    1    1    2  502  501  0.26029525928E+02 -0.22002382392E+01  0.18600260451E+03  0.18782796957E+03  0.00000000000E+00 0.  1.
         21    1    1    2  503  502 -0.26029525928E+02  0.22002382392E+01  0.37551546474E+03  0.37642295563E+03  0.00000000000E+00 0. -1.
</event>
<event>
 4    1  0.5548812E+002  0.2017223E+02  0.7546771E-02  0.1531419E+00
          2   -1    0    0  502    0  0.00000000000E+00  0.00000000000E+00  0.49452214184E+03  0.49452214184E+03  0.00000000000E+00 0.  1.
         -2   -1    0    0    0  501 -0.00000000000E+00 -0.00000000000E+00 -0.10900770974E+01  0.10900770974E+01  0.00000000000E+00 0. -1.
         21    1    1    2  502  503 -0.18396984909E+02 -0.82746411217E+01  0.36940956906E+03  0.36995992817E+03  0.00000000000E+00 0.  1.
         21    1    1    2  503  501  0.18396984909E+02  0.82746411217E+01  0.12402249568E+03  0.12565229077E+03  0.00000000000E+00 0. -1.
</event>
<event>
 4    1  0.5548812E+002  0.2612287E+02  0.7546771E-02  0.1456624E+00
          2   -1    0    0  502    0  0.00000000000E+00  0.00000000000E+00  0.36312963915E+02  0.36312963915E+02  0.00000000000E+00 0. -1.
         -2   -1    0    0    0  501 -0.00000000000E+00 -0.00000000000E+00 -0.45500471629E+02  0.45500471629E+02  0.00000000000E+00 0.  1.
         21    1    1    2  502  503 -0.20053582783E+02  0.16740909777E+02  0.26746949241E+02  0.37387210865E+02  0.00000000000E+00 0. -1.
         21    1    1    2  503  501  0.20053582783E+02 -0.16740909777E+02 -0.35934456955E+02  0.44426224679E+02  0.00000000000E+00 0.  1.
</event>
<event>
 4    1  0.5548812E+002  0.2736954E+02  0.7546771E-02  0.1443931E+00
          2   -1    0    0  503    0  0.00000000000E+00  0.00000000000E+00  0.29887691566E+01  0.29887691566E+01  0.00000000000E+00 0.  1.
         -2   -1    0    0    0  501 -0.00000000000E+00 -0.00000000000E+00 -0.44194335437E+03  0.44194335437E+03  0.00000000000E+00 0. -1.
         21    1    1    2  502  501  0.49684577714E+00  0.27365029255E+02 -0.36584553303E+03  0.36686788592E+03  0.00000000000E+00 0. -1.
         21    1    1    2  503  502 -0.49684577714E+00 -0.27365029255E+02 -0.73109052180E+02  0.78064237603E+02  0.00000000000E+00 0.  1.
</event>
<event>
 4    1  0.5548812E+002  0.2021200E+02  0.7546771E-02  0.1530819E+00
          2   -1    0    0  503    0  0.00000000000E+00  0.00000000000E+00  0.16931815859E+03  0.16931815859E+03  0.00000000000E+00 0.  1.
         -2   -1    0    0    0  501 -0.00000000000E+00 -0.00000000000E+00 -0.86365904494E+01  0.86365904494E+01  0.00000000000E+00 0. -1.
         21    1    1    2  502  501 -0.17897342210E+02  0.93920318784E+01  0.48077228927E+01  0.20775931276E+02  0.00000000000E+00 0. -1.
         21    1    1    2  503  502  0.17897342210E+02 -0.93920318784E+01  0.15587384524E+03  0.15717881776E+03  0.00000000000E+00 0.  1.
</event>
<event>
 4    1  0.5548812E+002  0.2169862E+02  0.7546771E-02  0.1509520E+00
          2   -1    0    0  502    0  0.00000000000E+00  0.00000000000E+00  0.69678747544E+02  0.69678747544E+02  0.00000000000E+00 0. -1.
         -2   -1    0    0    0  501 -0.00000000000E+00 -0.00000000000E+00 -0.10902107816E+02  0.10902107816E+02  0.00000000000E+00 0.  1.
         21    1    1    2  502  503  0.12861159492E+02 -0.17476284092E+02  0.54231464232E+02  0.58411314331E+02  0.00000000000E+00 0. -1.
         21    1    1    2  503  501 -0.12861159492E+02  0.17476284092E+02  0.45451754961E+01  0.22169541029E+02  0.00000000000E+00 0.  1.
</event>
<event>
 4    1  0.5548812E+002  0.2093352E+02  0.7546771E-02  0.1520216E+00
          2   -1    0    0  503    0  0.00000000000E+00  0.00000000000E+00  0.15158552894E+04  0.15158552894E+04  0.00000000000E+00 0.  1.
         -2   -1    0    0    0  501 -0.00000000000E+00 -0.00000000000E+00 -0.29061923171E+00  0.29061923171E+00  0.00000000000E+00 0. -1.
         21    1    1    2  502  501  0.41385668702E+01  0.20520340828E+02  0.70271528081E+03  0.70302701087E+03  0.00000000000E+00 0. -1.
         21    1    1    2  503  502 -0.41385668702E+01 -0.20520340828E+02  0.81284938934E+03  0.81311889774E+03  0.00000000000E+00 0.  1.
</event>
<event>
 4    1  0.5548812E+002  0.2067585E+02  0.7546771E-02  0.1523944E+00
          2   -1    0    0  503    0  0.00000000000E+00  0.00000000000E+00  0.91705539966E+03  0.91705539966E+03  0.00000000000E+00 0.  1.
         -2   -1    0    0    0  501 -0.00000000000E+00 -0.00000000000E+00 -0.53221541425E+00  0.53221541425E+00  0.00000000000E+00 0. -1.
         21    1    1    2  502  501 -0.20562509957E+02 -0.21619068223E+01  0.29662414927E+03  0.29734386926E+03  0.00000000000E+00 0. -1.
         21    1    1    2  503  502  0.20562509957E+02  0.21619068223E+01  0.61989903498E+03  0.62024374581E+03  0.00000000000E+00 0.  1.
</event>
<event>
 4    1  0.5548812E+002  0.2716097E+02  0.7546771E-02  0.1445998E+00
          2   -1    0    0  503    0  0.00000000000E+00  0.00000000000E+00  0.10341002649E+03  0.10341002649E+03  0.00000000000E+00 0. -1.
         -2   -1    0    0    0  501 -0.00000000000E+00 -0.00000000000E+00 -0.95713937446E+02  0.95713937446E+02  0.00000000000E+00 0.  1.
         21    1    1    2  502  501 -0.10742511979E+02 -0.24946281573E+02 -0.91931734509E+02  0.95860118599E+02  0.00000000000E+00 0.  1.
         21    1    1    2  503  502  0.10742511979E+02  0.24946281573E+02  0.99627823552E+02  0.10326384534E+03  0.00000000000E+00 0. -1.
</event>
<event>
 4    1  0.5548812E+002  0.2030581E+02  0.7546771E-02  0.1529411E+00
          2   -1    0    0  503    0  0.00000000000E+00  0.00000000000E+00  0.19339688166E+03  0.19339688166E+03  0.00000000000E+00 0. -1.
         -2   -1    0    0    0  501 -0.00000000000E+00 -0.00000000000E+00 -0.23354258559E+01  0.23354258559E+01  0.00000000000E+00 0.  1.
         21    1    1    2  502  501 -0.12704683769E+02  0.15840360770E+02  0.12441299021E+03  0.12605918512E+03  0.00000000000E+00 0. -1.
         21    1    1    2  503  502  0.12704683769E+02 -0.15840360770E+02  0.66648465597E+02  0.69673122403E+02  0.00000000000E+00 0.  1.
</event>
<event>
 4    1  0.5548812E+002  0.2936146E+02  0.7546771E-02  0.1425228E+00
          2   -1    0    0  502    0  0.00000000000E+00  0.00000000000E+00  0.10817994591E+03  0.10817994591E+03  0.00000000000E+00 0. -1.
         -2   -1    0    0    0  501 -0.00000000000E+00 -0.00000000000E+00 -0.98191255488E+01  0.98191255488E+01  0.00000000000E+00 0.  1.
         21    1    1    2  502  503 -0.17918836213E+02  0.23259635779E+02  0.74790000666E+02  0.80346994638E+02  0.00000000000E+00 0. -1.
         21    1    1    2  503  501  0.17918836213E+02 -0.23259635779E+02  0.23570819696E+02  0.37652076821E+02  0.00000000000E+00 0.  1.
</event>
<event>
 4    1  0.5548812E+002  0.5055198E+02  0.7546771E-02  0.1295797E+00
          2   -1    0    0  502    0  0.00000000000E+00  0.00000000000E+00  0.15337262106E+04  0.15337262106E+04  0.00000000000E+00 0. -1.
         -2   -1    0    0    0  501 -0.00000000000E+00 -0.00000000000E+00 -0.25316299680E+01  0.25316299680E+01  0.00000000000E+00 0.  1.
         21    1    1    2  502  503 -0.31000325441E+01  0.50456841869E+02  0.31649157679E+03  0.32050338730E+03  0.00000000000E+00 0.  1.
         21    1    1    2  503  501  0.31000325441E+01 -0.50456841869E+02  0.12147030038E+04  0.12157544533E+04  0.00000000000E+00 0. -1.
</event>
<event>
 4    1  0.5548812E+002  0.2035600E+02  0.7546771E-02  0.1528661E+00
          2   -1    0    0  503    0  0.00000000000E+00  0.00000000000E+00  0.14094717091E+02  0.14094717091E+02  0.00000000000E+00 0. -1.
         -2   -1    0    0    0  501 -0.00000000000E+00 -0.00000000000E+00 -0.84280568270E+02  0.84280568270E+02  0.00000000000E+00 0.  1.
         21    1    1    2  502  501  0.40020238073E+01 -0.19958722167E+02 -0.74785256730E+02  0.77506137881E+02  0.00000000000E+00 0.  1.
         21    1    1    2  503  502 -0.40020238073E+01  0.19958722167E+02  0.45994055511E+01  0.20869147479E+02  0.00000000000E+00 0. -1.
</event>
<event>
 4    1  0.5548812E+002  0.2507208E+02  0.7546771E-02  0.1467999E+00
          2   -1    0    0  502    0  0.00000000000E+00  0.00000000000E+00  0.52058153525E+01  0.52058153525E+01  0.00000000000E+00 0.  1.
         -2   -1    0    0    0  501 -0.00000000000E+00 -0.00000000000E+00 -0.23429006743E+03  0.23429006743E+03  0.00000000000E+00 0. -1.
         21    1    1    2  502  503 -0.23928515732E+02  0.74856721562E+01 -0.31181083307E+02  0.40010862387E+02  0.00000000000E+00 0.  1.
         21    1    1    2  503  501  0.23928515732E+02 -0.74856721562E+01 -0.19790316877E+03  0.19948502039E+03  0.00000000000E+00 0. -1.
</event>
<event>
 4    1  0.5548812E+002  0.3862160E+02  0.7546771E-02  0.1356758E+00
          2   -1    0    0  503    0  0.00000000000E+00  0.00000000000E+00  0.23576584866E+03  0.23576584866E+03  0.00000000000E+00 0.  1.
         -2   -1    0    0    0  501 -0.00000000000E+00 -0.00000000000E+00 -0.70956500895E+01  0.70956500895E+01  0.00000000000E+00 0. -1.
         21    1    1    2  502  501 -0.38618906541E+02 -0.45579751030E+00  0.74361597604E+02  0.83793047993E+02  0.00000000000E+00 0. -1.
         21    1    1    2  503  502  0.38618906541E+02  0.45579751030E+00  0.15430860096E+03  0.15906845075E+03  0.00000000000E+00 0.  1.
</event>
<event>
 4    1  0.5548812E+002  0.3063240E+02  0.7546771E-02  0.1414179E+00
          2   -1    0    0  502    0  0.00000000000E+00  0.00000000000E+00  0.10807362661E+04  0.10807362661E+04  0.00000000000E+00 0. -1.
         -2   -1    0    0    0  501 -0.00000000000E+00 -0.00000000000E+00 -0.20325284368E+01  0.20325284368E+01  0.00000000000E+00 0.  1.
         21    1    1    2  502  503 -0.17384231054E+02  0.25221668443E+02  0.94909977873E+03  0.94959398379E+03  0.00000000000E+00 0. -1.
         21    1    1    2  503  501  0.17384231054E+02 -0.25221668443E+02  0.12960395891E+03  0.13317481073E+03  0.00000000000E+00 0.  1.
</event>
<event>
 4    1  0.5548812E+002  0.3090135E+02  0.7546771E-02  0.1411922E+00
          2   -1    0    0  502    0  0.00000000000E+00  0.00000000000E+00  0.25909220959E+02  0.25909220959E+02  0.00000000000E+00 0. -1.
         -2   -1    0    0    0  501 -0.00000000000E+00 -0.00000000000E+00 -0.44132304131E+02  0.44132304131E+02  0.00000000000E+00 0.  1.
         21    1    1    2  502  503  0.30553301422E+02 -0.46248618388E+01  0.51091894370E+01  0.31320877885E+02  0.00000000000E+00 0. -1.
         21    1    1    2  503  501 -0.30553301422E+02  0.46248618388E+01 -0.23332272609E+02  0.38720647204E+02  0.00000000000E+00 0.  1.
</event>
<event>
 4    1  0.5548812E+002  0.2078787E+02  0.7546771E-02  0.1522315E+00
          2   -1    0    0  503    0  0.00000000000E+00  0.00000000000E+00  0.11593527958E+04  0.11593527958E+04  0.00000000000E+00 0.  1.
         -2   -1    0    0    0  501 -0.00000000000E+00 -0.00000000000E+00 -0.37955053296E+00  0.37955053296E+00  0.00000000000E+00 0. -1.
         21    1    1    2  502  501  0.66195130220E+01  0.19705778428E+02  0.50180381615E+03  0.50223421384E+03  0.00000000000E+00 0. -1.
         21    1    1    2  503  502 -0.66195130220E+01 -0.19705778428E+02  0.65716942914E+03  0.65749813250E+03  0.00000000000E+00 0.  1.
</event>
<event>
 4    1  0.5548812E+002  0.2025104E+02  0.7546771E-02  0.1530232E+00
          2   -1    0    0  503    0  0.00000000000E+00  0.00000000000E+00  0.11674865298E+03  0.11674865298E+03  0.00000000000E+00 0. -1.
         -2   -1    0    0    0  501 -0.00000000000E+00 -0.00000000000E+00 -0.40583049210E+01  0.40583049210E+01  0.00000000000E+00 0.  1.
         21    1    1    2  502  501 -0.34771168947E+01 -0.19950296549E+02  0.34197760018E+02  0.39744074584E+02  0.00000000000E+00 0.  1.
         21    1    1    2  503  502  0.34771168947E+01  0.19950296549E+02  0.78492588040E+02  0.81062883316E+02  0.00000000000E+00 0. -1.
</event>
<event>
 4    1  0.5548812E+002  0.3310531E+02  0.7546771E-02  0.1394396E+00
          2   -1    0    0  503    0  0.00000000000E+00  0.00000000000E+00  0.59596034690E+03  0.59596034690E+03  0.00000000000E+00 0. -1.
         -2   -1    0    0    0  501 -0.00000000000E+00 -0.00000000000E+00 -0.31390887073E+01  0.31390887073E+01  0.00000000000E+00 0.  1.
         21    1    1    2  502  501 -0.30929294663E+02  0.11804234991E+02  0.10363311622E+03  0.10879238949E+03  0.00000000000E+00 0.  1.
         21    1    1    2  503  502  0.30929294663E+02 -0.11804234991E+02  0.48918814197E+03  0.49030704612E+03  0.00000000000E+00 0. -1.
</event>
<event>
 4    1  0.5548812E+002  0.5019411E+02  0.7546771E-02  0.1297333E+00
          2   -1    0    0  503    0  0.00000000000E+00  0.00000000000E+00  0.43182226188E+02  0.43182226188E+02  0.00000000000E+00 0. -1.
         -2   -1    0    0    0  501 -0.00000000000E+00 -0.00000000000E+00 -0.26403599692E+03  0.26403599692E+03  0.00000000000E+00 0.  1.
         21    1    1    2  502  501  0.60905442592E+01  0.49823225567E+02 -0.24600622057E+03  0.25107470819E+03  0.00000000000E+00 0.  1.
         21    1    1    2  503  502 -0.60905442592E+01 -0.49823225567E+02  0.25152449831E+02  0.56143514921E+02  0.00000000000E+00 0. -1.
</event>
<event>
 4    1  0.5548812E+002  0.2590275E+02  0.7546771E-02  0.1458953E+00
          2   -1    0    0  502    0  0.00000000000E+00  0.00000000000E+00  0.15850405382E+02  0.15850405382E+02  0.00000000000E+00 0.  1.
         -2   -1    0    0    0  501 -0.00000000000E+00 -0.00000000000E+00 -0.14499393760E+03  0.14499393760E+03  0.00000000000E+00 0. -1.
         21    1    1    2  502  503  0.25084452104E+02  0.64592986625E+01  0.31002656654E+01  0.26087620125E+02  0.00000000000E+00 0.  1.
         21    1    1    2  503  501 -0.25084452104E+02 -0.64592986625E+01 -0.13224379789E+03  0.13475672286E+03  0.00000000000E+00 0. -1.
</event>
<event>
 4    1  0.5548812E+002  0.2437443E+02  0.7546771E-02  0.1475925E+00
          2   -1    0    0  503    0  0.00000000000E+00  0.00000000000E+00  0.51534910022E+03  0.51534910022E+03  0.00000000000E+00 0.  1.
         -2   -1    0    0    0  501 -0.00000000000E+00 -0.00000000000E+00 -0.53182569786E+01  0.53182569786E+01  0.00000000000E+00 0. -1.
         21    1    1    2  502  501  0.30082164039E+01  0.24188085706E+02  0.24619302240E+02  0.34644233270E+02  0.00000000000E+00 0. -1.
         21    1    1    2  503  502 -0.30082164039E+01 -0.24188085706E+02  0.48541154100E+03  0.48602312393E+03  0.00000000000E+00 0.  1.
</event>
<event>
 4    1  0.5548812E+002  0.2807711E+02  0.7546771E-02  0.1437078E+00
          2   -1    0    0  503    0  0.00000000000E+00  0.00000000000E+00  0.50448721656E+03  0.50448721656E+03  0.00000000000E+00 0.  1.
         -2   -1    0    0    0  501 -0.00000000000E+00 -0.00000000000E+00 -0.16748116153E+01  0.16748116153E+01  0.00000000000E+00 0. -1.
         21    1    1    2  502  501  0.26397470660E+02  0.95654407343E+01  0.18590519763E+03  0.18801347457E+03  0.00000000000E+00 0.  1.
         21    1    1    2  503  502 -0.26397470660E+02 -0.95654407343E+01  0.31690720731E+03  0.31814855361E+03  0.00000000000E+00 0. -1.
</event>
<event>
 4    1  0.5548812E+002  0.2710498E+02  0.7546771E-02  0.1446556E+00
          2   -1    0    0  502    0  0.00000000000E+00  0.00000000000E+00  0.13760950547E+04  0.13760950547E+04  0.00000000000E+00 0. -1.
         -2   -1    0    0    0  501 -0.00000000000E+00 -0.00000000000E+00 -0.31331414598E+01  0.31331414598E+01  0.00000000000E+00 0.  1.
         21    1    1    2  502  503 -0.23070134695E+02  0.14228442669E+02  0.13145978906E+04  0.13148772922E+04  0.00000000000E+00 0. -1.
         21    1    1    2  503  501  0.23070134695E+02 -0.14228442669E+02  0.58364022636E+02  0.64350903909E+02  0.00000000000E+00 0.  1.
</event>
<event>
 4    1  0.5548812E+002  0.2340443E+02  0.7546771E-02  0.1487481E+00
          2   -1    0    0  502    0  0.00000000000E+00  0.00000000000E+00  0.92336956093E+03  0.92336956093E+03  0.00000000000E+00 0. -1.
         -2   -1    0    0    0  501 -0.00000000000E+00 -0.00000000000E+00 -0.59645530240E+00  0.59645530240E+00  0.00000000000E+00 0.  1.
         21    1    1    2  502  503 -0.40205393753E+01 -0.23056510812E+02  0.49537630213E+03  0.49592887407E+03  0.00000000000E+00 0. -1.
         21    1    1    2  503  501  0.40205393753E+01  0.23056510812E+02  0.42739680349E+03  0.42803714216E+03  0.00000000000E+00 0.  1.
</event>
<event>
 4    1  0.5548812E+002  0.3158703E+02  0.7546771E-02  0.1406289E+00
          2   -1    0    0  502    0  0.00000000000E+00  0.00000000000E+00  0.46540847834E+01  0.46540847834E+01  0.00000000000E+00 0. -1.
         -2   -1    0    0    0  501 -0.00000000000E+00 -0.00000000000E+00 -0.22720398879E+03  0.22720398879E+03  0.00000000000E+00 0.  1.
         21    1    1    2  502  503  0.28852765902E+02  0.12855274722E+02 -0.83732351724E+02  0.89492161185E+02  0.00000000000E+00 0. -1.
         21    1    1    2  503  501 -0.28852765902E+02 -0.12855274722E+02 -0.13881755229E+03  0.14236591239E+03  0.00000000000E+00 0.  1.
</event>
<event>
 4    1  0.5548812E+002  0.2593505E+02  0.7546771E-02  0.1458609E+00
          2   -1    0    0  502    0  0.00000000000E+00  0.00000000000E+00  0.77417794102E+02  0.77417794102E+02  0.00000000000E+00 0.  1.
         -2   -1    0    0    0  501 -0.00000000000E+00 -0.00000000000E+00 -0.88710578952E+01  0.88710578952E+01  0.00000000000E+00 0. -1.
         21    1    1    2  502  503  0.66848747033E+01 -0.25058713291E+02  0.40466513309E+02  0.48064179604E+02  0.00000000000E+00 0. -1.
         21    1    1    2  503  501 -0.66848747033E+01  0.25058713291E+02  0.28080222897E+02  0.38224672393E+02  0.00000000000E+00 0.  1.
</event>
<event>
 4    1  0.5548812E+002  0.5112209E+02  0.7546771E-02  0.1293379E+00
          2   -1    0    0  503    0  0.00000000000E+00  0.00000000000E+00  0.11178410912E+04  0.11178410912E+04  0.00000000000E+00 0. -1.
         -2   -1    0    0    0  501 -0.00000000000E+00 -0.00000000000E+00 -0.42070054870E+01  0.42070054870E+01  0.00000000000E+00 0.  1.
         21    1    1    2  502  501 -0.25201043993E+02  0.44478933063E+02  0.18287453365E+03  0.18988565813E+03  0.00000000000E+00 0.  1.
         21    1    1    2  503  502  0.25201043993E+02 -0.44478933063E+02  0.93075955204E+03  0.93216243854E+03  0.00000000000E+00 0. -1.
</event>
<event>
 4    1  0.5548812E+002  0.2563671E+02  0.7546771E-02  0.1461805E+00
          2   -1    0    0  502    0  0.00000000000E+00  0.00000000000E+00  0.11658348903E+04  0.11658348903E+04  0.00000000000E+00 0.  1.
         -2   -1    0    0    0  501 -0.00000000000E+00 -0.00000000000E+00 -0.72053221756E+00  0.72053221756E+00  0.00000000000E+00 0. -1.
         21    1    1    2  502  503  0.25549241108E+02  0.21159574133E+01  0.85463629394E+03  0.85502072251E+03  0.00000000000E+00 0.  1.
         21    1    1    2  503  501 -0.25549241108E+02 -0.21159574133E+01  0.31047806414E+03  0.31153470001E+03  0.00000000000E+00 0. -1.
</event>
<event>
 4    1  0.5548812E+002  0.2078502E+02  0.7546771E-02  0.1522357E+00
          2   -1    0    0  502    0  0.00000000000E+00  0.00000000000E+00  0.93511291944E+03  0.93511291944E+03  0.00000000000E+00 0. -1.
         -2   -1    0    0    0  501 -0.00000000000E+00 -0.00000000000E+00 -0.90440493308E+00  0.90440493308E+00  0.00000000000E+00 0.  1.
         21    1    1    2  502  503 -0.34353805919E+01  0.20499148886E+02  0.79443376134E+03  0.79470561726E+03  0.00000000000E+00 0. -1.
         21    1    1    2  503  501  0.34353805919E+01 -0.20499148886E+02  0.13977475317E+03  0.14131170711E+03  0.00000000000E+00 0.  1.
</event>
<event>
 4    1  0.5548812E+002  0.3857021E+02  0.7546771E-02  0.1357074E+00
          2   -1    0    0  502    0  0.00000000000E+00  0.00000000000E+00  0.23691884020E+04  0.23691884020E+04  0.00000000000E+00 0.  1.
         -2   -1    0    0    0  501 -0.00000000000E+00 -0.00000000000E+00 -0.21033505431E+01  0.21033505431E+01  0.00000000000E+00 0. -1.
         21    1    1    2  502  503  0.33530279712E+02 -0.19062576239E+02  0.21765636979E+04  0.21769054165E+04  0.00000000000E+00 0.  1.
         21    1    1    2  503  501 -0.33530279712E+02  0.19062576239E+02  0.19052135358E+03  0.19438633604E+03  0.00000000000E+00 0. -1.
</event>
<event>
 4    1  0.5548812E+002  0.2989758E+02  0.7546771E-02  0.1420489E+00
          2   -1    0    0  502    0  0.00000000000E+00  0.00000000000E+00  0.11138040669E+03  0.11138040669E+03  0.00000000000E+00 0. -1.
         -2   -1    0    0    0  501 -0.00000000000E+00 -0.00000000000E+00 -0.21115818338E+02  0.21115818338E+02  0.00000000000E+00 0.  1.
         21    1    1    2  502  503  0.25790950376E+02  0.15122569805E+02  0.97293469383E+02  0.10178351744E+03  0.00000000000E+00 0. -1.
         21    1    1    2  503  501 -0.25790950376E+02 -0.15122569805E+02 -0.70288810277E+01  0.30712707586E+02  0.00000000000E+00 0.  1.
</event>
<event>
 4    1  0.5548812E+002  0.2328561E+02  0.7546771E-02  0.1488943E+00
          2   -1    0    0  502    0  0.00000000000E+00  0.00000000000E+00  0.54798154614E+01  0.54798154614E+01  0.00000000000E+00 0.  1.
         -2   -1    0    0    0  501 -0.00000000000E+00 -0.00000000000E+00 -0.18964461502E+03  0.18964461502E+03  0.00000000000E+00 0. -1.
         21    1    1    2  502  503  0.15063076665E+02 -0.17757345538E+02 -0.24613177692E+02  0.33882563588E+02  0.00000000000E+00 0.  1.
         21    1    1    2  503  501 -0.15063076665E+02  0.17757345538E+02 -0.15955162187E+03  0.16124186689E+03  0.00000000000E+00 0. -1.
</event>
<event>
 4    1  0.5548812E+002  0.2705407E+02  0.7546771E-02  0.1447066E+00
          2   -1    0    0  503    0  0.00000000000E+00  0.00000000000E+00  0.16405419698E+04  0.16405419698E+04  0.00000000000E+00 0. -1.
         -2   -1    0    0    0  501 -0.00000000000E+00 -0.00000000000E+00 -0.45108531935E+00  0.45108531935E+00  0.00000000000E+00 0.  1.
         21    1    1    2  502  501 -0.47342824892E+01  0.26636613288E+02  0.73419461343E+03  0.73469289706E+03  0.00000000000E+00 0.  1.
         21    1    1    2  503  502  0.47342824892E+01 -0.26636613288E+02  0.90589627101E+03  0.90630015802E+03  0.00000000000E+00 0. -1.
</event>
<event>
 4    1  0.5548812E+002  0.2630317E+02  0.7546771E-02  0.1454736E+00
          2   -1    0    0  503    0  0.00000000000E+00  0.00000000000E+00  0.40540695873E+02  0.40540695873E+02  0.00000000000E+00 0. -1.
         -2   -1    0    0    0  501 -0.00000000000E+00 -0.00000000000E+00 -0.14422151361E+03  0.14422151361E+03  0.00000000000E+00 0.  1.
         21    1    1    2  502  501  0.21568096231E+02  0.15055691873E+02 -0.13858375748E+03  0.14105784087E+03  0.00000000000E+00 0.  1.
         21    1    1    2  503  502 -0.21568096231E+02 -0.15055691873E+02  0.34902939747E+02  0.43704368612E+02  0.00000000000E+00 0. -1.
</event>
<event>
 4    1  0.5548812E+002  0.2214326E+02  0.7546771E-02  0.1503546E+00
          2   -1    0    0  503    0  0.00000000000E+00  0.00000000000E+00  0.28992854746E+01  0.28992854746E+01  0.00000000000E+00 0.  1.
         -2   -1    0    0    0  501 -0.00000000000E+00 -0.00000000000E+00 -0.56173824753E+03  0.56173824753E+03  0.00000000000E+00 0. -1.
         21    1    1    2  502  501 -0.14777592982E+02  0.16490807411E+02 -0.51544480168E+03  0.51592021434E+03  0.00000000000E+00 0. -1.
         21    1    1    2  503  502  0.14777592982E+02 -0.16490807411E+02 -0.43394160376E+02  0.48717318667E+02  0.00000000000E+00 0.  1.
</event>
<event>
 4    1  0.5548812E+002  0.2233050E+02  0.7546771E-02  0.1501081E+00
          2   -1    0    0  503    0  0.00000000000E+00  0.00000000000E+00  0.13104636833E+04  0.13104636833E+04  0.00000000000E+00 0. -1.
         -2   -1    0    0    0  501 -0.00000000000E+00 -0.00000000000E+00 -0.44925820312E+00  0.44925820312E+00  0.00000000000E+00 0.  1.
         21    1    1    2  502  501  0.21715828150E+02 -0.52032667913E+01  0.91140278115E+03  0.91167630257E+03  0.00000000000E+00 0. -1.
         21    1    1    2  503  502 -0.21715828150E+02  0.52032667913E+01  0.39861164394E+03  0.39923663893E+03  0.00000000000E+00 0.  1.
</event>
<event>
 4    1  0.5548812E+002  0.2479832E+02  0.7546771E-02  0.1471072E+00
          2   -1    0    0  503    0  0.00000000000E+00  0.00000000000E+00  0.13838243556E+02  0.13838243556E+02  0.00000000000E+00 0.  1.
         -2   -1    0    0    0  501 -0.00000000000E+00 -0.00000000000E+00 -0.15269338193E+03  0.15269338193E+03  0.00000000000E+00 0. -1.
         21    1    1    2  502  501 -0.22470014204E+02 -0.10490706279E+02 -0.13953750053E+03  0.14172392356E+03  0.00000000000E+00 0. -1.
         21    1    1    2  503  502  0.22470014204E+02  0.10490706279E+02  0.68236215475E+00  0.24807701922E+02  0.00000000000E+00 0.  1.
</event>
<event>
 4    1  0.5548812E+002  0.3471861E+02  0.7546771E-02  0.1382552E+00
          2   -1    0    0  503    0  0.00000000000E+00  0.00000000000E+00  0.21335725490E+04  0.21335725490E+04  0.00000000000E+00 0.  1.
         -2   -1    0    0    0  501 -0.00000000000E+00 -0.00000000000E+00 -0.86751214132E+00  0.86751214132E+00  0.00000000000E+00 0. -1.
         21    1    1    2  502  501 -0.21898869214E+02 -0.26941073851E+02  0.43609692163E+03  0.43747675022E+03  0.00000000000E+00 0.  1.
         21    1    1    2  503  502  0.21898869214E+02  0.26941073851E+02  0.16966081152E+04  0.16969633109E+04  0.00000000000E+00 0. -1.
</event>
<event>
 4    1  0.5548812E+002  0.4104362E+02  0.7546771E-02  0.1342476E+00
          2   -1    0    0  503    0  0.00000000000E+00  0.00000000000E+00  0.41678849204E+03  0.41678849204E+03  0.00000000000E+00 0. -1.
         -2   -1    0    0    0  501 -0.00000000000E+00 -0.00000000000E+00 -0.51384458342E+01  0.51384458342E+01  0.00000000000E+00 0.  1.
         21    1    1    2  502  501  0.29938658291E+02 -0.28075892938E+02  0.10836578841E+03  0.11587805281E+03  0.00000000000E+00 0.  1.
         21    1    1    2  503  502 -0.29938658291E+02  0.28075892938E+02  0.30328425779E+03  0.30604888507E+03  0.00000000000E+00 0. -1.
</event>
<event>
 4    1  0.5548812E+002  0.5807196E+02  0.7546771E-02  0.1266528E+00
          2   -1    0    0  502    0  0.00000000000E+00  0.00000000000E+00  0.22890685386E+04  0.22890685386E+04  0.00000000000E+00 0. -1.
         -2   -1    0    0    0  501 -0.00000000000E+00 -0.00000000000E+00 -0.22591662730E+01  0.22591662730E+01  0.00000000000E+00 0.  1.
         21    1    1    2  502  503 -0.15336328112E+02 -0.56010261418E+02  0.18191350145E+04  0.18200616895E+04  0.00000000000E+00 0. -1.
         21    1    1    2  503  501  0.15336328112E+02  0.56010261418E+02  0.46767435779E+03  0.47126601541E+03  0.00000000000E+00 0.  1.
</event>
<event>
 4    1  0.5548812E+002  0.5124446E+02  0.7546771E-02  0.1292865E+00
          2   -1    0    0  503    0  0.00000000000E+00  0.00000000000E+00  0.13889898807E+04  0.13889898807E+04  0.00000000000E+00 0.  1.
         -2   -1    0    0    0  501 -0.00000000000E+00 -0.00000000000E+00 -0.18908433886E+01  0.18908433886E+01  0.00000000000E+00 0. -1.
         21    1    1    2  502  501 -0.16281298726E+02  0.48589232339E+02  0.68531587371E+03  0.68722910368E+03  0.00000000000E+00 0. -1.
         21    1    1    2  503  502  0.16281298726E+02 -0.48589232339E+02  0.70178316358E+03  0.70365162039E+03  0.00000000000E+00 0.  1.
</event>
<event>
 4    1  0.5548812E+002  0.2467110E+02  0.7546771E-02  0.1472517E+00
          2   -1    0    0  503    0  0.00000000000E+00  0.00000000000E+00  0.18523244354E+03  0.18523244354E+03  0.00000000000E+00 0. -1.
         -2   -1    0    0    0  501 -0.00000000000E+00 -0.00000000000E+00 -0.41444045904E+01  0.41444045904E+01  0.00000000000E+00 0.  1.
         21    1    1    2  502  501 -0.21210368475E+01  0.24579757272E+02  0.13363895458E+03  0.13589714289E+03  0.00000000000E+00 0. -1.
         21    1    1    2  503  502  0.21210368475E+01 -0.24579757272E+02  0.47449084366E+02  0.53479705235E+02  0.00000000000E+00 0.  1.
</event>
<event>
 4    1  0.5548812E+002  0.2259326E+02  0.7546771E-02  0.1497670E+00
          2   -1    0    0  502    0  0.00000000000E+00  0.00000000000E+00  0.79017545149E+03  0.79017545149E+03  0.00000000000E+00 0.  1.
         -2   -1    0    0    0  501 -0.00000000000E+00 -0.00000000000E+00 -0.10352379533E+01  0.10352379533E+01  0.00000000000E+00 0. -1.
         21    1    1    2  502  503  0.12373844734E+02 -0.18903525035E+02  0.15199386088E+03  0.15366388332E+03  0.00000000000E+00 0. -1.
         21    1    1    2  503  501 -0.12373844734E+02  0.18903525035E+02  0.63714635266E+03  0.63754680612E+03  0.00000000000E+00 0.  1.
</event>
<event>
 4    1  0.5548812E+002  0.2825977E+02  0.7546771E-02  0.1435348E+00
          2   -1    0    0  503    0  0.00000000000E+00  0.00000000000E+00  0.65302786657E+02  0.65302786657E+02  0.00000000000E+00 0.  1.
         -2   -1    0    0    0  501 -0.00000000000E+00 -0.00000000000E+00 -0.18394002747E+02  0.18394002747E+02  0.00000000000E+00 0. -1.
         21    1    1    2  502  501 -0.24055069843E+02  0.14831330630E+02 -0.77222465712E+00  0.28270321617E+02  0.00000000000E+00 0. -1.
         21    1    1    2  503  502  0.24055069843E+02 -0.14831330630E+02  0.47681008567E+02  0.55426467787E+02  0.00000000000E+00 0.  1.
</event>
<event>
 4    1  0.5548812E+002  0.2066721E+02  0.7546771E-02  0.1524070E+00
          2   -1    0    0  503    0  0.00000000000E+00  0.00000000000E+00  0.57096640998E+02  0.57096640998E+02  0.00000000000E+00 0. -1.
         -2   -1    0    0    0  501 -0.00000000000E+00 -0.00000000000E+00 -0.18070089230E+02  0.18070089230E+02  0.00000000000E+00 0.  1.
         21    1    1    2  502  501  0.16470756163E+02 -0.12483903033E+02 -0.92572030254E+01  0.22645738040E+02  0.00000000000E+00 0.  1.
         21    1    1    2  503  502 -0.16470756163E+02  0.12483903033E+02  0.48283754794E+02  0.52520992189E+02  0.00000000000E+00 0. -1.
</event>
<event>
 4    1  0.5548812E+002  0.3566455E+02  0.7546771E-02  0.1375950E+00
          2   -1    0    0  503    0  0.00000000000E+00  0.00000000000E+00  0.34694475818E+03  0.34694475818E+03  0.00000000000E+00 0.  1.
         -2   -1    0    0    0  501 -0.00000000000E+00 -0.00000000000E+00 -0.15245678659E+02  0.15245678659E+02  0.00000000000E+00 0. -1.
         21    1    1    2  502  501  0.34638087694E+02  0.84948843846E+01  0.80235302781E+01  0.36555946410E+02  0.00000000000E+00 0. -1.
         21    1    1    2  503  502 -0.34638087694E+02 -0.84948843846E+01  0.32367554924E+03  0.32563449042E+03  0.00000000000E+00 0.  1.
</event>
<event>
 4    1  0.5548812E+002  0.2747490E+02  0.7546771E-02  0.1442895E+00
          2   -1    0    0  503    0  0.00000000000E+00  0.00000000000E+00  0.15623288844E+04  0.15623288844E+04  0.00000000000E+00 0. -1.
         -2   -1    0    0    0  501 -0.00000000000E+00 -0.00000000000E+00 -0.48921087374E+00  0.48921087374E+00  0.00000000000E+00 0.  1.
         21    1    1    2  502  501 -0.14441794199E+02 -0.23373167057E+02  0.86775233874E+03  0.86818718704E+03  0.00000000000E+00 0. -1.
         21    1    1    2  503  502  0.14441794199E+02  0.23373167057E+02  0.69408733481E+03  0.69463090825E+03  0.00000000000E+00 0.  1.
</event>
<event>
 4    1  0.5548812E+002  0.2163575E+02  0.7546771E-02  0.1510378E+00
          2   -1    0    0  502    0  0.00000000000E+00  0.00000000000E+00  0.14062399930E+03  0.14062399930E+03  0.00000000000E+00 0. -1.
         -2   -1    0    0    0  501 -0.00000000000E+00 -0.00000000000E+00 -0.38514900407E+01  0.38514900407E+01  0.00000000000E+00 0.  1.
         21    1    1    2  502  503  0.67344643594E+01  0.20560949614E+02  0.94998545997E+02  0.97431152106E+02  0.00000000000E+00 0.  1.
         21    1    1    2  503  501 -0.67344643594E+01 -0.20560949614E+02  0.41773963266E+02  0.47044337238E+02  0.00000000000E+00 0. -1.
</event>
<event>
 4    1  0.5548812E+002  0.2140791E+02  0.7546771E-02  0.1513520E+00
          2   -1    0    0  502    0  0.00000000000E+00  0.00000000000E+00  0.12802628923E+01  0.12802628923E+01  0.00000000000E+00 0.  1.
         -2   -1    0    0    0  501 -0.00000000000E+00 -0.00000000000E+00 -0.44465478759E+03  0.44465478759E+03  0.00000000000E+00 0. -1.
         21    1    1    2  502  503  0.12203719611E+02 -0.17588850838E+02 -0.12324168432E+03  0.12508721438E+03  0.00000000000E+00 0.  1.
         21    1    1    2  503  501 -0.12203719611E+02  0.17588850838E+02 -0.32013284037E+03  0.32084783610E+03  0.00000000000E+00 0. -1.
</event>
<event>
 4    1  0.5548812E+002  0.2146292E+02  0.7546771E-02  0.1512757E+00
          2   -1    0    0  503    0  0.00000000000E+00  0.00000000000E+00  0.52285949076E+03  0.52285949076E+03  0.00000000000E+00 0. -1.
         -2   -1    0    0    0  501 -0.00000000000E+00 -0.00000000000E+00 -0.11619042203E+01  0.11619042203E+01  0.00000000000E+00 0.  1.
         21    1    1    2  502  501  0.20944767188E+02  0.46876094898E+01  0.13202776681E+03  0.13376093661E+03  0.00000000000E+00 0.  1.
         21    1    1    2  503  502 -0.20944767188E+02 -0.46876094898E+01  0.38966981973E+03  0.39026045837E+03  0.00000000000E+00 0. -1.
</event>
<event>
 4    1  0.5548812E+002  0.3396664E+02  0.7546771E-02  0.1387977E+00
          2   -1    0    0  503    0  0.00000000000E+00  0.00000000000E+00  0.12871561887E+04  0.12871561887E+04  0.00000000000E+00 0.  1.
         -2   -1    0    0    0  501 -0.00000000000E+00 -0.00000000000E+00 -0.96138930607E+01  0.96138930607E+01  0.00000000000E+00 0. -1.
         21    1    1    2  502  501  0.45459591980E+01 -0.33661056152E+02  0.21351298731E+02  0.40119950197E+02  0.00000000000E+00 0. -1.
         21    1    1    2  503  502 -0.45459591980E+01  0.33661056152E+02  0.12561909969E+04  0.12566501316E+04  0.00000000000E+00 0.  1.
</event>
<event>
 4    1  0.5548812E+002  0.2445493E+02  0.7546771E-02  0.1474994E+00
          2   -1    0    0  503    0  0.00000000000E+00  0.00000000000E+00  0.10146346993E+03  0.10146346993E+03  0.00000000000E+00 0. -1.
         -2   -1    0    0    0  501 -0.00000000000E+00 -0.00000000000E+00 -0.19938962298E+02  0.19938962298E+02  0.00000000000E+00 0.  1.
         21    1    1    2  502  501  0.15991120106E+02  0.18502101213E+02 -0.10182992345E+02  0.26490319074E+02  0.00000000000E+00 0.  1.
         21    1    1    2  503  502 -0.15991120106E+02 -0.18502101213E+02  0.91707499973E+02  0.94912113152E+02  0.00000000000E+00 0. -1.
</event>
<event>
 4    1  0.5548812E+002  0.2019090E+02  0.7546771E-02  0.1531137E+00
          2   -1    0    0  503    0  0.00000000000E+00  0.00000000000E+00  0.87550929283E+02  0.87550929283E+02  0.00000000000E+00 0. -1.
         -2   -1    0    0    0  501 -0.00000000000E+00 -0.00000000000E+00 -0.46625172851E+01  0.46625172851E+01  0.00000000000E+00 0.  1.
         21    1    1    2  502  501  0.15823040275E+02  0.12542076814E+02  0.43114041498E+02  0.47607697578E+02  0.00000000000E+00 0.  1.
         21    1    1    2  503  502 -0.15823040275E+02 -0.12542076814E+02  0.39774370500E+02  0.44605748990E+02  0.00000000000E+00 0. -1.
</event>
<event>
 4    1  0.5548812E+002  0.2240390E+02  0.7546771E-02  0.1500122E+00
          2   -1    0    0  502    0  0.00000000000E+00  0.00000000000E+00  0.14174400604E+03  0.14174400604E+03  0.00000000000E+00 0. -1.
         -2   -1    0    0    0  501 -0.00000000000E+00 -0.00000000000E+00 -0.52602621651E+01  0.52602621651E+01  0.00000000000E+00 0.  1.
         21    1    1    2  502  503  0.21757951114E+02  0.53409953623E+01  0.11026131086E+03  0.11251440503E+03  0.00000000000E+00 0. -1.
         21    1    1    2  503  501 -0.21757951114E+02 -0.53409953623E+01  0.26222433015E+02  0.34489863168E+02  0.00000000000E+00 0.  1.
</event>
<event>
 4    1  0.5548812E+002  0.2338366E+02  0.7546771E-02  0.1487736E+00
          2   -1    0    0  503    0  0.00000000000E+00  0.00000000000E+00  0.79918104196E+02  0.79918104196E+02  0.00000000000E+00 0. -1.
         -2   -1    0    0    0  501 -0.00000000000E+00 -0.00000000000E+00 -0.68572067248E+01  0.68572067248E+01  0.00000000000E+00 0.  1.
         21    1    1    2  502  501 -0.16508227108E+02 -0.16561225124E+02  0.34483950776E+02  0.41664596493E+02  0.00000000000E+00 0.  1.
         21    1    1    2  503  502  0.16508227108E+02  0.16561225124E+02  0.38576946696E+02  0.45110714428E+02  0.00000000000E+00 0. -1.
</event>
<event>
 4    1  0.5548812E+002  0.2983962E+02  0.7546771E-02  0.1420995E+00
          2   -1    0    0  502    0  0.00000000000E+00  0.00000000000E+00  0.86871700913E+03  0.86871700913E+03  0.00000000000E+00 0.  1.
         -2   -1    0    0    0  501 -0.00000000000E+00 -0.00000000000E+00 -0.82683713309E+01  0.82683713309E+01  0.00000000000E+00 0. -1.
         21    1    1    2  502  503 -0.29129065502E+02 -0.64730664720E+01  0.84063990664E+03  0.84116933830E+03  0.00000000000E+00 0.  1.
         21    1    1    2  503  501  0.29129065502E+02  0.64730664720E+01  0.19808731160E+02  0.35816042170E+02  0.00000000000E+00 0. -1.
</event>
<event>
 4    1  0.5548812E+002  0.4041824E+02  0.7546771E-02  0.1346052E+00
          2   -1    0    0  502    0  0.00000000000E+00  0.00000000000E+00  0.39311773774E+03  0.39311773774E+03  0.00000000000E+00 0.  1.
         -2   -1    0    0    0  501 -0.00000000000E+00 -0.00000000000E+00 -0.83519831047E+01  0.83519831047E+01  0.00000000000E+00 0. -1.
         21    1    1    2  502  503 -0.38559400061E+02  0.12116375165E+02  0.33467025536E+03  0.33710208202E+03  0.00000000000E+00 0.  1.
         21    1    1    2  503  501  0.38559400061E+02 -0.12116375165E+02  0.50095499279E+02  0.64367638828E+02  0.00000000000E+00 0. -1.
</event>
<event>
 4    1  0.5548812E+002  0.2544994E+02  0.7546771E-02  0.1463832E+00
          2   -1    0    0  502    0  0.00000000000E+00  0.00000000000E+00  0.62378336353E+03  0.62378336353E+03  0.00000000000E+00 0. -1.
         -2   -1    0    0    0  501 -0.00000000000E+00 -0.00000000000E+00 -0.37620528257E+01  0.37620528257E+01  0.00000000000E+00 0.  1.
         21    1    1    2  502  503 -0.55127840266E+01  0.24845696540E+02  0.57699349806E+03  0.57755449633E+03  0.00000000000E+00 0. -1.
         21    1    1    2  503  501  0.55127840266E+01 -0.24845696540E+02  0.43027812639E+02  0.49990920023E+02  0.00000000000E+00 0.  1.
</event>
<event>
 4    1  0.5548812E+002  0.3754543E+02  0.7546771E-02  0.1363502E+00
          2   -1    0    0  502    0  0.00000000000E+00  0.00000000000E+00  0.65130562133E+03  0.65130562133E+03  0.00000000000E+00 0. -1.
         -2   -1    0    0    0  501 -0.00000000000E+00 -0.00000000000E+00 -0.70365232082E+01  0.70365232082E+01  0.00000000000E+00 0.  1.
         21    1    1    2  502  503  0.17852034458E+01  0.37502965149E+02  0.59604181147E+03  0.59722315793E+03  0.00000000000E+00 0. -1.
         21    1    1    2  503  501 -0.17852034458E+01 -0.37502965149E+02  0.48227286651E+02  0.61118986608E+02  0.00000000000E+00 0.  1.
</event>
<event>
 4    1  0.5548812E+002  0.2132983E+02  0.7546771E-02  0.1514608E+00
          2   -1    0    0  502    0  0.00000000000E+00  0.00000000000E+00  0.78911404794E+03  0.78911404794E+03  0.00000000000E+00 0.  1.
         -2   -1    0    0    0  501 -0.00000000000E+00 -0.00000000000E+00 -0.18929501301E+01  0.18929501301E+01  0.00000000000E+00 0. -1.
         21    1    1    2  502  503  0.14396282144E+02 -0.15738760473E+02  0.72342916000E+03  0.72374353956E+03  0.00000000000E+00 0.  1.
         21    1    1    2  503  501 -0.14396282144E+02  0.15738760473E+02  0.63791937807E+02  0.67263458505E+02  0.00000000000E+00 0. -1.
</event>
<event>
 4    1  0.5548812E+002  0.2295468E+02  0.7546771E-02  0.1493068E+00
          2   -1    0    0  503    0  0.00000000000E+00  0.00000000000E+00  0.23752456647E+04  0.23752456647E+04  0.00000000000E+00 0. -1.
         -2   -1    0    0    0  501 -0.00000000000E+00 -0.00000000000E+00 -0.22617727350E+00  0.22617727350E+00  0.00000000000E+00 0.  1.
         21    1    1    2  502  501  0.11566629235E+02  0.19827515754E+02  0.10229757512E+04  0.10232332602E+04  0.00000000000E+00 0.  1.
         21    1    1    2  503  502 -0.11566629235E+02 -0.19827515754E+02  0.13520437362E+04  0.13522385818E+04  0.00000000000E+00 0. -1.
</event>
<event>
 4    1  0.5548812E+002  0.6073294E+02  0.7546771E-02  0.1257362E+00
          2   -1    0    0  502    0  0.00000000000E+00  0.00000000000E+00  0.18265321521E+04  0.18265321521E+04  0.00000000000E+00 0. -1.
         -2   -1    0    0    0  501 -0.00000000000E+00 -0.00000000000E+00 -0.29231991721E+01  0.29231991721E+01  0.00000000000E+00 0.  1.
         21    1    1    2  502  503 -0.36875223972E+02  0.48256684622E+02  0.14204319385E+04  0.14217297147E+04  0.00000000000E+00 0. -1.
         21    1    1    2  503  501  0.36875223972E+02 -0.48256684622E+02  0.40317701439E+03  0.40772563653E+03  0.00000000000E+00 0.  1.
</event>
<event>
 4    1  0.5548812E+002  0.2671021E+02  0.7546771E-02  0.1450541E+00
          2   -1    0    0  502    0  0.00000000000E+00  0.00000000000E+00  0.32029518425E+04  0.32029518425E+04  0.00000000000E+00 0. -1.
         -2   -1    0    0    0  501 -0.00000000000E+00 -0.00000000000E+00 -0.22361073266E+00  0.22361073266E+00  0.00000000000E+00 0.  1.
         21    1    1    2  502  503  0.26678275208E+02  0.13057028560E+01  0.15015969687E+04  0.15018345087E+04  0.00000000000E+00 0.  1.
         21    1    1    2  503  501 -0.26678275208E+02 -0.13057028560E+01  0.17011312631E+04  0.17013409445E+04  0.00000000000E+00 0. -1.
</event>
<event>
 4    1  0.5548812E+002  0.2839537E+02  0.7546771E-02  0.1434073E+00
          2   -1    0    0  503    0  0.00000000000E+00  0.00000000000E+00  0.27832303699E+01  0.27832303699E+01  0.00000000000E+00 0. -1.
         -2   -1    0    0    0  501 -0.00000000000E+00 -0.00000000000E+00 -0.29715309551E+03  0.29715309551E+03  0.00000000000E+00 0.  1.
         21    1    1    2  502  501  0.19679189088E+02  0.20470144140E+02 -0.17093828708E+03  0.17328068350E+03  0.00000000000E+00 0.  1.
         21    1    1    2  503  502 -0.19679189088E+02 -0.20470144140E+02 -0.12343157806E+03  0.12665564238E+03  0.00000000000E+00 0. -1.
</event>
<event>
 4    1  0.5548812E+002  0.3359733E+02  0.7546771E-02  0.1390702E+00
          2   -1    0    0  503    0  0.00000000000E+00  0.00000000000E+00  0.11203435682E+04  0.11203435682E+04  0.00000000000E+00 0. -1.
         -2   -1    0    0    0  501 -0.00000000000E+00 -0.00000000000E+00 -0.26726216207E+01  0.26726216207E+01  0.00000000000E+00 0.  1.
         21    1    1    2  502  501  0.30183071639E+02 -0.14756779313E+02  0.11562880966E+03  0.12041097115E+03  0.00000000000E+00 0.  1.
         21    1    1    2  503  502 -0.30183071639E+02  0.14756779313E+02  0.10020421369E+04  0.10026052187E+04  0.00000000000E+00 0. -1.
</event>
<event>
 4    1  0.5548812E+002  0.2006732E+02  0.7546771E-02  0.1533009E+00
          2   -1    0    0  503    0  0.00000000000E+00  0.00000000000E+00  0.85282853955E+03  0.85282853955E+03  0.00000000000E+00 0.  1.
         -2   -1    0    0    0  501 -0.00000000000E+00 -0.00000000000E+00 -0.64931640772E+00  0.64931640772E+00  0.00000000000E+00 0. -1.
         21    1    1    2  502  501 -0.64247228272E+01 -0.19011057306E+02  0.20320742291E+03  0.20419587187E+03  0.00000000000E+00 0. -1.
         21    1    1    2  503  502  0.64247228272E+01  0.19011057306E+02  0.64897180023E+03  0.64928198408E+03  0.00000000000E+00 0.  1.
</event>
<event>
 4    1  0.5548812E+002  0.2253720E+02  0.7546771E-02  0.1498393E+00
          2   -1    0    0  502    0  0.00000000000E+00  0.00000000000E+00  0.55325897588E+00  0.55325897588E+00  0.00000000000E+00 0. -1.
         -2   -1    0    0    0  501 -0.00000000000E+00 -0.00000000000E+00 -0.13170407568E+04  0.13170407568E+04  0.00000000000E+00 0.  1.
         21    1    1    2  502  503 -0.20443337129E+02 -0.94865920386E+01 -0.29564402588E+03  0.29650179679E+03  0.00000000000E+00 0. -1.
         21    1    1    2  503  501  0.20443337129E+02  0.94865920386E+01 -0.10208434720E+04  0.10210922190E+04  0.00000000000E+00 0.  1.
</event>
<event>
 4    1  0.5548812E+002  0.3108197E+02  0.7546771E-02  0.1410421E+00
          2   -1    0    0  502    0  0.00000000000E+00  0.00000000000E+00  0.12326377541E+03  0.12326377541E+03  0.00000000000E+00 0. -1.
         -2   -1    0    0    0  501 -0.00000000000E+00 -0.00000000000E+00 -0.78376030930E+01  0.78376030930E+01  0.00000000000E+00 0.  1.
         21    1    1    2  502  503  0.20492032355E+02 -0.23370186136E+02  0.57838872087E+02  0.65661435519E+02  0.00000000000E+00 0. -1.
         21    1    1    2  503  501 -0.20492032355E+02  0.23370186136E+02  0.57587300232E+02  0.65439942987E+02  0.00000000000E+00 0.  1.
</event>
<event>
 4    1  0.5548812E+002  0.3979307E+02  0.7546771E-02  0.1349703E+00
          2   -1    0    0  503    0  0.00000000000E+00  0.00000000000E+00  0.70946015005E+02  0.70946015005E+02  0.00000000000E+00 0. -1.
         -2   -1    0    0    0  501 -0.00000000000E+00 -0.00000000000E+00 -0.10916570736E+03  0.10916570736E+03  0.00000000000E+00 0.  1.
         21    1    1    2  502  501  0.22789877496E+02  0.32620700860E+02 -0.99433596287E+02  0.10710055421E+03  0.00000000000E+00 0.  1.
         21    1    1    2  503  502 -0.22789877496E+02 -0.32620700860E+02  0.61213903933E+02  0.73011168157E+02  0.00000000000E+00 0. -1.
</event>
<event>
 4    1  0.5548812E+002  0.2352659E+02  0.7546771E-02  0.1485989E+00
          2   -1    0    0  502    0  0.00000000000E+00  0.00000000000E+00  0.12900567810E+04  0.12900567810E+04  0.00000000000E+00 0.  1.
         -2   -1    0    0    0  501 -0.00000000000E+00 -0.00000000000E+00 -0.16211849507E+01  0.16211849507E+01  0.00000000000E+00 0. -1.
         21    1    1    2  502  503 -0.22996711744E+02 -0.49650521165E+01  0.11980401169E+04  0.11982710972E+04  0.00000000000E+00 0.  1.
         21    1    1    2  503  501  0.22996711744E+02  0.49650521165E+01  0.90395479081E+02  0.93406868761E+02  0.00000000000E+00 0. -1.
</event>
<event>
 4    1  0.5548812E+002  0.3117854E+02  0.7546771E-02  0.1409624E+00
          2   -1    0    0  503    0  0.00000000000E+00  0.00000000000E+00  0.80304063510E+02  0.80304063510E+02  0.00000000000E+00 0.  1.
         -2   -1    0    0    0  501 -0.00000000000E+00 -0.00000000000E+00 -0.71317601924E+02  0.71317601924E+02  0.00000000000E+00 0. -1.
         21    1    1    2  502  501 -0.21397171227E+02 -0.22677361281E+02 -0.64584651758E+02  0.71716657018E+02  0.00000000000E+00 0. -1.
         21    1    1    2  503  502  0.21397171227E+02  0.22677361281E+02  0.73571113344E+02  0.79905008416E+02  0.00000000000E+00 0.  1.
</event>
<event>
 4    1  0.5548812E+002  0.2054068E+02  0.7546771E-02  0.1525925E+00
          2   -1    0    0  502    0  0.00000000000E+00  0.00000000000E+00  0.36603547118E+03  0.36603547118E+03  0.00000000000E+00 0.  1.
         -2   -1    0    0    0  501 -0.00000000000E+00 -0.00000000000E+00 -0.26744632732E+01  0.26744632732E+01  0.00000000000E+00 0. -1.
         21    1    1    2  502  503 -0.15801951800E+02  0.13123183812E+02  0.32074419716E+03  0.32140124400E+03  0.00000000000E+00 0.  1.
         21    1    1    2  503  501  0.15801951800E+02 -0.13123183812E+02  0.42616810749E+02  0.47308690454E+02  0.00000000000E+00 0. -1.
</event>
<event>
 4    1  0.5548812E+002  0.2435631E+02  0.7546771E-02  0.1476135E+00
          2   -1    0    0  503    0  0.00000000000E+00  0.00000000000E+00  0.61006704173E+03  0.61006704173E+03  0.00000000000E+00 0. -1.
         -2   -1    0    0    0  501 -0.00000000000E+00 -0.00000000000E+00 -0.14338460575E+01  0.14338460575E+01  0.00000000000E+00 0.  1.
         21    1    1    2  502  501  0.18743960615E+02  0.15552939136E+02  0.13086604109E+03  0.13311330018E+03  0.00000000000E+00 0.  1.
         21    1    1    2  503  502 -0.18743960615E+02 -0.15552939136E+02  0.47776715458E+03  0.47838758760E+03  0.00000000000E+00 0. -1.
</event>
<event>
 4    1  0.5548812E+002  0.3837527E+02  0.7546771E-02  0.1358279E+00
          2   -1    0    0  502    0  0.00000000000E+00  0.00000000000E+00  0.78703855926E+02  0.78703855926E+02  0.00000000000E+00 0. -1.
         -2   -1    0    0    0  501 -0.00000000000E+00 -0.00000000000E+00 -0.23059975710E+02  0.23059975710E+02  0.00000000000E+00 0.  1.
         21    1    1    2  502  503  0.38281715695E+02 -0.26780191195E+01  0.49917557752E+02  0.62963672978E+02  0.00000000000E+00 0. -1.
         21    1    1    2  503  501 -0.38281715695E+02  0.26780191195E+01  0.57263224633E+01  0.38800158658E+02  0.00000000000E+00 0.  1.
</event>
<event>
 4    1  0.5548812E+002  0.3782861E+02  0.7546771E-02  0.1361702E+00
          2   -1    0    0  502    0  0.00000000000E+00  0.00000000000E+00  0.52386868081E+02  0.52386868081E+02  0.00000000000E+00 0.  1.
         -2   -1    0    0    0  501 -0.00000000000E+00 -0.00000000000E+00 -0.59991151255E+02  0.59991151255E+02  0.00000000000E+00 0. -1.
         21    1    1    2  502  503  0.10123246067E+02  0.36448921366E+02 -0.45270423136E+02  0.58995043780E+02  0.00000000000E+00 0. -1.
         21    1    1    2  503  501 -0.10123246067E+02 -0.36448921366E+02  0.37666139961E+02  0.53382975556E+02  0.00000000000E+00 0.  1.
</event>
<event>
 4    1  0.5548812E+002  0.3920400E+02  0.7546771E-02  0.1353214E+00
          2   -1    0    0  502    0  0.00000000000E+00  0.00000000000E+00  0.14297706440E+02  0.14297706440E+02  0.00000000000E+00 0.  1.
         -2   -1    0    0    0  501 -0.00000000000E+00 -0.00000000000E+00 -0.11133463130E+03  0.11133463130E+03  0.00000000000E+00 0. -1.
         21    1    1    2  502  503  0.25557096162E+02  0.29728585701E+02 -0.36855363510E+02  0.53807729849E+02  0.00000000000E+00 0.  1.
         21    1    1    2  503  501 -0.25557096162E+02 -0.29728585701E+02 -0.60181561345E+02  0.71824607886E+02  0.00000000000E+00 0. -1.
</event>
<event>
 4    1  0.5548812E+002  0.2434372E+02  0.7546771E-02  0.1476281E+00
          2   -1    0    0  502    0  0.00000000000E+00  0.00000000000E+00  0.22916611153E+02  0.22916611153E+02  0.00000000000E+00 0. -1.
         -2   -1    0    0    0  501 -0.00000000000E+00 -0.00000000000E+00 -0.12991123691E+03  0.12991123691E+03  0.00000000000E+00 0.  1.
         21    1    1    2  502  503 -0.16281798090E+02  0.18097502037E+02  0.14889664316E+02  0.28536268720E+02  0.00000000000E+00 0. -1.
         21    1    1    2  503  501  0.16281798090E+02 -0.18097502037E+02 -0.12188429008E+03  0.12429157935E+03  0.00000000000E+00 0.  1.
</event>
<event>
 4    1  0.5548812E+002  0.2006871E+02  0.7546771E-02  0.1532988E+00
          2   -1    0    0  502    0  0.00000000000E+00  0.00000000000E+00  0.56513163320E+01  0.56513163320E+01  0.00000000000E+00 0. -1.
         -2   -1    0    0    0  501 -0.00000000000E+00 -0.00000000000E+00 -0.28520554351E+03  0.28520554351E+03  0.00000000000E+00 0.  1.
         21    1    1    2  502  503  0.14038778955E+02  0.14341059203E+02 -0.13822324792E+02  0.24368216107E+02  0.00000000000E+00 0. -1.
         21    1    1    2  503  501 -0.14038778955E+02 -0.14341059203E+02 -0.26573190239E+03  0.26648864374E+03  0.00000000000E+00 0.  1.
</event>
<event>
 4    1  0.5548812E+002  0.2597397E+02  0.7546771E-02  0.1458196E+00
          2   -1    0    0  503    0  0.00000000000E+00  0.00000000000E+00  0.51110954776E+02  0.51110954776E+02  0.00000000000E+00 0.  1.
         -2   -1    0    0    0  501 -0.00000000000E+00 -0.00000000000E+00 -0.16331116763E+02  0.16331116763E+02  0.00000000000E+00 0. -1.
         21    1    1    2  502  501  0.25942217436E+02 -0.12839945366E+01  0.26238093455E+01  0.26106161398E+02  0.00000000000E+00 0.  1.
         21    1    1    2  503  502 -0.25942217436E+02  0.12839945366E+01  0.32156028668E+02  0.41335910141E+02  0.00000000000E+00 0. -1.
</event>
<event>
 4    1  0.5548812E+002  0.4696848E+02  0.7546771E-02  0.1311880E+00
          2   -1    0    0  503    0  0.00000000000E+00  0.00000000000E+00  0.21664234417E+04  0.21664234417E+04  0.00000000000E+00 0. -1.
         -2   -1    0    0    0  501 -0.00000000000E+00 -0.00000000000E+00 -0.71170337575E+01  0.71170337575E+01  0.00000000000E+00 0.  1.
         21    1    1    2  502  501 -0.41819726079E+02 -0.21381023280E+02  0.73628661141E+02  0.87333941782E+02  0.00000000000E+00 0.  1.
         21    1    1    2  503  502  0.41819726079E+02  0.21381023280E+02  0.20856777468E+04  0.20862065336E+04  0.00000000000E+00 0. -1.
</event>
<event>
 4    1  0.5548812E+002  0.3299396E+02  0.7546771E-02  0.1395243E+00
          2   -1    0    0  502    0  0.00000000000E+00  0.00000000000E+00  0.28790575913E+02  0.28790575913E+02  0.00000000000E+00 0. -1.
         -2   -1    0    0    0  501 -0.00000000000E+00 -0.00000000000E+00 -0.10093785418E+03  0.10093785418E+03  0.00000000000E+00 0.  1.
         21    1    1    2  502  503  0.26891333286E+02 -0.19116951705E+02  0.15222545679E+02  0.36336311664E+02  0.00000000000E+00 0. -1.
         21    1    1    2  503  501 -0.26891333286E+02  0.19116951705E+02 -0.87369823941E+02  0.93392118425E+02  0.00000000000E+00 0.  1.
</event>
<event>
 4    1  0.5548812E+002  0.2988875E+02  0.7546771E-02  0.1420566E+00
          2   -1    0    0  503    0  0.00000000000E+00  0.00000000000E+00  0.22231343672E+01  0.22231343672E+01  0.00000000000E+00 0.  1.
         -2   -1    0    0    0  501 -0.00000000000E+00 -0.00000000000E+00 -0.52400696726E+03  0.52400696726E+03  0.00000000000E+00 0. -1.
         21    1    1    2  502  501 -0.29721932835E+02  0.31534237514E+01 -0.38793751009E+03  0.38908719988E+03  0.00000000000E+00 0. -1.
         21    1    1    2  503  502  0.29721932835E+02 -0.31534237514E+01 -0.13384632280E+03  0.13714290175E+03  0.00000000000E+00 0.  1.
</event>
<event>
 4    1  0.5548812E+002  0.2176065E+02  0.7546771E-02  0.1508676E+00
          2   -1    0    0  503    0  0.00000000000E+00  0.00000000000E+00  0.77555606641E+00  0.77555606641E+00  0.00000000000E+00 0.  1.
         -2   -1    0    0    0  501 -0.00000000000E+00 -0.00000000000E+00 -0.61258686900E+03  0.61258686900E+03  0.00000000000E+00 0. -1.
         21    1    1    2  502  501  0.58974681686E+01 -0.20946254366E+02 -0.32353407355E+03  0.32426504969E+03  0.00000000000E+00 0. -1.
         21    1    1    2  503  502 -0.58974681686E+01  0.20946254366E+02 -0.28827723939E+03  0.28909737538E+03  0.00000000000E+00 0.  1.
</event>
<event>
 4    1  0.5548812E+002  0.2604472E+02  0.7546771E-02  0.1457447E+00
          2   -1    0    0  503    0  0.00000000000E+00  0.00000000000E+00  0.14708387346E+04  0.14708387346E+04  0.00000000000E+00 0. -1.
         -2   -1    0    0    0  501 -0.00000000000E+00 -0.00000000000E+00 -0.57069671931E+00  0.57069671931E+00  0.00000000000E+00 0.  1.
         21    1    1    2  502  501  0.10189113096E+02  0.23968925234E+02  0.10574137429E+04  0.10577344426E+04  0.00000000000E+00 0. -1.
         21    1    1    2  503  502 -0.10189113096E+02 -0.23968925234E+02  0.41285429504E+03  0.41367498877E+03  0.00000000000E+00 0.  1.
</event>
<event>
 4    1  0.5548812E+002  0.3523573E+02  0.7546771E-02  0.1378914E+00
          2   -1    0    0  503    0  0.00000000000E+00  0.00000000000E+00  0.26985710644E+03  0.26985710644E+03  0.00000000000E+00 0.  1.
         -2   -1    0    0    0  501 -0.00000000000E+00 -0.00000000000E+00 -0.90399021678E+01  0.90399021678E+01  0.00000000000E+00 0. -1.
         21    1    1    2  502  501 -0.30313498853E+01  0.35105090922E+02  0.32689393013E+02  0.48064050041E+02  0.00000000000E+00 0. -1.
         21    1    1    2  503  502  0.30313498853E+01 -0.35105090922E+02  0.22812781126E+03  0.23083295856E+03  0.00000000000E+00 0.  1.
</event>
<event>
 4    1  0.5548812E+002  0.3178382E+02  0.7546771E-02  0.1404703E+00
          2   -1    0    0  502    0  0.00000000000E+00  0.00000000000E+00  0.41426417104E+03  0.41426417104E+03  0.00000000000E+00 0. -1.
         -2   -1    0    0    0  501 -0.00000000000E+00 -0.00000000000E+00 -0.65943234312E+01  0.65943234312E+01  0.00000000000E+00 0.  1.
         21    1    1    2  502  503  0.31565681886E+02 -0.37174174686E+01  0.37088472213E+03  0.37224412497E+03  0.00000000000E+00 0. -1.
         21    1    1    2  503  501 -0.31565681886E+02  0.37174174686E+01  0.36785125483E+02  0.48614369505E+02  0.00000000000E+00 0.  1.
</event>
<event>
 4    1  0.5548812E+002  0.4504896E+02  0.7546771E-02  0.1321195E+00
          2   -1    0    0  503    0  0.00000000000E+00  0.00000000000E+00  0.21987369466E+04  0.21987369466E+04  0.00000000000E+00 0. -1.
         -2   -1    0    0    0  501 -0.00000000000E+00 -0.00000000000E+00 -0.10987091116E+01  0.10987091116E+01  0.00000000000E+00 0.  1.
         21    1    1    2  502  501 -0.43158031925E+02 -0.12914845320E+02  0.65894317381E+03  0.66048127548E+03  0.00000000000E+00 0.  1.
         21    1    1    2  503  502  0.43158031925E+02  0.12914845320E+02  0.15386950637E+04  0.15393543802E+04  0.00000000000E+00 0. -1.
</event>
<event>
 4    1  0.5548812E+002  0.3575882E+02  0.7546771E-02  0.1375306E+00
          2   -1    0    0  503    0  0.00000000000E+00  0.00000000000E+00  0.23698316822E+02  0.23698316822E+02  0.00000000000E+00 0.  1.
         -2   -1    0    0    0  501 -0.00000000000E+00 -0.00000000000E+00 -0.22027340343E+03  0.22027340343E+03  0.00000000000E+00 0. -1.
         21    1    1    2  502  501  0.63896066169E+01 -0.35183322326E+02 -0.20428509397E+03  0.20739115907E+03  0.00000000000E+00 0. -1.
         21    1    1    2  503  502 -0.63896066169E+01  0.35183322326E+02  0.77100073639E+01  0.36580561179E+02  0.00000000000E+00 0.  1.
</event>
<event>
 4    1  0.5548812E+002  0.2757038E+02  0.7546771E-02  0.1441961E+00
          2   -1    0    0  503    0  0.00000000000E+00  0.00000000000E+00  0.20379412738E+04  0.20379412738E+04  0.00000000000E+00 0. -1.
         -2   -1    0    0    0  501 -0.00000000000E+00 -0.00000000000E+00 -0.14882811145E+01  0.14882811145E+01  0.00000000000E+00 0.  1.
         21    1    1    2  502  501 -0.25516885206E+02 -0.10441005058E+02  0.13549038522E+03  0.13826702609E+03  0.00000000000E+00 0.  1.
         21    1    1    2  503  502  0.25516885206E+02  0.10441005058E+02  0.19009626075E+04  0.19011625288E+04  0.00000000000E+00 0. -1.
</event>
<event>
 4    1  0.5548812E+002  0.3867512E+02  0.7546771E-02  0.1356429E+00
          2   -1    0    0  502    0  0.00000000000E+00  0.00000000000E+00  0.16997912080E+03  0.16997912080E+03  0.00000000000E+00 0. -1.
         -2   -1    0    0    0  501 -0.00000000000E+00 -0.00000000000E+00 -0.42328475813E+02  0.42328475813E+02  0.00000000000E+00 0.  1.
         21    1    1    2  502  503  0.30606856406E+01  0.38553821666E+02  0.15830275518E+03  0.16295866733E+03  0.00000000000E+00 0. -1.
         21    1    1    2  503  501 -0.30606856406E+01 -0.38553821666E+02 -0.30652110193E+02  0.49348929279E+02  0.00000000000E+00 0.  1.
</event>
<event>
 4    1  0.5548812E+002  0.4590726E+02  0.7546771E-02  0.1316964E+00
          2   -1    0    0  503    0  0.00000000000E+00  0.00000000000E+00  0.63402915312E+03  0.63402915312E+03  0.00000000000E+00 0.  1.
         -2   -1    0    0    0  501 -0.00000000000E+00 -0.00000000000E+00 -0.55066240060E+01  0.55066240060E+01  0.00000000000E+00 0. -1.
         21    1    1    2  502  501  0.27588101571E+02 -0.36692956623E+02  0.11294107663E+03  0.12191457339E+03  0.00000000000E+00 0. -1.
         21    1    1    2  503  502 -0.27588101571E+02  0.36692956623E+02  0.51558145248E+03  0.51762120374E+03  0.00000000000E+00 0.  1.
</event>
<event>
 4    1  0.5548812E+002  0.3162287E+02  0.7546771E-02  0.1405999E+00
          2   -1    0    0  502    0  0.00000000000E+00  0.00000000000E+00  0.13771271613E+01  0.13771271613E+01  0.00000000000E+00 0. -1.
         -2   -1    0    0    0  501 -0.00000000000E+00 -0.00000000000E+00 -0.76325160495E+03  0.76325160495E+03  0.00000000000E+00 0.  1.
         21    1    1    2  502  503 -0.31364769548E+02  0.40320533712E+01 -0.29665027159E+03  0.29833100720E+03  0.00000000000E+00 0.  1.
         21    1    1    2  503  501  0.31364769548E+02 -0.40320533712E+01 -0.46522420620E+03  0.46629772491E+03  0.00000000000E+00 0. -1.
</event>
<event>
 4    1  0.5548812E+002  0.3134888E+02  0.7546771E-02  0.1408226E+00
          2   -1    0    0  502    0  0.00000000000E+00  0.00000000000E+00  0.36816083148E+03  0.36816083148E+03  0.00000000000E+00 0.  1.
         -2   -1    0    0    0  501 -0.00000000000E+00 -0.00000000000E+00 -0.24861988516E+02  0.24861988516E+02  0.00000000000E+00 0. -1.
         21    1    1    2  502  503 -0.26560860777E+02  0.16651514624E+02  0.35731194691E+03  0.35868451272E+03  0.00000000000E+00 0.  1.
         21    1    1    2  503  501  0.26560860777E+02 -0.16651514624E+02 -0.14013103941E+02  0.34338307275E+02  0.00000000000E+00 0. -1.
</event>
<event>
 4    1  0.5548812E+002  0.2015635E+02  0.7546771E-02  0.1531659E+00
          2   -1    0    0  503    0  0.00000000000E+00  0.00000000000E+00  0.89981025540E+00  0.89981025540E+00  0.00000000000E+00 0.  1.
         -2   -1    0    0    0  501 -0.00000000000E+00 -0.00000000000E+00 -0.57791147085E+03  0.57791147085E+03  0.00000000000E+00 0. -1.
         21    1    1    2  502  501  0.37663013701E+01 -0.19801347355E+02 -0.42385099570E+03  0.42432999533E+03  0.00000000000E+00 0. -1.
         21    1    1    2  503  502 -0.37663013701E+01  0.19801347355E+02 -0.15316066490E+03  0.15448128578E+03  0.00000000000E+00 0.  1.
</event>
<event>
 4    1  0.5548812E+002  0.2300083E+02  0.7546771E-02  0.1492488E+00
          2   -1    0    0  502    0  0.00000000000E+00  0.00000000000E+00  0.34088358110E+03  0.34088358110E+03  0.00000000000E+00 0. -1.
         -2   -1    0    0    0  501 -0.00000000000E+00 -0.00000000000E+00 -0.28899165054E+01  0.28899165054E+01  0.00000000000E+00 0.  1.
         21    1    1    2  502  503 -0.21817263786E+02  0.72832122599E+01  0.28595229470E+03  0.28687584949E+03  0.00000000000E+00 0. -1.
         21    1    1    2  503  501  0.21817263786E+02 -0.72832122599E+01  0.52041369903E+02  0.56897648117E+02  0.00000000000E+00 0.  1.
</event>
<event>
 4    1  0.5548812E+002  0.5896302E+02  0.7546771E-02  0.1263397E+00
          2   -1    0    0  502    0  0.00000000000E+00  0.00000000000E+00  0.44479350882E+03  0.44479350882E+03  0.00000000000E+00 0.  1.
         -2   -1    0    0    0  501 -0.00000000000E+00 -0.00000000000E+00 -0.81101393882E+01  0.81101393882E+01  0.00000000000E+00 0. -1.
         21    1    1    2  502  503 -0.25561422451E+02 -0.53134280260E+02  0.17523753593E+03  0.18489140612E+03  0.00000000000E+00 0. -1.
         21    1    1    2  503  501  0.25561422451E+02  0.53134280260E+02  0.26144583350E+03  0.26801224209E+03  0.00000000000E+00 0.  1.
</event>
<event>
 4    1  0.5548812E+002  0.2057591E+02  0.7546771E-02  0.1525407E+00
          2   -1    0    0  502    0  0.00000000000E+00  0.00000000000E+00  0.19376145938E+03  0.19376145938E+03  0.00000000000E+00 0. -1.
         -2   -1    0    0    0  501 -0.00000000000E+00 -0.00000000000E+00 -0.16538543346E+02  0.16538543346E+02  0.00000000000E+00 0.  1.
         21    1    1    2  502  503  0.27103186444E+01 -0.20396625839E+02  0.18656953827E+03  0.18770072132E+03  0.00000000000E+00 0. -1.
         21    1    1    2  503  501 -0.27103186444E+01  0.20396625839E+02 -0.93466222397E+01  0.22599281406E+02  0.00000000000E+00 0.  1.
</event>
<event>
 4    1  0.5548812E+002  0.4334315E+02  0.7546771E-02  0.1329935E+00
          2   -1    0    0  502    0  0.00000000000E+00  0.00000000000E+00  0.73297918263E+02  0.73297918263E+02  0.00000000000E+00 0.  1.
         -2   -1    0    0    0  501 -0.00000000000E+00 -0.00000000000E+00 -0.13350645659E+03  0.13350645659E+03  0.00000000000E+00 0. -1.
         21    1    1    2  502  503 -0.23442907178E+02  0.36456255039E+02  0.62844116523E+02  0.76341413466E+02  0.00000000000E+00 0.  1.
         21    1    1    2  503  501  0.23442907178E+02 -0.36456255039E+02 -0.12305265485E+03  0.13046296139E+03  0.00000000000E+00 0. -1.
</event>
<event>
 4    1  0.5548812E+002  0.2210806E+02  0.7546771E-02  0.1504013E+00
          2   -1    0    0  502    0  0.00000000000E+00  0.00000000000E+00  0.14694852394E+03  0.14694852394E+03  0.00000000000E+00 0. -1.
         -2   -1    0    0    0  501 -0.00000000000E+00 -0.00000000000E+00 -0.37038090381E+01  0.37038090381E+01  0.00000000000E+00 0.  1.
         21    1    1    2  502  503  0.20570194235E+02 -0.81014324093E+01  0.95676942214E+02  0.98197980475E+02  0.00000000000E+00 0. -1.
         21    1    1    2  503  501 -0.20570194235E+02  0.81014324093E+01  0.47567772683E+02  0.52454352498E+02  0.00000000000E+00 0.  1.
</event>
<event>
 4    1  0.5548812E+002  0.3085318E+02  0.7546771E-02  0.1412324E+00
          2   -1    0    0  502    0  0.00000000000E+00  0.00000000000E+00  0.13049078251E+04  0.13049078251E+04  0.00000000000E+00 0.  1.
         -2   -1    0    0    0  501 -0.00000000000E+00 -0.00000000000E+00 -0.17619294226E+01  0.17619294226E+01  0.00000000000E+00 0. -1.
         21    1    1    2  502  503  0.29946184122E+02  0.74259405299E+01  0.11516923055E+04  0.11521055009E+04  0.00000000000E+00 0.  1.
         21    1    1    2  503  501 -0.29946184122E+02 -0.74259405299E+01  0.15145359015E+03  0.15456425365E+03  0.00000000000E+00 0. -1.
</event>
<event>
 4    1  0.5548812E+002  0.2461275E+02  0.7546771E-02  0.1473182E+00
          2   -1    0    0  502    0  0.00000000000E+00  0.00000000000E+00  0.10263101928E+03  0.10263101928E+03  0.00000000000E+00 0. -1.
         -2   -1    0    0    0  501 -0.00000000000E+00 -0.00000000000E+00 -0.46423687879E+02  0.46423687879E+02  0.00000000000E+00 0.  1.
         21    1    1    2  502  503  0.29138210406E+01 -0.24439666648E+02  0.97732086289E+02  0.10078367105E+03  0.00000000000E+00 0. -1.
         21    1    1    2  503  501 -0.29138210406E+01  0.24439666648E+02 -0.41524754889E+02  0.48271036114E+02  0.00000000000E+00 0.  1.
</event>
<event>
 4    1  0.5548812E+002  0.2260011E+02  0.7546771E-02  0.1497582E+00
          2   -1    0    0  503    0  0.00000000000E+00  0.00000000000E+00  0.45459357709E+03  0.45459357709E+03  0.00000000000E+00 0.  1.
         -2   -1    0    0    0  501 -0.00000000000E+00 -0.00000000000E+00 -0.11505658132E+01  0.11505658132E+01  0.00000000000E+00 0. -1.
         21    1    1    2  502  501  0.18284488538E+02 -0.13283170279E+02  0.19181317561E+03  0.19313999967E+03  0.00000000000E+00 0.  1.
         21    1    1    2  503  502 -0.18284488538E+02  0.13283170279E+02  0.26162983567E+03  0.26260414324E+03  0.00000000000E+00 0. -1.
</event>
<event>
 4    1  0.5548812E+002  0.2043383E+02  0.7546771E-02  0.1527504E+00
          2   -1    0    0  503    0  0.00000000000E+00  0.00000000000E+00  0.25859445214E+03  0.25859445214E+03  0.00000000000E+00 0.  1.
         -2   -1    0    0    0  501 -0.00000000000E+00 -0.00000000000E+00 -0.44310829003E+01  0.44310829003E+01  0.00000000000E+00 0. -1.
         21    1    1    2  502  501 -0.19852595268E+02 -0.48389761034E+01  0.22233195146E+02  0.30196956718E+02  0.00000000000E+00 0. -1.
         21    1    1    2  503  502  0.19852595268E+02  0.48389761034E+01  0.23193017410E+03  0.23282857833E+03  0.00000000000E+00 0.  1.
</event>
<event>
 4    1  0.5548812E+002  0.2154499E+02  0.7546771E-02  0.1511624E+00
          2   -1    0    0  503    0  0.00000000000E+00  0.00000000000E+00  0.53568171363E+01  0.53568171363E+01  0.00000000000E+00 0. -1.
         -2   -1    0    0    0  501 -0.00000000000E+00 -0.00000000000E+00 -0.28935316902E+03  0.28935316902E+03  0.00000000000E+00 0.  1.
         21    1    1    2  502  501  0.18331652204E+02 -0.11319776008E+02 -0.26533060498E+03  0.26620390069E+03  0.00000000000E+00 0.  1.
         21    1    1    2  503  502 -0.18331652204E+02  0.11319776008E+02 -0.18665746906E+02  0.28506085473E+02  0.00000000000E+00 0. -1.
</event>
<event>
 4    1  0.5548812E+002  0.2098458E+02  0.7546771E-02  0.1519485E+00
          2   -1    0    0  502    0  0.00000000000E+00  0.00000000000E+00  0.31740654474E+03  0.31740654474E+03  0.00000000000E+00 0.  1.
         -2   -1    0    0    0  501 -0.00000000000E+00 -0.00000000000E+00 -0.90132151628E+01  0.90132151628E+01  0.00000000000E+00 0. -1.
         21    1    1    2  502  503  0.20178970884E+02 -0.57586361644E+01  0.30432105138E+03  0.30504369370E+03  0.00000000000E+00 0.  1.
         21    1    1    2  503  501 -0.20178970884E+02  0.57586361644E+01  0.40722781980E+01  0.21376066198E+02  0.00000000000E+00 0. -1.
</event>
<event>
 4    1  0.5548812E+002  0.2250643E+02  0.7546771E-02  0.1498791E+00
          2   -1    0    0  502    0  0.00000000000E+00  0.00000000000E+00  0.46439380832E+03  0.46439380832E+03  0.00000000000E+00 0.  1.
         -2   -1    0    0    0  501 -0.00000000000E+00 -0.00000000000E+00 -0.16632185160E+01  0.16632185160E+01  0.00000000000E+00 0. -1.
         21    1    1    2  502  503  0.21132910346E+02 -0.77420672664E+01  0.36807791683E+03  0.36876536221E+03  0.00000000000E+00 0.  1.
         21    1    1    2  503  501 -0.21132910346E+02  0.77420672664E+01  0.94652672969E+02  0.97291664625E+02  0.00000000000E+00 0. -1.
</event>
<event>
 4    1  0.5548812E+002  0.3155775E+02  0.7546771E-02  0.1406526E+00
          2   -1    0    0  503    0  0.00000000000E+00  0.00000000000E+00  0.70861726339E+02  0.70861726339E+02  0.00000000000E+00 0. -1.
         -2   -1    0    0    0  501 -0.00000000000E+00 -0.00000000000E+00 -0.14056630996E+02  0.14056630996E+02  0.00000000000E+00 0.  1.
         21    1    1    2  502  501 -0.29961806306E+02  0.99086675045E+01  0.28982144345E+02  0.42846892766E+02  0.00000000000E+00 0.  1.
         21    1    1    2  503  502  0.29961806306E+02 -0.99086675045E+01  0.27822950998E+02  0.42071464570E+02  0.00000000000E+00 0. -1.
</event>
<event>
 4    1  0.5548812E+002  0.5185272E+02  0.7546771E-02  0.1290333E+00
          2   -1    0    0  502    0  0.00000000000E+00  0.00000000000E+00  0.67455047957E+02  0.67455047957E+02  0.00000000000E+00 0.  1.
         -2   -1    0    0    0  501 -0.00000000000E+00 -0.00000000000E+00 -0.13048107574E+03  0.13048107574E+03  0.00000000000E+00 0. -1.
         21    1    1    2  502  503 -0.35261751874E+02  0.38017282490E+02  0.50964925285E+02  0.72705766776E+02  0.00000000000E+00 0.  1.
         21    1    1    2  503  501  0.35261751874E+02 -0.38017282490E+02 -0.11399095307E+03  0.12523035692E+03  0.00000000000E+00 0. -1.
</event>
<event>
 4    1  0.5548812E+002  0.2019747E+02  0.7546771E-02  0.1531038E+00
          2   -1    0    0  503    0  0.00000000000E+00  0.00000000000E+00  0.22961017730E+03  0.22961017730E+03  0.00000000000E+00 0. -1.
         -2   -1    0    0    0  501 -0.00000000000E+00 -0.00000000000E+00 -0.18312520871E+01  0.18312520871E+01  0.00000000000E+00 0.  1.
         21    1    1    2  502  501 -0.63695145384E+01  0.19166818370E+02  0.93907912082E+02  0.96055367333E+02  0.00000000000E+00 0.  1.
         21    1    1    2  503  502  0.63695145384E+01 -0.19166818370E+02  0.13387101313E+03  0.13538606206E+03  0.00000000000E+00 0. -1.
</event>
<event>
 4    1  0.5548812E+002  0.2844857E+02  0.7546771E-02  0.1433576E+00
          2   -1    0    0  502    0  0.00000000000E+00  0.00000000000E+00  0.25406550565E+03  0.25406550565E+03  0.00000000000E+00 0.  1.
         -2   -1    0    0    0  501 -0.00000000000E+00 -0.00000000000E+00 -0.12334942759E+02  0.12334942759E+02  0.00000000000E+00 0. -1.
         21    1    1    2  502  503 -0.15448154269E+02 -0.23888822422E+02  0.23558395485E+03  0.23729542998E+03  0.00000000000E+00 0.  1.
         21    1    1    2  503  501  0.15448154269E+02  0.23888822422E+02  0.61466080350E+01  0.29105018423E+02  0.00000000000E+00 0. -1.
</event>
<event>
 4    1  0.5548812E+002  0.2162710E+02  0.7546771E-02  0.1510497E+00
          2   -1    0    0  503    0  0.00000000000E+00  0.00000000000E+00  0.88974078845E+03  0.88974078845E+03  0.00000000000E+00 0. -1.
         -2   -1    0    0    0  501 -0.00000000000E+00 -0.00000000000E+00 -0.58560188757E+00  0.58560188757E+00  0.00000000000E+00 0.  1.
         21    1    1    2  502  501 -0.18241959940E+01  0.21550029705E+02  0.30219407987E+03  0.30296698398E+03  0.00000000000E+00 0.  1.
         21    1    1    2  503  502  0.18241959940E+01 -0.21550029705E+02  0.58696110669E+03  0.58735940636E+03  0.00000000000E+00 0. -1.
</event>
<event>
 4    1  0.5548812E+002  0.2038783E+02  0.7546771E-02  0.1528187E+00
          2   -1    0    0  502    0  0.00000000000E+00  0.00000000000E+00  0.28272571355E+02  0.28272571355E+02  0.00000000000E+00 0.  1.
         -2   -1    0    0    0  501 -0.00000000000E+00 -0.00000000000E+00 -0.28501091709E+02  0.28501091709E+02  0.00000000000E+00 0. -1.
         21    1    1    2  502  503  0.25888442769E+01  0.20222797599E+02  0.19637747632E+02  0.28307327487E+02  0.00000000000E+00 0.  1.
         21    1    1    2  503  501 -0.25888442769E+01 -0.20222797599E+02 -0.19866267986E+02  0.28466335576E+02  0.00000000000E+00 0. -1.
</event>
<event>
 4    1  0.5548812E+002  0.3789639E+02  0.7546771E-02  0.1361274E+00
          2   -1    0    0  503    0  0.00000000000E+00  0.00000000000E+00  0.12230082407E+02  0.12230082407E+02  0.00000000000E+00 0. -1.
         -2   -1    0    0    0  501 -0.00000000000E+00 -0.00000000000E+00 -0.37345133100E+03  0.37345133100E+03  0.00000000000E+00 0.  1.
         21    1    1    2  502  501 -0.19214452150E+02  0.32664066219E+02 -0.34028039791E+03  0.34238411995E+03  0.00000000000E+00 0.  1.
         21    1    1    2  503  502  0.19214452150E+02 -0.32664066219E+02 -0.20940850686E+02  0.43297293459E+02  0.00000000000E+00 0. -1.
</event>
<event>
 4    1  0.5548812E+002  0.2003226E+02  0.7546771E-02  0.1533543E+00
          2   -1    0    0  503    0  0.00000000000E+00  0.00000000000E+00  0.23688303679E+01  0.23688303679E+01  0.00000000000E+00 0.  1.
         -2   -1    0    0    0  501 -0.00000000000E+00 -0.00000000000E+00 -0.33378523963E+03  0.33378523963E+03  0.00000000000E+00 0. -1.
         21    1    1    2  502  501  0.54359633304E+00 -0.20024885459E+02 -0.28365868552E+03  0.28436515505E+03  0.00000000000E+00 0. -1.
         21    1    1    2  503  502 -0.54359633304E+00  0.20024885459E+02 -0.47757723735E+02  0.51788914943E+02  0.00000000000E+00 0.  1.
</event>
<event>
 4    1  0.5548812E+002  0.2721003E+02  0.7546771E-02  0.1445510E+00
          2   -1    0    0  502    0  0.00000000000E+00  0.00000000000E+00  0.68402866429E+03  0.68402866429E+03  0.00000000000E+00 0. -1.
         -2   -1    0    0    0  501 -0.00000000000E+00 -0.00000000000E+00 -0.20347979627E+01  0.20347979627E+01  0.00000000000E+00 0.  1.
         21    1    1    2  502  503  0.20770865652E+01 -0.27130639923E+02  0.57568181574E+03  0.57632450831E+03  0.00000000000E+00 0. -1.
         21    1    1    2  503  501 -0.20770865652E+01  0.27130639923E+02  0.10631205059E+03  0.10973895394E+03  0.00000000000E+00 0.  1.
</event>
<event>
 4    1  0.5548812E+002  0.4547558E+02  0.7546771E-02  0.1319078E+00
          2   -1    0    0  503    0  0.00000000000E+00  0.00000000000E+00  0.72135767811E+02  0.72135767811E+02  0.00000000000E+00 0. -1.
         -2   -1    0    0    0  501 -0.00000000000E+00 -0.00000000000E+00 -0.63769146766E+02  0.63769146766E+02  0.00000000000E+00 0.  1.
         21    1    1    2  502  501  0.13050312955E+02 -0.43562798975E+02 -0.46231378346E+02  0.64848812375E+02  0.00000000000E+00 0.  1.
         21    1    1    2  503  502 -0.13050312955E+02  0.43562798975E+02  0.54597999391E+02  0.71056102202E+02  0.00000000000E+00 0. -1.
</event>
<event>
 4    1  0.5548812E+002  0.3078162E+02  0.7546771E-02  0.1412923E+00
          2   -1    0    0  502    0  0.00000000000E+00  0.00000000000E+00  0.18815736120E+04  0.18815736120E+04  0.00000000000E+00 0.  1.
         -2   -1    0    0    0  501 -0.00000000000E+00 -0.00000000000E+00 -0.13903028140E+01  0.13903028140E+01  0.00000000000E+00 0. -1.
         21    1    1    2  502  503  0.21167470173E+02 -0.22348294965E+02  0.16919796702E+04  0.16922596469E+04  0.00000000000E+00 0.  1.
         21    1    1    2  503  501 -0.21167470173E+02  0.22348294965E+02  0.18820363896E+03  0.19070426791E+03  0.00000000000E+00 0. -1.
</event>
<event>
 4    1  0.5548812E+002  0.3675566E+02  0.7546771E-02  0.1368623E+00
          2   -1    0    0  503    0  0.00000000000E+00  0.00000000000E+00  0.19918392443E+04  0.19918392443E+04  0.00000000000E+00 0.  1.
         -2   -1    0    0    0  501 -0.00000000000E+00 -0.00000000000E+00 -0.79603229711E+00  0.79603229711E+00  0.00000000000E+00 0. -1.
         21    1    1    2  502  501  0.34977364122E+01 -0.36588854648E+02  0.13787520569E+04  0.13792418979E+04  0.00000000000E+00 0. -1.
         21    1    1    2  503  502 -0.34977364122E+01  0.36588854648E+02  0.61229115514E+03  0.61339337876E+03  0.00000000000E+00 0.  1.
</event>
<event>
 4    1  0.5548812E+002  0.2245142E+02  0.7546771E-02  0.1499504E+00
          2   -1    0    0  502    0  0.00000000000E+00  0.00000000000E+00  0.38359829232E+03  0.38359829232E+03  0.00000000000E+00 0. -1.
         -2   -1    0    0    0  501 -0.00000000000E+00 -0.00000000000E+00 -0.13444821391E+01  0.13444821391E+01  0.00000000000E+00 0.  1.
         21    1    1    2  502  503 -0.21024613054E+02 -0.78760284057E+01  0.22008543072E+03  0.22122762710E+03  0.00000000000E+00 0. -1.
         21    1    1    2  503  501  0.21024613054E+02  0.78760284057E+01  0.16216837947E+03  0.16371514737E+03  0.00000000000E+00 0.  1.
</event>
<event>
 4    1  0.5548812E+002  0.5624234E+02  0.7546771E-02  0.1273163E+00
          2   -1    0    0  503    0  0.00000000000E+00  0.00000000000E+00  0.22150736091E+03  0.22150736091E+03  0.00000000000E+00 0.  1.
         -2   -1    0    0    0  501 -0.00000000000E+00 -0.00000000000E+00 -0.32215282712E+02  0.32215282712E+02  0.00000000000E+00 0. -1.
         21    1    1    2  502  501 -0.14633501297E+02 -0.54305261916E+02 -0.99795159062E-02  0.56242341093E+02  0.00000000000E+00 0. -1.
         21    1    1    2  503  502  0.14633501297E+02  0.54305261916E+02  0.18930205771E+03  0.19748030253E+03  0.00000000000E+00 0.  1.
</event>
<event>
 4    1  0.5548812E+002  0.3888316E+02  0.7546771E-02  0.1355158E+00
          2   -1    0    0  502    0  0.00000000000E+00  0.00000000000E+00  0.61053329649E+03  0.61053329649E+03  0.00000000000E+00 0.  1.
         -2   -1    0    0    0  501 -0.00000000000E+00 -0.00000000000E+00 -0.29032910828E+01  0.29032910828E+01  0.00000000000E+00 0. -1.
         21    1    1    2  502  503 -0.24735841389E+02  0.30000632555E+02  0.42143296097E+03  0.42322292045E+03  0.00000000000E+00 0.  1.
         21    1    1    2  503  501  0.24735841389E+02 -0.30000632555E+02  0.18619704444E+03  0.19021366713E+03  0.00000000000E+00 0. -1.
</event>
<event>
 4    1  0.5548812E+002  0.3063752E+02  0.7546771E-02  0.1414136E+00
          2   -1    0    0  503    0  0.00000000000E+00  0.00000000000E+00  0.14051122851E+04  0.14051122851E+04  0.00000000000E+00 0. -1.
         -2   -1    0    0    0  501 -0.00000000000E+00 -0.00000000000E+00 -0.85404217686E+00  0.85404217686E+00  0.00000000000E+00 0.  1.
         21    1    1    2  502  501  0.23735661757E+02  0.19372038382E+02  0.37405221515E+03  0.37530483232E+03  0.00000000000E+00 0. -1.
         21    1    1    2  503  502 -0.23735661757E+02 -0.19372038382E+02  0.10302060277E+04  0.10306614949E+04  0.00000000000E+00 0.  1.
</event>
<event>
 4    1  0.5548812E+002  0.2056925E+02  0.7546771E-02  0.1525505E+00
          2   -1    0    0  502    0  0.00000000000E+00  0.00000000000E+00  0.15619122142E+02  0.15619122142E+02  0.00000000000E+00 0.  1.
         -2   -1    0    0    0  501 -0.00000000000E+00 -0.00000000000E+00 -0.25057441905E+03  0.25057441905E+03  0.00000000000E+00 0. -1.
         21    1    1    2  502  503 -0.17762086493E+02 -0.10373156253E+02  0.82192364023E+01  0.22150619275E+02  0.00000000000E+00 0.  1.
         21    1    1    2  503  501  0.17762086493E+02  0.10373156253E+02 -0.24317453331E+03  0.24404292191E+03  0.00000000000E+00 0. -1.
</event>
<event>
 4    1  0.5548812E+002  0.2193415E+02  0.7546771E-02  0.1506334E+00
          2   -1    0    0  502    0  0.00000000000E+00  0.00000000000E+00  0.12511621617E+04  0.12511621617E+04  0.00000000000E+00 0. -1.
         -2   -1    0    0    0  501 -0.00000000000E+00 -0.00000000000E+00 -0.57173881312E+00  0.57173881312E+00  0.00000000000E+00 0.  1.
         21    1    1    2  502  503 -0.93556434643E+01  0.19838820099E+02  0.98343178905E+03  0.98367636474E+03  0.00000000000E+00 0. -1.
         21    1    1    2  503  501  0.93556434643E+01 -0.19838820099E+02  0.26715863386E+03  0.26805753579E+03  0.00000000000E+00 0.  1.
</event>
<event>
 4    1  0.5548812E+002  0.2083416E+02  0.7546771E-02  0.1521646E+00
          2   -1    0    0  503    0  0.00000000000E+00  0.00000000000E+00  0.17547200881E+04  0.17547200881E+04  0.00000000000E+00 0. -1.
         -2   -1    0    0    0  501 -0.00000000000E+00 -0.00000000000E+00 -0.36887104369E+00  0.36887104369E+00  0.00000000000E+00 0.  1.
         21    1    1    2  502  501 -0.93864568933E+01 -0.18599907784E+02  0.37353019775E+03  0.37411077340E+03  0.00000000000E+00 0.  1.
         21    1    1    2  503  502  0.93864568933E+01  0.18599907784E+02  0.13808210193E+04  0.13809781857E+04  0.00000000000E+00 0. -1.
</event>
<event>
 4    1  0.5548812E+002  0.4002588E+02  0.7546771E-02  0.1348334E+00
          2   -1    0    0  503    0  0.00000000000E+00  0.00000000000E+00  0.16317412015E+03  0.16317412015E+03  0.00000000000E+00 0. -1.
         -2   -1    0    0    0  501 -0.00000000000E+00 -0.00000000000E+00 -0.15838859932E+02  0.15838859932E+02  0.00000000000E+00 0.  1.
         21    1    1    2  502  501  0.35097235715E+02 -0.19242014411E+02  0.18483304732E+02  0.44087454307E+02  0.00000000000E+00 0.  1.
         21    1    1    2  503  502 -0.35097235715E+02  0.19242014411E+02  0.12885195549E+03  0.13492552578E+03  0.00000000000E+00 0. -1.
</event>
<event>
 4    1  0.5548812E+002  0.2923514E+02  0.7546771E-02  0.1426361E+00
          2   -1    0    0  503    0  0.00000000000E+00  0.00000000000E+00  0.75788876557E+03  0.75788876557E+03  0.00000000000E+00 0. -1.
         -2   -1    0    0    0  501 -0.00000000000E+00 -0.00000000000E+00 -0.14213267081E+01  0.14213267081E+01  0.00000000000E+00 0.  1.
         21    1    1    2  502  501  0.24704255534E+02 -0.15633085131E+02  0.20568247048E+03  0.20774978281E+03  0.00000000000E+00 0.  1.
         21    1    1    2  503  502 -0.24704255534E+02  0.15633085131E+02  0.55078496838E+03  0.55156030947E+03  0.00000000000E+00 0. -1.
</event>
<event>
 4    1  0.5548812E+002  0.2716853E+02  0.7546771E-02  0.1445922E+00
          2   -1    0    0  503    0  0.00000000000E+00  0.00000000000E+00  0.71978934988E+01  0.71978934988E+01  0.00000000000E+00 0. -1.
         -2   -1    0    0    0  501 -0.00000000000E+00 -0.00000000000E+00 -0.12068719075E+03  0.12068719075E+03  0.00000000000E+00 0.  1.
         21    1    1    2  502  501  0.61776178306E+01  0.26456873692E+02 -0.81534220114E+02  0.85941597479E+02  0.00000000000E+00 0.  1.
         21    1    1    2  503  502 -0.61776178306E+01 -0.26456873692E+02 -0.31955077140E+02  0.41943486773E+02  0.00000000000E+00 0. -1.
</event>
<event>
 4    1  0.5548812E+002  0.6289952E+02  0.7546771E-02  0.1250287E+00
          2   -1    0    0  502    0  0.00000000000E+00  0.00000000000E+00  0.89270607781E+02  0.89270607781E+02  0.00000000000E+00 0.  1.
         -2   -1    0    0    0  501 -0.00000000000E+00 -0.00000000000E+00 -0.63174351453E+02  0.63174351453E+02  0.00000000000E+00 0. -1.
         21    1    1    2  502  503  0.47949804040E+02 -0.40708295122E+02  0.54690409744E+02  0.83351004297E+02  0.00000000000E+00 0.  1.
         21    1    1    2  503  501 -0.47949804040E+02  0.40708295122E+02 -0.28594153417E+02  0.69093954938E+02  0.00000000000E+00 0. -1.
</event>
<event>
 4    1  0.5548812E+002  0.2398560E+02  0.7546771E-02  0.1480479E+00
          2   -1    0    0  503    0  0.00000000000E+00  0.00000000000E+00  0.13018437764E+03  0.13018437764E+03  0.00000000000E+00 0. -1.
         -2   -1    0    0    0  501 -0.00000000000E+00 -0.00000000000E+00 -0.48189264035E+01  0.48189264035E+01  0.00000000000E+00 0.  1.
         21    1    1    2  502  501  0.14038832250E+02  0.19447879537E+02  0.43241264428E+02  0.49448111984E+02  0.00000000000E+00 0. -1.
         21    1    1    2  503  502 -0.14038832250E+02 -0.19447879537E+02  0.82124186804E+02  0.85555192056E+02  0.00000000000E+00 0.  1.
</event>
<event>
 4    1  0.5548812E+002  0.2192899E+02  0.7546771E-02  0.1506403E+00
          2   -1    0    0  502    0  0.00000000000E+00  0.00000000000E+00  0.39904396541E+03  0.39904396541E+03  0.00000000000E+00 0. -1.
         -2   -1    0    0    0  501 -0.00000000000E+00 -0.00000000000E+00 -0.21977128263E+02  0.21977128263E+02  0.00000000000E+00 0.  1.
         21    1    1    2  502  503  0.11881648492E+02  0.18431139467E+02  0.39319109286E+03  0.39380212795E+03  0.00000000000E+00 0. -1.
         21    1    1    2  503  501 -0.11881648492E+02 -0.18431139467E+02 -0.16124255711E+02  0.27218965725E+02  0.00000000000E+00 0.  1.
</event>
<event>
 4    1  0.5548812E+002  0.3913495E+02  0.7546771E-02  0.1353631E+00
          2   -1    0    0  502    0  0.00000000000E+00  0.00000000000E+00  0.10031408978E+04  0.10031408978E+04  0.00000000000E+00 0. -1.
         -2   -1    0    0    0  501 -0.00000000000E+00 -0.00000000000E+00 -0.16223205057E+01  0.16223205057E+01  0.00000000000E+00 0.  1.
         21    1    1    2  502  503  0.19387830645E+02  0.33994949528E+02  0.62269450333E+03  0.62392306341E+03  0.00000000000E+00 0. -1.
         21    1    1    2  503  501 -0.19387830645E+02 -0.33994949528E+02  0.37882407399E+03  0.38084015493E+03  0.00000000000E+00 0.  1.
</event>
<event>
 4    1  0.5548812E+002  0.2481895E+02  0.7546771E-02  0.1470839E+00
          2   -1    0    0  503    0  0.00000000000E+00  0.00000000000E+00  0.43827268680E+03  0.43827268680E+03  0.00000000000E+00 0. -1.
         -2   -1    0    0    0  501 -0.00000000000E+00 -0.00000000000E+00 -0.35854281140E+01  0.35854281140E+01  0.00000000000E+00 0.  1.
         21    1    1    2  502  501 -0.10095563932E+02  0.22672890562E+02  0.45075032177E+02  0.51456184306E+02  0.00000000000E+00 0.  1.
         21    1    1    2  503  502  0.10095563932E+02 -0.22672890562E+02  0.38961222651E+03  0.39040193061E+03  0.00000000000E+00 0. -1.
</event>
<event>
 4    1  0.5548812E+002  0.2571310E+02  0.7546771E-02  0.1460982E+00
          2   -1    0    0  503    0  0.00000000000E+00  0.00000000000E+00  0.27048110687E+02  0.27048110687E+02  0.00000000000E+00 0. -1.
         -2   -1    0    0    0  501 -0.00000000000E+00 -0.00000000000E+00 -0.51501294428E+02  0.51501294428E+02  0.00000000000E+00 0.  1.
         21    1    1    2  502  501 -0.18360569377E-01 -0.25713089938E+02 -0.40693888040E+02  0.48136845089E+02  0.00000000000E+00 0.  1.
         21    1    1    2  503  502  0.18360569377E-01  0.25713089938E+02  0.16240704298E+02  0.30412560027E+02  0.00000000000E+00 0. -1.
</event>
<event>
 4    1  0.5548812E+002  0.2437937E+02  0.7546771E-02  0.1475868E+00
          2   -1    0    0  503    0  0.00000000000E+00  0.00000000000E+00  0.10964854438E+02  0.10964854438E+02  0.00000000000E+00 0. -1.
         -2   -1    0    0    0  501 -0.00000000000E+00 -0.00000000000E+00 -0.94008453757E+02  0.94008453757E+02  0.00000000000E+00 0.  1.
         21    1    1    2  502  501 -0.21249124582E+02  0.11951083332E+02 -0.75674413283E+02  0.79504531406E+02  0.00000000000E+00 0.  1.
         21    1    1    2  503  502  0.21249124582E+02 -0.11951083332E+02 -0.73691860367E+01  0.25468776790E+02  0.00000000000E+00 0. -1.
</event>
<event>
 4    1  0.5548812E+002  0.2249639E+02  0.7546771E-02  0.1498921E+00
          2   -1    0    0  503    0  0.00000000000E+00  0.00000000000E+00  0.68788330412E+02  0.68788330412E+02  0.00000000000E+00 0.  1.
         -2   -1    0    0    0  501 -0.00000000000E+00 -0.00000000000E+00 -0.84809553886E+01  0.84809553886E+01  0.00000000000E+00 0. -1.
         21    1    1    2  502  501 -0.47890963423E+00 -0.22491288333E+02  0.44217280965E+02  0.49611040518E+02  0.00000000000E+00 0.  1.
         21    1    1    2  503  502  0.47890963423E+00  0.22491288333E+02  0.16090094058E+02  0.27658245282E+02  0.00000000000E+00 0. -1.
</event>
<event>
 4    1  0.5548812E+002  0.2572636E+02  0.7546771E-02  0.1460839E+00
          2   -1    0    0  502    0  0.00000000000E+00  0.00000000000E+00  0.35936867394E+03  0.35936867394E+03  0.00000000000E+00 0.  1.
         -2   -1    0    0    0  501 -0.00000000000E+00 -0.00000000000E+00 -0.29176926776E+01  0.29176926776E+01  0.00000000000E+00 0. -1.
         21    1    1    2  502  503 -0.16571686837E+02 -0.19678033936E+02  0.28822957872E+03  0.28937542376E+03  0.00000000000E+00 0.  1.
         21    1    1    2  503  501  0.16571686837E+02  0.19678033936E+02  0.68221402537E+02  0.72910942857E+02  0.00000000000E+00 0. -1.
</event>
<event>
 4    1  0.5548812E+002  0.2343850E+02  0.7546771E-02  0.1487064E+00
          2   -1    0    0  503    0  0.00000000000E+00  0.00000000000E+00  0.25360697889E+03  0.25360697889E+03  0.00000000000E+00 0. -1.
         -2   -1    0    0    0  501 -0.00000000000E+00 -0.00000000000E+00 -0.69533290617E+01  0.69533290617E+01  0.00000000000E+00 0.  1.
         21    1    1    2  502  501 -0.12331360844E+02  0.19932402316E+02  0.15228367526E+02  0.27951141298E+02  0.00000000000E+00 0.  1.
         21    1    1    2  503  502  0.12331360844E+02 -0.19932402316E+02  0.23142528230E+03  0.23260916665E+03  0.00000000000E+00 0. -1.
</event>
<event>
 4    1  0.5548812E+002  0.2749836E+02  0.7546771E-02  0.1442665E+00
          2   -1    0    0  502    0  0.00000000000E+00  0.00000000000E+00  0.44933380154E+03  0.44933380154E+03  0.00000000000E+00 0. -1.
         -2   -1    0    0    0  501 -0.00000000000E+00 -0.00000000000E+00 -0.36313599886E+01  0.36313599886E+01  0.00000000000E+00 0.  1.
         21    1    1    2  502  503  0.12173814118E+02  0.24656807930E+02  0.38875330174E+03  0.38972463297E+03  0.00000000000E+00 0. -1.
         21    1    1    2  503  501 -0.12173814118E+02 -0.24656807930E+02  0.56949139809E+02  0.63240528560E+02  0.00000000000E+00 0.  1.
</event>
<event>
 4    1  0.5548812E+002  0.1508609E+03  0.7546771E-02  0.1096738E+00
          2   -1    0    0  503    0  0.00000000000E+00  0.00000000000E+00  0.83094102484E+02  0.83094102484E+02  0.00000000000E+00 0.  1.
         -2   -1    0    0    0  501 -0.00000000000E+00 -0.00000000000E+00 -0.27512316226E+03  0.27512316226E+03  0.00000000000E+00 0. -1.
         21    1    1    2  502  501  0.28687159628E+02 -0.14810822377E+03 -0.84044128652E+02  0.17269167506E+03  0.00000000000E+00 0.  1.
         21    1    1    2  503  502 -0.28687159628E+02  0.14810822377E+03 -0.10798493112E+03  0.18552558968E+03  0.00000000000E+00 0. -1.
</event>
<event>
 4    1  0.5548812E+002  0.2129082E+02  0.7546771E-02  0.1515153E+00
          2   -1    0    0  503    0  0.00000000000E+00  0.00000000000E+00  0.66370035736E+03  0.66370035736E+03  0.00000000000E+00 0. -1.
         -2   -1    0    0    0  501 -0.00000000000E+00 -0.00000000000E+00 -0.94366951568E+00  0.94366951568E+00  0.00000000000E+00 0.  1.
         21    1    1    2  502  501  0.51861211840E+01  0.20649531097E+02  0.15671379826E+03  0.15815344938E+03  0.00000000000E+00 0.  1.
         21    1    1    2  503  502 -0.51861211840E+01 -0.20649531097E+02  0.50604288959E+03  0.50649057749E+03  0.00000000000E+00 0. -1.
</event>
<event>
 4    1  0.5548812E+002  0.2328861E+02  0.7546771E-02  0.1488906E+00
          2   -1    0    0  502    0  0.00000000000E+00  0.00000000000E+00  0.35499099129E+03  0.35499099129E+03  0.00000000000E+00 0.  1.
         -2   -1    0    0    0  501 -0.00000000000E+00 -0.00000000000E+00 -0.28455428176E+01  0.28455428176E+01  0.00000000000E+00 0. -1.
         21    1    1    2  502  503  0.17599219756E+02  0.15252103391E+02  0.29782738990E+03  0.29873652835E+03  0.00000000000E+00 0.  1.
         21    1    1    2  503  501 -0.17599219756E+02 -0.15252103391E+02  0.54318058571E+02  0.59100005760E+02  0.00000000000E+00 0. -1.
</event>
<event>
 4    1  0.5548812E+002  0.3324757E+02  0.7546771E-02  0.1393320E+00
          2   -1    0    0  502    0  0.00000000000E+00  0.00000000000E+00  0.41725282779E+01  0.41725282779E+01  0.00000000000E+00 0.  1.
         -2   -1    0    0    0  501 -0.00000000000E+00 -0.00000000000E+00 -0.63598366819E+03  0.63598366819E+03  0.00000000000E+00 0. -1.
         21    1    1    2  502  503 -0.28113283003E+02 -0.17749485028E+02 -0.71418930991E+02  0.78778579601E+02  0.00000000000E+00 0.  1.
         21    1    1    2  503  501  0.28113283003E+02  0.17749485028E+02 -0.56039220892E+03  0.56137761687E+03  0.00000000000E+00 0. -1.
</event>
<event>
 4    1  0.5548812E+002  0.2780073E+02  0.7546771E-02  0.1439726E+00
          2   -1    0    0  502    0  0.00000000000E+00  0.00000000000E+00  0.65202653820E+01  0.65202653820E+01  0.00000000000E+00 0.  1.
         -2   -1    0    0    0  501 -0.00000000000E+00 -0.00000000000E+00 -0.30620728465E+03  0.30620728465E+03  0.00000000000E+00 0. -1.
         21    1    1    2  502  503 -0.26957778445E+01 -0.27669723548E+02 -0.27430309368E+02  0.39055123754E+02  0.00000000000E+00 0.  1.
         21    1    1    2  503  501  0.26957778445E+01  0.27669723548E+02 -0.27225670990E+03  0.27367242628E+03  0.00000000000E+00 0. -1.
</event>
<event>
 4    1  0.5548812E+002  0.2123637E+02  0.7546771E-02  0.1515917E+00
          2   -1    0    0  502    0  0.00000000000E+00  0.00000000000E+00  0.16609984953E+03  0.16609984953E+03  0.00000000000E+00 0.  1.
         -2   -1    0    0    0  501 -0.00000000000E+00 -0.00000000000E+00 -0.41208131191E+01  0.41208131191E+01  0.00000000000E+00 0. -1.
         21    1    1    2  502  503  0.18618439372E+02 -0.10214563171E+02  0.31280670239E+02  0.37808251956E+02  0.00000000000E+00 0. -1.
         21    1    1    2  503  501 -0.18618439372E+02  0.10214563171E+02  0.13069836617E+03  0.13241241070E+03  0.00000000000E+00 0.  1.
</event>
<event>
 4    1  0.5548812E+002  0.2376581E+02  0.7546771E-02  0.1483099E+00
          2   -1    0    0  502    0  0.00000000000E+00  0.00000000000E+00  0.73045481959E+02  0.73045481959E+02  0.00000000000E+00 0. -1.
         -2   -1    0    0    0  501 -0.00000000000E+00 -0.00000000000E+00 -0.83432628294E+01  0.83432628294E+01  0.00000000000E+00 0.  1.
         21    1    1    2  502  503  0.23198301557E+02  0.51626237650E+01  0.43362771443E+02  0.49448395591E+02  0.00000000000E+00 0. -1.
         21    1    1    2  503  501 -0.23198301557E+02 -0.51626237650E+01  0.21339447687E+02  0.31940349198E+02  0.00000000000E+00 0.  1.
</event>
<event>
 4    1  0.5548812E+002  0.2243027E+02  0.7546771E-02  0.1499779E+00
          2   -1    0    0  503    0  0.00000000000E+00  0.00000000000E+00  0.18754480930E+04  0.18754480930E+04  0.00000000000E+00 0.  1.
         -2   -1    0    0    0  501 -0.00000000000E+00 -0.00000000000E+00 -0.27151523318E+00  0.27151523318E+00  0.00000000000E+00 0. -1.
         21    1    1    2  502  501  0.17179639738E+02  0.14421410727E+02  0.83497652582E+03  0.83527774769E+03  0.00000000000E+00 0.  1.
         21    1    1    2  503  502 -0.17179639738E+02 -0.14421410727E+02  0.10402000520E+04  0.10404418606E+04  0.00000000000E+00 0. -1.
</event>
<event>
 4    1  0.5548812E+002  0.2675172E+02  0.7546771E-02  0.1450118E+00
          2   -1    0    0  502    0  0.00000000000E+00  0.00000000000E+00  0.73938704027E+02  0.73938704027E+02  0.00000000000E+00 0.  1.
         -2   -1    0    0    0  501 -0.00000000000E+00 -0.00000000000E+00 -0.15680636353E+03  0.15680636353E+03  0.00000000000E+00 0. -1.
         21    1    1    2  502  503  0.97053836412E+01  0.24929096471E+02  0.70321252673E+02  0.75237842207E+02  0.00000000000E+00 0.  1.
         21    1    1    2  503  501 -0.97053836412E+01 -0.24929096471E+02 -0.15318891217E+03  0.15550722535E+03  0.00000000000E+00 0. -1.
</event>
<event>
 4    1  0.5548812E+002  0.2354384E+02  0.7546771E-02  0.1485780E+00
          2   -1    0    0  502    0  0.00000000000E+00  0.00000000000E+00  0.10988084144E+04  0.10988084144E+04  0.00000000000E+00 0. -1.
         -2   -1    0    0    0  501 -0.00000000000E+00 -0.00000000000E+00 -0.13691897752E+01  0.13691897752E+01  0.00000000000E+00 0.  1.
         21    1    1    2  502  503 -0.18977224063E+02  0.13934759461E+02  0.98587862487E+03  0.98615971097E+03  0.00000000000E+00 0. -1.
         21    1    1    2  503  501  0.18977224063E+02 -0.13934759461E+02  0.11156059973E+03  0.11401789318E+03  0.00000000000E+00 0.  1.
</event>
<event>
 4    1  0.5548812E+002  0.8460351E+02  0.7546771E-02  0.1193545E+00
          2   -1    0    0  502    0  0.00000000000E+00  0.00000000000E+00  0.19622385986E+04  0.19622385986E+04  0.00000000000E+00 0. -1.
         -2   -1    0    0    0  501 -0.00000000000E+00 -0.00000000000E+00 -0.36518753374E+01  0.36518753374E+01  0.00000000000E+00 0.  1.
         21    1    1    2  502  503 -0.15669021052E+02  0.83139855934E+02  0.94625227891E+03  0.95002690972E+03  0.00000000000E+00 0. -1.
         21    1    1    2  503  501  0.15669021052E+02 -0.83139855934E+02  0.10123344444E+04  0.10158635642E+04  0.00000000000E+00 0.  1.
</event>
<event>
 4    1  0.5548812E+002  0.3293454E+02  0.7546771E-02  0.1395696E+00
          2   -1    0    0  502    0  0.00000000000E+00  0.00000000000E+00  0.11764949005E+04  0.11764949005E+04  0.00000000000E+00 0.  1.
         -2   -1    0    0    0  501 -0.00000000000E+00 -0.00000000000E+00 -0.23203182261E+02  0.23203182261E+02  0.00000000000E+00 0. -1.
         21    1    1    2  502  503 -0.18835243582E+02 -0.27016988381E+02  0.11644568138E+04  0.11649224674E+04  0.00000000000E+00 0.  1.
         21    1    1    2  503  501  0.18835243582E+02  0.27016988381E+02 -0.11165095523E+02  0.34775615307E+02  0.00000000000E+00 0. -1.
</event>
<event>
 4    1  0.5548812E+002  0.6052686E+02  0.7546771E-02  0.1258053E+00
          2   -1    0    0  502    0  0.00000000000E+00  0.00000000000E+00  0.25229469029E+03  0.25229469029E+03  0.00000000000E+00 0.  1.
         -2   -1    0    0    0  501 -0.00000000000E+00 -0.00000000000E+00 -0.18675968980E+02  0.18675968980E+02  0.00000000000E+00 0. -1.
         21    1    1    2  502  503 -0.51357061328E+02  0.32030493158E+02  0.18071648728E+03  0.19058318136E+03  0.00000000000E+00 0.  1.
         21    1    1    2  503  501  0.51357061328E+02 -0.32030493158E+02  0.52902234029E+02  0.80387477914E+02  0.00000000000E+00 0. -1.
</event>
<event>
 4    1  0.5548812E+002  0.2387845E+02  0.7546771E-02  0.1481753E+00
          2   -1    0    0  502    0  0.00000000000E+00  0.00000000000E+00  0.57084401588E+00  0.57084401588E+00  0.00000000000E+00 0. -1.
         -2   -1    0    0    0  501 -0.00000000000E+00 -0.00000000000E+00 -0.10597441431E+04  0.10597441431E+04  0.00000000000E+00 0.  1.
         21    1    1    2  502  503 -0.23565077276E+02  0.38558152866E+01 -0.65668448877E+03  0.65711848092E+03  0.00000000000E+00 0.  1.
         21    1    1    2  503  501  0.23565077276E+02 -0.38558152866E+01 -0.40248881029E+03  0.40319650617E+03  0.00000000000E+00 0. -1.
</event>
<event>
 4    1  0.5548812E+002  0.2119856E+02  0.7546771E-02  0.1516449E+00
          2   -1    0    0  502    0  0.00000000000E+00  0.00000000000E+00  0.46217283992E+03  0.46217283992E+03  0.00000000000E+00 0.  1.
         -2   -1    0    0    0  501 -0.00000000000E+00 -0.00000000000E+00 -0.19839508652E+01  0.19839508652E+01  0.00000000000E+00 0. -1.
         21    1    1    2  502  503 -0.40996872480E+01 -0.20798348927E+02  0.39581669531E+03  0.39638394902E+03  0.00000000000E+00 0.  1.
         21    1    1    2  503  501  0.40996872480E+01  0.20798348927E+02  0.64372193748E+02  0.67772841770E+02  0.00000000000E+00 0. -1.
</event>
<event>
 4    1  0.5548812E+002  0.2096038E+02  0.7546771E-02  0.1519831E+00
          2   -1    0    0  503    0  0.00000000000E+00  0.00000000000E+00  0.54096229556E+03  0.54096229556E+03  0.00000000000E+00 0. -1.
         -2   -1    0    0    0  501 -0.00000000000E+00 -0.00000000000E+00 -0.15539157642E+01  0.15539157642E+01  0.00000000000E+00 0.  1.
         21    1    1    2  502  501  0.20099884955E+02 -0.59440848023E+01  0.82288868823E+02  0.84916402724E+02  0.00000000000E+00 0.  1.
         21    1    1    2  503  502 -0.20099884955E+02  0.59440848023E+01  0.45711951097E+03  0.45759980860E+03  0.00000000000E+00 0. -1.
</event>
<event>
 4    1  0.5548812E+002  0.2037262E+02  0.7546771E-02  0.1528414E+00
          2   -1    0    0  503    0  0.00000000000E+00  0.00000000000E+00  0.84037625405E+01  0.84037625405E+01  0.00000000000E+00 0.  1.
         -2   -1    0    0    0  501 -0.00000000000E+00 -0.00000000000E+00 -0.50853011176E+02  0.50853011176E+02  0.00000000000E+00 0. -1.
         21    1    1    2  502  501  0.61849531356E+01 -0.19411077971E+02 -0.26253783448E+02  0.33231080912E+02  0.00000000000E+00 0. -1.
         21    1    1    2  503  502 -0.61849531356E+01  0.19411077971E+02 -0.16195465188E+02  0.26025692804E+02  0.00000000000E+00 0.  1.
</event>
<event>
 4    1  0.5548812E+002  0.2535457E+02  0.7546771E-02  0.1464876E+00
          2   -1    0    0  502    0  0.00000000000E+00  0.00000000000E+00  0.36545770275E+02  0.36545770275E+02  0.00000000000E+00 0.  1.
         -2   -1    0    0    0  501 -0.00000000000E+00 -0.00000000000E+00 -0.13136727402E+03  0.13136727402E+03  0.00000000000E+00 0. -1.
         21    1    1    2  502  503 -0.13796281774E+02 -0.21272442099E+02  0.30722854898E+02  0.39834005532E+02  0.00000000000E+00 0.  1.
         21    1    1    2  503  501  0.13796281774E+02  0.21272442099E+02 -0.12554435864E+03  0.12807903876E+03  0.00000000000E+00 0. -1.
</event>
<event>
 4    1  0.5548812E+002  0.2096717E+02  0.7546771E-02  0.1519734E+00
          2   -1    0    0  503    0  0.00000000000E+00  0.00000000000E+00  0.22116682209E+01  0.22116682209E+01  0.00000000000E+00 0. -1.
         -2   -1    0    0    0  501 -0.00000000000E+00 -0.00000000000E+00 -0.33267683542E+03  0.33267683542E+03  0.00000000000E+00 0.  1.
         21    1    1    2  502  501  0.20929394643E+02  0.12580083390E+01 -0.27146421345E+03  0.27227273335E+03  0.00000000000E+00 0.  1.
         21    1    1    2  503  502 -0.20929394643E+02 -0.12580083390E+01 -0.59000953752E+02  0.62615770288E+02  0.00000000000E+00 0. -1.
</event>
<event>
 4    1  0.5548812E+002  0.2636818E+02  0.7546771E-02  0.1454060E+00
          2   -1    0    0  502    0  0.00000000000E+00  0.00000000000E+00  0.14432472474E+03  0.14432472474E+03  0.00000000000E+00 0.  1.
         -2   -1    0    0    0  501 -0.00000000000E+00 -0.00000000000E+00 -0.15367037065E+02  0.15367037065E+02  0.00000000000E+00 0. -1.
         21    1    1    2  502  503  0.25737261943E+02 -0.57336129597E+01  0.13063566544E+03  0.13327024445E+03  0.00000000000E+00 0.  1.
         21    1    1    2  503  501 -0.25737261943E+02  0.57336129597E+01 -0.16779777692E+01  0.26421517354E+02  0.00000000000E+00 0. -1.
</event>
<event>
 4    1  0.5548812E+002  0.4588759E+02  0.7546771E-02  0.1317060E+00
          2   -1    0    0  502    0  0.00000000000E+00  0.00000000000E+00  0.53809779462E+03  0.53809779462E+03  0.00000000000E+00 0.  1.
         -2   -1    0    0    0  501 -0.00000000000E+00 -0.00000000000E+00 -0.51830838178E+01  0.51830838178E+01  0.00000000000E+00 0. -1.
         21    1    1    2  502  503  0.39664147657E+02 -0.23074367018E+02  0.40091531561E+03  0.40353285036E+03  0.00000000000E+00 0.  1.
         21    1    1    2  503  501 -0.39664147657E+02  0.23074367018E+02  0.13199939519E+03  0.13974802808E+03  0.00000000000E+00 0. -1.
</event>
<event>
 4    1  0.5548812E+002  0.3994824E+02  0.7546771E-02  0.1348789E+00
          2   -1    0    0  503    0  0.00000000000E+00  0.00000000000E+00  0.40859761149E+03  0.40859761149E+03  0.00000000000E+00 0. -1.
         -2   -1    0    0    0  501 -0.00000000000E+00 -0.00000000000E+00 -0.39464548282E+01  0.39464548282E+01  0.00000000000E+00 0.  1.
         21    1    1    2  502  501 -0.18530146268E+02 -0.35390613151E+02  0.18136522718E+03  0.18571270137E+03  0.00000000000E+00 0. -1.
         21    1    1    2  503  502  0.18530146268E+02  0.35390613151E+02  0.22328592948E+03  0.22683136495E+03  0.00000000000E+00 0.  1.
</event>
<event>
 4    1  0.5548812E+002  0.2154937E+02  0.7546771E-02  0.1511564E+00
          2   -1    0    0  502    0  0.00000000000E+00  0.00000000000E+00  0.39254277878E+03  0.39254277878E+03  0.00000000000E+00 0.  1.
         -2   -1    0    0    0  501 -0.00000000000E+00 -0.00000000000E+00 -0.13093632940E+01  0.13093632940E+01  0.00000000000E+00 0. -1.
         21    1    1    2  502  503 -0.16531197115E+02 -0.13823707847E+02  0.25679474757E+03  0.25769733750E+03  0.00000000000E+00 0. -1.
         21    1    1    2  503  501  0.16531197115E+02  0.13823707847E+02  0.13443866791E+03  0.13615480457E+03  0.00000000000E+00 0.  1.
</event>
<event>
 4    1  0.5548812E+002  0.2718077E+02  0.7546771E-02  0.1445801E+00
          2   -1    0    0  503    0  0.00000000000E+00  0.00000000000E+00  0.60500736083E+01  0.60500736083E+01  0.00000000000E+00 0. -1.
         -2   -1    0    0    0  501 -0.00000000000E+00 -0.00000000000E+00 -0.14561220271E+03  0.14561220271E+03  0.00000000000E+00 0.  1.
         21    1    1    2  502  501  0.41390599031E+01 -0.26863775597E+02 -0.10024407235E+03  0.10386370058E+03  0.00000000000E+00 0.  1.
         21    1    1    2  503  502 -0.41390599031E+01  0.26863775597E+02 -0.39318056752E+02  0.47798575742E+02  0.00000000000E+00 0. -1.
</event>
<event>
 4    1  0.5548812E+002  0.3717650E+02  0.7546771E-02  0.1365876E+00
          2   -1    0    0  502    0  0.00000000000E+00  0.00000000000E+00  0.31085375853E+03  0.31085375853E+03  0.00000000000E+00 0. -1.
         -2   -1    0    0    0  501 -0.00000000000E+00 -0.00000000000E+00 -0.47367645737E+01  0.47367645737E+01  0.00000000000E+00 0.  1.
         21    1    1    2  502  503  0.20884367881E+02  0.30756066382E+02  0.19214580685E+03  0.19570923211E+03  0.00000000000E+00 0. -1.
         21    1    1    2  503  501 -0.20884367881E+02 -0.30756066382E+02  0.11397118711E+03  0.11988129100E+03  0.00000000000E+00 0.  1.
</event>
<event>
 4    1  0.5548812E+002  0.2155886E+02  0.7546771E-02  0.1511433E+00
          2   -1    0    0  502    0  0.00000000000E+00  0.00000000000E+00  0.11386101450E+03  0.11386101450E+03  0.00000000000E+00 0. -1.
         -2   -1    0    0    0  501 -0.00000000000E+00 -0.00000000000E+00 -0.14139437271E+02  0.14139437271E+02  0.00000000000E+00 0.  1.
         21    1    1    2  502  503  0.12478137299E+02  0.17580684327E+02  0.10383774679E+03  0.10605216655E+03  0.00000000000E+00 0. -1.
         21    1    1    2  503  501 -0.12478137299E+02 -0.17580684327E+02 -0.41161695675E+01  0.21948285212E+02  0.00000000000E+00 0.  1.
</event>
<event>
 4    1  0.5548812E+002  0.2535155E+02  0.7546771E-02  0.1464909E+00
          2   -1    0    0  502    0  0.00000000000E+00  0.00000000000E+00  0.25160344956E+03  0.25160344956E+03  0.00000000000E+00 0. -1.
         -2   -1    0    0    0  501 -0.00000000000E+00 -0.00000000000E+00 -0.26020334763E+01  0.26020334763E+01  0.00000000000E+00 0.  1.
         21    1    1    2  502  503 -0.29313069109E+00 -0.25349856083E+02  0.10730741855E+03  0.11026143118E+03  0.00000000000E+00 0.  1.
         21    1    1    2  503  501  0.29313069109E+00  0.25349856083E+02  0.14169399754E+03  0.14394405186E+03  0.00000000000E+00 0. -1.
</event>
<event>
 4    1  0.5548812E+002  0.2352941E+02  0.7546771E-02  0.1485955E+00
          2   -1    0    0  502    0  0.00000000000E+00  0.00000000000E+00  0.16625417408E+03  0.16625417408E+03  0.00000000000E+00 0.  1.
         -2   -1    0    0    0  501 -0.00000000000E+00 -0.00000000000E+00 -0.16340820703E+02  0.16340820703E+02  0.00000000000E+00 0. -1.
         21    1    1    2  502  503 -0.23406054686E+02  0.24061636210E+01  0.15642215694E+03  0.15818193387E+03  0.00000000000E+00 0.  1.
         21    1    1    2  503  501  0.23406054686E+02 -0.24061636210E+01 -0.65088035671E+01  0.24413060914E+02  0.00000000000E+00 0. -1.
</event>
<event>
 4    1  0.5548812E+002  0.3299184E+02  0.7546771E-02  0.1395259E+00
          2   -1    0    0  502    0  0.00000000000E+00  0.00000000000E+00  0.42328176742E+03  0.42328176742E+03  0.00000000000E+00 0. -1.
         -2   -1    0    0    0  501 -0.00000000000E+00 -0.00000000000E+00 -0.12204542788E+02  0.12204542788E+02  0.00000000000E+00 0.  1.
         21    1    1    2  502  503 -0.12140833617E+02  0.30676726513E+02  0.39898735340E+03  0.40034905965E+03  0.00000000000E+00 0. -1.
         21    1    1    2  503  501  0.12140833617E+02 -0.30676726513E+02  0.12089871234E+02  0.35137250560E+02  0.00000000000E+00 0.  1.
</event>
<event>
 4    1  0.5548812E+002  0.2455695E+02  0.7546771E-02  0.1473821E+00
          2   -1    0    0  502    0  0.00000000000E+00  0.00000000000E+00  0.14552596985E+03  0.14552596985E+03  0.00000000000E+00 0. -1.
         -2   -1    0    0    0  501 -0.00000000000E+00 -0.00000000000E+00 -0.61597163482E+01  0.61597163482E+01  0.00000000000E+00 0.  1.
         21    1    1    2  502  503 -0.19121324295E+02 -0.15408400056E+02  0.11307022858E+03  0.11570618145E+03  0.00000000000E+00 0. -1.
         21    1    1    2  503  501  0.19121324295E+02  0.15408400056E+02  0.26296024922E+02  0.35979504746E+02  0.00000000000E+00 0.  1.
</event>
<event>
 4    1  0.5548812E+002  0.2110417E+02  0.7546771E-02  0.1517783E+00
          2   -1    0    0  502    0  0.00000000000E+00  0.00000000000E+00  0.79113084419E+02  0.79113084419E+02  0.00000000000E+00 0. -1.
         -2   -1    0    0    0  501 -0.00000000000E+00 -0.00000000000E+00 -0.74766713754E+01  0.74766713754E+01  0.00000000000E+00 0.  1.
         21    1    1    2  502  503 -0.20067412131E+02  0.65333572450E+01  0.14299893923E+02  0.25492601921E+02  0.00000000000E+00 0.  1.
         21    1    1    2  503  501  0.20067412131E+02 -0.65333572450E+01  0.57336519121E+02  0.61097153874E+02  0.00000000000E+00 0. -1.
</event>
<event>
 4    1  0.5548812E+002  0.2907112E+02  0.7546771E-02  0.1427844E+00
          2   -1    0    0  503    0  0.00000000000E+00  0.00000000000E+00  0.20612454639E+04  0.20612454639E+04  0.00000000000E+00 0. -1.
         -2   -1    0    0    0  501 -0.00000000000E+00 -0.00000000000E+00 -0.13023302407E+01  0.13023302407E+01  0.00000000000E+00 0.  1.
         21    1    1    2  502  501 -0.35376902163E+01  0.28855067262E+02  0.17633312577E+03  0.17871346173E+03  0.00000000000E+00 0.  1.
         21    1    1    2  503  502  0.35376902163E+01 -0.28855067262E+02  0.18836100079E+04  0.18838343324E+04  0.00000000000E+00 0. -1.
</event>
<event>
 4    1  0.5548812E+002  0.2303692E+02  0.7546771E-02  0.1492035E+00
          2   -1    0    0  503    0  0.00000000000E+00  0.00000000000E+00  0.40184956382E+03  0.40184956382E+03  0.00000000000E+00 0.  1.
         -2   -1    0    0    0  501 -0.00000000000E+00 -0.00000000000E+00 -0.18162812085E+01  0.18162812085E+01  0.00000000000E+00 0. -1.
         21    1    1    2  502  501  0.38557516423E+01  0.22711957003E+02  0.94582114011E+02  0.97347193603E+02  0.00000000000E+00 0. -1.
         21    1    1    2  503  502 -0.38557516423E+01 -0.22711957003E+02  0.30545116860E+03  0.30631865142E+03  0.00000000000E+00 0.  1.
</event>
<event>
 4    1  0.5548812E+002  0.2054152E+02  0.7546771E-02  0.1525912E+00
          2   -1    0    0  503    0  0.00000000000E+00  0.00000000000E+00  0.28172985746E+03  0.28172985746E+03  0.00000000000E+00 0. -1.
         -2   -1    0    0    0  501 -0.00000000000E+00 -0.00000000000E+00 -0.28789392813E+01  0.28789392813E+01  0.00000000000E+00 0.  1.
         21    1    1    2  502  501 -0.20528729360E+02  0.72486532936E+00  0.40858256988E+02  0.45731294788E+02  0.00000000000E+00 0.  1.
         21    1    1    2  503  502  0.20528729360E+02 -0.72486532936E+00  0.23799266119E+03  0.23887750195E+03  0.00000000000E+00 0. -1.
</event>
<event>
 4    1  0.5548812E+002  0.2375924E+02  0.7546771E-02  0.1483178E+00
          2   -1    0    0  502    0  0.00000000000E+00  0.00000000000E+00  0.36157779226E+01  0.36157779226E+01  0.00000000000E+00 0.  1.
         -2   -1    0    0    0  501 -0.00000000000E+00 -0.00000000000E+00 -0.19927799490E+03  0.19927799490E+03  0.00000000000E+00 0. -1.
         21    1    1    2  502  503 -0.19391653341E+02 -0.13728266052E+02 -0.50621437899E+02  0.55919866623E+02  0.00000000000E+00 0.  1.
         21    1    1    2  503  501  0.19391653341E+02  0.13728266052E+02 -0.14504077908E+03  0.14697390620E+03  0.00000000000E+00 0. -1.
</event>
<event>
 4    1  0.5548812E+002  0.2066369E+02  0.7546771E-02  0.1524121E+00
          2   -1    0    0  503    0  0.00000000000E+00  0.00000000000E+00  0.14111719636E+02  0.14111719636E+02  0.00000000000E+00 0. -1.
         -2   -1    0    0    0  501 -0.00000000000E+00 -0.00000000000E+00 -0.52903700064E+02  0.52903700064E+02  0.00000000000E+00 0.  1.
         21    1    1    2  502  501 -0.18772602869E+01  0.20578235990E+02 -0.41318873031E+02  0.46197804831E+02  0.00000000000E+00 0.  1.
         21    1    1    2  503  502  0.18772602869E+01 -0.20578235990E+02  0.25268926035E+01  0.20817614870E+02  0.00000000000E+00 0. -1.
</event>
<event>
 4    1  0.5548812E+002  0.2867550E+02  0.7546771E-02  0.1431466E+00
          2   -1    0    0  502    0  0.00000000000E+00  0.00000000000E+00  0.28974098241E+03  0.28974098241E+03  0.00000000000E+00 0.  1.
         -2   -1    0    0    0  501 -0.00000000000E+00 -0.00000000000E+00 -0.73028183508E+01  0.73028183508E+01  0.00000000000E+00 0. -1.
         21    1    1    2  502  503  0.20449022870E+02  0.20102781184E+02  0.25734983441E+03  0.25894250640E+03  0.00000000000E+00 0.  1.
         21    1    1    2  503  501 -0.20449022870E+02 -0.20102781184E+02  0.25088329647E+02  0.38101294363E+02  0.00000000000E+00 0. -1.
</event>
<event>
 4    1  0.5548812E+002  0.2816656E+02  0.7546771E-02  0.1436229E+00
          2   -1    0    0  503    0  0.00000000000E+00  0.00000000000E+00  0.51365072740E+03  0.51365072740E+03  0.00000000000E+00 0. -1.
         -2   -1    0    0    0  501 -0.00000000000E+00 -0.00000000000E+00 -0.16488914435E+01  0.16488914435E+01  0.00000000000E+00 0.  1.
         21    1    1    2  502  501 -0.19251707347E+02 -0.20560323734E+02  0.19118543573E+03  0.19324912932E+03  0.00000000000E+00 0.  1.
         21    1    1    2  503  502  0.19251707347E+02  0.20560323734E+02  0.32081640023E+03  0.32205048952E+03  0.00000000000E+00 0. -1.
</event>
<event>
 4    1  0.5548812E+002  0.2311904E+02  0.7546771E-02  0.1491009E+00
          2   -1    0    0  503    0  0.00000000000E+00  0.00000000000E+00  0.58313025045E+03  0.58313025045E+03  0.00000000000E+00 0. -1.
         -2   -1    0    0    0  501 -0.00000000000E+00 -0.00000000000E+00 -0.56817626948E+01  0.56817626948E+01  0.00000000000E+00 0.  1.
         21    1    1    2  502  501 -0.13054910996E+00  0.23118672805E+02  0.19108937937E+02  0.29994025812E+02  0.00000000000E+00 0.  1.
         21    1    1    2  503  502  0.13054910996E+00 -0.23118672805E+02  0.55833954981E+03  0.55881798733E+03  0.00000000000E+00 0. -1.
</event>
<event>
 4    1  0.5548812E+002  0.2930989E+02  0.7546771E-02  0.1425690E+00
          2   -1    0    0  502    0  0.00000000000E+00  0.00000000000E+00  0.64338758760E+02  0.64338758760E+02  0.00000000000E+00 0. -1.
         -2   -1    0    0    0  501 -0.00000000000E+00 -0.00000000000E+00 -0.13403575141E+02  0.13403575141E+02  0.00000000000E+00 0.  1.
         21    1    1    2  502  503 -0.23102131958E+02 -0.18037775785E+02  0.27871993573E+02  0.40446481701E+02  0.00000000000E+00 0. -1.
         21    1    1    2  503  501  0.23102131958E+02  0.18037775785E+02  0.23063190046E+02  0.37295852200E+02  0.00000000000E+00 0.  1.
</event>
<event>
 4    1  0.5548812E+002  0.2187795E+02  0.7546771E-02  0.1507090E+00
          2   -1    0    0  502    0  0.00000000000E+00  0.00000000000E+00  0.44493588546E+03  0.44493588546E+03  0.00000000000E+00 0.  1.
         -2   -1    0    0    0  501 -0.00000000000E+00 -0.00000000000E+00 -0.37075788594E+01  0.37075788594E+01  0.00000000000E+00 0. -1.
         21    1    1    2  502  503  0.14425941291E+02  0.16448007534E+02  0.40961078089E+03  0.41019463253E+03  0.00000000000E+00 0.  1.
         21    1    1    2  503  501 -0.14425941291E+02 -0.16448007534E+02  0.31617525707E+02  0.38448831787E+02  0.00000000000E+00 0. -1.
</event>
<event>
 4    1  0.5548812E+002  0.3060780E+02  0.7546771E-02  0.1414387E+00
          2   -1    0    0  503    0  0.00000000000E+00  0.00000000000E+00  0.43145691540E+01  0.43145691540E+01  0.00000000000E+00 0. -1.
         -2   -1    0    0    0  501 -0.00000000000E+00 -0.00000000000E+00 -0.21729518943E+03  0.21729518943E+03  0.00000000000E+00 0.  1.
         21    1    1    2  502  501  0.12104410538E+02  0.28112638851E+02 -0.10951348282E+03  0.11371033435E+03  0.00000000000E+00 0. -1.
         21    1    1    2  503  502 -0.12104410538E+02 -0.28112638851E+02 -0.10346713745E+03  0.10789942423E+03  0.00000000000E+00 0.  1.
</event>
<event>
 4    1  0.5548812E+002  0.3815762E+02  0.7546771E-02  0.1359634E+00
          2   -1    0    0  503    0  0.00000000000E+00  0.00000000000E+00  0.12906822386E+04  0.12906822386E+04  0.00000000000E+00 0.  1.
         -2   -1    0    0    0  501 -0.00000000000E+00 -0.00000000000E+00 -0.31033511144E+01  0.31033511144E+01  0.00000000000E+00 0. -1.
         21    1    1    2  502  501 -0.31534683315E+02  0.21484121502E+02  0.12769488066E+03  0.13327410205E+03  0.00000000000E+00 0. -1.
         21    1    1    2  503  502  0.31534683315E+02 -0.21484121502E+02  0.11598840068E+04  0.11605114877E+04  0.00000000000E+00 0.  1.
</event>
<event>
 4    1  0.5548812E+002  0.2477917E+02  0.7546771E-02  0.1471289E+00
          2   -1    0    0  502    0  0.00000000000E+00  0.00000000000E+00  0.17863209518E+03  0.17863209518E+03  0.00000000000E+00 0.  1.
         -2   -1    0    0    0  501 -0.00000000000E+00 -0.00000000000E+00 -0.59637723847E+01  0.59637723847E+01  0.00000000000E+00 0. -1.
         21    1    1    2  502  503 -0.24664813449E+02 -0.23778871661E+01  0.14640877735E+03  0.14849086657E+03  0.00000000000E+00 0.  1.
         21    1    1    2  503  501  0.24664813449E+02  0.23778871661E+01  0.26259545449E+02  0.36105000997E+02  0.00000000000E+00 0. -1.
</event>
<event>
 4    1  0.5548812E+002  0.2312835E+02  0.7546771E-02  0.1490893E+00
          2   -1    0    0  503    0  0.00000000000E+00  0.00000000000E+00  0.49714673151E+03  0.49714673151E+03  0.00000000000E+00 0. -1.
         -2   -1    0    0    0  501 -0.00000000000E+00 -0.00000000000E+00 -0.33698405516E+01  0.33698405516E+01  0.00000000000E+00 0.  1.
         21    1    1    2  502  501 -0.67454206795E+01  0.22122832950E+02  0.40413575470E+02  0.46563693154E+02  0.00000000000E+00 0.  1.
         21    1    1    2  503  502  0.67454206795E+01 -0.22122832950E+02  0.45336331549E+03  0.45395287891E+03  0.00000000000E+00 0. -1.
</event>
<event>
 4    1  0.5548812E+002  0.3841903E+02  0.7546771E-02  0.1358008E+00
          2   -1    0    0  503    0  0.00000000000E+00  0.00000000000E+00  0.12261042879E+03  0.12261042879E+03  0.00000000000E+00 0.  1.
         -2   -1    0    0    0  501 -0.00000000000E+00 -0.00000000000E+00 -0.37043163197E+02  0.37043163197E+02  0.00000000000E+00 0. -1.
         21    1    1    2  502  501 -0.35861160718E+02 -0.13784026618E+02 -0.22801715383E+02  0.44675949483E+02  0.00000000000E+00 0. -1.
         21    1    1    2  503  502  0.35861160718E+02  0.13784026618E+02  0.10836898097E+03  0.11497764250E+03  0.00000000000E+00 0.  1.
</event>
<event>
 4    1  0.5548812E+002  0.2220780E+02  0.7546771E-02  0.1502693E+00
          2   -1    0    0  503    0  0.00000000000E+00  0.00000000000E+00  0.24306963140E+03  0.24306963140E+03  0.00000000000E+00 0.  1.
         -2   -1    0    0    0  501 -0.00000000000E+00 -0.00000000000E+00 -0.21451969889E+01  0.21451969889E+01  0.00000000000E+00 0. -1.
         21    1    1    2  502  501  0.15775900277E+02  0.15630334603E+02  0.14899835097E+03  0.15064426634E+03  0.00000000000E+00 0.  1.
         21    1    1    2  503  502 -0.15775900277E+02 -0.15630334603E+02  0.91926083439E+02  0.94570562046E+02  0.00000000000E+00 0. -1.
</event>
<event>
 4    1  0.5548812E+002  0.6684302E+02  0.7546771E-02  0.1238202E+00
          2   -1    0    0  503    0  0.00000000000E+00  0.00000000000E+00  0.59400575003E+03  0.59400575003E+03  0.00000000000E+00 0. -1.
         -2   -1    0    0    0  501 -0.00000000000E+00 -0.00000000000E+00 -0.77001978782E+01  0.77001978782E+01  0.00000000000E+00 0.  1.
         21    1    1    2  502  501  0.10177705334E+02 -0.66063637003E+02  0.33894625087E+03  0.34547438516E+03  0.00000000000E+00 0. -1.
         21    1    1    2  503  502 -0.10177705334E+02  0.66063637003E+02  0.24735930128E+03  0.25623156275E+03  0.00000000000E+00 0.  1.
</event>
<event>
 4    1  0.5548812E+002  0.3652712E+02  0.7546771E-02  0.1370134E+00
          2   -1    0    0  502    0  0.00000000000E+00  0.00000000000E+00  0.82237559764E+02  0.82237559764E+02  0.00000000000E+00 0. -1.
         -2   -1    0    0    0  501 -0.00000000000E+00 -0.00000000000E+00 -0.17195199881E+02  0.17195199881E+02  0.00000000000E+00 0.  1.
         21    1    1    2  502  503  0.25693024245E+02  0.25963412253E+02  0.44336028714E+02  0.57444875427E+02  0.00000000000E+00 0. -1.
         21    1    1    2  503  501 -0.25693024245E+02 -0.25963412253E+02  0.20706331169E+02  0.41987884219E+02  0.00000000000E+00 0.  1.
</event>
<event>
 4    1  0.5548812E+002  0.3689718E+02  0.7546771E-02  0.1367695E+00
          2   -1    0    0  503    0  0.00000000000E+00  0.00000000000E+00  0.89056187304E+03  0.89056187304E+03  0.00000000000E+00 0. -1.
         -2   -1    0    0    0  501 -0.00000000000E+00 -0.00000000000E+00 -0.31950826557E+01  0.31950826557E+01  0.00000000000E+00 0.  1.
         21    1    1    2  502  501  0.53251746226E+01 -0.36510883597E+02  0.12095607363E+03  0.12645858553E+03  0.00000000000E+00 0.  1.
         21    1    1    2  503  502 -0.53251746226E+01  0.36510883597E+02  0.76641071676E+03  0.76729837017E+03  0.00000000000E+00 0. -1.
</event>
<event>
 4    1  0.5548812E+002  0.3307674E+02  0.7546771E-02  0.1394613E+00
          2   -1    0    0  502    0  0.00000000000E+00  0.00000000000E+00  0.11492804940E+04  0.11492804940E+04  0.00000000000E+00 0. -1.
         -2   -1    0    0    0  501 -0.00000000000E+00 -0.00000000000E+00 -0.19728304020E+01  0.19728304020E+01  0.00000000000E+00 0.  1.
         21    1    1    2  502  503 -0.32941329489E+02  0.29898704353E+01  0.15957687517E+03  0.16296886083E+03  0.00000000000E+00 0.  1.
         21    1    1    2  503  501  0.32941329489E+02 -0.29898704353E+01  0.98773078838E+03  0.98828446352E+03  0.00000000000E+00 0. -1.
</event>
<event>
 4    1  0.5548812E+002  0.2716786E+02  0.7546771E-02  0.1445929E+00
          2   -1    0    0  502    0  0.00000000000E+00  0.00000000000E+00  0.12428998075E+04  0.12428998075E+04  0.00000000000E+00 0. -1.
         -2   -1    0    0    0  501 -0.00000000000E+00 -0.00000000000E+00 -0.12572804877E+01  0.12572804877E+01  0.00000000000E+00 0.  1.
         21    1    1    2  502  503  0.24464484317E+02 -0.11814462478E+02  0.10727061101E+04  0.10730500879E+04  0.00000000000E+00 0. -1.
         21    1    1    2  503  501 -0.24464484317E+02  0.11814462478E+02  0.16893641689E+03  0.17110700006E+03  0.00000000000E+00 0.  1.
</event>
<event>
 4    1  0.5548812E+002  0.2854973E+02  0.7546771E-02  0.1432632E+00
          2   -1    0    0  502    0  0.00000000000E+00  0.00000000000E+00  0.59040012349E+02  0.59040012349E+02  0.00000000000E+00 0.  1.
         -2   -1    0    0    0  501 -0.00000000000E+00 -0.00000000000E+00 -0.13894095611E+02  0.13894095611E+02  0.00000000000E+00 0. -1.
         21    1    1    2  502  503  0.20484305410E+02 -0.19886693277E+02  0.19663866055E+02  0.34666337647E+02  0.00000000000E+00 0.  1.
         21    1    1    2  503  501 -0.20484305410E+02  0.19886693277E+02  0.25482050683E+02  0.38267770312E+02  0.00000000000E+00 0. -1.
</event>
<event>
 4    1  0.5548812E+002  0.2118907E+02  0.7546771E-02  0.1516582E+00
          2   -1    0    0  503    0  0.00000000000E+00  0.00000000000E+00  0.16020043580E+04  0.16020043580E+04  0.00000000000E+00 0.  1.
         -2   -1    0    0    0  501 -0.00000000000E+00 -0.00000000000E+00 -0.12058557841E+01  0.12058557841E+01  0.00000000000E+00 0. -1.
         21    1    1    2  502  501 -0.57443414161E+01 -0.20395568352E+02  0.98097694191E+02  0.10036002328E+03  0.00000000000E+00 0. -1.
         21    1    1    2  503  502  0.57443414161E+01  0.20395568352E+02  0.15027008080E+04  0.15028501905E+04  0.00000000000E+00 0.  1.
</event>
<event>
 4    1  0.5548812E+002  0.3034762E+02  0.7546771E-02  0.1416599E+00
          2   -1    0    0  502    0  0.00000000000E+00  0.00000000000E+00  0.11172990403E+04  0.11172990403E+04  0.00000000000E+00 0. -1.
         -2   -1    0    0    0  501 -0.00000000000E+00 -0.00000000000E+00 -0.83980605118E+00  0.83980605118E+00  0.00000000000E+00 0.  1.
         21    1    1    2  502  503  0.29928850131E+02 -0.50241367295E+01  0.48223690814E+03  0.48319086662E+03  0.00000000000E+00 0. -1.
         21    1    1    2  503  501 -0.29928850131E+02  0.50241367295E+01  0.63422232611E+03  0.63494797973E+03  0.00000000000E+00 0.  1.
</event>
<event>
 4    1  0.5548812E+002  0.2198579E+02  0.7546771E-02  0.1505642E+00
          2   -1    0    0  502    0  0.00000000000E+00  0.00000000000E+00  0.25229712729E+03  0.25229712729E+03  0.00000000000E+00 0. -1.
         -2   -1    0    0    0  501 -0.00000000000E+00 -0.00000000000E+00 -0.19423696545E+01  0.19423696545E+01  0.00000000000E+00 0.  1.
         21    1    1    2  502  503 -0.93244197615E+01  0.19910555977E+02  0.14001808197E+03  0.14173368803E+03  0.00000000000E+00 0. -1.
         21    1    1    2  503  501  0.93244197615E+01 -0.19910555977E+02  0.11033667566E+03  0.11250580892E+03  0.00000000000E+00 0.  1.
</event>
<event>
 4    1  0.5548812E+002  0.2652033E+02  0.7546771E-02  0.1452487E+00
          2   -1    0    0  502    0  0.00000000000E+00  0.00000000000E+00  0.12590668206E+01  0.12590668206E+01  0.00000000000E+00 0. -1.
         -2   -1    0    0    0  501 -0.00000000000E+00 -0.00000000000E+00 -0.76508245592E+03  0.76508245592E+03  0.00000000000E+00 0.  1.
         21    1    1    2  502  503  0.22636927942E+02  0.13816559810E+02 -0.18285862831E+03  0.18477176672E+03  0.00000000000E+00 0. -1.
         21    1    1    2  503  501 -0.22636927942E+02 -0.13816559810E+02 -0.58096476079E+03  0.58156975602E+03  0.00000000000E+00 0.  1.
</event>
<event>
 4    1  0.5548812E+002  0.2242765E+02  0.7546771E-02  0.1499813E+00
          2   -1    0    0  503    0  0.00000000000E+00  0.00000000000E+00  0.34825532060E+03  0.34825532060E+03  0.00000000000E+00 0. -1.
         -2   -1    0    0    0  501 -0.00000000000E+00 -0.00000000000E+00 -0.18245335862E+01  0.18245335862E+01  0.00000000000E+00 0.  1.
         21    1    1    2  502  501 -0.22150802892E+02  0.35130408282E+01  0.93312432682E+02  0.95969837020E+02  0.00000000000E+00 0.  1.
         21    1    1    2  503  502  0.22150802892E+02 -0.35130408282E+01  0.25311835433E+03  0.25411001717E+03  0.00000000000E+00 0. -1.
</event>
<event>
 4    1  0.5548812E+002  0.2152494E+02  0.7546771E-02  0.1511900E+00
          2   -1    0    0  502    0  0.00000000000E+00  0.00000000000E+00  0.68605645179E+03  0.68605645179E+03  0.00000000000E+00 0.  1.
         -2   -1    0    0    0  501 -0.00000000000E+00 -0.00000000000E+00 -0.88589309255E+00  0.88589309255E+00  0.00000000000E+00 0. -1.
         21    1    1    2  502  503  0.21308726473E+02  0.30432259465E+01  0.51003248937E+03  0.51048649665E+03  0.00000000000E+00 0.  1.
         21    1    1    2  503  501 -0.21308726473E+02 -0.30432259465E+01  0.17513806933E+03  0.17645584823E+03  0.00000000000E+00 0. -1.
</event>
<event>
 4    1  0.5548812E+002  0.2391806E+02  0.7546771E-02  0.1481281E+00
          2   -1    0    0  503    0  0.00000000000E+00  0.00000000000E+00  0.30793113694E+01  0.30793113694E+01  0.00000000000E+00 0.  1.
         -2   -1    0    0    0  501 -0.00000000000E+00 -0.00000000000E+00 -0.18826606601E+03  0.18826606601E+03  0.00000000000E+00 0. -1.
         21    1    1    2  502  501 -0.91965317363E+01  0.22079343407E+02 -0.10358806295E+03  0.10631350050E+03  0.00000000000E+00 0.  1.
         21    1    1    2  503  502  0.91965317363E+01 -0.22079343407E+02 -0.81598691685E+02  0.85031876881E+02  0.00000000000E+00 0. -1.
</event>
<event>
 4    1  0.5548812E+002  0.3430066E+02  0.7546771E-02  0.1385548E+00
          2   -1    0    0  502    0  0.00000000000E+00  0.00000000000E+00  0.80601575390E+02  0.80601575390E+02  0.00000000000E+00 0. -1.
         -2   -1    0    0    0  501 -0.00000000000E+00 -0.00000000000E+00 -0.22495511148E+02  0.22495511148E+02  0.00000000000E+00 0.  1.
         21    1    1    2  502  503 -0.26149865776E+02 -0.22197286637E+02  0.59598247397E+02  0.68763988445E+02  0.00000000000E+00 0. -1.
         21    1    1    2  503  501  0.26149865776E+02  0.22197286637E+02 -0.14921831552E+01  0.34333098093E+02  0.00000000000E+00 0.  1.
</event>
<event>
 4    1  0.5548812E+002  0.2478816E+02  0.7546771E-02  0.1471187E+00
          2   -1    0    0  503    0  0.00000000000E+00  0.00000000000E+00  0.19523609173E+01  0.19523609173E+01  0.00000000000E+00 0.  1.
         -2   -1    0    0    0  501 -0.00000000000E+00 -0.00000000000E+00 -0.45357281521E+03  0.45357281521E+03  0.00000000000E+00 0. -1.
         21    1    1    2  502  501 -0.57952739269E-01 -0.24788095889E+02 -0.35182788285E+03  0.35270003148E+03  0.00000000000E+00 0. -1.
         21    1    1    2  503  502  0.57952739269E-01  0.24788095889E+02 -0.99792571447E+02  0.10282514465E+03  0.00000000000E+00 0.  1.
</event>
<event>
 4    1  0.5548812E+002  0.2040160E+02  0.7546771E-02  0.1527982E+00
          2   -1    0    0  502    0  0.00000000000E+00  0.00000000000E+00  0.31466396627E+02  0.31466396627E+02  0.00000000000E+00 0.  1.
         -2   -1    0    0    0  501 -0.00000000000E+00 -0.00000000000E+00 -0.49042157206E+02  0.49042157206E+02  0.00000000000E+00 0. -1.
         21    1    1    2  502  503 -0.20060780940E+02 -0.37135542305E+01  0.25612000875E+02  0.32744465270E+02  0.00000000000E+00 0.  1.
         21    1    1    2  503  501  0.20060780940E+02  0.37135542305E+01 -0.43187761454E+02  0.47764088564E+02  0.00000000000E+00 0. -1.
</event>
<event>
 4    1  0.5548812E+002  0.2879631E+02  0.7546771E-02  0.1430353E+00
          2   -1    0    0  502    0  0.00000000000E+00  0.00000000000E+00  0.21614999450E+03  0.21614999450E+03  0.00000000000E+00 0.  1.
         -2   -1    0    0    0  501 -0.00000000000E+00 -0.00000000000E+00 -0.14555996332E+02  0.14555996332E+02  0.00000000000E+00 0. -1.
         21    1    1    2  502  503 -0.16034221161E+02 -0.23919267429E+02  0.19978853959E+03  0.20185313511E+03  0.00000000000E+00 0.  1.
         21    1    1    2  503  501  0.16034221161E+02  0.23919267429E+02  0.18054585775E+01  0.28852855721E+02  0.00000000000E+00 0. -1.
</event>
<event>
 4    1  0.5548812E+002  0.5530868E+02  0.7546771E-02  0.1276663E+00
          2   -1    0    0  503    0  0.00000000000E+00  0.00000000000E+00  0.39181502394E+02  0.39181502394E+02  0.00000000000E+00 0.  1.
         -2   -1    0    0    0  501 -0.00000000000E+00 -0.00000000000E+00 -0.15154600304E+03  0.15154600304E+03  0.00000000000E+00 0. -1.
         21    1    1    2  502  501 -0.42280191579E+02 -0.35657193761E+02 -0.12258292985E+03  0.13448280469E+03  0.00000000000E+00 0. -1.
         21    1    1    2  503  502  0.42280191579E+02  0.35657193761E+02  0.10218429199E+02  0.56244700747E+02  0.00000000000E+00 0.  1.
</event>
<event>
 4    1  0.5548812E+002  0.2218078E+02  0.7546771E-02  0.1503050E+00
          2   -1    0    0  503    0  0.00000000000E+00  0.00000000000E+00  0.15631141742E+03  0.15631141742E+03  0.00000000000E+00 0. -1.
         -2   -1    0    0    0  501 -0.00000000000E+00 -0.00000000000E+00 -0.38172946986E+01  0.38172946986E+01  0.00000000000E+00 0.  1.
         21    1    1    2  502  501 -0.13430708834E+02  0.17652282123E+02  0.10978518982E+03  0.11200345935E+03  0.00000000000E+00 0. -1.
         21    1    1    2  503  502  0.13430708834E+02 -0.17652282123E+02  0.42708932908E+02  0.48125252769E+02  0.00000000000E+00 0.  1.
</event>
<event>
 4    1  0.5548812E+002  0.2336730E+02  0.7546771E-02  0.1487937E+00
          2   -1    0    0  503    0  0.00000000000E+00  0.00000000000E+00  0.17665000905E+03  0.17665000905E+03  0.00000000000E+00 0. -1.
         -2   -1    0    0    0  501 -0.00000000000E+00 -0.00000000000E+00 -0.53702119897E+01  0.53702119897E+01  0.00000000000E+00 0.  1.
         21    1    1    2  502  501  0.18159988209E+02  0.14705290632E+02  0.26349648046E+02  0.35218385774E+02  0.00000000000E+00 0. -1.
         21    1    1    2  503  502 -0.18159988209E+02 -0.14705290632E+02  0.14493014901E+03  0.14680183527E+03  0.00000000000E+00 0.  1.
</event>
<event>
 4    1  0.5548812E+002  0.4682726E+02  0.7546771E-02  0.1312547E+00
          2   -1    0    0  502    0  0.00000000000E+00  0.00000000000E+00  0.48021788917E+03  0.48021788917E+03  0.00000000000E+00 0.  1.
         -2   -1    0    0    0  501 -0.00000000000E+00 -0.00000000000E+00 -0.47194411485E+01  0.47194411485E+01  0.00000000000E+00 0. -1.
         21    1    1    2  502  503 -0.44659478724E+02  0.14082734517E+02  0.28143444182E+03  0.28530358830E+03  0.00000000000E+00 0.  1.
         21    1    1    2  503  501  0.44659478724E+02 -0.14082734517E+02  0.19406400620E+03  0.19963374202E+03  0.00000000000E+00 0. -1.
</event>
<event>
 4    1  0.5548812E+002  0.2752927E+02  0.7546771E-02  0.1442363E+00
          2   -1    0    0  502    0  0.00000000000E+00  0.00000000000E+00  0.27902304625E+04  0.27902304625E+04  0.00000000000E+00 0. -1.
         -2   -1    0    0    0  501 -0.00000000000E+00 -0.00000000000E+00 -0.29630675951E+00  0.29630675951E+00  0.00000000000E+00 0.  1.
         21    1    1    2  502  503  0.93592715787E+01  0.25889470328E+02  0.17977639111E+04  0.17979746774E+04  0.00000000000E+00 0. -1.
         21    1    1    2  503  501 -0.93592715787E+01 -0.25889470328E+02  0.99217024468E+03  0.99255209187E+03  0.00000000000E+00 0.  1.
</event>
<event>
 4    1  0.5548812E+002  0.2024115E+02  0.7546771E-02  0.1530381E+00
          2   -1    0    0  503    0  0.00000000000E+00  0.00000000000E+00  0.14436153809E+04  0.14436153809E+04  0.00000000000E+00 0.  1.
         -2   -1    0    0    0  501 -0.00000000000E+00 -0.00000000000E+00 -0.10255369923E+01  0.10255369923E+01  0.00000000000E+00 0. -1.
         21    1    1    2  502  501  0.20222975250E+02  0.85751418787E+00  0.10699847883E+03  0.10889618235E+03  0.00000000000E+00 0. -1.
         21    1    1    2  503  502 -0.20222975250E+02 -0.85751418787E+00  0.13355913651E+04  0.13357447355E+04  0.00000000000E+00 0.  1.
</event>
<event>
 4    1  0.5548812E+002  0.2247283E+02  0.7546771E-02  0.1499226E+00
          2   -1    0    0  503    0  0.00000000000E+00  0.00000000000E+00  0.64387738601E+01  0.64387738601E+01  0.00000000000E+00 0. -1.
         -2   -1    0    0    0  501 -0.00000000000E+00 -0.00000000000E+00 -0.14389861575E+03  0.14389861575E+03  0.00000000000E+00 0.  1.
         21    1    1    2  502  501 -0.19591708244E+02  0.11008775545E+02 -0.11942982992E+03  0.12152576864E+03  0.00000000000E+00 0.  1.
         21    1    1    2  503  502  0.19591708244E+02 -0.11008775545E+02 -0.18030011976E+02  0.28811620968E+02  0.00000000000E+00 0. -1.
</event>
<event>
 4    1  0.5548812E+002  0.2356005E+02  0.7546771E-02  0.1485583E+00
          2   -1    0    0  503    0  0.00000000000E+00  0.00000000000E+00  0.51166447608E+02  0.51166447608E+02  0.00000000000E+00 0.  1.
         -2   -1    0    0    0  501 -0.00000000000E+00 -0.00000000000E+00 -0.12628779006E+02  0.12628779006E+02  0.00000000000E+00 0. -1.
         21    1    1    2  502  501 -0.21912036855E+02 -0.86567027575E+01  0.31245323205E+02  0.39132417303E+02  0.00000000000E+00 0.  1.
         21    1    1    2  503  502  0.21912036855E+02  0.86567027575E+01  0.72923453957E+01  0.24662809311E+02  0.00000000000E+00 0. -1.
</event>
<event>
 4    1  0.5548812E+002  0.2142124E+02  0.7546771E-02  0.1513335E+00
          2   -1    0    0  503    0  0.00000000000E+00  0.00000000000E+00  0.49998853178E+03  0.49998853178E+03  0.00000000000E+00 0. -1.
         -2   -1    0    0    0  501 -0.00000000000E+00 -0.00000000000E+00 -0.14894377422E+01  0.14894377422E+01  0.00000000000E+00 0.  1.
         21    1    1    2  502  501 -0.17753390639E+02 -0.11986940322E+02  0.93908503124E+02  0.96320696511E+02  0.00000000000E+00 0.  1.
         21    1    1    2  503  502  0.17753390639E+02  0.11986940322E+02  0.40459059092E+03  0.40515727301E+03  0.00000000000E+00 0. -1.
</event>
<event>
 4    1  0.5548812E+002  0.6622908E+02  0.7546771E-02  0.1240021E+00
          2   -1    0    0  503    0  0.00000000000E+00  0.00000000000E+00  0.28170714882E+02  0.28170714882E+02  0.00000000000E+00 0. -1.
         -2   -1    0    0    0  501 -0.00000000000E+00 -0.00000000000E+00 -0.32527343281E+03  0.32527343281E+03  0.00000000000E+00 0.  1.
         21    1    1    2  502  501  0.54827487469E+02 -0.37151554199E+02 -0.27614832871E+03  0.28397920841E+03  0.00000000000E+00 0.  1.
         21    1    1    2  503  502 -0.54827487469E+02  0.37151554199E+02 -0.20954389219E+02  0.69464939279E+02  0.00000000000E+00 0. -1.
</event>
<event>
 4    1  0.5548812E+002  0.4989601E+02  0.7546771E-02  0.1298624E+00
          2   -1    0    0  503    0  0.00000000000E+00  0.00000000000E+00  0.24270412070E+02  0.24270412070E+02  0.00000000000E+00 0.  1.
         -2   -1    0    0    0  501 -0.00000000000E+00 -0.00000000000E+00 -0.14430874195E+03  0.14430874195E+03  0.00000000000E+00 0. -1.
         21    1    1    2  502  501  0.46642377612E+02  0.17722877596E+02 -0.10534598964E+03  0.11656495748E+03  0.00000000000E+00 0. -1.
         21    1    1    2  503  502 -0.46642377612E+02 -0.17722877596E+02 -0.14692340237E+02  0.52014196536E+02  0.00000000000E+00 0.  1.
</event>
<event>
 4    1  0.5548812E+002  0.2771270E+02  0.7546771E-02  0.1440577E+00
          2   -1    0    0  502    0  0.00000000000E+00  0.00000000000E+00  0.19739920389E+04  0.19739920389E+04  0.00000000000E+00 0.  1.
         -2   -1    0    0    0  501 -0.00000000000E+00 -0.00000000000E+00 -0.48938425566E+00  0.48938425566E+00  0.00000000000E+00 0. -1.
         21    1    1    2  502  503 -0.95636090183E+01  0.26010213638E+02  0.14337531245E+04  0.14340209258E+04  0.00000000000E+00 0.  1.
         21    1    1    2  503  501  0.95636090183E+01 -0.26010213638E+02  0.53974953018E+03  0.54046049732E+03  0.00000000000E+00 0. -1.
</event>
<event>
 4    1  0.5548812E+002  0.2004181E+02  0.7546771E-02  0.1533398E+00
          2   -1    0    0  503    0  0.00000000000E+00  0.00000000000E+00  0.41875630974E+03  0.41875630974E+03  0.00000000000E+00 0. -1.
         -2   -1    0    0    0  501 -0.00000000000E+00 -0.00000000000E+00 -0.13560683818E+01  0.13560683818E+01  0.00000000000E+00 0.  1.
         21    1    1    2  502  501  0.17497872610E+02 -0.97723343859E+01  0.95064627676E+02  0.97154297385E+02  0.00000000000E+00 0.  1.
         21    1    1    2  503  502 -0.17497872610E+02  0.97723343859E+01  0.32233561369E+03  0.32295808074E+03  0.00000000000E+00 0. -1.
</event>
<event>
 4    1  0.5548812E+002  0.2969274E+02  0.7546771E-02  0.1422286E+00
          2   -1    0    0  502    0  0.00000000000E+00  0.00000000000E+00  0.62346482008E+01  0.62346482008E+01  0.00000000000E+00 0. -1.
         -2   -1    0    0    0  501 -0.00000000000E+00 -0.00000000000E+00 -0.17855262065E+03  0.17855262065E+03  0.00000000000E+00 0.  1.
         21    1    1    2  502  503  0.26604577980E+02 -0.13185417522E+02 -0.44020485817E+02  0.53098606162E+02  0.00000000000E+00 0. -1.
         21    1    1    2  503  501 -0.26604577980E+02  0.13185417522E+02 -0.12829748663E+03  0.13168866268E+03  0.00000000000E+00 0.  1.
</event>
<event>
 4    1  0.5548812E+002  0.2622619E+02  0.7546771E-02  0.1455540E+00
          2   -1    0    0  503    0  0.00000000000E+00  0.00000000000E+00  0.12857262642E+01  0.12857262642E+01  0.00000000000E+00 0.  1.
         -2   -1    0    0    0  501 -0.00000000000E+00 -0.00000000000E+00 -0.56214421391E+03  0.56214421391E+03  0.00000000000E+00 0. -1.
         21    1    1    2  502  501 -0.85492624734E+01 -0.24793614070E+02 -0.34237874659E+03  0.34338173991E+03  0.00000000000E+00 0. -1.
         21    1    1    2  503  502  0.85492624734E+01  0.24793614070E+02 -0.21847974106E+03  0.22004820027E+03  0.00000000000E+00 0.  1.
</event>
<event>
 4    1  0.5548812E+002  0.2339055E+02  0.7546771E-02  0.1487651E+00
          2   -1    0    0  503    0  0.00000000000E+00  0.00000000000E+00  0.27142171048E+03  0.27142171048E+03  0.00000000000E+00 0.  1.
         -2   -1    0    0    0  501 -0.00000000000E+00 -0.00000000000E+00 -0.30760713685E+01  0.30760713685E+01  0.00000000000E+00 0. -1.
         21    1    1    2  502  501  0.48814989198E+01  0.22875509219E+02  0.53592373358E+02  0.58474442588E+02  0.00000000000E+00 0. -1.
         21    1    1    2  503  502 -0.48814989198E+01 -0.22875509219E+02  0.21475326575E+03  0.21602333926E+03  0.00000000000E+00 0.  1.
</event>
<event>
 4    1  0.5548812E+002  0.2058538E+02  0.7546771E-02  0.1525268E+00
          2   -1    0    0  503    0  0.00000000000E+00  0.00000000000E+00  0.32450157974E+02  0.32450157974E+02  0.00000000000E+00 0.  1.
         -2   -1    0    0    0  501 -0.00000000000E+00 -0.00000000000E+00 -0.29986498617E+02  0.29986498617E+02  0.00000000000E+00 0. -1.
         21    1    1    2  502  501 -0.56961816457E+01  0.19781597137E+02 -0.22223769669E+02  0.30292804573E+02  0.00000000000E+00 0. -1.
         21    1    1    2  503  502  0.56961816457E+01 -0.19781597137E+02  0.24687429026E+02  0.32143852017E+02  0.00000000000E+00 0.  1.
</event>
<event>
 4    1  0.5548812E+002  0.2336750E+02  0.7546771E-02  0.1487934E+00
          2   -1    0    0  502    0  0.00000000000E+00  0.00000000000E+00  0.23812378626E+01  0.23812378626E+01  0.00000000000E+00 0. -1.
         -2   -1    0    0    0  501 -0.00000000000E+00 -0.00000000000E+00 -0.80424686565E+03  0.80424686565E+03  0.00000000000E+00 0.  1.
         21    1    1    2  502  503 -0.22903932177E+02 -0.46314290711E+01 -0.59929211431E+02  0.64323795186E+02  0.00000000000E+00 0. -1.
         21    1    1    2  503  501  0.22903932177E+02  0.46314290711E+01 -0.74193641636E+03  0.74230430833E+03  0.00000000000E+00 0.  1.
</event>
<event>
 4    1  0.5548812E+002  0.2435643E+02  0.7546771E-02  0.1476133E+00
          2   -1    0    0  503    0  0.00000000000E+00  0.00000000000E+00  0.11494273121E+04  0.11494273121E+04  0.00000000000E+00 0.  1.
         -2   -1    0    0    0  501 -0.00000000000E+00 -0.00000000000E+00 -0.51615673315E+00  0.51615673315E+00  0.00000000000E+00 0. -1.
         21    1    1    2  502  501 -0.22949265309E+02 -0.81588642296E+01  0.56924078917E+03  0.56976162726E+03  0.00000000000E+00 0. -1.
         21    1    1    2  503  502  0.22949265309E+02  0.81588642296E+01  0.57967036621E+03  0.58018184158E+03  0.00000000000E+00 0.  1.
</event>
<event>
 4    1  0.5548812E+002  0.2391961E+02  0.7546771E-02  0.1481262E+00
          2   -1    0    0  503    0  0.00000000000E+00  0.00000000000E+00  0.77638033841E+03  0.77638033841E+03  0.00000000000E+00 0. -1.
         -2   -1    0    0    0  501 -0.00000000000E+00 -0.00000000000E+00 -0.74796121241E+00  0.74796121241E+00  0.00000000000E+00 0.  1.
         21    1    1    2  502  501  0.16769550442E+02 -0.17056671733E+02  0.34065514489E+03  0.34149388810E+03  0.00000000000E+00 0. -1.
         21    1    1    2  503  502 -0.16769550442E+02  0.17056671733E+02  0.43497723231E+03  0.43563441152E+03  0.00000000000E+00 0.  1.
</event>
<event>
 4    1  0.5548812E+002  0.2289409E+02  0.7546771E-02  0.1493832E+00
          2   -1    0    0  503    0  0.00000000000E+00  0.00000000000E+00  0.36761170785E+03  0.36761170785E+03  0.00000000000E+00 0.  1.
         -2   -1    0    0    0  501 -0.00000000000E+00 -0.00000000000E+00 -0.25363616552E+01  0.25363616552E+01  0.00000000000E+00 0. -1.
         21    1    1    2  502  501 -0.17486466605E+02 -0.14777108268E+02  0.60072684008E+02  0.64287376731E+02  0.00000000000E+00 0. -1.
         21    1    1    2  503  502  0.17486466605E+02  0.14777108268E+02  0.30500266219E+03  0.30586069278E+03  0.00000000000E+00 0.  1.
</event>
<event>
 4    1  0.5548812E+002  0.4757096E+02  0.7546771E-02  0.1309062E+00
          2   -1    0    0  503    0  0.00000000000E+00  0.00000000000E+00  0.17372694808E+04  0.17372694808E+04  0.00000000000E+00 0. -1.
         -2   -1    0    0    0  501 -0.00000000000E+00 -0.00000000000E+00 -0.44622162495E+01  0.44622162495E+01  0.00000000000E+00 0.  1.
         21    1    1    2  502  501 -0.47230448744E+02  0.56816076449E+01  0.13359262184E+03  0.14180967726E+03  0.00000000000E+00 0.  1.
         21    1    1    2  503  502  0.47230448744E+02 -0.56816076449E+01  0.15992146427E+04  0.15999220198E+04  0.00000000000E+00 0. -1.
</event>
<event>
 4    1  0.5548812E+002  0.2067481E+02  0.7546771E-02  0.1523959E+00
          2   -1    0    0  503    0  0.00000000000E+00  0.00000000000E+00  0.73925330392E+02  0.73925330392E+02  0.00000000000E+00 0. -1.
         -2   -1    0    0    0  501 -0.00000000000E+00 -0.00000000000E+00 -0.20743705434E+02  0.20743705434E+02  0.00000000000E+00 0.  1.
         21    1    1    2  502  501 -0.24860616453E+01 -0.20524798068E+02 -0.13608911114E+02  0.24751773673E+02  0.00000000000E+00 0.  1.
         21    1    1    2  503  502  0.24860616453E+01  0.20524798068E+02  0.66790536072E+02  0.69917262153E+02  0.00000000000E+00 0. -1.
</event>
<event>
 4    1  0.5548812E+002  0.3144692E+02  0.7546771E-02  0.1407426E+00
          2   -1    0    0  503    0  0.00000000000E+00  0.00000000000E+00  0.15033816930E+03  0.15033816930E+03  0.00000000000E+00 0. -1.
         -2   -1    0    0    0  501 -0.00000000000E+00 -0.00000000000E+00 -0.15698509467E+02  0.15698509467E+02  0.00000000000E+00 0.  1.
         21    1    1    2  502  501  0.16025743518E+02 -0.27057056650E+02  0.40412288886E+01  0.31705524767E+02  0.00000000000E+00 0.  1.
         21    1    1    2  503  502 -0.16025743518E+02  0.27057056650E+02  0.13059843094E+03  0.13433115400E+03  0.00000000000E+00 0. -1.
</event>
<event>
 4    1  0.5548812E+002  0.2383072E+02  0.7546771E-02  0.1482322E+00
          2   -1    0    0  503    0  0.00000000000E+00  0.00000000000E+00  0.10255620849E+04  0.10255620849E+04  0.00000000000E+00 0. -1.
         -2   -1    0    0    0  501 -0.00000000000E+00 -0.00000000000E+00 -0.83897455234E+00  0.83897455234E+00  0.00000000000E+00 0.  1.
         21    1    1    2  502  501 -0.11447871747E+02 -0.20900945876E+02  0.21312998162E+03  0.21445813664E+03  0.00000000000E+00 0.  1.
         21    1    1    2  503  502  0.11447871747E+02  0.20900945876E+02  0.81159312875E+03  0.81194292283E+03  0.00000000000E+00 0. -1.
</event>
<event>
 4    1  0.5548812E+002  0.2178323E+02  0.7546771E-02  0.1508370E+00
          2   -1    0    0  502    0  0.00000000000E+00  0.00000000000E+00  0.30290911213E+03  0.30290911213E+03  0.00000000000E+00 0. -1.
         -2   -1    0    0    0  501 -0.00000000000E+00 -0.00000000000E+00 -0.28424013253E+01  0.28424013253E+01  0.00000000000E+00 0.  1.
         21    1    1    2  502  503  0.21106193617E+02 -0.53886747392E+01  0.25245772166E+03  0.25339575855E+03  0.00000000000E+00 0. -1.
         21    1    1    2  503  501 -0.21106193617E+02  0.53886747392E+01  0.47608989139E+02  0.52355754901E+02  0.00000000000E+00 0.  1.
</event>
<event>
 4    1  0.5548812E+002  0.2395753E+02  0.7546771E-02  0.1480812E+00
          2   -1    0    0  502    0  0.00000000000E+00  0.00000000000E+00  0.23094758408E+02  0.23094758408E+02  0.00000000000E+00 0.  1.
         -2   -1    0    0    0  501 -0.00000000000E+00 -0.00000000000E+00 -0.10370312273E+03  0.10370312273E+03  0.00000000000E+00 0. -1.
         21    1    1    2  502  503  0.35686505964E+01 -0.23690245639E+02  0.14978433738E+02  0.28254494912E+02  0.00000000000E+00 0.  1.
         21    1    1    2  503  501 -0.35686505964E+01  0.23690245639E+02 -0.95586798056E+02  0.98543386222E+02  0.00000000000E+00 0. -1.
</event>
<event>
 4    1  0.5548812E+002  0.2164137E+02  0.7546771E-02  0.1510301E+00
          2   -1    0    0  502    0  0.00000000000E+00  0.00000000000E+00  0.39227075625E+02  0.39227075625E+02  0.00000000000E+00 0. -1.
         -2   -1    0    0    0  501 -0.00000000000E+00 -0.00000000000E+00 -0.17748047337E+02  0.17748047337E+02  0.00000000000E+00 0.  1.
         21    1    1    2  502  503  0.19971788766E+01 -0.21549021402E+02  0.27036836361E+02  0.34631482314E+02  0.00000000000E+00 0. -1.
         21    1    1    2  503  501 -0.19971788766E+01  0.21549021402E+02 -0.55578080740E+01  0.22343640648E+02  0.00000000000E+00 0.  1.
</event>
<event>
 4    1  0.5548812E+002  0.2884286E+02  0.7546771E-02  0.1429926E+00
          2   -1    0    0  502    0  0.00000000000E+00  0.00000000000E+00  0.29453404315E+02  0.29453404315E+02  0.00000000000E+00 0. -1.
         -2   -1    0    0    0  501 -0.00000000000E+00 -0.00000000000E+00 -0.48613152611E+02  0.48613152611E+02  0.00000000000E+00 0.  1.
         21    1    1    2  502  503  0.83951552238E+01 -0.27594051416E+02  0.15686001540E+02  0.32832315622E+02  0.00000000000E+00 0. -1.
         21    1    1    2  503  501 -0.83951552238E+01  0.27594051416E+02 -0.34845749836E+02  0.45234241305E+02  0.00000000000E+00 0.  1.
</event>
<event>
 4    1  0.5548812E+002  0.2392793E+02  0.7546771E-02  0.1481164E+00
          2   -1    0    0  503    0  0.00000000000E+00  0.00000000000E+00  0.40101205214E+02  0.40101205214E+02  0.00000000000E+00 0.  1.
         -2   -1    0    0    0  501 -0.00000000000E+00 -0.00000000000E+00 -0.25361006574E+02  0.25361006574E+02  0.00000000000E+00 0. -1.
         21    1    1    2  502  501 -0.20407626535E+02 -0.12492991855E+02 -0.14267819432E+02  0.27858871793E+02  0.00000000000E+00 0. -1.
         21    1    1    2  503  502  0.20407626535E+02  0.12492991855E+02  0.29008018072E+02  0.37603339995E+02  0.00000000000E+00 0.  1.
</event>
<event>
 4    1  0.5548812E+002  0.2111454E+02  0.7546771E-02  0.1517636E+00
          2   -1    0    0  503    0  0.00000000000E+00  0.00000000000E+00  0.73911566769E+03  0.73911566769E+03  0.00000000000E+00 0. -1.
         -2   -1    0    0    0  501 -0.00000000000E+00 -0.00000000000E+00 -0.74305213945E+00  0.74305213945E+00  0.00000000000E+00 0.  1.
         21    1    1    2  502  501  0.12311149719E+02 -0.17153990637E+02  0.20868952375E+03  0.20975495494E+03  0.00000000000E+00 0.  1.
         21    1    1    2  503  502 -0.12311149719E+02  0.17153990637E+02  0.52968309180E+03  0.53010376488E+03  0.00000000000E+00 0. -1.
</event>
<event>
 4    1  0.5548812E+002  0.6120430E+02  0.7546771E-02  0.1255795E+00
          2   -1    0    0  502    0  0.00000000000E+00  0.00000000000E+00  0.62376232706E+03  0.62376232706E+03  0.00000000000E+00 0. -1.
         -2   -1    0    0    0  501 -0.00000000000E+00 -0.00000000000E+00 -0.90979128722E+01  0.90979128722E+01  0.00000000000E+00 0.  1.
         21    1    1    2  502  503 -0.45204564486E+02  0.41261532864E+02  0.49181672813E+03  0.49561039215E+03  0.00000000000E+00 0. -1.
         21    1    1    2  503  501  0.45204564486E+02 -0.41261532864E+02  0.12284768606E+03  0.13724984777E+03  0.00000000000E+00 0.  1.
</event>
<event>
 4    1  0.5548812E+002  0.3325670E+02  0.7546771E-02  0.1393251E+00
          2   -1    0    0  502    0  0.00000000000E+00  0.00000000000E+00  0.26081905661E+02  0.26081905661E+02  0.00000000000E+00 0.  1.
         -2   -1    0    0    0  501 -0.00000000000E+00 -0.00000000000E+00 -0.44460126098E+02  0.44460126098E+02  0.00000000000E+00 0. -1.
         21    1    1    2  502  503  0.14851701131E+02  0.29756266177E+02 -0.16062889586E+01  0.33295473679E+02  0.00000000000E+00 0.  1.
         21    1    1    2  503  501 -0.14851701131E+02 -0.29756266177E+02 -0.16771931479E+02  0.37246558080E+02  0.00000000000E+00 0. -1.
</event>
<event>
 4    1  0.5548812E+002  0.3316255E+02  0.7546771E-02  0.1393962E+00
          2   -1    0    0  503    0  0.00000000000E+00  0.00000000000E+00  0.18535896593E+03  0.18535896593E+03  0.00000000000E+00 0.  1.
         -2   -1    0    0    0  501 -0.00000000000E+00 -0.00000000000E+00 -0.12193572361E+02  0.12193572361E+02  0.00000000000E+00 0. -1.
         21    1    1    2  502  501 -0.33015815150E+02 -0.31162307546E+01  0.15805985538E+02  0.36736686336E+02  0.00000000000E+00 0. -1.
         21    1    1    2  503  502  0.33015815150E+02  0.31162307546E+01  0.15735940803E+03  0.16081585195E+03  0.00000000000E+00 0.  1.
</event>
<event>
 4    1  0.5548812E+002  0.2058646E+02  0.7546771E-02  0.1525252E+00
          2   -1    0    0  502    0  0.00000000000E+00  0.00000000000E+00  0.16477047500E+04  0.16477047500E+04  0.00000000000E+00 0. -1.
         -2   -1    0    0    0  501 -0.00000000000E+00 -0.00000000000E+00 -0.43910589518E+00  0.43910589518E+00  0.00000000000E+00 0.  1.
         21    1    1    2  502  503 -0.15024767802E+02 -0.14073330723E+02  0.13540220896E+04  0.13541785781E+04  0.00000000000E+00 0. -1.
         21    1    1    2  503  501  0.15024767802E+02  0.14073330723E+02  0.29324355450E+03  0.29396527778E+03  0.00000000000E+00 0.  1.
</event>
<event>
 4    1  0.5548812E+002  0.3284555E+02  0.7546771E-02  0.1396377E+00
          2   -1    0    0  503    0  0.00000000000E+00  0.00000000000E+00  0.12119008554E+03  0.12119008554E+03  0.00000000000E+00 0.  1.
         -2   -1    0    0    0  501 -0.00000000000E+00 -0.00000000000E+00 -0.69010795658E+02  0.69010795658E+02  0.00000000000E+00 0. -1.
         21    1    1    2  502  501 -0.67096180736E+01 -0.32152936577E+02 -0.62665418615E+02  0.70751572389E+02  0.00000000000E+00 0. -1.
         21    1    1    2  503  502  0.67096180736E+01  0.32152936577E+02  0.11484470850E+03  0.11944930881E+03  0.00000000000E+00 0.  1.
</event>
<event>
 4    1  0.5548812E+002  0.3016021E+02  0.7546771E-02  0.1418209E+00
          2   -1    0    0  502    0  0.00000000000E+00  0.00000000000E+00  0.72171020508E+03  0.72171020508E+03  0.00000000000E+00 0. -1.
         -2   -1    0    0    0  501 -0.00000000000E+00 -0.00000000000E+00 -0.15905015723E+01  0.15905015723E+01  0.00000000000E+00 0.  1.
         21    1    1    2  502  503  0.60553047726E+01  0.29546088528E+02  0.52481941535E+03  0.52568532107E+03  0.00000000000E+00 0. -1.
         21    1    1    2  503  501 -0.60553047726E+01 -0.29546088528E+02  0.19530028816E+03  0.19761538558E+03  0.00000000000E+00 0.  1.
</event>
<event>
 4    1  0.5548812E+002  0.2366891E+02  0.7546771E-02  0.1484265E+00
          2   -1    0    0  503    0  0.00000000000E+00  0.00000000000E+00  0.58206169622E+03  0.58206169622E+03  0.00000000000E+00 0.  1.
         -2   -1    0    0    0  501 -0.00000000000E+00 -0.00000000000E+00 -0.25664255676E+01  0.25664255676E+01  0.00000000000E+00 0. -1.
         21    1    1    2  502  501  0.19835705785E+02  0.12913641486E+02  0.58657485512E+02  0.63252809953E+02  0.00000000000E+00 0. -1.
         21    1    1    2  503  502 -0.19835705785E+02 -0.12913641486E+02  0.52083778514E+03  0.52137531183E+03  0.00000000000E+00 0.  1.
</event>
<event>
 4    1  0.5548812E+002  0.4877334E+02  0.7546771E-02  0.1303580E+00
          2   -1    0    0  502    0  0.00000000000E+00  0.00000000000E+00  0.40503047465E+03  0.40503047465E+03  0.00000000000E+00 0.  1.
         -2   -1    0    0    0  501 -0.00000000000E+00 -0.00000000000E+00 -0.11027944314E+02  0.11027944314E+02  0.00000000000E+00 0. -1.
         21    1    1    2  502  503  0.45428112639E+02  0.17751777539E+02  0.33922731245E+03  0.34271563801E+03  0.00000000000E+00 0.  1.
         21    1    1    2  503  501 -0.45428112639E+02 -0.17751777539E+02  0.54775217885E+02  0.73342780954E+02  0.00000000000E+00 0. -1.
</event>
<event>
 4    1  0.5548812E+002  0.2775874E+02  0.7546771E-02  0.1440132E+00
          2   -1    0    0  502    0  0.00000000000E+00  0.00000000000E+00  0.12697261756E+02  0.12697261756E+02  0.00000000000E+00 0. -1.
         -2   -1    0    0    0  501 -0.00000000000E+00 -0.00000000000E+00 -0.60688286814E+02  0.60688286814E+02  0.00000000000E+00 0.  1.
         21    1    1    2  502  503  0.27722744605E+02  0.14130903314E+01 -0.23775634703E+02  0.36548983546E+02  0.00000000000E+00 0. -1.
         21    1    1    2  503  501 -0.27722744605E+02 -0.14130903314E+01 -0.24215390354E+02  0.36836565024E+02  0.00000000000E+00 0.  1.
</event>
<event>
 4    1  0.5548812E+002  0.3710998E+02  0.7546771E-02  0.1366307E+00
          2   -1    0    0  502    0  0.00000000000E+00  0.00000000000E+00  0.11391543694E+04  0.11391543694E+04  0.00000000000E+00 0. -1.
         -2   -1    0    0    0  501 -0.00000000000E+00 -0.00000000000E+00 -0.18034889974E+01  0.18034889974E+01  0.00000000000E+00 0.  1.
         21    1    1    2  502  503  0.26908221262E+02  0.25555785327E+02  0.89622928095E+03  0.89699725449E+03  0.00000000000E+00 0. -1.
         21    1    1    2  503  501 -0.26908221262E+02 -0.25555785327E+02  0.24112159947E+03  0.24396060393E+03  0.00000000000E+00 0.  1.
</event>
<event>
 4    1  0.5548812E+002  0.2701561E+02  0.7546771E-02  0.1447451E+00
          2   -1    0    0  503    0  0.00000000000E+00  0.00000000000E+00  0.17602569316E+04  0.17602569316E+04  0.00000000000E+00 0.  1.
         -2   -1    0    0    0  501 -0.00000000000E+00 -0.00000000000E+00 -0.12346051385E+01  0.12346051385E+01  0.00000000000E+00 0. -1.
         21    1    1    2  502  501 -0.26555261715E+02  0.49660356518E+01  0.16173561861E+03  0.16397638172E+03  0.00000000000E+00 0. -1.
         21    1    1    2  503  502  0.26555261715E+02 -0.49660356518E+01  0.15972867078E+04  0.15975151550E+04  0.00000000000E+00 0.  1.
</event>
<event>
 4    1  0.5548812E+002  0.2336580E+02  0.7546771E-02  0.1487955E+00
          2   -1    0    0  502    0  0.00000000000E+00  0.00000000000E+00  0.10750538723E+02  0.10750538723E+02  0.00000000000E+00 0. -1.
         -2   -1    0    0    0  501 -0.00000000000E+00 -0.00000000000E+00 -0.71650330791E+02  0.71650330791E+02  0.00000000000E+00 0.  1.
         21    1    1    2  502  503  0.22651468671E+02 -0.57333917707E+01 -0.82162615447E+01  0.24768281489E+02  0.00000000000E+00 0. -1.
         21    1    1    2  503  501 -0.22651468671E+02  0.57333917707E+01 -0.52683530523E+02  0.57632588026E+02  0.00000000000E+00 0.  1.
</event>
<event>
 4    1  0.5548812E+002  0.2532203E+02  0.7546771E-02  0.1465233E+00
          2   -1    0    0  502    0  0.00000000000E+00  0.00000000000E+00  0.10754836211E+04  0.10754836211E+04  0.00000000000E+00 0. -1.
         -2   -1    0    0    0  501 -0.00000000000E+00 -0.00000000000E+00 -0.99246630584E+00  0.99246630584E+00  0.00000000000E+00 0.  1.
         21    1    1    2  502  503 -0.24957997505E+02  0.42782891400E+01  0.87734745364E+03  0.87771280030E+03  0.00000000000E+00 0. -1.
         21    1    1    2  503  501  0.24957997505E+02 -0.42782891400E+01  0.19714370118E+03  0.19876328713E+03  0.00000000000E+00 0.  1.
</event>
<event>
 4    1  0.5548812E+002  0.2906297E+02  0.7546771E-02  0.1427918E+00
          2   -1    0    0  502    0  0.00000000000E+00  0.00000000000E+00  0.69911042981E+03  0.69911042981E+03  0.00000000000E+00 0. -1.
         -2   -1    0    0    0  501 -0.00000000000E+00 -0.00000000000E+00 -0.18797410013E+01  0.18797410013E+01  0.00000000000E+00 0.  1.
         21    1    1    2  502  503 -0.29057266911E+02 -0.57553785627E+00  0.55811024475E+03  0.55886644317E+03  0.00000000000E+00 0. -1.
         21    1    1    2  503  501  0.29057266911E+02  0.57553785627E+00  0.13912044406E+03  0.14212372764E+03  0.00000000000E+00 0.  1.
</event>
<event>
 4    1  0.5548812E+002  0.2232912E+02  0.7546771E-02  0.1501099E+00
          2   -1    0    0  502    0  0.00000000000E+00  0.00000000000E+00  0.15331997546E+02  0.15331997546E+02  0.00000000000E+00 0. -1.
         -2   -1    0    0    0  501 -0.00000000000E+00 -0.00000000000E+00 -0.54313443238E+02  0.54313443238E+02  0.00000000000E+00 0.  1.
         21    1    1    2  502  503 -0.20096373398E+02 -0.97326853600E+01  0.25678095476E+01  0.22476277137E+02  0.00000000000E+00 0. -1.
         21    1    1    2  503  501  0.20096373398E+02  0.97326853600E+01 -0.41549255240E+02  0.47169163647E+02  0.00000000000E+00 0.  1.
</event>
<event>
 4    1  0.5548812E+002  0.2158536E+02  0.7546771E-02  0.1511069E+00
          2   -1    0    0  502    0  0.00000000000E+00  0.00000000000E+00  0.11542949401E+04  0.11542949401E+04  0.00000000000E+00 0.  1.
         -2   -1    0    0    0  501 -0.00000000000E+00 -0.00000000000E+00 -0.40519340260E+00  0.40519340260E+00  0.00000000000E+00 0. -1.
         21    1    1    2  502  503  0.20396281360E+02 -0.70653685594E+01  0.54127801304E+03  0.54170823801E+03  0.00000000000E+00 0.  1.
         21    1    1    2  503  501 -0.20396281360E+02  0.70653685594E+01  0.61261173369E+03  0.61299189552E+03  0.00000000000E+00 0. -1.
</event>
<event>
 4    1  0.5548812E+002  0.2080533E+02  0.7546771E-02  0.1522063E+00
          2   -1    0    0  503    0  0.00000000000E+00  0.00000000000E+00  0.12419354740E+02  0.12419354740E+02  0.00000000000E+00 0. -1.
         -2   -1    0    0    0  501 -0.00000000000E+00 -0.00000000000E+00 -0.57516278101E+02  0.57516278101E+02  0.00000000000E+00 0.  1.
         21    1    1    2  502  501 -0.17208582367E+02  0.11693001886E+02 -0.44498076654E+02  0.49121689977E+02  0.00000000000E+00 0.  1.
         21    1    1    2  503  502  0.17208582367E+02 -0.11693001886E+02 -0.59884670623E+00  0.20813942865E+02  0.00000000000E+00 0. -1.
</event>
<event>
 4    1  0.5548812E+002  0.4114633E+02  0.7546771E-02  0.1341896E+00
          2   -1    0    0  503    0  0.00000000000E+00  0.00000000000E+00  0.67143257878E+03  0.67143257878E+03  0.00000000000E+00 0. -1.
         -2   -1    0    0    0  501 -0.00000000000E+00 -0.00000000000E+00 -0.25814034406E+01  0.25814034406E+01  0.00000000000E+00 0.  1.
         21    1    1    2  502  501  0.12167924123E+02 -0.39306007349E+02  0.28308996921E+03  0.28606459280E+03  0.00000000000E+00 0. -1.
         21    1    1    2  503  502 -0.12167924123E+02  0.39306007349E+02  0.38576120614E+03  0.38794938942E+03  0.00000000000E+00 0.  1.
</event>
<event>
 4    1  0.5548812E+002  0.1335548E+03  0.7546771E-02  0.1115777E+00
          2   -1    0    0  502    0  0.00000000000E+00  0.00000000000E+00  0.79431937614E+02  0.79431937614E+02  0.00000000000E+00 0. -1.
         -2   -1    0    0    0  501 -0.00000000000E+00 -0.00000000000E+00 -0.31816344026E+03  0.31816344026E+03  0.00000000000E+00 0.  1.
         21    1    1    2  502  503 -0.53768362937E+02  0.12225319070E+03 -0.11535030325E+02  0.13405199146E+03  0.00000000000E+00 0. -1.
         21    1    1    2  503  501  0.53768362937E+02 -0.12225319070E+03 -0.22719647232E+03  0.26354338642E+03  0.00000000000E+00 0.  1.
</event>
<event>
 4    1  0.5548812E+002  0.2344807E+02  0.7546771E-02  0.1486947E+00
          2   -1    0    0  503    0  0.00000000000E+00  0.00000000000E+00  0.15578250822E+02  0.15578250822E+02  0.00000000000E+00 0.  1.
         -2   -1    0    0    0  501 -0.00000000000E+00 -0.00000000000E+00 -0.36515625439E+02  0.36515625439E+02  0.00000000000E+00 0. -1.
         21    1    1    2  502  501 -0.12429919713E+02  0.19882378011E+02 -0.15233714064E+02  0.27962079744E+02  0.00000000000E+00 0.  1.
         21    1    1    2  503  502  0.12429919713E+02 -0.19882378011E+02 -0.57036605538E+01  0.24131796517E+02  0.00000000000E+00 0. -1.
</event>
<event>
 4    1  0.5548812E+002  0.3616872E+02  0.7546771E-02  0.1372528E+00
          2   -1    0    0  502    0  0.00000000000E+00  0.00000000000E+00  0.22801503321E+04  0.22801503321E+04  0.00000000000E+00 0.  1.
         -2   -1    0    0    0  501 -0.00000000000E+00 -0.00000000000E+00 -0.58786316585E+00  0.58786316585E+00  0.00000000000E+00 0. -1.
         21    1    1    2  502  503  0.35899364692E+02  0.44058593752E+01  0.13166397018E+04  0.13171363940E+04  0.00000000000E+00 0. -1.
         21    1    1    2  503  501 -0.35899364692E+02 -0.44058593752E+01  0.96292276705E+03  0.96360180120E+03  0.00000000000E+00 0.  1.
</event>
<event>
 4    1  0.5548812E+002  0.2305343E+02  0.7546771E-02  0.1491828E+00
          2   -1    0    0  502    0  0.00000000000E+00  0.00000000000E+00  0.30596464634E+03  0.30596464634E+03  0.00000000000E+00 0. -1.
         -2   -1    0    0    0  501 -0.00000000000E+00 -0.00000000000E+00 -0.17383290032E+01  0.17383290032E+01  0.00000000000E+00 0.  1.
         21    1    1    2  502  503 -0.21056636630E+02  0.93850209189E+01  0.14785900595E+03  0.14964540155E+03  0.00000000000E+00 0.  1.
         21    1    1    2  503  501  0.21056636630E+02 -0.93850209189E+01  0.15636731139E+03  0.15805757379E+03  0.00000000000E+00 0. -1.
</event>
<event>
 4    1  0.5548812E+002  0.2677805E+02  0.7546771E-02  0.1449850E+00
          2   -1    0    0  502    0  0.00000000000E+00  0.00000000000E+00  0.85114801398E+03  0.85114801398E+03  0.00000000000E+00 0.  1.
         -2   -1    0    0    0  501 -0.00000000000E+00 -0.00000000000E+00 -0.16039001722E+01  0.16039001722E+01  0.00000000000E+00 0. -1.
         21    1    1    2  502  503  0.26706164390E+02  0.19608589835E+01  0.71855049208E+03  0.71904928472E+03  0.00000000000E+00 0.  1.
         21    1    1    2  503  501 -0.26706164390E+02 -0.19608589835E+01  0.13099362172E+03  0.13370262943E+03  0.00000000000E+00 0. -1.
</event>
<event>
 4    1  0.5548812E+002  0.2261994E+02  0.7546771E-02  0.1497327E+00
          2   -1    0    0  502    0  0.00000000000E+00  0.00000000000E+00  0.14797483199E+03  0.14797483199E+03  0.00000000000E+00 0. -1.
         -2   -1    0    0    0  501 -0.00000000000E+00 -0.00000000000E+00 -0.45593623581E+01  0.45593623581E+01  0.00000000000E+00 0.  1.
         21    1    1    2  502  503 -0.19204538166E+02  0.11951876350E+02  0.10919617335E+03  0.11151442018E+03  0.00000000000E+00 0. -1.
         21    1    1    2  503  501  0.19204538166E+02 -0.11951876350E+02  0.34219296275E+02  0.41019774159E+02  0.00000000000E+00 0.  1.
</event>
<event>
 4    1  0.5548812E+002  0.2548779E+02  0.7546771E-02  0.1463420E+00
          2   -1    0    0  502    0  0.00000000000E+00  0.00000000000E+00  0.11688166368E+04  0.11688166368E+04  0.00000000000E+00 0. -1.
         -2   -1    0    0    0  501 -0.00000000000E+00 -0.00000000000E+00 -0.47002263220E+01  0.47002263220E+01  0.00000000000E+00 0.  1.
         21    1    1    2  502  503 -0.24684058412E+02  0.63501682132E+01  0.11330336021E+04  0.11333202419E+04  0.00000000000E+00 0. -1.
         21    1    1    2  503  501  0.24684058412E+02 -0.63501682132E+01  0.31082808422E+02  0.40196621194E+02  0.00000000000E+00 0.  1.
</event>
<event>
 4    1  0.5548812E+002  0.3516228E+02  0.7546771E-02  0.1379426E+00
          2   -1    0    0  502    0  0.00000000000E+00  0.00000000000E+00  0.30966556733E+03  0.30966556733E+03  0.00000000000E+00 0.  1.
         -2   -1    0    0    0  501 -0.00000000000E+00 -0.00000000000E+00 -0.39929037036E+01  0.39929037036E+01  0.00000000000E+00 0. -1.
         21    1    1    2  502  503 -0.23954808820E+01 -0.35080588576E+02  0.15408805621E+03  0.15804909076E+03  0.00000000000E+00 0. -1.
         21    1    1    2  503  501  0.23954808820E+01  0.35080588576E+02  0.15158460742E+03  0.15560938027E+03  0.00000000000E+00 0.  1.
</event>
<event>
 4    1  0.5548812E+002  0.2732558E+02  0.7546771E-02  0.1444365E+00
          2   -1    0    0  502    0  0.00000000000E+00  0.00000000000E+00  0.28247014071E+04  0.28247014071E+04  0.00000000000E+00 0. -1.
         -2   -1    0    0    0  501 -0.00000000000E+00 -0.00000000000E+00 -0.32096841189E+00  0.32096841189E+00  0.00000000000E+00 0.  1.
         21    1    1    2  502  503  0.84864377277E+01  0.25974370711E+02  0.20054840197E+04  0.20056701725E+04  0.00000000000E+00 0. -1.
         21    1    1    2  503  501 -0.84864377277E+01 -0.25974370711E+02  0.81889641903E+03  0.81935220306E+03  0.00000000000E+00 0.  1.
</event>
<event>
 4    1  0.5548812E+002  0.2758683E+02  0.7546771E-02  0.1441801E+00
          2   -1    0    0  503    0  0.00000000000E+00  0.00000000000E+00  0.71248999687E+02  0.71248999687E+02  0.00000000000E+00 0. -1.
         -2   -1    0    0    0  501 -0.00000000000E+00 -0.00000000000E+00 -0.30852455399E+02  0.30852455399E+02  0.00000000000E+00 0.  1.
         21    1    1    2  502  501 -0.27586068946E+02  0.20515797780E+00 -0.21080070613E+02  0.34718909354E+02  0.00000000000E+00 0.  1.
         21    1    1    2  503  502  0.27586068946E+02 -0.20515797780E+00  0.61476614901E+02  0.67382545732E+02  0.00000000000E+00 0. -1.
</event>
<event>
 4    1  0.5548812E+002  0.2627019E+02  0.7546771E-02  0.1455080E+00
          2   -1    0    0  502    0  0.00000000000E+00  0.00000000000E+00  0.17945193061E+02  0.17945193061E+02  0.00000000000E+00 0. -1.
         -2   -1    0    0    0  501 -0.00000000000E+00 -0.00000000000E+00 -0.17352461042E+03  0.17352461042E+03  0.00000000000E+00 0.  1.
         21    1    1    2  502  503 -0.22643800509E+02 -0.13318457803E+02  0.66729876308E+01  0.27104460586E+02  0.00000000000E+00 0. -1.
         21    1    1    2  503  501  0.22643800509E+02  0.13318457803E+02 -0.16225240499E+03  0.16436534289E+03  0.00000000000E+00 0.  1.
</event>
<event>
 4    1  0.5548812E+002  0.3344024E+02  0.7546771E-02  0.1391873E+00
          2   -1    0    0  503    0  0.00000000000E+00  0.00000000000E+00  0.46076010654E+01  0.46076010654E+01  0.00000000000E+00 0.  1.
         -2   -1    0    0    0  501 -0.00000000000E+00 -0.00000000000E+00 -0.38999092358E+03  0.38999092358E+03  0.00000000000E+00 0. -1.
         21    1    1    2  502  501 -0.31805582804E+02 -0.10327379828E+02 -0.31394423730E+03  0.31572018308E+03  0.00000000000E+00 0. -1.
         21    1    1    2  503  502  0.31805582804E+02  0.10327379828E+02 -0.71439085222E+02  0.78878341571E+02  0.00000000000E+00 0.  1.
</event>
<event>
 4    1  0.5548812E+002  0.5964773E+02  0.7546771E-02  0.1261034E+00
          2   -1    0    0  503    0  0.00000000000E+00  0.00000000000E+00  0.39616590271E+02  0.39616590271E+02  0.00000000000E+00 0.  1.
         -2   -1    0    0    0  501 -0.00000000000E+00 -0.00000000000E+00 -0.98375720155E+02  0.98375720155E+02  0.00000000000E+00 0. -1.
         21    1    1    2  502  501  0.82025360483E+00 -0.59642086843E+02 -0.49742304693E+02  0.77666905533E+02  0.00000000000E+00 0. -1.
         21    1    1    2  503  502 -0.82025360483E+00  0.59642086843E+02 -0.90168251915E+01  0.60325404893E+02  0.00000000000E+00 0.  1.
</event>
<event>
 4    1  0.5548812E+002  0.4680380E+02  0.7546771E-02  0.1312658E+00
          2   -1    0    0  502    0  0.00000000000E+00  0.00000000000E+00  0.61261507425E+03  0.61261507425E+03  0.00000000000E+00 0.  1.
         -2   -1    0    0    0  501 -0.00000000000E+00 -0.00000000000E+00 -0.79661813316E+01  0.79661813316E+01  0.00000000000E+00 0. -1.
         21    1    1    2  502  503 -0.37383117465E+02 -0.28162005634E+02  0.53267757577E+03  0.53472983437E+03  0.00000000000E+00 0.  1.
         21    1    1    2  503  501  0.37383117465E+02  0.28162005634E+02  0.71971317150E+02  0.85851421217E+02  0.00000000000E+00 0. -1.
</event>
<event>
 4    1  0.5548812E+002  0.7857159E+02  0.7546771E-02  0.1207203E+00
          2   -1    0    0  503    0  0.00000000000E+00  0.00000000000E+00  0.50009542572E+03  0.50009542572E+03  0.00000000000E+00 0.  1.
         -2   -1    0    0    0  501 -0.00000000000E+00 -0.00000000000E+00 -0.32472573144E+02  0.32472573144E+02  0.00000000000E+00 0. -1.
         21    1    1    2  502  501  0.72723392574E+02 -0.29745626038E+02  0.24165516316E+02  0.82203809369E+02  0.00000000000E+00 0. -1.
         21    1    1    2  503  502 -0.72723392574E+02  0.29745626038E+02  0.44345733626E+03  0.45036418949E+03  0.00000000000E+00 0.  1.
</event>
<event>
 4    1  0.5548812E+002  0.2063216E+02  0.7546771E-02  0.1524582E+00
          2   -1    0    0  503    0  0.00000000000E+00  0.00000000000E+00  0.58963752414E+02  0.58963752414E+02  0.00000000000E+00 0.  1.
         -2   -1    0    0    0  501 -0.00000000000E+00 -0.00000000000E+00 -0.10823496906E+02  0.10823496906E+02  0.00000000000E+00 0. -1.
         21    1    1    2  502  501 -0.18071677574E+02  0.99549161126E+01  0.39348566902E+01  0.21004023003E+02  0.00000000000E+00 0. -1.
         21    1    1    2  503  502  0.18071677574E+02 -0.99549161126E+01  0.44205398818E+02  0.48783226316E+02  0.00000000000E+00 0.  1.
</event>
<event>
 4    1  0.5548812E+002  0.2691127E+02  0.7546771E-02  0.1448501E+00
          2   -1    0    0  503    0  0.00000000000E+00  0.00000000000E+00  0.36467158224E+02  0.36467158224E+02  0.00000000000E+00 0.  1.
         -2   -1    0    0    0  501 -0.00000000000E+00 -0.00000000000E+00 -0.23286075638E+02  0.23286075638E+02  0.00000000000E+00 0. -1.
         21    1    1    2  502  501 -0.23267589304E+02  0.13521671446E+02 -0.48703665511E+01  0.27348432881E+02  0.00000000000E+00 0. -1.
         21    1    1    2  503  502  0.23267589304E+02 -0.13521671446E+02  0.18051449138E+02  0.32404800982E+02  0.00000000000E+00 0.  1.
</event>
<event>
 4    1  0.5548812E+002  0.3136639E+02  0.7546771E-02  0.1408083E+00
          2   -1    0    0  502    0  0.00000000000E+00  0.00000000000E+00  0.68237269621E+02  0.68237269621E+02  0.00000000000E+00 0. -1.
         -2   -1    0    0    0  501 -0.00000000000E+00 -0.00000000000E+00 -0.13508259108E+03  0.13508259108E+03  0.00000000000E+00 0.  1.
         21    1    1    2  502  503  0.29146320846E+02  0.11590624679E+02  0.62658864910E+02  0.70071277647E+02  0.00000000000E+00 0. -1.
         21    1    1    2  503  501 -0.29146320846E+02 -0.11590624679E+02 -0.12950418637E+03  0.13324858306E+03  0.00000000000E+00 0.  1.
</event>
<event>
 4    1  0.5548812E+002  0.2464949E+02  0.7546771E-02  0.1472763E+00
          2   -1    0    0  503    0  0.00000000000E+00  0.00000000000E+00  0.25386589643E+04  0.25386589643E+04  0.00000000000E+00 0.  1.
         -2   -1    0    0    0  501 -0.00000000000E+00 -0.00000000000E+00 -0.26041198174E+00  0.26041198174E+00  0.00000000000E+00 0. -1.
         21    1    1    2  502  501  0.18973393117E+01 -0.24576359342E+02  0.90807004533E+03  0.90840453795E+03  0.00000000000E+00 0.  1.
         21    1    1    2  503  502 -0.18973393117E+01  0.24576359342E+02  0.16303285070E+04  0.16305148384E+04  0.00000000000E+00 0. -1.
</event>
<event>
 4    1  0.5548812E+002  0.3303396E+02  0.7546771E-02  0.1394938E+00
          2   -1    0    0  503    0  0.00000000000E+00  0.00000000000E+00  0.43410303079E+03  0.43410303079E+03  0.00000000000E+00 0.  1.
         -2   -1    0    0    0  501 -0.00000000000E+00 -0.00000000000E+00 -0.42073973511E+01  0.42073973511E+01  0.00000000000E+00 0. -1.
         21    1    1    2  502  501  0.29707995826E+02 -0.14445676238E+02  0.75903966193E+02  0.82780762631E+02  0.00000000000E+00 0. -1.
         21    1    1    2  503  502 -0.29707995826E+02  0.14445676238E+02  0.35399166725E+03  0.35552966551E+03  0.00000000000E+00 0.  1.
</event>
<event>
 4    1  0.5548812E+002  0.2553516E+02  0.7546771E-02  0.1462905E+00
          2   -1    0    0  502    0  0.00000000000E+00  0.00000000000E+00  0.18139711408E+04  0.18139711408E+04  0.00000000000E+00 0. -1.
         -2   -1    0    0    0  501 -0.00000000000E+00 -0.00000000000E+00 -0.13636570663E+01  0.13636570663E+01  0.00000000000E+00 0.  1.
         21    1    1    2  502  503 -0.36544364176E+01  0.25272307635E+02  0.16852083950E+04  0.16854018450E+04  0.00000000000E+00 0. -1.
         21    1    1    2  503  501  0.36544364176E+01 -0.25272307635E+02  0.12739908867E+03  0.12993295284E+03  0.00000000000E+00 0.  1.
</event>
<event>
 4    1  0.5548812E+002  0.2655930E+02  0.7546771E-02  0.1452086E+00
          2   -1    0    0  502    0  0.00000000000E+00  0.00000000000E+00  0.45468919311E+03  0.45468919311E+03  0.00000000000E+00 0. -1.
         -2   -1    0    0    0  501 -0.00000000000E+00 -0.00000000000E+00 -0.13676677685E+02  0.13676677685E+02  0.00000000000E+00 0.  1.
         21    1    1    2  502  503  0.49966831342E+01 -0.26085045595E+02  0.44100753809E+03  0.44180656977E+03  0.00000000000E+00 0. -1.
         21    1    1    2  503  501 -0.49966831342E+01  0.26085045595E+02  0.49773396962E-02  0.26559301022E+02  0.00000000000E+00 0.  1.
</event>
<event>
 4    1  0.5548812E+002  0.2061131E+02  0.7546771E-02  0.1524887E+00
          2   -1    0    0  502    0  0.00000000000E+00  0.00000000000E+00  0.19945152999E+03  0.19945152999E+03  0.00000000000E+00 0. -1.
         -2   -1    0    0    0  501 -0.00000000000E+00 -0.00000000000E+00 -0.21406970288E+01  0.21406970288E+01  0.00000000000E+00 0.  1.
         21    1    1    2  502  503  0.59692426564E+01 -0.19728011419E+02  0.91521082812E+02  0.93813298052E+02  0.00000000000E+00 0.  1.
         21    1    1    2  503  501 -0.59692426564E+01  0.19728011419E+02  0.10578975015E+03  0.10777892897E+03  0.00000000000E+00 0. -1.
</event>
<event>
 4    1  0.5548812E+002  0.2211517E+02  0.7546771E-02  0.1503918E+00
          2   -1    0    0  503    0  0.00000000000E+00  0.00000000000E+00  0.25420617253E+03  0.25420617253E+03  0.00000000000E+00 0.  1.
         -2   -1    0    0    0  501 -0.00000000000E+00 -0.00000000000E+00 -0.23559607850E+01  0.23559607850E+01  0.00000000000E+00 0. -1.
         21    1    1    2  502  501 -0.15879963633E+02 -0.15391801169E+02  0.18085695286E+03  0.18220405645E+03  0.00000000000E+00 0.  1.
         21    1    1    2  503  502  0.15879963633E+02  0.15391801169E+02  0.70993258876E+02  0.74358076858E+02  0.00000000000E+00 0. -1.
</event>
<event>
 4    1  0.5548812E+002  0.3744760E+02  0.7546771E-02  0.1364129E+00
          2   -1    0    0  502    0  0.00000000000E+00  0.00000000000E+00  0.55423936986E+03  0.55423936986E+03  0.00000000000E+00 0. -1.
         -2   -1    0    0    0  501 -0.00000000000E+00 -0.00000000000E+00 -0.62596992046E+01  0.62596992046E+01  0.00000000000E+00 0.  1.
         21    1    1    2  502  503  0.26221099018E+02 -0.26735306650E+02  0.49030893991E+03  0.49173690039E+03  0.00000000000E+00 0. -1.
         21    1    1    2  503  501 -0.26221099018E+02  0.26735306650E+02  0.57670730749E+02  0.68762168672E+02  0.00000000000E+00 0.  1.
</event>
<event>
 4    1  0.5548812E+002  0.3243996E+02  0.7546771E-02  0.1399513E+00
          2   -1    0    0  503    0  0.00000000000E+00  0.00000000000E+00  0.74940248237E+03  0.74940248237E+03  0.00000000000E+00 0. -1.
         -2   -1    0    0    0  501 -0.00000000000E+00 -0.00000000000E+00 -0.21660820163E+01  0.21660820163E+01  0.00000000000E+00 0.  1.
         21    1    1    2  502  501  0.31489424100E+02 -0.77953324150E+01  0.15075940248E+03  0.15421007903E+03  0.00000000000E+00 0.  1.
         21    1    1    2  503  502 -0.31489424100E+02  0.77953324150E+01  0.59647699786E+03  0.59735848535E+03  0.00000000000E+00 0. -1.
</event>
<event>
 4    1  0.5548812E+002  0.2231207E+02  0.7546771E-02  0.1501322E+00
          2   -1    0    0  503    0  0.00000000000E+00  0.00000000000E+00  0.32526109683E+03  0.32526109683E+03  0.00000000000E+00 0.  1.
         -2   -1    0    0    0  501 -0.00000000000E+00 -0.00000000000E+00 -0.15970055853E+01  0.15970055853E+01  0.00000000000E+00 0. -1.
         21    1    1    2  502  501  0.12340416259E+02 -0.18588779580E+02  0.12849404919E+03  0.13041682897E+03  0.00000000000E+00 0.  1.
         21    1    1    2  503  502 -0.12340416259E+02  0.18588779580E+02  0.19517004206E+03  0.19644127345E+03  0.00000000000E+00 0. -1.
</event>
<event>
 4    1  0.5548812E+002  0.2162171E+02  0.7546771E-02  0.1510571E+00
          2   -1    0    0  502    0  0.00000000000E+00  0.00000000000E+00  0.18008962691E+04  0.18008962691E+04  0.00000000000E+00 0. -1.
         -2   -1    0    0    0  501 -0.00000000000E+00 -0.00000000000E+00 -0.26010106949E+00  0.26010106949E+00  0.00000000000E+00 0.  1.
         21    1    1    2  502  503  0.11326945666E+02  0.18417351899E+02  0.94015368967E+03  0.94040228559E+03  0.00000000000E+00 0.  1.
         21    1    1    2  503  501 -0.11326945666E+02 -0.18417351899E+02  0.86048247840E+03  0.86075408462E+03  0.00000000000E+00 0. -1.
</event>
<event>
 4    1  0.5548812E+002  0.2229792E+02  0.7546771E-02  0.1501508E+00
          2   -1    0    0  502    0  0.00000000000E+00  0.00000000000E+00  0.16486499525E+04  0.16486499525E+04  0.00000000000E+00 0. -1.
         -2   -1    0    0    0  501 -0.00000000000E+00 -0.00000000000E+00 -0.30406970021E+00  0.30406970021E+00  0.00000000000E+00 0.  1.
         21    1    1    2  502  503  0.21657503148E+02  0.53056253336E+01  0.89880251064E+03  0.89907905672E+03  0.00000000000E+00 0. -1.
         21    1    1    2  503  501 -0.21657503148E+02 -0.53056253336E+01  0.74954337219E+03  0.74987496551E+03  0.00000000000E+00 0.  1.
</event>
<event>
 4    1  0.5548812E+002  0.2171150E+02  0.7546771E-02  0.1509344E+00
          2   -1    0    0  503    0  0.00000000000E+00  0.00000000000E+00  0.28222057433E+03  0.28222057433E+03  0.00000000000E+00 0.  1.
         -2   -1    0    0    0  501 -0.00000000000E+00 -0.00000000000E+00 -0.16817191918E+01  0.16817191918E+01  0.00000000000E+00 0. -1.
         21    1    1    2  502  501  0.21184567921E+02 -0.47543165282E+01  0.15197307009E+03  0.15351613426E+03  0.00000000000E+00 0.  1.
         21    1    1    2  503  502 -0.21184567921E+02  0.47543165282E+01  0.12856578505E+03  0.13038615927E+03  0.00000000000E+00 0. -1.
</event>
<event>
 4    1  0.5548812E+002  0.2289961E+02  0.7546771E-02  0.1493763E+00
          2   -1    0    0  502    0  0.00000000000E+00  0.00000000000E+00  0.20891860917E+01  0.20891860917E+01  0.00000000000E+00 0.  1.
         -2   -1    0    0    0  501 -0.00000000000E+00 -0.00000000000E+00 -0.35257520214E+03  0.35257520214E+03  0.00000000000E+00 0. -1.
         21    1    1    2  502  503 -0.10207972387E+02  0.20498522285E+02 -0.80062285519E+02  0.83272814764E+02  0.00000000000E+00 0.  1.
         21    1    1    2  503  501  0.10207972387E+02 -0.20498522285E+02 -0.27042373053E+03  0.27139157347E+03  0.00000000000E+00 0. -1.
</event>
<event>
 4    1  0.5548812E+002  0.2076558E+02  0.7546771E-02  0.1522638E+00
          2   -1    0    0  502    0  0.00000000000E+00  0.00000000000E+00  0.99412863524E+03  0.99412863524E+03  0.00000000000E+00 0. -1.
         -2   -1    0    0    0  501 -0.00000000000E+00 -0.00000000000E+00 -0.70519380232E+00  0.70519380232E+00  0.00000000000E+00 0.  1.
         21    1    1    2  502  503 -0.19546103360E+02  0.70113604314E+01  0.80531562318E+03  0.80558330560E+03  0.00000000000E+00 0. -1.
         21    1    1    2  503  501  0.19546103360E+02 -0.70113604314E+01  0.18810781826E+03  0.18925052344E+03  0.00000000000E+00 0.  1.
</event>
<event>
 4    1  0.5548812E+002  0.2400446E+02  0.7546771E-02  0.1480256E+00
          2   -1    0    0  502    0  0.00000000000E+00  0.00000000000E+00  0.10974153406E+03  0.10974153406E+03  0.00000000000E+00 0. -1.
         -2   -1    0    0    0  501 -0.00000000000E+00 -0.00000000000E+00 -0.14473713505E+02  0.14473713505E+02  0.00000000000E+00 0.  1.
         21    1    1    2  502  503  0.12219583647E+02 -0.20661462678E+02  0.97212315537E+02  0.10013215546E+03  0.00000000000E+00 0. -1.
         21    1    1    2  503  501 -0.12219583647E+02  0.20661462678E+02 -0.19444949854E+01  0.24083092103E+02  0.00000000000E+00 0.  1.
</event>
<event>
 4    1  0.5548812E+002  0.2280090E+02  0.7546771E-02  0.1495013E+00
          2   -1    0    0  503    0  0.00000000000E+00  0.00000000000E+00  0.11687467235E+04  0.11687467235E+04  0.00000000000E+00 0.  1.
         -2   -1    0    0    0  501 -0.00000000000E+00 -0.00000000000E+00 -0.10838532825E+01  0.10838532825E+01  0.00000000000E+00 0. -1.
         21    1    1    2  502  501  0.22662378713E+02  0.25095521866E+01  0.13470392833E+03  0.13662001892E+03  0.00000000000E+00 0. -1.
         21    1    1    2  503  502 -0.22662378713E+02 -0.25095521866E+01  0.10329589418E+04  0.10332105578E+04  0.00000000000E+00 0.  1.
</event>
<event>
 4    1  0.5548812E+002  0.2221395E+02  0.7546771E-02  0.1502612E+00
          2   -1    0    0  503    0  0.00000000000E+00  0.00000000000E+00  0.17149604081E+03  0.17149604081E+03  0.00000000000E+00 0. -1.
         -2   -1    0    0    0  501 -0.00000000000E+00 -0.00000000000E+00 -0.41737818423E+01  0.41737818423E+01  0.00000000000E+00 0.  1.
         21    1    1    2  502  501  0.55864315870E+01 -0.21500031804E+02  0.13261328432E+03  0.13446093397E+03  0.00000000000E+00 0. -1.
         21    1    1    2  503  502 -0.55864315870E+01  0.21500031804E+02  0.34708974644E+02  0.41208888681E+02  0.00000000000E+00 0.  1.
</event>
<event>
 4    1  0.5548812E+002  0.2421576E+02  0.7546771E-02  0.1477771E+00
          2   -1    0    0  503    0  0.00000000000E+00  0.00000000000E+00  0.14977044985E+04  0.14977044985E+04  0.00000000000E+00 0. -1.
         -2   -1    0    0    0  501 -0.00000000000E+00 -0.00000000000E+00 -0.66226198077E+00  0.66226198077E+00  0.00000000000E+00 0.  1.
         21    1    1    2  502  501 -0.16510082584E+02  0.17714964416E+02  0.26951672591E+03  0.27060241747E+03  0.00000000000E+00 0.  1.
         21    1    1    2  503  502  0.16510082584E+02 -0.17714964416E+02  0.12275255106E+04  0.12277643430E+04  0.00000000000E+00 0. -1.
</event>
<event>
 4    1 -0.5548812E+002  0.3112046E+02  0.7546771E-02  0.1410103E+00
          2   -1    0    0  503    0  0.00000000000E+00  0.00000000000E+00  0.23586527432E+00  0.23586527432E+00  0.00000000000E+00 0. -1.
         -2   -1    0    0    0  501 -0.00000000000E+00 -0.00000000000E+00 -0.41086169149E+04  0.41086169149E+04  0.00000000000E+00 0.  1.
         21    1    1    2  502  501 -0.27499889428E+02  0.14568421426E+02 -0.20031890022E+04  0.20034307229E+04  0.00000000000E+00 0.  1.
         21    1    1    2  503  502  0.27499889428E+02 -0.14568421426E+02 -0.21051920474E+04  0.21054220573E+04  0.00000000000E+00 0. -1.
</event>
<event>
 4    1  0.5548812E+002  0.2098162E+02  0.7546771E-02  0.1519527E+00
          2   -1    0    0  503    0  0.00000000000E+00  0.00000000000E+00  0.16846984751E+03  0.16846984751E+03  0.00000000000E+00 0.  1.
         -2   -1    0    0    0  501 -0.00000000000E+00 -0.00000000000E+00 -0.26264626367E+01  0.26264626367E+01  0.00000000000E+00 0. -1.
         21    1    1    2  502  501  0.14376760759E+02  0.15281927853E+02  0.89023663218E+02  0.91462785774E+02  0.00000000000E+00 0.  1.
         21    1    1    2  503  502 -0.14376760759E+02 -0.15281927853E+02  0.76819721658E+02  0.79633524375E+02  0.00000000000E+00 0. -1.
</event>
<event>
 4    1  0.5548812E+002  0.3166273E+02  0.7546771E-02  0.1405677E+00
          2   -1    0    0  503    0  0.00000000000E+00  0.00000000000E+00  0.28912538418E+01  0.28912538418E+01  0.00000000000E+00 0.  1.
         -2   -1    0    0    0  501 -0.00000000000E+00 -0.00000000000E+00 -0.60119806003E+03  0.60119806003E+03  0.00000000000E+00 0. -1.
         21    1    1    2  502  501  0.27220808672E+02  0.16172697922E+02 -0.49565495482E+03  0.49666524221E+03  0.00000000000E+00 0. -1.
         21    1    1    2  503  502 -0.27220808672E+02 -0.16172697922E+02 -0.10265185136E+03  0.10742407166E+03  0.00000000000E+00 0.  1.
</event>
<event>
 4    1  0.5548812E+002  0.2029312E+02  0.7546771E-02  0.1529601E+00
          2   -1    0    0  503    0  0.00000000000E+00  0.00000000000E+00  0.93240512928E+03  0.93240512928E+03  0.00000000000E+00 0.  1.
         -2   -1    0    0    0  501 -0.00000000000E+00 -0.00000000000E+00 -0.58132824077E+00  0.58132824077E+00  0.00000000000E+00 0. -1.
         21    1    1    2  502  501 -0.18130298576E+02 -0.91160911196E+01  0.23725965512E+03  0.23812592214E+03  0.00000000000E+00 0. -1.
         21    1    1    2  503  502  0.18130298576E+02  0.91160911196E+01  0.69456414591E+03  0.69486053538E+03  0.00000000000E+00 0.  1.
</event>
<event>
 4    1  0.5548812E+002  0.2590489E+02  0.7546771E-02  0.1458930E+00
          2   -1    0    0  503    0  0.00000000000E+00  0.00000000000E+00  0.62271493764E+01  0.62271493764E+01  0.00000000000E+00 0. -1.
         -2   -1    0    0    0  501 -0.00000000000E+00 -0.00000000000E+00 -0.33165344450E+03  0.33165344450E+03  0.00000000000E+00 0.  1.
         21    1    1    2  502  501 -0.58023465340E+01  0.25246709013E+02 -0.30151895868E+03  0.30262971761E+03  0.00000000000E+00 0.  1.
         21    1    1    2  503  502  0.58023465340E+01 -0.25246709013E+02 -0.23907336445E+02  0.35250876261E+02  0.00000000000E+00 0. -1.
</event>
<event>
 4    1  0.5548812E+002  0.2223496E+02  0.7546771E-02  0.1502335E+00
          2   -1    0    0  503    0  0.00000000000E+00  0.00000000000E+00  0.57481831334E+02  0.57481831334E+02  0.00000000000E+00 0. -1.
         -2   -1    0    0    0  501 -0.00000000000E+00 -0.00000000000E+00 -0.33697004169E+02  0.33697004169E+02  0.00000000000E+00 0.  1.
         21    1    1    2  502  501  0.17448906685E+02  0.13781470274E+02 -0.27450986344E+02  0.35326334634E+02  0.00000000000E+00 0.  1.
         21    1    1    2  503  502 -0.17448906685E+02 -0.13781470274E+02  0.51235813509E+02  0.55852500869E+02  0.00000000000E+00 0. -1.
</event>
<event>
 4    1  0.5548812E+002  0.2929806E+02  0.7546771E-02  0.1425796E+00
          2   -1    0    0  503    0  0.00000000000E+00  0.00000000000E+00  0.47655849751E+03  0.47655849751E+03  0.00000000000E+00 0.  1.
         -2   -1    0    0    0  501 -0.00000000000E+00 -0.00000000000E+00 -0.22302797263E+01  0.22302797263E+01  0.00000000000E+00 0. -1.
         21    1    1    2  502  501  0.20362560873E+02 -0.21065198723E+02  0.13216054948E+03  0.13536907816E+03  0.00000000000E+00 0.  1.
         21    1    1    2  503  502 -0.20362560873E+02  0.21065198723E+02  0.34216766830E+03  0.34341969908E+03  0.00000000000E+00 0. -1.
</event>
<event>
 4    1  0.5548812E+002  0.4819968E+02  0.7546771E-02  0.1306173E+00
          2   -1    0    0  502    0  0.00000000000E+00  0.00000000000E+00  0.14176559738E+02  0.14176559738E+02  0.00000000000E+00 0.  1.
         -2   -1    0    0    0  501 -0.00000000000E+00 -0.00000000000E+00 -0.17026476759E+03  0.17026476759E+03  0.00000000000E+00 0. -1.
         21    1    1    2  502  503  0.65922064017E+01 -0.47746744746E+02 -0.95906849870E+02  0.10733747096E+03  0.00000000000E+00 0.  1.
         21    1    1    2  503  501 -0.65922064017E+01  0.47746744746E+02 -0.60181357984E+02  0.77103856375E+02  0.00000000000E+00 0. -1.
</event>
<event>
 4    1  0.5548812E+002  0.3610494E+02  0.7546771E-02  0.1372957E+00
          2   -1    0    0  502    0  0.00000000000E+00  0.00000000000E+00  0.12759529735E+04  0.12759529735E+04  0.00000000000E+00 0.  1.
         -2   -1    0    0    0  501 -0.00000000000E+00 -0.00000000000E+00 -0.31784460394E+01  0.31784460394E+01  0.00000000000E+00 0. -1.
         21    1    1    2  502  503  0.34017991285E+02  0.12097224382E+02  0.11632325994E+04  0.11637927852E+04  0.00000000000E+00 0.  1.
         21    1    1    2  503  501 -0.34017991285E+02 -0.12097224382E+02  0.10954192806E+03  0.11533863434E+03  0.00000000000E+00 0. -1.
</event>
<event>
 4    1  0.5548812E+002  0.2366466E+02  0.7546771E-02  0.1484316E+00
          2   -1    0    0  502    0  0.00000000000E+00  0.00000000000E+00  0.64020133717E+03  0.64020133717E+03  0.00000000000E+00 0.  1.
         -2   -1    0    0    0  501 -0.00000000000E+00 -0.00000000000E+00 -0.25606175550E+01  0.25606175550E+01  0.00000000000E+00 0. -1.
         21    1    1    2  502  503  0.11249073861E+02  0.20820055079E+02  0.57959147640E+03  0.58007438822E+03  0.00000000000E+00 0.  1.
         21    1    1    2  503  501 -0.11249073861E+02 -0.20820055079E+02  0.58049243219E+02  0.62687566506E+02  0.00000000000E+00 0. -1.
</event>
<event>
 4    1  0.5548812E+002  0.2148730E+02  0.7546771E-02  0.1512420E+00
          2   -1    0    0  502    0  0.00000000000E+00  0.00000000000E+00  0.32969708505E+03  0.32969708505E+03  0.00000000000E+00 0.  1.
         -2   -1    0    0    0  501 -0.00000000000E+00 -0.00000000000E+00 -0.16668218524E+01  0.16668218524E+01  0.00000000000E+00 0. -1.
         21    1    1    2  502  503  0.17847833050E+02 -0.11964911329E+02  0.23025573986E+03  0.23125615665E+03  0.00000000000E+00 0.  1.
         21    1    1    2  503  501 -0.17847833050E+02  0.11964911329E+02  0.97774523332E+02  0.10010775025E+03  0.00000000000E+00 0. -1.
</event>
<event>
 4    1  0.5548812E+002  0.3014804E+02  0.7546771E-02  0.1418314E+00
          2   -1    0    0  502    0  0.00000000000E+00  0.00000000000E+00  0.20799215614E+02  0.20799215614E+02  0.00000000000E+00 0. -1.
         -2   -1    0    0    0  501 -0.00000000000E+00 -0.00000000000E+00 -0.43717413462E+02  0.43717413462E+02  0.00000000000E+00 0.  1.
         21    1    1    2  502  503 -0.25187292049E+02 -0.16568186654E+02 -0.12121510240E+02  0.32493622455E+02  0.00000000000E+00 0.  1.
         21    1    1    2  503  501  0.25187292049E+02  0.16568186654E+02 -0.10796687608E+02  0.32023006621E+02  0.00000000000E+00 0. -1.
</event>
<event>
 4    1  0.5548812E+002  0.2707141E+02  0.7546771E-02  0.1446892E+00
          2   -1    0    0  502    0  0.00000000000E+00  0.00000000000E+00  0.24300782693E+03  0.24300782693E+03  0.00000000000E+00 0. -1.
         -2   -1    0    0    0  501 -0.00000000000E+00 -0.00000000000E+00 -0.38194180744E+01  0.38194180744E+01  0.00000000000E+00 0.  1.
         21    1    1    2  502  503  0.19083767083E+02 -0.19200811443E+02  0.17620395156E+03  0.17827140508E+03  0.00000000000E+00 0. -1.
         21    1    1    2  503  501 -0.19083767083E+02  0.19200811443E+02  0.62984457305E+02  0.68555839928E+02  0.00000000000E+00 0.  1.
</event>
<event>
 4    1  0.5548812E+002  0.2202356E+02  0.7546771E-02  0.1505137E+00
          2   -1    0    0  502    0  0.00000000000E+00  0.00000000000E+00  0.63143237649E+01  0.63143237649E+01  0.00000000000E+00 0. -1.
         -2   -1    0    0    0  501 -0.00000000000E+00 -0.00000000000E+00 -0.10748319728E+03  0.10748319728E+03  0.00000000000E+00 0.  1.
         21    1    1    2  502  503  0.13079527634E+02  0.17719003284E+02 -0.20191405477E+02  0.29878587243E+02  0.00000000000E+00 0. -1.
         21    1    1    2  503  501 -0.13079527634E+02 -0.17719003284E+02 -0.80977468036E+02  0.83918933799E+02  0.00000000000E+00 0.  1.
</event>
<event>
 4    1  0.5548812E+002  0.2147044E+02  0.7546771E-02  0.1512653E+00
          2   -1    0    0  502    0  0.00000000000E+00  0.00000000000E+00  0.23159259517E+01  0.23159259517E+01  0.00000000000E+00 0. -1.
         -2   -1    0    0    0  501 -0.00000000000E+00 -0.00000000000E+00 -0.20507523867E+03  0.20507523867E+03  0.00000000000E+00 0.  1.
         21    1    1    2  502  503  0.11307539124E+02 -0.18251557174E+02 -0.83602064770E+02  0.86315033535E+02  0.00000000000E+00 0. -1.
         21    1    1    2  503  501 -0.11307539124E+02  0.18251557174E+02 -0.11915724795E+03  0.12107613109E+03  0.00000000000E+00 0.  1.
</event>
<event>
 4    1  0.5548812E+002  0.2002271E+02  0.7546771E-02  0.1533689E+00
          2   -1    0    0  503    0  0.00000000000E+00  0.00000000000E+00  0.26008328702E+02  0.26008328702E+02  0.00000000000E+00 0.  1.
         -2   -1    0    0    0  501 -0.00000000000E+00 -0.00000000000E+00 -0.17399782587E+02  0.17399782587E+02  0.00000000000E+00 0. -1.
         21    1    1    2  502  501  0.18880394922E+02  0.66663149522E+01  0.11635297264E+02  0.23157918945E+02  0.00000000000E+00 0.  1.
         21    1    1    2  503  502 -0.18880394922E+02 -0.66663149522E+01 -0.30267511492E+01  0.20250192344E+02  0.00000000000E+00 0. -1.
</event>
<event>
 4    1  0.5548812E+002  0.2312749E+02  0.7546771E-02  0.1490903E+00
          2   -1    0    0  503    0  0.00000000000E+00  0.00000000000E+00  0.32783433395E+02  0.32783433395E+02  0.00000000000E+00 0. -1.
         -2   -1    0    0    0  501 -0.00000000000E+00 -0.00000000000E+00 -0.20433880804E+02  0.20433880804E+02  0.00000000000E+00 0.  1.
         21    1    1    2  502  501 -0.18420533978E+02  0.13984442997E+02  0.18120338141E+02  0.29380731310E+02  0.00000000000E+00 0. -1.
         21    1    1    2  503  502  0.18420533978E+02 -0.13984442997E+02 -0.57707855504E+01  0.23836582889E+02  0.00000000000E+00 0.  1.
</event>
<event>
 4    1  0.5548812E+002  0.2598661E+02  0.7546771E-02  0.1458062E+00
          2   -1    0    0  503    0  0.00000000000E+00  0.00000000000E+00  0.79666050269E+02  0.79666050269E+02  0.00000000000E+00 0. -1.
         -2   -1    0    0    0  501 -0.00000000000E+00 -0.00000000000E+00 -0.11652589216E+02  0.11652589216E+02  0.00000000000E+00 0.  1.
         21    1    1    2  502  501 -0.25985613330E+02  0.22786644401E+00  0.10169713435E+02  0.27905682120E+02  0.00000000000E+00 0.  1.
         21    1    1    2  503  502  0.25985613330E+02 -0.22786644401E+00  0.57843747618E+02  0.63412957365E+02  0.00000000000E+00 0. -1.
</event>
<event>
 4    1  0.5548812E+002  0.2432363E+02  0.7546771E-02  0.1476514E+00
          2   -1    0    0  502    0  0.00000000000E+00  0.00000000000E+00  0.26171265807E+04  0.26171265807E+04  0.00000000000E+00 0.  1.
         -2   -1    0    0    0  501 -0.00000000000E+00 -0.00000000000E+00 -0.25967153392E+00  0.25967153392E+00  0.00000000000E+00 0. -1.
         21    1    1    2  502  503  0.20081211367E+02  0.13725295774E+02  0.17792397561E+04  0.17794060101E+04  0.00000000000E+00 0. -1.
         21    1    1    2  503  501 -0.20081211367E+02 -0.13725295774E+02  0.83762715298E+03  0.83798024213E+03  0.00000000000E+00 0.  1.
</event>
<event>
 4    1  0.5548812E+002  0.2302646E+02  0.7546771E-02  0.1492166E+00
          2   -1    0    0  503    0  0.00000000000E+00  0.00000000000E+00  0.40187362058E+02  0.40187362058E+02  0.00000000000E+00 0.  1.
         -2   -1    0    0    0  501 -0.00000000000E+00 -0.00000000000E+00 -0.15587559736E+02  0.15587559736E+02  0.00000000000E+00 0. -1.
         21    1    1    2  502  501 -0.20649080204E+02 -0.10189870594E+02  0.13710672774E+01  0.23067245207E+02  0.00000000000E+00 0.  1.
         21    1    1    2  503  502  0.20649080204E+02  0.10189870594E+02  0.23228735044E+02  0.32707676587E+02  0.00000000000E+00 0. -1.
</event>
<event>
 4    1  0.5548812E+002  0.2737945E+02  0.7546771E-02  0.1443833E+00
          2   -1    0    0  502    0  0.00000000000E+00  0.00000000000E+00  0.63837283704E+03  0.63837283704E+03  0.00000000000E+00 0. -1.
         -2   -1    0    0    0  501 -0.00000000000E+00 -0.00000000000E+00 -0.11837366123E+01  0.11837366123E+01  0.00000000000E+00 0.  1.
         21    1    1    2  502  503  0.20924363302E+02  0.17658005472E+02  0.34716287349E+03  0.34824085754E+03  0.00000000000E+00 0.  1.
         21    1    1    2  503  501 -0.20924363302E+02 -0.17658005472E+02  0.29002622694E+03  0.29131571611E+03  0.00000000000E+00 0. -1.
</event>
<event>
 4    1  0.5548812E+002  0.2041052E+02  0.7546771E-02  0.1527850E+00
          2   -1    0    0  503    0  0.00000000000E+00  0.00000000000E+00  0.11726349591E+01  0.11726349591E+01  0.00000000000E+00 0. -1.
         -2   -1    0    0    0  501 -0.00000000000E+00 -0.00000000000E+00 -0.76279518325E+03  0.76279518325E+03  0.00000000000E+00 0.  1.
         21    1    1    2  502  501  0.83880280283E+01 -0.18607262805E+02 -0.66001687763E+03  0.66033239206E+03  0.00000000000E+00 0.  1.
         21    1    1    2  503  502 -0.83880280283E+01  0.18607262805E+02 -0.10160567066E+03  0.10363542615E+03  0.00000000000E+00 0. -1.
</event>
<event>
 4    1  0.5548812E+002  0.3777291E+02  0.7546771E-02  0.1362055E+00
          2   -1    0    0  502    0  0.00000000000E+00  0.00000000000E+00  0.11586784936E+02  0.11586784936E+02  0.00000000000E+00 0.  1.
         -2   -1    0    0    0  501 -0.00000000000E+00 -0.00000000000E+00 -0.13384929960E+03  0.13384929960E+03  0.00000000000E+00 0. -1.
         21    1    1    2  502  503 -0.28678595535E+01  0.37663884895E+02 -0.40561867737E+02  0.55426148686E+02  0.00000000000E+00 0.  1.
         21    1    1    2  503  501  0.28678595535E+01 -0.37663884895E+02 -0.81700646931E+02  0.90009935855E+02  0.00000000000E+00 0. -1.
</event>
<event>
 4    1  0.5548812E+002  0.2119601E+02  0.7546771E-02  0.1516485E+00
          2   -1    0    0  502    0  0.00000000000E+00  0.00000000000E+00  0.63207511475E+02  0.63207511475E+02  0.00000000000E+00 0.  1.
         -2   -1    0    0    0  501 -0.00000000000E+00 -0.00000000000E+00 -0.37172614085E+02  0.37172614085E+02  0.00000000000E+00 0. -1.
         21    1    1    2  502  503  0.60160643817E+01  0.20324310691E+02  0.58154684453E+02  0.61896994753E+02  0.00000000000E+00 0.  1.
         21    1    1    2  503  501 -0.60160643817E+01 -0.20324310691E+02 -0.32119787062E+02  0.38483130806E+02  0.00000000000E+00 0. -1.
</event>
<event>
 4    1  0.5548812E+002  0.2400012E+02  0.7546771E-02  0.1480307E+00
          2   -1    0    0  502    0  0.00000000000E+00  0.00000000000E+00  0.10330338463E+02  0.10330338463E+02  0.00000000000E+00 0. -1.
         -2   -1    0    0    0  501 -0.00000000000E+00 -0.00000000000E+00 -0.62330798426E+02  0.62330798426E+02  0.00000000000E+00 0.  1.
         21    1    1    2  502  503 -0.17695204464E+02  0.16213742178E+02 -0.14203147209E+02  0.27887902163E+02  0.00000000000E+00 0.  1.
         21    1    1    2  503  501  0.17695204464E+02 -0.16213742178E+02 -0.37797312753E+02  0.44773234725E+02  0.00000000000E+00 0. -1.
</event>
<event>
 4    1  0.5548812E+002  0.2767215E+02  0.7546771E-02  0.1440971E+00
          2   -1    0    0  502    0  0.00000000000E+00  0.00000000000E+00  0.84852463078E+02  0.84852463078E+02  0.00000000000E+00 0. -1.
         -2   -1    0    0    0  501 -0.00000000000E+00 -0.00000000000E+00 -0.94843364889E+01  0.94843364889E+01  0.00000000000E+00 0.  1.
         21    1    1    2  502  503  0.27506717477E+02  0.30213325636E+01  0.48070500787E+02  0.55466395257E+02  0.00000000000E+00 0. -1.
         21    1    1    2  503  501 -0.27506717477E+02 -0.30213325636E+01  0.27297625802E+02  0.38870404310E+02  0.00000000000E+00 0.  1.
</event>
<event>
 4    1  0.5548812E+002  0.2137474E+02  0.7546771E-02  0.1513981E+00
          2   -1    0    0  502    0  0.00000000000E+00  0.00000000000E+00  0.32882342393E+02  0.32882342393E+02  0.00000000000E+00 0. -1.
         -2   -1    0    0    0  501 -0.00000000000E+00 -0.00000000000E+00 -0.18792460600E+02  0.18792460600E+02  0.00000000000E+00 0.  1.
         21    1    1    2  502  503 -0.15904454222E+02  0.14280328940E+02  0.20235717955E+02  0.29434057483E+02  0.00000000000E+00 0. -1.
         21    1    1    2  503  501  0.15904454222E+02 -0.14280328940E+02 -0.61458361622E+01  0.22240745510E+02  0.00000000000E+00 0.  1.
</event>
<event>
 4    1  0.5548812E+002  0.2074538E+02  0.7546771E-02  0.1522931E+00
          2   -1    0    0  503    0  0.00000000000E+00  0.00000000000E+00  0.33627073181E+03  0.33627073181E+03  0.00000000000E+00 0.  1.
         -2   -1    0    0    0  501 -0.00000000000E+00 -0.00000000000E+00 -0.22740526982E+01  0.22740526982E+01  0.00000000000E+00 0. -1.
         21    1    1    2  502  501 -0.14575117740E+02 -0.14762673735E+02  0.55073388612E+02  0.58851072430E+02  0.00000000000E+00 0. -1.
         21    1    1    2  503  502  0.14575117740E+02  0.14762673735E+02  0.27892329050E+03  0.27969371208E+03  0.00000000000E+00 0.  1.
</event>
<event>
 4    1  0.5548812E+002  0.2203641E+02  0.7546771E-02  0.1504966E+00
          2   -1    0    0  503    0  0.00000000000E+00  0.00000000000E+00  0.42536027708E+02  0.42536027708E+02  0.00000000000E+00 0. -1.
         -2   -1    0    0    0  501 -0.00000000000E+00 -0.00000000000E+00 -0.11577558861E+02  0.11577558861E+02  0.00000000000E+00 0.  1.
         21    1    1    2  502  501 -0.16407601758E+02  0.14710332197E+02  0.12285826146E+02  0.25229839335E+02  0.00000000000E+00 0. -1.
         21    1    1    2  503  502  0.16407601758E+02 -0.14710332197E+02  0.18672642701E+02  0.28883747233E+02  0.00000000000E+00 0.  1.
</event>
<event>
 4    1  0.5548812E+002  0.3398222E+02  0.7546771E-02  0.1387863E+00
          2   -1    0    0  502    0  0.00000000000E+00  0.00000000000E+00  0.92036794962E+02  0.92036794962E+02  0.00000000000E+00 0. -1.
         -2   -1    0    0    0  501 -0.00000000000E+00 -0.00000000000E+00 -0.12743575638E+02  0.12743575638E+02  0.00000000000E+00 0.  1.
         21    1    1    2  502  503 -0.30474381272E+02  0.15036729441E+02  0.33140770069E+02  0.47466849347E+02  0.00000000000E+00 0. -1.
         21    1    1    2  503  501  0.30474381272E+02 -0.15036729441E+02  0.46152449255E+02  0.57313521253E+02  0.00000000000E+00 0.  1.
</event>
<event>
 4    1  0.5548812E+002  0.2097338E+02  0.7546771E-02  0.1519645E+00
          2   -1    0    0  503    0  0.00000000000E+00  0.00000000000E+00  0.31900481255E+02  0.31900481255E+02  0.00000000000E+00 0. -1.
         -2   -1    0    0    0  501 -0.00000000000E+00 -0.00000000000E+00 -0.24357930609E+02  0.24357930609E+02  0.00000000000E+00 0.  1.
         21    1    1    2  502  501  0.77823523742E+01 -0.19476076296E+02 -0.14757572248E+02  0.25645048158E+02  0.00000000000E+00 0.  1.
         21    1    1    2  503  502 -0.77823523742E+01  0.19476076296E+02  0.22300122894E+02  0.30613363707E+02  0.00000000000E+00 0. -1.
</event>
<event>
 4    1  0.5548812E+002  0.2010234E+02  0.7546771E-02  0.1532477E+00
          2   -1    0    0  502    0  0.00000000000E+00  0.00000000000E+00  0.63120893525E+02  0.63120893525E+02  0.00000000000E+00 0.  1.
         -2   -1    0    0    0  501 -0.00000000000E+00 -0.00000000000E+00 -0.45874649765E+02  0.45874649765E+02  0.00000000000E+00 0. -1.
         21    1    1    2  502  503  0.18229092520E+02 -0.84737456233E+01  0.59175330769E+02  0.62496591512E+02  0.00000000000E+00 0.  1.
         21    1    1    2  503  501 -0.18229092520E+02  0.84737456233E+01 -0.41929087009E+02  0.46498951778E+02  0.00000000000E+00 0. -1.
</event>
<event>
 4    1  0.5548812E+002  0.2037822E+02  0.7546771E-02  0.1528330E+00
          2   -1    0    0  502    0  0.00000000000E+00  0.00000000000E+00  0.64131394684E+03  0.64131394684E+03  0.00000000000E+00 0. -1.
         -2   -1    0    0    0  501 -0.00000000000E+00 -0.00000000000E+00 -0.25740499017E+01  0.25740499017E+01  0.00000000000E+00 0.  1.
         21    1    1    2  502  503  0.18968656668E+02 -0.74472718450E+01  0.59789116958E+03  0.59823834920E+03  0.00000000000E+00 0. -1.
         21    1    1    2  503  501 -0.18968656668E+02  0.74472718450E+01  0.40848727358E+02  0.45649647540E+02  0.00000000000E+00 0.  1.
</event>
<event>
 4    1  0.5548812E+002  0.3325154E+02  0.7546771E-02  0.1393290E+00
          2   -1    0    0  502    0  0.00000000000E+00  0.00000000000E+00  0.75684473051E+03  0.75684473051E+03  0.00000000000E+00 0. -1.
         -2   -1    0    0    0  501 -0.00000000000E+00 -0.00000000000E+00 -0.14609142611E+01  0.14609142611E+01  0.00000000000E+00 0.  1.
         21    1    1    2  502  503  0.31998924890E+02  0.90406691305E+01  0.37606459778E+03  0.37753178224E+03  0.00000000000E+00 0.  1.
         21    1    1    2  503  501 -0.31998924890E+02 -0.90406691305E+01  0.37931921846E+03  0.38077386253E+03  0.00000000000E+00 0. -1.
</event>
<event>
 4    1  0.5548812E+002  0.7017693E+02  0.7546771E-02  0.1228695E+00
          2   -1    0    0  502    0  0.00000000000E+00  0.00000000000E+00  0.15658629662E+04  0.15658629662E+04  0.00000000000E+00 0.  1.
         -2   -1    0    0    0  501 -0.00000000000E+00 -0.00000000000E+00 -0.31480224680E+01  0.31480224680E+01  0.00000000000E+00 0. -1.
         21    1    1    2  502  503 -0.21453309134E+02 -0.66817342291E+02  0.75747040329E+03  0.76071427853E+03  0.00000000000E+00 0. -1.
         21    1    1    2  503  501  0.21453309134E+02  0.66817342291E+02  0.80524454048E+03  0.80829671017E+03  0.00000000000E+00 0.  1.
</event>
<event>
 4    1  0.5548812E+002  0.3542315E+02  0.7546771E-02  0.1377612E+00
          2   -1    0    0  503    0  0.00000000000E+00  0.00000000000E+00  0.18941800352E+04  0.18941800352E+04  0.00000000000E+00 0. -1.
         -2   -1    0    0    0  501 -0.00000000000E+00 -0.00000000000E+00 -0.13764514355E+01  0.13764514355E+01  0.00000000000E+00 0.  1.
         21    1    1    2  502  501 -0.14842457905E+02 -0.32163662526E+02  0.26378683148E+03  0.26615463965E+03  0.00000000000E+00 0.  1.
         21    1    1    2  503  502  0.14842457905E+02  0.32163662526E+02  0.16290167523E+04  0.16294018470E+04  0.00000000000E+00 0. -1.
</event>
<event>
 4    1  0.5548812E+002  0.2989833E+02  0.7546771E-02  0.1420482E+00
          2   -1    0    0  502    0  0.00000000000E+00  0.00000000000E+00  0.30647245090E+03  0.30647245090E+03  0.00000000000E+00 0. -1.
         -2   -1    0    0    0  501 -0.00000000000E+00 -0.00000000000E+00 -0.20428594301E+02  0.20428594301E+02  0.00000000000E+00 0.  1.
         21    1    1    2  502  503  0.10065267052E+02  0.28153157260E+02  0.29435462063E+03  0.29586914768E+03  0.00000000000E+00 0. -1.
         21    1    1    2  503  501 -0.10065267052E+02 -0.28153157260E+02 -0.83107640334E+01  0.31031897515E+02  0.00000000000E+00 0.  1.
</event>
<event>
 4    1  0.5548812E+002  0.2207894E+02  0.7546771E-02  0.1504400E+00
          2   -1    0    0  503    0  0.00000000000E+00  0.00000000000E+00  0.94054403417E+02  0.94054403417E+02  0.00000000000E+00 0.  1.
         -2   -1    0    0    0  501 -0.00000000000E+00 -0.00000000000E+00 -0.54819312843E+01  0.54819312843E+01  0.00000000000E+00 0. -1.
         21    1    1    2  502  501 -0.14918250500E+02  0.16276526622E+02  0.32663591634E+02  0.39425749648E+02  0.00000000000E+00 0. -1.
         21    1    1    2  503  502  0.14918250500E+02 -0.16276526622E+02  0.55908880499E+02  0.60110585054E+02  0.00000000000E+00 0.  1.
</event>
<event>
 4    1  0.5548812E+002  0.3277856E+02  0.7546771E-02  0.1396891E+00
          2   -1    0    0  503    0  0.00000000000E+00  0.00000000000E+00  0.37261692696E+03  0.37261692696E+03  0.00000000000E+00 0.  1.
         -2   -1    0    0    0  501 -0.00000000000E+00 -0.00000000000E+00 -0.46089222006E+01  0.46089222006E+01  0.00000000000E+00 0. -1.
         21    1    1    2  502  501 -0.32460601302E+02 -0.45545042794E+01  0.68599770286E+02  0.76028696092E+02  0.00000000000E+00 0. -1.
         21    1    1    2  503  502  0.32460601302E+02  0.45545042794E+01  0.29940823447E+03  0.30119715307E+03  0.00000000000E+00 0.  1.
</event>
<event>
 4    1  0.5548812E+002  0.2595344E+02  0.7546771E-02  0.1458414E+00
          2   -1    0    0  503    0  0.00000000000E+00  0.00000000000E+00  0.33869726837E+03  0.33869726837E+03  0.00000000000E+00 0.  1.
         -2   -1    0    0    0  501 -0.00000000000E+00 -0.00000000000E+00 -0.44626823942E+01  0.44626823942E+01  0.00000000000E+00 0. -1.
         21    1    1    2  502  501 -0.22037613293E+02 -0.13708565366E+02  0.39366586683E+02  0.47151980988E+02  0.00000000000E+00 0. -1.
         21    1    1    2  503  502  0.22037613293E+02  0.13708565366E+02  0.29486799929E+03  0.29600796978E+03  0.00000000000E+00 0.  1.
</event>
<event>
 4    1  0.5548812E+002  0.2375267E+02  0.7546771E-02  0.1483257E+00
          2   -1    0    0  502    0  0.00000000000E+00  0.00000000000E+00  0.15367053999E+02  0.15367053999E+02  0.00000000000E+00 0. -1.
         -2   -1    0    0    0  501 -0.00000000000E+00 -0.00000000000E+00 -0.64108074790E+02  0.64108074790E+02  0.00000000000E+00 0.  1.
         21    1    1    2  502  503  0.15827812750E+02 -0.17710722575E+02  0.16054419003E+01  0.23806864435E+02  0.00000000000E+00 0. -1.
         21    1    1    2  503  501 -0.15827812750E+02  0.17710722575E+02 -0.50346462692E+02  0.55668264353E+02  0.00000000000E+00 0.  1.
</event>
<event>
 4    1  0.5548812E+002  0.2393514E+02  0.7546771E-02  0.1481078E+00
          2   -1    0    0  503    0  0.00000000000E+00  0.00000000000E+00  0.73729455883E+03  0.73729455883E+03  0.00000000000E+00 0. -1.
         -2   -1    0    0    0  501 -0.00000000000E+00 -0.00000000000E+00 -0.12575345235E+01  0.12575345235E+01  0.00000000000E+00 0.  1.
         21    1    1    2  502  501  0.19528440730E+02 -0.13839469806E+02  0.13975027839E+03  0.14178515872E+03  0.00000000000E+00 0.  1.
         21    1    1    2  503  502 -0.19528440730E+02  0.13839469806E+02  0.59628674592E+03  0.59676693464E+03  0.00000000000E+00 0. -1.
</event>
<event>
 4    1  0.5548812E+002  0.2198660E+02  0.7546771E-02  0.1505631E+00
          2   -1    0    0  502    0  0.00000000000E+00  0.00000000000E+00  0.88726486533E+03  0.88726486533E+03  0.00000000000E+00 0. -1.
         -2   -1    0    0    0  501 -0.00000000000E+00 -0.00000000000E+00 -0.41234190583E+01  0.41234190583E+01  0.00000000000E+00 0.  1.
         21    1    1    2  502  503  0.71766552471E+01  0.20782357815E+02  0.85677703744E+03  0.85705910103E+03  0.00000000000E+00 0. -1.
         21    1    1    2  503  501 -0.71766552471E+01 -0.20782357815E+02  0.26364408831E+02  0.34329183356E+02  0.00000000000E+00 0.  1.
</event>
<event>
 4    1  0.5548812E+002  0.2154325E+02  0.7546771E-02  0.1511648E+00
          2   -1    0    0  503    0  0.00000000000E+00  0.00000000000E+00  0.65990978453E+02  0.65990978453E+02  0.00000000000E+00 0.  1.
         -2   -1    0    0    0  501 -0.00000000000E+00 -0.00000000000E+00 -0.16530606699E+02  0.16530606699E+02  0.00000000000E+00 0. -1.
         21    1    1    2  502  501 -0.18846069947E+02 -0.10437296012E+02 -0.65451020897E+01  0.22515547115E+02  0.00000000000E+00 0. -1.
         21    1    1    2  503  502  0.18846069947E+02  0.10437296012E+02  0.56005473844E+02  0.60006038038E+02  0.00000000000E+00 0.  1.
</event>
<event>
 4    1  0.5548812E+002  0.2211032E+02  0.7546771E-02  0.1503983E+00
          2   -1    0    0  503    0  0.00000000000E+00  0.00000000000E+00  0.22703506214E+03  0.22703506214E+03  0.00000000000E+00 0.  1.
         -2   -1    0    0    0  501 -0.00000000000E+00 -0.00000000000E+00 -0.60681460876E+01  0.60681460876E+01  0.00000000000E+00 0. -1.
         21    1    1    2  502  501  0.47049838542E+01  0.21603917526E+02  0.16867549208E+02  0.27809716680E+02  0.00000000000E+00 0. -1.
         21    1    1    2  503  502 -0.47049838542E+01 -0.21603917526E+02  0.20409936684E+03  0.20529349155E+03  0.00000000000E+00 0.  1.
</event>
<event>
 4    1  0.5548812E+002  0.2953192E+02  0.7546771E-02  0.1423708E+00
          2   -1    0    0  503    0  0.00000000000E+00  0.00000000000E+00  0.17511255638E+04  0.17511255638E+04  0.00000000000E+00 0.  1.
         -2   -1    0    0    0  501 -0.00000000000E+00 -0.00000000000E+00 -0.49854357202E+00  0.49854357202E+00  0.00000000000E+00 0. -1.
         21    1    1    2  502  501 -0.15266969557E+02 -0.25279518534E+02  0.90308775451E+03  0.90357048799E+03  0.00000000000E+00 0. -1.
         21    1    1    2  503  502  0.15266969557E+02  0.25279518534E+02  0.84753926568E+03  0.84805361934E+03  0.00000000000E+00 0.  1.
</event>
<event>
 4    1  0.5548812E+002  0.2007847E+02  0.7546771E-02  0.1532840E+00
          2   -1    0    0  503    0  0.00000000000E+00  0.00000000000E+00  0.78576452464E+03  0.78576452464E+03  0.00000000000E+00 0. -1.
         -2   -1    0    0    0  501 -0.00000000000E+00 -0.00000000000E+00 -0.57235360576E+00  0.57235360576E+00  0.00000000000E+00 0.  1.
         21    1    1    2  502  501  0.13648659167E+02  0.14726137167E+02  0.26605042299E+03  0.26680699501E+03  0.00000000000E+00 0.  1.
         21    1    1    2  503  502 -0.13648659167E+02 -0.14726137167E+02  0.51914174804E+03  0.51952988323E+03  0.00000000000E+00 0. -1.
</event>
<event>
 4    1  0.5548812E+002  0.3382617E+02  0.7546771E-02  0.1389009E+00
          2   -1    0    0  503    0  0.00000000000E+00  0.00000000000E+00  0.86198114358E+02  0.86198114358E+02  0.00000000000E+00 0. -1.
         -2   -1    0    0    0  501 -0.00000000000E+00 -0.00000000000E+00 -0.27662559979E+02  0.27662559979E+02  0.00000000000E+00 0.  1.
         21    1    1    2  502  501  0.32172200811E+02  0.10447944427E+02 -0.11790751956E+02  0.35822226054E+02  0.00000000000E+00 0.  1.
         21    1    1    2  503  502 -0.32172200811E+02 -0.10447944427E+02  0.70326306335E+02  0.78038448283E+02  0.00000000000E+00 0. -1.
</event>
<event>
 4    1  0.5548812E+002  0.2109672E+02  0.7546771E-02  0.1517888E+00
          2   -1    0    0  502    0  0.00000000000E+00  0.00000000000E+00  0.51944489390E+02  0.51944489390E+02  0.00000000000E+00 0. -1.
         -2   -1    0    0    0  501 -0.00000000000E+00 -0.00000000000E+00 -0.10162761574E+02  0.10162761574E+02  0.00000000000E+00 0.  1.
         21    1    1    2  502  503 -0.83381424180E+01  0.19379033614E+02  0.85903000036E+01  0.22778604368E+02  0.00000000000E+00 0. -1.
         21    1    1    2  503  501  0.83381424180E+01 -0.19379033614E+02  0.33191427812E+02  0.39328646595E+02  0.00000000000E+00 0.  1.
</event>
<event>
 4    1  0.5548812E+002  0.2007366E+02  0.7546771E-02  0.1532913E+00
          2   -1    0    0  502    0  0.00000000000E+00  0.00000000000E+00  0.12024335434E+03  0.12024335434E+03  0.00000000000E+00 0. -1.
         -2   -1    0    0    0  501 -0.00000000000E+00 -0.00000000000E+00 -0.43690471400E+02  0.43690471400E+02  0.00000000000E+00 0.  1.
         21    1    1    2  502  503 -0.19613236773E+02 -0.42746467060E+01  0.11703714564E+03  0.11874613729E+03  0.00000000000E+00 0. -1.
         21    1    1    2  503  501  0.19613236773E+02  0.42746467060E+01 -0.40484262701E+02  0.45187688452E+02  0.00000000000E+00 0.  1.
</event>
<event>
 4    1  0.5548812E+002  0.2621282E+02  0.7546771E-02  0.1455680E+00
          2   -1    0    0  502    0  0.00000000000E+00  0.00000000000E+00  0.35379979511E+03  0.35379979511E+03  0.00000000000E+00 0.  1.
         -2   -1    0    0    0  501 -0.00000000000E+00 -0.00000000000E+00 -0.68267670521E+01  0.68267670521E+01  0.00000000000E+00 0. -1.
         21    1    1    2  502  503 -0.22378874996E+02 -0.13649088867E+02  0.32601045672E+03  0.32706257745E+03  0.00000000000E+00 0.  1.
         21    1    1    2  503  501  0.22378874996E+02  0.13649088867E+02  0.20962571332E+02  0.33563984713E+02  0.00000000000E+00 0. -1.
</event>
<event>
 4    1  0.5548812E+002  0.2655993E+02  0.7546771E-02  0.1452079E+00
          2   -1    0    0  502    0  0.00000000000E+00  0.00000000000E+00  0.27027874259E+01  0.27027874259E+01  0.00000000000E+00 0. -1.
         -2   -1    0    0    0  501 -0.00000000000E+00 -0.00000000000E+00 -0.26279464449E+03  0.26279464449E+03  0.00000000000E+00 0.  1.
         21    1    1    2  502  503  0.26510391564E+02  0.16213913523E+01 -0.14101349868E+03  0.14349298443E+03  0.00000000000E+00 0.  1.
         21    1    1    2  503  501 -0.26510391564E+02 -0.16213913523E+01 -0.11907835839E+03  0.12200444749E+03  0.00000000000E+00 0. -1.
</event>
<event>
 4    1  0.5548812E+002  0.2091778E+02  0.7546771E-02  0.1520442E+00
          2   -1    0    0  503    0  0.00000000000E+00  0.00000000000E+00  0.27979064036E+02  0.27979064036E+02  0.00000000000E+00 0.  1.
         -2   -1    0    0    0  501 -0.00000000000E+00 -0.00000000000E+00 -0.43716413392E+02  0.43716413392E+02  0.00000000000E+00 0. -1.
         21    1    1    2  502  501  0.86622952489E+01 -0.19039908957E+02 -0.36597714882E+02  0.42153839999E+02  0.00000000000E+00 0. -1.
         21    1    1    2  503  502 -0.86622952489E+01  0.19039908957E+02  0.20860365527E+02  0.29541637429E+02  0.00000000000E+00 0.  1.
</event>
<event>
 4    1  0.5548812E+002  0.3335449E+02  0.7546771E-02  0.1392516E+00
          2   -1    0    0  502    0  0.00000000000E+00  0.00000000000E+00  0.22467570447E+03  0.22467570447E+03  0.00000000000E+00 0. -1.
         -2   -1    0    0    0  501 -0.00000000000E+00 -0.00000000000E+00 -0.89654121503E+01  0.89654121503E+01  0.00000000000E+00 0.  1.
         21    1    1    2  502  503 -0.73151445344E+01 -0.32542448212E+02  0.18601942430E+03  0.18898610661E+03  0.00000000000E+00 0. -1.
         21    1    1    2  503  501  0.73151445344E+01  0.32542448212E+02  0.29690868022E+02  0.44655010012E+02  0.00000000000E+00 0.  1.
</event>
<event>
 4    1  0.5548812E+002  0.2170811E+02  0.7546771E-02  0.1509390E+00
          2   -1    0    0  502    0  0.00000000000E+00  0.00000000000E+00  0.34613951828E+02  0.34613951828E+02  0.00000000000E+00 0. -1.
         -2   -1    0    0    0  501 -0.00000000000E+00 -0.00000000000E+00 -0.18956331730E+02  0.18956331730E+02  0.00000000000E+00 0.  1.
         21    1    1    2  502  503  0.21158229219E+02  0.48550207335E+01  0.22047951010E+02  0.30941138210E+02  0.00000000000E+00 0. -1.
         21    1    1    2  503  501 -0.21158229219E+02 -0.48550207335E+01 -0.63903309122E+01  0.22629145348E+02  0.00000000000E+00 0.  1.
</event>
<event>
 4    1  0.5548812E+002  0.5991888E+02  0.7546771E-02  0.1260108E+00
          2   -1    0    0  503    0  0.00000000000E+00  0.00000000000E+00  0.63806716018E+03  0.63806716018E+03  0.00000000000E+00 0. -1.
         -2   -1    0    0    0  501 -0.00000000000E+00 -0.00000000000E+00 -0.60896085469E+01  0.60896085469E+01  0.00000000000E+00 0.  1.
         21    1    1    2  502  501  0.32877978432E+02 -0.50093024485E+02  0.22719749547E+03  0.23496590076E+03  0.00000000000E+00 0.  1.
         21    1    1    2  503  502 -0.32877978432E+02  0.50093024485E+02  0.40478005616E+03  0.40919086797E+03  0.00000000000E+00 0. -1.
</event>
<event>
 4    1  0.5548812E+002  0.2092946E+02  0.7546771E-02  0.1520274E+00
          2   -1    0    0  503    0  0.00000000000E+00  0.00000000000E+00  0.11360052337E+03  0.11360052337E+03  0.00000000000E+00 0. -1.
         -2   -1    0    0    0  501 -0.00000000000E+00 -0.00000000000E+00 -0.31526133982E+02  0.31526133982E+02  0.00000000000E+00 0.  1.
         21    1    1    2  502  501  0.13040783985E+02 -0.16370104299E+02 -0.26943806459E+02  0.34117606426E+02  0.00000000000E+00 0.  1.
         21    1    1    2  503  502 -0.13040783985E+02  0.16370104299E+02  0.10901819585E+03  0.11100905092E+03  0.00000000000E+00 0. -1.
</event>
<event>
 4    1  0.5548812E+002  0.2081750E+02  0.7546771E-02  0.1521886E+00
          2   -1    0    0  502    0  0.00000000000E+00  0.00000000000E+00  0.77480625824E+03  0.77480625824E+03  0.00000000000E+00 0. -1.
         -2   -1    0    0    0  501 -0.00000000000E+00 -0.00000000000E+00 -0.55939979661E+00  0.55939979661E+00  0.00000000000E+00 0.  1.
         21    1    1    2  502  503 -0.68318747679E+01 -0.19664533422E+02  0.39161104963E+03  0.39216397410E+03  0.00000000000E+00 0. -1.
         21    1    1    2  503  501  0.68318747679E+01  0.19664533422E+02  0.38263580882E+03  0.38320168394E+03  0.00000000000E+00 0.  1.
</event>
<event>
 4    1  0.5548812E+002  0.2304072E+02  0.7546771E-02  0.1491987E+00
          2   -1    0    0  503    0  0.00000000000E+00  0.00000000000E+00  0.99544052675E+01  0.99544052675E+01  0.00000000000E+00 0.  1.
         -2   -1    0    0    0  501 -0.00000000000E+00 -0.00000000000E+00 -0.12810294615E+03  0.12810294615E+03  0.00000000000E+00 0. -1.
         21    1    1    2  502  501 -0.19293338375E+02 -0.12595315128E+02 -0.11181186918E+03  0.11416115345E+03  0.00000000000E+00 0. -1.
         21    1    1    2  503  502  0.19293338375E+02  0.12595315128E+02 -0.63366717053E+01  0.23896197964E+02  0.00000000000E+00 0.  1.
</event>
<event>
 4    1  0.5548812E+002  0.2027137E+02  0.7546771E-02  0.1529927E+00
          2   -1    0    0  502    0  0.00000000000E+00  0.00000000000E+00  0.66805384782E+03  0.66805384782E+03  0.00000000000E+00 0.  1.
         -2   -1    0    0    0  501 -0.00000000000E+00 -0.00000000000E+00 -0.63755646005E+00  0.63755646005E+00  0.00000000000E+00 0. -1.
         21    1    1    2  502  503 -0.51244155464E+01 -0.19612980600E+02  0.39643894203E+03  0.39695687851E+03  0.00000000000E+00 0.  1.
         21    1    1    2  503  501  0.51244155464E+01  0.19612980600E+02  0.27097734934E+03  0.27173452577E+03  0.00000000000E+00 0. -1.
</event>
<event>
 4    1  0.5548812E+002  0.2129574E+02  0.7546771E-02  0.1515084E+00
          2   -1    0    0  503    0  0.00000000000E+00  0.00000000000E+00  0.69765486156E+02  0.69765486156E+02  0.00000000000E+00 0. -1.
         -2   -1    0    0    0  501 -0.00000000000E+00 -0.00000000000E+00 -0.69378605677E+01  0.69378605677E+01  0.00000000000E+00 0.  1.
         21    1    1    2  502  501  0.51874915998E-01 -0.21295676939E+02  0.21784272677E+02  0.30464127812E+02  0.00000000000E+00 0.  1.
         21    1    1    2  503  502 -0.51874915998E-01  0.21295676939E+02  0.41043352911E+02  0.46239218911E+02  0.00000000000E+00 0. -1.
</event>
<event>
 4    1  0.5548812E+002  0.2626830E+02  0.7546771E-02  0.1455100E+00
          2   -1    0    0  502    0  0.00000000000E+00  0.00000000000E+00  0.35300389185E+02  0.35300389185E+02  0.00000000000E+00 0.  1.
         -2   -1    0    0    0  501 -0.00000000000E+00 -0.00000000000E+00 -0.44452770986E+02  0.44452770986E+02  0.00000000000E+00 0. -1.
         21    1    1    2  502  503  0.45935062883E+01  0.25863552649E+02  0.25271914185E+02  0.36451245551E+02  0.00000000000E+00 0.  1.
         21    1    1    2  503  501 -0.45935062883E+01 -0.25863552649E+02 -0.34424295986E+02  0.43301914620E+02  0.00000000000E+00 0. -1.
</event>
<event>
 4    1  0.5548812E+002  0.2307263E+02  0.7546771E-02  0.1491588E+00
          2   -1    0    0  503    0  0.00000000000E+00  0.00000000000E+00  0.71352918301E+02  0.71352918301E+02  0.00000000000E+00 0. -1.
         -2   -1    0    0    0  501 -0.00000000000E+00 -0.00000000000E+00 -0.35898917201E+02  0.35898917201E+02  0.00000000000E+00 0.  1.
         21    1    1    2  502  501 -0.11192332734E+02  0.20176169565E+02 -0.30002279255E+02  0.37848155712E+02  0.00000000000E+00 0.  1.
         21    1    1    2  503  502  0.11192332734E+02 -0.20176169565E+02  0.65456280355E+02  0.69403679789E+02  0.00000000000E+00 0. -1.
</event>
<event>
 4    1  0.5548812E+002  0.4907219E+02  0.7546771E-02  0.1302246E+00
          2   -1    0    0  503    0  0.00000000000E+00  0.00000000000E+00  0.20069559402E+02  0.20069559402E+02  0.00000000000E+00 0. -1.
         -2   -1    0    0    0  501 -0.00000000000E+00 -0.00000000000E+00 -0.12088305665E+03  0.12088305665E+03  0.00000000000E+00 0.  1.
         21    1    1    2  502  501  0.24989981707E+02 -0.42232464794E+02 -0.44337987205E+02  0.66135749619E+02  0.00000000000E+00 0.  1.
         21    1    1    2  503  502 -0.24989981707E+02  0.42232464794E+02 -0.56475510046E+02  0.74816866436E+02  0.00000000000E+00 0. -1.
</event>
<event>
 4    1  0.5548812E+002  0.2827284E+02  0.7546771E-02  0.1435225E+00
          2   -1    0    0  503    0  0.00000000000E+00  0.00000000000E+00  0.50488327780E+02  0.50488327780E+02  0.00000000000E+00 0.  1.
         -2   -1    0    0    0  501 -0.00000000000E+00 -0.00000000000E+00 -0.16923121307E+02  0.16923121307E+02  0.00000000000E+00 0. -1.
         21    1    1    2  502  501 -0.20410992408E+02 -0.19563868213E+02  0.82257939097E+01  0.29445156410E+02  0.00000000000E+00 0. -1.
         21    1    1    2  503  502  0.20410992408E+02  0.19563868213E+02  0.25339412564E+02  0.37966292677E+02  0.00000000000E+00 0.  1.
</event>
<event>
 4    1  0.5548812E+002  0.2071622E+02  0.7546771E-02  0.1523355E+00
          2   -1    0    0  503    0  0.00000000000E+00  0.00000000000E+00  0.36070336773E+03  0.36070336773E+03  0.00000000000E+00 0. -1.
         -2   -1    0    0    0  501 -0.00000000000E+00 -0.00000000000E+00 -0.21806772752E+01  0.21806772752E+01  0.00000000000E+00 0.  1.
         21    1    1    2  502  501  0.19822367608E+02  0.60195994473E+01  0.56953601238E+02  0.60604245141E+02  0.00000000000E+00 0.  1.
         21    1    1    2  503  502 -0.19822367608E+02 -0.60195994473E+01  0.30156908921E+03  0.30227979986E+03  0.00000000000E+00 0. -1.
</event>
<event>
 4    1  0.5548812E+002  0.2070383E+02  0.7546771E-02  0.1523536E+00
          2   -1    0    0  503    0  0.00000000000E+00  0.00000000000E+00  0.31482937346E+02  0.31482937346E+02  0.00000000000E+00 0. -1.
         -2   -1    0    0    0  501 -0.00000000000E+00 -0.00000000000E+00 -0.31013585231E+02  0.31013585231E+02  0.00000000000E+00 0.  1.
         21    1    1    2  502  501 -0.12505994250E+01  0.20666024604E+02 -0.23170047487E+02  0.31072490605E+02  0.00000000000E+00 0.  1.
         21    1    1    2  503  502  0.12505994250E+01 -0.20666024604E+02  0.23639399602E+02  0.31424031972E+02  0.00000000000E+00 0. -1.
</event>
<event>
 4    1  0.5548812E+002  0.2357206E+02  0.7546771E-02  0.1485437E+00
          2   -1    0    0  502    0  0.00000000000E+00  0.00000000000E+00  0.12910925282E+02  0.12910925282E+02  0.00000000000E+00 0.  1.
         -2   -1    0    0    0  501 -0.00000000000E+00 -0.00000000000E+00 -0.71915879865E+02  0.71915879865E+02  0.00000000000E+00 0. -1.
         21    1    1    2  502  503 -0.57699011073E+01  0.22854985999E+02 -0.26252785942E+01  0.23717804104E+02  0.00000000000E+00 0.  1.
         21    1    1    2  503  501  0.57699011073E+01 -0.22854985999E+02 -0.56379675989E+02  0.61109001043E+02  0.00000000000E+00 0. -1.
</event>
<event>
 4    1  0.5548812E+002  0.2067954E+02  0.7546771E-02  0.1523890E+00
          2   -1    0    0  502    0  0.00000000000E+00  0.00000000000E+00  0.14272498250E+04  0.14272498250E+04  0.00000000000E+00 0.  1.
         -2   -1    0    0    0  501 -0.00000000000E+00 -0.00000000000E+00 -0.50330872968E+00  0.50330872968E+00  0.00000000000E+00 0. -1.
         21    1    1    2  502  503 -0.20016950342E+02 -0.51927885020E+01  0.11675044756E+04  0.11676876054E+04  0.00000000000E+00 0. -1.
         21    1    1    2  503  501  0.20016950342E+02  0.51927885020E+01  0.25924204068E+03  0.26006552830E+03  0.00000000000E+00 0.  1.
</event>
<event>
 4    1  0.5548812E+002  0.2083902E+02  0.7546771E-02  0.1521576E+00
          2   -1    0    0  503    0  0.00000000000E+00  0.00000000000E+00  0.15576917336E+01  0.15576917336E+01  0.00000000000E+00 0. -1.
         -2   -1    0    0    0  501 -0.00000000000E+00 -0.00000000000E+00 -0.29502105996E+03  0.29502105996E+03  0.00000000000E+00 0.  1.
         21    1    1    2  502  501 -0.12759994099E+02  0.16475663904E+02 -0.11194678869E+03  0.11386987507E+03  0.00000000000E+00 0. -1.
         21    1    1    2  503  502  0.12759994099E+02 -0.16475663904E+02 -0.18151657954E+03  0.18270887662E+03  0.00000000000E+00 0.  1.
</event>
<event>
 4    1  0.5548812E+002  0.2068741E+02  0.7546771E-02  0.1523775E+00
          2   -1    0    0  503    0  0.00000000000E+00  0.00000000000E+00  0.10730444933E+04  0.10730444933E+04  0.00000000000E+00 0. -1.
         -2   -1    0    0    0  501 -0.00000000000E+00 -0.00000000000E+00 -0.61300966661E+00  0.61300966661E+00  0.00000000000E+00 0.  1.
         21    1    1    2  502  501  0.11916954196E+02  0.16910210126E+02  0.21890489029E+03  0.21988024012E+03  0.00000000000E+00 0.  1.
         21    1    1    2  503  502 -0.11916954196E+02 -0.16910210126E+02  0.85352659336E+03  0.85377726286E+03  0.00000000000E+00 0. -1.
</event>
<event>
 4    1  0.5548812E+002  0.2096724E+02  0.7546771E-02  0.1519733E+00
          2   -1    0    0  503    0  0.00000000000E+00  0.00000000000E+00  0.78800002285E+02  0.78800002285E+02  0.00000000000E+00 0. -1.
         -2   -1    0    0    0  501 -0.00000000000E+00 -0.00000000000E+00 -0.61753003690E+01  0.61753003690E+01  0.00000000000E+00 0.  1.
         21    1    1    2  502  501 -0.16830825169E+02  0.12503937346E+02  0.23109533296E+02  0.31203776281E+02  0.00000000000E+00 0.  1.
         21    1    1    2  503  502  0.16830825169E+02 -0.12503937346E+02  0.49515168620E+02  0.53771526373E+02  0.00000000000E+00 0. -1.
</event>
<event>
 4    1  0.5548812E+002  0.2902443E+02  0.7546771E-02  0.1428268E+00
          2   -1    0    0  502    0  0.00000000000E+00  0.00000000000E+00  0.13203986280E+04  0.13203986280E+04  0.00000000000E+00 0. -1.
         -2   -1    0    0    0  501 -0.00000000000E+00 -0.00000000000E+00 -0.10685592029E+01  0.10685592029E+01  0.00000000000E+00 0.  1.
         21    1    1    2  502  503  0.38921252375E+01 -0.28762285465E+02  0.10790783758E+04  0.10794686465E+04  0.00000000000E+00 0. -1.
         21    1    1    2  503  501 -0.38921252375E+01  0.28762285465E+02  0.24025169304E+03  0.24199854072E+03  0.00000000000E+00 0.  1.
</event>
<event>
 4    1  0.5548812E+002  0.2120268E+02  0.7546771E-02  0.1516391E+00
          2   -1    0    0  502    0  0.00000000000E+00  0.00000000000E+00  0.20563029834E+02  0.20563029834E+02  0.00000000000E+00 0.  1.
         -2   -1    0    0    0  501 -0.00000000000E+00 -0.00000000000E+00 -0.88895844529E+02  0.88895844529E+02  0.00000000000E+00 0. -1.
         21    1    1    2  502  503  0.20749655454E+02 -0.43595221134E+01  0.13359080018E+02  0.25060300346E+02  0.00000000000E+00 0.  1.
         21    1    1    2  503  501 -0.20749655454E+02  0.43595221134E+01 -0.81691894712E+02  0.84398574017E+02  0.00000000000E+00 0. -1.
</event>
<event>
 4    1  0.5548812E+002  0.2223363E+02  0.7546771E-02  0.1502352E+00
          2   -1    0    0  503    0  0.00000000000E+00  0.00000000000E+00  0.20618761405E+03  0.20618761405E+03  0.00000000000E+00 0. -1.
         -2   -1    0    0    0  501 -0.00000000000E+00 -0.00000000000E+00 -0.42295741402E+01  0.42295741402E+01  0.00000000000E+00 0.  1.
         21    1    1    2  502  501 -0.97219579805E+01  0.19995448743E+02  0.31736218638E+02  0.38749477556E+02  0.00000000000E+00 0.  1.
         21    1    1    2  503  502  0.97219579805E+01 -0.19995448743E+02  0.17022182127E+03  0.17166771063E+03  0.00000000000E+00 0. -1.
</event>
<event>
 4    1  0.5548812E+002  0.2204916E+02  0.7546771E-02  0.1504796E+00
          2   -1    0    0  502    0  0.00000000000E+00  0.00000000000E+00  0.14751138077E+04  0.14751138077E+04  0.00000000000E+00 0. -1.
         -2   -1    0    0    0  501 -0.00000000000E+00 -0.00000000000E+00 -0.34734699319E+00  0.34734699319E+00  0.00000000000E+00 0.  1.
         21    1    1    2  502  503 -0.20026172789E+02 -0.92259429100E+01  0.90423959539E+03  0.90450838110E+03  0.00000000000E+00 0. -1.
         21    1    1    2  503  501  0.20026172789E+02  0.92259429100E+01  0.57052686532E+03  0.57095277359E+03  0.00000000000E+00 0.  1.
</event>
<event>
 4    1  0.5548812E+002  0.2252712E+02  0.7546771E-02  0.1498523E+00
          2   -1    0    0  503    0  0.00000000000E+00  0.00000000000E+00  0.19861877404E+02  0.19861877404E+02  0.00000000000E+00 0. -1.
         -2   -1    0    0    0  501 -0.00000000000E+00 -0.00000000000E+00 -0.26994828574E+02  0.26994828574E+02  0.00000000000E+00 0.  1.
         21    1    1    2  502  501 -0.15147657828E+02  0.16673924606E+02 -0.89865733774E+01  0.24253449250E+02  0.00000000000E+00 0. -1.
         21    1    1    2  503  502  0.15147657828E+02 -0.16673924606E+02  0.18536222075E+01  0.22603256728E+02  0.00000000000E+00 0.  1.
</event>
<event>
 4    1  0.5548812E+002  0.3452455E+02  0.7546771E-02  0.1383937E+00
          2   -1    0    0  502    0  0.00000000000E+00  0.00000000000E+00  0.21173487311E+01  0.21173487311E+01  0.00000000000E+00 0. -1.
         -2   -1    0    0    0  501 -0.00000000000E+00 -0.00000000000E+00 -0.67615473785E+03  0.67615473785E+03  0.00000000000E+00 0.  1.
         21    1    1    2  502  503 -0.15530755318E+02  0.30834080101E+02 -0.47578954553E+03  0.47704049775E+03  0.00000000000E+00 0.  1.
         21    1    1    2  503  501  0.15530755318E+02 -0.30834080101E+02 -0.19824784358E+03  0.20123158883E+03  0.00000000000E+00 0. -1.
</event>
<event>
 4    1  0.5548812E+002  0.2864616E+02  0.7546771E-02  0.1431738E+00
          2   -1    0    0  503    0  0.00000000000E+00  0.00000000000E+00  0.42598931140E+01  0.42598931140E+01  0.00000000000E+00 0. -1.
         -2   -1    0    0    0  501 -0.00000000000E+00 -0.00000000000E+00 -0.29658725114E+03  0.29658725114E+03  0.00000000000E+00 0.  1.
         21    1    1    2  502  501  0.13330986665E+02 -0.25355222828E+02 -0.23521852943E+03  0.23695644983E+03  0.00000000000E+00 0.  1.
         21    1    1    2  503  502 -0.13330986665E+02  0.25355222828E+02 -0.57108828601E+02  0.63890694427E+02  0.00000000000E+00 0. -1.
</event>
<event>
 4    1  0.5548812E+002  0.2967539E+02  0.7546771E-02  0.1422439E+00
          2   -1    0    0  503    0  0.00000000000E+00  0.00000000000E+00  0.42999022476E+01  0.42999022476E+01  0.00000000000E+00 0.  1.
         -2   -1    0    0    0  501 -0.00000000000E+00 -0.00000000000E+00 -0.22120358953E+03  0.22120358953E+03  0.00000000000E+00 0. -1.
         21    1    1    2  502  501  0.29007417757E+02 -0.62608506320E+01 -0.13915410024E+03  0.14228314078E+03  0.00000000000E+00 0. -1.
         21    1    1    2  503  502 -0.29007417757E+02  0.62608506320E+01 -0.77749587046E+02  0.83220351005E+02  0.00000000000E+00 0.  1.
</event>
<event>
 4    1  0.5548812E+002  0.6171336E+02  0.7546771E-02  0.1254120E+00
          2   -1    0    0  503    0  0.00000000000E+00  0.00000000000E+00  0.24121980454E+04  0.24121980454E+04  0.00000000000E+00 0.  1.
         -2   -1    0    0    0  501 -0.00000000000E+00 -0.00000000000E+00 -0.48356784485E+01  0.48356784485E+01  0.00000000000E+00 0. -1.
         21    1    1    2  502  501 -0.61115999109E+02 -0.85658083021E+01  0.21188974313E+03  0.22069390944E+03  0.00000000000E+00 0. -1.
         21    1    1    2  503  502  0.61115999109E+02  0.85658083021E+01  0.21954726239E+04  0.21963398145E+04  0.00000000000E+00 0.  1.
</event>
<event>
 4    1  0.5548812E+002  0.3773106E+02  0.7546771E-02  0.1362320E+00
          2   -1    0    0  502    0  0.00000000000E+00  0.00000000000E+00  0.13779124532E+04  0.13779124532E+04  0.00000000000E+00 0.  1.
         -2   -1    0    0    0  501 -0.00000000000E+00 -0.00000000000E+00 -0.28779094981E+01  0.28779094981E+01  0.00000000000E+00 0. -1.
         21    1    1    2  502  503 -0.23615308911E+02  0.29427033920E+02  0.12402630052E+04  0.12408367963E+04  0.00000000000E+00 0.  1.
         21    1    1    2  503  501  0.23615308911E+02 -0.29427033920E+02  0.13477153855E+03  0.13995356638E+03  0.00000000000E+00 0. -1.
</event>
<event>
 4    1  0.5548812E+002  0.2032998E+02  0.7546771E-02  0.1529050E+00
          2   -1    0    0  502    0  0.00000000000E+00  0.00000000000E+00  0.27551335806E+03  0.27551335806E+03  0.00000000000E+00 0.  1.
         -2   -1    0    0    0  501 -0.00000000000E+00 -0.00000000000E+00 -0.23284484323E+01  0.23284484323E+01  0.00000000000E+00 0. -1.
         21    1    1    2  502  503  0.19540460816E+02  0.56105586166E+01  0.21944978377E+03  0.22038946339E+03  0.00000000000E+00 0.  1.
         21    1    1    2  503  501 -0.19540460816E+02 -0.56105586166E+01  0.53735125854E+02  0.57452343098E+02  0.00000000000E+00 0. -1.
</event>
<event>
 4    1  0.5548812E+002  0.2229653E+02  0.7546771E-02  0.1501526E+00
          2   -1    0    0  503    0  0.00000000000E+00  0.00000000000E+00  0.61727743213E+03  0.61727743213E+03  0.00000000000E+00 0. -1.
         -2   -1    0    0    0  501 -0.00000000000E+00 -0.00000000000E+00 -0.10005793046E+01  0.10005793046E+01  0.00000000000E+00 0.  1.
         21    1    1    2  502  501 -0.20268056771E+02  0.92919944308E+01  0.44468502918E+03  0.44524365291E+03  0.00000000000E+00 0. -1.
         21    1    1    2  503  502  0.20268056771E+02 -0.92919944308E+01  0.17159182365E+03  0.17303435853E+03  0.00000000000E+00 0.  1.
</event>
<event>
 4    1  0.5548812E+002  0.2227092E+02  0.7546771E-02  0.1501862E+00
          2   -1    0    0  503    0  0.00000000000E+00  0.00000000000E+00  0.13187235872E+04  0.13187235872E+04  0.00000000000E+00 0.  1.
         -2   -1    0    0    0  501 -0.00000000000E+00 -0.00000000000E+00 -0.75941786816E+00  0.75941786816E+00  0.00000000000E+00 0. -1.
         21    1    1    2  502  501  0.14072446949E+02 -0.17261515267E+02  0.19027275727E+03  0.19157169893E+03  0.00000000000E+00 0. -1.
         21    1    1    2  503  502 -0.14072446949E+02  0.17261515267E+02  0.11276914120E+04  0.11279113061E+04  0.00000000000E+00 0.  1.
</event>
<event>
 4    1  0.5548812E+002  0.2665374E+02  0.7546771E-02  0.1451118E+00
          2   -1    0    0  503    0  0.00000000000E+00  0.00000000000E+00  0.20302639872E+03  0.20302639872E+03  0.00000000000E+00 0. -1.
         -2   -1    0    0    0  501 -0.00000000000E+00 -0.00000000000E+00 -0.16891359956E+02  0.16891359956E+02  0.00000000000E+00 0.  1.
         21    1    1    2  502  501  0.93608922505E+00  0.26637301498E+02 -0.48417793280E+01  0.27089941329E+02  0.00000000000E+00 0.  1.
         21    1    1    2  503  502 -0.93608922505E+00 -0.26637301498E+02  0.19097681809E+03  0.19282781734E+03  0.00000000000E+00 0. -1.
</event>
<event>
 4    1  0.5548812E+002  0.1065374E+03  0.7546771E-02  0.1152938E+00
          2   -1    0    0  503    0  0.00000000000E+00  0.00000000000E+00  0.12074269849E+04  0.12074269849E+04  0.00000000000E+00 0.  1.
         -2   -1    0    0    0  501 -0.00000000000E+00 -0.00000000000E+00 -0.20946518918E+03  0.20946518918E+03  0.00000000000E+00 0. -1.
         21    1    1    2  502  501  0.10551100773E+03  0.14752450530E+02 -0.19338598595E+03  0.22079027857E+03  0.00000000000E+00 0. -1.
         21    1    1    2  503  502 -0.10551100773E+03 -0.14752450530E+02  0.11913477817E+04  0.11961018955E+04  0.00000000000E+00 0.  1.
</event>
<event>
 4    1  0.5548812E+002  0.2184798E+02  0.7546771E-02  0.1507494E+00
          2   -1    0    0  503    0  0.00000000000E+00  0.00000000000E+00  0.43960810369E+03  0.43960810369E+03  0.00000000000E+00 0.  1.
         -2   -1    0    0    0  501 -0.00000000000E+00 -0.00000000000E+00 -0.59510300400E+01  0.59510300400E+01  0.00000000000E+00 0. -1.
         21    1    1    2  502  501  0.13951463439E+02 -0.16813411888E+02  0.15395734431E+02  0.26727566108E+02  0.00000000000E+00 0. -1.
         21    1    1    2  503  502 -0.13951463439E+02  0.16813411888E+02  0.41826133922E+03  0.41883156762E+03  0.00000000000E+00 0.  1.
</event>
<event>
 4    1  0.5548812E+002  0.2398312E+02  0.7546771E-02  0.1480509E+00
          2   -1    0    0  502    0  0.00000000000E+00  0.00000000000E+00  0.16975823975E+04  0.16975823975E+04  0.00000000000E+00 0. -1.
         -2   -1    0    0    0  501 -0.00000000000E+00 -0.00000000000E+00 -0.45224681049E+00  0.45224681049E+00  0.00000000000E+00 0.  1.
         21    1    1    2  502  503  0.22127768298E+02  0.92494303455E+01  0.12737418037E+04  0.12739675713E+04  0.00000000000E+00 0.  1.
         21    1    1    2  503  501 -0.22127768298E+02 -0.92494303455E+01  0.42338834694E+03  0.42406707302E+03  0.00000000000E+00 0. -1.
</event>
<event>
 4    1  0.5548812E+002  0.3305849E+02  0.7546771E-02  0.1394752E+00
          2   -1    0    0  503    0  0.00000000000E+00  0.00000000000E+00  0.24458850080E+04  0.24458850080E+04  0.00000000000E+00 0. -1.
         -2   -1    0    0    0  501 -0.00000000000E+00 -0.00000000000E+00 -0.68037339265E+00  0.68037339265E+00  0.00000000000E+00 0.  1.
         21    1    1    2  502  501  0.31890564405E+02  0.87095152992E+01  0.50588357249E+03  0.50696257522E+03  0.00000000000E+00 0.  1.
         21    1    1    2  503  502 -0.31890564405E+02 -0.87095152992E+01  0.19393210621E+04  0.19396028062E+04  0.00000000000E+00 0. -1.
</event>
<event>
 4    1  0.5548812E+002  0.2001213E+02  0.7546771E-02  0.1533850E+00
          2   -1    0    0  502    0  0.00000000000E+00  0.00000000000E+00  0.63161978348E+00  0.63161978348E+00  0.00000000000E+00 0. -1.
         -2   -1    0    0    0  501 -0.00000000000E+00 -0.00000000000E+00 -0.79632617055E+03  0.79632617055E+03  0.00000000000E+00 0.  1.
         21    1    1    2  502  503 -0.69954927964E+01 -0.18749624412E+02 -0.21797146037E+03  0.21888819719E+03  0.00000000000E+00 0. -1.
         21    1    1    2  503  501  0.69954927964E+01  0.18749624412E+02 -0.57772309039E+03  0.57806959314E+03  0.00000000000E+00 0.  1.
</event>
<event>
 4    1  0.5548812E+002  0.2281007E+02  0.7546771E-02  0.1494897E+00
          2   -1    0    0  502    0  0.00000000000E+00  0.00000000000E+00  0.79201294720E+03  0.79201294720E+03  0.00000000000E+00 0.  1.
         -2   -1    0    0    0  501 -0.00000000000E+00 -0.00000000000E+00 -0.14044790317E+01  0.14044790317E+01  0.00000000000E+00 0. -1.
         21    1    1    2  502  503 -0.18041859351E+02 -0.13956741019E+02  0.68472729230E+03  0.68510711873E+03  0.00000000000E+00 0.  1.
         21    1    1    2  503  501  0.18041859351E+02  0.13956741019E+02  0.10588117587E+03  0.10831030751E+03  0.00000000000E+00 0. -1.
</event>
<event>
 4    1  0.5548812E+002  0.3050985E+02  0.7546771E-02  0.1415217E+00
          2   -1    0    0  502    0  0.00000000000E+00  0.00000000000E+00  0.70439108648E+03  0.70439108648E+03  0.00000000000E+00 0.  1.
         -2   -1    0    0    0  501 -0.00000000000E+00 -0.00000000000E+00 -0.13332788350E+01  0.13332788350E+01  0.00000000000E+00 0. -1.
         21    1    1    2  502  503  0.24357903343E+02 -0.18372363157E+02  0.38469838257E+03  0.38590633156E+03  0.00000000000E+00 0.  1.
         21    1    1    2  503  501 -0.24357903343E+02  0.18372363157E+02  0.31835942507E+03  0.31981803375E+03  0.00000000000E+00 0. -1.
</event>
<event>
 4    1  0.5548812E+002  0.2982223E+02  0.7546771E-02  0.1421148E+00
          2   -1    0    0  503    0  0.00000000000E+00  0.00000000000E+00  0.17597630460E+03  0.17597630460E+03  0.00000000000E+00 0.  1.
         -2   -1    0    0    0  501 -0.00000000000E+00 -0.00000000000E+00 -0.99434081946E+01  0.99434081946E+01  0.00000000000E+00 0. -1.
         21    1    1    2  502  501  0.79494550375E+01  0.28743196951E+02  0.17829483058E+02  0.34745584935E+02  0.00000000000E+00 0. -1.
         21    1    1    2  503  502 -0.79494550375E+01 -0.28743196951E+02  0.14820341334E+03  0.15117412786E+03  0.00000000000E+00 0.  1.
</event>
<event>
 4    1  0.5548812E+002  0.2379625E+02  0.7546771E-02  0.1482734E+00
          2   -1    0    0  502    0  0.00000000000E+00  0.00000000000E+00  0.28285286223E+01  0.28285286223E+01  0.00000000000E+00 0. -1.
         -2   -1    0    0    0  501 -0.00000000000E+00 -0.00000000000E+00 -0.21886053409E+03  0.21886053409E+03  0.00000000000E+00 0.  1.
         21    1    1    2  502  503 -0.80825995897E+01  0.22381539693E+02 -0.75646765832E+02  0.79301292020E+02  0.00000000000E+00 0. -1.
         21    1    1    2  503  501  0.80825995897E+01 -0.22381539693E+02 -0.14038523963E+03  0.14238777069E+03  0.00000000000E+00 0.  1.
</event>
<event>
 4    1  0.5548812E+002  0.2123083E+02  0.7546771E-02  0.1515995E+00
          2   -1    0    0  502    0  0.00000000000E+00  0.00000000000E+00  0.12803218999E+03  0.12803218999E+03  0.00000000000E+00 0.  1.
         -2   -1    0    0    0  501 -0.00000000000E+00 -0.00000000000E+00 -0.11161269537E+02  0.11161269537E+02  0.00000000000E+00 0. -1.
         21    1    1    2  502  503  0.18510584717E+02 -0.10397424298E+02  0.11601897586E+03  0.11794554226E+03  0.00000000000E+00 0.  1.
         21    1    1    2  503  501 -0.18510584717E+02  0.10397424298E+02  0.85194458985E+00  0.21247917267E+02  0.00000000000E+00 0. -1.
</event>
<event>
 4    1  0.5548812E+002  0.2040297E+02  0.7546771E-02  0.1527962E+00
          2   -1    0    0  503    0  0.00000000000E+00  0.00000000000E+00  0.12913823196E+04  0.12913823196E+04  0.00000000000E+00 0. -1.
         -2   -1    0    0    0  501 -0.00000000000E+00 -0.00000000000E+00 -0.37481222737E+00  0.37481222737E+00  0.00000000000E+00 0.  1.
         21    1    1    2  502  501 -0.84683036046E+01  0.18562567015E+02  0.40387164894E+03  0.40438668361E+03  0.00000000000E+00 0.  1.
         21    1    1    2  503  502  0.84683036046E+01 -0.18562567015E+02  0.88713585847E+03  0.88737044826E+03  0.00000000000E+00 0. -1.
</event>
<event>
 4    1  0.5548812E+002  0.2065435E+02  0.7546771E-02  0.1524258E+00
          2   -1    0    0  503    0  0.00000000000E+00  0.00000000000E+00  0.13473864204E+04  0.13473864204E+04  0.00000000000E+00 0.  1.
         -2   -1    0    0    0  501 -0.00000000000E+00 -0.00000000000E+00 -0.33958071775E+00  0.33958071775E+00  0.00000000000E+00 0. -1.
         21    1    1    2  502  501  0.15154838803E+02 -0.14033275996E+02  0.49827844813E+03  0.49870634029E+03  0.00000000000E+00 0. -1.
         21    1    1    2  503  502 -0.15154838803E+02  0.14033275996E+02  0.84876839154E+03  0.84901966082E+03  0.00000000000E+00 0.  1.
</event>
<event>
 4    1  0.5548812E+002  0.4754916E+02  0.7546771E-02  0.1309163E+00
          2   -1    0    0  503    0  0.00000000000E+00  0.00000000000E+00  0.60882029043E+03  0.60882029043E+03  0.00000000000E+00 0. -1.
         -2   -1    0    0    0  501 -0.00000000000E+00 -0.00000000000E+00 -0.47938970450E+01  0.47938970450E+01  0.00000000000E+00 0.  1.
         21    1    1    2  502  501  0.15516901995E+02 -0.44946058814E+02  0.15637000432E+03  0.16343959343E+03  0.00000000000E+00 0.  1.
         21    1    1    2  503  502 -0.15516901995E+02  0.44946058814E+02  0.44765638906E+03  0.45017459404E+03  0.00000000000E+00 0. -1.
</event>
<event>
 4    1  0.5548812E+002  0.4032777E+02  0.7546771E-02  0.1346576E+00
          2   -1    0    0  503    0  0.00000000000E+00  0.00000000000E+00  0.51199079184E+03  0.51199079184E+03  0.00000000000E+00 0. -1.
         -2   -1    0    0    0  501 -0.00000000000E+00 -0.00000000000E+00 -0.33807385383E+01  0.33807385383E+01  0.00000000000E+00 0.  1.
         21    1    1    2  502  501  0.38477131199E+02  0.12076392845E+02  0.19096562460E+03  0.19517735183E+03  0.00000000000E+00 0.  1.
         21    1    1    2  503  502 -0.38477131199E+02 -0.12076392845E+02  0.31764442870E+03  0.32019417855E+03  0.00000000000E+00 0. -1.
</event>
<event>
 4    1  0.5548812E+002  0.3020052E+02  0.7546771E-02  0.1417862E+00
          2   -1    0    0  502    0  0.00000000000E+00  0.00000000000E+00  0.18772757405E+03  0.18772757405E+03  0.00000000000E+00 0. -1.
         -2   -1    0    0    0  501 -0.00000000000E+00 -0.00000000000E+00 -0.64479561631E+01  0.64479561631E+01  0.00000000000E+00 0.  1.
         21    1    1    2  502  503  0.28936997401E+02 -0.86441622363E+01  0.13884346395E+03  0.14209003779E+03  0.00000000000E+00 0. -1.
         21    1    1    2  503  501 -0.28936997401E+02  0.86441622363E+01  0.42436153938E+02  0.52085492418E+02  0.00000000000E+00 0.  1.
</event>
<event>
 4    1  0.5548812E+002  0.2126381E+02  0.7546771E-02  0.1515531E+00
          2   -1    0    0  502    0  0.00000000000E+00  0.00000000000E+00  0.59047091535E+01  0.59047091535E+01  0.00000000000E+00 0.  1.
         -2   -1    0    0    0  501 -0.00000000000E+00 -0.00000000000E+00 -0.16483076060E+03  0.16483076060E+03  0.00000000000E+00 0. -1.
         21    1    1    2  502  503  0.81186636210E+00  0.21248303953E+02 -0.14192959280E+03  0.14351361907E+03  0.00000000000E+00 0. -1.
         21    1    1    2  503  501 -0.81186636210E+00 -0.21248303953E+02 -0.16996458650E+02  0.27221850682E+02  0.00000000000E+00 0.  1.
</event>
<event>
 4    1  0.5548812E+002  0.2474719E+02  0.7546771E-02  0.1471652E+00
          2   -1    0    0  502    0  0.00000000000E+00  0.00000000000E+00  0.17814407531E+04  0.17814407531E+04  0.00000000000E+00 0.  1.
         -2   -1    0    0    0  501 -0.00000000000E+00 -0.00000000000E+00 -0.58989610154E+00  0.58989610154E+00  0.00000000000E+00 0. -1.
         21    1    1    2  502  503 -0.24606556712E+02 -0.26345374390E+01  0.14659548944E+04  0.14661637616E+04  0.00000000000E+00 0.  1.
         21    1    1    2  503  501  0.24606556712E+02  0.26345374390E+01  0.31489596258E+03  0.31586688758E+03  0.00000000000E+00 0. -1.
</event>
<event>
 4    1  0.5548812E+002  0.2344730E+02  0.7546771E-02  0.1486956E+00
          2   -1    0    0  503    0  0.00000000000E+00  0.00000000000E+00  0.69448680226E+03  0.69448680226E+03  0.00000000000E+00 0.  1.
         -2   -1    0    0    0  501 -0.00000000000E+00 -0.00000000000E+00 -0.90994432620E+00  0.90994432620E+00  0.00000000000E+00 0. -1.
         21    1    1    2  502  501  0.15107982470E+02  0.17931111675E+02  0.22141204752E+03  0.22265010821E+03  0.00000000000E+00 0. -1.
         21    1    1    2  503  502 -0.15107982470E+02 -0.17931111675E+02  0.47216481042E+03  0.47274663838E+03  0.00000000000E+00 0.  1.
</event>
<event>
 4    1  0.5548812E+002  0.2559886E+02  0.7546771E-02  0.1462214E+00
          2   -1    0    0  502    0  0.00000000000E+00  0.00000000000E+00  0.33030063005E+03  0.33030063005E+03  0.00000000000E+00 0.  1.
         -2   -1    0    0    0  501 -0.00000000000E+00 -0.00000000000E+00 -0.23294026472E+01  0.23294026472E+01  0.00000000000E+00 0. -1.
         21    1    1    2  502  503  0.10151163549E+02 -0.23500117425E+02  0.22803282099E+03  0.22946518055E+03  0.00000000000E+00 0.  1.
         21    1    1    2  503  501 -0.10151163549E+02  0.23500117425E+02  0.99938406416E+02  0.10316485214E+03  0.00000000000E+00 0. -1.
</event>
<event>
 4    1  0.5548812E+002  0.2179108E+02  0.7546771E-02  0.1508263E+00
          2   -1    0    0  503    0  0.00000000000E+00  0.00000000000E+00  0.42048845585E+02  0.42048845585E+02  0.00000000000E+00 0.  1.
         -2   -1    0    0    0  501 -0.00000000000E+00 -0.00000000000E+00 -0.37045981277E+02  0.37045981277E+02  0.00000000000E+00 0. -1.
         21    1    1    2  502  501  0.13145705311E+02  0.17379345500E+02 -0.30471879774E+02  0.37461802881E+02  0.00000000000E+00 0. -1.
         21    1    1    2  503  502 -0.13145705311E+02 -0.17379345500E+02  0.35474744082E+02  0.41633023981E+02  0.00000000000E+00 0.  1.
</event>
<event>
 4    1  0.5548812E+002  0.2080070E+02  0.7546771E-02  0.1522129E+00
          2   -1    0    0  503    0  0.00000000000E+00  0.00000000000E+00  0.10368525008E+02  0.10368525008E+02  0.00000000000E+00 0.  1.
         -2   -1    0    0    0  501 -0.00000000000E+00 -0.00000000000E+00 -0.20474454582E+03  0.20474454582E+03  0.00000000000E+00 0. -1.
         21    1    1    2  502  501 -0.85518292681E+01 -0.18961417442E+02 -0.19316011578E+03  0.19427686291E+03  0.00000000000E+00 0. -1.
         21    1    1    2  503  502  0.85518292681E+01  0.18961417442E+02 -0.12159050337E+01  0.20836207916E+02  0.00000000000E+00 0.  1.
</event>
<event>
 4    1  0.5548812E+002  0.3272035E+02  0.7546771E-02  0.1397339E+00
          2   -1    0    0  503    0  0.00000000000E+00  0.00000000000E+00  0.83186217153E+02  0.83186217153E+02  0.00000000000E+00 0.  1.
         -2   -1    0    0    0  501 -0.00000000000E+00 -0.00000000000E+00 -0.20046353797E+02  0.20046353797E+02  0.00000000000E+00 0. -1.
         21    1    1    2  502  501 -0.28486660083E+02  0.16097557178E+02  0.68720158751E+00  0.32727563243E+02  0.00000000000E+00 0.  1.
         21    1    1    2  503  502  0.28486660083E+02 -0.16097557178E+02  0.62452661768E+02  0.70505007707E+02  0.00000000000E+00 0. -1.
</event>
<event>
 4    1  0.5548812E+002  0.3337878E+02  0.7546771E-02  0.1392334E+00
          2   -1    0    0  503    0  0.00000000000E+00  0.00000000000E+00  0.12254580717E+04  0.12254580717E+04  0.00000000000E+00 0.  1.
         -2   -1    0    0    0  501 -0.00000000000E+00 -0.00000000000E+00 -0.26469009522E+01  0.26469009522E+01  0.00000000000E+00 0. -1.
         21    1    1    2  502  501  0.16536231094E+02  0.28994758635E+02  0.11386489371E+03  0.11865646626E+03  0.00000000000E+00 0.  1.
         21    1    1    2  503  502 -0.16536231094E+02 -0.28994758635E+02  0.11089462770E+04  0.11094485064E+04  0.00000000000E+00 0. -1.
</event>
<event>
 4    1  0.5548812E+002  0.2272610E+02  0.7546771E-02  0.1495966E+00
          2   -1    0    0  502    0  0.00000000000E+00  0.00000000000E+00  0.40922501262E+02  0.40922501262E+02  0.00000000000E+00 0.  1.
         -2   -1    0    0    0  501 -0.00000000000E+00 -0.00000000000E+00 -0.22393165447E+02  0.22393165447E+02  0.00000000000E+00 0. -1.
         21    1    1    2  502  503 -0.80364003376E+01  0.21257747990E+02  0.30177979988E+02  0.37778116101E+02  0.00000000000E+00 0.  1.
         21    1    1    2  503  501  0.80364003376E+01 -0.21257747990E+02 -0.11648644173E+02  0.25537550608E+02  0.00000000000E+00 0. -1.
</event>
<event>
 4    1  0.5548812E+002  0.2019245E+02  0.7546771E-02  0.1531114E+00
          2   -1    0    0  502    0  0.00000000000E+00  0.00000000000E+00  0.17428325161E+03  0.17428325161E+03  0.00000000000E+00 0. -1.
         -2   -1    0    0    0  501 -0.00000000000E+00 -0.00000000000E+00 -0.33308849645E+01  0.33308849645E+01  0.00000000000E+00 0.  1.
         21    1    1    2  502  503  0.20190890113E+02 -0.25136692802E+00  0.13392569800E+03  0.13543938797E+03  0.00000000000E+00 0. -1.
         21    1    1    2  503  501 -0.20190890113E+02  0.25136692802E+00  0.37026668645E+02  0.42174748604E+02  0.00000000000E+00 0.  1.
</event>
<event>
 4    1  0.5548812E+002  0.4354737E+02  0.7546771E-02  0.1328865E+00
          2   -1    0    0  503    0  0.00000000000E+00  0.00000000000E+00  0.30472716770E+04  0.30472716770E+04  0.00000000000E+00 0.  1.
         -2   -1    0    0    0  501 -0.00000000000E+00 -0.00000000000E+00 -0.52349678798E+01  0.52349678798E+01  0.00000000000E+00 0. -1.
         21    1    1    2  502  501  0.38235119864E+02 -0.20843446095E+02  0.88352757612E+02  0.98501692441E+02  0.00000000000E+00 0. -1.
         21    1    1    2  503  502 -0.38235119864E+02  0.20843446095E+02  0.29536839515E+04  0.29540049524E+04  0.00000000000E+00 0.  1.
</event>
<event>
 4    1  0.5548812E+002  0.2631417E+02  0.7546771E-02  0.1454622E+00
          2   -1    0    0  502    0  0.00000000000E+00  0.00000000000E+00  0.85212503168E+03  0.85212503168E+03  0.00000000000E+00 0. -1.
         -2   -1    0    0    0  501 -0.00000000000E+00 -0.00000000000E+00 -0.82677368242E+00  0.82677368242E+00  0.00000000000E+00 0.  1.
         21    1    1    2  502  503 -0.24845970236E+02  0.86668020249E+01  0.48149131567E+03  0.48220983271E+03  0.00000000000E+00 0. -1.
         21    1    1    2  503  501  0.24845970236E+02 -0.86668020249E+01  0.36980694233E+03  0.37074197266E+03  0.00000000000E+00 0.  1.
</event>
<event>
 4    1  0.5548812E+002  0.2348121E+02  0.7546771E-02  0.1486542E+00
          2   -1    0    0  503    0  0.00000000000E+00  0.00000000000E+00  0.38606642080E+03  0.38606642080E+03  0.00000000000E+00 0. -1.
         -2   -1    0    0    0  501 -0.00000000000E+00 -0.00000000000E+00 -0.24954767911E+01  0.24954767911E+01  0.00000000000E+00 0.  1.
         21    1    1    2  502  501  0.76605951331E+01  0.22196450706E+02  0.64728415502E+02  0.68855899639E+02  0.00000000000E+00 0.  1.
         21    1    1    2  503  502 -0.76605951331E+01 -0.22196450706E+02  0.31884252850E+03  0.31970599795E+03  0.00000000000E+00 0. -1.
</event>
<event>
 4    1  0.5548812E+002  0.2771551E+02  0.7546771E-02  0.1440550E+00
          2   -1    0    0  503    0  0.00000000000E+00  0.00000000000E+00  0.88394639156E+03  0.88394639156E+03  0.00000000000E+00 0. -1.
         -2   -1    0    0    0  501 -0.00000000000E+00 -0.00000000000E+00 -0.94975758643E+00  0.94975758643E+00  0.00000000000E+00 0.  1.
         21    1    1    2  502  501  0.11905346402E+02 -0.25028229769E+02  0.57051537995E+03  0.57118818993E+03  0.00000000000E+00 0. -1.
         21    1    1    2  503  502 -0.11905346402E+02  0.25028229769E+02  0.31248125402E+03  0.31370795921E+03  0.00000000000E+00 0.  1.
</event>
<event>
 4    1  0.5548812E+002  0.4163920E+02  0.7546771E-02  0.1339139E+00
          2   -1    0    0  502    0  0.00000000000E+00  0.00000000000E+00  0.18296058410E+04  0.18296058410E+04  0.00000000000E+00 0. -1.
         -2   -1    0    0    0  501 -0.00000000000E+00 -0.00000000000E+00 -0.36649061992E+01  0.36649061992E+01  0.00000000000E+00 0.  1.
         21    1    1    2  502  503  0.12239288936E+02 -0.39799788580E+02  0.17022495426E+04  0.17027587406E+04  0.00000000000E+00 0. -1.
         21    1    1    2  503  501 -0.12239288936E+02  0.39799788580E+02  0.12369139216E+03  0.13051200657E+03  0.00000000000E+00 0.  1.
</event>
<event>
 4    1  0.5548812E+002  0.2157042E+02  0.7546771E-02  0.1511274E+00
          2   -1    0    0  503    0  0.00000000000E+00  0.00000000000E+00  0.49192210889E+01  0.49192210889E+01  0.00000000000E+00 0.  1.
         -2   -1    0    0    0  501 -0.00000000000E+00 -0.00000000000E+00 -0.98932162283E+02  0.98932162283E+02  0.00000000000E+00 0. -1.
         21    1    1    2  502  501 -0.90072448422E+01 -0.19599811672E+02 -0.57891539547E+02  0.61779555099E+02  0.00000000000E+00 0. -1.
         21    1    1    2  503  502  0.90072448422E+01  0.19599811672E+02 -0.36121401648E+02  0.42071828273E+02  0.00000000000E+00 0.  1.
</event>
<event>
 4    1  0.5548812E+002  0.2333988E+02  0.7546771E-02  0.1488274E+00
          2   -1    0    0  503    0  0.00000000000E+00  0.00000000000E+00  0.43580658224E+03  0.43580658224E+03  0.00000000000E+00 0.  1.
         -2   -1    0    0    0  501 -0.00000000000E+00 -0.00000000000E+00 -0.12507137143E+01  0.12507137143E+01  0.00000000000E+00 0. -1.
         21    1    1    2  502  501 -0.14620370312E+02 -0.18193267715E+02  0.21199089421E+03  0.21327186745E+03  0.00000000000E+00 0. -1.
         21    1    1    2  503  502  0.14620370312E+02  0.18193267715E+02  0.22256497432E+03  0.22378542850E+03  0.00000000000E+00 0.  1.
</event>
<event>
 4    1  0.5548812E+002  0.1028794E+03  0.7546771E-02  0.1158910E+00
          2   -1    0    0  502    0  0.00000000000E+00  0.00000000000E+00  0.10655938519E+04  0.10655938519E+04  0.00000000000E+00 0. -1.
         -2   -1    0    0    0  501 -0.00000000000E+00 -0.00000000000E+00 -0.11640889660E+02  0.11640889660E+02  0.00000000000E+00 0.  1.
         21    1    1    2  502  503  0.85368156814E+02 -0.57414640301E+02  0.73330657827E+03  0.74048815038E+03  0.00000000000E+00 0. -1.
         21    1    1    2  503  501 -0.85368156814E+02  0.57414640301E+02  0.32064638397E+03  0.33674659118E+03  0.00000000000E+00 0.  1.
</event>
<event>
 4    1  0.5548812E+002  0.2086965E+02  0.7546771E-02  0.1521134E+00
          2   -1    0    0  503    0  0.00000000000E+00  0.00000000000E+00  0.19388517694E+03  0.19388517694E+03  0.00000000000E+00 0.  1.
         -2   -1    0    0    0  501 -0.00000000000E+00 -0.00000000000E+00 -0.88099342479E+01  0.88099342479E+01  0.00000000000E+00 0. -1.
         21    1    1    2  502  501 -0.20679187916E+02 -0.28130785149E+01  0.50601807468E+01  0.21474348716E+02  0.00000000000E+00 0. -1.
         21    1    1    2  503  502  0.20679187916E+02  0.28130785149E+01  0.18001506194E+03  0.18122076247E+03  0.00000000000E+00 0.  1.
</event>
<event>
 4    1  0.5548812E+002  0.2028940E+02  0.7546771E-02  0.1529657E+00
          2   -1    0    0  503    0  0.00000000000E+00  0.00000000000E+00  0.69708068794E+01  0.69708068794E+01  0.00000000000E+00 0. -1.
         -2   -1    0    0    0  501 -0.00000000000E+00 -0.00000000000E+00 -0.19628379856E+03  0.19628379856E+03  0.00000000000E+00 0.  1.
         21    1    1    2  502  501  0.79562244388E+01 -0.18664357256E+02 -0.17963147935E+03  0.18077369309E+03  0.00000000000E+00 0.  1.
         21    1    1    2  503  502 -0.79562244388E+01  0.18664357256E+02 -0.96815123288E+01  0.22480912350E+02  0.00000000000E+00 0. -1.
</event>
<event>
 4    1  0.5548812E+002  0.2513600E+02  0.7546771E-02  0.1467288E+00
          2   -1    0    0  503    0  0.00000000000E+00  0.00000000000E+00  0.56550955344E+02  0.56550955344E+02  0.00000000000E+00 0. -1.
         -2   -1    0    0    0  501 -0.00000000000E+00 -0.00000000000E+00 -0.11216770144E+02  0.11216770144E+02  0.00000000000E+00 0.  1.
         21    1    1    2  502  501  0.13742440162E+02  0.21046701300E+02  0.20539561434E+02  0.32460620467E+02  0.00000000000E+00 0.  1.
         21    1    1    2  503  502 -0.13742440162E+02 -0.21046701300E+02  0.24794623766E+02  0.35307105020E+02  0.00000000000E+00 0. -1.
</event>
<event>
 4    1  0.5548812E+002  0.2434666E+02  0.7546771E-02  0.1476247E+00
          2   -1    0    0  503    0  0.00000000000E+00  0.00000000000E+00  0.54532461782E+00  0.54532461782E+00  0.00000000000E+00 0.  1.
         -2   -1    0    0    0  501 -0.00000000000E+00 -0.00000000000E+00 -0.11021692531E+04  0.11021692531E+04  0.00000000000E+00 0. -1.
         21    1    1    2  502  501 -0.18910601561E+01  0.24273103960E+02 -0.48609687285E+03  0.48670620448E+03  0.00000000000E+00 0.  1.
         21    1    1    2  503  502  0.18910601561E+01 -0.24273103960E+02 -0.61552705560E+03  0.61600837321E+03  0.00000000000E+00 0. -1.
</event>
<event>
 4    1  0.5548812E+002  0.2346037E+02  0.7546771E-02  0.1486797E+00
          2   -1    0    0  502    0  0.00000000000E+00  0.00000000000E+00  0.80021385151E+02  0.80021385151E+02  0.00000000000E+00 0. -1.
         -2   -1    0    0    0  501 -0.00000000000E+00 -0.00000000000E+00 -0.73100286188E+01  0.73100286188E+01  0.00000000000E+00 0.  1.
         21    1    1    2  502  503  0.16625932405E+02 -0.16551958401E+02  0.46970812251E+02  0.52503772805E+02  0.00000000000E+00 0. -1.
         21    1    1    2  503  501 -0.16625932405E+02  0.16551958401E+02  0.25740544281E+02  0.34827640964E+02  0.00000000000E+00 0.  1.
</event>
<event>
 4    1  0.5548812E+002  0.2389308E+02  0.7546771E-02  0.1481578E+00
          2   -1    0    0  502    0  0.00000000000E+00  0.00000000000E+00  0.76347855013E+02  0.76347855013E+02  0.00000000000E+00 0.  1.
         -2   -1    0    0    0  501 -0.00000000000E+00 -0.00000000000E+00 -0.77263017849E+01  0.77263017849E+01  0.00000000000E+00 0. -1.
         21    1    1    2  502  503  0.13202723791E+02 -0.19913997950E+02  0.41856639798E+02  0.48196032254E+02  0.00000000000E+00 0.  1.
         21    1    1    2  503  501 -0.13202723791E+02  0.19913997950E+02  0.26764913430E+02  0.35878124544E+02  0.00000000000E+00 0. -1.
</event>
<event>
 4    1  0.5548812E+002  0.2419048E+02  0.7546771E-02  0.1478067E+00
          2   -1    0    0  502    0  0.00000000000E+00  0.00000000000E+00  0.11887436956E+04  0.11887436956E+04  0.00000000000E+00 0. -1.
         -2   -1    0    0    0  501 -0.00000000000E+00 -0.00000000000E+00 -0.42927295978E+01  0.42927295978E+01  0.00000000000E+00 0.  1.
         21    1    1    2  502  503  0.21156541988E+02  0.11729445748E+02  0.11534998115E+04  0.11537534374E+04  0.00000000000E+00 0. -1.
         21    1    1    2  503  501 -0.21156541988E+02 -0.11729445748E+02  0.30951154539E+02  0.39282987841E+02  0.00000000000E+00 0.  1.
</event>
<event>
 4    1  0.5548812E+002  0.2857341E+02  0.7546771E-02  0.1432412E+00
          2   -1    0    0  503    0  0.00000000000E+00  0.00000000000E+00  0.47662398992E+03  0.47662398992E+03  0.00000000000E+00 0. -1.
         -2   -1    0    0    0  501 -0.00000000000E+00 -0.00000000000E+00 -0.18892428348E+01  0.18892428348E+01  0.00000000000E+00 0.  1.
         21    1    1    2  502  501  0.28529397996E+02  0.15853266077E+01  0.31045097799E+03  0.31176313051E+03  0.00000000000E+00 0.  1.
         21    1    1    2  503  502 -0.28529397996E+02 -0.15853266077E+01  0.16428376909E+03  0.16675010224E+03  0.00000000000E+00 0. -1.
</event>
<event>
 4    1  0.5548812E+002  0.4258215E+02  0.7546771E-02  0.1333984E+00
          2   -1    0    0  503    0  0.00000000000E+00  0.00000000000E+00  0.10781708158E+04  0.10781708158E+04  0.00000000000E+00 0. -1.
         -2   -1    0    0    0  501 -0.00000000000E+00 -0.00000000000E+00 -0.30704028156E+01  0.30704028156E+01  0.00000000000E+00 0.  1.
         21    1    1    2  502  501  0.12379394488E+02 -0.40742977853E+02  0.17398023560E+03  0.17911549914E+03  0.00000000000E+00 0.  1.
         21    1    1    2  503  502 -0.12379394488E+02  0.40742977853E+02  0.90112017735E+03  0.90212571944E+03  0.00000000000E+00 0. -1.
</event>
<event>
 4    1  0.5548812E+002  0.2763391E+02  0.7546771E-02  0.1441342E+00
          2   -1    0    0  503    0  0.00000000000E+00  0.00000000000E+00  0.74960099418E+02  0.74960099418E+02  0.00000000000E+00 0.  1.
         -2   -1    0    0    0  501 -0.00000000000E+00 -0.00000000000E+00 -0.10246897865E+02  0.10246897865E+02  0.00000000000E+00 0. -1.
         21    1    1    2  502  501 -0.18919014176E+02 -0.20142094922E+02  0.29104606384E+02  0.40133666641E+02  0.00000000000E+00 0. -1.
         21    1    1    2  503  502  0.18919014176E+02  0.20142094922E+02  0.35608595169E+02  0.45073330642E+02  0.00000000000E+00 0.  1.
</event>
<event>
 4    1  0.5548812E+002  0.2563395E+02  0.7546771E-02  0.1461835E+00
          2   -1    0    0  502    0  0.00000000000E+00  0.00000000000E+00  0.41782457053E+01  0.41782457053E+01  0.00000000000E+00 0. -1.
         -2   -1    0    0    0  501 -0.00000000000E+00 -0.00000000000E+00 -0.24482536259E+03  0.24482536259E+03  0.00000000000E+00 0.  1.
         21    1    1    2  502  503  0.25237829908E+02 -0.44890285800E+01 -0.45868074404E+02  0.52545025317E+02  0.00000000000E+00 0. -1.
         21    1    1    2  503  501 -0.25237829908E+02  0.44890285800E+01 -0.19477904248E+03  0.19645858298E+03  0.00000000000E+00 0.  1.
</event>
<event>
 4    1  0.5548812E+002  0.2995518E+02  0.7546771E-02  0.1419986E+00
          2   -1    0    0  503    0  0.00000000000E+00  0.00000000000E+00  0.18548915840E+04  0.18548915840E+04  0.00000000000E+00 0. -1.
         -2   -1    0    0    0  501 -0.00000000000E+00 -0.00000000000E+00 -0.18913407904E+01  0.18913407904E+01  0.00000000000E+00 0.  1.
         21    1    1    2  502  501 -0.16609404856E+02  0.24928712984E+02  0.12559018489E+03  0.12911315813E+03  0.00000000000E+00 0.  1.
         21    1    1    2  503  502  0.16609404856E+02 -0.24928712984E+02  0.17274100584E+04  0.17276697667E+04  0.00000000000E+00 0. -1.
</event>
<event>
 4    1  0.5548812E+002  0.4218063E+02  0.7546771E-02  0.1336160E+00
          2   -1    0    0  503    0  0.00000000000E+00  0.00000000000E+00  0.63773801239E+03  0.63773801239E+03  0.00000000000E+00 0.  1.
         -2   -1    0    0    0  501 -0.00000000000E+00 -0.00000000000E+00 -0.87825722166E+01  0.87825722166E+01  0.00000000000E+00 0. -1.
         21    1    1    2  502  501 -0.36331256271E+02  0.21430005850E+02  0.47452124926E+02  0.63489443949E+02  0.00000000000E+00 0. -1.
         21    1    1    2  503  502  0.36331256271E+02 -0.21430005850E+02  0.58150331524E+03  0.58303114065E+03  0.00000000000E+00 0.  1.
</event>
<event>
 4    1  0.5548812E+002  0.2382974E+02  0.7546771E-02  0.1482334E+00
          2   -1    0    0  503    0  0.00000000000E+00  0.00000000000E+00  0.47537700749E+03  0.47537700749E+03  0.00000000000E+00 0. -1.
         -2   -1    0    0    0  501 -0.00000000000E+00 -0.00000000000E+00 -0.11960892471E+01  0.11960892471E+01  0.00000000000E+00 0.  1.
         21    1    1    2  502  501  0.23512378538E+02 -0.38761334515E+01  0.24566921144E+03  0.24682223928E+03  0.00000000000E+00 0. -1.
         21    1    1    2  503  502 -0.23512378538E+02  0.38761334515E+01  0.22851170680E+03  0.22975085745E+03  0.00000000000E+00 0.  1.
</event>
<event>
 4    1  0.5548812E+002  0.3074628E+02  0.7546771E-02  0.1413220E+00
          2   -1    0    0  502    0  0.00000000000E+00  0.00000000000E+00  0.74782323003E+01  0.74782323003E+01  0.00000000000E+00 0.  1.
         -2   -1    0    0    0  501 -0.00000000000E+00 -0.00000000000E+00 -0.13796180395E+03  0.13796180395E+03  0.00000000000E+00 0. -1.
         21    1    1    2  502  503  0.27769060607E+02  0.13198983970E+02 -0.44200469481E+02  0.53842505581E+02  0.00000000000E+00 0.  1.
         21    1    1    2  503  501 -0.27769060607E+02 -0.13198983970E+02 -0.86283102165E+02  0.91597530666E+02  0.00000000000E+00 0. -1.
</event>
<event>
 4    1  0.5548812E+002  0.2112840E+02  0.7546771E-02  0.1517439E+00
          2   -1    0    0  503    0  0.00000000000E+00  0.00000000000E+00  0.10707085567E+04  0.10707085567E+04  0.00000000000E+00 0. -1.
         -2   -1    0    0    0  501 -0.00000000000E+00 -0.00000000000E+00 -0.50832616917E+00  0.50832616917E+00  0.00000000000E+00 0.  1.
         21    1    1    2  502  501  0.19923957620E+02 -0.70317411702E+01  0.30798685089E+03  0.30871072186E+03  0.00000000000E+00 0.  1.
         21    1    1    2  503  502 -0.19923957620E+02  0.70317411702E+01  0.76221337964E+03  0.76250616100E+03  0.00000000000E+00 0. -1.
</event>
<event>
 4    1  0.5548812E+002  0.2068785E+02  0.7546771E-02  0.1523769E+00
          2   -1    0    0  503    0  0.00000000000E+00  0.00000000000E+00  0.20870714523E+03  0.20870714523E+03  0.00000000000E+00 0.  1.
         -2   -1    0    0    0  501 -0.00000000000E+00 -0.00000000000E+00 -0.51778234442E+01  0.51778234442E+01  0.00000000000E+00 0. -1.
         21    1    1    2  502  501  0.18121382960E+02  0.99801176834E+01  0.18654909741E+02  0.27856649598E+02  0.00000000000E+00 0. -1.
         21    1    1    2  503  502 -0.18121382960E+02 -0.99801176834E+01  0.18487441204E+03  0.18602831907E+03  0.00000000000E+00 0.  1.
</event>
<event>
 4    1  0.5548812E+002  0.2182453E+02  0.7546771E-02  0.1507811E+00
          2   -1    0    0  503    0  0.00000000000E+00  0.00000000000E+00  0.15672197497E+04  0.15672197497E+04  0.00000000000E+00 0. -1.
         -2   -1    0    0    0  501 -0.00000000000E+00 -0.00000000000E+00 -0.57171122791E+00  0.57171122791E+00  0.00000000000E+00 0.  1.
         21    1    1    2  502  501  0.10249014419E+02 -0.19268306447E+02  0.24682633576E+03  0.24778932574E+03  0.00000000000E+00 0.  1.
         21    1    1    2  503  502 -0.10249014419E+02  0.19268306447E+02  0.13198217027E+04  0.13200021352E+04  0.00000000000E+00 0. -1.
</event>
<event>
 4    1  0.5548812E+002  0.2250018E+02  0.7546771E-02  0.1498872E+00
          2   -1    0    0  502    0  0.00000000000E+00  0.00000000000E+00  0.14357497629E+03  0.14357497629E+03  0.00000000000E+00 0.  1.
         -2   -1    0    0    0  501 -0.00000000000E+00 -0.00000000000E+00 -0.61982298458E+01  0.61982298458E+01  0.00000000000E+00 0. -1.
         21    1    1    2  502  503  0.56288575549E+00 -0.22493138713E+02  0.11785834668E+03  0.11998686600E+03  0.00000000000E+00 0.  1.
         21    1    1    2  503  501 -0.56288575549E+00  0.22493138713E+02  0.19518399765E+02  0.29786340140E+02  0.00000000000E+00 0. -1.
</event>
<event>
 4    1  0.5548812E+002  0.2858899E+02  0.7546771E-02  0.1432268E+00
          2   -1    0    0  502    0  0.00000000000E+00  0.00000000000E+00  0.98382094352E+02  0.98382094352E+02  0.00000000000E+00 0.  1.
         -2   -1    0    0    0  501 -0.00000000000E+00 -0.00000000000E+00 -0.10417416820E+02  0.10417416820E+02  0.00000000000E+00 0. -1.
         21    1    1    2  502  503 -0.28586925578E+02  0.34323433382E+00  0.68463259994E+02  0.74192641770E+02  0.00000000000E+00 0.  1.
         21    1    1    2  503  501  0.28586925578E+02 -0.34323433382E+00  0.19501417538E+02  0.34606869402E+02  0.00000000000E+00 0. -1.
</event>
<event>
 4    1  0.5548812E+002  0.2371609E+02  0.7546771E-02  0.1483697E+00
          2   -1    0    0  502    0  0.00000000000E+00  0.00000000000E+00  0.17036682815E+02  0.17036682815E+02  0.00000000000E+00 0. -1.
         -2   -1    0    0    0  501 -0.00000000000E+00 -0.00000000000E+00 -0.21110074617E+03  0.21110074617E+03  0.00000000000E+00 0.  1.
         21    1    1    2  502  503  0.95430745382E+01 -0.21711351690E+02  0.77380240734E+01  0.24946544458E+02  0.00000000000E+00 0. -1.
         21    1    1    2  503  501 -0.95430745382E+01  0.21711351690E+02 -0.20180208743E+03  0.20319088453E+03  0.00000000000E+00 0.  1.
</event>
<event>
 4    1  0.5548812E+002  0.2012951E+02  0.7546771E-02  0.1532065E+00
          2   -1    0    0  502    0  0.00000000000E+00  0.00000000000E+00  0.47031451094E+02  0.47031451094E+02  0.00000000000E+00 0. -1.
         -2   -1    0    0    0  501 -0.00000000000E+00 -0.00000000000E+00 -0.10735019457E+02  0.10735019457E+02  0.00000000000E+00 0.  1.
         21    1    1    2  502  503 -0.14206705562E+02  0.14260671054E+02  0.30982392517E+02  0.36947339118E+02  0.00000000000E+00 0. -1.
         21    1    1    2  503  501  0.14206705562E+02 -0.14260671054E+02  0.53140391201E+01  0.20819131433E+02  0.00000000000E+00 0.  1.
</event>
<event>
 4    1  0.5548812E+002  0.4135326E+02  0.7546771E-02  0.1340733E+00
          2   -1    0    0  502    0  0.00000000000E+00  0.00000000000E+00  0.35413516301E+03  0.35413516301E+03  0.00000000000E+00 0. -1.
         -2   -1    0    0    0  501 -0.00000000000E+00 -0.00000000000E+00 -0.68585311245E+01  0.68585311245E+01  0.00000000000E+00 0.  1.
         21    1    1    2  502  503  0.31257892790E+02  0.27074637051E+02  0.27182668330E+03  0.27495424636E+03  0.00000000000E+00 0.  1.
         21    1    1    2  503  501 -0.31257892790E+02 -0.27074637051E+02  0.75449948583E+02  0.86039447780E+02  0.00000000000E+00 0. -1.
</event>
<event>
 4    1  0.5548812E+002  0.2994879E+02  0.7546771E-02  0.1420042E+00
          2   -1    0    0  503    0  0.00000000000E+00  0.00000000000E+00  0.10939576780E+02  0.10939576780E+02  0.00000000000E+00 0. -1.
         -2   -1    0    0    0  501 -0.00000000000E+00 -0.00000000000E+00 -0.90729596161E+02  0.90729596161E+02  0.00000000000E+00 0.  1.
         21    1    1    2  502  501  0.29692137493E+02  0.39124110097E+01 -0.55672717696E+02  0.63216939854E+02  0.00000000000E+00 0.  1.
         21    1    1    2  503  502 -0.29692137493E+02 -0.39124110097E+01 -0.24117301685E+02  0.38452233087E+02  0.00000000000E+00 0. -1.
</event>
<event>
 4    1  0.5548812E+002  0.2724439E+02  0.7546771E-02  0.1445168E+00
          2   -1    0    0  503    0  0.00000000000E+00  0.00000000000E+00  0.30463973731E+03  0.30463973731E+03  0.00000000000E+00 0. -1.
         -2   -1    0    0    0  501 -0.00000000000E+00 -0.00000000000E+00 -0.54732916173E+01  0.54732916173E+01  0.00000000000E+00 0.  1.
         21    1    1    2  502  501 -0.26476499823E+02  0.64227594123E+01  0.34085688802E+02  0.43635891906E+02  0.00000000000E+00 0.  1.
         21    1    1    2  503  502  0.26476499823E+02 -0.64227594123E+01  0.26508075689E+03  0.26647713702E+03  0.00000000000E+00 0. -1.
</event>
<event>
 4    1  0.5548812E+002  0.2152887E+02  0.7546771E-02  0.1511846E+00
          2   -1    0    0  503    0  0.00000000000E+00  0.00000000000E+00  0.15361631659E+04  0.15361631659E+04  0.00000000000E+00 0.  1.
         -2   -1    0    0    0  501 -0.00000000000E+00 -0.00000000000E+00 -0.52046062594E+00  0.52046062594E+00  0.00000000000E+00 0. -1.
         21    1    1    2  502  501 -0.10926662800E+01  0.21501127834E+02  0.26971230005E+03  0.27057017059E+03  0.00000000000E+00 0. -1.
         21    1    1    2  503  502  0.10926662800E+01 -0.21501127834E+02  0.12659304052E+04  0.12661134559E+04  0.00000000000E+00 0.  1.
</event>
<event>
 4    1  0.5548812E+002  0.3759037E+02  0.7546771E-02  0.1363216E+00
          2   -1    0    0  503    0  0.00000000000E+00  0.00000000000E+00  0.30495266998E+03  0.30495266998E+03  0.00000000000E+00 0. -1.
         -2   -1    0    0    0  501 -0.00000000000E+00 -0.00000000000E+00 -0.48508843878E+01  0.48508843878E+01  0.00000000000E+00 0.  1.
         21    1    1    2  502  501 -0.35938910374E+02  0.11019571993E+02  0.18283289254E+03  0.18665717998E+03  0.00000000000E+00 0. -1.
         21    1    1    2  503  502  0.35938910374E+02 -0.11019571993E+02  0.11726889306E+03  0.12314637439E+03  0.00000000000E+00 0.  1.
</event>
<event>
 4    1  0.5548812E+002  0.3165560E+02  0.7546771E-02  0.1405735E+00
          2   -1    0    0  502    0  0.00000000000E+00  0.00000000000E+00  0.17901606651E+04  0.17901606651E+04  0.00000000000E+00 0.  1.
         -2   -1    0    0    0  501 -0.00000000000E+00 -0.00000000000E+00 -0.82339339180E+00  0.82339339180E+00  0.00000000000E+00 0. -1.
         21    1    1    2  502  503  0.75481152903E+00 -0.31646602326E+02  0.14013681568E+04  0.14017256465E+04  0.00000000000E+00 0.  1.
         21    1    1    2  503  501 -0.75481152903E+00  0.31646602326E+02  0.38796911493E+03  0.38925841201E+03  0.00000000000E+00 0. -1.
</event>
<event>
 4    1  0.5548812E+002  0.2657578E+02  0.7546771E-02  0.1451917E+00
          2   -1    0    0  502    0  0.00000000000E+00  0.00000000000E+00  0.26999058323E+03  0.26999058323E+03  0.00000000000E+00 0. -1.
         -2   -1    0    0    0  501 -0.00000000000E+00 -0.00000000000E+00 -0.87639985300E+01  0.87639985300E+01  0.00000000000E+00 0.  1.
         21    1    1    2  502  503  0.24274163754E+02  0.10818369928E+02  0.24735089889E+03  0.24877447484E+03  0.00000000000E+00 0. -1.
         21    1    1    2  503  501 -0.24274163754E+02 -0.10818369928E+02  0.13875685812E+02  0.29980106915E+02  0.00000000000E+00 0.  1.
</event>
<event>
 4    1  0.5548812E+002  0.2169777E+02  0.7546771E-02  0.1509531E+00
          2   -1    0    0  502    0  0.00000000000E+00  0.00000000000E+00  0.12058113753E+04  0.12058113753E+04  0.00000000000E+00 0.  1.
         -2   -1    0    0    0  501 -0.00000000000E+00 -0.00000000000E+00 -0.43505000927E+00  0.43505000927E+00  0.00000000000E+00 0. -1.
         21    1    1    2  502  503 -0.11324795913E+02  0.18507897103E+02  0.40955018067E+03  0.41012454662E+03  0.00000000000E+00 0. -1.
         21    1    1    2  503  501  0.11324795913E+02 -0.18507897103E+02  0.79582614458E+03  0.79612187865E+03  0.00000000000E+00 0.  1.
</event>
<event>
 4    1  0.5548812E+002  0.5421056E+02  0.7546771E-02  0.1280881E+00
          2   -1    0    0  502    0  0.00000000000E+00  0.00000000000E+00  0.85659191808E+03  0.85659191808E+03  0.00000000000E+00 0. -1.
         -2   -1    0    0    0  501 -0.00000000000E+00 -0.00000000000E+00 -0.67645132825E+01  0.67645132825E+01  0.00000000000E+00 0.  1.
         21    1    1    2  502  503 -0.14545882217E+02 -0.52222620996E+02  0.72795847273E+03  0.72997419328E+03  0.00000000000E+00 0. -1.
         21    1    1    2  503  501  0.14545882217E+02  0.52222620996E+02  0.12186893208E+03  0.13338223809E+03  0.00000000000E+00 0.  1.
</event>
<event>
 4    1  0.5548812E+002  0.2354055E+02  0.7546771E-02  0.1485820E+00
          2   -1    0    0  502    0  0.00000000000E+00  0.00000000000E+00  0.44411528384E+03  0.44411528384E+03  0.00000000000E+00 0. -1.
         -2   -1    0    0    0  501 -0.00000000000E+00 -0.00000000000E+00 -0.38447567750E+01  0.38447567750E+01  0.00000000000E+00 0.  1.
         21    1    1    2  502  503  0.22709604710E+02  0.61992963734E+01  0.40421628593E+03  0.40490117712E+03  0.00000000000E+00 0. -1.
         21    1    1    2  503  501 -0.22709604710E+02 -0.61992963734E+01  0.36054241126E+02  0.43058863487E+02  0.00000000000E+00 0.  1.
</event>
<event>
 4    1  0.5548812E+002  0.3048565E+02  0.7546771E-02  0.1415422E+00
          2   -1    0    0  502    0  0.00000000000E+00  0.00000000000E+00  0.68988323815E+03  0.68988323815E+03  0.00000000000E+00 0.  1.
         -2   -1    0    0    0  501 -0.00000000000E+00 -0.00000000000E+00 -0.42557785710E+01  0.42557785710E+01  0.00000000000E+00 0. -1.
         21    1    1    2  502  503 -0.10565803566E+02 -0.28596125325E+02  0.62974062347E+03  0.63047809434E+03  0.00000000000E+00 0.  1.
         21    1    1    2  503  501  0.10565803566E+02  0.28596125325E+02  0.55886836104E+02  0.63660922381E+02  0.00000000000E+00 0. -1.
</event>
<event>
 4    1  0.5548812E+002  0.3890405E+02  0.7546771E-02  0.1355030E+00
          2   -1    0    0  503    0  0.00000000000E+00  0.00000000000E+00  0.74389522500E+02  0.74389522500E+02  0.00000000000E+00 0.  1.
         -2   -1    0    0    0  501 -0.00000000000E+00 -0.00000000000E+00 -0.20842766959E+02  0.20842766959E+02  0.00000000000E+00 0. -1.
         21    1    1    2  502  501  0.24186966398E+02  0.30471559198E+02  0.19421874233E+02  0.43482576536E+02  0.00000000000E+00 0. -1.
         21    1    1    2  503  502 -0.24186966398E+02 -0.30471559198E+02  0.34124881308E+02  0.51749712924E+02  0.00000000000E+00 0.  1.
</event>
<event>
 4    1  0.5548812E+002  0.2815241E+02  0.7546771E-02  0.1436363E+00
          2   -1    0    0  503    0  0.00000000000E+00  0.00000000000E+00  0.23806444439E+02  0.23806444439E+02  0.00000000000E+00 0. -1.
         -2   -1    0    0    0  501 -0.00000000000E+00 -0.00000000000E+00 -0.18219349181E+03  0.18219349181E+03  0.00000000000E+00 0.  1.
         21    1    1    2  502  501 -0.19323457753E+02 -0.20473457223E+02 -0.17230871350E+03  0.17459338824E+03  0.00000000000E+00 0.  1.
         21    1    1    2  503  502  0.19323457753E+02  0.20473457223E+02  0.13921666126E+02  0.31406548010E+02  0.00000000000E+00 0. -1.
</event>
<event>
 4    1  0.5548812E+002  0.2027290E+02  0.7546771E-02  0.1529904E+00
          2   -1    0    0  502    0  0.00000000000E+00  0.00000000000E+00  0.13816876329E+04  0.13816876329E+04  0.00000000000E+00 0. -1.
         -2   -1    0    0    0  501 -0.00000000000E+00 -0.00000000000E+00 -0.30053722110E+00  0.30053722110E+00  0.00000000000E+00 0.  1.
         21    1    1    2  502  503  0.15925528562E+02 -0.12544639900E+02  0.62072082527E+03  0.62105179605E+03  0.00000000000E+00 0. -1.
         21    1    1    2  503  501 -0.15925528562E+02  0.12544639900E+02  0.76066627044E+03  0.76093637410E+03  0.00000000000E+00 0.  1.
</event>
<event>
 4    1  0.5548812E+002  0.2054961E+02  0.7546771E-02  0.1525793E+00
          2   -1    0    0  502    0  0.00000000000E+00  0.00000000000E+00  0.90457556061E+01  0.90457556061E+01  0.00000000000E+00 0. -1.
         -2   -1    0    0    0  501 -0.00000000000E+00 -0.00000000000E+00 -0.54283645770E+02  0.54283645770E+02  0.00000000000E+00 0.  1.
         21    1    1    2  502  503  0.11676181984E+01 -0.20516406879E+02 -0.34467238132E+02  0.40128254235E+02  0.00000000000E+00 0.  1.
         21    1    1    2  503  501 -0.11676181984E+01  0.20516406879E+02 -0.10770652032E+02  0.23201147141E+02  0.00000000000E+00 0. -1.
</event>
<event>
 4    1  0.5548812E+002  0.2096375E+02  0.7546771E-02  0.1519783E+00
          2   -1    0    0  502    0  0.00000000000E+00  0.00000000000E+00  0.78602624759E+03  0.78602624759E+03  0.00000000000E+00 0.  1.
         -2   -1    0    0    0  501 -0.00000000000E+00 -0.00000000000E+00 -0.50168173488E+01  0.50168173488E+01  0.00000000000E+00 0. -1.
         21    1    1    2  502  503 -0.57572059737E+01 -0.20157717652E+02  0.76333529303E+03  0.76362310637E+03  0.00000000000E+00 0.  1.
         21    1    1    2  503  501  0.57572059737E+01  0.20157717652E+02  0.17674137210E+02  0.27419958565E+02  0.00000000000E+00 0. -1.
</event>
<event>
 4    1  0.5548812E+002  0.3243200E+02  0.7546771E-02  0.1399575E+00
          2   -1    0    0  502    0  0.00000000000E+00  0.00000000000E+00  0.12355623661E+02  0.12355623661E+02  0.00000000000E+00 0.  1.
         -2   -1    0    0    0  501 -0.00000000000E+00 -0.00000000000E+00 -0.18126025043E+03  0.18126025043E+03  0.00000000000E+00 0. -1.
         21    1    1    2  502  503 -0.34146142303E+01 -0.32251741710E+02 -0.13952222067E+02  0.35305791795E+02  0.00000000000E+00 0.  1.
         21    1    1    2  503  501  0.34146142303E+01  0.32251741710E+02 -0.15495240471E+03  0.15831008230E+03  0.00000000000E+00 0. -1.
</event>
<event>
 4    1  0.5548812E+002  0.4084891E+02  0.7546771E-02  0.1343582E+00
          2   -1    0    0  502    0  0.00000000000E+00  0.00000000000E+00  0.63854124556E+03  0.63854124556E+03  0.00000000000E+00 0. -1.
         -2   -1    0    0    0  501 -0.00000000000E+00 -0.00000000000E+00 -0.36826546029E+01  0.36826546029E+01  0.00000000000E+00 0.  1.
         21    1    1    2  502  503 -0.21380143589E+02  0.34806936114E+02  0.49047387137E+03  0.49217197385E+03  0.00000000000E+00 0. -1.
         21    1    1    2  503  501  0.21380143589E+02 -0.34806936114E+02  0.14438471959E+03  0.15005192632E+03  0.00000000000E+00 0.  1.
</event>
<event>
 4    1  0.5548812E+002  0.2882842E+02  0.7546771E-02  0.1430058E+00
          2   -1    0    0  502    0  0.00000000000E+00  0.00000000000E+00  0.85502947317E+01  0.85502947317E+01  0.00000000000E+00 0. -1.
         -2   -1    0    0    0  501 -0.00000000000E+00 -0.00000000000E+00 -0.98342492516E+02  0.98342492516E+02  0.00000000000E+00 0.  1.
         21    1    1    2  502  503  0.22389680103E+02  0.18159841145E+02 -0.39132154194E+02  0.48604558401E+02  0.00000000000E+00 0. -1.
         21    1    1    2  503  501 -0.22389680103E+02 -0.18159841145E+02 -0.50660043591E+02  0.58288228847E+02  0.00000000000E+00 0.  1.
</event>
<event>
 4    1  0.5548812E+002  0.2532686E+02  0.7546771E-02  0.1465180E+00
          2   -1    0    0  502    0  0.00000000000E+00  0.00000000000E+00  0.42844499371E+02  0.42844499371E+02  0.00000000000E+00 0. -1.
         -2   -1    0    0    0  501 -0.00000000000E+00 -0.00000000000E+00 -0.16581897796E+02  0.16581897796E+02  0.00000000000E+00 0.  1.
         21    1    1    2  502  503  0.21450167316E+02 -0.13466268279E+02  0.22390798439E+02  0.33805294171E+02  0.00000000000E+00 0. -1.
         21    1    1    2  503  501 -0.21450167316E+02  0.13466268279E+02  0.38718031364E+01  0.25621102997E+02  0.00000000000E+00 0.  1.
</event>
<event>
 4    1  0.5548812E+002  0.2405611E+02  0.7546771E-02  0.1479646E+00
          2   -1    0    0  503    0  0.00000000000E+00  0.00000000000E+00  0.26519599165E+01  0.26519599165E+01  0.00000000000E+00 0. -1.
         -2   -1    0    0    0  501 -0.00000000000E+00 -0.00000000000E+00 -0.31231105887E+03  0.31231105887E+03  0.00000000000E+00 0.  1.
         21    1    1    2  502  501 -0.77766134733E+01 -0.22764466790E+02 -0.24127104507E+03  0.24246734595E+03  0.00000000000E+00 0.  1.
         21    1    1    2  503  502  0.77766134733E+01  0.22764466790E+02 -0.68388053887E+02  0.72495672835E+02  0.00000000000E+00 0. -1.
</event>
<event>
 4    1  0.5548812E+002  0.2887899E+02  0.7546771E-02  0.1429595E+00
          2   -1    0    0  502    0  0.00000000000E+00  0.00000000000E+00  0.34266247298E+01  0.34266247298E+01  0.00000000000E+00 0. -1.
         -2   -1    0    0    0  501 -0.00000000000E+00 -0.00000000000E+00 -0.53873048319E+03  0.53873048319E+03  0.00000000000E+00 0.  1.
         21    1    1    2  502  503  0.23915115253E+02 -0.16188363216E+02 -0.66940040875E+02  0.72903805892E+02  0.00000000000E+00 0. -1.
         21    1    1    2  503  501 -0.23915115253E+02  0.16188363216E+02 -0.46836381759E+03  0.46925330203E+03  0.00000000000E+00 0.  1.
</event>
<event>
 4    1  0.5548812E+002  0.3367421E+02  0.7546771E-02  0.1390131E+00
          2   -1    0    0  503    0  0.00000000000E+00  0.00000000000E+00  0.50268003123E+03  0.50268003123E+03  0.00000000000E+00 0. -1.
         -2   -1    0    0    0  501 -0.00000000000E+00 -0.00000000000E+00 -0.22691187500E+01  0.22691187500E+01  0.00000000000E+00 0.  1.
         21    1    1    2  502  501  0.16797282076E+02 -0.29185677942E+02  0.26953839665E+03  0.27163376033E+03  0.00000000000E+00 0. -1.
         21    1    1    2  503  502 -0.16797282076E+02  0.29185677942E+02  0.23087251583E+03  0.23331538965E+03  0.00000000000E+00 0.  1.
</event>
<event>
 4    1  0.5548812E+002  0.2454432E+02  0.7546771E-02  0.1473966E+00
          2   -1    0    0  503    0  0.00000000000E+00  0.00000000000E+00  0.13221372097E+04  0.13221372097E+04  0.00000000000E+00 0. -1.
         -2   -1    0    0    0  501 -0.00000000000E+00 -0.00000000000E+00 -0.15650109724E+01  0.15650109724E+01  0.00000000000E+00 0.  1.
         21    1    1    2  502  501  0.19245723429E+02 -0.15232387991E+02  0.10304995368E+03  0.10593260343E+03  0.00000000000E+00 0. -1.
         21    1    1    2  503  502 -0.19245723429E+02  0.15232387991E+02  0.12175222451E+04  0.12177696173E+04  0.00000000000E+00 0.  1.
</event>
<event>
 4    1  0.5548812E+002  0.3144697E+02  0.7546771E-02  0.1407426E+00
          2   -1    0    0  503    0  0.00000000000E+00  0.00000000000E+00  0.17530307927E+03  0.17530307927E+03  0.00000000000E+00 0.  1.
         -2   -1    0    0    0  501 -0.00000000000E+00 -0.00000000000E+00 -0.82698021421E+01  0.82698021421E+01  0.00000000000E+00 0. -1.
         21    1    1    2  502  501  0.17223028137E+02 -0.26311199662E+02  0.31768220713E+02  0.44700467258E+02  0.00000000000E+00 0. -1.
         21    1    1    2  503  502 -0.17223028137E+02  0.26311199662E+02  0.13526505642E+03  0.13887241415E+03  0.00000000000E+00 0.  1.
</event>
<event>
 4    1  0.5548812E+002  0.2719985E+02  0.7546771E-02  0.1445611E+00
          2   -1    0    0  503    0  0.00000000000E+00  0.00000000000E+00  0.19822311189E+03  0.19822311189E+03  0.00000000000E+00 0. -1.
         -2   -1    0    0    0  501 -0.00000000000E+00 -0.00000000000E+00 -0.41053379926E+01  0.41053379926E+01  0.00000000000E+00 0.  1.
         21    1    1    2  502  501  0.13740907381E+02 -0.23473804204E+02  0.66564663234E+02  0.71907485082E+02  0.00000000000E+00 0.  1.
         21    1    1    2  503  502 -0.13740907381E+02  0.23473804204E+02  0.12755311067E+03  0.13042096480E+03  0.00000000000E+00 0. -1.
</event>
<event>
 4    1  0.5548812E+002  0.2092659E+02  0.7546771E-02  0.1520316E+00
          2   -1    0    0  503    0  0.00000000000E+00  0.00000000000E+00  0.61141617648E+03  0.61141617648E+03  0.00000000000E+00 0. -1.
         -2   -1    0    0    0  501 -0.00000000000E+00 -0.00000000000E+00 -0.83056156693E+00  0.83056156693E+00  0.00000000000E+00 0.  1.
         21    1    1    2  502  501 -0.18664510373E+02 -0.94635165525E+01  0.41886457754E+03  0.41938700076E+03  0.00000000000E+00 0. -1.
         21    1    1    2  503  502  0.18664510373E+02  0.94635165525E+01  0.19172103737E+03  0.19285973728E+03  0.00000000000E+00 0.  1.
</event>
<event>
 4    1  0.5548812E+002  0.2043708E+02  0.7546771E-02  0.1527456E+00
          2   -1    0    0  503    0  0.00000000000E+00  0.00000000000E+00  0.11463475918E+04  0.11463475918E+04  0.00000000000E+00 0. -1.
         -2   -1    0    0    0  501 -0.00000000000E+00 -0.00000000000E+00 -0.80011280071E+00  0.80011280071E+00  0.00000000000E+00 0.  1.
         21    1    1    2  502  501  0.17334310708E+02  0.10825708293E+02  0.14948403352E+03  0.15087461869E+03  0.00000000000E+00 0.  1.
         21    1    1    2  503  502 -0.17334310708E+02 -0.10825708293E+02  0.99606344547E+03  0.99627308590E+03  0.00000000000E+00 0. -1.
</event>
<event>
 4    1  0.5548812E+002  0.2028406E+02  0.7546771E-02  0.1529737E+00
          2   -1    0    0  503    0  0.00000000000E+00  0.00000000000E+00  0.10342231710E+03  0.10342231710E+03  0.00000000000E+00 0. -1.
         -2   -1    0    0    0  501 -0.00000000000E+00 -0.00000000000E+00 -0.60424115970E+01  0.60424115970E+01  0.00000000000E+00 0.  1.
         21    1    1    2  502  501  0.14497506324E+02 -0.14186810356E+02  0.16700456599E+02  0.26274484358E+02  0.00000000000E+00 0.  1.
         21    1    1    2  503  502 -0.14497506324E+02  0.14186810356E+02  0.80679448903E+02  0.83190244338E+02  0.00000000000E+00 0. -1.
</event>
<event>
 4    1  0.5548812E+002  0.2471909E+02  0.7546771E-02  0.1471971E+00
          2   -1    0    0  502    0  0.00000000000E+00  0.00000000000E+00  0.47179113194E+00  0.47179113194E+00  0.00000000000E+00 0.  1.
         -2   -1    0    0    0  501 -0.00000000000E+00 -0.00000000000E+00 -0.15380888153E+04  0.15380888153E+04  0.00000000000E+00 0. -1.
         21    1    1    2  502  503 -0.23486021279E+02 -0.77097414760E+01 -0.46306617897E+03  0.46372547851E+03  0.00000000000E+00 0.  1.
         21    1    1    2  503  501  0.23486021279E+02  0.77097414760E+01 -0.10745508452E+04  0.10748351280E+04  0.00000000000E+00 0. -1.
</event>
<event>
 4    1  0.5548812E+002  0.2025908E+02  0.7546771E-02  0.1530111E+00
          2   -1    0    0  503    0  0.00000000000E+00  0.00000000000E+00  0.11556991298E+04  0.11556991298E+04  0.00000000000E+00 0. -1.
         -2   -1    0    0    0  501 -0.00000000000E+00 -0.00000000000E+00 -0.53312581115E+00  0.53312581115E+00  0.00000000000E+00 0.  1.
         21    1    1    2  502  501  0.65969459274E+01  0.19154910478E+02  0.24354345890E+03  0.24438462853E+03  0.00000000000E+00 0.  1.
         21    1    1    2  503  502 -0.65969459274E+01 -0.19154910478E+02  0.91162254510E+03  0.91184762709E+03  0.00000000000E+00 0. -1.
</event>
<event>
 4    1  0.5548812E+002  0.6673883E+02  0.7546771E-02  0.1238509E+00
          2   -1    0    0  502    0  0.00000000000E+00  0.00000000000E+00  0.88835505206E+03  0.88835505206E+03  0.00000000000E+00 0. -1.
         -2   -1    0    0    0  501 -0.00000000000E+00 -0.00000000000E+00 -0.57993881299E+01  0.57993881299E+01  0.00000000000E+00 0.  1.
         21    1    1    2  502  503  0.62655189560E+02  0.22986929245E+02  0.60582005315E+03  0.60948503550E+03  0.00000000000E+00 0. -1.
         21    1    1    2  503  501 -0.62655189560E+02 -0.22986929245E+02  0.27673561078E+03  0.28466940469E+03  0.00000000000E+00 0.  1.
</event>
<event>
 4    1  0.5548812E+002  0.2178921E+02  0.7546771E-02  0.1508289E+00
          2   -1    0    0  502    0  0.00000000000E+00  0.00000000000E+00  0.88827960214E+03  0.88827960214E+03  0.00000000000E+00 0.  1.
         -2   -1    0    0    0  501 -0.00000000000E+00 -0.00000000000E+00 -0.58706212667E+00  0.58706212667E+00  0.00000000000E+00 0. -1.
         21    1    1    2  502  503  0.18651738483E+02  0.11264196226E+02  0.31083900169E+03  0.31160175616E+03  0.00000000000E+00 0. -1.
         21    1    1    2  503  501 -0.18651738483E+02 -0.11264196226E+02  0.57685353832E+03  0.57726490811E+03  0.00000000000E+00 0.  1.
</event>
<event>
 4    1  0.5548812E+002  0.2700923E+02  0.7546771E-02  0.1447515E+00
          2   -1    0    0  503    0  0.00000000000E+00  0.00000000000E+00  0.26198784690E+02  0.26198784690E+02  0.00000000000E+00 0.  1.
         -2   -1    0    0    0  501 -0.00000000000E+00 -0.00000000000E+00 -0.57649006417E+02  0.57649006417E+02  0.00000000000E+00 0. -1.
         21    1    1    2  502  501 -0.13493352166E+02 -0.23397182216E+02 -0.45869385704E+02  0.53230623077E+02  0.00000000000E+00 0. -1.
         21    1    1    2  503  502  0.13493352166E+02  0.23397182216E+02  0.14419163977E+02  0.30617168030E+02  0.00000000000E+00 0.  1.
</event>
<event>
 4    1  0.5548812E+002  0.7160527E+02  0.7546771E-02  0.1224804E+00
          2   -1    0    0  503    0  0.00000000000E+00  0.00000000000E+00  0.29798744439E+02  0.29798744439E+02  0.00000000000E+00 0. -1.
         -2   -1    0    0    0  501 -0.00000000000E+00 -0.00000000000E+00 -0.19008782136E+03  0.19008782136E+03  0.00000000000E+00 0.  1.
         21    1    1    2  502  501 -0.56455008654E+02 -0.44047095030E+02 -0.11399819022E+03  0.13462132802E+03  0.00000000000E+00 0.  1.
         21    1    1    2  503  502  0.56455008654E+02  0.44047095030E+02 -0.46290886698E+02  0.85265237782E+02  0.00000000000E+00 0. -1.
</event>
<event>
 4    1  0.5548812E+002  0.2330882E+02  0.7546771E-02  0.1488656E+00
          2   -1    0    0  503    0  0.00000000000E+00  0.00000000000E+00  0.33980692624E+03  0.33980692624E+03  0.00000000000E+00 0. -1.
         -2   -1    0    0    0  501 -0.00000000000E+00 -0.00000000000E+00 -0.28563078495E+01  0.28563078495E+01  0.00000000000E+00 0.  1.
         21    1    1    2  502  501  0.98857168710E+01 -0.21108619857E+02  0.54796044838E+02  0.59547525223E+02  0.00000000000E+00 0.  1.
         21    1    1    2  503  502 -0.98857168710E+01  0.21108619857E+02  0.28215457355E+03  0.28311570886E+03  0.00000000000E+00 0. -1.
</event>
<event>
 4    1  0.5548812E+002  0.2095337E+02  0.7546771E-02  0.1519932E+00
          2   -1    0    0  502    0  0.00000000000E+00  0.00000000000E+00  0.69793187084E+03  0.69793187084E+03  0.00000000000E+00 0.  1.
         -2   -1    0    0    0  501 -0.00000000000E+00 -0.00000000000E+00 -0.10967568796E+01  0.10967568796E+01  0.00000000000E+00 0. -1.
         21    1    1    2  502  503 -0.18380361788E+02  0.10060116111E+02  0.57665678024E+03  0.57703733487E+03  0.00000000000E+00 0.  1.
         21    1    1    2  503  501  0.18380361788E+02 -0.10060116111E+02  0.12017833372E+03  0.12199129286E+03  0.00000000000E+00 0. -1.
</event>
<event>
 4    1  0.5548812E+002  0.3660696E+02  0.7546771E-02  0.1369605E+00
          2   -1    0    0  502    0  0.00000000000E+00  0.00000000000E+00  0.10257392816E+04  0.10257392816E+04  0.00000000000E+00 0. -1.
         -2   -1    0    0    0  501 -0.00000000000E+00 -0.00000000000E+00 -0.18038124126E+01  0.18038124126E+01  0.00000000000E+00 0.  1.
         21    1    1    2  502  503 -0.36472950452E+02 -0.31294577056E+01  0.78175038757E+03  0.78260701383E+03  0.00000000000E+00 0. -1.
         21    1    1    2  503  501  0.36472950452E+02  0.31294577056E+01  0.24218508161E+03  0.24493608018E+03  0.00000000000E+00 0.  1.
</event>
<event>
 4    1  0.5548812E+002  0.3411303E+02  0.7546771E-02  0.1386908E+00
          2   -1    0    0  503    0  0.00000000000E+00  0.00000000000E+00  0.45030191187E+03  0.45030191187E+03  0.00000000000E+00 0.  1.
         -2   -1    0    0    0  501 -0.00000000000E+00 -0.00000000000E+00 -0.31419238846E+01  0.31419238846E+01  0.00000000000E+00 0. -1.
         21    1    1    2  502  501 -0.22245932519E+02 -0.25861505581E+02  0.12806305204E+03  0.13252865457E+03  0.00000000000E+00 0. -1.
         21    1    1    2  503  502  0.22245932519E+02  0.25861505581E+02  0.31909693595E+03  0.32091518119E+03  0.00000000000E+00 0.  1.
</event>
<event>
 4    1  0.5548812E+002  0.2397511E+02  0.7546771E-02  0.1480604E+00
          2   -1    0    0  503    0  0.00000000000E+00  0.00000000000E+00  0.35245562901E+03  0.35245562901E+03  0.00000000000E+00 0.  1.
         -2   -1    0    0    0  501 -0.00000000000E+00 -0.00000000000E+00 -0.87819786546E+01  0.87819786546E+01  0.00000000000E+00 0. -1.
         21    1    1    2  502  501 -0.28881168990E+01  0.23800516238E+02  0.88495254097E+01  0.25556210447E+02  0.00000000000E+00 0. -1.
         21    1    1    2  503  502  0.28881168990E+01 -0.23800516238E+02  0.33482412495E+03  0.33568139722E+03  0.00000000000E+00 0.  1.
</event>
<event>
 4    1  0.5548812E+002  0.4493153E+02  0.7546771E-02  0.1321782E+00
          2   -1    0    0  503    0  0.00000000000E+00  0.00000000000E+00  0.19843465491E+03  0.19843465491E+03  0.00000000000E+00 0. -1.
         -2   -1    0    0    0  501 -0.00000000000E+00 -0.00000000000E+00 -0.11032050736E+02  0.11032050736E+02  0.00000000000E+00 0.  1.
         21    1    1    2  502  501  0.33025601921E+02 -0.30465583456E+02  0.12291282505E+03  0.13086789033E+03  0.00000000000E+00 0. -1.
         21    1    1    2  503  502 -0.33025601921E+02  0.30465583456E+02  0.64489779118E+02  0.78598815311E+02  0.00000000000E+00 0.  1.
</event>
<event>
 4    1  0.5548812E+002  0.3318333E+02  0.7546771E-02  0.1393805E+00
          2   -1    0    0  503    0  0.00000000000E+00  0.00000000000E+00  0.15435996932E+03  0.15435996932E+03  0.00000000000E+00 0.  1.
         -2   -1    0    0    0  501 -0.00000000000E+00 -0.00000000000E+00 -0.14582625715E+02  0.14582625715E+02  0.00000000000E+00 0. -1.
         21    1    1    2  502  501  0.27922629828E+02 -0.17929305450E+02  0.95156738677E+01  0.34520737240E+02  0.00000000000E+00 0. -1.
         21    1    1    2  503  502 -0.27922629828E+02  0.17929305450E+02  0.13026166974E+03  0.13442185780E+03  0.00000000000E+00 0.  1.
</event>
<event>
 4    1  0.5548812E+002  0.2103239E+02  0.7546771E-02  0.1518803E+00
          2   -1    0    0  502    0  0.00000000000E+00  0.00000000000E+00  0.15850965688E+04  0.15850965688E+04  0.00000000000E+00 0. -1.
         -2   -1    0    0    0  501 -0.00000000000E+00 -0.00000000000E+00 -0.33891696984E+00  0.33891696984E+00  0.00000000000E+00 0.  1.
         21    1    1    2  502  503 -0.45052662044E+01 -0.20544197255E+02  0.11254778788E+04  0.11256743832E+04  0.00000000000E+00 0. -1.
         21    1    1    2  503  501  0.45052662044E+01  0.20544197255E+02  0.45927977301E+03  0.45976110249E+03  0.00000000000E+00 0.  1.
</event>
<event>
 4    1  0.5548812E+002  0.2087049E+02  0.7546771E-02  0.1521122E+00
          2   -1    0    0  502    0  0.00000000000E+00  0.00000000000E+00  0.63200313253E+03  0.63200313253E+03  0.00000000000E+00 0.  1.
         -2   -1    0    0    0  501 -0.00000000000E+00 -0.00000000000E+00 -0.31992794964E+01  0.31992794964E+01  0.00000000000E+00 0. -1.
         21    1    1    2  502  503 -0.11887318579E+01  0.20836607692E+02  0.59572132991E+03  0.59608680594E+03  0.00000000000E+00 0.  1.
         21    1    1    2  503  501  0.11887318579E+01 -0.20836607692E+02  0.33082523131E+02  0.39115606096E+02  0.00000000000E+00 0. -1.
</event>
<event>
 4    1  0.5548812E+002  0.3370244E+02  0.7546771E-02  0.1389922E+00
          2   -1    0    0  503    0  0.00000000000E+00  0.00000000000E+00  0.35720398531E+03  0.35720398531E+03  0.00000000000E+00 0.  1.
         -2   -1    0    0    0  501 -0.00000000000E+00 -0.00000000000E+00 -0.37111218197E+01  0.37111218197E+01  0.00000000000E+00 0. -1.
         21    1    1    2  502  501 -0.33677028814E+02 -0.13085344291E+01  0.10846832163E+03  0.11358358741E+03  0.00000000000E+00 0. -1.
         21    1    1    2  503  502  0.33677028814E+02  0.13085344291E+01  0.24502454186E+03  0.24733151972E+03  0.00000000000E+00 0.  1.
</event>
<event>
 4    1  0.5548812E+002  0.6445872E+02  0.7546771E-02  0.1245392E+00
          2   -1    0    0  502    0  0.00000000000E+00  0.00000000000E+00  0.21784226816E+03  0.21784226816E+03  0.00000000000E+00 0. -1.
         -2   -1    0    0    0  501 -0.00000000000E+00 -0.00000000000E+00 -0.40669675728E+02  0.40669675728E+02  0.00000000000E+00 0.  1.
         21    1    1    2  502  503  0.28416878748E+02  0.57856784803E+02  0.18277693646E+03  0.19381004888E+03  0.00000000000E+00 0. -1.
         21    1    1    2  503  501 -0.28416878748E+02 -0.57856784803E+02 -0.56043440275E+01  0.64701895007E+02  0.00000000000E+00 0.  1.
</event>
<event>
 4    1  0.5548812E+002  0.3804367E+02  0.7546771E-02  0.1360347E+00
          2   -1    0    0  503    0  0.00000000000E+00  0.00000000000E+00  0.83192572871E+03  0.83192572871E+03  0.00000000000E+00 0.  1.
         -2   -1    0    0    0  501 -0.00000000000E+00 -0.00000000000E+00 -0.21170683042E+01  0.21170683042E+01  0.00000000000E+00 0. -1.
         21    1    1    2  502  501  0.13572005369E+02  0.35540424425E+02  0.23884467572E+03  0.24185553584E+03  0.00000000000E+00 0. -1.
         21    1    1    2  503  502 -0.13572005369E+02 -0.35540424425E+02  0.59096398468E+03  0.59218726117E+03  0.00000000000E+00 0.  1.
</event>
<event>
 4    1  0.5548812E+002  0.4290060E+02  0.7546771E-02  0.1332278E+00
          2   -1    0    0  502    0  0.00000000000E+00  0.00000000000E+00  0.10058323367E+02  0.10058323367E+02  0.00000000000E+00 0.  1.
         -2   -1    0    0    0  501 -0.00000000000E+00 -0.00000000000E+00 -0.24378911504E+03  0.24378911504E+03  0.00000000000E+00 0. -1.
         21    1    1    2  502  503  0.41029580077E+02 -0.12531360061E+02 -0.53474960685E+02  0.68556785562E+02  0.00000000000E+00 0.  1.
         21    1    1    2  503  501 -0.41029580077E+02  0.12531360061E+02 -0.18025583098E+03  0.18529065284E+03  0.00000000000E+00 0. -1.
</event>
<event>
 4    1  0.5548812E+002  0.2862861E+02  0.7546771E-02  0.1431900E+00
          2   -1    0    0  503    0  0.00000000000E+00  0.00000000000E+00  0.69767521753E+03  0.69767521753E+03  0.00000000000E+00 0.  1.
         -2   -1    0    0    0  501 -0.00000000000E+00 -0.00000000000E+00 -0.92943469963E+01  0.92943469963E+01  0.00000000000E+00 0. -1.
         21    1    1    2  502  501 -0.28556873622E+02 -0.20253971783E+01  0.13799296246E+02  0.31780777864E+02  0.00000000000E+00 0. -1.
         21    1    1    2  503  502  0.28556873622E+02  0.20253971783E+01  0.67458157429E+03  0.67518878666E+03  0.00000000000E+00 0.  1.
</event>
<event>
 4    1  0.5548812E+002  0.2301492E+02  0.7546771E-02  0.1492311E+00
          2   -1    0    0  503    0  0.00000000000E+00  0.00000000000E+00  0.12046060400E+02  0.12046060400E+02  0.00000000000E+00 0.  1.
         -2   -1    0    0    0  501 -0.00000000000E+00 -0.00000000000E+00 -0.45693471661E+02  0.45693471661E+02  0.00000000000E+00 0. -1.
         21    1    1    2  502  501  0.57170650683E+01 -0.22293534243E+02 -0.22427679910E+02  0.32135452823E+02  0.00000000000E+00 0. -1.
         21    1    1    2  503  502 -0.57170650683E+01  0.22293534243E+02 -0.11219731351E+02  0.25604079238E+02  0.00000000000E+00 0.  1.
</event>
<event>
 4    1  0.5548812E+002  0.2265081E+02  0.7546771E-02  0.1496930E+00
          2   -1    0    0  503    0  0.00000000000E+00  0.00000000000E+00  0.12471053670E+01  0.12471053670E+01  0.00000000000E+00 0. -1.
         -2   -1    0    0    0  501 -0.00000000000E+00 -0.00000000000E+00 -0.41166907274E+03  0.41166907274E+03  0.00000000000E+00 0.  1.
         21    1    1    2  502  501 -0.20040832107E+02  0.10555769457E+02 -0.21048869687E+03  0.21170392233E+03  0.00000000000E+00 0. -1.
         21    1    1    2  503  502  0.20040832107E+02 -0.10555769457E+02 -0.19993327050E+03  0.20121225578E+03  0.00000000000E+00 0.  1.
</event>
<event>
 4    1  0.5548812E+002  0.4480366E+02  0.7546771E-02  0.1322424E+00
          2   -1    0    0  503    0  0.00000000000E+00  0.00000000000E+00  0.74057160766E+03  0.74057160766E+03  0.00000000000E+00 0. -1.
         -2   -1    0    0    0  501 -0.00000000000E+00 -0.00000000000E+00 -0.23210708111E+02  0.23210708111E+02  0.00000000000E+00 0.  1.
         21    1    1    2  502  501  0.10871375810E+02 -0.43464708639E+02 -0.21987485924E+00  0.44804196835E+02  0.00000000000E+00 0.  1.
         21    1    1    2  503  502 -0.10871375810E+02  0.43464708639E+02  0.71758077441E+03  0.71897811894E+03  0.00000000000E+00 0. -1.
</event>
<event>
 4    1  0.5548812E+002  0.2356113E+02  0.7546771E-02  0.1485570E+00
          2   -1    0    0  502    0  0.00000000000E+00  0.00000000000E+00  0.36799223454E+03  0.36799223454E+03  0.00000000000E+00 0. -1.
         -2   -1    0    0    0  501 -0.00000000000E+00 -0.00000000000E+00 -0.24593736933E+01  0.24593736933E+01  0.00000000000E+00 0.  1.
         21    1    1    2  502  503  0.15889157771E+02  0.17397168645E+02  0.29793768862E+03  0.29886785226E+03  0.00000000000E+00 0. -1.
         21    1    1    2  503  501 -0.15889157771E+02 -0.17397168645E+02  0.67595172228E+02  0.71583755979E+02  0.00000000000E+00 0.  1.
</event>
<event>
 4    1  0.5548812E+002  0.2649005E+02  0.7546771E-02  0.1452799E+00
          2   -1    0    0  502    0  0.00000000000E+00  0.00000000000E+00  0.25195083038E+03  0.25195083038E+03  0.00000000000E+00 0. -1.
         -2   -1    0    0    0  501 -0.00000000000E+00 -0.00000000000E+00 -0.72049265951E+02  0.72049265951E+02  0.00000000000E+00 0.  1.
         21    1    1    2  502  503  0.12259669779E+02 -0.23482398513E+02  0.24878881152E+03  0.25019511442E+03  0.00000000000E+00 0. -1.
         21    1    1    2  503  501 -0.12259669779E+02  0.23482398513E+02 -0.68887247090E+02  0.73804981910E+02  0.00000000000E+00 0.  1.
</event>
<event>
 4    1  0.5548812E+002  0.2300329E+02  0.7546771E-02  0.1492457E+00
          2   -1    0    0  502    0  0.00000000000E+00  0.00000000000E+00  0.36886782721E+01  0.36886782721E+01  0.00000000000E+00 0. -1.
         -2   -1    0    0    0  501 -0.00000000000E+00 -0.00000000000E+00 -0.16608915479E+03  0.16608915479E+03  0.00000000000E+00 0.  1.
         21    1    1    2  502  503 -0.21630630097E+02  0.78273502343E+01 -0.49861413532E+02  0.54911857822E+02  0.00000000000E+00 0.  1.
         21    1    1    2  503  501  0.21630630097E+02 -0.78273502343E+01 -0.11253906299E+03  0.11486597524E+03  0.00000000000E+00 0. -1.
</event>
<event>
 4    1  0.5548812E+002  0.3078536E+02  0.7546771E-02  0.1412892E+00
          2   -1    0    0  503    0  0.00000000000E+00  0.00000000000E+00  0.36032164680E+03  0.36032164680E+03  0.00000000000E+00 0. -1.
         -2   -1    0    0    0  501 -0.00000000000E+00 -0.00000000000E+00 -0.53237594283E+02  0.53237594283E+02  0.00000000000E+00 0.  1.
         21    1    1    2  502  501  0.12790430373E+02 -0.28002558516E+02 -0.48064816427E+02  0.57078585921E+02  0.00000000000E+00 0.  1.
         21    1    1    2  503  502 -0.12790430373E+02  0.28002558516E+02  0.35514886894E+03  0.35648065516E+03  0.00000000000E+00 0. -1.
</event>
<event>
 4    1  0.5548812E+002  0.2196748E+02  0.7546771E-02  0.1505887E+00
          2   -1    0    0  502    0  0.00000000000E+00  0.00000000000E+00  0.41940449833E+02  0.41940449833E+02  0.00000000000E+00 0. -1.
         -2   -1    0    0    0  501 -0.00000000000E+00 -0.00000000000E+00 -0.26613651077E+02  0.26613651077E+02  0.00000000000E+00 0.  1.
         21    1    1    2  502  503 -0.92736307574E+00  0.21947901353E+02  0.33488883246E+02  0.40050913561E+02  0.00000000000E+00 0. -1.
         21    1    1    2  503  501  0.92736307574E+00 -0.21947901353E+02 -0.18162084489E+02  0.28503187349E+02  0.00000000000E+00 0.  1.
</event>
<event>
 4    1  0.5548812E+002  0.4493573E+02  0.7546771E-02  0.1321761E+00
          2   -1    0    0  502    0  0.00000000000E+00  0.00000000000E+00  0.86809704168E+03  0.86809704168E+03  0.00000000000E+00 0.  1.
         -2   -1    0    0    0  501 -0.00000000000E+00 -0.00000000000E+00 -0.10683157735E+02  0.10683157735E+02  0.00000000000E+00 0. -1.
         21    1    1    2  502  503  0.11102964845E+02 -0.43542441864E+02  0.81733035151E+03  0.81856467281E+03  0.00000000000E+00 0.  1.
         21    1    1    2  503  501 -0.11102964845E+02  0.43542441864E+02  0.40083532432E+02  0.60215526603E+02  0.00000000000E+00 0. -1.
</event>
<event>
 4    1  0.5548812E+002  0.3078101E+02  0.7546771E-02  0.1412928E+00
          2   -1    0    0  503    0  0.00000000000E+00  0.00000000000E+00  0.21324739566E+02  0.21324739566E+02  0.00000000000E+00 0. -1.
         -2   -1    0    0    0  501 -0.00000000000E+00 -0.00000000000E+00 -0.45650515691E+02  0.45650515691E+02  0.00000000000E+00 0.  1.
         21    1    1    2  502  501  0.23268679461E+02 -0.20150415836E+02 -0.17637189566E+02  0.35475923638E+02  0.00000000000E+00 0.  1.
         21    1    1    2  503  502 -0.23268679461E+02  0.20150415836E+02 -0.66885865593E+01  0.31499331618E+02  0.00000000000E+00 0. -1.
</event>
<event>
 4    1  0.5548812E+002  0.2233670E+02  0.7546771E-02  0.1501000E+00
          2   -1    0    0  502    0  0.00000000000E+00  0.00000000000E+00  0.51048178960E+02  0.51048178960E+02  0.00000000000E+00 0. -1.
         -2   -1    0    0    0  501 -0.00000000000E+00 -0.00000000000E+00 -0.20458402941E+02  0.20458402941E+02  0.00000000000E+00 0.  1.
         21    1    1    2  502  503  0.21993171419E+02  0.39023623776E+01  0.41133073308E+02  0.46806599331E+02  0.00000000000E+00 0. -1.
         21    1    1    2  503  501 -0.21993171419E+02 -0.39023623776E+01 -0.10543297289E+02  0.24699982569E+02  0.00000000000E+00 0.  1.
</event>
<event>
 4    1  0.5548812E+002  0.3951817E+02  0.7546771E-02  0.1351333E+00
          2   -1    0    0  502    0  0.00000000000E+00  0.00000000000E+00  0.75919126468E+01  0.75919126468E+01  0.00000000000E+00 0. -1.
         -2   -1    0    0    0  501 -0.00000000000E+00 -0.00000000000E+00 -0.22837687342E+03  0.22837687342E+03  0.00000000000E+00 0.  1.
         21    1    1    2  502  503 -0.37642701713E+02 -0.12029667288E+02 -0.14756764781E+03  0.15276745912E+03  0.00000000000E+00 0. -1.
         21    1    1    2  503  501  0.37642701713E+02  0.12029667288E+02 -0.73217312959E+02  0.83201326938E+02  0.00000000000E+00 0.  1.
</event>
<event>
 4    1  0.5548812E+002  0.3304718E+02  0.7546771E-02  0.1394837E+00
          2   -1    0    0  502    0  0.00000000000E+00  0.00000000000E+00  0.97015321284E+02  0.97015321284E+02  0.00000000000E+00 0. -1.
         -2   -1    0    0    0  501 -0.00000000000E+00 -0.00000000000E+00 -0.34848140317E+02  0.34848140317E+02  0.00000000000E+00 0.  1.
         21    1    1    2  502  503 -0.13743225272E+02 -0.30053954127E+02  0.85330840090E+02  0.91506659157E+02  0.00000000000E+00 0. -1.
         21    1    1    2  503  501  0.13743225272E+02  0.30053954127E+02 -0.23163659123E+02  0.40356802444E+02  0.00000000000E+00 0.  1.
</event>
<event>
 4    1  0.5548812E+002  0.2143522E+02  0.7546771E-02  0.1513141E+00
          2   -1    0    0  502    0  0.00000000000E+00  0.00000000000E+00  0.12276251710E+03  0.12276251710E+03  0.00000000000E+00 0. -1.
         -2   -1    0    0    0  501 -0.00000000000E+00 -0.00000000000E+00 -0.42540112975E+01  0.42540112975E+01  0.00000000000E+00 0.  1.
         21    1    1    2  502  503 -0.21052548204E+02 -0.40322461799E+01  0.81271068876E+02  0.84050314879E+02  0.00000000000E+00 0. -1.
         21    1    1    2  503  501  0.21052548204E+02  0.40322461799E+01  0.37237436923E+02  0.42966213514E+02  0.00000000000E+00 0.  1.
</event>
<event>
 4    1  0.5548812E+002  0.2127842E+02  0.7546771E-02  0.1515327E+00
          2   -1    0    0  503    0  0.00000000000E+00  0.00000000000E+00  0.23497690263E+03  0.23497690263E+03  0.00000000000E+00 0.  1.
         -2   -1    0    0    0  501 -0.00000000000E+00 -0.00000000000E+00 -0.20737621494E+01  0.20737621494E+01  0.00000000000E+00 0. -1.
         21    1    1    2  502  501 -0.10795381039E+02 -0.18336599298E+02  0.14799606471E+03  0.14951791296E+03  0.00000000000E+00 0.  1.
         21    1    1    2  503  502  0.10795381039E+02  0.18336599298E+02  0.84907075773E+02  0.87532751824E+02  0.00000000000E+00 0. -1.
</event>
<event>
 4    1  0.5548812E+002  0.2869809E+02  0.7546771E-02  0.1431258E+00
          2   -1    0    0  502    0  0.00000000000E+00  0.00000000000E+00  0.81499906162E+03  0.81499906162E+03  0.00000000000E+00 0.  1.
         -2   -1    0    0    0  501 -0.00000000000E+00 -0.00000000000E+00 -0.19399274785E+01  0.19399274785E+01  0.00000000000E+00 0. -1.
         21    1    1    2  502  503 -0.27100664566E+02  0.94410930566E+01  0.68925692761E+03  0.68985410959E+03  0.00000000000E+00 0.  1.
         21    1    1    2  503  501  0.27100664566E+02 -0.94410930566E+01  0.12380220653E+03  0.12708487951E+03  0.00000000000E+00 0. -1.
</event>
<event>
 4    1  0.5548812E+002  0.5393561E+02  0.7546771E-02  0.1281955E+00
          2   -1    0    0  503    0  0.00000000000E+00  0.00000000000E+00  0.80511660551E+03  0.80511660551E+03  0.00000000000E+00 0.  1.
         -2   -1    0    0    0  501 -0.00000000000E+00 -0.00000000000E+00 -0.36265723763E+01  0.36265723763E+01  0.00000000000E+00 0. -1.
         21    1    1    2  502  501 -0.50907580567E+02 -0.17817642689E+02  0.42529660778E+03  0.42870299129E+03  0.00000000000E+00 0.  1.
         21    1    1    2  503  502  0.50907580567E+02  0.17817642689E+02  0.37619342536E+03  0.38004018660E+03  0.00000000000E+00 0. -1.
</event>
<event>
 4    1  0.5548812E+002  0.2738970E+02  0.7546771E-02  0.1443732E+00
          2   -1    0    0  502    0  0.00000000000E+00  0.00000000000E+00  0.79794669707E+00  0.79794669707E+00  0.00000000000E+00 0. -1.
         -2   -1    0    0    0  501 -0.00000000000E+00 -0.00000000000E+00 -0.96093406693E+03  0.96093406693E+03  0.00000000000E+00 0.  1.
         21    1    1    2  502  503 -0.27249259724E+02 -0.27701218607E+01 -0.55077500878E+03  0.55145562471E+03  0.00000000000E+00 0.  1.
         21    1    1    2  503  501  0.27249259724E+02  0.27701218607E+01 -0.40936111146E+03  0.41027638892E+03  0.00000000000E+00 0. -1.
</event>
<event>
 4    1  0.5548812E+002  0.3192261E+02  0.7546771E-02  0.1403593E+00
          2   -1    0    0  502    0  0.00000000000E+00  0.00000000000E+00  0.16359156465E+04  0.16359156465E+04  0.00000000000E+00 0.  1.
         -2   -1    0    0    0  501 -0.00000000000E+00 -0.00000000000E+00 -0.64671853191E+00  0.64671853191E+00  0.00000000000E+00 0. -1.
         21    1    1    2  502  503 -0.30781292727E+02 -0.84596204112E+01  0.97458836213E+03  0.97511103407E+03  0.00000000000E+00 0. -1.
         21    1    1    2  503  501  0.30781292727E+02  0.84596204112E+01  0.66068056584E+03  0.66145133097E+03  0.00000000000E+00 0.  1.
</event>
<event>
 4    1  0.5548812E+002  0.3019557E+02  0.7546771E-02  0.1417904E+00
          2   -1    0    0  503    0  0.00000000000E+00  0.00000000000E+00  0.22946211290E+02  0.22946211290E+02  0.00000000000E+00 0. -1.
         -2   -1    0    0    0  501 -0.00000000000E+00 -0.00000000000E+00 -0.74422219649E+02  0.74422219649E+02  0.00000000000E+00 0.  1.
         21    1    1    2  502  501  0.30120986005E+02  0.21210427323E+01 -0.58974885850E+02  0.66255639618E+02  0.00000000000E+00 0.  1.
         21    1    1    2  503  502 -0.30120986005E+02 -0.21210427323E+01  0.74988774907E+01  0.31112791321E+02  0.00000000000E+00 0. -1.
</event>
<event>
 4    1  0.5548812E+002  0.2141575E+02  0.7546771E-02  0.1513411E+00
          2   -1    0    0  503    0  0.00000000000E+00  0.00000000000E+00  0.27014169611E+03  0.27014169611E+03  0.00000000000E+00 0.  1.
         -2   -1    0    0    0  501 -0.00000000000E+00 -0.00000000000E+00 -0.17958361245E+01  0.17958361245E+01  0.00000000000E+00 0. -1.
         21    1    1    2  502  501  0.13991919277E+02 -0.16212971875E+02  0.10239688962E+03  0.10461241450E+03  0.00000000000E+00 0.  1.
         21    1    1    2  503  502 -0.13991919277E+02  0.16212971875E+02  0.16594897036E+03  0.16732511774E+03  0.00000000000E+00 0. -1.
</event>
<event>
 4    1  0.5548812E+002  0.2792518E+02  0.7546771E-02  0.1438530E+00
          2   -1    0    0  503    0  0.00000000000E+00  0.00000000000E+00  0.11413496318E+03  0.11413496318E+03  0.00000000000E+00 0.  1.
         -2   -1    0    0    0  501 -0.00000000000E+00 -0.00000000000E+00 -0.10509147566E+02  0.10509147566E+02  0.00000000000E+00 0. -1.
         21    1    1    2  502  501 -0.74015640802E+01 -0.26926425215E+02  0.14949962551E+02  0.31675178073E+02  0.00000000000E+00 0. -1.
         21    1    1    2  503  502  0.74015640802E+01  0.26926425215E+02  0.88675853065E+02  0.92968932674E+02  0.00000000000E+00 0.  1.
</event>
<event>
 4    1  0.5548812E+002  0.2894838E+02  0.7546771E-02  0.1428960E+00
          2   -1    0    0  502    0  0.00000000000E+00  0.00000000000E+00  0.35817151432E+03  0.35817151432E+03  0.00000000000E+00 0.  1.
         -2   -1    0    0    0  501 -0.00000000000E+00 -0.00000000000E+00 -0.23433092099E+01  0.23433092099E+01  0.00000000000E+00 0. -1.
         21    1    1    2  502  503 -0.28923032178E+02 -0.12112760468E+01  0.17082635987E+03  0.17326180828E+03  0.00000000000E+00 0.  1.
         21    1    1    2  503  501  0.28923032178E+02  0.12112760468E+01  0.18500184523E+03  0.18725301525E+03  0.00000000000E+00 0. -1.
</event>
<event>
 4    1  0.5548812E+002  0.2228557E+02  0.7546771E-02  0.1501670E+00
          2   -1    0    0  503    0  0.00000000000E+00  0.00000000000E+00  0.10968966582E+02  0.10968966582E+02  0.00000000000E+00 0. -1.
         -2   -1    0    0    0  501 -0.00000000000E+00 -0.00000000000E+00 -0.60946055977E+02  0.60946055977E+02  0.00000000000E+00 0.  1.
         21    1    1    2  502  501 -0.21092965088E+02 -0.71925972350E+01 -0.43220458574E+02  0.48627715045E+02  0.00000000000E+00 0.  1.
         21    1    1    2  503  502  0.21092965088E+02  0.71925972350E+01 -0.67566308220E+01  0.23287307514E+02  0.00000000000E+00 0. -1.
</event>
<event>
 4    1  0.5548812E+002  0.2857875E+02  0.7546771E-02  0.1432363E+00
          2   -1    0    0  503    0  0.00000000000E+00  0.00000000000E+00  0.19279361234E+02  0.19279361234E+02  0.00000000000E+00 0. -1.
         -2   -1    0    0    0  501 -0.00000000000E+00 -0.00000000000E+00 -0.13485074895E+03  0.13485074895E+03  0.00000000000E+00 0.  1.
         21    1    1    2  502  501  0.25553747112E+02  0.12796520644E+02 -0.12160782330E+03  0.12492080539E+03  0.00000000000E+00 0.  1.
         21    1    1    2  503  502 -0.25553747112E+02 -0.12796520644E+02  0.60364355821E+01  0.29209304795E+02  0.00000000000E+00 0. -1.
</event>
<event>
 4    1  0.5548812E+002  0.2370673E+02  0.7546771E-02  0.1483809E+00
          2   -1    0    0  502    0  0.00000000000E+00  0.00000000000E+00  0.44026679524E+01  0.44026679524E+01  0.00000000000E+00 0.  1.
         -2   -1    0    0    0  501 -0.00000000000E+00 -0.00000000000E+00 -0.12815526855E+03  0.12815526855E+03  0.00000000000E+00 0. -1.
         21    1    1    2  502  503  0.72253545052E+01  0.22578820806E+02 -0.57722422402E+02  0.62401017177E+02  0.00000000000E+00 0. -1.
         21    1    1    2  503  501 -0.72253545052E+01 -0.22578820806E+02 -0.66030178194E+02  0.70156919324E+02  0.00000000000E+00 0.  1.
</event>
<event>
 4    1  0.5548812E+002  0.2593554E+02  0.7546771E-02  0.1458604E+00
          2   -1    0    0  502    0  0.00000000000E+00  0.00000000000E+00  0.96174134421E+01  0.96174134421E+01  0.00000000000E+00 0.  1.
         -2   -1    0    0    0  501 -0.00000000000E+00 -0.00000000000E+00 -0.23697440911E+03  0.23697440911E+03  0.00000000000E+00 0. -1.
         21    1    1    2  502  503  0.17341334421E+02 -0.19285501164E+02 -0.10164400744E+02  0.27856192797E+02  0.00000000000E+00 0.  1.
         21    1    1    2  503  501 -0.17341334421E+02  0.19285501164E+02 -0.21719259492E+03  0.21873562975E+03  0.00000000000E+00 0. -1.
</event>
<event>
 4    1  0.5548812E+002  0.2051637E+02  0.7546771E-02  0.1526283E+00
          2   -1    0    0  502    0  0.00000000000E+00  0.00000000000E+00  0.90929970671E+03  0.90929970671E+03  0.00000000000E+00 0.  1.
         -2   -1    0    0    0  501 -0.00000000000E+00 -0.00000000000E+00 -0.95759372013E+01  0.95759372013E+01  0.00000000000E+00 0. -1.
         21    1    1    2  502  503  0.11837233273E+02  0.16757125906E+02  0.89805739357E+03  0.89829171404E+03  0.00000000000E+00 0.  1.
         21    1    1    2  503  501 -0.11837233273E+02 -0.16757125906E+02  0.16663759349E+01  0.20583929871E+02  0.00000000000E+00 0. -1.
</event>
<event>
 4    1  0.5548812E+002  0.2427153E+02  0.7546771E-02  0.1477120E+00
          2   -1    0    0  502    0  0.00000000000E+00  0.00000000000E+00  0.49639447614E+02  0.49639447614E+02  0.00000000000E+00 0. -1.
         -2   -1    0    0    0  501 -0.00000000000E+00 -0.00000000000E+00 -0.17241708739E+02  0.17241708739E+02  0.00000000000E+00 0.  1.
         21    1    1    2  502  503 -0.24018153016E+02  0.34979011928E+01  0.34868342705E+02  0.42484212480E+02  0.00000000000E+00 0. -1.
         21    1    1    2  503  501  0.24018153016E+02 -0.34979011928E+01 -0.24706038298E+01  0.24396943873E+02  0.00000000000E+00 0.  1.
</event>
<event>
 4    1  0.5548812E+002  0.2179651E+02  0.7546771E-02  0.1508190E+00
          2   -1    0    0  503    0  0.00000000000E+00  0.00000000000E+00  0.15164892541E+04  0.15164892541E+04  0.00000000000E+00 0. -1.
         -2   -1    0    0    0  501 -0.00000000000E+00 -0.00000000000E+00 -0.58859499464E+00  0.58859499464E+00  0.00000000000E+00 0.  1.
         21    1    1    2  502  501  0.59645313092E+01 -0.20964544446E+02  0.23917002517E+03  0.24016117234E+03  0.00000000000E+00 0.  1.
         21    1    1    2  503  502 -0.59645313092E+01  0.20964544446E+02  0.12767306340E+04  0.12769166768E+04  0.00000000000E+00 0. -1.
</event>
<event>
 4    1  0.5548812E+002  0.2414314E+02  0.7546771E-02  0.1478622E+00
          2   -1    0    0  503    0  0.00000000000E+00  0.00000000000E+00  0.12739635530E+03  0.12739635530E+03  0.00000000000E+00 0. -1.
         -2   -1    0    0    0  501 -0.00000000000E+00 -0.00000000000E+00 -0.79024926176E+01  0.79024926176E+01  0.00000000000E+00 0.  1.
         21    1    1    2  502  501  0.16367573110E+02 -0.17748067866E+02  0.15852095013E+02  0.28882179260E+02  0.00000000000E+00 0.  1.
         21    1    1    2  503  502 -0.16367573110E+02  0.17748067866E+02  0.10364176767E+03  0.10641666866E+03  0.00000000000E+00 0. -1.
</event>
<event>
 4    1  0.5548812E+002  0.2653917E+02  0.7546771E-02  0.1452293E+00
          2   -1    0    0  502    0  0.00000000000E+00  0.00000000000E+00  0.11584585592E+03  0.11584585592E+03  0.00000000000E+00 0. -1.
         -2   -1    0    0    0  501 -0.00000000000E+00 -0.00000000000E+00 -0.79704750081E+01  0.79704750081E+01  0.00000000000E+00 0.  1.
         21    1    1    2  502  503  0.98009502332E+01 -0.24663106834E+02  0.84089023094E+02  0.88177612062E+02  0.00000000000E+00 0. -1.
         21    1    1    2  503  501 -0.98009502332E+01  0.24663106834E+02  0.23786357819E+02  0.35638718867E+02  0.00000000000E+00 0.  1.
</event>
<event>
 4    1  0.5548812E+002  0.2758245E+02  0.7546771E-02  0.1441843E+00
          2   -1    0    0  503    0  0.00000000000E+00  0.00000000000E+00  0.41817946856E+03  0.41817946856E+03  0.00000000000E+00 0. -1.
         -2   -1    0    0    0  501 -0.00000000000E+00 -0.00000000000E+00 -0.20342125826E+01  0.20342125826E+01  0.00000000000E+00 0.  1.
         21    1    1    2  502  501  0.27099795174E+02  0.51374041956E+01  0.13977934546E+03  0.14247476000E+03  0.00000000000E+00 0.  1.
         21    1    1    2  503  502 -0.27099795174E+02 -0.51374041956E+01  0.27636591052E+03  0.27773892115E+03  0.00000000000E+00 0. -1.
</event>
<event>
 4    1  0.5548812E+002  0.2133329E+02  0.7546771E-02  0.1514559E+00
          2   -1    0    0  502    0  0.00000000000E+00  0.00000000000E+00  0.32797658706E+03  0.32797658706E+03  0.00000000000E+00 0. -1.
         -2   -1    0    0    0  501 -0.00000000000E+00 -0.00000000000E+00 -0.19999142346E+01  0.19999142346E+01  0.00000000000E+00 0.  1.
         21    1    1    2  502  503  0.21332577872E+02  0.17411554502E+00  0.25427869332E+03  0.25517202643E+03  0.00000000000E+00 0. -1.
         21    1    1    2  503  501 -0.21332577872E+02 -0.17411554502E+00  0.71697979500E+02  0.74804474861E+02  0.00000000000E+00 0.  1.
</event>
<event>
 4    1  0.5548812E+002  0.2308285E+02  0.7546771E-02  0.1491460E+00
          2   -1    0    0  502    0  0.00000000000E+00  0.00000000000E+00  0.21626964908E+04  0.21626964908E+04  0.00000000000E+00 0.  1.
         -2   -1    0    0    0  501 -0.00000000000E+00 -0.00000000000E+00 -0.27727455990E+00  0.27727455990E+00  0.00000000000E+00 0. -1.
         21    1    1    2  502  503 -0.22912473078E+02  0.27993482878E+01  0.14422836287E+04  0.14424683301E+04  0.00000000000E+00 0.  1.
         21    1    1    2  503  501  0.22912473078E+02 -0.27993482878E+01  0.72013558751E+03  0.72050543522E+03  0.00000000000E+00 0. -1.
</event>
<event>
 4    1  0.5548812E+002  0.3337024E+02  0.7546771E-02  0.1392398E+00
          2   -1    0    0  503    0  0.00000000000E+00  0.00000000000E+00  0.62540599980E+01  0.62540599980E+01  0.00000000000E+00 0.  1.
         -2   -1    0    0    0  501 -0.00000000000E+00 -0.00000000000E+00 -0.23374627482E+03  0.23374627482E+03  0.00000000000E+00 0. -1.
         21    1    1    2  502  501 -0.24891586910E+02 -0.22225708146E+02 -0.17231931394E+03  0.17552070863E+03  0.00000000000E+00 0. -1.
         21    1    1    2  503  502  0.24891586910E+02  0.22225708146E+02 -0.55172900880E+02  0.64479626185E+02  0.00000000000E+00 0.  1.
</event>
<event>
 4    1  0.5548812E+002  0.3982351E+02  0.7546771E-02  0.1349523E+00
          2   -1    0    0  502    0  0.00000000000E+00  0.00000000000E+00  0.95044325477E+01  0.95044325477E+01  0.00000000000E+00 0. -1.
         -2   -1    0    0    0  501 -0.00000000000E+00 -0.00000000000E+00 -0.21816327942E+03  0.21816327942E+03  0.00000000000E+00 0.  1.
         21    1    1    2  502  503 -0.34685804161E+02 -0.19565446787E+02 -0.49127749496E+02  0.63241185068E+02  0.00000000000E+00 0. -1.
         21    1    1    2  503  501  0.34685804161E+02  0.19565446787E+02 -0.15953109738E+03  0.16442652690E+03  0.00000000000E+00 0.  1.
</event>
<event>
 4    1  0.5548812E+002  0.2324914E+02  0.7546771E-02  0.1489393E+00
          2   -1    0    0  503    0  0.00000000000E+00  0.00000000000E+00  0.97046914555E+02  0.97046914555E+02  0.00000000000E+00 0.  1.
         -2   -1    0    0    0  501 -0.00000000000E+00 -0.00000000000E+00 -0.19545379339E+02  0.19545379339E+02  0.00000000000E+00 0. -1.
         21    1    1    2  502  501  0.73677983417E+01  0.22050806584E+02 -0.10544384541E+02  0.25528544196E+02  0.00000000000E+00 0. -1.
         21    1    1    2  503  502 -0.73677983417E+01 -0.22050806584E+02  0.88045919757E+02  0.91063749699E+02  0.00000000000E+00 0.  1.
</event>
<event>
 4    1  0.5548812E+002  0.2605031E+02  0.7546771E-02  0.1457388E+00
          2   -1    0    0  502    0  0.00000000000E+00  0.00000000000E+00  0.10234877188E+03  0.10234877188E+03  0.00000000000E+00 0.  1.
         -2   -1    0    0    0  501 -0.00000000000E+00 -0.00000000000E+00 -0.66304712363E+01  0.66304712363E+01  0.00000000000E+00 0. -1.
         21    1    1    2  502  503 -0.23548167321E+02  0.11140135561E+02  0.47947487312E+02  0.54567209421E+02  0.00000000000E+00 0.  1.
         21    1    1    2  503  501  0.23548167321E+02 -0.11140135561E+02  0.47770813334E+02  0.54412033697E+02  0.00000000000E+00 0. -1.
</event>
<event>
 4    1  0.5548812E+002  0.3091987E+02  0.7546771E-02  0.1411768E+00
          2   -1    0    0  502    0  0.00000000000E+00  0.00000000000E+00  0.57404764219E+03  0.57404764219E+03  0.00000000000E+00 0. -1.
         -2   -1    0    0    0  501 -0.00000000000E+00 -0.00000000000E+00 -0.18003378379E+02  0.18003378379E+02  0.00000000000E+00 0.  1.
         21    1    1    2  502  503 -0.29466490559E+02 -0.93682440123E+01  0.56002326261E+03  0.56087618307E+03  0.00000000000E+00 0. -1.
         21    1    1    2  503  501  0.29466490559E+02  0.93682440123E+01 -0.39789988054E+01  0.31174837502E+02  0.00000000000E+00 0.  1.
</event>
<event>
 4    1  0.5548812E+002  0.2881255E+02  0.7546771E-02  0.1430204E+00
          2   -1    0    0  503    0  0.00000000000E+00  0.00000000000E+00  0.31618690172E+02  0.31618690172E+02  0.00000000000E+00 0. -1.
         -2   -1    0    0    0  501 -0.00000000000E+00 -0.00000000000E+00 -0.14733167077E+03  0.14733167077E+03  0.00000000000E+00 0.  1.
         21    1    1    2  502  501 -0.27710264667E+02  0.78933043342E+01 -0.13896827359E+03  0.14192372630E+03  0.00000000000E+00 0.  1.
         21    1    1    2  503  502  0.27710264667E+02 -0.78933043342E+01  0.23255292991E+02  0.37026634647E+02  0.00000000000E+00 0. -1.
</event>
<event>
 4    1  0.5548812E+002  0.2283786E+02  0.7546771E-02  0.1494544E+00
          2   -1    0    0  502    0  0.00000000000E+00  0.00000000000E+00  0.73875348220E+02  0.73875348220E+02  0.00000000000E+00 0.  1.
         -2   -1    0    0    0  501 -0.00000000000E+00 -0.00000000000E+00 -0.14345230233E+02  0.14345230233E+02  0.00000000000E+00 0. -1.
         21    1    1    2  502  503  0.18111289549E+02 -0.13912194149E+02  0.61199414328E+02  0.65321790157E+02  0.00000000000E+00 0.  1.
         21    1    1    2  503  501 -0.18111289549E+02  0.13912194149E+02 -0.16692963400E+01  0.22898788297E+02  0.00000000000E+00 0. -1.
</event>
<event>
 4    1  0.5548812E+002  0.2719865E+02  0.7546771E-02  0.1445623E+00
          2   -1    0    0  503    0  0.00000000000E+00  0.00000000000E+00  0.15032411528E+02  0.15032411528E+02  0.00000000000E+00 0.  1.
         -2   -1    0    0    0  501 -0.00000000000E+00 -0.00000000000E+00 -0.59623235387E+02  0.59623235387E+02  0.00000000000E+00 0. -1.
         21    1    1    2  502  501 -0.27182235166E+02  0.94483857880E+00 -0.37894086430E+02  0.46644704040E+02  0.00000000000E+00 0. -1.
         21    1    1    2  503  502  0.27182235166E+02 -0.94483857880E+00 -0.66967374283E+01  0.28010942875E+02  0.00000000000E+00 0.  1.
</event>
<event>
 4    1  0.5548812E+002  0.2567329E+02  0.7546771E-02  0.1461410E+00
          2   -1    0    0  503    0  0.00000000000E+00  0.00000000000E+00  0.19516401140E+04  0.19516401140E+04  0.00000000000E+00 0.  1.
         -2   -1    0    0    0  501 -0.00000000000E+00 -0.00000000000E+00 -0.33786688343E+00  0.33786688343E+00  0.00000000000E+00 0. -1.
         21    1    1    2  502  501 -0.13422021167E+02 -0.21885319224E+02  0.99564454580E+03  0.99597549138E+03  0.00000000000E+00 0.  1.
         21    1    1    2  503  502  0.13422021167E+02  0.21885319224E+02  0.95565770135E+03  0.95600248954E+03  0.00000000000E+00 0. -1.
</event>
<event>
 4    1  0.5548812E+002  0.3449234E+02  0.7546771E-02  0.1384168E+00
          2   -1    0    0  503    0  0.00000000000E+00  0.00000000000E+00  0.42883054632E+03  0.42883054632E+03  0.00000000000E+00 0. -1.
         -2   -1    0    0    0  501 -0.00000000000E+00 -0.00000000000E+00 -0.33079589888E+01  0.33079589888E+01  0.00000000000E+00 0.  1.
         21    1    1    2  502  501  0.34278465077E+02  0.38351457286E+01  0.12597947152E+03  0.13061603560E+03  0.00000000000E+00 0.  1.
         21    1    1    2  503  502 -0.34278465077E+02 -0.38351457286E+01  0.29954311581E+03  0.30152246971E+03  0.00000000000E+00 0. -1.
</event>
<event>
 4    1  0.5548812E+002  0.2719180E+02  0.7546771E-02  0.1445691E+00
          2   -1    0    0  502    0  0.00000000000E+00  0.00000000000E+00  0.63852998294E+03  0.63852998294E+03  0.00000000000E+00 0. -1.
         -2   -1    0    0    0  501 -0.00000000000E+00 -0.00000000000E+00 -0.62510991381E+01  0.62510991381E+01  0.00000000000E+00 0.  1.
         21    1    1    2  502  503 -0.55733088983E+01 -0.26614507383E+02  0.60714196975E+03  0.60775057812E+03  0.00000000000E+00 0. -1.
         21    1    1    2  503  501  0.55733088983E+01  0.26614507383E+02  0.25136914055E+02  0.37030503960E+02  0.00000000000E+00 0.  1.
</event>
<event>
 4    1  0.5548812E+002  0.2599303E+02  0.7546771E-02  0.1457994E+00
          2   -1    0    0  503    0  0.00000000000E+00  0.00000000000E+00  0.16234919913E+04  0.16234919913E+04  0.00000000000E+00 0.  1.
         -2   -1    0    0    0  501 -0.00000000000E+00 -0.00000000000E+00 -0.84252490659E+00  0.84252490659E+00  0.00000000000E+00 0. -1.
         21    1    1    2  502  501  0.38694317917E+01 -0.25703404555E+02  0.23357036878E+03  0.23501224368E+03  0.00000000000E+00 0. -1.
         21    1    1    2  503  502 -0.38694317917E+01  0.25703404555E+02  0.13890790976E+04  0.13893222725E+04  0.00000000000E+00 0.  1.
</event>
<event>
 4    1  0.5548812E+002  0.2017426E+02  0.7546771E-02  0.1531388E+00
          2   -1    0    0  502    0  0.00000000000E+00  0.00000000000E+00  0.78080701311E+01  0.78080701311E+01  0.00000000000E+00 0.  1.
         -2   -1    0    0    0  501 -0.00000000000E+00 -0.00000000000E+00 -0.12525733055E+03  0.12525733055E+03  0.00000000000E+00 0. -1.
         21    1    1    2  502  503 -0.39536481537E+01  0.19783054186E+02 -0.78868693805E+01  0.21661100509E+02  0.00000000000E+00 0.  1.
         21    1    1    2  503  501  0.39536481537E+01 -0.19783054186E+02 -0.10956239104E+03  0.11140430017E+03  0.00000000000E+00 0. -1.
</event>
<event>
 4    1  0.5548812E+002  0.2621989E+02  0.7546771E-02  0.1455606E+00
          2   -1    0    0  502    0  0.00000000000E+00  0.00000000000E+00  0.15030990815E+03  0.15030990815E+03  0.00000000000E+00 0.  1.
         -2   -1    0    0    0  501 -0.00000000000E+00 -0.00000000000E+00 -0.12581788956E+02  0.12581788956E+02  0.00000000000E+00 0. -1.
         21    1    1    2  502  503  0.13611503672E+02 -0.22410028939E+02  0.13384117005E+03  0.13638526764E+03  0.00000000000E+00 0.  1.
         21    1    1    2  503  501 -0.13611503672E+02  0.22410028939E+02  0.38869491440E+01  0.26506429464E+02  0.00000000000E+00 0. -1.
</event>
<event>
 4    1  0.5548812E+002  0.2127607E+02  0.7546771E-02  0.1515360E+00
          2   -1    0    0  503    0  0.00000000000E+00  0.00000000000E+00  0.62110488690E+00  0.62110488690E+00  0.00000000000E+00 0. -1.
         -2   -1    0    0    0  501 -0.00000000000E+00 -0.00000000000E+00 -0.75157943565E+03  0.75157943565E+03  0.00000000000E+00 0.  1.
         21    1    1    2  502  501 -0.17938857244E+02 -0.11439771131E+02 -0.31002482787E+03  0.31075402629E+03  0.00000000000E+00 0. -1.
         21    1    1    2  503  502  0.17938857244E+02  0.11439771131E+02 -0.44093350289E+03  0.44144651424E+03  0.00000000000E+00 0.  1.
</event>
<event>
 4    1  0.5548812E+002  0.2158239E+02  0.7546771E-02  0.1511110E+00
          2   -1    0    0  503    0  0.00000000000E+00  0.00000000000E+00  0.56980497104E+03  0.56980497104E+03  0.00000000000E+00 0. -1.
         -2   -1    0    0    0  501 -0.00000000000E+00 -0.00000000000E+00 -0.84122220494E+01  0.84122220494E+01  0.00000000000E+00 0.  1.
         21    1    1    2  502  501 -0.14509902714E+02 -0.15976931787E+02  0.59940189965E+01  0.22399283244E+02  0.00000000000E+00 0.  1.
         21    1    1    2  503  502  0.14509902714E+02  0.15976931787E+02  0.55539872999E+03  0.55581790985E+03  0.00000000000E+00 0. -1.
</event>
<event>
 4    1  0.5548812E+002  0.2822134E+02  0.7546771E-02  0.1435711E+00
          2   -1    0    0  502    0  0.00000000000E+00  0.00000000000E+00  0.23308109207E+02  0.23308109207E+02  0.00000000000E+00 0. -1.
         -2   -1    0    0    0  501 -0.00000000000E+00 -0.00000000000E+00 -0.35168589441E+02  0.35168589441E+02  0.00000000000E+00 0.  1.
         21    1    1    2  502  503  0.27808491949E+02 -0.48095637110E+01 -0.10856445796E+02  0.30237502259E+02  0.00000000000E+00 0.  1.
         21    1    1    2  503  501 -0.27808491949E+02  0.48095637110E+01 -0.10040344374E+01  0.28239196389E+02  0.00000000000E+00 0. -1.
</event>
<event>
 4    1  0.5548812E+002  0.3490552E+02  0.7546771E-02  0.1381229E+00
          2   -1    0    0  502    0  0.00000000000E+00  0.00000000000E+00  0.17285716696E+03  0.17285716696E+03  0.00000000000E+00 0.  1.
         -2   -1    0    0    0  501 -0.00000000000E+00 -0.00000000000E+00 -0.83872038647E+01  0.83872038647E+01  0.00000000000E+00 0. -1.
         21    1    1    2  502  503 -0.15540224873E+02  0.31255347586E+02  0.46030919202E+02  0.57768857219E+02  0.00000000000E+00 0. -1.
         21    1    1    2  503  501  0.15540224873E+02 -0.31255347586E+02  0.11843904389E+03  0.12347551360E+03  0.00000000000E+00 0.  1.
</event>
<event>
 4    1  0.5548812E+002  0.2599276E+02  0.7546771E-02  0.1457997E+00
          2   -1    0    0  502    0  0.00000000000E+00  0.00000000000E+00  0.56637754916E+03  0.56637754916E+03  0.00000000000E+00 0. -1.
         -2   -1    0    0    0  501 -0.00000000000E+00 -0.00000000000E+00 -0.13308574105E+01  0.13308574105E+01  0.00000000000E+00 0.  1.
         21    1    1    2  502  503 -0.16201317616E+02  0.20325867072E+02  0.37391886593E+03  0.37482121320E+03  0.00000000000E+00 0. -1.
         21    1    1    2  503  501  0.16201317616E+02 -0.20325867072E+02  0.19112782582E+03  0.19288719338E+03  0.00000000000E+00 0.  1.
</event>
<event>
 4    1  0.5548812E+002  0.2745706E+02  0.7546771E-02  0.1443070E+00
          2   -1    0    0  502    0  0.00000000000E+00  0.00000000000E+00  0.12336028140E+04  0.12336028140E+04  0.00000000000E+00 0. -1.
         -2   -1    0    0    0  501 -0.00000000000E+00 -0.00000000000E+00 -0.55645185123E+01  0.55645185123E+01  0.00000000000E+00 0.  1.
         21    1    1    2  502  503 -0.26085231821E+02  0.85703532831E+01  0.11985903419E+04  0.11989047910E+04  0.00000000000E+00 0. -1.
         21    1    1    2  503  501  0.26085231821E+02 -0.85703532831E+01  0.29447953541E+02  0.40262541429E+02  0.00000000000E+00 0.  1.
</event>
<event>
 4    1  0.5548812E+002  0.7854366E+02  0.7546771E-02  0.1207269E+00
          2   -1    0    0  502    0  0.00000000000E+00  0.00000000000E+00  0.20966660133E+04  0.20966660133E+04  0.00000000000E+00 0. -1.
         -2   -1    0    0    0  501 -0.00000000000E+00 -0.00000000000E+00 -0.51591738478E+01  0.51591738478E+01  0.00000000000E+00 0.  1.
         21    1    1    2  502  503  0.74191141885E+02  0.25783350806E+02  0.17346324634E+04  0.17364097702E+04  0.00000000000E+00 0. -1.
         21    1    1    2  503  501 -0.74191141885E+02 -0.25783350806E+02  0.35687437602E+03  0.36541541699E+03  0.00000000000E+00 0.  1.
</event>
<event>
 4    1  0.5548812E+002  0.3511122E+02  0.7546771E-02  0.1379783E+00
          2   -1    0    0  503    0  0.00000000000E+00  0.00000000000E+00  0.79741946454E+02  0.79741946454E+02  0.00000000000E+00 0.  1.
         -2   -1    0    0    0  501 -0.00000000000E+00 -0.00000000000E+00 -0.20459295325E+02  0.20459295325E+02  0.00000000000E+00 0. -1.
         21    1    1    2  502  501 -0.34226999357E+02  0.78301043222E+01  0.48751491046E+01  0.35448061971E+02  0.00000000000E+00 0. -1.
         21    1    1    2  503  502  0.34226999357E+02 -0.78301043222E+01  0.54407502025E+02  0.64753179808E+02  0.00000000000E+00 0.  1.
</event>
<event>
 4    1  0.5548812E+002  0.2075822E+02  0.7546771E-02  0.1522745E+00
          2   -1    0    0  502    0  0.00000000000E+00  0.00000000000E+00  0.97528262200E+03  0.97528262200E+03  0.00000000000E+00 0. -1.
         -2   -1    0    0    0  501 -0.00000000000E+00 -0.00000000000E+00 -0.13498455454E+01  0.13498455454E+01  0.00000000000E+00 0.  1.
         21    1    1    2  502  503  0.13895878602E+02 -0.15421030420E+02  0.88747062434E+03  0.88771336178E+03  0.00000000000E+00 0. -1.
         21    1    1    2  503  501 -0.13895878602E+02  0.15421030420E+02  0.86462152113E+02  0.88919105761E+02  0.00000000000E+00 0.  1.
</event>
<event>
 4    1  0.5548812E+002  0.3764342E+02  0.7546771E-02  0.1362877E+00
          2   -1    0    0  503    0  0.00000000000E+00  0.00000000000E+00  0.12611803447E+04  0.12611803447E+04  0.00000000000E+00 0.  1.
         -2   -1    0    0    0  501 -0.00000000000E+00 -0.00000000000E+00 -0.78095725636E+01  0.78095725636E+01  0.00000000000E+00 0. -1.
         21    1    1    2  502  501 -0.31818523409E+02 -0.20114884822E+02  0.39604764570E+02  0.54640318447E+02  0.00000000000E+00 0. -1.
         21    1    1    2  503  502  0.31818523409E+02  0.20114884822E+02  0.12137660076E+04  0.12143495988E+04  0.00000000000E+00 0.  1.
</event>
<event>
 4    1  0.5548812E+002  0.2123491E+02  0.7546771E-02  0.1515937E+00
          2   -1    0    0  502    0  0.00000000000E+00  0.00000000000E+00  0.69546946825E+03  0.69546946825E+03  0.00000000000E+00 0. -1.
         -2   -1    0    0    0  501 -0.00000000000E+00 -0.00000000000E+00 -0.72638456354E+00  0.72638456354E+00  0.00000000000E+00 0.  1.
         21    1    1    2  502  503  0.77335497216E+01 -0.19776592605E+02  0.46145075208E+03  0.46193908473E+03  0.00000000000E+00 0. -1.
         21    1    1    2  503  501 -0.77335497216E+01  0.19776592605E+02  0.23329233161E+03  0.23425676809E+03  0.00000000000E+00 0.  1.
</event>
<event>
 4    1  0.5548812E+002  0.5867047E+02  0.7546771E-02  0.1264418E+00
          2   -1    0    0  503    0  0.00000000000E+00  0.00000000000E+00  0.21776627466E+04  0.21776627466E+04  0.00000000000E+00 0.  1.
         -2   -1    0    0    0  501 -0.00000000000E+00 -0.00000000000E+00 -0.35436810786E+01  0.35436810786E+01  0.00000000000E+00 0. -1.
         21    1    1    2  502  501 -0.24810309064E+02  0.53166456980E+02  0.27535510066E+03  0.28153624108E+03  0.00000000000E+00 0. -1.
         21    1    1    2  503  502  0.24810309064E+02 -0.53166456980E+02  0.18987639649E+04  0.18996701866E+04  0.00000000000E+00 0.  1.
</event>
<event>
 4    1  0.5548812E+002  0.2186974E+02  0.7546771E-02  0.1507200E+00
          2   -1    0    0  503    0  0.00000000000E+00  0.00000000000E+00  0.73826499762E+03  0.73826499762E+03  0.00000000000E+00 0.  1.
         -2   -1    0    0    0  501 -0.00000000000E+00 -0.00000000000E+00 -0.10076325523E+01  0.10076325523E+01  0.00000000000E+00 0. -1.
         21    1    1    2  502  501  0.46137900078E+01 -0.21377519658E+02  0.14775537323E+03  0.14936510878E+03  0.00000000000E+00 0. -1.
         21    1    1    2  503  502 -0.46137900078E+01  0.21377519658E+02  0.58950199184E+03  0.58990752139E+03  0.00000000000E+00 0.  1.
</event>
<event>
 4    1  0.5548812E+002  0.5705314E+02  0.7546771E-02  0.1270188E+00
          2   -1    0    0  503    0  0.00000000000E+00  0.00000000000E+00  0.10526056239E+03  0.10526056239E+03  0.00000000000E+00 0. -1.
         -2   -1    0    0    0  501 -0.00000000000E+00 -0.00000000000E+00 -0.95032193116E+02  0.95032193116E+02  0.00000000000E+00 0.  1.
         21    1    1    2  502  501  0.55406164248E+02  0.13609463610E+02 -0.77139845912E+02  0.95945903319E+02  0.00000000000E+00 0.  1.
         21    1    1    2  503  502 -0.55406164248E+02 -0.13609463610E+02  0.87368215184E+02  0.10434685218E+03  0.00000000000E+00 0. -1.
</event>
<event>
 4    1  0.5548812E+002  0.2075121E+02  0.7546771E-02  0.1522847E+00
          2   -1    0    0  503    0  0.00000000000E+00  0.00000000000E+00  0.12629417361E+04  0.12629417361E+04  0.00000000000E+00 0.  1.
         -2   -1    0    0    0  501 -0.00000000000E+00 -0.00000000000E+00 -0.38253538062E+00  0.38253538062E+00  0.00000000000E+00 0. -1.
         21    1    1    2  502  501 -0.99460842015E+00 -0.20727363937E+02  0.42303865158E+03  0.42354729794E+03  0.00000000000E+00 0. -1.
         21    1    1    2  503  502  0.99460842015E+00  0.20727363937E+02  0.83952054914E+03  0.83977697354E+03  0.00000000000E+00 0.  1.
</event>
<event>
 4    1  0.5548812E+002  0.5361138E+02  0.7546771E-02  0.1283231E+00
          2   -1    0    0  502    0  0.00000000000E+00  0.00000000000E+00  0.29656816051E+04  0.29656816051E+04  0.00000000000E+00 0.  1.
         -2   -1    0    0    0  501 -0.00000000000E+00 -0.00000000000E+00 -0.19885432150E+01  0.19885432150E+01  0.00000000000E+00 0. -1.
         21    1    1    2  502  503  0.95759726016E+00  0.53602830502E+02  0.25442505279E+04  0.25448153036E+04  0.00000000000E+00 0.  1.
         21    1    1    2  503  501 -0.95759726016E+00 -0.53602830502E+02  0.41944253390E+03  0.42285484468E+03  0.00000000000E+00 0. -1.
</event>
<event>
 4    1  0.5548812E+002  0.2046232E+02  0.7546771E-02  0.1527082E+00
          2   -1    0    0  502    0  0.00000000000E+00  0.00000000000E+00  0.15145354135E+04  0.15145354135E+04  0.00000000000E+00 0.  1.
         -2   -1    0    0    0  501 -0.00000000000E+00 -0.00000000000E+00 -0.10348737135E+01  0.10348737135E+01  0.00000000000E+00 0. -1.
         21    1    1    2  502  503 -0.13740968331E+02  0.15162204172E+02  0.14054681085E+04  0.14056170569E+04  0.00000000000E+00 0.  1.
         21    1    1    2  503  501  0.13740968331E+02 -0.15162204172E+02  0.10803243128E+03  0.10995323030E+03  0.00000000000E+00 0. -1.
</event>
<event>
 4    1  0.5548812E+002  0.4168360E+02  0.7546771E-02  0.1338893E+00
          2   -1    0    0  502    0  0.00000000000E+00  0.00000000000E+00  0.15530270814E+04  0.15530270814E+04  0.00000000000E+00 0.  1.
         -2   -1    0    0    0  501 -0.00000000000E+00 -0.00000000000E+00 -0.11209436620E+01  0.11209436620E+01  0.00000000000E+00 0. -1.
         21    1    1    2  502  503  0.27826645570E+02 -0.31035461919E+02  0.74194763080E+03  0.74311762794E+03  0.00000000000E+00 0. -1.
         21    1    1    2  503  501 -0.27826645570E+02  0.31035461919E+02  0.80995850695E+03  0.81103039714E+03  0.00000000000E+00 0.  1.
</event>
<event>
 4    1  0.5548812E+002  0.2877739E+02  0.7546771E-02  0.1430527E+00
          2   -1    0    0  502    0  0.00000000000E+00  0.00000000000E+00  0.54977964065E+03  0.54977964065E+03  0.00000000000E+00 0. -1.
         -2   -1    0    0    0  501 -0.00000000000E+00 -0.00000000000E+00 -0.22378105597E+01  0.22378105597E+01  0.00000000000E+00 0.  1.
         21    1    1    2  502  503  0.16639983650E+02 -0.23478698852E+02  0.43157513027E+03  0.43253350324E+03  0.00000000000E+00 0. -1.
         21    1    1    2  503  501 -0.16639983650E+02  0.23478698852E+02  0.11596669982E+03  0.11948394797E+03  0.00000000000E+00 0.  1.
</event>
<event>
 4    1  0.5548812E+002  0.2225882E+02  0.7546771E-02  0.1502021E+00
          2   -1    0    0  503    0  0.00000000000E+00  0.00000000000E+00  0.11741259531E+03  0.11741259531E+03  0.00000000000E+00 0.  1.
         -2   -1    0    0    0  501 -0.00000000000E+00 -0.00000000000E+00 -0.53391348362E+02  0.53391348362E+02  0.00000000000E+00 0. -1.
         21    1    1    2  502  501  0.34418587022E+01  0.21991109096E+02 -0.49947024407E+02  0.54682360207E+02  0.00000000000E+00 0. -1.
         21    1    1    2  503  502 -0.34418587022E+01 -0.21991109096E+02  0.11396827135E+03  0.11612158346E+03  0.00000000000E+00 0.  1.
</event>
<event>
 4    1  0.5548812E+002  0.2087810E+02  0.7546771E-02  0.1521012E+00
          2   -1    0    0  503    0  0.00000000000E+00  0.00000000000E+00  0.10735477197E+04  0.10735477197E+04  0.00000000000E+00 0.  1.
         -2   -1    0    0    0  501 -0.00000000000E+00 -0.00000000000E+00 -0.71452137635E+00  0.71452137635E+00  0.00000000000E+00 0. -1.
         21    1    1    2  502  501  0.16068416975E+02 -0.13330461183E+02  0.18348342159E+03  0.18466743410E+03  0.00000000000E+00 0. -1.
         21    1    1    2  503  502 -0.16068416975E+02  0.13330461183E+02  0.88934977672E+03  0.88959480696E+03  0.00000000000E+00 0.  1.
</event>
<event>
 4    1  0.5548812E+002  0.2535564E+02  0.7546771E-02  0.1464864E+00
          2   -1    0    0  503    0  0.00000000000E+00  0.00000000000E+00  0.47514172676E+01  0.47514172676E+01  0.00000000000E+00 0. -1.
         -2   -1    0    0    0  501 -0.00000000000E+00 -0.00000000000E+00 -0.14978424957E+03  0.14978424957E+03  0.00000000000E+00 0.  1.
         21    1    1    2  502  501 -0.20776624719E+02  0.14534101263E+02 -0.96536955091E+02  0.99811281590E+02  0.00000000000E+00 0.  1.
         21    1    1    2  503  502  0.20776624719E+02 -0.14534101263E+02 -0.48495877208E+02  0.54724385245E+02  0.00000000000E+00 0. -1.
</event>
<event>
 4    1  0.5548812E+002  0.6671455E+02  0.7546771E-02  0.1238580E+00
          2   -1    0    0  502    0  0.00000000000E+00  0.00000000000E+00  0.90085539024E+02  0.90085539024E+02  0.00000000000E+00 0. -1.
         -2   -1    0    0    0  501 -0.00000000000E+00 -0.00000000000E+00 -0.63422129290E+02  0.63422129290E+02  0.00000000000E+00 0.  1.
         21    1    1    2  502  503 -0.66682817099E+02  0.20573585618E+01 -0.22749629794E+02  0.70486711345E+02  0.00000000000E+00 0. -1.
         21    1    1    2  503  501  0.66682817099E+02 -0.20573585618E+01  0.49413039529E+02  0.83020956969E+02  0.00000000000E+00 0.  1.
</event>
<event>
 4    1  0.5548812E+002  0.2878694E+02  0.7546771E-02  0.1430439E+00
          2   -1    0    0  503    0  0.00000000000E+00  0.00000000000E+00  0.85908745087E+02  0.85908745087E+02  0.00000000000E+00 0.  1.
         -2   -1    0    0    0  501 -0.00000000000E+00 -0.00000000000E+00 -0.27055764705E+02  0.27055764705E+02  0.00000000000E+00 0. -1.
         21    1    1    2  502  501 -0.69436491994E+01  0.27936958317E+02 -0.15881709570E+02  0.32877296165E+02  0.00000000000E+00 0. -1.
         21    1    1    2  503  502  0.69436491994E+01 -0.27936958317E+02  0.74734689953E+02  0.80087213627E+02  0.00000000000E+00 0.  1.
</event>
<event>
 4    1  0.5548812E+002  0.2594830E+02  0.7546771E-02  0.1458469E+00
          2   -1    0    0  503    0  0.00000000000E+00  0.00000000000E+00  0.37393973911E+02  0.37393973911E+02  0.00000000000E+00 0. -1.
         -2   -1    0    0    0  501 -0.00000000000E+00 -0.00000000000E+00 -0.30836661917E+02  0.30836661917E+02  0.00000000000E+00 0.  1.
         21    1    1    2  502  501  0.25929495326E+02  0.98758905601E+00 -0.18727343771E+02  0.32000429134E+02  0.00000000000E+00 0.  1.
         21    1    1    2  503  502 -0.25929495326E+02 -0.98758905601E+00  0.25284655764E+02  0.36230206695E+02  0.00000000000E+00 0. -1.
</event>
<event>
 4    1  0.5548812E+002  0.4244654E+02  0.7546771E-02  0.1334716E+00
          2   -1    0    0  502    0  0.00000000000E+00  0.00000000000E+00  0.62171252476E+02  0.62171252476E+02  0.00000000000E+00 0.  1.
         -2   -1    0    0    0  501 -0.00000000000E+00 -0.00000000000E+00 -0.29676096706E+02  0.29676096706E+02  0.00000000000E+00 0. -1.
         21    1    1    2  502  503  0.19296729940E+02 -0.37806679159E+02  0.23282169259E+02  0.48412479597E+02  0.00000000000E+00 0. -1.
         21    1    1    2  503  501 -0.19296729940E+02  0.37806679159E+02  0.92129865112E+01  0.43434869585E+02  0.00000000000E+00 0.  1.
</event>
<event>
 4    1  0.5548812E+002  0.2098639E+02  0.7546771E-02  0.1519459E+00
          2   -1    0    0  503    0  0.00000000000E+00  0.00000000000E+00  0.12599204155E+02  0.12599204155E+02  0.00000000000E+00 0. -1.
         -2   -1    0    0    0  501 -0.00000000000E+00 -0.00000000000E+00 -0.46380261474E+02  0.46380261474E+02  0.00000000000E+00 0.  1.
         21    1    1    2  502  501  0.20933217272E+02  0.14929516331E+01 -0.31525846255E+02  0.37872252006E+02  0.00000000000E+00 0.  1.
         21    1    1    2  503  502 -0.20933217272E+02 -0.14929516331E+01 -0.22552110640E+01  0.21107213622E+02  0.00000000000E+00 0. -1.
</event>
<event>
 4    1  0.5548812E+002  0.2544620E+02  0.7546771E-02  0.1463873E+00
          2   -1    0    0  502    0  0.00000000000E+00  0.00000000000E+00  0.22874554297E+03  0.22874554297E+03  0.00000000000E+00 0.  1.
         -2   -1    0    0    0  501 -0.00000000000E+00 -0.00000000000E+00 -0.49786887804E+01  0.49786887804E+01  0.00000000000E+00 0. -1.
         21    1    1    2  502  503  0.24527112735E+02 -0.67771541836E+01  0.18864302148E+03  0.19035151334E+03  0.00000000000E+00 0.  1.
         21    1    1    2  503  501 -0.24527112735E+02  0.67771541836E+01  0.35123832705E+02  0.43372718405E+02  0.00000000000E+00 0. -1.
</event>
<event>
 4    1  0.5548812E+002  0.2388679E+02  0.7546771E-02  0.1481653E+00
          2   -1    0    0  503    0  0.00000000000E+00  0.00000000000E+00  0.72804796037E+02  0.72804796037E+02  0.00000000000E+00 0.  1.
         -2   -1    0    0    0  501 -0.00000000000E+00 -0.00000000000E+00 -0.14333481154E+02  0.14333481154E+02  0.00000000000E+00 0. -1.
         21    1    1    2  502  501  0.13727015302E+02 -0.19548597183E+02 -0.96149722056E-01  0.23886980673E+02  0.00000000000E+00 0. -1.
         21    1    1    2  503  502 -0.13727015302E+02  0.19548597183E+02  0.58567464605E+02  0.63251296517E+02  0.00000000000E+00 0.  1.
</event>
<event>
 4    1  0.5548812E+002  0.3374086E+02  0.7546771E-02  0.1389638E+00
          2   -1    0    0  502    0  0.00000000000E+00  0.00000000000E+00  0.79173050568E+03  0.79173050568E+03  0.00000000000E+00 0.  1.
         -2   -1    0    0    0  501 -0.00000000000E+00 -0.00000000000E+00 -0.54775416417E+01  0.54775416417E+01  0.00000000000E+00 0. -1.
         21    1    1    2  502  503  0.10163375325E+01  0.33725552589E+02  0.73543612319E+03  0.73620971002E+03  0.00000000000E+00 0.  1.
         21    1    1    2  503  501 -0.10163375325E+01 -0.33725552589E+02  0.50816840849E+02  0.60998337300E+02  0.00000000000E+00 0. -1.
</event>
<event>
 4    1  0.5548812E+002  0.2690926E+02  0.7546771E-02  0.1448522E+00
          2   -1    0    0  502    0  0.00000000000E+00  0.00000000000E+00  0.20125497604E+03  0.20125497604E+03  0.00000000000E+00 0. -1.
         -2   -1    0    0    0  501 -0.00000000000E+00 -0.00000000000E+00 -0.95290395327E+01  0.95290395327E+01  0.00000000000E+00 0.  1.
         21    1    1    2  502  503 -0.16560939424E+02  0.21209518779E+02  0.17901058337E+03  0.18102181460E+03  0.00000000000E+00 0. -1.
         21    1    1    2  503  501  0.16560939424E+02 -0.21209518779E+02  0.12715353135E+02  0.29762200974E+02  0.00000000000E+00 0.  1.
</event>
<event>
 4    1  0.5548812E+002  0.2904844E+02  0.7546771E-02  0.1428050E+00
          2   -1    0    0  503    0  0.00000000000E+00  0.00000000000E+00  0.50758198827E+03  0.50758198827E+03  0.00000000000E+00 0. -1.
         -2   -1    0    0    0  501 -0.00000000000E+00 -0.00000000000E+00 -0.19009611038E+01  0.19009611038E+01  0.00000000000E+00 0.  1.
         21    1    1    2  502  501 -0.24865022167E+02  0.15018076177E+02  0.34308052800E+03  0.34430808970E+03  0.00000000000E+00 0.  1.
         21    1    1    2  503  502  0.24865022167E+02 -0.15018076177E+02  0.16260049916E+03  0.16517485967E+03  0.00000000000E+00 0. -1.
</event>
<event>
 4    1  0.5548812E+002  0.2242107E+02  0.7546771E-02  0.1499899E+00
          2   -1    0    0  502    0  0.00000000000E+00  0.00000000000E+00  0.13010973122E+04  0.13010973122E+04  0.00000000000E+00 0. -1.
         -2   -1    0    0    0  501 -0.00000000000E+00 -0.00000000000E+00 -0.13019922591E+01  0.13019922591E+01  0.00000000000E+00 0.  1.
         21    1    1    2  502  503 -0.56708351669E+01  0.21692071450E+02  0.11959927167E+04  0.11962028602E+04  0.00000000000E+00 0. -1.
         21    1    1    2  503  501  0.56708351669E+01 -0.21692071450E+02  0.10380260328E+03  0.10619644430E+03  0.00000000000E+00 0.  1.
</event>
<event>
 4    1  0.5548812E+002  0.2646608E+02  0.7546771E-02  0.1453046E+00
          2   -1    0    0  503    0  0.00000000000E+00  0.00000000000E+00  0.18575526375E+04  0.18575526375E+04  0.00000000000E+00 0. -1.
         -2   -1    0    0    0  501 -0.00000000000E+00 -0.00000000000E+00 -0.62028924844E+00  0.62028924844E+00  0.00000000000E+00 0.  1.
         21    1    1    2  502  501  0.13626997304E+02 -0.22688284500E+02  0.34670395917E+03  0.34771265236E+03  0.00000000000E+00 0.  1.
         21    1    1    2  503  502 -0.13626997304E+02  0.22688284500E+02  0.15102283891E+04  0.15104602744E+04  0.00000000000E+00 0. -1.
</event>
<event>
 4    1  0.5548812E+002  0.2316527E+02  0.7546771E-02  0.1490433E+00
          2   -1    0    0  502    0  0.00000000000E+00  0.00000000000E+00  0.67713920046E+01  0.67713920046E+01  0.00000000000E+00 0.  1.
         -2   -1    0    0    0  501 -0.00000000000E+00 -0.00000000000E+00 -0.80263637315E+02  0.80263637315E+02  0.00000000000E+00 0. -1.
         21    1    1    2  502  503 -0.22472955331E+02  0.56210201545E+01 -0.31854555223E+02  0.39387082620E+02  0.00000000000E+00 0.  1.
         21    1    1    2  503  501  0.22472955331E+02 -0.56210201545E+01 -0.41637690087E+02  0.47647946700E+02  0.00000000000E+00 0. -1.
</event>
<event>
 4    1  0.5548812E+002  0.2452831E+02  0.7546771E-02  0.1474150E+00
          2   -1    0    0  503    0  0.00000000000E+00  0.00000000000E+00  0.18219106004E+03  0.18219106004E+03  0.00000000000E+00 0.  1.
         -2   -1    0    0    0  501 -0.00000000000E+00 -0.00000000000E+00 -0.64661521093E+01  0.64661521093E+01  0.00000000000E+00 0. -1.
         21    1    1    2  502  501 -0.23596624620E+02  0.66960668244E+01  0.21879327403E+02  0.32868571189E+02  0.00000000000E+00 0. -1.
         21    1    1    2  503  502  0.23596624620E+02 -0.66960668244E+01  0.15384558052E+03  0.15578864096E+03  0.00000000000E+00 0.  1.
</event>
<event>
 4    1  0.5548812E+002  0.4691192E+02  0.7546771E-02  0.1312147E+00
          2   -1    0    0  503    0  0.00000000000E+00  0.00000000000E+00  0.33855312874E+03  0.33855312874E+03  0.00000000000E+00 0.  1.
         -2   -1    0    0    0  501 -0.00000000000E+00 -0.00000000000E+00 -0.68847250420E+02  0.68847250420E+02  0.00000000000E+00 0. -1.
         21    1    1    2  502  501  0.42124228933E+02  0.20646493991E+02 -0.58992424017E+02  0.75371310648E+02  0.00000000000E+00 0. -1.
         21    1    1    2  503  502 -0.42124228933E+02 -0.20646493991E+02  0.32869830234E+03  0.33202906851E+03  0.00000000000E+00 0.  1.
</event>
<event>
 4    1  0.5548812E+002  0.3516713E+02  0.7546771E-02  0.1379392E+00
          2   -1    0    0  503    0  0.00000000000E+00  0.00000000000E+00  0.85244734461E+02  0.85244734461E+02  0.00000000000E+00 0. -1.
         -2   -1    0    0    0  501 -0.00000000000E+00 -0.00000000000E+00 -0.15591997943E+02  0.15591997943E+02  0.00000000000E+00 0.  1.
         21    1    1    2  502  501  0.35104787746E+02  0.20929986472E+01  0.21532200949E+02  0.41235451298E+02  0.00000000000E+00 0. -1.
         21    1    1    2  503  502 -0.35104787746E+02 -0.20929986472E+01  0.48120535568E+02  0.59601281106E+02  0.00000000000E+00 0.  1.
</event>
<event>
 4    1  0.5548812E+002  0.2607293E+02  0.7546771E-02  0.1457150E+00
          2   -1    0    0  502    0  0.00000000000E+00  0.00000000000E+00  0.63001980712E+01  0.63001980712E+01  0.00000000000E+00 0. -1.
         -2   -1    0    0    0  501 -0.00000000000E+00 -0.00000000000E+00 -0.11996142976E+03  0.11996142976E+03  0.00000000000E+00 0.  1.
         21    1    1    2  502  503 -0.25342893808E+02 -0.61266049709E+01 -0.36813463325E+02  0.45111291680E+02  0.00000000000E+00 0. -1.
         21    1    1    2  503  501  0.25342893808E+02  0.61266049709E+01 -0.76847768363E+02  0.81150336151E+02  0.00000000000E+00 0.  1.
</event>
<event>
 4    1  0.5548812E+002  0.2368109E+02  0.7546771E-02  0.1484118E+00
          2   -1    0    0  502    0  0.00000000000E+00  0.00000000000E+00  0.56986789832E+01  0.56986789832E+01  0.00000000000E+00 0. -1.
         -2   -1    0    0    0  501 -0.00000000000E+00 -0.00000000000E+00 -0.22752988997E+03  0.22752988997E+03  0.00000000000E+00 0.  1.
         21    1    1    2  502  503 -0.95745385679E+01  0.21659234923E+02 -0.23067406863E+02  0.33059030621E+02  0.00000000000E+00 0. -1.
         21    1    1    2  503  501  0.95745385679E+01 -0.21659234923E+02 -0.19876380413E+03  0.20016953833E+03  0.00000000000E+00 0.  1.
</event>
<event>
 4    1  0.5548812E+002  0.2285978E+02  0.7546771E-02  0.1494267E+00
          2   -1    0    0  503    0  0.00000000000E+00  0.00000000000E+00  0.51242361750E+03  0.51242361750E+03  0.00000000000E+00 0.  1.
         -2   -1    0    0    0  501 -0.00000000000E+00 -0.00000000000E+00 -0.10249637716E+01  0.10249637716E+01  0.00000000000E+00 0. -1.
         21    1    1    2  502  501 -0.30895430225E+01  0.22650033931E+02  0.23747631440E+03  0.23857403298E+03  0.00000000000E+00 0. -1.
         21    1    1    2  503  502  0.30895430225E+01 -0.22650033931E+02  0.27392233933E+03  0.27487454829E+03  0.00000000000E+00 0.  1.
</event>
<event>
 4    1  0.5548812E+002  0.2399060E+02  0.7546771E-02  0.1480420E+00
          2   -1    0    0  502    0  0.00000000000E+00  0.00000000000E+00  0.13948369678E+03  0.13948369678E+03  0.00000000000E+00 0.  1.
         -2   -1    0    0    0  501 -0.00000000000E+00 -0.00000000000E+00 -0.59580044639E+01  0.59580044639E+01  0.00000000000E+00 0. -1.
         21    1    1    2  502  503  0.11866848146E+02 -0.20850105180E+02  0.10708451104E+03  0.10973896972E+03  0.00000000000E+00 0.  1.
         21    1    1    2  503  501 -0.11866848146E+02  0.20850105180E+02  0.26441181281E+02  0.35702731526E+02  0.00000000000E+00 0. -1.
</event>
<event>
 4    1  0.5548812E+002  0.3103267E+02  0.7546771E-02  0.1410830E+00
          2   -1    0    0  503    0  0.00000000000E+00  0.00000000000E+00  0.43470028382E+03  0.43470028382E+03  0.00000000000E+00 0.  1.
         -2   -1    0    0    0  501 -0.00000000000E+00 -0.00000000000E+00 -0.63361901621E+01  0.63361901621E+01  0.00000000000E+00 0. -1.
         21    1    1    2  502  501  0.26271928446E+02 -0.16517039423E+02  0.36345239276E+02  0.47791246412E+02  0.00000000000E+00 0. -1.
         21    1    1    2  503  502 -0.26271928446E+02  0.16517039423E+02  0.39201885438E+03  0.39324522757E+03  0.00000000000E+00 0.  1.
</event>
<event>
 4    1  0.5548812E+002  0.2562201E+02  0.7546771E-02  0.1461964E+00
          2   -1    0    0  503    0  0.00000000000E+00  0.00000000000E+00  0.31625824231E+03  0.31625824231E+03  0.00000000000E+00 0.  1.
         -2   -1    0    0    0  501 -0.00000000000E+00 -0.00000000000E+00 -0.20937410476E+01  0.20937410476E+01  0.00000000000E+00 0. -1.
         21    1    1    2  502  501  0.10438590042E+02  0.23399214284E+02  0.14234568911E+03  0.14463326934E+03  0.00000000000E+00 0.  1.
         21    1    1    2  503  502 -0.10438590042E+02 -0.23399214284E+02  0.17181881215E+03  0.17371871402E+03  0.00000000000E+00 0. -1.
</event>
<event>
 4    1  0.5548812E+002  0.2162370E+02  0.7546771E-02  0.1510543E+00
          2   -1    0    0  503    0  0.00000000000E+00  0.00000000000E+00  0.11058693085E+02  0.11058693085E+02  0.00000000000E+00 0. -1.
         -2   -1    0    0    0  501 -0.00000000000E+00 -0.00000000000E+00 -0.76479473144E+02  0.76479473144E+02  0.00000000000E+00 0.  1.
         21    1    1    2  502  501 -0.12561614602E+02 -0.17600864417E+02 -0.61978284512E+02  0.65642153687E+02  0.00000000000E+00 0.  1.
         21    1    1    2  503  502  0.12561614602E+02  0.17600864417E+02 -0.34424955473E+01  0.21896012542E+02  0.00000000000E+00 0. -1.
</event>
<event>
 4    1  0.5548812E+002  0.2133592E+02  0.7546771E-02  0.1514522E+00
          2   -1    0    0  502    0  0.00000000000E+00  0.00000000000E+00  0.17249151577E+03  0.17249151577E+03  0.00000000000E+00 0. -1.
         -2   -1    0    0    0  501 -0.00000000000E+00 -0.00000000000E+00 -0.29706281000E+01  0.29706281000E+01  0.00000000000E+00 0.  1.
         21    1    1    2  502  503 -0.20525059274E+02  0.58260950715E+01  0.11406890043E+03  0.11604712615E+03  0.00000000000E+00 0.  1.
         21    1    1    2  503  501  0.20525059274E+02 -0.58260950715E+01  0.55451987239E+02  0.59415017720E+02  0.00000000000E+00 0. -1.
</event>
<event>
 4    1  0.5548812E+002  0.5950887E+02  0.7546771E-02  0.1261510E+00
          2   -1    0    0  502    0  0.00000000000E+00  0.00000000000E+00  0.11302077686E+04  0.11302077686E+04  0.00000000000E+00 0.  1.
         -2   -1    0    0    0  501 -0.00000000000E+00 -0.00000000000E+00 -0.32980430931E+01  0.32980430931E+01  0.00000000000E+00 0. -1.
         21    1    1    2  502  503 -0.58896714413E+02 -0.85136572618E+01  0.69011491429E+03  0.69267589843E+03  0.00000000000E+00 0.  1.
         21    1    1    2  503  501  0.58896714413E+02  0.85136572618E+01  0.43679481117E+03  0.44082991323E+03  0.00000000000E+00 0. -1.
</event>
<event>
 4    1  0.5548812E+002  0.2351906E+02  0.7546771E-02  0.1486081E+00
          2   -1    0    0  503    0  0.00000000000E+00  0.00000000000E+00  0.25034960727E+03  0.25034960727E+03  0.00000000000E+00 0. -1.
         -2   -1    0    0    0  501 -0.00000000000E+00 -0.00000000000E+00 -0.64014515261E+01  0.64014515261E+01  0.00000000000E+00 0.  1.
         21    1    1    2  502  501 -0.23299019300E+02 -0.32096724475E+01  0.18089427397E+02  0.29671091674E+02  0.00000000000E+00 0.  1.
         21    1    1    2  503  502  0.23299019300E+02  0.32096724475E+01  0.22585872834E+03  0.22707996712E+03  0.00000000000E+00 0. -1.
</event>
<event>
 4    1  0.5548812E+002  0.2714915E+02  0.7546771E-02  0.1446116E+00
          2   -1    0    0  503    0  0.00000000000E+00  0.00000000000E+00  0.29124381283E+03  0.29124381283E+03  0.00000000000E+00 0.  1.
         -2   -1    0    0    0  501 -0.00000000000E+00 -0.00000000000E+00 -0.70385814625E+01  0.70385814625E+01  0.00000000000E+00 0. -1.
         21    1    1    2  502  501  0.25377372772E+02 -0.96470468698E+01  0.22748603384E+02  0.35419987550E+02  0.00000000000E+00 0. -1.
         21    1    1    2  503  502 -0.25377372772E+02  0.96470468698E+01  0.26145662798E+03  0.26286240674E+03  0.00000000000E+00 0.  1.
</event>
<event>
 4    1  0.5548812E+002  0.3828103E+02  0.7546771E-02  0.1358864E+00
          2   -1    0    0  503    0  0.00000000000E+00  0.00000000000E+00  0.97233635011E+03  0.97233635011E+03  0.00000000000E+00 0. -1.
         -2   -1    0    0    0  501 -0.00000000000E+00 -0.00000000000E+00 -0.16110151237E+02  0.16110151237E+02  0.00000000000E+00 0.  1.
         21    1    1    2  502  501 -0.93136842197E+01  0.37130746739E+02  0.75750738095E+01  0.39023311114E+02  0.00000000000E+00 0.  1.
         21    1    1    2  503  502  0.93136842197E+01 -0.37130746739E+02  0.94865112506E+03  0.94942319023E+03  0.00000000000E+00 0. -1.
</event>
<event>
 4    1  0.5548812E+002  0.2582538E+02  0.7546771E-02  0.1459778E+00
          2   -1    0    0  502    0  0.00000000000E+00  0.00000000000E+00  0.12628650904E+04  0.12628650904E+04  0.00000000000E+00 0.  1.
         -2   -1    0    0    0  501 -0.00000000000E+00 -0.00000000000E+00 -0.24715378225E+01  0.24715378225E+01  0.00000000000E+00 0. -1.
         21    1    1    2  502  503 -0.20018592180E+01  0.25747676034E+02  0.11912124799E+04  0.11914923930E+04  0.00000000000E+00 0.  1.
         21    1    1    2  503  501  0.20018592180E+01 -0.25747676034E+02  0.69181072660E+02  0.73844235224E+02  0.00000000000E+00 0. -1.
</event>
<event>
 4    1  0.5548812E+002  0.2031153E+02  0.7546771E-02  0.1529326E+00
          2   -1    0    0  502    0  0.00000000000E+00  0.00000000000E+00  0.16001479886E+02  0.16001479886E+02  0.00000000000E+00 0.  1.
         -2   -1    0    0    0  501 -0.00000000000E+00 -0.00000000000E+00 -0.29372553588E+02  0.29372553588E+02  0.00000000000E+00 0. -1.
         21    1    1    2  502  503 -0.18697802470E+02 -0.79341288140E+01  0.12459894739E+01  0.20349710244E+02  0.00000000000E+00 0.  1.
         21    1    1    2  503  501  0.18697802470E+02  0.79341288140E+01 -0.14617063176E+02  0.25024323230E+02  0.00000000000E+00 0. -1.
</event>
<event>
 4    1  0.5548812E+002  0.2262295E+02  0.7546771E-02  0.1497288E+00
          2   -1    0    0  502    0  0.00000000000E+00  0.00000000000E+00  0.30523442998E+03  0.30523442998E+03  0.00000000000E+00 0.  1.
         -2   -1    0    0    0  501 -0.00000000000E+00 -0.00000000000E+00 -0.20653875401E+01  0.20653875401E+01  0.00000000000E+00 0. -1.
         21    1    1    2  502  503  0.16347443018E+02 -0.15638382158E+02  0.21823620391E+03  0.21940564848E+03  0.00000000000E+00 0.  1.
         21    1    1    2  503  501 -0.16347443018E+02  0.15638382158E+02  0.84932838526E+02  0.87894169032E+02  0.00000000000E+00 0. -1.
</event>
<event>
 4    1  0.5548812E+002  0.2049228E+02  0.7546771E-02  0.1526639E+00
          2   -1    0    0  503    0  0.00000000000E+00  0.00000000000E+00  0.68768241117E+00  0.68768241117E+00  0.00000000000E+00 0. -1.
         -2   -1    0    0    0  501 -0.00000000000E+00 -0.00000000000E+00 -0.81214298865E+03  0.81214298865E+03  0.00000000000E+00 0.  1.
         21    1    1    2  502  501  0.10376874571E+02 -0.17670709963E+02 -0.60816163218E+03  0.60850678251E+03  0.00000000000E+00 0.  1.
         21    1    1    2  503  502 -0.10376874571E+02  0.17670709963E+02 -0.20329367406E+03  0.20432388854E+03  0.00000000000E+00 0. -1.
</event>
<event>
 4    1  0.5548812E+002  0.2491331E+02  0.7546771E-02  0.1469776E+00
          2   -1    0    0  503    0  0.00000000000E+00  0.00000000000E+00  0.22711302451E+04  0.22711302451E+04  0.00000000000E+00 0.  1.
         -2   -1    0    0    0  501 -0.00000000000E+00 -0.00000000000E+00 -0.33711825190E+00  0.33711825190E+00  0.00000000000E+00 0. -1.
         21    1    1    2  502  501 -0.23316793086E+02  0.87749646435E+01  0.64120156109E+03  0.64168537056E+03  0.00000000000E+00 0.  1.
         21    1    1    2  503  502  0.23316793086E+02 -0.87749646435E+01  0.16295915658E+04  0.16297819928E+04  0.00000000000E+00 0. -1.
</event>
<event>
 4    1  0.5548812E+002  0.2269018E+02  0.7546771E-02  0.1496426E+00
          2   -1    0    0  503    0  0.00000000000E+00  0.00000000000E+00  0.15291744411E+02  0.15291744411E+02  0.00000000000E+00 0. -1.
         -2   -1    0    0    0  501 -0.00000000000E+00 -0.00000000000E+00 -0.10295226123E+03  0.10295226123E+03  0.00000000000E+00 0.  1.
         21    1    1    2  502  501  0.16899406475E+02  0.15141141968E+02 -0.92330973986E+02  0.95078140897E+02  0.00000000000E+00 0.  1.
         21    1    1    2  503  502 -0.16899406475E+02 -0.15141141968E+02  0.46704571655E+01  0.23165864746E+02  0.00000000000E+00 0. -1.
</event>
<event>
 4    1  0.5548812E+002  0.2077203E+02  0.7546771E-02  0.1522545E+00
          2   -1    0    0  503    0  0.00000000000E+00  0.00000000000E+00  0.51832411814E+03  0.51832411814E+03  0.00000000000E+00 0. -1.
         -2   -1    0    0    0  501 -0.00000000000E+00 -0.00000000000E+00 -0.11650416227E+01  0.11650416227E+01  0.00000000000E+00 0.  1.
         21    1    1    2  502  501  0.20660709472E+02  0.21476065179E+01  0.11979736902E+03  0.12158489526E+03  0.00000000000E+00 0.  1.
         21    1    1    2  503  502 -0.20660709472E+02 -0.21476065179E+01  0.39736170749E+03  0.39790426450E+03  0.00000000000E+00 0. -1.
</event>
<event>
 4    1  0.5548812E+002  0.2907066E+02  0.7546771E-02  0.1427848E+00
          2   -1    0    0  502    0  0.00000000000E+00  0.00000000000E+00  0.51264268285E+02  0.51264268285E+02  0.00000000000E+00 0. -1.
         -2   -1    0    0    0  501 -0.00000000000E+00 -0.00000000000E+00 -0.37492380982E+02  0.37492380982E+02  0.00000000000E+00 0.  1.
         21    1    1    2  502  503 -0.28558358337E+02 -0.54335505351E+01  0.40104668743E+02  0.49532693822E+02  0.00000000000E+00 0. -1.
         21    1    1    2  503  501  0.28558358337E+02  0.54335505351E+01 -0.26332781440E+02  0.39223955444E+02  0.00000000000E+00 0.  1.
</event>
<event>
 4    1  0.5548812E+002  0.2012484E+02  0.7546771E-02  0.1532136E+00
          2   -1    0    0  502    0  0.00000000000E+00  0.00000000000E+00  0.29581081209E+03  0.29581081209E+03  0.00000000000E+00 0. -1.
         -2   -1    0    0    0  501 -0.00000000000E+00 -0.00000000000E+00 -0.46858445797E+01  0.46858445797E+01  0.00000000000E+00 0.  1.
         21    1    1    2  502  503 -0.12558792344E+02  0.15725329126E+02  0.27196871366E+03  0.27271228511E+03  0.00000000000E+00 0. -1.
         21    1    1    2  503  501  0.12558792344E+02 -0.15725329126E+02  0.19156253849E+02  0.27784371556E+02  0.00000000000E+00 0.  1.
</event>
<event>
 4    1  0.5548812E+002  0.2468880E+02  0.7546771E-02  0.1472315E+00
          2   -1    0    0  503    0  0.00000000000E+00  0.00000000000E+00  0.77060913885E+03  0.77060913885E+03  0.00000000000E+00 0.  1.
         -2   -1    0    0    0  501 -0.00000000000E+00 -0.00000000000E+00 -0.26079157394E+01  0.26079157394E+01  0.00000000000E+00 0. -1.
         21    1    1    2  502  501 -0.24567959409E+02 -0.24397092282E+01  0.61304023232E+02  0.66088728805E+02  0.00000000000E+00 0. -1.
         21    1    1    2  503  502  0.24567959409E+02  0.24397092282E+01  0.70669719988E+03  0.70712832579E+03  0.00000000000E+00 0.  1.
</event>
<event>
 4    1  0.5548812E+002  0.2051515E+02  0.7546771E-02  0.1526301E+00
          2   -1    0    0  502    0  0.00000000000E+00  0.00000000000E+00  0.96068413041E+00  0.96068413041E+00  0.00000000000E+00 0. -1.
         -2   -1    0    0    0  501 -0.00000000000E+00 -0.00000000000E+00 -0.51909293221E+03  0.51909293221E+03  0.00000000000E+00 0.  1.
         21    1    1    2  502  503 -0.92634015137E+01 -0.18304666064E+02 -0.15635176585E+03  0.15769193414E+03  0.00000000000E+00 0. -1.
         21    1    1    2  503  501  0.92634015137E+01  0.18304666064E+02 -0.36178048223E+03  0.36236168221E+03  0.00000000000E+00 0.  1.
</event>
<event>
 4    1  0.5548812E+002  0.2139139E+02  0.7546771E-02  0.1513750E+00
          2   -1    0    0  503    0  0.00000000000E+00  0.00000000000E+00  0.59483027735E+02  0.59483027735E+02  0.00000000000E+00 0. -1.
         -2   -1    0    0    0  501 -0.00000000000E+00 -0.00000000000E+00 -0.18701233575E+02  0.18701233575E+02  0.00000000000E+00 0.  1.
         21    1    1    2  502  501 -0.20557669582E+02 -0.59138594788E+01 -0.96018896470E+01  0.23447554187E+02  0.00000000000E+00 0.  1.
         21    1    1    2  503  502  0.20557669582E+02  0.59138594788E+01  0.50383683807E+02  0.54736707122E+02  0.00000000000E+00 0. -1.
</event>
<event>
 4    1  0.5548812E+002  0.1683146E+03  0.7546771E-02  0.1080197E+00
          2   -1    0    0  502    0  0.00000000000E+00  0.00000000000E+00  0.44686234323E+03  0.44686234323E+03  0.00000000000E+00 0. -1.
         -2   -1    0    0    0  501 -0.00000000000E+00 -0.00000000000E+00 -0.69192300584E+02  0.69192300584E+02  0.00000000000E+00 0.  1.
         21    1    1    2  502  503 -0.45577239597E+02 -0.16202626069E+03  0.26350905275E+03  0.31267685364E+03  0.00000000000E+00 0. -1.
         21    1    1    2  503  501  0.45577239597E+02  0.16202626069E+03  0.11416098989E+03  0.20337779017E+03  0.00000000000E+00 0.  1.
</event>
<event>
 4    1  0.5548812E+002  0.2060178E+02  0.7546771E-02  0.1525027E+00
          2   -1    0    0  503    0  0.00000000000E+00  0.00000000000E+00  0.11901191693E+04  0.11901191693E+04  0.00000000000E+00 0.  1.
         -2   -1    0    0    0  501 -0.00000000000E+00 -0.00000000000E+00 -0.90800851261E+00  0.90800851261E+00  0.00000000000E+00 0. -1.
         21    1    1    2  502  501 -0.20368720565E+02 -0.30900461385E+01  0.13054859335E+03  0.13216417211E+03  0.00000000000E+00 0. -1.
         21    1    1    2  503  502  0.20368720565E+02  0.30900461385E+01  0.10586625674E+04  0.10588630057E+04  0.00000000000E+00 0.  1.
</event>
<event>
 4    1  0.5548812E+002  0.2256390E+02  0.7546771E-02  0.1498048E+00
          2   -1    0    0  503    0  0.00000000000E+00  0.00000000000E+00  0.29558685188E+03  0.29558685188E+03  0.00000000000E+00 0.  1.
         -2   -1    0    0    0  501 -0.00000000000E+00 -0.00000000000E+00 -0.18173774966E+01  0.18173774966E+01  0.00000000000E+00 0. -1.
         21    1    1    2  502  501 -0.21606147394E+02 -0.65041511533E+01  0.11289706450E+03  0.11512982567E+03  0.00000000000E+00 0.  1.
         21    1    1    2  503  502  0.21606147394E+02  0.65041511533E+01  0.18087240988E+03  0.18227440370E+03  0.00000000000E+00 0. -1.
</event>
<event>
 4    1  0.5548812E+002  0.3091237E+02  0.7546771E-02  0.1411830E+00
          2   -1    0    0  502    0  0.00000000000E+00  0.00000000000E+00  0.30925476717E+02  0.30925476717E+02  0.00000000000E+00 0.  1.
         -2   -1    0    0    0  501 -0.00000000000E+00 -0.00000000000E+00 -0.14884824523E+03  0.14884824523E+03  0.00000000000E+00 0. -1.
         21    1    1    2  502  503  0.13466556414E+02  0.27824927495E+02  0.21053620635E+02  0.37400931454E+02  0.00000000000E+00 0.  1.
         21    1    1    2  503  501 -0.13466556414E+02 -0.27824927495E+02 -0.13897638915E+03  0.14237279049E+03  0.00000000000E+00 0. -1.
</event>
<event>
 4    1  0.5548812E+002  0.2359627E+02  0.7546771E-02  0.1485143E+00
          2   -1    0    0  503    0  0.00000000000E+00  0.00000000000E+00  0.14407077956E+04  0.14407077956E+04  0.00000000000E+00 0. -1.
         -2   -1    0    0    0  501 -0.00000000000E+00 -0.00000000000E+00 -0.38650693356E+00  0.38650693356E+00  0.00000000000E+00 0.  1.
         21    1    1    2  502  501 -0.19918451210E+02 -0.12650659865E+02  0.71270247394E+03  0.71309298149E+03  0.00000000000E+00 0. -1.
         21    1    1    2  503  502  0.19918451210E+02  0.12650659865E+02  0.72761881470E+03  0.72800132101E+03  0.00000000000E+00 0.  1.
</event>
<event>
 4    1  0.5548812E+002  0.2456959E+02  0.7546771E-02  0.1473676E+00
          2   -1    0    0  503    0  0.00000000000E+00  0.00000000000E+00  0.37071381503E+01  0.37071381503E+01  0.00000000000E+00 0. -1.
         -2   -1    0    0    0  501 -0.00000000000E+00 -0.00000000000E+00 -0.16484992515E+03  0.16484992515E+03  0.00000000000E+00 0.  1.
         21    1    1    2  502  501 -0.19824852796E+02  0.14513447998E+02 -0.71262023629E+02  0.75378650643E+02  0.00000000000E+00 0. -1.
         21    1    1    2  503  502  0.19824852796E+02 -0.14513447998E+02 -0.89880763375E+02  0.93178412661E+02  0.00000000000E+00 0.  1.
</event>
<event>
 4    1  0.5548812E+002  0.2118861E+02  0.7546771E-02  0.1516589E+00
          2   -1    0    0  503    0  0.00000000000E+00  0.00000000000E+00  0.73301518266E+03  0.73301518266E+03  0.00000000000E+00 0.  1.
         -2   -1    0    0    0  501 -0.00000000000E+00 -0.00000000000E+00 -0.68328249121E+00  0.68328249121E+00  0.00000000000E+00 0. -1.
         21    1    1    2  502  501  0.12100715441E+02  0.17393384499E+02  0.24807632592E+03  0.24897955864E+03  0.00000000000E+00 0.  1.
         21    1    1    2  503  502 -0.12100715441E+02 -0.17393384499E+02  0.48425557425E+03  0.48471890651E+03  0.00000000000E+00 0. -1.
</event>
<event>
 4    1  0.5548812E+002  0.3383340E+02  0.7546771E-02  0.1388956E+00
          2   -1    0    0  503    0  0.00000000000E+00  0.00000000000E+00  0.26106878871E+02  0.26106878871E+02  0.00000000000E+00 0. -1.
         -2   -1    0    0    0  501 -0.00000000000E+00 -0.00000000000E+00 -0.46125650125E+02  0.46125650125E+02  0.00000000000E+00 0.  1.
         21    1    1    2  502  501  0.17233022779E+02 -0.29115660008E+02 -0.18037349079E+02  0.38341161871E+02  0.00000000000E+00 0.  1.
         21    1    1    2  503  502 -0.17233022779E+02  0.29115660008E+02 -0.19814221752E+01  0.33891367125E+02  0.00000000000E+00 0. -1.
</event>
<event>
 4    1  0.5548812E+002  0.2266256E+02  0.7546771E-02  0.1496779E+00
          2   -1    0    0  502    0  0.00000000000E+00  0.00000000000E+00  0.11687974257E+03  0.11687974257E+03  0.00000000000E+00 0.  1.
         -2   -1    0    0    0  501 -0.00000000000E+00 -0.00000000000E+00 -0.79732486212E+01  0.79732486212E+01  0.00000000000E+00 0. -1.
         21    1    1    2  502  503 -0.22098463062E+02 -0.50249046084E+01  0.96278226748E+02  0.98909497430E+02  0.00000000000E+00 0.  1.
         21    1    1    2  503  501  0.22098463062E+02  0.50249046084E+01  0.12628267200E+02  0.25943493761E+02  0.00000000000E+00 0. -1.
</event>
<event>
 4    1  0.5548812E+002  0.4617121E+02  0.7546771E-02  0.1315685E+00
          2   -1    0    0  503    0  0.00000000000E+00  0.00000000000E+00  0.40434240968E+03  0.40434240968E+03  0.00000000000E+00 0.  1.
         -2   -1    0    0    0  501 -0.00000000000E+00 -0.00000000000E+00 -0.19090318769E+02  0.19090318769E+02  0.00000000000E+00 0. -1.
         21    1    1    2  502  501 -0.18086622033E+02 -0.42481223446E+02  0.12501848674E+02  0.47833842228E+02  0.00000000000E+00 0. -1.
         21    1    1    2  503  502  0.18086622033E+02  0.42481223446E+02  0.37275024223E+03  0.37559888622E+03  0.00000000000E+00 0.  1.
</event>
<event>
 4    1  0.5548812E+002  0.4184753E+02  0.7546771E-02  0.1337987E+00
          2   -1    0    0  503    0  0.00000000000E+00  0.00000000000E+00  0.10400235998E+03  0.10400235998E+03  0.00000000000E+00 0.  1.
         -2   -1    0    0    0  501 -0.00000000000E+00 -0.00000000000E+00 -0.16844882130E+02  0.16844882130E+02  0.00000000000E+00 0. -1.
         21    1    1    2  502  501 -0.37710772688E+02 -0.18141476469E+02  0.42377889630E+02  0.59557544230E+02  0.00000000000E+00 0. -1.
         21    1    1    2  503  502  0.37710772688E+02  0.18141476469E+02  0.44779588225E+02  0.61289697885E+02  0.00000000000E+00 0.  1.
</event>
<event>
 4    1  0.5548812E+002  0.2313662E+02  0.7546771E-02  0.1490790E+00
          2   -1    0    0  502    0  0.00000000000E+00  0.00000000000E+00  0.78161513203E+01  0.78161513203E+01  0.00000000000E+00 0.  1.
         -2   -1    0    0    0  501 -0.00000000000E+00 -0.00000000000E+00 -0.13937350867E+03  0.13937350867E+03  0.00000000000E+00 0. -1.
         21    1    1    2  502  503 -0.19378937108E+02  0.12639621986E+02 -0.13293150232E+02  0.26683535945E+02  0.00000000000E+00 0.  1.
         21    1    1    2  503  501  0.19378937108E+02 -0.12639621986E+02 -0.11826420712E+03  0.12050612405E+03  0.00000000000E+00 0. -1.
</event>
<event>
 4    1  0.5548812E+002  0.2210691E+02  0.7546771E-02  0.1504028E+00
          2   -1    0    0  503    0  0.00000000000E+00  0.00000000000E+00  0.20367622602E+03  0.20367622602E+03  0.00000000000E+00 0. -1.
         -2   -1    0    0    0  501 -0.00000000000E+00 -0.00000000000E+00 -0.24365178474E+01  0.24365178474E+01  0.00000000000E+00 0.  1.
         21    1    1    2  502  501 -0.13745939817E+02 -0.17313716038E+02  0.11332715740E+03  0.11546324190E+03  0.00000000000E+00 0.  1.
         21    1    1    2  503  502  0.13745939817E+02  0.17313716038E+02  0.87912550771E+02  0.90649501971E+02  0.00000000000E+00 0. -1.
</event>
<event>
 4    1  0.5548812E+002  0.2544809E+02  0.7546771E-02  0.1463853E+00
          2   -1    0    0  503    0  0.00000000000E+00  0.00000000000E+00  0.49053360553E+01  0.49053360553E+01  0.00000000000E+00 0.  1.
         -2   -1    0    0    0  501 -0.00000000000E+00 -0.00000000000E+00 -0.14675757415E+03  0.14675757415E+03  0.00000000000E+00 0. -1.
         21    1    1    2  502  501 -0.16076145608E+01 -0.25397263827E+02 -0.94956088153E+02  0.98306989130E+02  0.00000000000E+00 0. -1.
         21    1    1    2  503  502  0.16076145608E+01  0.25397263827E+02 -0.46896149944E+02  0.53355921078E+02  0.00000000000E+00 0.  1.
</event>
<event>
 4    1  0.5548812E+002  0.2787034E+02  0.7546771E-02  0.1439056E+00
          2   -1    0    0  503    0  0.00000000000E+00  0.00000000000E+00  0.18798729518E+02  0.18798729518E+02  0.00000000000E+00 0. -1.
         -2   -1    0    0    0  501 -0.00000000000E+00 -0.00000000000E+00 -0.45846041134E+02  0.45846041134E+02  0.00000000000E+00 0.  1.
         21    1    1    2  502  501  0.19375363138E+02 -0.20033749448E+02 -0.23679858437E+02  0.36571731013E+02  0.00000000000E+00 0. -1.
         21    1    1    2  503  502 -0.19375363138E+02  0.20033749448E+02 -0.33674531793E+01  0.28073039639E+02  0.00000000000E+00 0.  1.
</event>
<event>
 4    1  0.5548812E+002  0.2212260E+02  0.7546771E-02  0.1503820E+00
          2   -1    0    0  502    0  0.00000000000E+00  0.00000000000E+00  0.15981361858E+04  0.15981361858E+04  0.00000000000E+00 0.  1.
         -2   -1    0    0    0  501 -0.00000000000E+00 -0.00000000000E+00 -0.28975254284E+01  0.28975254284E+01  0.00000000000E+00 0. -1.
         21    1    1    2  502  503 -0.18162155351E+02  0.12631141754E+02  0.15546520800E+04  0.15548094737E+04  0.00000000000E+00 0.  1.
         21    1    1    2  503  501  0.18162155351E+02 -0.12631141754E+02  0.40586580306E+02  0.46224237473E+02  0.00000000000E+00 0. -1.
</event>
<event>
 4    1  0.5548812E+002  0.2098209E+02  0.7546771E-02  0.1519521E+00
          2   -1    0    0  503    0  0.00000000000E+00  0.00000000000E+00  0.51936743188E+02  0.51936743188E+02  0.00000000000E+00 0.  1.
         -2   -1    0    0    0  501 -0.00000000000E+00 -0.00000000000E+00 -0.22442035711E+02  0.22442035711E+02  0.00000000000E+00 0. -1.
         21    1    1    2  502  501 -0.11897400962E+02  0.17282932762E+02 -0.14589591777E+02  0.25555901524E+02  0.00000000000E+00 0. -1.
         21    1    1    2  503  502  0.11897400962E+02 -0.17282932762E+02  0.44084299254E+02  0.48822877375E+02  0.00000000000E+00 0.  1.
</event>
<event>
 4    1  0.5548812E+002  0.2335292E+02  0.7546771E-02  0.1488113E+00
          2   -1    0    0  503    0  0.00000000000E+00  0.00000000000E+00  0.13841916865E+04  0.13841916865E+04  0.00000000000E+00 0.  1.
         -2   -1    0    0    0  501 -0.00000000000E+00 -0.00000000000E+00 -0.39627926018E+00  0.39627926018E+00  0.00000000000E+00 0. -1.
         21    1    1    2  502  501  0.18339088885E+02  0.14458103879E+02  0.74450556718E+03  0.74487173292E+03  0.00000000000E+00 0. -1.
         21    1    1    2  503  502 -0.18339088885E+02 -0.14458103879E+02  0.63928984003E+03  0.63971623281E+03  0.00000000000E+00 0.  1.
</event>
<event>
 4    1  0.5548812E+002  0.8574590E+02  0.7546771E-02  0.1191101E+00
          2   -1    0    0  502    0  0.00000000000E+00  0.00000000000E+00  0.26302330246E+02  0.26302330246E+02  0.00000000000E+00 0. -1.
         -2   -1    0    0    0  501 -0.00000000000E+00 -0.00000000000E+00 -0.30027741737E+03  0.30027741737E+03  0.00000000000E+00 0.  1.
         21    1    1    2  502  503 -0.76802293548E+02  0.38128301791E+02 -0.17990681631E+03  0.19929581593E+03  0.00000000000E+00 0.  1.
         21    1    1    2  503  501  0.76802293548E+02 -0.38128301791E+02 -0.94068270812E+02  0.12728393169E+03  0.00000000000E+00 0. -1.
</event>
<event>
 4    1  0.5548812E+002  0.2229703E+02  0.7546771E-02  0.1501519E+00
          2   -1    0    0  503    0  0.00000000000E+00  0.00000000000E+00  0.23059587081E+03  0.23059587081E+03  0.00000000000E+00 0. -1.
         -2   -1    0    0    0  501 -0.00000000000E+00 -0.00000000000E+00 -0.29014732407E+01  0.29014732407E+01  0.00000000000E+00 0.  1.
         21    1    1    2  502  501  0.22296429676E+02 -0.16410672770E+00  0.54668212214E+02  0.59040419493E+02  0.00000000000E+00 0.  1.
         21    1    1    2  503  502 -0.22296429676E+02  0.16410672770E+00  0.17302618536E+03  0.17445692456E+03  0.00000000000E+00 0. -1.
</event>
<event>
 4    1  0.5548812E+002  0.2581317E+02  0.7546771E-02  0.1459909E+00
          2   -1    0    0  502    0  0.00000000000E+00  0.00000000000E+00  0.14790015114E+03  0.14790015114E+03  0.00000000000E+00 0. -1.
         -2   -1    0    0    0  501 -0.00000000000E+00 -0.00000000000E+00 -0.56257933646E+02  0.56257933646E+02  0.00000000000E+00 0.  1.
         21    1    1    2  502  503  0.25780062961E+02 -0.13069164167E+01  0.14372756891E+03  0.14602716782E+03  0.00000000000E+00 0. -1.
         21    1    1    2  503  501 -0.25780062961E+02  0.13069164167E+01 -0.52085351408E+02  0.58130916973E+02  0.00000000000E+00 0.  1.
</event>
<event>
 4    1  0.5548812E+002  0.3691783E+02  0.7546771E-02  0.1367560E+00
          2   -1    0    0  503    0  0.00000000000E+00  0.00000000000E+00  0.40120115193E+03  0.40120115193E+03  0.00000000000E+00 0. -1.
         -2   -1    0    0    0  501 -0.00000000000E+00 -0.00000000000E+00 -0.10276648335E+02  0.10276648335E+02  0.00000000000E+00 0.  1.
         21    1    1    2  502  501 -0.18736826813E+02  0.31809712350E+02  0.27128906735E+02  0.45813797697E+02  0.00000000000E+00 0.  1.
         21    1    1    2  503  502  0.18736826813E+02 -0.31809712350E+02  0.36379559686E+03  0.36566400256E+03  0.00000000000E+00 0. -1.
</event>
<event>
 4    1  0.5548812E+002  0.2288643E+02  0.7546771E-02  0.1493929E+00
          2   -1    0    0  503    0  0.00000000000E+00  0.00000000000E+00  0.83632434015E+02  0.83632434015E+02  0.00000000000E+00 0. -1.
         -2   -1    0    0    0  501 -0.00000000000E+00 -0.00000000000E+00 -0.85893603632E+01  0.85893603632E+01  0.00000000000E+00 0.  1.
         21    1    1    2  502  501  0.20910904105E+02  0.93017551036E+01  0.13524192067E+02  0.26583685402E+02  0.00000000000E+00 0.  1.
         21    1    1    2  503  502 -0.20910904105E+02 -0.93017551036E+01  0.61518881585E+02  0.65638108976E+02  0.00000000000E+00 0. -1.
</event>
<event>
 4    1  0.5548812E+002  0.2099781E+02  0.7546771E-02  0.1519296E+00
          2   -1    0    0  503    0  0.00000000000E+00  0.00000000000E+00  0.36880337603E+01  0.36880337603E+01  0.00000000000E+00 0. -1.
         -2   -1    0    0    0  501 -0.00000000000E+00 -0.00000000000E+00 -0.32879683875E+03  0.32879683875E+03  0.00000000000E+00 0.  1.
         21    1    1    2  502  501 -0.13161985881E+02 -0.16360628435E+02 -0.29517363742E+03  0.29591955708E+03  0.00000000000E+00 0.  1.
         21    1    1    2  503  502  0.13161985881E+02  0.16360628435E+02 -0.29935167577E+02  0.36565315437E+02  0.00000000000E+00 0. -1.
</event>
<event>
 4    1  0.5548812E+002  0.2898450E+02  0.7546771E-02  0.1428631E+00
          2   -1    0    0  502    0  0.00000000000E+00  0.00000000000E+00  0.41138789317E+02  0.41138789317E+02  0.00000000000E+00 0.  1.
         -2   -1    0    0    0  501 -0.00000000000E+00 -0.00000000000E+00 -0.20595802564E+02  0.20595802564E+02  0.00000000000E+00 0. -1.
         21    1    1    2  502  503 -0.75033003302E+00 -0.28974790823E+02  0.74290399623E+01  0.29921432673E+02  0.00000000000E+00 0.  1.
         21    1    1    2  503  501  0.75033003302E+00  0.28974790823E+02  0.13113946790E+02  0.31813159209E+02  0.00000000000E+00 0. -1.
</event>
<event>
 4    1  0.5548812E+002  0.6053097E+02  0.7546771E-02  0.1258039E+00
          2   -1    0    0  502    0  0.00000000000E+00  0.00000000000E+00  0.49292191929E+04  0.49292191929E+04  0.00000000000E+00 0. -1.
         -2   -1    0    0    0  501 -0.00000000000E+00 -0.00000000000E+00 -0.81787650535E+00  0.81787650535E+00  0.00000000000E+00 0.  1.
         21    1    1    2  502  503 -0.50703556879E+02 -0.33062790938E+02  0.32084393282E+04  0.32090102713E+04  0.00000000000E+00 0.  1.
         21    1    1    2  503  501  0.50703556879E+02  0.33062790938E+02  0.17199619882E+04  0.17210267981E+04  0.00000000000E+00 0. -1.
</event>
<event>
 4    1  0.5548812E+002  0.2997764E+02  0.7546771E-02  0.1419791E+00
          2   -1    0    0  502    0  0.00000000000E+00  0.00000000000E+00  0.99965533465E+03  0.99965533465E+03  0.00000000000E+00 0. -1.
         -2   -1    0    0    0  501 -0.00000000000E+00 -0.00000000000E+00 -0.99194971757E+00  0.99194971757E+00  0.00000000000E+00 0.  1.
         21    1    1    2  502  503  0.29159412156E+02 -0.69560968147E+01  0.65251235473E+03  0.65320060599E+03  0.00000000000E+00 0. -1.
         21    1    1    2  503  501 -0.29159412156E+02  0.69560968147E+01  0.34615103021E+03  0.34744667837E+03  0.00000000000E+00 0.  1.
</event>
<event>
 4    1  0.5548812E+002  0.2484402E+02  0.7546771E-02  0.1470556E+00
          2   -1    0    0  503    0  0.00000000000E+00  0.00000000000E+00  0.12334211993E+03  0.12334211993E+03  0.00000000000E+00 0. -1.
         -2   -1    0    0    0  501 -0.00000000000E+00 -0.00000000000E+00 -0.51787321773E+01  0.51787321773E+01  0.00000000000E+00 0.  1.
         21    1    1    2  502  501  0.10829057391E+02 -0.22359713676E+02  0.70879560628E+02  0.75107505580E+02  0.00000000000E+00 0.  1.
         21    1    1    2  503  502 -0.10829057391E+02  0.22359713676E+02  0.47283827123E+02  0.53413346525E+02  0.00000000000E+00 0. -1.
</event>
<event>
 4    1  0.5548812E+002  0.2664478E+02  0.7546771E-02  0.1451209E+00
          2   -1    0    0  502    0  0.00000000000E+00  0.00000000000E+00  0.51672114619E+03  0.51672114619E+03  0.00000000000E+00 0.  1.
         -2   -1    0    0    0  501 -0.00000000000E+00 -0.00000000000E+00 -0.29219918764E+01  0.29219918764E+01  0.00000000000E+00 0. -1.
         21    1    1    2  502  503 -0.24670301598E+02  0.10065812824E+02  0.44601559465E+03  0.44681075976E+03  0.00000000000E+00 0.  1.
         21    1    1    2  503  501  0.24670301598E+02 -0.10065812824E+02  0.67783559669E+02  0.72832378309E+02  0.00000000000E+00 0. -1.
</event>
<event>
 4    1  0.5548812E+002  0.2176297E+02  0.7546771E-02  0.1508645E+00
          2   -1    0    0  502    0  0.00000000000E+00  0.00000000000E+00  0.27061514408E+03  0.27061514408E+03  0.00000000000E+00 0.  1.
         -2   -1    0    0    0  501 -0.00000000000E+00 -0.00000000000E+00 -0.42862241235E+01  0.42862241235E+01  0.00000000000E+00 0. -1.
         21    1    1    2  502  503 -0.21741633319E+02  0.96342876122E+00  0.23889181401E+03  0.23988106556E+03  0.00000000000E+00 0.  1.
         21    1    1    2  503  501  0.21741633319E+02 -0.96342876122E+00  0.27437105947E+02  0.35020302642E+02  0.00000000000E+00 0. -1.
</event>
<event>
 4    1  0.5548812E+002  0.2930283E+02  0.7546771E-02  0.1425753E+00
          2   -1    0    0  502    0  0.00000000000E+00  0.00000000000E+00  0.27102105278E+04  0.27102105278E+04  0.00000000000E+00 0.  1.
         -2   -1    0    0    0  501 -0.00000000000E+00 -0.00000000000E+00 -0.39037499625E+00  0.39037499625E+00  0.00000000000E+00 0. -1.
         21    1    1    2  502  503  0.13678253318E+02  0.25914498839E+02  0.19432022745E+04  0.19434232004E+04  0.00000000000E+00 0.  1.
         21    1    1    2  503  501 -0.13678253318E+02 -0.25914498839E+02  0.76661787826E+03  0.76717770245E+03  0.00000000000E+00 0. -1.
</event>
<event>
 4    1  0.5548812E+002  0.3422037E+02  0.7546771E-02  0.1386129E+00
          2   -1    0    0  502    0  0.00000000000E+00  0.00000000000E+00  0.54755832791E+02  0.54755832791E+02  0.00000000000E+00 0.  1.
         -2   -1    0    0    0  501 -0.00000000000E+00 -0.00000000000E+00 -0.68681405068E+02  0.68681405068E+02  0.00000000000E+00 0. -1.
         21    1    1    2  502  503 -0.32882924558E+02 -0.94734721248E+01  0.44253015952E+02  0.55940708097E+02  0.00000000000E+00 0.  1.
         21    1    1    2  503  501  0.32882924558E+02  0.94734721248E+01 -0.58178588229E+02  0.67496529762E+02  0.00000000000E+00 0. -1.
</event>
<event>
 4    1  0.5548812E+002  0.3262494E+02  0.7546771E-02  0.1398076E+00
          2   -1    0    0  503    0  0.00000000000E+00  0.00000000000E+00  0.11253507848E+02  0.11253507848E+02  0.00000000000E+00 0. -1.
         -2   -1    0    0    0  501 -0.00000000000E+00 -0.00000000000E+00 -0.16152723546E+03  0.16152723546E+03  0.00000000000E+00 0.  1.
         21    1    1    2  502  501  0.93099731840E+01 -0.31268371837E+02 -0.13075291707E+03  0.13476168595E+03  0.00000000000E+00 0.  1.
         21    1    1    2  503  502 -0.93099731840E+01  0.31268371837E+02 -0.19520810538E+02  0.38019057354E+02  0.00000000000E+00 0. -1.
</event>
<event>
 4    1  0.5548812E+002  0.2457386E+02  0.7546771E-02  0.1473627E+00
          2   -1    0    0  502    0  0.00000000000E+00  0.00000000000E+00  0.10539354338E+04  0.10539354338E+04  0.00000000000E+00 0.  1.
         -2   -1    0    0    0  501 -0.00000000000E+00 -0.00000000000E+00 -0.16368320405E+01  0.16368320405E+01  0.00000000000E+00 0. -1.
         21    1    1    2  502  503  0.24183340449E+02 -0.43635758081E+01  0.95164807088E+03  0.95196529640E+03  0.00000000000E+00 0.  1.
         21    1    1    2  503  501 -0.24183340449E+02  0.43635758081E+01  0.10065053083E+03  0.10360696939E+03  0.00000000000E+00 0. -1.
</event>
<event>
 4    1  0.5548812E+002  0.3658472E+02  0.7546771E-02  0.1369752E+00
          2   -1    0    0  503    0  0.00000000000E+00  0.00000000000E+00  0.89425394903E+03  0.89425394903E+03  0.00000000000E+00 0. -1.
         -2   -1    0    0    0  501 -0.00000000000E+00 -0.00000000000E+00 -0.16719320583E+01  0.16719320583E+01  0.00000000000E+00 0.  1.
         21    1    1    2  502  501 -0.31143699370E+02  0.19196650841E+02  0.30127245149E+03  0.30348563630E+03  0.00000000000E+00 0.  1.
         21    1    1    2  503  502  0.31143699370E+02 -0.19196650841E+02  0.59130956548E+03  0.59244024479E+03  0.00000000000E+00 0. -1.
</event>
<event>
 4    1  0.5548812E+002  0.2104217E+02  0.7546771E-02  0.1518664E+00
          2   -1    0    0  503    0  0.00000000000E+00  0.00000000000E+00  0.43944621422E+02  0.43944621422E+02  0.00000000000E+00 0.  1.
         -2   -1    0    0    0  501 -0.00000000000E+00 -0.00000000000E+00 -0.10290048144E+02  0.10290048144E+02  0.00000000000E+00 0. -1.
         21    1    1    2  502  501  0.62066134458E+01 -0.20105989533E+02  0.20741073407E+02  0.29545980973E+02  0.00000000000E+00 0. -1.
         21    1    1    2  503  502 -0.62066134458E+01  0.20105989533E+02  0.12913499872E+02  0.24688688594E+02  0.00000000000E+00 0.  1.
</event>
<event>
 4    1  0.5548812E+002  0.2793882E+02  0.7546771E-02  0.1438399E+00
          2   -1    0    0  503    0  0.00000000000E+00  0.00000000000E+00  0.70168336796E+02  0.70168336796E+02  0.00000000000E+00 0.  1.
         -2   -1    0    0    0  501 -0.00000000000E+00 -0.00000000000E+00 -0.18417000223E+02  0.18417000223E+02  0.00000000000E+00 0. -1.
         21    1    1    2  502  501 -0.27822400211E+02 -0.25478403674E+01 -0.19961281432E+01  0.28010033409E+02  0.00000000000E+00 0. -1.
         21    1    1    2  503  502  0.27822400211E+02  0.25478403674E+01  0.53747464717E+02  0.60575303610E+02  0.00000000000E+00 0.  1.
</event>
<event>
 4    1  0.5548812E+002  0.6527886E+02  0.7546771E-02  0.1242880E+00
          2   -1    0    0  503    0  0.00000000000E+00  0.00000000000E+00  0.21286057468E+04  0.21286057468E+04  0.00000000000E+00 0.  1.
         -2   -1    0    0    0  501 -0.00000000000E+00 -0.00000000000E+00 -0.29522622319E+01  0.29522622319E+01  0.00000000000E+00 0. -1.
         21    1    1    2  502  501 -0.77583279624E+01  0.64816189790E+02  0.45814576340E+03  0.46277302280E+03  0.00000000000E+00 0.  1.
         21    1    1    2  503  502  0.77583279624E+01 -0.64816189790E+02  0.16675077212E+04  0.16687849863E+04  0.00000000000E+00 0. -1.
</event>
<event>
 4    1  0.5548812E+002  0.2083862E+02  0.7546771E-02  0.1521582E+00
          2   -1    0    0  502    0  0.00000000000E+00  0.00000000000E+00  0.14175339945E+04  0.14175339945E+04  0.00000000000E+00 0.  1.
         -2   -1    0    0    0  501 -0.00000000000E+00 -0.00000000000E+00 -0.36131013566E+00  0.36131013566E+00  0.00000000000E+00 0. -1.
         21    1    1    2  502  503 -0.99268286347E+01  0.18322284019E+02  0.98511215440E+03  0.98533253512E+03  0.00000000000E+00 0.  1.
         21    1    1    2  503  501  0.99268286347E+01 -0.18322284019E+02  0.43206052997E+03  0.43256276953E+03  0.00000000000E+00 0. -1.
</event>
<event>
 4    1  0.5548812E+002  0.2602028E+02  0.7546771E-02  0.1457706E+00
          2   -1    0    0  503    0  0.00000000000E+00  0.00000000000E+00  0.60241050820E+02  0.60241050820E+02  0.00000000000E+00 0. -1.
         -2   -1    0    0    0  501 -0.00000000000E+00 -0.00000000000E+00 -0.14880499225E+02  0.14880499225E+02  0.00000000000E+00 0.  1.
         21    1    1    2  502  501  0.25867341165E+02  0.28170548357E+01  0.40996644785E+01  0.26341267732E+02  0.00000000000E+00 0.  1.
         21    1    1    2  503  502 -0.25867341165E+02 -0.28170548357E+01  0.41260887116E+02  0.48780282313E+02  0.00000000000E+00 0. -1.
</event>
<event>
 4    1  0.5548812E+002  0.2434348E+02  0.7546771E-02  0.1476284E+00
          2   -1    0    0  503    0  0.00000000000E+00  0.00000000000E+00  0.10519260236E+03  0.10519260236E+03  0.00000000000E+00 0.  1.
         -2   -1    0    0    0  501 -0.00000000000E+00 -0.00000000000E+00 -0.16472466441E+02  0.16472466441E+02  0.00000000000E+00 0. -1.
         21    1    1    2  502  501 -0.23288534788E+02 -0.70886654311E+01 -0.49857160488E+01  0.24848790608E+02  0.00000000000E+00 0. -1.
         21    1    1    2  503  502  0.23288534788E+02  0.70886654311E+01  0.93705851963E+02  0.96816278189E+02  0.00000000000E+00 0.  1.
</event>
<event>
 4    1  0.5548812E+002  0.2557413E+02  0.7546771E-02  0.1462482E+00
          2   -1    0    0  503    0  0.00000000000E+00  0.00000000000E+00  0.32764897768E+03  0.32764897768E+03  0.00000000000E+00 0.  1.
         -2   -1    0    0    0  501 -0.00000000000E+00 -0.00000000000E+00 -0.21628973502E+01  0.21628973502E+01  0.00000000000E+00 0. -1.
         21    1    1    2  502  501  0.21530781303E+02 -0.13800777537E+02  0.11695523701E+03  0.11971868471E+03  0.00000000000E+00 0. -1.
         21    1    1    2  503  502 -0.21530781303E+02  0.13800777537E+02  0.20853084332E+03  0.21009319032E+03  0.00000000000E+00 0.  1.
</event>
<event>
 4    1  0.5548812E+002  0.2946254E+02  0.7546771E-02  0.1424325E+00
          2   -1    0    0  503    0  0.00000000000E+00  0.00000000000E+00  0.31159631120E+02  0.31159631120E+02  0.00000000000E+00 0.  1.
         -2   -1    0    0    0  501 -0.00000000000E+00 -0.00000000000E+00 -0.29086894262E+02  0.29086894262E+02  0.00000000000E+00 0. -1.
         21    1    1    2  502  501  0.11410538016E+02  0.27163222896E+02  0.72283973697E+01  0.30336294837E+02  0.00000000000E+00 0.  1.
         21    1    1    2  503  502 -0.11410538016E+02 -0.27163222896E+02 -0.51556605116E+01  0.29910230545E+02  0.00000000000E+00 0. -1.
</event>
<event>
 4    1  0.5548812E+002  0.6379422E+02  0.7546771E-02  0.1247459E+00
          2   -1    0    0  503    0  0.00000000000E+00  0.00000000000E+00  0.57435870877E+03  0.57435870877E+03  0.00000000000E+00 0.  1.
         -2   -1    0    0    0  501 -0.00000000000E+00 -0.00000000000E+00 -0.70886434757E+01  0.70886434757E+01  0.00000000000E+00 0. -1.
         21    1    1    2  502  501  0.61175671171E+02 -0.18089757834E+02  0.27765604271E+03  0.28489047042E+03  0.00000000000E+00 0. -1.
         21    1    1    2  503  502 -0.61175671171E+02  0.18089757834E+02  0.28961402258E+03  0.29655688183E+03  0.00000000000E+00 0.  1.
</event>
<event>
 4    1  0.5548812E+002  0.2423152E+02  0.7546771E-02  0.1477587E+00
          2   -1    0    0  502    0  0.00000000000E+00  0.00000000000E+00  0.11556159745E+04  0.11556159745E+04  0.00000000000E+00 0.  1.
         -2   -1    0    0    0  501 -0.00000000000E+00 -0.00000000000E+00 -0.16302572414E+01  0.16302572414E+01  0.00000000000E+00 0. -1.
         21    1    1    2  502  503 -0.21308114465E+02  0.11538238519E+02  0.10570521371E+04  0.10573298384E+04  0.00000000000E+00 0.  1.
         21    1    1    2  503  501  0.21308114465E+02 -0.11538238519E+02  0.96933580239E+02  0.99916393391E+02  0.00000000000E+00 0. -1.
</event>
<event>
 4    1  0.5548812E+002  0.2861568E+02  0.7546771E-02  0.1432020E+00
          2   -1    0    0  502    0  0.00000000000E+00  0.00000000000E+00  0.10086386013E+04  0.10086386013E+04  0.00000000000E+00 0. -1.
         -2   -1    0    0    0  501 -0.00000000000E+00 -0.00000000000E+00 -0.22086480655E+01  0.22086480655E+01  0.00000000000E+00 0.  1.
         21    1    1    2  502  503  0.19516434088E+02  0.20927637233E+02  0.90515386132E+03  0.90560607875E+03  0.00000000000E+00 0. -1.
         21    1    1    2  503  501 -0.19516434088E+02 -0.20927637233E+02  0.10127609189E+03  0.10524117060E+03  0.00000000000E+00 0.  1.
</event>
<event>
 4    1  0.5548812E+002  0.2935552E+02  0.7546771E-02  0.1425281E+00
          2   -1    0    0  503    0  0.00000000000E+00  0.00000000000E+00  0.17855969584E+03  0.17855969584E+03  0.00000000000E+00 0.  1.
         -2   -1    0    0    0  501 -0.00000000000E+00 -0.00000000000E+00 -0.75525643388E+01  0.75525643388E+01  0.00000000000E+00 0. -1.
         21    1    1    2  502  501 -0.24718168470E+02 -0.15835357431E+02  0.29592479841E+02  0.41682865312E+02  0.00000000000E+00 0. -1.
         21    1    1    2  503  502  0.24718168470E+02  0.15835357431E+02  0.14141465166E+03  0.14442939487E+03  0.00000000000E+00 0.  1.
</event>
<event>
 4    1  0.5548812E+002  0.2242839E+02  0.7546771E-02  0.1499803E+00
          2   -1    0    0  503    0  0.00000000000E+00  0.00000000000E+00  0.65581092840E+03  0.65581092840E+03  0.00000000000E+00 0. -1.
         -2   -1    0    0    0  501 -0.00000000000E+00 -0.00000000000E+00 -0.15450372548E+01  0.15450372548E+01  0.00000000000E+00 0.  1.
         21    1    1    2  502  501  0.17021680935E+02  0.14604627327E+02  0.93899751313E+02  0.96541162505E+02  0.00000000000E+00 0.  1.
         21    1    1    2  503  502 -0.17021680935E+02 -0.14604627327E+02  0.56036613983E+03  0.56081480315E+03  0.00000000000E+00 0. -1.
</event>
<event>
 4    1  0.5548812E+002  0.2217564E+02  0.7546771E-02  0.1503117E+00
          2   -1    0    0  502    0  0.00000000000E+00  0.00000000000E+00  0.20758323060E+01  0.20758323060E+01  0.00000000000E+00 0. -1.
         -2   -1    0    0    0  501 -0.00000000000E+00 -0.00000000000E+00 -0.71383854313E+03  0.71383854313E+03  0.00000000000E+00 0.  1.
         21    1    1    2  502  503  0.52474624825E+01  0.21545835149E+02 -0.63288597340E+02  0.67061206580E+02  0.00000000000E+00 0. -1.
         21    1    1    2  503  501 -0.52474624825E+01 -0.21545835149E+02 -0.64847411349E+03  0.64885316886E+03  0.00000000000E+00 0.  1.
</event>
<event>
 4    1  0.5548812E+002  0.7679410E+02  0.7546771E-02  0.1211492E+00
          2   -1    0    0  503    0  0.00000000000E+00  0.00000000000E+00  0.95965862521E+03  0.95965862521E+03  0.00000000000E+00 0.  1.
         -2   -1    0    0    0  501 -0.00000000000E+00 -0.00000000000E+00 -0.62090539907E+01  0.62090539907E+01  0.00000000000E+00 0. -1.
         21    1    1    2  502  501 -0.49944452490E+02 -0.58334260134E+02  0.52568315570E+03  0.53126275461E+03  0.00000000000E+00 0. -1.
         21    1    1    2  503  502  0.49944452490E+02  0.58334260134E+02  0.42776641552E+03  0.43460492460E+03  0.00000000000E+00 0.  1.
</event>
<event>
 4    1  0.5548812E+002  0.2429238E+02  0.7546771E-02  0.1476877E+00
          2   -1    0    0  502    0  0.00000000000E+00  0.00000000000E+00  0.73020908602E+03  0.73020908602E+03  0.00000000000E+00 0.  1.
         -2   -1    0    0    0  501 -0.00000000000E+00 -0.00000000000E+00 -0.41903616587E+01  0.41903616587E+01  0.00000000000E+00 0. -1.
         21    1    1    2  502  503  0.15135360154E+02 -0.19001071648E+02  0.69290521972E+03  0.69333091909E+03  0.00000000000E+00 0.  1.
         21    1    1    2  503  501 -0.15135360154E+02  0.19001071648E+02  0.33113504640E+02  0.41068528587E+02  0.00000000000E+00 0. -1.
</event>
<event>
 4    1  0.5548812E+002  0.2229748E+02  0.7546771E-02  0.1501513E+00
          2   -1    0    0  502    0  0.00000000000E+00  0.00000000000E+00  0.12895952789E+04  0.12895952789E+04  0.00000000000E+00 0.  1.
         -2   -1    0    0    0  501 -0.00000000000E+00 -0.00000000000E+00 -0.39991729741E+00  0.39991729741E+00  0.00000000000E+00 0. -1.
         21    1    1    2  502  503  0.11021996652E+02 -0.19382803734E+02  0.76693661331E+03  0.76726067691E+03  0.00000000000E+00 0. -1.
         21    1    1    2  503  501 -0.11021996652E+02  0.19382803734E+02  0.52225874833E+03  0.52273451932E+03  0.00000000000E+00 0.  1.
</event>
<event>
 4    1  0.5548812E+002  0.2726140E+02  0.7546771E-02  0.1445000E+00
          2   -1    0    0  502    0  0.00000000000E+00  0.00000000000E+00  0.52438470840E+02  0.52438470840E+02  0.00000000000E+00 0. -1.
         -2   -1    0    0    0  501 -0.00000000000E+00 -0.00000000000E+00 -0.29022847447E+02  0.29022847447E+02  0.00000000000E+00 0.  1.
         21    1    1    2  502  503 -0.26119213046E+02 -0.78083782190E+01  0.40843131056E+02  0.49105451989E+02  0.00000000000E+00 0. -1.
         21    1    1    2  503  501  0.26119213046E+02  0.78083782190E+01 -0.17427507663E+02  0.32355866298E+02  0.00000000000E+00 0.  1.
</event>
<event>
 4    1  0.5548812E+002  0.2468426E+02  0.7546771E-02  0.1472367E+00
          2   -1    0    0  502    0  0.00000000000E+00  0.00000000000E+00  0.63791599934E+00  0.63791599934E+00  0.00000000000E+00 0.  1.
         -2   -1    0    0    0  501 -0.00000000000E+00 -0.00000000000E+00 -0.13002857471E+04  0.13002857471E+04  0.00000000000E+00 0. -1.
         21    1    1    2  502  503  0.10600372580E+02  0.22292257647E+02 -0.98493616545E+03  0.98524543270E+03  0.00000000000E+00 0. -1.
         21    1    1    2  503  501 -0.10600372580E+02 -0.22292257647E+02 -0.31471166563E+03  0.31567823038E+03  0.00000000000E+00 0.  1.
</event>
<event>
 4    1  0.5548812E+002  0.2237421E+02  0.7546771E-02  0.1500509E+00
          2   -1    0    0  503    0  0.00000000000E+00  0.00000000000E+00  0.48020093386E+03  0.48020093386E+03  0.00000000000E+00 0. -1.
         -2   -1    0    0    0  501 -0.00000000000E+00 -0.00000000000E+00 -0.17064862933E+01  0.17064862933E+01  0.00000000000E+00 0.  1.
         21    1    1    2  502  501 -0.22785486959E+01  0.22257882803E+02  0.38954921359E+03  0.39019122868E+03  0.00000000000E+00 0. -1.
         21    1    1    2  503  502  0.22785486959E+01 -0.22257882803E+02  0.88945233976E+02  0.91716191471E+02  0.00000000000E+00 0.  1.
</event>
<event>
 4    1  0.5548812E+002  0.2009629E+02  0.7546771E-02  0.1532569E+00
          2   -1    0    0  503    0  0.00000000000E+00  0.00000000000E+00  0.91286074747E+03  0.91286074747E+03  0.00000000000E+00 0. -1.
         -2   -1    0    0    0  501 -0.00000000000E+00 -0.00000000000E+00 -0.12002213880E+01  0.12002213880E+01  0.00000000000E+00 0.  1.
         21    1    1    2  502  501  0.16414312962E+02 -0.11594453063E+02  0.92673335263E+02  0.94827253891E+02  0.00000000000E+00 0.  1.
         21    1    1    2  503  502 -0.16414312962E+02  0.11594453063E+02  0.81898719082E+03  0.81923371497E+03  0.00000000000E+00 0. -1.
</event>
<event>
 4    1  0.5548812E+002  0.2798706E+02  0.7546771E-02  0.1437937E+00
          2   -1    0    0  502    0  0.00000000000E+00  0.00000000000E+00  0.50936133340E+01  0.50936133340E+01  0.00000000000E+00 0.  1.
         -2   -1    0    0    0  501 -0.00000000000E+00 -0.00000000000E+00 -0.83186452792E+03  0.83186452792E+03  0.00000000000E+00 0. -1.
         21    1    1    2  502  503  0.16203910489E+02 -0.22819042851E+02 -0.35560500421E+02  0.45252896283E+02  0.00000000000E+00 0.  1.
         21    1    1    2  503  501 -0.16203910489E+02  0.22819042851E+02 -0.79121041416E+03  0.79170524497E+03  0.00000000000E+00 0. -1.
</event>
<event>
 4    1  0.5548812E+002  0.2402630E+02  0.7546771E-02  0.1479998E+00
          2   -1    0    0  502    0  0.00000000000E+00  0.00000000000E+00  0.14301785807E+04  0.14301785807E+04  0.00000000000E+00 0.  1.
         -2   -1    0    0    0  501 -0.00000000000E+00 -0.00000000000E+00 -0.16079532740E+01  0.16079532740E+01  0.00000000000E+00 0. -1.
         21    1    1    2  502  503  0.19229747991E+02 -0.14404159123E+02  0.13338449298E+04  0.13340613029E+04  0.00000000000E+00 0.  1.
         21    1    1    2  503  501 -0.19229747991E+02  0.14404159123E+02  0.94725697669E+02  0.97725231168E+02  0.00000000000E+00 0. -1.
</event>
<event>
 4    1  0.5548812E+002  0.2439141E+02  0.7546771E-02  0.1475728E+00
          2   -1    0    0  502    0  0.00000000000E+00  0.00000000000E+00  0.62513974102E+02  0.62513974102E+02  0.00000000000E+00 0.  1.
         -2   -1    0    0    0  501 -0.00000000000E+00 -0.00000000000E+00 -0.29342788331E+02  0.29342788331E+02  0.00000000000E+00 0. -1.
         21    1    1    2  502  503 -0.12227050556E+02 -0.21105452842E+02  0.54338159660E+02  0.59561535408E+02  0.00000000000E+00 0.  1.
         21    1    1    2  503  501  0.12227050556E+02  0.21105452842E+02 -0.21166973889E+02  0.32295227025E+02  0.00000000000E+00 0. -1.
</event>
<event>
 4    1  0.5548812E+002  0.3783797E+02  0.7546771E-02  0.1361643E+00
          2   -1    0    0  502    0  0.00000000000E+00  0.00000000000E+00  0.30159887383E+03  0.30159887383E+03  0.00000000000E+00 0.  1.
         -2   -1    0    0    0  501 -0.00000000000E+00 -0.00000000000E+00 -0.95589277342E+01  0.95589277342E+01  0.00000000000E+00 0. -1.
         21    1    1    2  502  503  0.31134879883E+02  0.21501894378E+02  0.25640300354E+03  0.25917988431E+03  0.00000000000E+00 0.  1.
         21    1    1    2  503  501 -0.31134879883E+02 -0.21501894378E+02  0.35636942554E+02  0.51977917251E+02  0.00000000000E+00 0. -1.
</event>
<event>
 4    1  0.5548812E+002  0.2023597E+02  0.7546771E-02  0.1530459E+00
          2   -1    0    0  502    0  0.00000000000E+00  0.00000000000E+00  0.12507699235E+04  0.12507699235E+04  0.00000000000E+00 0.  1.
         -2   -1    0    0    0  501 -0.00000000000E+00 -0.00000000000E+00 -0.19909152258E+01  0.19909152258E+01  0.00000000000E+00 0. -1.
         21    1    1    2  502  503  0.19399846172E+02 -0.57567700900E+01  0.11969560597E+04  0.11971271041E+04  0.00000000000E+00 0.  1.
         21    1    1    2  503  501 -0.19399846172E+02  0.57567700900E+01  0.51822948566E+02  0.55633734653E+02  0.00000000000E+00 0. -1.
</event>
<event>
 4    1  0.5548812E+002  0.2387177E+02  0.7546771E-02  0.1481832E+00
          2   -1    0    0  503    0  0.00000000000E+00  0.00000000000E+00  0.23104261363E+03  0.23104261363E+03  0.00000000000E+00 0. -1.
         -2   -1    0    0    0  501 -0.00000000000E+00 -0.00000000000E+00 -0.64705358271E+01  0.64705358271E+01  0.00000000000E+00 0.  1.
         21    1    1    2  502  501  0.92771846222E+01  0.21995342221E+02  0.18866487344E+02  0.30427053400E+02  0.00000000000E+00 0.  1.
         21    1    1    2  503  502 -0.92771846222E+01 -0.21995342221E+02  0.20570559046E+03  0.20708609606E+03  0.00000000000E+00 0. -1.
</event>
<event>
 4    1  0.5548812E+002  0.4069211E+02  0.7546771E-02  0.1344477E+00
          2   -1    0    0  503    0  0.00000000000E+00  0.00000000000E+00  0.10166888024E+02  0.10166888024E+02  0.00000000000E+00 0.  1.
         -2   -1    0    0    0  501 -0.00000000000E+00 -0.00000000000E+00 -0.17000830078E+03  0.17000830078E+03  0.00000000000E+00 0. -1.
         21    1    1    2  502  501  0.37740143831E+02 -0.15216080018E+02 -0.98384782189E+02  0.10646789617E+03  0.00000000000E+00 0.  1.
         21    1    1    2  503  502 -0.37740143831E+02  0.15216080018E+02 -0.61456630566E+02  0.73707292638E+02  0.00000000000E+00 0. -1.
</event>
<event>
 4    1  0.5548812E+002  0.2051444E+02  0.7546771E-02  0.1526312E+00
          2   -1    0    0  502    0  0.00000000000E+00  0.00000000000E+00  0.87320664052E+01  0.87320664052E+01  0.00000000000E+00 0. -1.
         -2   -1    0    0    0  501 -0.00000000000E+00 -0.00000000000E+00 -0.60385536017E+02  0.60385536017E+02  0.00000000000E+00 0.  1.
         21    1    1    2  502  503  0.19736013548E+02 -0.55974935352E+01 -0.10299177175E+02  0.22954633848E+02  0.00000000000E+00 0. -1.
         21    1    1    2  503  501 -0.19736013548E+02  0.55974935352E+01 -0.41354292437E+02  0.46162968574E+02  0.00000000000E+00 0.  1.
</event>
<event>
 4    1  0.5548812E+002  0.2226267E+02  0.7546771E-02  0.1501970E+00
          2   -1    0    0  503    0  0.00000000000E+00  0.00000000000E+00  0.30207452228E+01  0.30207452228E+01  0.00000000000E+00 0. -1.
         -2   -1    0    0    0  501 -0.00000000000E+00 -0.00000000000E+00 -0.17177947258E+03  0.17177947258E+03  0.00000000000E+00 0.  1.
         21    1    1    2  502  501 -0.55707434515E-01  0.22262603041E+02 -0.65868866217E+02  0.69529376052E+02  0.00000000000E+00 0.  1.
         21    1    1    2  503  502  0.55707434515E-01 -0.22262603041E+02 -0.10288986114E+03  0.10527084175E+03  0.00000000000E+00 0. -1.
</event>
<event>
 4    1  0.5548812E+002  0.3064471E+02  0.7546771E-02  0.1414075E+00
          2   -1    0    0  503    0  0.00000000000E+00  0.00000000000E+00  0.52602392589E+01  0.52602392589E+01  0.00000000000E+00 0. -1.
         -2   -1    0    0    0  501 -0.00000000000E+00 -0.00000000000E+00 -0.28619491130E+03  0.28619491130E+03  0.00000000000E+00 0.  1.
         21    1    1    2  502  501  0.95388998245E+01  0.29122282863E+02 -0.22984987539E+03  0.23188372773E+03  0.00000000000E+00 0.  1.
         21    1    1    2  503  502 -0.95388998245E+01 -0.29122282863E+02 -0.51084796651E+02  0.59571422829E+02  0.00000000000E+00 0. -1.
</event>
<event>
 4    1  0.5548812E+002  0.2444383E+02  0.7546771E-02  0.1475122E+00
          2   -1    0    0  502    0  0.00000000000E+00  0.00000000000E+00  0.95794101575E+01  0.95794101575E+01  0.00000000000E+00 0. -1.
         -2   -1    0    0    0  501 -0.00000000000E+00 -0.00000000000E+00 -0.68340538175E+02  0.68340538175E+02  0.00000000000E+00 0.  1.
         21    1    1    2  502  503  0.71659155420E+01 -0.23369862304E+02 -0.17868296205E+02  0.30278322591E+02  0.00000000000E+00 0. -1.
         21    1    1    2  503  501 -0.71659155420E+01  0.23369862304E+02 -0.40892831812E+02  0.47641625741E+02  0.00000000000E+00 0.  1.
</event>
<event>
 4    1  0.5548812E+002  0.3049437E+02  0.7546771E-02  0.1415348E+00
          2   -1    0    0  502    0  0.00000000000E+00  0.00000000000E+00  0.31011304227E+04  0.31011304227E+04  0.00000000000E+00 0.  1.
         -2   -1    0    0    0  501 -0.00000000000E+00 -0.00000000000E+00 -0.30202689350E+00  0.30202689350E+00  0.00000000000E+00 0. -1.
         21    1    1    2  502  503 -0.29988811057E+02 -0.55297042682E+01  0.14190788993E+04  0.14194065058E+04  0.00000000000E+00 0.  1.
         21    1    1    2  503  501  0.29988811057E+02  0.55297042682E+01  0.16817494965E+04  0.16820259438E+04  0.00000000000E+00 0. -1.
</event>
<event>
 4    1  0.5548812E+002  0.2229443E+02  0.7546771E-02  0.1501553E+00
          2   -1    0    0  502    0  0.00000000000E+00  0.00000000000E+00  0.94326398429E+02  0.94326398429E+02  0.00000000000E+00 0.  1.
         -2   -1    0    0    0  501 -0.00000000000E+00 -0.00000000000E+00 -0.53474727274E+01  0.53474727274E+01  0.00000000000E+00 0. -1.
         21    1    1    2  502  503 -0.19719752274E+02  0.10400629302E+02  0.38466919834E+02  0.44460607746E+02  0.00000000000E+00 0. -1.
         21    1    1    2  503  501  0.19719752274E+02 -0.10400629302E+02  0.50512005868E+02  0.55213263411E+02  0.00000000000E+00 0.  1.
</event>
<event>
 4    1  0.5548812E+002  0.2175763E+02  0.7546771E-02  0.1508717E+00
          2   -1    0    0  503    0  0.00000000000E+00  0.00000000000E+00  0.30938391332E+02  0.30938391332E+02  0.00000000000E+00 0. -1.
         -2   -1    0    0    0  501 -0.00000000000E+00 -0.00000000000E+00 -0.17184687008E+02  0.17184687008E+02  0.00000000000E+00 0.  1.
         21    1    1    2  502  501  0.13631489545E+02 -0.16958088708E+02  0.14842750810E+02  0.26338214280E+02  0.00000000000E+00 0. -1.
         21    1    1    2  503  502 -0.13631489545E+02  0.16958088708E+02 -0.10890464855E+01  0.21784864060E+02  0.00000000000E+00 0.  1.
</event>
<event>
 4    1  0.5548812E+002  0.2502167E+02  0.7546771E-02  0.1468561E+00
          2   -1    0    0  502    0  0.00000000000E+00  0.00000000000E+00  0.44359351034E+03  0.44359351034E+03  0.00000000000E+00 0. -1.
         -2   -1    0    0    0  501 -0.00000000000E+00 -0.00000000000E+00 -0.21350231107E+01  0.21350231107E+01  0.00000000000E+00 0.  1.
         21    1    1    2  502  503  0.25020458806E+02  0.24610352495E+00  0.90982029925E+02  0.94360021699E+02  0.00000000000E+00 0.  1.
         21    1    1    2  503  501 -0.25020458806E+02 -0.24610352495E+00  0.35047645730E+03  0.35136851175E+03  0.00000000000E+00 0. -1.
</event>
<event>
 4    1  0.5548812E+002  0.2095331E+02  0.7546771E-02  0.1519933E+00
          2   -1    0    0  503    0  0.00000000000E+00  0.00000000000E+00  0.19419171802E+03  0.19419171802E+03  0.00000000000E+00 0. -1.
         -2   -1    0    0    0  501 -0.00000000000E+00 -0.00000000000E+00 -0.40448964735E+01  0.40448964735E+01  0.00000000000E+00 0.  1.
         21    1    1    2  502  501 -0.11630763526E+02  0.17428893919E+02  0.29246786059E+02  0.35977986300E+02  0.00000000000E+00 0.  1.
         21    1    1    2  503  502  0.11630763526E+02 -0.17428893919E+02  0.16090003548E+03  0.16225862819E+03  0.00000000000E+00 0. -1.
</event>
<event>
 4    1  0.5548812E+002  0.2253298E+02  0.7546771E-02  0.1498447E+00
          2   -1    0    0  503    0  0.00000000000E+00  0.00000000000E+00  0.33595624911E+03  0.33595624911E+03  0.00000000000E+00 0.  1.
         -2   -1    0    0    0  501 -0.00000000000E+00 -0.00000000000E+00 -0.41385947173E+02  0.41385947173E+02  0.00000000000E+00 0. -1.
         21    1    1    2  502  501  0.11165356049E+02 -0.19572171432E+02 -0.37909007256E+02  0.44100202963E+02  0.00000000000E+00 0. -1.
         21    1    1    2  503  502 -0.11165356049E+02  0.19572171432E+02  0.33247930919E+03  0.33324199332E+03  0.00000000000E+00 0.  1.
</event>
<event>
 4    1  0.5548812E+002  0.2969163E+02  0.7546771E-02  0.1422295E+00
          2   -1    0    0  503    0  0.00000000000E+00  0.00000000000E+00  0.92824618407E+03  0.92824618407E+03  0.00000000000E+00 0. -1.
         -2   -1    0    0    0  501 -0.00000000000E+00 -0.00000000000E+00 -0.50797964243E+01  0.50797964243E+01  0.00000000000E+00 0.  1.
         21    1    1    2  502  501 -0.20743208598E+02  0.21244105051E+02  0.40800191222E+02  0.50460363713E+02  0.00000000000E+00 0.  1.
         21    1    1    2  503  502  0.20743208598E+02 -0.21244105051E+02  0.88236619642E+03  0.88286561678E+03  0.00000000000E+00 0. -1.
</event>
<event>
 4    1  0.5548812E+002  0.2047039E+02  0.7546771E-02  0.1526962E+00
          2   -1    0    0  502    0  0.00000000000E+00  0.00000000000E+00  0.27089438218E+02  0.27089438218E+02  0.00000000000E+00 0. -1.
         -2   -1    0    0    0  501 -0.00000000000E+00 -0.00000000000E+00 -0.17761570903E+02  0.17761570903E+02  0.00000000000E+00 0.  1.
         21    1    1    2  502  503 -0.11814381313E+02 -0.16716975200E+02 -0.33934988664E+01  0.20749763859E+02  0.00000000000E+00 0.  1.
         21    1    1    2  503  501  0.11814381313E+02  0.16716975200E+02  0.12721366182E+02  0.24101245262E+02  0.00000000000E+00 0. -1.
</event>
<event>
 4    1  0.5548812E+002  0.3212919E+02  0.7546771E-02  0.1401953E+00
          2   -1    0    0  503    0  0.00000000000E+00  0.00000000000E+00  0.68421529639E+01  0.68421529639E+01  0.00000000000E+00 0.  1.
         -2   -1    0    0    0  501 -0.00000000000E+00 -0.00000000000E+00 -0.18754710904E+03  0.18754710904E+03  0.00000000000E+00 0. -1.
         21    1    1    2  502  501  0.30995840892E+02  0.84582795043E+01 -0.13333350868E+03  0.13714995145E+03  0.00000000000E+00 0.  1.
         21    1    1    2  503  502 -0.30995840892E+02 -0.84582795043E+01 -0.47371447397E+02  0.57239310558E+02  0.00000000000E+00 0. -1.
</event>
<event>
 4    1  0.5548812E+002  0.2670334E+02  0.7546771E-02  0.1450611E+00
          2   -1    0    0  502    0  0.00000000000E+00  0.00000000000E+00  0.10461309097E+02  0.10461309097E+02  0.00000000000E+00 0. -1.
         -2   -1    0    0    0  501 -0.00000000000E+00 -0.00000000000E+00 -0.13164223907E+03  0.13164223907E+03  0.00000000000E+00 0.  1.
         21    1    1    2  502  503 -0.18397022266E+02 -0.19355055088E+02 -0.11250936843E+02  0.28976752157E+02  0.00000000000E+00 0. -1.
         21    1    1    2  503  501  0.18397022266E+02  0.19355055088E+02 -0.10992999313E+03  0.11312679601E+03  0.00000000000E+00 0.  1.
</event>
<event>
 4    1  0.5548812E+002  0.2809228E+02  0.7546771E-02  0.1436934E+00
          2   -1    0    0  502    0  0.00000000000E+00  0.00000000000E+00  0.60465217574E+03  0.60465217574E+03  0.00000000000E+00 0. -1.
         -2   -1    0    0    0  501 -0.00000000000E+00 -0.00000000000E+00 -0.15658346589E+01  0.15658346589E+01  0.00000000000E+00 0.  1.
         21    1    1    2  502  503 -0.28089376234E+02 -0.40414608460E+00  0.42521292693E+03  0.42613989443E+03  0.00000000000E+00 0. -1.
         21    1    1    2  503  501  0.28089376234E+02  0.40414608460E+00  0.17787341414E+03  0.18007811597E+03  0.00000000000E+00 0.  1.
</event>
<event>
 4    1  0.5548812E+002  0.2741599E+02  0.7546771E-02  0.1443474E+00
          2   -1    0    0  502    0  0.00000000000E+00  0.00000000000E+00  0.42819680418E+02  0.42819680418E+02  0.00000000000E+00 0. -1.
         -2   -1    0    0    0  501 -0.00000000000E+00 -0.00000000000E+00 -0.17756973421E+02  0.17756973421E+02  0.00000000000E+00 0.  1.
         21    1    1    2  502  503 -0.12666643824E+01 -0.27386714468E+02  0.15773346390E+02  0.31629654193E+02  0.00000000000E+00 0.  1.
         21    1    1    2  503  501  0.12666643824E+01  0.27386714468E+02  0.92893606078E+01  0.28946999646E+02  0.00000000000E+00 0. -1.
</event>
<event>
 4    1  0.5548812E+002  0.2133243E+02  0.7546771E-02  0.1514571E+00
          2   -1    0    0  502    0  0.00000000000E+00  0.00000000000E+00  0.14285262506E+04  0.14285262506E+04  0.00000000000E+00 0.  1.
         -2   -1    0    0    0  501 -0.00000000000E+00 -0.00000000000E+00 -0.40561195713E+00  0.40561195713E+00  0.00000000000E+00 0. -1.
         21    1    1    2  502  503 -0.14282775114E+02 -0.15845338443E+02  0.10450492817E+04  0.10452669867E+04  0.00000000000E+00 0.  1.
         21    1    1    2  503  501  0.14282775114E+02  0.15845338443E+02  0.38307135700E+03  0.38366487586E+03  0.00000000000E+00 0. -1.
</event>
<event>
 4    1  0.5548812E+002  0.2147252E+02  0.7546771E-02  0.1512624E+00
          2   -1    0    0  503    0  0.00000000000E+00  0.00000000000E+00  0.11730714422E+04  0.11730714422E+04  0.00000000000E+00 0.  1.
         -2   -1    0    0    0  501 -0.00000000000E+00 -0.00000000000E+00 -0.52084313591E+00  0.52084313591E+00  0.00000000000E+00 0. -1.
         21    1    1    2  502  501 -0.21413643552E+02  0.15890022136E+01  0.29560731051E+03  0.29638615198E+03  0.00000000000E+00 0.  1.
         21    1    1    2  503  502  0.21413643552E+02 -0.15890022136E+01  0.87694328859E+03  0.87720613339E+03  0.00000000000E+00 0. -1.
</event>
<event>
 4    1  0.5548812E+002  0.2077799E+02  0.7546771E-02  0.1522458E+00
          2   -1    0    0  503    0  0.00000000000E+00  0.00000000000E+00  0.13044422314E+03  0.13044422314E+03  0.00000000000E+00 0. -1.
         -2   -1    0    0    0  501 -0.00000000000E+00 -0.00000000000E+00 -0.11224846092E+02  0.11224846092E+02  0.00000000000E+00 0.  1.
         21    1    1    2  502  501  0.16797124798E+02 -0.12230344454E+02  0.12767163550E+00  0.20778378835E+02  0.00000000000E+00 0.  1.
         21    1    1    2  503  502 -0.16797124798E+02  0.12230344454E+02  0.11909170541E+03  0.12089069039E+03  0.00000000000E+00 0. -1.
</event>
<event>
 4    1  0.5548812E+002  0.2489657E+02  0.7546771E-02  0.1469964E+00
          2   -1    0    0  503    0  0.00000000000E+00  0.00000000000E+00  0.35179007182E+03  0.35179007182E+03  0.00000000000E+00 0.  1.
         -2   -1    0    0    0  501 -0.00000000000E+00 -0.00000000000E+00 -0.18190659444E+01  0.18190659444E+01  0.00000000000E+00 0. -1.
         21    1    1    2  502  501  0.21861038287E+02  0.11913620479E+02  0.20631239765E+03  0.20780915469E+03  0.00000000000E+00 0. -1.
         21    1    1    2  503  502 -0.21861038287E+02 -0.11913620479E+02  0.14365860822E+03  0.14579998307E+03  0.00000000000E+00 0.  1.
</event>
<event>
 4    1  0.5548812E+002  0.2377278E+02  0.7546771E-02  0.1483016E+00
          2   -1    0    0  503    0  0.00000000000E+00  0.00000000000E+00  0.13147929626E+04  0.13147929626E+04  0.00000000000E+00 0. -1.
         -2   -1    0    0    0  501 -0.00000000000E+00 -0.00000000000E+00 -0.22593158060E+01  0.22593158060E+01  0.00000000000E+00 0.  1.
         21    1    1    2  502  501 -0.34085102023E+01 -0.23527153019E+02  0.63684897541E+02  0.67977283307E+02  0.00000000000E+00 0.  1.
         21    1    1    2  503  502  0.34085102023E+01  0.23527153019E+02  0.12488487492E+04  0.12490749951E+04  0.00000000000E+00 0. -1.
</event>
<event>
 4    1  0.5548812E+002  0.2010826E+02  0.7546771E-02  0.1532387E+00
          2   -1    0    0  503    0  0.00000000000E+00  0.00000000000E+00  0.16304276776E+03  0.16304276776E+03  0.00000000000E+00 0. -1.
         -2   -1    0    0    0  501 -0.00000000000E+00 -0.00000000000E+00 -0.24937674453E+01  0.24937674453E+01  0.00000000000E+00 0.  1.
         21    1    1    2  502  501 -0.25595873902E+01 -0.19944693546E+02  0.74119507678E+02  0.76798722038E+02  0.00000000000E+00 0. -1.
         21    1    1    2  503  502  0.25595873902E+01  0.19944693546E+02  0.86429492633E+02  0.88737813163E+02  0.00000000000E+00 0.  1.
</event>
<event>
 4    1  0.5548812E+002  0.2078119E+02  0.7546771E-02  0.1522412E+00
          2   -1    0    0  503    0  0.00000000000E+00  0.00000000000E+00  0.81629898015E+03  0.81629898015E+03  0.00000000000E+00 0. -1.
         -2   -1    0    0    0  501 -0.00000000000E+00 -0.00000000000E+00 -0.10905771506E+01  0.10905771506E+01  0.00000000000E+00 0.  1.
         21    1    1    2  502  501 -0.14319733607E+02 -0.15059986583E+02  0.11434027500E+03  0.11621340909E+03  0.00000000000E+00 0.  1.
         21    1    1    2  503  502  0.14319733607E+02  0.15059986583E+02  0.70086812800E+03  0.70117614820E+03  0.00000000000E+00 0. -1.
</event>
<event>
 4    1  0.5548812E+002  0.2156707E+02  0.7546771E-02  0.1511320E+00
          2   -1    0    0  502    0  0.00000000000E+00  0.00000000000E+00  0.26543777648E+03  0.26543777648E+03  0.00000000000E+00 0.  1.
         -2   -1    0    0    0  501 -0.00000000000E+00 -0.00000000000E+00 -0.21482957527E+01  0.21482957527E+01  0.00000000000E+00 0. -1.
         21    1    1    2  502  503 -0.19501249549E+02 -0.92108515333E+01  0.18908377660E+03  0.19030978192E+03  0.00000000000E+00 0.  1.
         21    1    1    2  503  501  0.19501249549E+02  0.92108515333E+01  0.74205704125E+02  0.77276290313E+02  0.00000000000E+00 0. -1.
</event>
<event>
 4    1  0.5548812E+002  0.2152507E+02  0.7546771E-02  0.1511899E+00
          2   -1    0    0  503    0  0.00000000000E+00  0.00000000000E+00  0.82346028817E+03  0.82346028817E+03  0.00000000000E+00 0.  1.
         -2   -1    0    0    0  501 -0.00000000000E+00 -0.00000000000E+00 -0.56335229839E+00  0.56335229839E+00  0.00000000000E+00 0. -1.
         21    1    1    2  502  501  0.48847091405E+01  0.20963496502E+02  0.42588665447E+03  0.42643026513E+03  0.00000000000E+00 0. -1.
         21    1    1    2  503  502 -0.48847091405E+01 -0.20963496502E+02  0.39701028140E+03  0.39759337533E+03  0.00000000000E+00 0.  1.
</event>
<event>
 4    1  0.5548812E+002  0.2667732E+02  0.7546771E-02  0.1450877E+00
          2   -1    0    0  503    0  0.00000000000E+00  0.00000000000E+00  0.14281067214E+04  0.14281067214E+04  0.00000000000E+00 0. -1.
         -2   -1    0    0    0  501 -0.00000000000E+00 -0.00000000000E+00 -0.13559037920E+01  0.13559037920E+01  0.00000000000E+00 0.  1.
         21    1    1    2  502  501 -0.20197719872E+02 -0.17427900215E+02  0.14496484476E+03  0.14739906991E+03  0.00000000000E+00 0.  1.
         21    1    1    2  503  502  0.20197719872E+02  0.17427900215E+02  0.12817859729E+04  0.12820635553E+04  0.00000000000E+00 0. -1.
</event>
<event>
 4    1  0.5548812E+002  0.2367619E+02  0.7546771E-02  0.1484177E+00
          2   -1    0    0  502    0  0.00000000000E+00  0.00000000000E+00  0.11329065471E+02  0.11329065471E+02  0.00000000000E+00 0. -1.
         -2   -1    0    0    0  501 -0.00000000000E+00 -0.00000000000E+00 -0.72485676484E+02  0.72485676484E+02  0.00000000000E+00 0.  1.
         21    1    1    2  502  503  0.22794333247E+02  0.64015711224E+01 -0.69690565821E+01  0.24680548833E+02  0.00000000000E+00 0. -1.
         21    1    1    2  503  501 -0.22794333247E+02 -0.64015711224E+01 -0.54187554431E+02  0.59134193122E+02  0.00000000000E+00 0.  1.
</event>
<event>
 4    1  0.5548812E+002  0.2014835E+02  0.7546771E-02  0.1531780E+00
          2   -1    0    0  503    0  0.00000000000E+00  0.00000000000E+00  0.89941105503E+03  0.89941105503E+03  0.00000000000E+00 0. -1.
         -2   -1    0    0    0  501 -0.00000000000E+00 -0.00000000000E+00 -0.44112582159E+01  0.44112582159E+01  0.00000000000E+00 0.  1.
         21    1    1    2  502  501 -0.17179760896E+02  0.10526719704E+02  0.19332134928E+02  0.27922884039E+02  0.00000000000E+00 0.  1.
         21    1    1    2  503  502  0.17179760896E+02 -0.10526719704E+02  0.87566766189E+03  0.87589942921E+03  0.00000000000E+00 0. -1.
</event>
<event>
 4    1  0.5548812E+002  0.2181087E+02  0.7546771E-02  0.1507995E+00
          2   -1    0    0  502    0  0.00000000000E+00  0.00000000000E+00  0.41053877044E+01  0.41053877044E+01  0.00000000000E+00 0.  1.
         -2   -1    0    0    0  501 -0.00000000000E+00 -0.00000000000E+00 -0.13103489983E+03  0.13103489983E+03  0.00000000000E+00 0. -1.
         21    1    1    2  502  503  0.21802233249E+02  0.61391309376E+00 -0.40482062721E+02  0.45983819612E+02  0.00000000000E+00 0. -1.
         21    1    1    2  503  501 -0.21802233249E+02 -0.61391309376E+00 -0.86447449405E+02  0.89156467923E+02  0.00000000000E+00 0.  1.
</event>
<event>
 4    1  0.5548812E+002  0.2023132E+02  0.7546771E-02  0.1530528E+00
          2   -1    0    0  503    0  0.00000000000E+00  0.00000000000E+00  0.68435408766E+03  0.68435408766E+03  0.00000000000E+00 0.  1.
         -2   -1    0    0    0  501 -0.00000000000E+00 -0.00000000000E+00 -0.25572487253E+01  0.25572487253E+01  0.00000000000E+00 0. -1.
         21    1    1    2  502  501  0.17435005084E+02  0.10262898203E+02  0.40277756287E+02  0.45073319528E+02  0.00000000000E+00 0. -1.
         21    1    1    2  503  502 -0.17435005084E+02 -0.10262898203E+02  0.64151908264E+03  0.64183801685E+03  0.00000000000E+00 0.  1.
</event>
<event>
 4    1  0.5548812E+002  0.4093175E+02  0.7546771E-02  0.1343111E+00
          2   -1    0    0  502    0  0.00000000000E+00  0.00000000000E+00  0.93996487332E+03  0.93996487332E+03  0.00000000000E+00 0. -1.
         -2   -1    0    0    0  501 -0.00000000000E+00 -0.00000000000E+00 -0.21950291900E+01  0.21950291900E+01  0.00000000000E+00 0.  1.
         21    1    1    2  502  503 -0.32773744224E+02 -0.24521206758E+02  0.26464232396E+03  0.26778903548E+03  0.00000000000E+00 0.  1.
         21    1    1    2  503  501  0.32773744224E+02  0.24521206758E+02  0.67312752017E+03  0.67437086703E+03  0.00000000000E+00 0. -1.
</event>
<event>
 4    1  0.5548812E+002  0.2627691E+02  0.7546771E-02  0.1455010E+00
          2   -1    0    0  502    0  0.00000000000E+00  0.00000000000E+00  0.12285554105E+04  0.12285554105E+04  0.00000000000E+00 0. -1.
         -2   -1    0    0    0  501 -0.00000000000E+00 -0.00000000000E+00 -0.26334209185E+01  0.26334209185E+01  0.00000000000E+00 0.  1.
         21    1    1    2  502  503 -0.22719843108E+02 -0.13201684206E+02  0.11589279467E+04  0.11592258026E+04  0.00000000000E+00 0. -1.
         21    1    1    2  503  501  0.22719843108E+02  0.13201684206E+02  0.66994042828E+02  0.71963028780E+02  0.00000000000E+00 0.  1.
</event>
<event>
 4    1  0.5548812E+002  0.4985458E+02  0.7546771E-02  0.1298804E+00
          2   -1    0    0  502    0  0.00000000000E+00  0.00000000000E+00  0.11487356258E+03  0.11487356258E+03  0.00000000000E+00 0.  1.
         -2   -1    0    0    0  501 -0.00000000000E+00 -0.00000000000E+00 -0.59175099830E+02  0.59175099830E+02  0.00000000000E+00 0. -1.
         21    1    1    2  502  503  0.47385629714E+02  0.15494552452E+02  0.97161380065E+02  0.10920536999E+03  0.00000000000E+00 0.  1.
         21    1    1    2  503  501 -0.47385629714E+02 -0.15494552452E+02 -0.41462917316E+02  0.64843292417E+02  0.00000000000E+00 0. -1.
</event>
<event>
 4    1  0.5548812E+002  0.5797288E+02  0.7546771E-02  0.1266880E+00
          2   -1    0    0  502    0  0.00000000000E+00  0.00000000000E+00  0.16188177530E+04  0.16188177530E+04  0.00000000000E+00 0.  1.
         -2   -1    0    0    0  501 -0.00000000000E+00 -0.00000000000E+00 -0.27660929496E+01  0.27660929496E+01  0.00000000000E+00 0. -1.
         21    1    1    2  502  503 -0.37397913929E+02 -0.44297301153E+02  0.12129680359E+04  0.12143526304E+04  0.00000000000E+00 0.  1.
         21    1    1    2  503  501  0.37397913929E+02  0.44297301153E+02  0.40308362413E+03  0.40723121552E+03  0.00000000000E+00 0. -1.
</event>
<event>
 4    1  0.5548812E+002  0.2707867E+02  0.7546771E-02  0.1446819E+00
          2   -1    0    0  503    0  0.00000000000E+00  0.00000000000E+00  0.93835729608E+03  0.93835729608E+03  0.00000000000E+00 0.  1.
         -2   -1    0    0    0  501 -0.00000000000E+00 -0.00000000000E+00 -0.80329561851E+00  0.80329561851E+00  0.00000000000E+00 0. -1.
         21    1    1    2  502  501  0.26117410951E+02  0.71508826250E+01  0.54626230428E+03  0.54693304833E+03  0.00000000000E+00 0.  1.
         21    1    1    2  503  502 -0.26117410951E+02 -0.71508826250E+01  0.39129169618E+03  0.39222754336E+03  0.00000000000E+00 0. -1.
</event>
<event>
 4    1  0.5548812E+002  0.2296743E+02  0.7546771E-02  0.1492908E+00
          2   -1    0    0  502    0  0.00000000000E+00  0.00000000000E+00  0.23186123959E+03  0.23186123959E+03  0.00000000000E+00 0.  1.
         -2   -1    0    0    0  501 -0.00000000000E+00 -0.00000000000E+00 -0.30449853314E+01  0.30449853314E+01  0.00000000000E+00 0. -1.
         21    1    1    2  502  503  0.63181926187E+01  0.22081289240E+02  0.17346773544E+03  0.17498159369E+03  0.00000000000E+00 0.  1.
         21    1    1    2  503  501 -0.63181926187E+01 -0.22081289240E+02  0.55348518815E+02  0.59924631225E+02  0.00000000000E+00 0. -1.
</event>
<event>
 4    1  0.5548812E+002  0.2502687E+02  0.7546771E-02  0.1468503E+00
          2   -1    0    0  503    0  0.00000000000E+00  0.00000000000E+00  0.71232257936E+02  0.71232257936E+02  0.00000000000E+00 0. -1.
         -2   -1    0    0    0  501 -0.00000000000E+00 -0.00000000000E+00 -0.20888461283E+02  0.20888461283E+02  0.00000000000E+00 0.  1.
         21    1    1    2  502  501  0.13671971736E+02  0.20962381549E+02 -0.98779035647E+01  0.26905709992E+02  0.00000000000E+00 0.  1.
         21    1    1    2  503  502 -0.13671971736E+02 -0.20962381549E+02  0.60221700218E+02  0.65215009227E+02  0.00000000000E+00 0. -1.
</event>
<event>
 4    1  0.5548812E+002  0.2021174E+02  0.7546771E-02  0.1530823E+00
          2   -1    0    0  502    0  0.00000000000E+00  0.00000000000E+00  0.16466495228E+03  0.16466495228E+03  0.00000000000E+00 0. -1.
         -2   -1    0    0    0  501 -0.00000000000E+00 -0.00000000000E+00 -0.16825604339E+02  0.16825604339E+02  0.00000000000E+00 0.  1.
         21    1    1    2  502  503 -0.59489279506E+01  0.19316433820E+02  0.15770824235E+03  0.15899812597E+03  0.00000000000E+00 0. -1.
         21    1    1    2  503  501  0.59489279506E+01 -0.19316433820E+02 -0.98688944092E+01  0.22492430641E+02  0.00000000000E+00 0.  1.
</event>
<event>
 4    1  0.5548812E+002  0.2198317E+02  0.7546771E-02  0.1505677E+00
          2   -1    0    0  502    0  0.00000000000E+00  0.00000000000E+00  0.84392021489E+03  0.84392021489E+03  0.00000000000E+00 0. -1.
         -2   -1    0    0    0  501 -0.00000000000E+00 -0.00000000000E+00 -0.78238911939E+01  0.78238911939E+01  0.00000000000E+00 0.  1.
         21    1    1    2  502  503  0.21948429049E+02  0.12354488503E+01  0.82803914695E+03  0.82833090535E+03  0.00000000000E+00 0. -1.
         21    1    1    2  503  501 -0.21948429049E+02 -0.12354488503E+01  0.80571767448E+01  0.23413200735E+02  0.00000000000E+00 0.  1.
</event>
<event>
 4    1  0.5548812E+002  0.2478045E+02  0.7546771E-02  0.1471275E+00
          2   -1    0    0  502    0  0.00000000000E+00  0.00000000000E+00  0.93280605302E+03  0.93280605302E+03  0.00000000000E+00 0.  1.
         -2   -1    0    0    0  501 -0.00000000000E+00 -0.00000000000E+00 -0.36202061025E+01  0.36202061025E+01  0.00000000000E+00 0. -1.
         21    1    1    2  502  503  0.24522517104E+02 -0.35660439713E+01  0.88810153536E+03  0.88844718899E+03  0.00000000000E+00 0.  1.
         21    1    1    2  503  501 -0.24522517104E+02  0.35660439713E+01  0.41084311561E+02  0.47979070136E+02  0.00000000000E+00 0. -1.
</event>
<event>
 4    1  0.5548812E+002  0.2344209E+02  0.7546771E-02  0.1487020E+00
          2   -1    0    0  502    0  0.00000000000E+00  0.00000000000E+00  0.17081683809E+01  0.17081683809E+01  0.00000000000E+00 0. -1.
         -2   -1    0    0    0  501 -0.00000000000E+00 -0.00000000000E+00 -0.36566260489E+03  0.36566260489E+03  0.00000000000E+00 0.  1.
         21    1    1    2  502  503  0.10993151514E+02  0.20704646240E+02 -0.11829244756E+03  0.12059284765E+03  0.00000000000E+00 0. -1.
         21    1    1    2  503  501 -0.10993151514E+02 -0.20704646240E+02 -0.24566198895E+03  0.24677792562E+03  0.00000000000E+00 0.  1.
</event>
<event>
 4    1  0.5548812E+002  0.2488692E+02  0.7546771E-02  0.1470072E+00
          2   -1    0    0  503    0  0.00000000000E+00  0.00000000000E+00  0.59083456222E+02  0.59083456222E+02  0.00000000000E+00 0.  1.
         -2   -1    0    0    0  501 -0.00000000000E+00 -0.00000000000E+00 -0.16065518544E+02  0.16065518544E+02  0.00000000000E+00 0. -1.
         21    1    1    2  502  501  0.12172582134E+02 -0.21706839451E+02 -0.64081498513E+00  0.24895165767E+02  0.00000000000E+00 0. -1.
         21    1    1    2  503  502 -0.12172582134E+02  0.21706839451E+02  0.43658752664E+02  0.50253808999E+02  0.00000000000E+00 0.  1.
</event>
<event>
 4    1  0.5548812E+002  0.2262207E+02  0.7546771E-02  0.1497299E+00
          2   -1    0    0  503    0  0.00000000000E+00  0.00000000000E+00  0.16832733862E+03  0.16832733862E+03  0.00000000000E+00 0.  1.
         -2   -1    0    0    0  501 -0.00000000000E+00 -0.00000000000E+00 -0.30533039727E+01  0.30533039727E+01  0.00000000000E+00 0. -1.
         21    1    1    2  502  501  0.22543300234E+02  0.18861689145E+01  0.77035104850E+02  0.80288015282E+02  0.00000000000E+00 0. -1.
         21    1    1    2  503  502 -0.22543300234E+02 -0.18861689145E+01  0.88238929795E+02  0.91092627309E+02  0.00000000000E+00 0.  1.
</event>
<event>
 4    1  0.5548812E+002  0.4729931E+02  0.7546771E-02  0.1310326E+00
          2   -1    0    0  503    0  0.00000000000E+00  0.00000000000E+00  0.63354232294E+01  0.63354232294E+01  0.00000000000E+00 0.  1.
         -2   -1    0    0    0  501 -0.00000000000E+00 -0.00000000000E+00 -0.94699841510E+03  0.94699841510E+03  0.00000000000E+00 0. -1.
         21    1    1    2  502  501  0.36551392482E+02  0.30020337195E+02 -0.84780430905E+03  0.84912270690E+03  0.00000000000E+00 0. -1.
         21    1    1    2  503  502 -0.36551392482E+02 -0.30020337195E+02 -0.92858682824E+02  0.10421113143E+03  0.00000000000E+00 0.  1.
</event>
<event>
 4    1  0.5548812E+002  0.5357213E+02  0.7546771E-02  0.1283386E+00
          2   -1    0    0  503    0  0.00000000000E+00  0.00000000000E+00  0.16675054442E+04  0.16675054442E+04  0.00000000000E+00 0. -1.
         -2   -1    0    0    0  501 -0.00000000000E+00 -0.00000000000E+00 -0.24229606194E+01  0.24229606194E+01  0.00000000000E+00 0.  1.
         21    1    1    2  502  501 -0.52091417713E+02  0.12508308568E+02  0.38316039645E+03  0.38688740351E+03  0.00000000000E+00 0.  1.
         21    1    1    2  503  502  0.52091417713E+02 -0.12508308568E+02  0.12819220871E+04  0.12830410013E+04  0.00000000000E+00 0. -1.
</event>
<event>
 4    1  0.5548812E+002  0.4432929E+02  0.7546771E-02  0.1324827E+00
          2   -1    0    0  502    0  0.00000000000E+00  0.00000000000E+00  0.15016198276E+04  0.15016198276E+04  0.00000000000E+00 0. -1.
         -2   -1    0    0    0  501 -0.00000000000E+00 -0.00000000000E+00 -0.17908513763E+01  0.17908513763E+01  0.00000000000E+00 0.  1.
         21    1    1    2  502  503  0.36296203184E+01  0.44180442244E+02  0.11399775581E+04  0.11408391291E+04  0.00000000000E+00 0. -1.
         21    1    1    2  503  501 -0.36296203184E+01 -0.44180442244E+02  0.35985141817E+03  0.36257154988E+03  0.00000000000E+00 0.  1.
</event>
<event>
 4    1  0.5548812E+002  0.2495926E+02  0.7546771E-02  0.1469260E+00
          2   -1    0    0  503    0  0.00000000000E+00  0.00000000000E+00  0.48045898066E+03  0.48045898066E+03  0.00000000000E+00 0.  1.
         -2   -1    0    0    0  501 -0.00000000000E+00 -0.00000000000E+00 -0.20098502437E+01  0.20098502437E+01  0.00000000000E+00 0. -1.
         21    1    1    2  502  501 -0.23954924410E+02 -0.70090116641E+01  0.95517735306E+02  0.98724882405E+02  0.00000000000E+00 0. -1.
         21    1    1    2  503  502  0.23954924410E+02  0.70090116641E+01  0.38293139511E+03  0.38374394849E+03  0.00000000000E+00 0.  1.
</event>
<event>
 4    1  0.5548812E+002  0.2613838E+02  0.7546771E-02  0.1456461E+00
          2   -1    0    0  502    0  0.00000000000E+00  0.00000000000E+00  0.95411154907E+01  0.95411154907E+01  0.00000000000E+00 0.  1.
         -2   -1    0    0    0  501 -0.00000000000E+00 -0.00000000000E+00 -0.79829196349E+02  0.79829196349E+02  0.00000000000E+00 0. -1.
         21    1    1    2  502  503 -0.84735969642E+01  0.24726767598E+02 -0.20803529415E+02  0.33406611883E+02  0.00000000000E+00 0.  1.
         21    1    1    2  503  501  0.84735969642E+01 -0.24726767598E+02 -0.49484551443E+02  0.55963699957E+02  0.00000000000E+00 0. -1.
</event>
<event>
 4    1  0.5548812E+002  0.3148537E+02  0.7546771E-02  0.1407113E+00
          2   -1    0    0  503    0  0.00000000000E+00  0.00000000000E+00  0.15114068311E+02  0.15114068311E+02  0.00000000000E+00 0.  1.
         -2   -1    0    0    0  501 -0.00000000000E+00 -0.00000000000E+00 -0.69800424443E+02  0.69800424443E+02  0.00000000000E+00 0. -1.
         21    1    1    2  502  501  0.11953733160E+02  0.29127936605E+02 -0.37771082364E+02  0.49172991471E+02  0.00000000000E+00 0.  1.
         21    1    1    2  503  502 -0.11953733160E+02 -0.29127936605E+02 -0.16915273768E+02  0.35741501283E+02  0.00000000000E+00 0. -1.
</event>
<event>
 4    1  0.5548812E+002  0.2991724E+02  0.7546771E-02  0.1420317E+00
          2   -1    0    0  502    0  0.00000000000E+00  0.00000000000E+00  0.10314643082E+04  0.10314643082E+04  0.00000000000E+00 0.  1.
         -2   -1    0    0    0  501 -0.00000000000E+00 -0.00000000000E+00 -0.29938049866E+01  0.29938049866E+01  0.00000000000E+00 0. -1.
         21    1    1    2  502  503 -0.56497687030E+01 -0.29378932219E+02  0.95010783899E+03  0.95057874332E+03  0.00000000000E+00 0.  1.
         21    1    1    2  503  501  0.56497687030E+01  0.29378932219E+02  0.78362664222E+02  0.83879369864E+02  0.00000000000E+00 0. -1.
</event>
<event>
 4    1  0.5548812E+002  0.2567414E+02  0.7546771E-02  0.1461401E+00
          2   -1    0    0  503    0  0.00000000000E+00  0.00000000000E+00  0.83377353875E+02  0.83377353875E+02  0.00000000000E+00 0. -1.
         -2   -1    0    0    0  501 -0.00000000000E+00 -0.00000000000E+00 -0.13235864639E+02  0.13235864639E+02  0.00000000000E+00 0.  1.
         21    1    1    2  502  501  0.25650887792E+02 -0.10924989748E+01  0.44159689959E+01  0.26051149316E+02  0.00000000000E+00 0.  1.
         21    1    1    2  503  502 -0.25650887792E+02  0.10924989748E+01  0.65725520240E+02  0.70562069197E+02  0.00000000000E+00 0. -1.
</event>
<event>
 4    1  0.5548812E+002  0.3922366E+02  0.7546771E-02  0.1353096E+00
          2   -1    0    0  502    0  0.00000000000E+00  0.00000000000E+00  0.84672404171E+03  0.84672404171E+03  0.00000000000E+00 0. -1.
         -2   -1    0    0    0  501 -0.00000000000E+00 -0.00000000000E+00 -0.47125356670E+01  0.47125356670E+01  0.00000000000E+00 0.  1.
         21    1    1    2  502  503 -0.16393020769E+02 -0.35633751681E+02  0.75470838840E+03  0.75572696585E+03  0.00000000000E+00 0. -1.
         21    1    1    2  503  501  0.16393020769E+02  0.35633751681E+02  0.87303117640E+02  0.95709611525E+02  0.00000000000E+00 0.  1.
</event>
<event>
 4    1  0.5548812E+002  0.3715019E+02  0.7546771E-02  0.1366047E+00
          2   -1    0    0  502    0  0.00000000000E+00  0.00000000000E+00  0.30664414179E+03  0.30664414179E+03  0.00000000000E+00 0.  1.
         -2   -1    0    0    0  501 -0.00000000000E+00 -0.00000000000E+00 -0.84175645173E+01  0.84175645173E+01  0.00000000000E+00 0. -1.
         21    1    1    2  502  503 -0.25263568253E+02 -0.27237630654E+02  0.25657097703E+03  0.25924660588E+03  0.00000000000E+00 0.  1.
         21    1    1    2  503  501  0.25263568253E+02  0.27237630654E+02  0.41655600244E+02  0.55815100432E+02  0.00000000000E+00 0. -1.
</event>
<event>
 4    1  0.5548812E+002  0.2270099E+02  0.7546771E-02  0.1496287E+00
          2   -1    0    0  503    0  0.00000000000E+00  0.00000000000E+00  0.30399788478E+01  0.30399788478E+01  0.00000000000E+00 0.  1.
         -2   -1    0    0    0  501 -0.00000000000E+00 -0.00000000000E+00 -0.30203697621E+03  0.30203697621E+03  0.00000000000E+00 0. -1.
         21    1    1    2  502  501 -0.10701862805E+02  0.20020115869E+02 -0.25053687373E+03  0.25156323262E+03  0.00000000000E+00 0. -1.
         21    1    1    2  503  502  0.10701862805E+02 -0.20020115869E+02 -0.48460123633E+02  0.53513722441E+02  0.00000000000E+00 0.  1.
</event>
<event>
 4    1  0.5548812E+002  0.2226445E+02  0.7546771E-02  0.1501947E+00
          2   -1    0    0  503    0  0.00000000000E+00  0.00000000000E+00  0.36383494613E+03  0.36383494613E+03  0.00000000000E+00 0. -1.
         -2   -1    0    0    0  501 -0.00000000000E+00 -0.00000000000E+00 -0.52954617189E+01  0.52954617189E+01  0.00000000000E+00 0.  1.
         21    1    1    2  502  501  0.10822793800E+02 -0.19456953769E+02  0.20209850130E+02  0.30068986645E+02  0.00000000000E+00 0.  1.
         21    1    1    2  503  502 -0.10822793800E+02  0.19456953769E+02  0.33832963428E+03  0.33906142120E+03  0.00000000000E+00 0. -1.
</event>
<event>
 4    1  0.5548812E+002  0.2739076E+02  0.7546771E-02  0.1443722E+00
          2   -1    0    0  503    0  0.00000000000E+00  0.00000000000E+00  0.13823485305E+04  0.13823485305E+04  0.00000000000E+00 0. -1.
         -2   -1    0    0    0  501 -0.00000000000E+00 -0.00000000000E+00 -0.67205791347E+00  0.67205791347E+00  0.00000000000E+00 0.  1.
         21    1    1    2  502  501  0.21651501705E+02  0.16776952746E+02  0.38749991246E+03  0.38846677570E+03  0.00000000000E+00 0.  1.
         21    1    1    2  503  502 -0.21651501705E+02 -0.16776952746E+02  0.99417656015E+03  0.99455381273E+03  0.00000000000E+00 0. -1.
</event>
<event>
 4    1  0.5548812E+002  0.3006979E+02  0.7546771E-02  0.1418991E+00
          2   -1    0    0  503    0  0.00000000000E+00  0.00000000000E+00  0.35882810174E+02  0.35882810174E+02  0.00000000000E+00 0. -1.
         -2   -1    0    0    0  501 -0.00000000000E+00 -0.00000000000E+00 -0.31389007227E+02  0.31389007227E+02  0.00000000000E+00 0.  1.
         21    1    1    2  502  501 -0.17129768463E+02  0.24713628398E+02 -0.12690603919E+02  0.32638073227E+02  0.00000000000E+00 0.  1.
         21    1    1    2  503  502  0.17129768463E+02 -0.24713628398E+02  0.17184406866E+02  0.34633744174E+02  0.00000000000E+00 0. -1.
</event>
<event>
 4    1  0.5548812E+002  0.2436588E+02  0.7546771E-02  0.1476024E+00
          2   -1    0    0  503    0  0.00000000000E+00  0.00000000000E+00  0.18486296510E+03  0.18486296510E+03  0.00000000000E+00 0.  1.
         -2   -1    0    0    0  501 -0.00000000000E+00 -0.00000000000E+00 -0.56087789155E+01  0.56087789155E+01  0.00000000000E+00 0. -1.
         21    1    1    2  502  501 -0.10133060948E+02 -0.22158909680E+02  0.27365335286E+02  0.36640930361E+02  0.00000000000E+00 0. -1.
         21    1    1    2  503  502  0.10133060948E+02  0.22158909680E+02  0.15188885090E+03  0.15383081365E+03  0.00000000000E+00 0.  1.
</event>
<event>
 4    1  0.5548812E+002  0.3368496E+02  0.7546771E-02  0.1390052E+00
          2   -1    0    0  503    0  0.00000000000E+00  0.00000000000E+00  0.11094172254E+04  0.11094172254E+04  0.00000000000E+00 0.  1.
         -2   -1    0    0    0  501 -0.00000000000E+00 -0.00000000000E+00 -0.10232412906E+01  0.10232412906E+01  0.00000000000E+00 0. -1.
         21    1    1    2  502  501 -0.26477743941E+02 -0.20823205122E+02  0.54226008826E+03  0.54330532863E+03  0.00000000000E+00 0. -1.
         21    1    1    2  503  502  0.26477743941E+02  0.20823205122E+02  0.56613389584E+03  0.56713513806E+03  0.00000000000E+00 0.  1.
</event>
<event>
 4    1  0.5548812E+002  0.4734729E+02  0.7546771E-02  0.1310102E+00
          2   -1    0    0  503    0  0.00000000000E+00  0.00000000000E+00  0.60654296319E+03  0.60654296319E+03  0.00000000000E+00 0.  1.
         -2   -1    0    0    0  501 -0.00000000000E+00 -0.00000000000E+00 -0.46288087150E+01  0.46288087150E+01  0.00000000000E+00 0. -1.
         21    1    1    2  502  501 -0.41644251020E+01  0.47163798074E+02  0.43814039666E+03  0.44069124506E+03  0.00000000000E+00 0.  1.
         21    1    1    2  503  502  0.41644251020E+01 -0.47163798074E+02  0.16377375781E+03  0.17048052685E+03  0.00000000000E+00 0. -1.
</event>
<event>
 4    1  0.5548812E+002  0.2832292E+02  0.7546771E-02  0.1434753E+00
          2   -1    0    0  502    0  0.00000000000E+00  0.00000000000E+00  0.64716492799E+02  0.64716492799E+02  0.00000000000E+00 0. -1.
         -2   -1    0    0    0  501 -0.00000000000E+00 -0.00000000000E+00 -0.14917734511E+02  0.14917734511E+02  0.00000000000E+00 0.  1.
         21    1    1    2  502  503 -0.19704065610E+02 -0.20345449580E+02  0.41272020196E+02  0.50055640754E+02  0.00000000000E+00 0. -1.
         21    1    1    2  503  501  0.19704065610E+02  0.20345449580E+02  0.85267380919E+01  0.29578586556E+02  0.00000000000E+00 0.  1.
</event>
<event>
 4    1  0.5548812E+002  0.4886158E+02  0.7546771E-02  0.1303185E+00
          2   -1    0    0  502    0  0.00000000000E+00  0.00000000000E+00  0.45691603886E+02  0.45691603886E+02  0.00000000000E+00 0. -1.
         -2   -1    0    0    0  501 -0.00000000000E+00 -0.00000000000E+00 -0.25015515195E+03  0.25015515195E+03  0.00000000000E+00 0.  1.
         21    1    1    2  502  503 -0.44493359783E+02  0.20193936408E+02  0.29338873176E+02  0.56993189169E+02  0.00000000000E+00 0. -1.
         21    1    1    2  503  501  0.44493359783E+02 -0.20193936408E+02 -0.23380242124E+03  0.23885356667E+03  0.00000000000E+00 0.  1.
</event>
<event>
 4    1  0.5548812E+002  0.2133669E+02  0.7546771E-02  0.1514512E+00
          2   -1    0    0  502    0  0.00000000000E+00  0.00000000000E+00  0.24922575147E+02  0.24922575147E+02  0.00000000000E+00 0.  1.
         -2   -1    0    0    0  501 -0.00000000000E+00 -0.00000000000E+00 -0.19337928300E+02  0.19337928300E+02  0.00000000000E+00 0. -1.
         21    1    1    2  502  503 -0.11261901795E+02 -0.18122474313E+02 -0.24161660986E+01  0.21473061400E+02  0.00000000000E+00 0. -1.
         21    1    1    2  503  501  0.11261901795E+02  0.18122474313E+02  0.80008129448E+01  0.22787442047E+02  0.00000000000E+00 0.  1.
</event>
<event>
 4    1  0.5548812E+002  0.1737992E+03  0.7546771E-02  0.1075447E+00
          2   -1    0    0  503    0  0.00000000000E+00  0.00000000000E+00  0.18237885976E+04  0.18237885976E+04  0.00000000000E+00 0. -1.
         -2   -1    0    0    0  501 -0.00000000000E+00 -0.00000000000E+00 -0.26408455147E+02  0.26408455147E+02  0.00000000000E+00 0.  1.
         21    1    1    2  502  501 -0.16786318952E+03  0.45034393653E+02  0.14635615794E+04  0.14738448506E+04  0.00000000000E+00 0. -1.
         21    1    1    2  503  502  0.16786318952E+03 -0.45034393653E+02  0.33381856305E+03  0.37635220212E+03  0.00000000000E+00 0.  1.
</event>
<event>
 4    1  0.5548812E+002  0.2506379E+02  0.7546771E-02  0.1468091E+00
          2   -1    0    0  502    0  0.00000000000E+00  0.00000000000E+00  0.13418630426E+04  0.13418630426E+04  0.00000000000E+00 0.  1.
         -2   -1    0    0    0  501 -0.00000000000E+00 -0.00000000000E+00 -0.70958816873E+00  0.70958816873E+00  0.00000000000E+00 0. -1.
         21    1    1    2  502  503  0.20539457926E+02 -0.14363986732E+02  0.10621449129E+04  0.10624405910E+04  0.00000000000E+00 0.  1.
         21    1    1    2  503  501 -0.20539457926E+02  0.14363986732E+02  0.27900854159E+03  0.28013203981E+03  0.00000000000E+00 0. -1.
</event>
<event>
 4    1  0.5548812E+002  0.2004437E+02  0.7546771E-02  0.1533358E+00
          2   -1    0    0  503    0  0.00000000000E+00  0.00000000000E+00  0.47909157814E+02  0.47909157814E+02  0.00000000000E+00 0.  1.
         -2   -1    0    0    0  501 -0.00000000000E+00 -0.00000000000E+00 -0.13261596353E+02  0.13261596353E+02  0.00000000000E+00 0. -1.
         21    1    1    2  502  501  0.19169929615E+02  0.58558310009E+01 -0.12209189577E+01  0.20081523878E+02  0.00000000000E+00 0. -1.
         21    1    1    2  503  502 -0.19169929615E+02 -0.58558310009E+01  0.35868480419E+02  0.41089230289E+02  0.00000000000E+00 0.  1.
</event>
<event>
 4    1  0.5548812E+002  0.3017766E+02  0.7546771E-02  0.1418059E+00
          2   -1    0    0  502    0  0.00000000000E+00  0.00000000000E+00  0.39917209670E+03  0.39917209670E+03  0.00000000000E+00 0.  1.
         -2   -1    0    0    0  501 -0.00000000000E+00 -0.00000000000E+00 -0.24995019879E+02  0.24995019879E+02  0.00000000000E+00 0. -1.
         21    1    1    2  502  503  0.14689895332E+02 -0.26360920838E+02  0.38926144595E+03  0.39042946158E+03  0.00000000000E+00 0.  1.
         21    1    1    2  503  501 -0.14689895332E+02  0.26360920838E+02 -0.15084369129E+02  0.33737654991E+02  0.00000000000E+00 0. -1.
</event>
<event>
 4    1  0.5548812E+002  0.2003529E+02  0.7546771E-02  0.1533497E+00
          2   -1    0    0  502    0  0.00000000000E+00  0.00000000000E+00  0.14402980215E+01  0.14402980215E+01  0.00000000000E+00 0. -1.
         -2   -1    0    0    0  501 -0.00000000000E+00 -0.00000000000E+00 -0.28215096500E+03  0.28215096500E+03  0.00000000000E+00 0.  1.
         21    1    1    2  502  503  0.10166698021E+02 -0.17264154490E+02 -0.12467637579E+03  0.12627593381E+03  0.00000000000E+00 0.  1.
         21    1    1    2  503  501 -0.10166698021E+02  0.17264154490E+02 -0.15603429118E+03  0.15731532921E+03  0.00000000000E+00 0. -1.
</event>
<event>
 4    1  0.5548812E+002  0.3130517E+02  0.7546771E-02  0.1408584E+00
          2   -1    0    0  503    0  0.00000000000E+00  0.00000000000E+00  0.99112170183E+01  0.99112170183E+01  0.00000000000E+00 0.  1.
         -2   -1    0    0    0  501 -0.00000000000E+00 -0.00000000000E+00 -0.11560035055E+03  0.11560035055E+03  0.00000000000E+00 0. -1.
         21    1    1    2  502  501  0.26487423480E+02 -0.16686231984E+02 -0.76712032282E+02  0.82853785896E+02  0.00000000000E+00 0.  1.
         21    1    1    2  503  502 -0.26487423480E+02  0.16686231984E+02 -0.28977101253E+02  0.42657781675E+02  0.00000000000E+00 0. -1.
</event>
<event>
 4    1  0.5548812E+002  0.2487127E+02  0.7546771E-02  0.1470249E+00
          2   -1    0    0  502    0  0.00000000000E+00  0.00000000000E+00  0.39162339197E+03  0.39162339197E+03  0.00000000000E+00 0.  1.
         -2   -1    0    0    0  501 -0.00000000000E+00 -0.00000000000E+00 -0.15799576631E+01  0.15799576631E+01  0.00000000000E+00 0. -1.
         21    1    1    2  502  503  0.19991979902E+02 -0.14795296063E+02  0.19826447908E+03  0.19981837681E+03  0.00000000000E+00 0. -1.
         21    1    1    2  503  501 -0.19991979902E+02  0.14795296063E+02  0.19177895523E+03  0.19338497283E+03  0.00000000000E+00 0.  1.
</event>
<event>
 4    1  0.5548812E+002  0.2933111E+02  0.7546771E-02  0.1425500E+00
          2   -1    0    0  502    0  0.00000000000E+00  0.00000000000E+00  0.15226807453E+03  0.15226807453E+03  0.00000000000E+00 0.  1.
         -2   -1    0    0    0  501 -0.00000000000E+00 -0.00000000000E+00 -0.74670563653E+01  0.74670563653E+01  0.00000000000E+00 0. -1.
         21    1    1    2  502  503 -0.10896078419E+02  0.27232137516E+02  0.11179908691E+03  0.11558265299E+03  0.00000000000E+00 0.  1.
         21    1    1    2  503  501  0.10896078419E+02 -0.27232137516E+02  0.33001931259E+02  0.44152477909E+02  0.00000000000E+00 0. -1.
</event>
<event>
 4    1  0.5548812E+002  0.2217988E+02  0.7546771E-02  0.1503061E+00
          2   -1    0    0  502    0  0.00000000000E+00  0.00000000000E+00  0.79686473962E+02  0.79686473962E+02  0.00000000000E+00 0.  1.
         -2   -1    0    0    0  501 -0.00000000000E+00 -0.00000000000E+00 -0.94457375286E+01  0.94457375286E+01  0.00000000000E+00 0. -1.
         21    1    1    2  502  503  0.78567890312E+01  0.20741691402E+02  0.61350901532E+02  0.65237106120E+02  0.00000000000E+00 0.  1.
         21    1    1    2  503  501 -0.78567890312E+01 -0.20741691402E+02  0.88898349017E+01  0.23895105371E+02  0.00000000000E+00 0. -1.
</event>
<event>
 4    1  0.5548812E+002  0.3834592E+02  0.7546771E-02  0.1358461E+00
          2   -1    0    0  502    0  0.00000000000E+00  0.00000000000E+00  0.14984046077E+04  0.14984046077E+04  0.00000000000E+00 0. -1.
         -2   -1    0    0    0  501 -0.00000000000E+00 -0.00000000000E+00 -0.20726582449E+01  0.20726582449E+01  0.00000000000E+00 0.  1.
         21    1    1    2  502  503 -0.38180791746E+02  0.35548049550E+01  0.12925632147E+04  0.12931318856E+04  0.00000000000E+00 0. -1.
         21    1    1    2  503  501  0.38180791746E+02 -0.35548049550E+01  0.20376873474E+03  0.20734538035E+03  0.00000000000E+00 0.  1.
</event>
<event>
 4    1  0.5548812E+002  0.2393879E+02  0.7546771E-02  0.1481035E+00
          2   -1    0    0  502    0  0.00000000000E+00  0.00000000000E+00  0.98958762626E+02  0.98958762626E+02  0.00000000000E+00 0.  1.
         -2   -1    0    0    0  501 -0.00000000000E+00 -0.00000000000E+00 -0.57648240978E+02  0.57648240978E+02  0.00000000000E+00 0. -1.
         21    1    1    2  502  503  0.21803428709E+02  0.98831303455E+01  0.94921775859E+02  0.97893867536E+02  0.00000000000E+00 0.  1.
         21    1    1    2  503  501 -0.21803428709E+02 -0.98831303455E+01 -0.53611254210E+02  0.58713136068E+02  0.00000000000E+00 0. -1.
</event>
<event>
 4    1  0.5548812E+002  0.4625024E+02  0.7546771E-02  0.1315303E+00
          2   -1    0    0  502    0  0.00000000000E+00  0.00000000000E+00  0.43497277717E+02  0.43497277717E+02  0.00000000000E+00 0. -1.
         -2   -1    0    0    0  501 -0.00000000000E+00 -0.00000000000E+00 -0.88871445494E+02  0.88871445494E+02  0.00000000000E+00 0.  1.
         21    1    1    2  502  503  0.38805949264E+02  0.25163128823E+02  0.21544931364E+02  0.51022238465E+02  0.00000000000E+00 0. -1.
         21    1    1    2  503  501 -0.38805949264E+02 -0.25163128823E+02 -0.66919099141E+02  0.81346484745E+02  0.00000000000E+00 0.  1.
</event>
<event>
 4    1  0.5548812E+002  0.3301894E+02  0.7546771E-02  0.1395052E+00
          2   -1    0    0  503    0  0.00000000000E+00  0.00000000000E+00  0.24956833306E+02  0.24956833306E+02  0.00000000000E+00 0. -1.
         -2   -1    0    0    0  501 -0.00000000000E+00 -0.00000000000E+00 -0.78056391036E+02  0.78056391036E+02  0.00000000000E+00 0.  1.
         21    1    1    2  502  501 -0.22862623278E+02 -0.23823327601E+02 -0.60728394328E+02  0.69124441110E+02  0.00000000000E+00 0.  1.
         21    1    1    2  503  502  0.22862623278E+02  0.23823327601E+02  0.76288365973E+01  0.33888783232E+02  0.00000000000E+00 0. -1.
</event>
<event>
 4    1  0.5548812E+002  0.2215603E+02  0.7546771E-02  0.1503377E+00
          2   -1    0    0  502    0  0.00000000000E+00  0.00000000000E+00  0.13837784681E+03  0.13837784681E+03  0.00000000000E+00 0. -1.
         -2   -1    0    0    0  501 -0.00000000000E+00 -0.00000000000E+00 -0.35124299669E+02  0.35124299669E+02  0.00000000000E+00 0.  1.
         21    1    1    2  502  503 -0.56191914443E+01  0.21431617029E+02  0.13388045943E+03  0.13570138886E+03  0.00000000000E+00 0. -1.
         21    1    1    2  503  501  0.56191914443E+01 -0.21431617029E+02 -0.30626912285E+02  0.37800757625E+02  0.00000000000E+00 0.  1.
</event>
<event>
 4    1  0.5548812E+002  0.3273466E+02  0.7546771E-02  0.1397229E+00
          2   -1    0    0  503    0  0.00000000000E+00  0.00000000000E+00  0.25025425036E+03  0.25025425036E+03  0.00000000000E+00 0. -1.
         -2   -1    0    0    0  501 -0.00000000000E+00 -0.00000000000E+00 -0.60453296637E+01  0.60453296637E+01  0.00000000000E+00 0.  1.
         21    1    1    2  502  501 -0.16761800669E+02  0.28117607346E+02  0.52891111329E+02  0.62201506912E+02  0.00000000000E+00 0.  1.
         21    1    1    2  503  502  0.16761800669E+02 -0.28117607346E+02  0.19131780937E+03  0.19409807311E+03  0.00000000000E+00 0. -1.
</event>
<event>
 4    1  0.5548812E+002  0.4627044E+02  0.7546771E-02  0.1315206E+00
          2   -1    0    0  503    0  0.00000000000E+00  0.00000000000E+00  0.25751937922E+03  0.25751937922E+03  0.00000000000E+00 0. -1.
         -2   -1    0    0    0  501 -0.00000000000E+00 -0.00000000000E+00 -0.15802507890E+02  0.15802507890E+02  0.00000000000E+00 0.  1.
         21    1    1    2  502  501  0.33635534227E+02 -0.31774273673E+02  0.26780866106E+02  0.53461840779E+02  0.00000000000E+00 0.  1.
         21    1    1    2  503  502 -0.33635534227E+02  0.31774273673E+02  0.21493600522E+03  0.21986004633E+03  0.00000000000E+00 0. -1.
</event>
<event>
 4    1  0.5548812E+002  0.2499132E+02  0.7546771E-02  0.1468901E+00
          2   -1    0    0  503    0  0.00000000000E+00  0.00000000000E+00  0.22854162835E+02  0.22854162835E+02  0.00000000000E+00 0. -1.
         -2   -1    0    0    0  501 -0.00000000000E+00 -0.00000000000E+00 -0.32489809568E+02  0.32489809568E+02  0.00000000000E+00 0.  1.
         21    1    1    2  502  501 -0.18550760956E+02  0.16746196752E+02  0.62116390633E+01  0.25751704750E+02  0.00000000000E+00 0. -1.
         21    1    1    2  503  502  0.18550760956E+02 -0.16746196752E+02 -0.15847285796E+02  0.29592267652E+02  0.00000000000E+00 0.  1.
</event>
<event>
 4    1  0.5548812E+002  0.3450169E+02  0.7546771E-02  0.1384101E+00
          2   -1    0    0  503    0  0.00000000000E+00  0.00000000000E+00  0.39958466208E+03  0.39958466208E+03  0.00000000000E+00 0. -1.
         -2   -1    0    0    0  501 -0.00000000000E+00 -0.00000000000E+00 -0.28890305239E+03  0.28890305239E+03  0.00000000000E+00 0.  1.
         21    1    1    2  502  501  0.31485038398E+02  0.14108814194E+02 -0.28712362699E+03  0.28918911365E+03  0.00000000000E+00 0.  1.
         21    1    1    2  503  502 -0.31485038398E+02 -0.14108814194E+02  0.39780523668E+03  0.39929860081E+03  0.00000000000E+00 0. -1.
</event>
<event>
 4    1  0.5548812E+002  0.3571720E+02  0.7546771E-02  0.1375590E+00
          2   -1    0    0  502    0  0.00000000000E+00  0.00000000000E+00  0.81924259531E+03  0.81924259531E+03  0.00000000000E+00 0. -1.
         -2   -1    0    0    0  501 -0.00000000000E+00 -0.00000000000E+00 -0.21085900320E+01  0.21085900320E+01  0.00000000000E+00 0.  1.
         21    1    1    2  502  503 -0.50742186293E+01 -0.35354925135E+02  0.61857470648E+03  0.61960502412E+03  0.00000000000E+00 0. -1.
         21    1    1    2  503  501  0.50742186293E+01  0.35354925135E+02  0.19855929880E+03  0.20174616122E+03  0.00000000000E+00 0.  1.
</event>
<event>
 4    1  0.5548812E+002  0.3346284E+02  0.7546771E-02  0.1391704E+00
          2   -1    0    0  503    0  0.00000000000E+00  0.00000000000E+00  0.35836683314E+03  0.35836683314E+03  0.00000000000E+00 0.  1.
         -2   -1    0    0    0  501 -0.00000000000E+00 -0.00000000000E+00 -0.32310007215E+01  0.32310007215E+01  0.00000000000E+00 0. -1.
         21    1    1    2  502  501  0.81985450598E+01  0.32442961729E+02  0.21037358481E+03  0.21301832572E+03  0.00000000000E+00 0.  1.
         21    1    1    2  503  502 -0.81985450598E+01 -0.32442961729E+02  0.14476224761E+03  0.14857950814E+03  0.00000000000E+00 0. -1.
</event>
<event>
 4    1  0.5548812E+002  0.2037673E+02  0.7546771E-02  0.1528353E+00
          2   -1    0    0  503    0  0.00000000000E+00  0.00000000000E+00  0.10938540438E+04  0.10938540438E+04  0.00000000000E+00 0.  1.
         -2   -1    0    0    0  501 -0.00000000000E+00 -0.00000000000E+00 -0.38023895921E+00  0.38023895921E+00  0.00000000000E+00 0. -1.
         21    1    1    2  502  501 -0.18880061878E+02 -0.76651287518E+01  0.52405279725E+03  0.52444880136E+03  0.00000000000E+00 0.  1.
         21    1    1    2  503  502  0.18880061878E+02  0.76651287518E+01  0.56942100755E+03  0.56978548137E+03  0.00000000000E+00 0. -1.
</event>
<event>
 4    1  0.5548812E+002  0.2199196E+02  0.7546771E-02  0.1505560E+00
          2   -1    0    0  503    0  0.00000000000E+00  0.00000000000E+00  0.10326806823E+04  0.10326806823E+04  0.00000000000E+00 0.  1.
         -2   -1    0    0    0  501 -0.00000000000E+00 -0.00000000000E+00 -0.52033182700E+00  0.52033182700E+00  0.00000000000E+00 0. -1.
         21    1    1    2  502  501  0.19816382293E+02  0.95371449972E+01  0.67937794987E+03  0.67973380445E+03  0.00000000000E+00 0. -1.
         21    1    1    2  503  502 -0.19816382293E+02 -0.95371449972E+01  0.35278240057E+03  0.35346720964E+03  0.00000000000E+00 0.  1.
</event>
<event>
 4    1  0.5548812E+002  0.3928952E+02  0.7546771E-02  0.1352700E+00
          2   -1    0    0  503    0  0.00000000000E+00  0.00000000000E+00  0.33558039430E+03  0.33558039430E+03  0.00000000000E+00 0. -1.
         -2   -1    0    0    0  501 -0.00000000000E+00 -0.00000000000E+00 -0.12017968994E+02  0.12017968994E+02  0.00000000000E+00 0.  1.
         21    1    1    2  502  501  0.25255614146E+02  0.30096849754E+02  0.25236467485E+02  0.46696313582E+02  0.00000000000E+00 0.  1.
         21    1    1    2  503  502 -0.25255614146E+02 -0.30096849754E+02  0.29832595782E+03  0.30090204971E+03  0.00000000000E+00 0. -1.
</event>
<event>
 4    1  0.5548812E+002  0.2675153E+02  0.7546771E-02  0.1450120E+00
          2   -1    0    0  503    0  0.00000000000E+00  0.00000000000E+00  0.18518695819E+03  0.18518695819E+03  0.00000000000E+00 0.  1.
         -2   -1    0    0    0  501 -0.00000000000E+00 -0.00000000000E+00 -0.14831805040E+02  0.14831805040E+02  0.00000000000E+00 0. -1.
         21    1    1    2  502  501  0.24633883495E+02  0.10431491012E+02 -0.82171065239E+00  0.26764144469E+02  0.00000000000E+00 0. -1.
         21    1    1    2  503  502 -0.24633883495E+02 -0.10431491012E+02  0.17117686381E+03  0.17325461877E+03  0.00000000000E+00 0.  1.
</event>
<event>
 4    1  0.5548812E+002  0.2456387E+02  0.7546771E-02  0.1473742E+00
          2   -1    0    0  502    0  0.00000000000E+00  0.00000000000E+00  0.24848562360E+03  0.24848562360E+03  0.00000000000E+00 0. -1.
         -2   -1    0    0    0  501 -0.00000000000E+00 -0.00000000000E+00 -0.59168697750E+01  0.59168697750E+01  0.00000000000E+00 0.  1.
         21    1    1    2  502  503 -0.66229478400E+01 -0.23654185386E+02  0.23611831723E+02  0.34072019630E+02  0.00000000000E+00 0.  1.
         21    1    1    2  503  501  0.66229478400E+01  0.23654185386E+02  0.21895692210E+03  0.22033047374E+03  0.00000000000E+00 0. -1.
</event>
<event>
 4    1  0.5548812E+002  0.4051848E+02  0.7546771E-02  0.1345474E+00
          2   -1    0    0  502    0  0.00000000000E+00  0.00000000000E+00  0.43187668496E+03  0.43187668496E+03  0.00000000000E+00 0. -1.
         -2   -1    0    0    0  501 -0.00000000000E+00 -0.00000000000E+00 -0.48668788508E+01  0.48668788508E+01  0.00000000000E+00 0.  1.
         21    1    1    2  502  503 -0.63725622078E+01  0.40014219610E+02  0.31567841919E+03  0.31826814428E+03  0.00000000000E+00 0. -1.
         21    1    1    2  503  501  0.63725622078E+01 -0.40014219610E+02  0.11133138692E+03  0.11847541953E+03  0.00000000000E+00 0.  1.
</event>
<event>
 4    1  0.5548812E+002  0.2304260E+02  0.7546771E-02  0.1491964E+00
          2   -1    0    0  503    0  0.00000000000E+00  0.00000000000E+00  0.32954704440E+01  0.32954704440E+01  0.00000000000E+00 0. -1.
         -2   -1    0    0    0  501 -0.00000000000E+00 -0.00000000000E+00 -0.19390931461E+03  0.19390931461E+03  0.00000000000E+00 0.  1.
         21    1    1    2  502  501  0.18951695950E+02  0.13107042409E+02 -0.13585441893E+03  0.13779471863E+03  0.00000000000E+00 0.  1.
         21    1    1    2  503  502 -0.18951695950E+02 -0.13107042409E+02 -0.54759425239E+02  0.59410066424E+02  0.00000000000E+00 0. -1.
</event>
<event>
 4    1  0.5548812E+002  0.3283406E+02  0.7546771E-02  0.1396465E+00
          2   -1    0    0  502    0  0.00000000000E+00  0.00000000000E+00  0.69020852509E+03  0.69020852509E+03  0.00000000000E+00 0.  1.
         -2   -1    0    0    0  501 -0.00000000000E+00 -0.00000000000E+00 -0.16290755024E+01  0.16290755024E+01  0.00000000000E+00 0. -1.
         21    1    1    2  502  503  0.99533628582E+01  0.31289073295E+02  0.41450425912E+03  0.41580266518E+03  0.00000000000E+00 0.  1.
         21    1    1    2  503  501 -0.99533628582E+01 -0.31289073295E+02  0.27407519046E+03  0.27603493541E+03  0.00000000000E+00 0. -1.
</event>
<event>
 4    1  0.5548812E+002  0.2269645E+02  0.7546771E-02  0.1496345E+00
          2   -1    0    0  502    0  0.00000000000E+00  0.00000000000E+00  0.32578638066E+02  0.32578638066E+02  0.00000000000E+00 0.  1.
         -2   -1    0    0    0  501 -0.00000000000E+00 -0.00000000000E+00 -0.17171696812E+02  0.17171696812E+02  0.00000000000E+00 0. -1.
         21    1    1    2  502  503 -0.17025402563E+02 -0.15008811701E+02  0.14703555546E+02  0.27042989975E+02  0.00000000000E+00 0.  1.
         21    1    1    2  503  501  0.17025402563E+02  0.15008811701E+02  0.70338570819E+00  0.22707344904E+02  0.00000000000E+00 0. -1.
</event>
<event>
 4    1  0.5548812E+002  0.3103143E+02  0.7546771E-02  0.1410840E+00
          2   -1    0    0  503    0  0.00000000000E+00  0.00000000000E+00  0.95006963454E+03  0.95006963454E+03  0.00000000000E+00 0.  1.
         -2   -1    0    0    0  501 -0.00000000000E+00 -0.00000000000E+00 -0.10322230818E+01  0.10322230818E+01  0.00000000000E+00 0. -1.
         21    1    1    2  502  501  0.18829603694E+02  0.24665674300E+02  0.41056877565E+03  0.41173980741E+03  0.00000000000E+00 0.  1.
         21    1    1    2  503  502 -0.18829603694E+02 -0.24665674300E+02  0.53846863581E+03  0.53936205021E+03  0.00000000000E+00 0. -1.
</event>
<event>
 4    1  0.5548812E+002  0.2970024E+02  0.7546771E-02  0.1422220E+00
          2   -1    0    0  503    0  0.00000000000E+00  0.00000000000E+00  0.64445220900E+03  0.64445220900E+03  0.00000000000E+00 0.  1.
         -2   -1    0    0    0  501 -0.00000000000E+00 -0.00000000000E+00 -0.29716698124E+02  0.29716698124E+02  0.00000000000E+00 0. -1.
         21    1    1    2  502  501 -0.30265955451E+01 -0.29545626608E+02 -0.21862044675E+02  0.36878900873E+02  0.00000000000E+00 0. -1.
         21    1    1    2  503  502  0.30265955451E+01  0.29545626608E+02  0.63659755555E+03  0.63729000625E+03  0.00000000000E+00 0.  1.
</event>
<event>
 4    1  0.5548812E+002  0.2062779E+02  0.7546771E-02  0.1524646E+00
          2   -1    0    0  503    0  0.00000000000E+00  0.00000000000E+00  0.51846494978E+03  0.51846494978E+03  0.00000000000E+00 0. -1.
         -2   -1    0    0    0  501 -0.00000000000E+00 -0.00000000000E+00 -0.12394267525E+01  0.12394267525E+01  0.00000000000E+00 0.  1.
         21    1    1    2  502  501 -0.19390459531E+02  0.70367520642E+01  0.10757703694E+03  0.10953686446E+03  0.00000000000E+00 0.  1.
         21    1    1    2  503  502  0.19390459531E+02 -0.70367520642E+01  0.40964848609E+03  0.41016751207E+03  0.00000000000E+00 0. -1.
</event>
<event>
 4    1  0.5548812E+002  0.2984312E+02  0.7546771E-02  0.1420965E+00
          2   -1    0    0  503    0  0.00000000000E+00  0.00000000000E+00  0.16606471924E+04  0.16606471924E+04  0.00000000000E+00 0.  1.
         -2   -1    0    0    0  501 -0.00000000000E+00 -0.00000000000E+00 -0.54591171522E+00  0.54591171522E+00  0.00000000000E+00 0. -1.
         21    1    1    2  502  501 -0.28235640033E+02 -0.96623065190E+01  0.71986077484E+03  0.72047910913E+03  0.00000000000E+00 0. -1.
         21    1    1    2  503  502  0.28235640033E+02  0.96623065190E+01  0.94024050589E+03  0.94071399503E+03  0.00000000000E+00 0.  1.
</event>
<event>
 4    1  0.5548812E+002  0.2193666E+02  0.7546771E-02  0.1506300E+00
          2   -1    0    0  503    0  0.00000000000E+00  0.00000000000E+00  0.53816457485E+03  0.53816457485E+03  0.00000000000E+00 0. -1.
         -2   -1    0    0    0  501 -0.00000000000E+00 -0.00000000000E+00 -0.11781930353E+01  0.11781930353E+01  0.00000000000E+00 0.  1.
         21    1    1    2  502  501 -0.69619940989E+00  0.21925613912E+02  0.40089502892E+03  0.40149475893E+03  0.00000000000E+00 0. -1.
         21    1    1    2  503  502  0.69619940989E+00 -0.21925613912E+02  0.13609135290E+03  0.13784800895E+03  0.00000000000E+00 0.  1.
</event>
<event>
 4    1  0.5548812E+002  0.2390206E+02  0.7546771E-02  0.1481471E+00
          2   -1    0    0  502    0  0.00000000000E+00  0.00000000000E+00  0.36975292117E+03  0.36975292117E+03  0.00000000000E+00 0. -1.
         -2   -1    0    0    0  501 -0.00000000000E+00 -0.00000000000E+00 -0.15935240498E+01  0.15935240498E+01  0.00000000000E+00 0.  1.
         21    1    1    2  502  503 -0.35589724061E+01  0.23635617129E+02  0.15171595466E+03  0.15358723769E+03  0.00000000000E+00 0.  1.
         21    1    1    2  503  501  0.35589724061E+01 -0.23635617129E+02  0.21644344246E+03  0.21775920753E+03  0.00000000000E+00 0. -1.
</event>
<event>
 4    1  0.5548812E+002  0.2561769E+02  0.7546771E-02  0.1462011E+00
          2   -1    0    0  503    0  0.00000000000E+00  0.00000000000E+00  0.18395926452E+02  0.18395926452E+02  0.00000000000E+00 0.  1.
         -2   -1    0    0    0  501 -0.00000000000E+00 -0.00000000000E+00 -0.10088867999E+03  0.10088867999E+03  0.00000000000E+00 0. -1.
         21    1    1    2  502  501  0.25554336806E+02 -0.18005194709E+01 -0.89198088073E+02  0.92803905714E+02  0.00000000000E+00 0. -1.
         21    1    1    2  503  502 -0.25554336806E+02  0.18005194709E+01  0.67053345333E+01  0.26480700730E+02  0.00000000000E+00 0.  1.
</event>
<event>
 4    1  0.5548812E+002  0.2006231E+02  0.7546771E-02  0.1533085E+00
          2   -1    0    0  503    0  0.00000000000E+00  0.00000000000E+00  0.30749382258E+03  0.30749382258E+03  0.00000000000E+00 0. -1.
         -2   -1    0    0    0  501 -0.00000000000E+00 -0.00000000000E+00 -0.19028366968E+01  0.19028366968E+01  0.00000000000E+00 0.  1.
         21    1    1    2  502  501 -0.19488127612E+02 -0.47654118786E+01  0.66371562581E+02  0.69337440014E+02  0.00000000000E+00 0.  1.
         21    1    1    2  503  502  0.19488127612E+02  0.47654118786E+01  0.23921942331E+03  0.24005921927E+03  0.00000000000E+00 0. -1.
</event>
<event>
 4    1  0.5548812E+002  0.2376554E+02  0.7546771E-02  0.1483103E+00
          2   -1    0    0  503    0  0.00000000000E+00  0.00000000000E+00  0.42715365676E+03  0.42715365676E+03  0.00000000000E+00 0. -1.
         -2   -1    0    0    0  501 -0.00000000000E+00 -0.00000000000E+00 -0.14031117731E+01  0.14031117731E+01  0.00000000000E+00 0.  1.
         21    1    1    2  502  501 -0.22002856804E+02 -0.89819355726E+01  0.16143265918E+03  0.16317262125E+03  0.00000000000E+00 0.  1.
         21    1    1    2  503  502  0.22002856804E+02  0.89819355726E+01  0.26431788581E+03  0.26538414729E+03  0.00000000000E+00 0. -1.
</event>
<event>
 4    1  0.5548812E+002  0.2093254E+02  0.7546771E-02  0.1520230E+00
          2   -1    0    0  502    0  0.00000000000E+00  0.00000000000E+00  0.83721640078E+01  0.83721640078E+01  0.00000000000E+00 0. -1.
         -2   -1    0    0    0  501 -0.00000000000E+00 -0.00000000000E+00 -0.33849042430E+03  0.33849042430E+03  0.00000000000E+00 0.  1.
         21    1    1    2  502  503 -0.89239337536E+01  0.18935010640E+02 -0.55983105426E+01  0.21668232565E+02  0.00000000000E+00 0. -1.
         21    1    1    2  503  501  0.89239337536E+01 -0.18935010640E+02 -0.32451994975E+03  0.32519435574E+03  0.00000000000E+00 0.  1.
</event>
<event>
 4    1  0.5548812E+002  0.2474531E+02  0.7546771E-02  0.1471673E+00
          2   -1    0    0  503    0  0.00000000000E+00  0.00000000000E+00  0.37659583713E+02  0.37659583713E+02  0.00000000000E+00 0. -1.
         -2   -1    0    0    0  501 -0.00000000000E+00 -0.00000000000E+00 -0.52573162811E+02  0.52573162811E+02  0.00000000000E+00 0.  1.
         21    1    1    2  502  501  0.17394893682E+02 -0.17599662982E+02 -0.44952919733E+02  0.51313696572E+02  0.00000000000E+00 0.  1.
         21    1    1    2  503  502 -0.17394893682E+02  0.17599662982E+02  0.30039340636E+02  0.38919049952E+02  0.00000000000E+00 0. -1.
</event>
<event>
 4    1  0.5548812E+002  0.2108275E+02  0.7546771E-02  0.1518087E+00
          2   -1    0    0  502    0  0.00000000000E+00  0.00000000000E+00  0.13741940694E+02  0.13741940694E+02  0.00000000000E+00 0.  1.
         -2   -1    0    0    0  501 -0.00000000000E+00 -0.00000000000E+00 -0.11663795564E+03  0.11663795564E+03  0.00000000000E+00 0. -1.
         21    1    1    2  502  503  0.19224267487E+02  0.86550523381E+01  0.39707079512E+01  0.21453412620E+02  0.00000000000E+00 0.  1.
         21    1    1    2  503  501 -0.19224267487E+02 -0.86550523381E+01 -0.10686672290E+03  0.10892648371E+03  0.00000000000E+00 0. -1.
</event>
<event>
 4    1  0.5548812E+002  0.3468121E+02  0.7546771E-02  0.1382818E+00
          2   -1    0    0  503    0  0.00000000000E+00  0.00000000000E+00  0.13212908508E+04  0.13212908508E+04  0.00000000000E+00 0. -1.
         -2   -1    0    0    0  501 -0.00000000000E+00 -0.00000000000E+00 -0.13217374640E+01  0.13217374640E+01  0.00000000000E+00 0.  1.
         21    1    1    2  502  501  0.30432260265E+01 -0.34547434292E+02  0.29102749221E+03  0.29308665555E+03  0.00000000000E+00 0.  1.
         21    1    1    2  503  502 -0.30432260265E+01  0.34547434292E+02  0.10289416212E+04  0.10295259328E+04  0.00000000000E+00 0. -1.
</event>
<event>
 4    1  0.5548812E+002  0.2227339E+02  0.7546771E-02  0.1501829E+00
          2   -1    0    0  503    0  0.00000000000E+00  0.00000000000E+00  0.73690507691E+01  0.73690507691E+01  0.00000000000E+00 0.  1.
         -2   -1    0    0    0  501 -0.00000000000E+00 -0.00000000000E+00 -0.76743830330E+02  0.76743830330E+02  0.00000000000E+00 0. -1.
         21    1    1    2  502  501 -0.14740800522E+02  0.16697682947E+02 -0.49422863175E+02  0.54209991886E+02  0.00000000000E+00 0. -1.
         21    1    1    2  503  502  0.14740800522E+02 -0.16697682947E+02 -0.19951916386E+02  0.29902889213E+02  0.00000000000E+00 0.  1.
</event>
<event>
 4    1  0.5548812E+002  0.3269349E+02  0.7546771E-02  0.1397547E+00
          2   -1    0    0  502    0  0.00000000000E+00  0.00000000000E+00  0.88158244205E+03  0.88158244205E+03  0.00000000000E+00 0. -1.
         -2   -1    0    0    0  501 -0.00000000000E+00 -0.00000000000E+00 -0.94219179504E+01  0.94219179504E+01  0.00000000000E+00 0.  1.
         21    1    1    2  502  503 -0.31203528442E+02  0.97572607139E+01  0.85193149142E+03  0.85255857887E+03  0.00000000000E+00 0. -1.
         21    1    1    2  503  501  0.31203528442E+02 -0.97572607139E+01  0.20229032677E+02  0.38445781133E+02  0.00000000000E+00 0.  1.
</event>
<event>
 4    1  0.5548812E+002  0.2031037E+02  0.7546771E-02  0.1529343E+00
          2   -1    0    0  503    0  0.00000000000E+00  0.00000000000E+00  0.72764977027E+03  0.72764977027E+03  0.00000000000E+00 0.  1.
         -2   -1    0    0    0  501 -0.00000000000E+00 -0.00000000000E+00 -0.14817244781E+01  0.14817244781E+01  0.00000000000E+00 0. -1.
         21    1    1    2  502  501 -0.52299097615E+01  0.19625468561E+02  0.76627337775E+02  0.79273323804E+02  0.00000000000E+00 0. -1.
         21    1    1    2  503  502  0.52299097615E+01 -0.19625468561E+02  0.64954070801E+03  0.64985817094E+03  0.00000000000E+00 0.  1.
</event>
<event>
 4    1  0.5548812E+002  0.3634243E+02  0.7546771E-02  0.1371363E+00
          2   -1    0    0  502    0  0.00000000000E+00  0.00000000000E+00  0.44294660510E+01  0.44294660510E+01  0.00000000000E+00 0. -1.
         -2   -1    0    0    0  501 -0.00000000000E+00 -0.00000000000E+00 -0.32281389722E+03  0.32281389722E+03  0.00000000000E+00 0.  1.
         21    1    1    2  502  503  0.36336616769E+02 -0.64973484184E+00 -0.20439278095E+03  0.20759860495E+03  0.00000000000E+00 0.  1.
         21    1    1    2  503  501 -0.36336616769E+02  0.64973484184E+00 -0.11399165022E+03  0.11964475832E+03  0.00000000000E+00 0. -1.
</event>
<event>
 4    1  0.5548812E+002  0.4819986E+02  0.7546771E-02  0.1306172E+00
          2   -1    0    0  502    0  0.00000000000E+00  0.00000000000E+00  0.26220874248E+03  0.26220874248E+03  0.00000000000E+00 0. -1.
         -2   -1    0    0    0  501 -0.00000000000E+00 -0.00000000000E+00 -0.29108318740E+02  0.29108318740E+02  0.00000000000E+00 0.  1.
         21    1    1    2  502  503  0.23354302011E+02 -0.42163998301E+02  0.23803433637E+03  0.24286533608E+03  0.00000000000E+00 0. -1.
         21    1    1    2  503  501 -0.23354302011E+02  0.42163998301E+02 -0.49339126351E+01  0.48451725140E+02  0.00000000000E+00 0.  1.
</event>
<event>
 4    1  0.5548812E+002  0.2978228E+02  0.7546771E-02  0.1421498E+00
          2   -1    0    0  503    0  0.00000000000E+00  0.00000000000E+00  0.13511799322E+03  0.13511799322E+03  0.00000000000E+00 0. -1.
         -2   -1    0    0    0  501 -0.00000000000E+00 -0.00000000000E+00 -0.59760109495E+02  0.59760109495E+02  0.00000000000E+00 0.  1.
         21    1    1    2  502  501 -0.18925441546E+02  0.22995912353E+02 -0.54252734885E+02  0.61889769471E+02  0.00000000000E+00 0.  1.
         21    1    1    2  503  502  0.18925441546E+02 -0.22995912353E+02  0.12961061861E+03  0.13298833325E+03  0.00000000000E+00 0. -1.
</event>
<event>
 4    1  0.5548812E+002  0.2566564E+02  0.7546771E-02  0.1461493E+00
          2   -1    0    0  503    0  0.00000000000E+00  0.00000000000E+00  0.13065054322E+03  0.13065054322E+03  0.00000000000E+00 0. -1.
         -2   -1    0    0    0  501 -0.00000000000E+00 -0.00000000000E+00 -0.13437670658E+02  0.13437670658E+02  0.00000000000E+00 0.  1.
         21    1    1    2  502  501  0.18188224724E+02 -0.18108381974E+02  0.16599232075E+01  0.25719260513E+02  0.00000000000E+00 0.  1.
         21    1    1    2  503  502 -0.18188224724E+02  0.18108381974E+02  0.11555294936E+03  0.11836895337E+03  0.00000000000E+00 0. -1.
</event>
<event>
 4    1  0.5548812E+002  0.5018586E+02  0.7546771E-02  0.1297369E+00
          2   -1    0    0  503    0  0.00000000000E+00  0.00000000000E+00  0.26037482755E+03  0.26037482755E+03  0.00000000000E+00 0. -1.
         -2   -1    0    0    0  501 -0.00000000000E+00 -0.00000000000E+00 -0.96920251565E+01  0.96920251565E+01  0.00000000000E+00 0.  1.
         21    1    1    2  502  501 -0.25299422997E+02 -0.43342349254E+02  0.11936735184E+03  0.12948816443E+03  0.00000000000E+00 0. -1.
         21    1    1    2  503  502  0.25299422997E+02  0.43342349254E+02  0.13131545055E+03  0.14057868827E+03  0.00000000000E+00 0.  1.
</event>
<event>
 4    1  0.5548812E+002  0.2366083E+02  0.7546771E-02  0.1484363E+00
          2   -1    0    0  503    0  0.00000000000E+00  0.00000000000E+00  0.44927543902E+03  0.44927543902E+03  0.00000000000E+00 0.  1.
         -2   -1    0    0    0  501 -0.00000000000E+00 -0.00000000000E+00 -0.12638528748E+01  0.12638528748E+01  0.00000000000E+00 0. -1.
         21    1    1    2  502  501  0.75987467622E+01 -0.22407453964E+02  0.25071642271E+03  0.25183041826E+03  0.00000000000E+00 0. -1.
         21    1    1    2  503  502 -0.75987467622E+01  0.22407453964E+02  0.19729516344E+03  0.19870887364E+03  0.00000000000E+00 0.  1.
</event>
<event>
 4    1  0.5548812E+002  0.1144776E+03  0.7546771E-02  0.1140843E+00
          2   -1    0    0  503    0  0.00000000000E+00  0.00000000000E+00  0.12559146683E+04  0.12559146683E+04  0.00000000000E+00 0. -1.
         -2   -1    0    0    0  501 -0.00000000000E+00 -0.00000000000E+00 -0.47144454227E+02  0.47144454227E+02  0.00000000000E+00 0.  1.
         21    1    1    2  502  501  0.10672195265E+03  0.41419018238E+02  0.29462382073E+02  0.11820804629E+03  0.00000000000E+00 0.  1.
         21    1    1    2  503  502 -0.10672195265E+03 -0.41419018238E+02  0.11793078320E+04  0.11848510762E+04  0.00000000000E+00 0. -1.
</event>
<event>
 4    1  0.5548812E+002  0.3248845E+02  0.7546771E-02  0.1399136E+00
          2   -1    0    0  502    0  0.00000000000E+00  0.00000000000E+00  0.12026079832E+04  0.12026079832E+04  0.00000000000E+00 0.  1.
         -2   -1    0    0    0  501 -0.00000000000E+00 -0.00000000000E+00 -0.14838259067E+02  0.14838259067E+02  0.00000000000E+00 0. -1.
         21    1    1    2  502  503  0.73301781677E+01 -0.31650718337E+02  0.11843307611E+04  0.11847762874E+04  0.00000000000E+00 0.  1.
         21    1    1    2  503  501 -0.73301781677E+01  0.31650718337E+02  0.34389630076E+01  0.32669954848E+02  0.00000000000E+00 0. -1.
</event>
<event>
 4    1  0.5548812E+002  0.3080481E+02  0.7546771E-02  0.1412729E+00
          2   -1    0    0  502    0  0.00000000000E+00  0.00000000000E+00  0.63736235113E+03  0.63736235113E+03  0.00000000000E+00 0. -1.
         -2   -1    0    0    0  501 -0.00000000000E+00 -0.00000000000E+00 -0.38396910447E+01  0.38396910447E+01  0.00000000000E+00 0.  1.
         21    1    1    2  502  503  0.14139603575E+02  0.27368013030E+02  0.56761961716E+03  0.56845489382E+03  0.00000000000E+00 0. -1.
         21    1    1    2  503  501 -0.14139603575E+02 -0.27368013030E+02  0.65903042922E+02  0.72747148349E+02  0.00000000000E+00 0.  1.
</event>
<event>
 4    1  0.5548812E+002  0.3345589E+02  0.7546771E-02  0.1391756E+00
          2   -1    0    0  503    0  0.00000000000E+00  0.00000000000E+00  0.18511732959E+04  0.18511732959E+04  0.00000000000E+00 0.  1.
         -2   -1    0    0    0  501 -0.00000000000E+00 -0.00000000000E+00 -0.78120935846E+00  0.78120935846E+00  0.00000000000E+00 0. -1.
         21    1    1    2  502  501 -0.37708309158E+01 -0.33242706233E+02  0.13654184076E+04  0.13658282193E+04  0.00000000000E+00 0.  1.
         21    1    1    2  503  502  0.37708309158E+01  0.33242706233E+02  0.48497367895E+03  0.48612628602E+03  0.00000000000E+00 0. -1.
</event>
<event>
 4    1  0.5548812E+002  0.2046323E+02  0.7546771E-02  0.1527068E+00
          2   -1    0    0  502    0  0.00000000000E+00  0.00000000000E+00  0.11102856048E+04  0.11102856048E+04  0.00000000000E+00 0.  1.
         -2   -1    0    0    0  501 -0.00000000000E+00 -0.00000000000E+00 -0.38709888086E+00  0.38709888086E+00  0.00000000000E+00 0. -1.
         21    1    1    2  502  503 -0.17690843608E+02 -0.10284832299E+02  0.46591811009E+03  0.46636726840E+03  0.00000000000E+00 0. -1.
         21    1    1    2  503  501  0.17690843608E+02  0.10284832299E+02  0.64398039579E+03  0.64430543525E+03  0.00000000000E+00 0.  1.
</event>
<event>
 4    1  0.5548812E+002  0.2454073E+02  0.7546771E-02  0.1474007E+00
          2   -1    0    0  503    0  0.00000000000E+00  0.00000000000E+00  0.19108886809E+04  0.19108886809E+04  0.00000000000E+00 0. -1.
         -2   -1    0    0    0  501 -0.00000000000E+00 -0.00000000000E+00 -0.14430314561E+01  0.14430314561E+01  0.00000000000E+00 0.  1.
         21    1    1    2  502  501  0.24097671111E+02  0.46421396127E+01  0.10939731937E+03  0.11211610365E+03  0.00000000000E+00 0.  1.
         21    1    1    2  503  502 -0.24097671111E+02 -0.46421396127E+01  0.18000483301E+04  0.18002156087E+04  0.00000000000E+00 0. -1.
</event>
<event>
 4    1  0.5548812E+002  0.2109743E+02  0.7546771E-02  0.1517878E+00
          2   -1    0    0  503    0  0.00000000000E+00  0.00000000000E+00  0.61368934214E+01  0.61368934214E+01  0.00000000000E+00 0.  1.
         -2   -1    0    0    0  501 -0.00000000000E+00 -0.00000000000E+00 -0.12818867833E+03  0.12818867833E+03  0.00000000000E+00 0. -1.
         21    1    1    2  502  501 -0.18517757843E+02 -0.10109109756E+02 -0.10528218525E+03  0.10737522985E+03  0.00000000000E+00 0. -1.
         21    1    1    2  503  502  0.18517757843E+02  0.10109109756E+02 -0.16769599659E+02  0.26950341896E+02  0.00000000000E+00 0.  1.
</event>
<event>
 4    1  0.5548812E+002  0.2593875E+02  0.7546771E-02  0.1458570E+00
          2   -1    0    0  502    0  0.00000000000E+00  0.00000000000E+00  0.34928351947E+03  0.34928351947E+03  0.00000000000E+00 0.  1.
         -2   -1    0    0    0  501 -0.00000000000E+00 -0.00000000000E+00 -0.12414350753E+02  0.12414350753E+02  0.00000000000E+00 0. -1.
         21    1    1    2  502  503  0.79129645623E+01  0.24702306322E+02  0.33466163135E+03  0.33566534889E+03  0.00000000000E+00 0.  1.
         21    1    1    2  503  501 -0.79129645623E+01 -0.24702306322E+02  0.22075373658E+01  0.26032521334E+02  0.00000000000E+00 0. -1.
</event>
<event>
 4    1  0.5548812E+002  0.2337787E+02  0.7546771E-02  0.1487807E+00
          2   -1    0    0  503    0  0.00000000000E+00  0.00000000000E+00  0.40395646639E+03  0.40395646639E+03  0.00000000000E+00 0. -1.
         -2   -1    0    0    0  501 -0.00000000000E+00 -0.00000000000E+00 -0.42823126839E+01  0.42823126839E+01  0.00000000000E+00 0.  1.
         21    1    1    2  502  501  0.11362552553E+02  0.20430794355E+02  0.31013497752E+02  0.38837636402E+02  0.00000000000E+00 0.  1.
         21    1    1    2  503  502 -0.11362552553E+02 -0.20430794355E+02  0.36866065595E+03  0.36940114267E+03  0.00000000000E+00 0. -1.
</event>
<event>
 4    1  0.5548812E+002  0.2565854E+02  0.7546771E-02  0.1461569E+00
          2   -1    0    0  503    0  0.00000000000E+00  0.00000000000E+00  0.12187664243E+04  0.12187664243E+04  0.00000000000E+00 0. -1.
         -2   -1    0    0    0  501 -0.00000000000E+00 -0.00000000000E+00 -0.75440342371E+00  0.75440342371E+00  0.00000000000E+00 0.  1.
         21    1    1    2  502  501 -0.26162739724E+01  0.25524806309E+02  0.28407980323E+03  0.28523620954E+03  0.00000000000E+00 0. -1.
         21    1    1    2  503  502  0.26162739724E+01 -0.25524806309E+02  0.93393221769E+03  0.93428461824E+03  0.00000000000E+00 0.  1.
</event>
<event>
 4    1  0.5548812E+002  0.2954418E+02  0.7546771E-02  0.1423599E+00
          2   -1    0    0  503    0  0.00000000000E+00  0.00000000000E+00  0.13205487924E+03  0.13205487924E+03  0.00000000000E+00 0.  1.
         -2   -1    0    0    0  501 -0.00000000000E+00 -0.00000000000E+00 -0.67446775382E+01  0.67446775382E+01  0.00000000000E+00 0. -1.
         21    1    1    2  502  501 -0.12393836776E+02 -0.26818867586E+02  0.72468438167E+02  0.78259398024E+02  0.00000000000E+00 0. -1.
         21    1    1    2  503  502  0.12393836776E+02  0.26818867586E+02  0.52841763534E+02  0.60540158754E+02  0.00000000000E+00 0.  1.
</event>
<event>
 4    1  0.5548812E+002  0.2437614E+02  0.7546771E-02  0.1475905E+00
          2   -1    0    0  502    0  0.00000000000E+00  0.00000000000E+00  0.17462072395E+02  0.17462072395E+02  0.00000000000E+00 0. -1.
         -2   -1    0    0    0  501 -0.00000000000E+00 -0.00000000000E+00 -0.70634957009E+02  0.70634957009E+02  0.00000000000E+00 0.  1.
         21    1    1    2  502  503 -0.20442365844E+02 -0.13278020627E+02  0.51241492334E+01  0.24908895166E+02  0.00000000000E+00 0. -1.
         21    1    1    2  503  501  0.20442365844E+02  0.13278020627E+02 -0.58297033848E+02  0.63188134238E+02  0.00000000000E+00 0.  1.
</event>
<event>
 4    1  0.5548812E+002  0.4543963E+02  0.7546771E-02  0.1319256E+00
          2   -1    0    0  503    0  0.00000000000E+00  0.00000000000E+00  0.67747538400E+03  0.67747538400E+03  0.00000000000E+00 0. -1.
         -2   -1    0    0    0  501 -0.00000000000E+00 -0.00000000000E+00 -0.57147053869E+01  0.57147053869E+01  0.00000000000E+00 0.  1.
         21    1    1    2  502  501  0.18627769226E+02  0.41445947264E+02  0.10252144962E+03  0.11214012646E+03  0.00000000000E+00 0.  1.
         21    1    1    2  503  502 -0.18627769226E+02 -0.41445947264E+02  0.56923922900E+03  0.57104996293E+03  0.00000000000E+00 0. -1.
</event>
<event>
 4    1  0.5548812E+002  0.2088702E+02  0.7546771E-02  0.1520884E+00
          2   -1    0    0  502    0  0.00000000000E+00  0.00000000000E+00  0.20952116548E+04  0.20952116548E+04  0.00000000000E+00 0.  1.
         -2   -1    0    0    0  501 -0.00000000000E+00 -0.00000000000E+00 -0.23117435247E+00  0.23117435247E+00  0.00000000000E+00 0. -1.
         21    1    1    2  502  503  0.19970333137E+02  0.61199193923E+01  0.71735144536E+03  0.71765546315E+03  0.00000000000E+00 0. -1.
         21    1    1    2  503  501 -0.19970333137E+02 -0.61199193923E+01  0.13776290351E+04  0.13777873660E+04  0.00000000000E+00 0.  1.
</event>
<event>
 4    1  0.5548812E+002  0.2531167E+02  0.7546771E-02  0.1465347E+00
          2   -1    0    0  503    0  0.00000000000E+00  0.00000000000E+00  0.11509705610E+04  0.11509705610E+04  0.00000000000E+00 0. -1.
         -2   -1    0    0    0  501 -0.00000000000E+00 -0.00000000000E+00 -0.77205718529E+00  0.77205718529E+00  0.00000000000E+00 0.  1.
         21    1    1    2  502  501 -0.17484310090E+02 -0.18302444729E+02  0.27091474589E+03  0.27209461613E+03  0.00000000000E+00 0.  1.
         21    1    1    2  503  502  0.17484310090E+02  0.18302444729E+02  0.87928375794E+03  0.87964800208E+03  0.00000000000E+00 0. -1.
</event>
<event>
 4    1  0.5548812E+002  0.2841748E+02  0.7546771E-02  0.1433866E+00
          2   -1    0    0  503    0  0.00000000000E+00  0.00000000000E+00  0.70606331833E+02  0.70606331833E+02  0.00000000000E+00 0.  1.
         -2   -1    0    0    0  501 -0.00000000000E+00 -0.00000000000E+00 -0.12979681899E+02  0.12979681899E+02  0.00000000000E+00 0. -1.
         21    1    1    2  502  501  0.28499112596E+01  0.28274211454E+02  0.14407002227E+02  0.31860865347E+02  0.00000000000E+00 0. -1.
         21    1    1    2  503  502 -0.28499112596E+01 -0.28274211454E+02  0.43219647707E+02  0.51725148385E+02  0.00000000000E+00 0.  1.
</event>
<event>
 4    1  0.5548812E+002  0.2015289E+02  0.7546771E-02  0.1531711E+00
          2   -1    0    0  503    0  0.00000000000E+00  0.00000000000E+00  0.32210808472E+02  0.32210808472E+02  0.00000000000E+00 0.  1.
         -2   -1    0    0    0  501 -0.00000000000E+00 -0.00000000000E+00 -0.72015120636E+02  0.72015120636E+02  0.00000000000E+00 0. -1.
         21    1    1    2  502  501 -0.17569321564E+02  0.98720813823E+01 -0.67233662598E+02  0.70189062092E+02  0.00000000000E+00 0. -1.
         21    1    1    2  503  502  0.17569321564E+02 -0.98720813823E+01  0.27429350434E+02  0.34036867016E+02  0.00000000000E+00 0.  1.
</event>
<event>
 4    1  0.5548812E+002  0.2630784E+02  0.7546771E-02  0.1454688E+00
          2   -1    0    0  503    0  0.00000000000E+00  0.00000000000E+00  0.14699509833E+04  0.14699509833E+04  0.00000000000E+00 0. -1.
         -2   -1    0    0    0  501 -0.00000000000E+00 -0.00000000000E+00 -0.47654099628E+00  0.47654099628E+00  0.00000000000E+00 0.  1.
         21    1    1    2  502  501  0.23838804991E+01 -0.26199609985E+02  0.81519702673E+03  0.81562141637E+03  0.00000000000E+00 0.  1.
         21    1    1    2  503  502 -0.23838804991E+01  0.26199609985E+02  0.65427741555E+03  0.65480610791E+03  0.00000000000E+00 0. -1.
</event>
<event>
 4    1  0.5548812E+002  0.2171787E+02  0.7546771E-02  0.1509257E+00
          2   -1    0    0  503    0  0.00000000000E+00  0.00000000000E+00  0.21481128154E+03  0.21481128154E+03  0.00000000000E+00 0.  1.
         -2   -1    0    0    0  501 -0.00000000000E+00 -0.00000000000E+00 -0.10113037340E+02  0.10113037340E+02  0.00000000000E+00 0. -1.
         21    1    1    2  502  501  0.18018347156E+02 -0.12124570823E+02  0.28419098343E+01  0.21903024983E+02  0.00000000000E+00 0. -1.
         21    1    1    2  503  502 -0.18018347156E+02  0.12124570823E+02  0.20185633436E+03  0.20302129389E+03  0.00000000000E+00 0.  1.
</event>
<event>
 4    1  0.5548812E+002  0.2111491E+02  0.7546771E-02  0.1517631E+00
          2   -1    0    0  503    0  0.00000000000E+00  0.00000000000E+00  0.14206225243E+04  0.14206225243E+04  0.00000000000E+00 0. -1.
         -2   -1    0    0    0  501 -0.00000000000E+00 -0.00000000000E+00 -0.45014039385E+00  0.45014039385E+00  0.00000000000E+00 0.  1.
         21    1    1    2  502  501  0.19209591259E+01 -0.21027342442E+02  0.31909146659E+03  0.31978931074E+03  0.00000000000E+00 0. -1.
         21    1    1    2  503  502 -0.19209591259E+01  0.21027342442E+02  0.11010809173E+04  0.11012833540E+04  0.00000000000E+00 0.  1.
</event>
<event>
 4    1  0.5548812E+002  0.3781944E+02  0.7546771E-02  0.1361760E+00
          2   -1    0    0  502    0  0.00000000000E+00  0.00000000000E+00  0.38372940688E+03  0.38372940688E+03  0.00000000000E+00 0.  1.
         -2   -1    0    0    0  501 -0.00000000000E+00 -0.00000000000E+00 -0.14100537848E+02  0.14100537848E+02  0.00000000000E+00 0. -1.
         21    1    1    2  502  503  0.37778935130E+02  0.17498059895E+01  0.35542459258E+03  0.35743104338E+03  0.00000000000E+00 0.  1.
         21    1    1    2  503  501 -0.37778935130E+02 -0.17498059895E+01  0.14204276449E+02  0.40398901347E+02  0.00000000000E+00 0. -1.
</event>
<event>
 4    1  0.5548812E+002  0.2852914E+02  0.7546771E-02  0.1432824E+00
          2   -1    0    0  503    0  0.00000000000E+00  0.00000000000E+00  0.17384962558E+04  0.17384962558E+04  0.00000000000E+00 0.  1.
         -2   -1    0    0    0  501 -0.00000000000E+00 -0.00000000000E+00 -0.11315819285E+01  0.11315819285E+01  0.00000000000E+00 0. -1.
         21    1    1    2  502  501 -0.25341684017E+02 -0.13103855186E+02  0.20268122217E+03  0.20467923634E+03  0.00000000000E+00 0. -1.
         21    1    1    2  503  502  0.25341684017E+02  0.13103855186E+02  0.15346834517E+04  0.15349486014E+04  0.00000000000E+00 0.  1.
</event>
<event>
 4    1  0.5548812E+002  0.2512556E+02  0.7546771E-02  0.1467404E+00
          2   -1    0    0  502    0  0.00000000000E+00  0.00000000000E+00  0.16302044431E+03  0.16302044431E+03  0.00000000000E+00 0.  1.
         -2   -1    0    0    0  501 -0.00000000000E+00 -0.00000000000E+00 -0.96698595036E+01  0.96698595036E+01  0.00000000000E+00 0. -1.
         21    1    1    2  502  503  0.11712504773E+02 -0.22228609859E+02  0.14353179236E+03  0.14571434138E+03  0.00000000000E+00 0.  1.
         21    1    1    2  503  501 -0.11712504773E+02  0.22228609859E+02  0.98187924445E+01  0.26975962437E+02  0.00000000000E+00 0. -1.
</event>
<event>
 4    1  0.5548812E+002  0.3281224E+02  0.7546771E-02  0.1396633E+00
          2   -1    0    0  503    0  0.00000000000E+00  0.00000000000E+00  0.20594319415E+04  0.20594319415E+04  0.00000000000E+00 0.  1.
         -2   -1    0    0    0  501 -0.00000000000E+00 -0.00000000000E+00 -0.42446763011E+02  0.42446763011E+02  0.00000000000E+00 0. -1.
         21    1    1    2  502  501  0.12889948817E+02 -0.30174363469E+02 -0.35954878314E+02  0.48676444671E+02  0.00000000000E+00 0. -1.
         21    1    1    2  503  502 -0.12889948817E+02  0.30174363469E+02  0.20529400568E+04  0.20532022598E+04  0.00000000000E+00 0.  1.
</event>
<event>
 4    1  0.5548812E+002  0.3421570E+02  0.7546771E-02  0.1386162E+00
          2   -1    0    0  502    0  0.00000000000E+00  0.00000000000E+00  0.24554456924E+02  0.24554456924E+02  0.00000000000E+00 0. -1.
         -2   -1    0    0    0  501 -0.00000000000E+00 -0.00000000000E+00 -0.69918604829E+02  0.69918604829E+02  0.00000000000E+00 0.  1.
         21    1    1    2  502  503 -0.27732847768E+02 -0.20040050243E+02  0.39590232303E+01  0.34443988213E+02  0.00000000000E+00 0. -1.
         21    1    1    2  503  501  0.27732847768E+02  0.20040050243E+02 -0.49323171136E+02  0.60029073540E+02  0.00000000000E+00 0.  1.
</event>
<event>
 4    1  0.5548812E+002  0.3167525E+02  0.7546771E-02  0.1405576E+00
          2   -1    0    0  502    0  0.00000000000E+00  0.00000000000E+00  0.14622893059E+04  0.14622893059E+04  0.00000000000E+00 0. -1.
         -2   -1    0    0    0  501 -0.00000000000E+00 -0.00000000000E+00 -0.30295674770E+01  0.30295674770E+01  0.00000000000E+00 0.  1.
         21    1    1    2  502  503  0.18395197360E+02 -0.25786398877E+02  0.13740045228E+04  0.13743695828E+04  0.00000000000E+00 0. -1.
         21    1    1    2  503  501 -0.18395197360E+02  0.25786398877E+02  0.85255215694E+02  0.90949290574E+02  0.00000000000E+00 0.  1.
</event>
<event>
 4    1  0.5548812E+002  0.2484048E+02  0.7546771E-02  0.1470596E+00
          2   -1    0    0  502    0  0.00000000000E+00  0.00000000000E+00  0.13373984305E+04  0.13373984305E+04  0.00000000000E+00 0. -1.
         -2   -1    0    0    0  501 -0.00000000000E+00 -0.00000000000E+00 -0.75851332985E+00  0.75851332985E+00  0.00000000000E+00 0.  1.
         21    1    1    2  502  503 -0.23172929236E+02 -0.89478869363E+01  0.10870854547E+04  0.10873692267E+04  0.00000000000E+00 0. -1.
         21    1    1    2  503  501  0.23172929236E+02  0.89478869363E+01  0.24955446251E+03  0.25078771718E+03  0.00000000000E+00 0.  1.
</event>
<event>
 4    1  0.5548812E+002  0.2012877E+02  0.7546771E-02  0.1532076E+00
          2   -1    0    0  502    0  0.00000000000E+00  0.00000000000E+00  0.79284296937E+01  0.79284296937E+01  0.00000000000E+00 0.  1.
         -2   -1    0    0    0  501 -0.00000000000E+00 -0.00000000000E+00 -0.51316695361E+02  0.51316695361E+02  0.00000000000E+00 0. -1.
         21    1    1    2  502  503  0.51445292524E+01 -0.19460247793E+02 -0.19783058131E+02  0.28222983797E+02  0.00000000000E+00 0.  1.
         21    1    1    2  503  501 -0.51445292524E+01  0.19460247793E+02 -0.23605207536E+02  0.31022141257E+02  0.00000000000E+00 0. -1.
</event>
<event>
 4    1  0.5548812E+002  0.3630619E+02  0.7546771E-02  0.1371606E+00
          2   -1    0    0  503    0  0.00000000000E+00  0.00000000000E+00  0.52175709715E+02  0.52175709715E+02  0.00000000000E+00 0.  1.
         -2   -1    0    0    0  501 -0.00000000000E+00 -0.00000000000E+00 -0.37188921215E+02  0.37188921215E+02  0.00000000000E+00 0. -1.
         21    1    1    2  502  501 -0.36104745826E+02  0.38193045115E+01 -0.17809266476E+02  0.40438963024E+02  0.00000000000E+00 0. -1.
         21    1    1    2  503  502  0.36104745826E+02 -0.38193045115E+01  0.32796054976E+02  0.48925667906E+02  0.00000000000E+00 0.  1.
</event>
<event>
 4    1  0.5548812E+002  0.2026924E+02  0.7546771E-02  0.1529959E+00
          2   -1    0    0  503    0  0.00000000000E+00  0.00000000000E+00  0.47914390207E+02  0.47914390207E+02  0.00000000000E+00 0.  1.
         -2   -1    0    0    0  501 -0.00000000000E+00 -0.00000000000E+00 -0.40019165316E+02  0.40019165316E+02  0.00000000000E+00 0. -1.
         21    1    1    2  502  501  0.86206220347E+01 -0.18344667695E+02 -0.35025412076E+02  0.40467535732E+02  0.00000000000E+00 0. -1.
         21    1    1    2  503  502 -0.86206220347E+01  0.18344667695E+02  0.42920636968E+02  0.47466019791E+02  0.00000000000E+00 0.  1.
</event>
<event>
 4    1  0.5548812E+002  0.2586283E+02  0.7546771E-02  0.1459378E+00
          2   -1    0    0  503    0  0.00000000000E+00  0.00000000000E+00  0.20470063343E+04  0.20470063343E+04  0.00000000000E+00 0.  1.
         -2   -1    0    0    0  501 -0.00000000000E+00 -0.00000000000E+00 -0.13551021026E+01  0.13551021026E+01  0.00000000000E+00 0. -1.
         21    1    1    2  502  501  0.17705566909E+02 -0.18852025254E+02  0.13063272553E+03  0.13316829554E+03  0.00000000000E+00 0. -1.
         21    1    1    2  503  502 -0.17705566909E+02  0.18852025254E+02  0.19150185066E+04  0.19151931408E+04  0.00000000000E+00 0.  1.
</event>
<event>
 4    1  0.5548812E+002  0.2135098E+02  0.7546771E-02  0.1514312E+00
          2   -1    0    0  503    0  0.00000000000E+00  0.00000000000E+00  0.65355399218E+03  0.65355399218E+03  0.00000000000E+00 0.  1.
         -2   -1    0    0    0  501 -0.00000000000E+00 -0.00000000000E+00 -0.11124239222E+01  0.11124239222E+01  0.00000000000E+00 0. -1.
         21    1    1    2  502  501  0.12450269454E+02  0.17345179801E+02  0.12631254844E+03  0.12810434952E+03  0.00000000000E+00 0. -1.
         21    1    1    2  503  502 -0.12450269454E+02 -0.17345179801E+02  0.52612901981E+03  0.52656206658E+03  0.00000000000E+00 0.  1.
</event>
<event>
 4    1  0.5548812E+002  0.3498375E+02  0.7546771E-02  0.1380677E+00
          2   -1    0    0  502    0  0.00000000000E+00  0.00000000000E+00  0.89110508114E+03  0.89110508114E+03  0.00000000000E+00 0. -1.
         -2   -1    0    0    0  501 -0.00000000000E+00 -0.00000000000E+00 -0.13762034536E+01  0.13762034536E+01  0.00000000000E+00 0.  1.
         21    1    1    2  502  503 -0.33649722782E+02 -0.95686300339E+01  0.42479969245E+03  0.42623777546E+03  0.00000000000E+00 0.  1.
         21    1    1    2  503  501  0.33649722782E+02  0.95686300339E+01  0.46492918524E+03  0.46624350914E+03  0.00000000000E+00 0. -1.
</event>
<event>
 4    1  0.5548812E+002  0.2100638E+02  0.7546771E-02  0.1519174E+00
          2   -1    0    0  503    0  0.00000000000E+00  0.00000000000E+00  0.16371751781E+01  0.16371751781E+01  0.00000000000E+00 0.  1.
         -2   -1    0    0    0  501 -0.00000000000E+00 -0.00000000000E+00 -0.55305186506E+03  0.55305186506E+03  0.00000000000E+00 0. -1.
         21    1    1    2  502  501  0.18339293700E+02  0.10243935058E+02 -0.47428478286E+03  0.47474974792E+03  0.00000000000E+00 0. -1.
         21    1    1    2  503  502 -0.18339293700E+02 -0.10243935058E+02 -0.77129907021E+02  0.79939292316E+02  0.00000000000E+00 0.  1.
</event>
<event>
 4    1  0.5548812E+002  0.2388096E+02  0.7546771E-02  0.1481723E+00
          2   -1    0    0  503    0  0.00000000000E+00  0.00000000000E+00  0.37077775981E+03  0.37077775981E+03  0.00000000000E+00 0.  1.
         -2   -1    0    0    0  501 -0.00000000000E+00 -0.00000000000E+00 -0.63658528982E+01  0.63658528982E+01  0.00000000000E+00 0. -1.
         21    1    1    2  502  501 -0.15891347704E+02  0.17825976602E+02  0.17988196040E+02  0.29897751929E+02  0.00000000000E+00 0. -1.
         21    1    1    2  503  502  0.15891347704E+02 -0.17825976602E+02  0.34642371087E+03  0.34724586078E+03  0.00000000000E+00 0.  1.
</event>
<event>
 4    1  0.5548812E+002  0.3427744E+02  0.7546771E-02  0.1385715E+00
          2   -1    0    0  503    0  0.00000000000E+00  0.00000000000E+00  0.12551725630E+03  0.12551725630E+03  0.00000000000E+00 0. -1.
         -2   -1    0    0    0  501 -0.00000000000E+00 -0.00000000000E+00 -0.12129579181E+02  0.12129579181E+02  0.00000000000E+00 0.  1.
         21    1    1    2  502  501 -0.65887539992E+01 -0.33638237323E+02  0.23811927045E+02  0.41736681218E+02  0.00000000000E+00 0.  1.
         21    1    1    2  503  502  0.65887539992E+01  0.33638237323E+02  0.89575750071E+02  0.95910154261E+02  0.00000000000E+00 0. -1.
</event>
<event>
 4    1  0.5548812E+002  0.3223977E+02  0.7546771E-02  0.1401081E+00
          2   -1    0    0  503    0  0.00000000000E+00  0.00000000000E+00  0.45017035995E+02  0.45017035995E+02  0.00000000000E+00 0. -1.
         -2   -1    0    0    0  501 -0.00000000000E+00 -0.00000000000E+00 -0.21188257853E+03  0.21188257853E+03  0.00000000000E+00 0.  1.
         21    1    1    2  502  501  0.32003463436E+02 -0.38963308650E+01 -0.20468209383E+03  0.20720560465E+03  0.00000000000E+00 0.  1.
         21    1    1    2  503  502 -0.32003463436E+02  0.38963308650E+01  0.37816551289E+02  0.49694009876E+02  0.00000000000E+00 0. -1.
</event>
<event>
 4    1  0.5548812E+002  0.3334211E+02  0.7546771E-02  0.1392609E+00
          2   -1    0    0  502    0  0.00000000000E+00  0.00000000000E+00  0.39047448779E+03  0.39047448779E+03  0.00000000000E+00 0.  1.
         -2   -1    0    0    0  501 -0.00000000000E+00 -0.00000000000E+00 -0.61490750148E+01  0.61490750148E+01  0.00000000000E+00 0. -1.
         21    1    1    2  502  503  0.16406317589E+02 -0.29026351837E+02  0.33748574791E+03  0.33912877554E+03  0.00000000000E+00 0.  1.
         21    1    1    2  503  501 -0.16406317589E+02  0.29026351837E+02  0.46839664866E+02  0.57494787264E+02  0.00000000000E+00 0. -1.
</event>
<event>
 4    1  0.5548812E+002  0.2123401E+02  0.7546771E-02  0.1515950E+00
          2   -1    0    0  502    0  0.00000000000E+00  0.00000000000E+00  0.26001973454E+02  0.26001973454E+02  0.00000000000E+00 0.  1.
         -2   -1    0    0    0  501 -0.00000000000E+00 -0.00000000000E+00 -0.28218236309E+02  0.28218236309E+02  0.00000000000E+00 0. -1.
         21    1    1    2  502  503 -0.31084977426E+01  0.21005245441E+02  0.15723983820E+02  0.26422088514E+02  0.00000000000E+00 0.  1.
         21    1    1    2  503  501  0.31084977426E+01 -0.21005245441E+02 -0.17940246675E+02  0.27798121250E+02  0.00000000000E+00 0. -1.
</event>
<event>
 4    1  0.5548812E+002  0.2205141E+02  0.7546771E-02  0.1504766E+00
          2   -1    0    0  502    0  0.00000000000E+00  0.00000000000E+00  0.37882178007E+00  0.37882178007E+00  0.00000000000E+00 0. -1.
         -2   -1    0    0    0  501 -0.00000000000E+00 -0.00000000000E+00 -0.14233477211E+04  0.14233477211E+04  0.00000000000E+00 0.  1.
         21    1    1    2  502  503  0.97923677473E+01 -0.19757885605E+02 -0.48844737992E+03  0.48894489204E+03  0.00000000000E+00 0. -1.
         21    1    1    2  503  501 -0.97923677473E+01  0.19757885605E+02 -0.93452151940E+03  0.93478165083E+03  0.00000000000E+00 0.  1.
</event>
<event>
 4    1  0.5548812E+002  0.2849880E+02  0.7546771E-02  0.1433107E+00
          2   -1    0    0  502    0  0.00000000000E+00  0.00000000000E+00  0.12647060418E+04  0.12647060418E+04  0.00000000000E+00 0. -1.
         -2   -1    0    0    0  501 -0.00000000000E+00 -0.00000000000E+00 -0.20120150926E+01  0.20120150926E+01  0.00000000000E+00 0.  1.
         21    1    1    2  502  503  0.58279905857E+00  0.28492840384E+02  0.11539440021E+04  0.11542958640E+04  0.00000000000E+00 0. -1.
         21    1    1    2  503  501 -0.58279905857E+00 -0.28492840384E+02  0.10875002456E+03  0.11242219287E+03  0.00000000000E+00 0.  1.
</event>
<event>
 4    1  0.5548812E+002  0.2206759E+02  0.7546771E-02  0.1504551E+00
          2   -1    0    0  502    0  0.00000000000E+00  0.00000000000E+00  0.70740200836E+03  0.70740200836E+03  0.00000000000E+00 0. -1.
         -2   -1    0    0    0  501 -0.00000000000E+00 -0.00000000000E+00 -0.21373544888E+01  0.21373544888E+01  0.00000000000E+00 0.  1.
         21    1    1    2  502  503  0.11614454141E+02  0.18763872798E+02  0.64473462375E+03  0.64511217128E+03  0.00000000000E+00 0. -1.
         21    1    1    2  503  501 -0.11614454141E+02 -0.18763872798E+02  0.60530030116E+02  0.64427191567E+02  0.00000000000E+00 0.  1.
</event>
<event>
 4    1  0.5548812E+002  0.2203904E+02  0.7546771E-02  0.1504931E+00
          2   -1    0    0  502    0  0.00000000000E+00  0.00000000000E+00  0.48481900764E+02  0.48481900764E+02  0.00000000000E+00 0. -1.
         -2   -1    0    0    0  501 -0.00000000000E+00 -0.00000000000E+00 -0.19937667162E+02  0.19937667162E+02  0.00000000000E+00 0.  1.
         21    1    1    2  502  503  0.59347327403E+01 -0.21224948160E+02  0.38401663344E+02  0.44276486137E+02  0.00000000000E+00 0. -1.
         21    1    1    2  503  501 -0.59347327403E+01  0.21224948160E+02 -0.98574297416E+01  0.24143081788E+02  0.00000000000E+00 0.  1.
</event>
<event>
 4    1  0.5548812E+002  0.2082316E+02  0.7546771E-02  0.1521805E+00
          2   -1    0    0  503    0  0.00000000000E+00  0.00000000000E+00  0.14338504816E+03  0.14338504816E+03  0.00000000000E+00 0. -1.
         -2   -1    0    0    0  501 -0.00000000000E+00 -0.00000000000E+00 -0.31257949959E+01  0.31257949959E+01  0.00000000000E+00 0.  1.
         21    1    1    2  502  501 -0.91268232178E+01 -0.18716438904E+02  0.83345918393E+02  0.85907776715E+02  0.00000000000E+00 0.  1.
         21    1    1    2  503  502  0.91268232178E+01  0.18716438904E+02  0.56913334775E+02  0.60603066445E+02  0.00000000000E+00 0. -1.
</event>
<event>
 4    1  0.5548812E+002  0.2012118E+02  0.7546771E-02  0.1532191E+00
          2   -1    0    0  502    0  0.00000000000E+00  0.00000000000E+00  0.34493317489E+02  0.34493317489E+02  0.00000000000E+00 0.  1.
         -2   -1    0    0    0  501 -0.00000000000E+00 -0.00000000000E+00 -0.12168149850E+02  0.12168149850E+02  0.00000000000E+00 0. -1.
         21    1    1    2  502  503  0.64354481565E+00 -0.20110885740E+02  0.15552220087E+02  0.25430954068E+02  0.00000000000E+00 0.  1.
         21    1    1    2  503  501 -0.64354481565E+00  0.20110885740E+02  0.67729475529E+01  0.21230513271E+02  0.00000000000E+00 0. -1.
</event>
<event>
 4    1  0.5548812E+002  0.2456860E+02  0.7546771E-02  0.1473688E+00
          2   -1    0    0  503    0  0.00000000000E+00  0.00000000000E+00  0.21960904137E+02  0.21960904137E+02  0.00000000000E+00 0. -1.
         -2   -1    0    0    0  501 -0.00000000000E+00 -0.00000000000E+00 -0.29377147266E+02  0.29377147266E+02  0.00000000000E+00 0.  1.
         21    1    1    2  502  501 -0.23134007985E+02  0.82724619239E+01  0.28047854759E+01  0.24728177719E+02  0.00000000000E+00 0.  1.
         21    1    1    2  503  502  0.23134007985E+02 -0.82724619239E+01 -0.10221028606E+02  0.26609873684E+02  0.00000000000E+00 0. -1.
</event>
<event>
 4    1  0.5548812E+002  0.2120838E+02  0.7546771E-02  0.1516310E+00
          2   -1    0    0  503    0  0.00000000000E+00  0.00000000000E+00  0.11874271498E+04  0.11874271498E+04  0.00000000000E+00 0. -1.
         -2   -1    0    0    0  501 -0.00000000000E+00 -0.00000000000E+00 -0.99238179068E+00  0.99238179068E+00  0.00000000000E+00 0.  1.
         21    1    1    2  502  501  0.68207852210E+01 -0.20081644325E+02  0.12598043893E+03  0.12775314690E+03  0.00000000000E+00 0.  1.
         21    1    1    2  503  502 -0.68207852210E+01  0.20081644325E+02  0.10604543291E+04  0.10606663847E+04  0.00000000000E+00 0. -1.
</event>
<event>
 4    1  0.5548812E+002  0.3091131E+02  0.7546771E-02  0.1411839E+00
          2   -1    0    0  502    0  0.00000000000E+00  0.00000000000E+00  0.10722376972E+03  0.10722376972E+03  0.00000000000E+00 0.  1.
         -2   -1    0    0    0  501 -0.00000000000E+00 -0.00000000000E+00 -0.57566974725E+02  0.57566974725E+02  0.00000000000E+00 0. -1.
         21    1    1    2  502  503  0.15793293768E+02 -0.26572182209E+02  0.10057839523E+03  0.10522130289E+03  0.00000000000E+00 0.  1.
         21    1    1    2  503  501 -0.15793293768E+02  0.26572182209E+02 -0.50921600240E+02  0.59569441548E+02  0.00000000000E+00 0. -1.
</event>
<event>
 4    1  0.5548812E+002  0.3241456E+02  0.7546771E-02  0.1399712E+00
          2   -1    0    0  502    0  0.00000000000E+00  0.00000000000E+00  0.11377649728E+03  0.11377649728E+03  0.00000000000E+00 0. -1.
         -2   -1    0    0    0  501 -0.00000000000E+00 -0.00000000000E+00 -0.12967343097E+02  0.12967343097E+02  0.00000000000E+00 0.  1.
         21    1    1    2  502  503  0.12601704891E+02 -0.29864709644E+02  0.84404148953E+02  0.90414402663E+02  0.00000000000E+00 0. -1.
         21    1    1    2  503  501 -0.12601704891E+02  0.29864709644E+02  0.16405005234E+02  0.36329437720E+02  0.00000000000E+00 0.  1.
</event>
<event>
 4    1  0.5548812E+002  0.2764273E+02  0.7546771E-02  0.1441256E+00
          2   -1    0    0  502    0  0.00000000000E+00  0.00000000000E+00  0.97603173511E+02  0.97603173511E+02  0.00000000000E+00 0. -1.
         -2   -1    0    0    0  501 -0.00000000000E+00 -0.00000000000E+00 -0.95959438295E+01  0.95959438295E+01  0.00000000000E+00 0.  1.
         21    1    1    2  502  503 -0.27389907831E+02 -0.37300842161E+01  0.67004640515E+02  0.72482704350E+02  0.00000000000E+00 0. -1.
         21    1    1    2  503  501  0.27389907831E+02  0.37300842161E+01  0.21002589166E+02  0.34716412991E+02  0.00000000000E+00 0.  1.
</event>
<event>
 4    1  0.5548812E+002  0.2259135E+02  0.7546771E-02  0.1497694E+00
          2   -1    0    0  503    0  0.00000000000E+00  0.00000000000E+00  0.13415798023E+03  0.13415798023E+03  0.00000000000E+00 0.  1.
         -2   -1    0    0    0  501 -0.00000000000E+00 -0.00000000000E+00 -0.57482722602E+01  0.57482722602E+01  0.00000000000E+00 0. -1.
         21    1    1    2  502  501  0.12588365068E+02  0.18759049576E+02  0.23523965547E+02  0.32615116605E+02  0.00000000000E+00 0. -1.
         21    1    1    2  503  502 -0.12588365068E+02 -0.18759049576E+02  0.10488574243E+03  0.10729113589E+03  0.00000000000E+00 0.  1.
</event>
<event>
 4    1  0.5548812E+002  0.5522622E+02  0.7546771E-02  0.1276976E+00
          2   -1    0    0  503    0  0.00000000000E+00  0.00000000000E+00  0.60480811809E+02  0.60480811809E+02  0.00000000000E+00 0. -1.
         -2   -1    0    0    0  501 -0.00000000000E+00 -0.00000000000E+00 -0.77865765234E+02  0.77865765234E+02  0.00000000000E+00 0.  1.
         21    1    1    2  502  501  0.20602580839E+02  0.51239326899E+02 -0.49754315140E+02  0.74333214873E+02  0.00000000000E+00 0.  1.
         21    1    1    2  503  502 -0.20602580839E+02 -0.51239326899E+02  0.32369361715E+02  0.64013362169E+02  0.00000000000E+00 0. -1.
</event>
<event>
 4    1  0.5548812E+002  0.4286378E+02  0.7546771E-02  0.1332475E+00
          2   -1    0    0  502    0  0.00000000000E+00  0.00000000000E+00  0.20512474527E+04  0.20512474527E+04  0.00000000000E+00 0.  1.
         -2   -1    0    0    0  501 -0.00000000000E+00 -0.00000000000E+00 -0.10097400233E+01  0.10097400233E+01  0.00000000000E+00 0. -1.
         21    1    1    2  502  503  0.14785791972E+02 -0.40232876977E+02  0.13699639765E+04  0.13706343790E+04  0.00000000000E+00 0. -1.
         21    1    1    2  503  501 -0.14785791972E+02  0.40232876977E+02  0.68027373625E+03  0.68162281378E+03  0.00000000000E+00 0.  1.
</event>
<event>
 4    1  0.5548812E+002  0.3024000E+02  0.7546771E-02  0.1417522E+00
          2   -1    0    0  502    0  0.00000000000E+00  0.00000000000E+00  0.10179402670E+04  0.10179402670E+04  0.00000000000E+00 0. -1.
         -2   -1    0    0    0  501 -0.00000000000E+00 -0.00000000000E+00 -0.25223224891E+01  0.25223224891E+01  0.00000000000E+00 0.  1.
         21    1    1    2  502  503 -0.29305304973E+02  0.74603475218E+01  0.91711788821E+03  0.91761630247E+03  0.00000000000E+00 0. -1.
         21    1    1    2  503  501  0.29305304973E+02 -0.74603475218E+01  0.98300056293E+02  0.10284628701E+03  0.00000000000E+00 0.  1.
</event>
<event>
 4    1  0.5548812E+002  0.2780322E+02  0.7546771E-02  0.1439702E+00
          2   -1    0    0  503    0  0.00000000000E+00  0.00000000000E+00  0.15404173185E+03  0.15404173185E+03  0.00000000000E+00 0. -1.
         -2   -1    0    0    0  501 -0.00000000000E+00 -0.00000000000E+00 -0.90280305370E+01  0.90280305370E+01  0.00000000000E+00 0.  1.
         21    1    1    2  502  501  0.17986570044E+02 -0.21201472770E+02  0.18168368141E+02  0.33213081015E+02  0.00000000000E+00 0.  1.
         21    1    1    2  503  502 -0.17986570044E+02  0.21201472770E+02  0.12684533317E+03  0.12985668137E+03  0.00000000000E+00 0. -1.
</event>
<event>
 4    1  0.5548812E+002  0.2326694E+02  0.7546771E-02  0.1489173E+00
          2   -1    0    0  502    0  0.00000000000E+00  0.00000000000E+00  0.45939817205E+02  0.45939817205E+02  0.00000000000E+00 0.  1.
         -2   -1    0    0    0  501 -0.00000000000E+00 -0.00000000000E+00 -0.48247202367E+02  0.48247202367E+02  0.00000000000E+00 0. -1.
         21    1    1    2  502  503 -0.21716220855E+02  0.83520146112E+01  0.39786790837E+02  0.46090553494E+02  0.00000000000E+00 0.  1.
         21    1    1    2  503  501  0.21716220855E+02 -0.83520146112E+01 -0.42094175998E+02  0.48096466079E+02  0.00000000000E+00 0. -1.
</event>
<event>
 4    1  0.5548812E+002  0.2103192E+02  0.7546771E-02  0.1518810E+00
          2   -1    0    0  503    0  0.00000000000E+00  0.00000000000E+00  0.22708885618E+02  0.22708885618E+02  0.00000000000E+00 0. -1.
         -2   -1    0    0    0  501 -0.00000000000E+00 -0.00000000000E+00 -0.24488685438E+02  0.24488685438E+02  0.00000000000E+00 0.  1.
         21    1    1    2  502  501  0.20175628626E+02 -0.59401672271E+01 -0.11563755391E+02  0.24001291963E+02  0.00000000000E+00 0.  1.
         21    1    1    2  503  502 -0.20175628626E+02  0.59401672271E+01  0.97839555716E+01  0.23196279093E+02  0.00000000000E+00 0. -1.
</event>
<event>
 4    1  0.5548812E+002  0.2613573E+02  0.7546771E-02  0.1456488E+00
          2   -1    0    0  502    0  0.00000000000E+00  0.00000000000E+00  0.79255554082E+03  0.79255554082E+03  0.00000000000E+00 0. -1.
         -2   -1    0    0    0  501 -0.00000000000E+00 -0.00000000000E+00 -0.99163009705E+00  0.99163009705E+00  0.00000000000E+00 0.  1.
         21    1    1    2  502  503  0.25642704494E+02 -0.50525301942E+01  0.53931300125E+03  0.53994591365E+03  0.00000000000E+00 0.  1.
         21    1    1    2  503  501 -0.25642704494E+02  0.50525301942E+01  0.25225090948E+03  0.25360125727E+03  0.00000000000E+00 0. -1.
</event>
<event>
 4    1  0.5548812E+002  0.2543461E+02  0.7546771E-02  0.1464000E+00
          2   -1    0    0  502    0  0.00000000000E+00  0.00000000000E+00  0.96395726031E+03  0.96395726031E+03  0.00000000000E+00 0.  1.
         -2   -1    0    0    0  501 -0.00000000000E+00 -0.00000000000E+00 -0.84118974021E+00  0.84118974021E+00  0.00000000000E+00 0. -1.
         21    1    1    2  502  503 -0.16832893705E+02 -0.19067588016E+02  0.69847261107E+03  0.69893555328E+03  0.00000000000E+00 0.  1.
         21    1    1    2  503  501  0.16832893705E+02  0.19067588016E+02  0.26464345950E+03  0.26586289677E+03  0.00000000000E+00 0. -1.
</event>
<event>
 4    1  0.5548812E+002  0.2146796E+02  0.7546771E-02  0.1512687E+00
          2   -1    0    0  502    0  0.00000000000E+00  0.00000000000E+00  0.20541308317E+03  0.20541308317E+03  0.00000000000E+00 0.  1.
         -2   -1    0    0    0  501 -0.00000000000E+00 -0.00000000000E+00 -0.50514128860E+01  0.50514128860E+01  0.00000000000E+00 0. -1.
         21    1    1    2  502  503 -0.21327130546E+02  0.24549759356E+01  0.17863630971E+03  0.17992166226E+03  0.00000000000E+00 0.  1.
         21    1    1    2  503  501  0.21327130546E+02 -0.24549759356E+01  0.21725360576E+02  0.30542833796E+02  0.00000000000E+00 0. -1.
</event>
<event>
 4    1  0.5548812E+002  0.2075980E+02  0.7546771E-02  0.1522722E+00
          2   -1    0    0  503    0  0.00000000000E+00  0.00000000000E+00  0.17344074095E+04  0.17344074095E+04  0.00000000000E+00 0. -1.
         -2   -1    0    0    0  501 -0.00000000000E+00 -0.00000000000E+00 -0.29180488993E+00  0.29180488993E+00  0.00000000000E+00 0.  1.
         21    1    1    2  502  501 -0.19498467715E+02  0.71259335658E+01  0.53285800804E+03  0.53326224871E+03  0.00000000000E+00 0.  1.
         21    1    1    2  503  502  0.19498467715E+02 -0.71259335658E+01  0.12012575966E+04  0.12014369657E+04  0.00000000000E+00 0. -1.
</event>
<event>
 4    1  0.5548812E+002  0.2215211E+02  0.7546771E-02  0.1503429E+00
          2   -1    0    0  502    0  0.00000000000E+00  0.00000000000E+00  0.53586626909E+03  0.53586626909E+03  0.00000000000E+00 0.  1.
         -2   -1    0    0    0  501 -0.00000000000E+00 -0.00000000000E+00 -0.11580066857E+01  0.11580066857E+01  0.00000000000E+00 0. -1.
         21    1    1    2  502  503  0.65548539223E+01 -0.21160098929E+02  0.14453886267E+03  0.14622653220E+03  0.00000000000E+00 0. -1.
         21    1    1    2  503  501 -0.65548539223E+01  0.21160098929E+02  0.39016939973E+03  0.39079774357E+03  0.00000000000E+00 0.  1.
</event>
<event>
 4    1  0.5548812E+002  0.2093910E+02  0.7546771E-02  0.1520136E+00
          2   -1    0    0  502    0  0.00000000000E+00  0.00000000000E+00  0.18562762763E+01  0.18562762763E+01  0.00000000000E+00 0. -1.
         -2   -1    0    0    0  501 -0.00000000000E+00 -0.00000000000E+00 -0.23842621414E+03  0.23842621414E+03  0.00000000000E+00 0.  1.
         21    1    1    2  502  503  0.80937473491E+01 -0.19311583782E+02 -0.12990311539E+03  0.13157988221E+03  0.00000000000E+00 0.  1.
         21    1    1    2  503  501 -0.80937473491E+01  0.19311583782E+02 -0.10666682247E+03  0.10870260821E+03  0.00000000000E+00 0. -1.
</event>
<event>
 4    1  0.5548812E+002  0.2422637E+02  0.7546771E-02  0.1477647E+00
          2   -1    0    0  502    0  0.00000000000E+00  0.00000000000E+00  0.87542325167E+01  0.87542325167E+01  0.00000000000E+00 0.  1.
         -2   -1    0    0    0  501 -0.00000000000E+00 -0.00000000000E+00 -0.17080501502E+03  0.17080501502E+03  0.00000000000E+00 0. -1.
         21    1    1    2  502  503 -0.13419458281E+01  0.24189177770E+02 -0.11050059457E+02  0.26627447377E+02  0.00000000000E+00 0.  1.
         21    1    1    2  503  501  0.13419458281E+01 -0.24189177770E+02 -0.15100072304E+03  0.15293180016E+03  0.00000000000E+00 0. -1.
</event>
<event>
 4    1  0.5548812E+002  0.4754008E+02  0.7546771E-02  0.1309205E+00
          2   -1    0    0  503    0  0.00000000000E+00  0.00000000000E+00  0.22920395102E+04  0.22920395102E+04  0.00000000000E+00 0. -1.
         -2   -1    0    0    0  501 -0.00000000000E+00 -0.00000000000E+00 -0.36011822052E+01  0.36011822052E+01  0.00000000000E+00 0.  1.
         21    1    1    2  502  501 -0.15042577610E+02  0.45097453155E+02  0.16608502300E+03  0.17275501234E+03  0.00000000000E+00 0.  1.
         21    1    1    2  503  502  0.15042577610E+02 -0.45097453155E+02  0.21223533050E+04  0.21228856801E+04  0.00000000000E+00 0. -1.
</event>
<event>
 4    1  0.5548812E+002  0.2018969E+02  0.7546771E-02  0.1531155E+00
          2   -1    0    0  503    0  0.00000000000E+00  0.00000000000E+00  0.11493905619E+03  0.11493905619E+03  0.00000000000E+00 0. -1.
         -2   -1    0    0    0  501 -0.00000000000E+00 -0.00000000000E+00 -0.10410625270E+02  0.10410625270E+02  0.00000000000E+00 0.  1.
         21    1    1    2  502  501 -0.56149126938E+01  0.19393207233E+02  0.13722138060E+01  0.20236271941E+02  0.00000000000E+00 0.  1.
         21    1    1    2  503  502  0.56149126938E+01 -0.19393207233E+02  0.10315621712E+03  0.10511340952E+03  0.00000000000E+00 0. -1.
</event>
<event>
 4    1  0.5548812E+002  0.2371065E+02  0.7546771E-02  0.1483762E+00
          2   -1    0    0  503    0  0.00000000000E+00  0.00000000000E+00  0.55853798632E+03  0.55853798632E+03  0.00000000000E+00 0. -1.
         -2   -1    0    0    0  501 -0.00000000000E+00 -0.00000000000E+00 -0.13589063242E+01  0.13589063242E+01  0.00000000000E+00 0.  1.
         21    1    1    2  502  501  0.12532627769E+02 -0.20127791078E+02  0.13603659688E+03  0.13808747381E+03  0.00000000000E+00 0.  1.
         21    1    1    2  503  502 -0.12532627769E+02  0.20127791078E+02  0.42114248311E+03  0.42180941883E+03  0.00000000000E+00 0. -1.
</event>
<event>
 4    1  0.5548812E+002  0.2176396E+02  0.7546771E-02  0.1508631E+00
          2   -1    0    0  503    0  0.00000000000E+00  0.00000000000E+00  0.40248922295E+02  0.40248922295E+02  0.00000000000E+00 0.  1.
         -2   -1    0    0    0  501 -0.00000000000E+00 -0.00000000000E+00 -0.17262764114E+02  0.17262764114E+02  0.00000000000E+00 0. -1.
         21    1    1    2  502  501 -0.98406924884E+01 -0.19412130549E+02 -0.47296948619E+01  0.22271956686E+02  0.00000000000E+00 0. -1.
         21    1    1    2  503  502  0.98406924884E+01  0.19412130549E+02  0.27715853042E+02  0.35239729723E+02  0.00000000000E+00 0.  1.
</event>
<event>
 4    1  0.5548812E+002  0.2089131E+02  0.7546771E-02  0.1520822E+00
          2   -1    0    0  503    0  0.00000000000E+00  0.00000000000E+00  0.12074387847E+02  0.12074387847E+02  0.00000000000E+00 0. -1.
         -2   -1    0    0    0  501 -0.00000000000E+00 -0.00000000000E+00 -0.38401371534E+02  0.38401371534E+02  0.00000000000E+00 0.  1.
         21    1    1    2  502  501 -0.50040779114E+01  0.20283148206E+02 -0.19279106434E+02  0.28427642213E+02  0.00000000000E+00 0.  1.
         21    1    1    2  503  502  0.50040779114E+01 -0.20283148206E+02 -0.70478772527E+01  0.22048117168E+02  0.00000000000E+00 0. -1.
</event>
<event>
 4    1  0.5548812E+002  0.2607713E+02  0.7546771E-02  0.1457105E+00
          2   -1    0    0  502    0  0.00000000000E+00  0.00000000000E+00  0.88782278971E+03  0.88782278971E+03  0.00000000000E+00 0. -1.
         -2   -1    0    0    0  501 -0.00000000000E+00 -0.00000000000E+00 -0.90655804552E+00  0.90655804552E+00  0.00000000000E+00 0.  1.
         21    1    1    2  502  503 -0.24589223854E+02  0.86825443678E+01  0.61846960570E+03  0.61901911900E+03  0.00000000000E+00 0. -1.
         21    1    1    2  503  501  0.24589223854E+02 -0.86825443678E+01  0.26844662596E+03  0.26971022875E+03  0.00000000000E+00 0.  1.
</event>
<event>
 4    1  0.5548812E+002  0.2324916E+02  0.7546771E-02  0.1489393E+00
          2   -1    0    0  503    0  0.00000000000E+00  0.00000000000E+00  0.23615290344E+04  0.23615290344E+04  0.00000000000E+00 0. -1.
         -2   -1    0    0    0  501 -0.00000000000E+00 -0.00000000000E+00 -0.23928433111E+00  0.23928433111E+00  0.00000000000E+00 0.  1.
         21    1    1    2  502  501 -0.18381506624E+02  0.14235298486E+02  0.93448955691E+03  0.93477872006E+03  0.00000000000E+00 0.  1.
         21    1    1    2  503  502  0.18381506624E+02 -0.14235298486E+02  0.14268001932E+04  0.14269895987E+04  0.00000000000E+00 0. -1.
</event>
<event>
 4    1  0.5548812E+002  0.3839880E+02  0.7546771E-02  0.1358133E+00
          2   -1    0    0  503    0  0.00000000000E+00  0.00000000000E+00  0.78911540394E+01  0.78911540394E+01  0.00000000000E+00 0. -1.
         -2   -1    0    0    0  501 -0.00000000000E+00 -0.00000000000E+00 -0.19219192060E+03  0.19219192060E+03  0.00000000000E+00 0.  1.
         21    1    1    2  502  501 -0.32499236554E+02  0.20451587234E+02 -0.75472830443E+02  0.84679489442E+02  0.00000000000E+00 0. -1.
         21    1    1    2  503  502  0.32499236554E+02 -0.20451587234E+02 -0.10882793612E+03  0.11540358520E+03  0.00000000000E+00 0.  1.
</event>
<event>
 4    1  0.5548812E+002  0.2089268E+02  0.7546771E-02  0.1520803E+00
          2   -1    0    0  502    0  0.00000000000E+00  0.00000000000E+00  0.77727510247E+01  0.77727510247E+01  0.00000000000E+00 0.  1.
         -2   -1    0    0    0  501 -0.00000000000E+00 -0.00000000000E+00 -0.59961769378E+02  0.59961769378E+02  0.00000000000E+00 0. -1.
         21    1    1    2  502  503  0.31498379599E+00 -0.20890303183E+02 -0.34624262935E+02  0.40439381371E+02  0.00000000000E+00 0. -1.
         21    1    1    2  503  501 -0.31498379599E+00  0.20890303183E+02 -0.17564755419E+02  0.27295139032E+02  0.00000000000E+00 0.  1.
</event>
<event>
 4    1  0.5548812E+002  0.4704844E+02  0.7546771E-02  0.1311503E+00
          2   -1    0    0  503    0  0.00000000000E+00  0.00000000000E+00  0.21198762630E+03  0.21198762630E+03  0.00000000000E+00 0. -1.
         -2   -1    0    0    0  501 -0.00000000000E+00 -0.00000000000E+00 -0.10890197340E+02  0.10890197340E+02  0.00000000000E+00 0.  1.
         21    1    1    2  502  501  0.58404444126E+01  0.46684521859E+02  0.77938847464E+02  0.91038559502E+02  0.00000000000E+00 0.  1.
         21    1    1    2  503  502 -0.58404444126E+01 -0.46684521859E+02  0.12315858149E+03  0.13183926413E+03  0.00000000000E+00 0. -1.
</event>
<event>
 4    1  0.5548812E+002  0.2273989E+02  0.7546771E-02  0.1495790E+00
          2   -1    0    0  502    0  0.00000000000E+00  0.00000000000E+00  0.32984187441E+01  0.32984187441E+01  0.00000000000E+00 0.  1.
         -2   -1    0    0    0  501 -0.00000000000E+00 -0.00000000000E+00 -0.15852551716E+03  0.15852551716E+03  0.00000000000E+00 0. -1.
         21    1    1    2  502  503 -0.12074999061E+02 -0.19269070505E+02 -0.69105962499E+02  0.72751197470E+02  0.00000000000E+00 0.  1.
         21    1    1    2  503  501  0.12074999061E+02  0.19269070505E+02 -0.86121135913E+02  0.89072738430E+02  0.00000000000E+00 0. -1.
</event>
<event>
 4    1  0.5548812E+002  0.2037097E+02  0.7546771E-02  0.1528438E+00
          2   -1    0    0  503    0  0.00000000000E+00  0.00000000000E+00  0.77792092360E+01  0.77792092360E+01  0.00000000000E+00 0. -1.
         -2   -1    0    0    0  501 -0.00000000000E+00 -0.00000000000E+00 -0.53479982024E+02  0.53479982024E+02  0.00000000000E+00 0.  1.
         21    1    1    2  502  501  0.17449864574E+02 -0.10510883658E+02 -0.24393192632E+02  0.31780564748E+02  0.00000000000E+00 0. -1.
         21    1    1    2  503  502 -0.17449864574E+02  0.10510883658E+02 -0.21307580156E+02  0.29478626512E+02  0.00000000000E+00 0.  1.
</event>
<event>
 4    1  0.5548812E+002  0.2267216E+02  0.7546771E-02  0.1496656E+00
          2   -1    0    0  502    0  0.00000000000E+00  0.00000000000E+00  0.99752355339E+03  0.99752355339E+03  0.00000000000E+00 0. -1.
         -2   -1    0    0    0  501 -0.00000000000E+00 -0.00000000000E+00 -0.12554489581E+01  0.12554489581E+01  0.00000000000E+00 0.  1.
         21    1    1    2  502  503 -0.21657136365E+02  0.67078521672E+01  0.88157507656E+03  0.88186656726E+03  0.00000000000E+00 0. -1.
         21    1    1    2  503  501  0.21657136365E+02 -0.67078521672E+01  0.11469302787E+03  0.11691243509E+03  0.00000000000E+00 0.  1.
</event>
<event>
 4    1  0.5548812E+002  0.3131657E+02  0.7546771E-02  0.1408490E+00
          2   -1    0    0  502    0  0.00000000000E+00  0.00000000000E+00  0.19249855349E+03  0.19249855349E+03  0.00000000000E+00 0.  1.
         -2   -1    0    0    0  501 -0.00000000000E+00 -0.00000000000E+00 -0.63579023337E+01  0.63579023337E+01  0.00000000000E+00 0. -1.
         21    1    1    2  502  503 -0.26831868137E+02 -0.16148637277E+02  0.13738877340E+03  0.14091274850E+03  0.00000000000E+00 0.  1.
         21    1    1    2  503  501  0.26831868137E+02  0.16148637277E+02  0.48751877757E+02  0.57943707324E+02  0.00000000000E+00 0. -1.
</event>
<event>
 4    1  0.5548812E+002  0.2423555E+02  0.7546771E-02  0.1477540E+00
          2   -1    0    0  502    0  0.00000000000E+00  0.00000000000E+00  0.84198428385E+01  0.84198428385E+01  0.00000000000E+00 0. -1.
         -2   -1    0    0    0  501 -0.00000000000E+00 -0.00000000000E+00 -0.14509678389E+03  0.14509678389E+03  0.00000000000E+00 0.  1.
         21    1    1    2  502  503 -0.24170574470E+02  0.17735403497E+01 -0.13028660902E+02  0.27515597767E+02  0.00000000000E+00 0. -1.
         21    1    1    2  503  501  0.24170574470E+02 -0.17735403497E+01 -0.12364828015E+03  0.12600102896E+03  0.00000000000E+00 0.  1.
</event>
<event>
 4    1  0.5548812E+002  0.2169675E+02  0.7546771E-02  0.1509545E+00
          2   -1    0    0  502    0  0.00000000000E+00  0.00000000000E+00  0.71095392874E+03  0.71095392874E+03  0.00000000000E+00 0.  1.
         -2   -1    0    0    0  501 -0.00000000000E+00 -0.00000000000E+00 -0.20614914884E+01  0.20614914884E+01  0.00000000000E+00 0. -1.
         21    1    1    2  502  503  0.11929468802E-01 -0.21696741969E+02  0.64817199361E+03  0.64853502763E+03  0.00000000000E+00 0.  1.
         21    1    1    2  503  501 -0.11929468802E-01  0.21696741969E+02  0.60720443634E+02  0.64480392597E+02  0.00000000000E+00 0. -1.
</event>
<event>
 4    1  0.5548812E+002  0.2399628E+02  0.7546771E-02  0.1480353E+00
          2   -1    0    0  503    0  0.00000000000E+00  0.00000000000E+00  0.12250748205E+04  0.12250748205E+04  0.00000000000E+00 0. -1.
         -2   -1    0    0    0  501 -0.00000000000E+00 -0.00000000000E+00 -0.14799226729E+01  0.14799226729E+01  0.00000000000E+00 0.  1.
         21    1    1    2  502  501 -0.76501579683E+01  0.22744158548E+02  0.10518590255E+03  0.10788834859E+03  0.00000000000E+00 0.  1.
         21    1    1    2  503  502  0.76501579683E+01 -0.22744158548E+02  0.11184089953E+04  0.11186663946E+04  0.00000000000E+00 0. -1.
</event>
<event>
 4    1  0.5548812E+002  0.4287181E+02  0.7546771E-02  0.1332432E+00
          2   -1    0    0  502    0  0.00000000000E+00  0.00000000000E+00  0.70222340984E+03  0.70222340984E+03  0.00000000000E+00 0.  1.
         -2   -1    0    0    0  501 -0.00000000000E+00 -0.00000000000E+00 -0.41345391360E+01  0.41345391360E+01  0.00000000000E+00 0. -1.
         21    1    1    2  502  503 -0.28825803212E+02 -0.31734286457E+02  0.56298619316E+03  0.56461619314E+03  0.00000000000E+00 0.  1.
         21    1    1    2  503  501  0.28825803212E+02  0.31734286457E+02  0.13510267755E+03  0.14174175584E+03  0.00000000000E+00 0. -1.
</event>
<event>
 4    1  0.5548812E+002  0.2561000E+02  0.7546771E-02  0.1462094E+00
          2   -1    0    0  503    0  0.00000000000E+00  0.00000000000E+00  0.30594349603E+02  0.30594349603E+02  0.00000000000E+00 0.  1.
         -2   -1    0    0    0  501 -0.00000000000E+00 -0.00000000000E+00 -0.22787726348E+02  0.22787726348E+02  0.00000000000E+00 0. -1.
         21    1    1    2  502  501 -0.44428068762E+01  0.25221685485E+02 -0.25933299955E+01  0.25740965640E+02  0.00000000000E+00 0. -1.
         21    1    1    2  503  502  0.44428068762E+01 -0.25221685485E+02  0.10399953250E+02  0.27641110311E+02  0.00000000000E+00 0.  1.
</event>
<event>
 4    1  0.5548812E+002  0.3575243E+02  0.7546771E-02  0.1375349E+00
          2   -1    0    0  503    0  0.00000000000E+00  0.00000000000E+00  0.12613054998E+03  0.12613054998E+03  0.00000000000E+00 0.  1.
         -2   -1    0    0    0  501 -0.00000000000E+00 -0.00000000000E+00 -0.10142284886E+02  0.10142284886E+02  0.00000000000E+00 0. -1.
         21    1    1    2  502  501 -0.28039555774E+02  0.22181519692E+02  0.59913835906E+02  0.69770367899E+02  0.00000000000E+00 0.  1.
         21    1    1    2  503  502  0.28039555774E+02 -0.22181519692E+02  0.56074429188E+02  0.66502466966E+02  0.00000000000E+00 0. -1.
</event>
<event>
 4    1  0.5548812E+002  0.2434936E+02  0.7546771E-02  0.1476215E+00
          2   -1    0    0  502    0  0.00000000000E+00  0.00000000000E+00  0.15129218493E+04  0.15129218493E+04  0.00000000000E+00 0.  1.
         -2   -1    0    0    0  501 -0.00000000000E+00 -0.00000000000E+00 -0.40432839685E+00  0.40432839685E+00  0.00000000000E+00 0. -1.
         21    1    1    2  502  503 -0.24032368193E+02 -0.39161938181E+01  0.88900000071E+03  0.88933339787E+03  0.00000000000E+00 0.  1.
         21    1    1    2  503  501  0.24032368193E+02  0.39161938181E+01  0.62351752023E+03  0.62399277987E+03  0.00000000000E+00 0. -1.
</event>
<event>
 4    1  0.5548812E+002  0.2875125E+02  0.7546771E-02  0.1430767E+00
          2   -1    0    0  503    0  0.00000000000E+00  0.00000000000E+00  0.17430112102E+02  0.17430112102E+02  0.00000000000E+00 0. -1.
         -2   -1    0    0    0  501 -0.00000000000E+00 -0.00000000000E+00 -0.81786964293E+02  0.81786964293E+02  0.00000000000E+00 0.  1.
         21    1    1    2  502  501 -0.25387476445E+02  0.13494832180E+02 -0.64333480403E+02  0.70465815517E+02  0.00000000000E+00 0.  1.
         21    1    1    2  503  502  0.25387476445E+02 -0.13494832180E+02 -0.23371788152E-01  0.28751260878E+02  0.00000000000E+00 0. -1.
</event>
<event>
 4    1  0.5548812E+002  0.2380689E+02  0.7546771E-02  0.1482607E+00
          2   -1    0    0  502    0  0.00000000000E+00  0.00000000000E+00  0.51317035458E+02  0.51317035458E+02  0.00000000000E+00 0.  1.
         -2   -1    0    0    0  501 -0.00000000000E+00 -0.00000000000E+00 -0.64649953321E+02  0.64649953321E+02  0.00000000000E+00 0. -1.
         21    1    1    2  502  503 -0.11786480644E+02  0.20684454732E+02  0.46132458294E+02  0.51913114930E+02  0.00000000000E+00 0.  1.
         21    1    1    2  503  501  0.11786480644E+02 -0.20684454732E+02 -0.59465376158E+02  0.64053873849E+02  0.00000000000E+00 0. -1.
</event>
<event>
 4    1  0.5548812E+002  0.2972041E+02  0.7546771E-02  0.1422042E+00
          2   -1    0    0  502    0  0.00000000000E+00  0.00000000000E+00  0.31901683194E+02  0.31901683194E+02  0.00000000000E+00 0. -1.
         -2   -1    0    0    0  501 -0.00000000000E+00 -0.00000000000E+00 -0.27834505252E+02  0.27834505252E+02  0.00000000000E+00 0.  1.
         21    1    1    2  502  503  0.25807879955E+02 -0.14739603288E+02 -0.13129476397E+00  0.29720696681E+02  0.00000000000E+00 0. -1.
         21    1    1    2  503  501 -0.25807879955E+02  0.14739603288E+02  0.41984727062E+01  0.30015491766E+02  0.00000000000E+00 0.  1.
</event>
<event>
 4    1  0.5548812E+002  0.2128536E+02  0.7546771E-02  0.1515229E+00
          2   -1    0    0  502    0  0.00000000000E+00  0.00000000000E+00  0.12035770103E+04  0.12035770103E+04  0.00000000000E+00 0. -1.
         -2   -1    0    0    0  501 -0.00000000000E+00 -0.00000000000E+00 -0.69434237379E+00  0.69434237379E+00  0.00000000000E+00 0.  1.
         21    1    1    2  502  503 -0.20353217624E+02 -0.62300288173E+01  0.10088768078E+04  0.10091013230E+04  0.00000000000E+00 0. -1.
         21    1    1    2  503  501  0.20353217624E+02  0.62300288173E+01  0.19400586013E+03  0.19517002970E+03  0.00000000000E+00 0.  1.
</event>
<event>
 4    1  0.5548812E+002  0.3480098E+02  0.7546771E-02  0.1381968E+00
          2   -1    0    0  502    0  0.00000000000E+00  0.00000000000E+00  0.39296658000E+02  0.39296658000E+02  0.00000000000E+00 0. -1.
         -2   -1    0    0    0  501 -0.00000000000E+00 -0.00000000000E+00 -0.33515974567E+02  0.33515974567E+02  0.00000000000E+00 0.  1.
         21    1    1    2  502  503  0.24043833619E+02 -0.25159539941E+02  0.13216497191E+02  0.37226122322E+02  0.00000000000E+00 0. -1.
         21    1    1    2  503  501 -0.24043833619E+02  0.25159539941E+02 -0.74358137588E+01  0.35586510245E+02  0.00000000000E+00 0.  1.
</event>
<event>
 4    1  0.5548812E+002  0.2159444E+02  0.7546771E-02  0.1510944E+00
          2   -1    0    0  502    0  0.00000000000E+00  0.00000000000E+00  0.39917395222E+01  0.39917395222E+01  0.00000000000E+00 0.  1.
         -2   -1    0    0    0  501 -0.00000000000E+00 -0.00000000000E+00 -0.44881133758E+03  0.44881133758E+03  0.00000000000E+00 0. -1.
         21    1    1    2  502  503 -0.21109347084E+02  0.45514070749E+01 -0.27690028585E+02  0.35114918819E+02  0.00000000000E+00 0.  1.
         21    1    1    2  503  501  0.21109347084E+02 -0.45514070749E+01 -0.41712956947E+03  0.41768815828E+03  0.00000000000E+00 0. -1.
</event>
<event>
 4    1  0.5548812E+002  0.2173131E+02  0.7546771E-02  0.1509075E+00
          2   -1    0    0  503    0  0.00000000000E+00  0.00000000000E+00  0.21215101367E+04  0.21215101367E+04  0.00000000000E+00 0.  1.
         -2   -1    0    0    0  501 -0.00000000000E+00 -0.00000000000E+00 -0.30509365362E+00  0.30509365362E+00  0.00000000000E+00 0. -1.
         21    1    1    2  502  501 -0.19091213475E+02 -0.10381501262E+02  0.50894574002E+03  0.50940947801E+03  0.00000000000E+00 0. -1.
         21    1    1    2  503  502  0.19091213475E+02  0.10381501262E+02  0.16122593030E+04  0.16124057523E+04  0.00000000000E+00 0.  1.
</event>
<event>
 4    1  0.5548812E+002  0.2097619E+02  0.7546771E-02  0.1519605E+00
          2   -1    0    0  502    0  0.00000000000E+00  0.00000000000E+00  0.57347690534E+00  0.57347690534E+00  0.00000000000E+00 0. -1.
         -2   -1    0    0    0  501 -0.00000000000E+00 -0.00000000000E+00 -0.78667727909E+03  0.78667727909E+03  0.00000000000E+00 0.  1.
         21    1    1    2  502  503  0.20919420682E+02 -0.15421625977E+01 -0.33119538094E+03  0.33185897725E+03  0.00000000000E+00 0. -1.
         21    1    1    2  503  501 -0.20919420682E+02  0.15421625977E+01 -0.45490842125E+03  0.45539177875E+03  0.00000000000E+00 0.  1.
</event>
<event>
 4    1  0.5548812E+002  0.3016838E+02  0.7546771E-02  0.1418139E+00
          2   -1    0    0  502    0  0.00000000000E+00  0.00000000000E+00  0.21620544952E+03  0.21620544952E+03  0.00000000000E+00 0. -1.
         -2   -1    0    0    0  501 -0.00000000000E+00 -0.00000000000E+00 -0.66809838570E+01  0.66809838570E+01  0.00000000000E+00 0.  1.
         21    1    1    2  502  503  0.21038814186E+02  0.21621738269E+02  0.17254299585E+03  0.17516054546E+03  0.00000000000E+00 0. -1.
         21    1    1    2  503  501 -0.21038814186E+02 -0.21621738269E+02  0.36981469810E+02  0.47725887917E+02  0.00000000000E+00 0.  1.
</event>
<event>
 4    1  0.5548812E+002  0.3968384E+02  0.7546771E-02  0.1350349E+00
          2   -1    0    0  502    0  0.00000000000E+00  0.00000000000E+00  0.24409406420E+03  0.24409406420E+03  0.00000000000E+00 0.  1.
         -2   -1    0    0    0  501 -0.00000000000E+00 -0.00000000000E+00 -0.64517903864E+01  0.64517903864E+01  0.00000000000E+00 0. -1.
         21    1    1    2  502  503 -0.79390007260E+01  0.38881607353E+02  0.11942517116E+03  0.12584585265E+03  0.00000000000E+00 0.  1.
         21    1    1    2  503  501  0.79390007260E+01 -0.38881607353E+02  0.11821710265E+03  0.12470000193E+03  0.00000000000E+00 0. -1.
</event>
<event>
 4    1  0.5548812E+002  0.4005858E+02  0.7546771E-02  0.1348143E+00
          2   -1    0    0  502    0  0.00000000000E+00  0.00000000000E+00  0.18964845586E+03  0.18964845586E+03  0.00000000000E+00 0.  1.
         -2   -1    0    0    0  501 -0.00000000000E+00 -0.00000000000E+00 -0.38308991598E+02  0.38308991598E+02  0.00000000000E+00 0. -1.
         21    1    1    2  502  503 -0.28418215385E+02 -0.28232873447E+02  0.17627671560E+03  0.18077104462E+03  0.00000000000E+00 0.  1.
         21    1    1    2  503  501  0.28418215385E+02  0.28232873447E+02 -0.24937251339E+02  0.47186402841E+02  0.00000000000E+00 0. -1.
</event>
<event>
 4    1  0.5548812E+002  0.2037611E+02  0.7546771E-02  0.1528362E+00
          2   -1    0    0  502    0  0.00000000000E+00  0.00000000000E+00  0.71297034550E+03  0.71297034550E+03  0.00000000000E+00 0. -1.
         -2   -1    0    0    0  501 -0.00000000000E+00 -0.00000000000E+00 -0.58923277999E+00  0.58923277999E+00  0.00000000000E+00 0.  1.
         21    1    1    2  502  503 -0.17343426382E+01  0.20302166238E+02  0.31758178562E+03  0.31823478197E+03  0.00000000000E+00 0. -1.
         21    1    1    2  503  501  0.17343426382E+01 -0.20302166238E+02  0.39479932710E+03  0.39532479631E+03  0.00000000000E+00 0.  1.
</event>
<event>
 4    1  0.5548812E+002  0.2473767E+02  0.7546771E-02  0.1471760E+00
          2   -1    0    0  502    0  0.00000000000E+00  0.00000000000E+00  0.66607704216E+02  0.66607704216E+02  0.00000000000E+00 0.  1.
         -2   -1    0    0    0  501 -0.00000000000E+00 -0.00000000000E+00 -0.11552363967E+02  0.11552363967E+02  0.00000000000E+00 0. -1.
         21    1    1    2  502  503 -0.19838116102E+02  0.14778405193E+02  0.45209658165E+02  0.51535088065E+02  0.00000000000E+00 0. -1.
         21    1    1    2  503  501  0.19838116102E+02 -0.14778405193E+02  0.98456820847E+01  0.26624980117E+02  0.00000000000E+00 0.  1.
</event>
<event>
 4    1  0.5548812E+002  0.2987080E+02  0.7546771E-02  0.1420723E+00
          2   -1    0    0  502    0  0.00000000000E+00  0.00000000000E+00  0.14784309219E+04  0.14784309219E+04  0.00000000000E+00 0. -1.
         -2   -1    0    0    0  501 -0.00000000000E+00 -0.00000000000E+00 -0.93470890344E+00  0.93470890344E+00  0.00000000000E+00 0.  1.
         21    1    1    2  502  503  0.29164362496E+02  0.64579197478E+01  0.11790436402E+04  0.11794219645E+04  0.00000000000E+00 0. -1.
         21    1    1    2  503  501 -0.29164362496E+02 -0.64579197478E+01  0.29845257274E+03  0.29994366628E+03  0.00000000000E+00 0.  1.
</event>
<event>
 4    1  0.5548812E+002  0.2902269E+02  0.7546771E-02  0.1428284E+00
          2   -1    0    0  503    0  0.00000000000E+00  0.00000000000E+00  0.58540316558E+03  0.58540316558E+03  0.00000000000E+00 0. -1.
         -2   -1    0    0    0  501 -0.00000000000E+00 -0.00000000000E+00 -0.19700075354E+01  0.19700075354E+01  0.00000000000E+00 0.  1.
         21    1    1    2  502  501 -0.28273375535E+02 -0.65523135557E+01  0.13922165288E+03  0.14221457452E+03  0.00000000000E+00 0.  1.
         21    1    1    2  503  502  0.28273375535E+02  0.65523135557E+01  0.44421150517E+03  0.44515859860E+03  0.00000000000E+00 0. -1.
</event>
<event>
 4    1  0.5548812E+002  0.2193964E+02  0.7546771E-02  0.1506260E+00
          2   -1    0    0  503    0  0.00000000000E+00  0.00000000000E+00  0.37261673663E+03  0.37261673663E+03  0.00000000000E+00 0.  1.
         -2   -1    0    0    0  501 -0.00000000000E+00 -0.00000000000E+00 -0.12918126941E+01  0.12918126941E+01  0.00000000000E+00 0. -1.
         21    1    1    2  502  501 -0.20520579775E+02 -0.77623165774E+01  0.18517462483E+03  0.18646980837E+03  0.00000000000E+00 0. -1.
         21    1    1    2  503  502  0.20520579775E+02  0.77623165774E+01  0.18615029911E+03  0.18743874096E+03  0.00000000000E+00 0.  1.
</event>
<event>
 4    1  0.5548812E+002  0.2755787E+02  0.7546771E-02  0.1442083E+00
          2   -1    0    0  502    0  0.00000000000E+00  0.00000000000E+00  0.11767664360E+04  0.11767664360E+04  0.00000000000E+00 0.  1.
         -2   -1    0    0    0  501 -0.00000000000E+00 -0.00000000000E+00 -0.95774701355E+01  0.95774701355E+01  0.00000000000E+00 0. -1.
         21    1    1    2  502  503  0.56906219154E+01 -0.26963919198E+02  0.11564330877E+04  0.11567613939E+04  0.00000000000E+00 0.  1.
         21    1    1    2  503  501 -0.56906219154E+01  0.26963919198E+02  0.10755878215E+02  0.29582512275E+02  0.00000000000E+00 0. -1.
</event>
<event>
 4    1  0.5548812E+002  0.2585302E+02  0.7546771E-02  0.1459483E+00
          2   -1    0    0  503    0  0.00000000000E+00  0.00000000000E+00  0.86543702840E+03  0.86543702840E+03  0.00000000000E+00 0. -1.
         -2   -1    0    0    0  501 -0.00000000000E+00 -0.00000000000E+00 -0.13109744619E+01  0.13109744619E+01  0.00000000000E+00 0.  1.
         21    1    1    2  502  501  0.20763068000E+02  0.15403688287E+02  0.15426561754E+03  0.15641694077E+03  0.00000000000E+00 0.  1.
         21    1    1    2  503  502 -0.20763068000E+02 -0.15403688287E+02  0.70986043640E+03  0.71033106209E+03  0.00000000000E+00 0. -1.
</event>
<event>
 4    1  0.5548812E+002  0.2649027E+02  0.7546771E-02  0.1452797E+00
          2   -1    0    0  503    0  0.00000000000E+00  0.00000000000E+00  0.86956921648E+02  0.86956921648E+02  0.00000000000E+00 0. -1.
         -2   -1    0    0    0  501 -0.00000000000E+00 -0.00000000000E+00 -0.86054552695E+01  0.86054552695E+01  0.00000000000E+00 0.  1.
         21    1    1    2  502  501 -0.25922775990E+02 -0.54538375758E+01  0.51095493433E+02  0.57554184109E+02  0.00000000000E+00 0. -1.
         21    1    1    2  503  502  0.25922775990E+02  0.54538375758E+01  0.27255972946E+02  0.38008192808E+02  0.00000000000E+00 0.  1.
</event>
<event>
 4    1  0.5548812E+002  0.2149121E+02  0.7546771E-02  0.1512366E+00
          2   -1    0    0  502    0  0.00000000000E+00  0.00000000000E+00  0.57529494204E+03  0.57529494204E+03  0.00000000000E+00 0. -1.
         -2   -1    0    0    0  501 -0.00000000000E+00 -0.00000000000E+00 -0.17695037032E+01  0.17695037032E+01  0.00000000000E+00 0.  1.
         21    1    1    2  502  503 -0.21057255305E+02 -0.42969945559E+01  0.50002073461E+03  0.50048237452E+03  0.00000000000E+00 0. -1.
         21    1    1    2  503  501  0.21057255305E+02  0.42969945559E+01  0.73504703732E+02  0.76582071230E+02  0.00000000000E+00 0.  1.
</event>
<event>
 4    1  0.5548812E+002  0.2019778E+02  0.7546771E-02  0.1531034E+00
          2   -1    0    0  503    0  0.00000000000E+00  0.00000000000E+00  0.17135265669E+04  0.17135265669E+04  0.00000000000E+00 0. -1.
         -2   -1    0    0    0  501 -0.00000000000E+00 -0.00000000000E+00 -0.39352857485E+00  0.39352857485E+00  0.00000000000E+00 0.  1.
         21    1    1    2  502  501 -0.19999526104E+02  0.28229635551E+01  0.31796088012E+03  0.31860174428E+03  0.00000000000E+00 0. -1.
         21    1    1    2  503  502  0.19999526104E+02 -0.28229635551E+01  0.13951721582E+04  0.13953183512E+04  0.00000000000E+00 0.  1.
</event>
<event>
 4    1  0.5548812E+002  0.2021406E+02  0.7546771E-02  0.1530788E+00
          2   -1    0    0  503    0  0.00000000000E+00  0.00000000000E+00  0.11264479104E+04  0.11264479104E+04  0.00000000000E+00 0.  1.
         -2   -1    0    0    0  501 -0.00000000000E+00 -0.00000000000E+00 -0.44053676683E+00  0.44053676683E+00  0.00000000000E+00 0. -1.
         21    1    1    2  502  501  0.18186169540E+02 -0.88244734827E+01  0.32622659394E+03  0.32685225819E+03  0.00000000000E+00 0.  1.
         21    1    1    2  503  502 -0.18186169540E+02  0.88244734827E+01  0.79978077967E+03  0.80003618894E+03  0.00000000000E+00 0. -1.
</event>
<event>
 4    1  0.5548812E+002  0.6217633E+02  0.7546771E-02  0.1252612E+00
          2   -1    0    0  502    0  0.00000000000E+00  0.00000000000E+00  0.29603723697E+03  0.29603723697E+03  0.00000000000E+00 0.  1.
         -2   -1    0    0    0  501 -0.00000000000E+00 -0.00000000000E+00 -0.15429956799E+02  0.15429956799E+02  0.00000000000E+00 0. -1.
         21    1    1    2  502  503  0.19173212911E+01  0.62146758205E+02  0.20135265650E+03  0.21073392692E+03  0.00000000000E+00 0.  1.
         21    1    1    2  503  501 -0.19173212911E+01 -0.62146758205E+02  0.79254623672E+02  0.10073326685E+03  0.00000000000E+00 0. -1.
</event>
<event>
 4    1  0.5548812E+002  0.2206328E+02  0.7546771E-02  0.1504608E+00
          2   -1    0    0  502    0  0.00000000000E+00  0.00000000000E+00  0.67304491709E+03  0.67304491709E+03  0.00000000000E+00 0. -1.
         -2   -1    0    0    0  501 -0.00000000000E+00 -0.00000000000E+00 -0.10692592706E+01  0.10692592706E+01  0.00000000000E+00 0.  1.
         21    1    1    2  502  503 -0.97790850612E+01 -0.19777710084E+02  0.52772124726E+03  0.52818226317E+03  0.00000000000E+00 0. -1.
         21    1    1    2  503  501  0.97790850612E+01  0.19777710084E+02  0.14425441056E+03  0.14593191319E+03  0.00000000000E+00 0.  1.
</event>
<event>
 4    1  0.5548812E+002  0.2484997E+02  0.7546771E-02  0.1470489E+00
          2   -1    0    0  502    0  0.00000000000E+00  0.00000000000E+00  0.70052783531E+02  0.70052783531E+02  0.00000000000E+00 0. -1.
         -2   -1    0    0    0  501 -0.00000000000E+00 -0.00000000000E+00 -0.11398994830E+02  0.11398994830E+02  0.00000000000E+00 0.  1.
         21    1    1    2  502  503  0.15049518468E+02  0.19774559116E+02  0.48716814929E+02  0.54688657427E+02  0.00000000000E+00 0. -1.
         21    1    1    2  503  501 -0.15049518468E+02 -0.19774559116E+02  0.99369737716E+01  0.26763120933E+02  0.00000000000E+00 0.  1.
</event>
<event>
 4    1  0.5548812E+002  0.2563801E+02  0.7546771E-02  0.1461791E+00
          2   -1    0    0  502    0  0.00000000000E+00  0.00000000000E+00  0.17832739974E+03  0.17832739974E+03  0.00000000000E+00 0. -1.
         -2   -1    0    0    0  501 -0.00000000000E+00 -0.00000000000E+00 -0.53553511636E+01  0.53553511636E+01  0.00000000000E+00 0.  1.
         21    1    1    2  502  503 -0.28001522919E+01  0.25484632997E+02  0.13776314955E+03  0.14012848656E+03  0.00000000000E+00 0. -1.
         21    1    1    2  503  501  0.28001522919E+01 -0.25484632997E+02  0.35208899029E+02  0.43554264346E+02  0.00000000000E+00 0.  1.
</event>
<event>
 4    1  0.5548812E+002  0.2084555E+02  0.7546771E-02  0.1521481E+00
          2   -1    0    0  502    0  0.00000000000E+00  0.00000000000E+00  0.15721598075E+03  0.15721598075E+03  0.00000000000E+00 0. -1.
         -2   -1    0    0    0  501 -0.00000000000E+00 -0.00000000000E+00 -0.49756781936E+01  0.49756781936E+01  0.00000000000E+00 0.  1.
         21    1    1    2  502  503  0.10853214585E+02  0.17797324402E+02  0.13018790286E+03  0.13184622510E+03  0.00000000000E+00 0. -1.
         21    1    1    2  503  501 -0.10853214585E+02 -0.17797324402E+02  0.22052399700E+02  0.30345433845E+02  0.00000000000E+00 0.  1.
</event>
<event>
 4    1  0.5548812E+002  0.6103677E+02  0.7546771E-02  0.1256350E+00
          2   -1    0    0  502    0  0.00000000000E+00  0.00000000000E+00  0.22149305803E+04  0.22149305803E+04  0.00000000000E+00 0. -1.
         -2   -1    0    0    0  501 -0.00000000000E+00 -0.00000000000E+00 -0.22055917757E+01  0.22055917757E+01  0.00000000000E+00 0.  1.
         21    1    1    2  502  503 -0.55275490472E+02 -0.25886423349E+02  0.16464960645E+04  0.16476270140E+04  0.00000000000E+00 0. -1.
         21    1    1    2  503  501  0.55275490472E+02  0.25886423349E+02  0.56622892402E+03  0.56950915810E+03  0.00000000000E+00 0.  1.
</event>
<event>
 4    1  0.5548812E+002  0.2353424E+02  0.7546771E-02  0.1485896E+00
          2   -1    0    0  503    0  0.00000000000E+00  0.00000000000E+00  0.30441222593E+04  0.30441222593E+04  0.00000000000E+00 0.  1.
         -2   -1    0    0    0  501 -0.00000000000E+00 -0.00000000000E+00 -0.18527880291E+00  0.18527880291E+00  0.00000000000E+00 0. -1.
         21    1    1    2  502  501 -0.21910149032E+02 -0.85910278319E+01  0.13177628619E+04  0.13179729969E+04  0.00000000000E+00 0. -1.
         21    1    1    2  503  502  0.21910149032E+02  0.85910278319E+01  0.17261741186E+04  0.17263345412E+04  0.00000000000E+00 0.  1.
</event>
<event>
 4    1  0.5548812E+002  0.2421330E+02  0.7546771E-02  0.1477800E+00
          2   -1    0    0  502    0  0.00000000000E+00  0.00000000000E+00  0.12696849102E+02  0.12696849102E+02  0.00000000000E+00 0.  1.
         -2   -1    0    0    0  501 -0.00000000000E+00 -0.00000000000E+00 -0.60053269700E+02  0.60053269700E+02  0.00000000000E+00 0. -1.
         21    1    1    2  502  503  0.24210993074E+02  0.33435861918E+00 -0.41164370349E+02  0.47757610573E+02  0.00000000000E+00 0. -1.
         21    1    1    2  503  501 -0.24210993074E+02 -0.33435861918E+00 -0.61920502481E+01  0.24992508230E+02  0.00000000000E+00 0.  1.
</event>
<event>
 4    1  0.5548812E+002  0.2074984E+02  0.7546771E-02  0.1522867E+00
          2   -1    0    0  503    0  0.00000000000E+00  0.00000000000E+00  0.93796990600E+01  0.93796990600E+01  0.00000000000E+00 0.  1.
         -2   -1    0    0    0  501 -0.00000000000E+00 -0.00000000000E+00 -0.25435727439E+03  0.25435727439E+03  0.00000000000E+00 0. -1.
         21    1    1    2  502  501 -0.54915814048E+01 -0.20009955189E+02 -0.24186681688E+03  0.24275525305E+03  0.00000000000E+00 0. -1.
         21    1    1    2  503  502  0.54915814048E+01  0.20009955189E+02 -0.31107584490E+01  0.20981720404E+02  0.00000000000E+00 0.  1.
</event>
<event>
 4    1  0.5548812E+002  0.2560042E+02  0.7546771E-02  0.1462197E+00
          2   -1    0    0  503    0  0.00000000000E+00  0.00000000000E+00  0.51816355210E+01  0.51816355210E+01  0.00000000000E+00 0. -1.
         -2   -1    0    0    0  501 -0.00000000000E+00 -0.00000000000E+00 -0.16393240452E+03  0.16393240452E+03  0.00000000000E+00 0.  1.
         21    1    1    2  502  501  0.25598143908E+02  0.34171276203E+00 -0.11979085418E+03  0.12249583864E+03  0.00000000000E+00 0.  1.
         21    1    1    2  503  502 -0.25598143908E+02 -0.34171276203E+00 -0.38959914823E+02  0.46618201404E+02  0.00000000000E+00 0. -1.
</event>
<event>
 4    1  0.5548812E+002  0.2349838E+02  0.7546771E-02  0.1486333E+00
          2   -1    0    0  503    0  0.00000000000E+00  0.00000000000E+00  0.59427446423E+03  0.59427446423E+03  0.00000000000E+00 0. -1.
         -2   -1    0    0    0  501 -0.00000000000E+00 -0.00000000000E+00 -0.13713010159E+01  0.13713010159E+01  0.00000000000E+00 0.  1.
         21    1    1    2  502  501 -0.20281557909E+02 -0.11867280665E+02  0.12733981825E+03  0.12948978050E+03  0.00000000000E+00 0.  1.
         21    1    1    2  503  502  0.20281557909E+02  0.11867280665E+02  0.46556334497E+03  0.46615598475E+03  0.00000000000E+00 0. -1.
</event>
<event>
 4    1  0.5548812E+002  0.2352183E+02  0.7546771E-02  0.1486047E+00
          2   -1    0    0  503    0  0.00000000000E+00  0.00000000000E+00  0.55305495724E+03  0.55305495724E+03  0.00000000000E+00 0. -1.
         -2   -1    0    0    0  501 -0.00000000000E+00 -0.00000000000E+00 -0.13912160177E+01  0.13912160177E+01  0.00000000000E+00 0.  1.
         21    1    1    2  502  501  0.15977236774E+02  0.17262802137E+02  0.12889931477E+03  0.13102789695E+03  0.00000000000E+00 0.  1.
         21    1    1    2  503  502 -0.15977236774E+02 -0.17262802137E+02  0.42276442645E+03  0.42341827630E+03  0.00000000000E+00 0. -1.
</event>
<event>
 4    1  0.5548812E+002  0.2383550E+02  0.7546771E-02  0.1482265E+00
          2   -1    0    0  502    0  0.00000000000E+00  0.00000000000E+00  0.32468292453E+03  0.32468292453E+03  0.00000000000E+00 0.  1.
         -2   -1    0    0    0  501 -0.00000000000E+00 -0.00000000000E+00 -0.25942555792E+01  0.25942555792E+01  0.00000000000E+00 0. -1.
         21    1    1    2  502  503 -0.13453580714E+02  0.19675677613E+02  0.25440565968E+03  0.25551980511E+03  0.00000000000E+00 0.  1.
         21    1    1    2  503  501  0.13453580714E+02 -0.19675677613E+02  0.67683009268E+02  0.71757375002E+02  0.00000000000E+00 0. -1.
</event>
<event>
 4    1  0.5548812E+002  0.2234348E+02  0.7546771E-02  0.1500911E+00
          2   -1    0    0  503    0  0.00000000000E+00  0.00000000000E+00  0.52585660722E+01  0.52585660722E+01  0.00000000000E+00 0. -1.
         -2   -1    0    0    0  501 -0.00000000000E+00 -0.00000000000E+00 -0.38480568679E+03  0.38480568679E+03  0.00000000000E+00 0.  1.
         21    1    1    2  502  501  0.20499846167E+02  0.88874887272E+01 -0.35904600146E+03  0.35974054861E+03  0.00000000000E+00 0.  1.
         21    1    1    2  503  502 -0.20499846167E+02 -0.88874887272E+01 -0.20501119254E+02  0.30323704250E+02  0.00000000000E+00 0. -1.
</event>
<event>
 4    1  0.5548812E+002  0.7400623E+02  0.7546771E-02  0.1218491E+00
          2   -1    0    0  502    0  0.00000000000E+00  0.00000000000E+00  0.29636421328E+04  0.29636421328E+04  0.00000000000E+00 0. -1.
         -2   -1    0    0    0  501 -0.00000000000E+00 -0.00000000000E+00 -0.23432823331E+01  0.23432823331E+01  0.00000000000E+00 0.  1.
         21    1    1    2  502  503  0.32258903802E+02 -0.66605444014E+02  0.21624174773E+04  0.21636834954E+04  0.00000000000E+00 0. -1.
         21    1    1    2  503  501 -0.32258903802E+02  0.66605444014E+02  0.79888137319E+03  0.80230191978E+03  0.00000000000E+00 0.  1.
</event>
<event>
 4    1  0.5548812E+002  0.2933329E+02  0.7546771E-02  0.1425480E+00
          2   -1    0    0  502    0  0.00000000000E+00  0.00000000000E+00  0.89025126849E+03  0.89025126849E+03  0.00000000000E+00 0. -1.
         -2   -1    0    0    0  501 -0.00000000000E+00 -0.00000000000E+00 -0.22282550218E+01  0.22282550218E+01  0.00000000000E+00 0.  1.
         21    1    1    2  502  503  0.17474272361E+02 -0.23560385216E+02  0.77980371475E+03  0.78035522391E+03  0.00000000000E+00 0. -1.
         21    1    1    2  503  501 -0.17474272361E+02  0.23560385216E+02  0.10821929872E+03  0.11212429960E+03  0.00000000000E+00 0.  1.
</event>
<event>
 4    1  0.5548812E+002  0.6463089E+02  0.7546771E-02  0.1244861E+00
          2   -1    0    0  503    0  0.00000000000E+00  0.00000000000E+00  0.32087537463E+03  0.32087537463E+03  0.00000000000E+00 0. -1.
         -2   -1    0    0    0  501 -0.00000000000E+00 -0.00000000000E+00 -0.22079678776E+02  0.22079678776E+02  0.00000000000E+00 0.  1.
         21    1    1    2  502  501 -0.52210251492E+02  0.38095164024E+02  0.39543956317E+02  0.75768571084E+02  0.00000000000E+00 0.  1.
         21    1    1    2  503  502  0.52210251492E+02 -0.38095164024E+02  0.25925173953E+03  0.26718648232E+03  0.00000000000E+00 0. -1.
</event>
<event>
 4    1  0.5548812E+002  0.2123466E+02  0.7546771E-02  0.1515941E+00
          2   -1    0    0  502    0  0.00000000000E+00  0.00000000000E+00  0.26660996861E+02  0.26660996861E+02  0.00000000000E+00 0.  1.
         -2   -1    0    0    0  501 -0.00000000000E+00 -0.00000000000E+00 -0.17839317325E+02  0.17839317325E+02  0.00000000000E+00 0. -1.
         21    1    1    2  502  503  0.18442171679E+02 -0.10526021578E+02 -0.66002467559E+00  0.21244916076E+02  0.00000000000E+00 0.  1.
         21    1    1    2  503  501 -0.18442171679E+02  0.10526021578E+02  0.94817042116E+01  0.23255398110E+02  0.00000000000E+00 0. -1.
</event>
<event>
 4    1  0.5548812E+002  0.2166828E+02  0.7546771E-02  0.1509934E+00
          2   -1    0    0  503    0  0.00000000000E+00  0.00000000000E+00  0.18667072451E+01  0.18667072451E+01  0.00000000000E+00 0. -1.
         -2   -1    0    0    0  501 -0.00000000000E+00 -0.00000000000E+00 -0.31554685410E+03  0.31554685410E+03  0.00000000000E+00 0.  1.
         21    1    1    2  502  501  0.14253575637E+02  0.16320233544E+02 -0.22832989442E+03  0.22935573925E+03  0.00000000000E+00 0.  1.
         21    1    1    2  503  502 -0.14253575637E+02 -0.16320233544E+02 -0.85350252438E+02  0.88057822098E+02  0.00000000000E+00 0. -1.
</event>
<event>
 4    1  0.5548812E+002  0.4956393E+02  0.7546771E-02  0.1300074E+00
          2   -1    0    0  502    0  0.00000000000E+00  0.00000000000E+00  0.31742704304E+02  0.31742704304E+02  0.00000000000E+00 0. -1.
         -2   -1    0    0    0  501 -0.00000000000E+00 -0.00000000000E+00 -0.78393704293E+02  0.78393704293E+02  0.00000000000E+00 0.  1.
         21    1    1    2  502  503  0.32437193965E+02  0.37475477993E+02 -0.29555099921E+02  0.57706905431E+02  0.00000000000E+00 0.  1.
         21    1    1    2  503  501 -0.32437193965E+02 -0.37475477993E+02 -0.17095900069E+02  0.52429503166E+02  0.00000000000E+00 0. -1.
</event>
<event>
 4    1  0.5548812E+002  0.3102554E+02  0.7546771E-02  0.1410889E+00
          2   -1    0    0  502    0  0.00000000000E+00  0.00000000000E+00  0.42604907905E+02  0.42604907905E+02  0.00000000000E+00 0.  1.
         -2   -1    0    0    0  501 -0.00000000000E+00 -0.00000000000E+00 -0.88120666102E+02  0.88120666102E+02  0.00000000000E+00 0. -1.
         21    1    1    2  502  503 -0.30977202790E+02  0.17311607875E+01  0.33606294674E+02  0.45738026325E+02  0.00000000000E+00 0.  1.
         21    1    1    2  503  501  0.30977202790E+02 -0.17311607875E+01 -0.79122052872E+02  0.84987547682E+02  0.00000000000E+00 0. -1.
</event>
<event>
 4    1  0.5548812E+002  0.2252897E+02  0.7546771E-02  0.1498499E+00
          2   -1    0    0  503    0  0.00000000000E+00  0.00000000000E+00  0.74242723053E+00  0.74242723053E+00  0.00000000000E+00 0. -1.
         -2   -1    0    0    0  501 -0.00000000000E+00 -0.00000000000E+00 -0.72205148226E+03  0.72205148226E+03  0.00000000000E+00 0.  1.
         21    1    1    2  502  501 -0.22228014692E+02 -0.36701234110E+01 -0.44400721090E+03  0.44457840453E+03  0.00000000000E+00 0.  1.
         21    1    1    2  503  502  0.22228014692E+02  0.36701234110E+01 -0.27730184413E+03  0.27821550496E+03  0.00000000000E+00 0. -1.
</event>
<event>
 4    1  0.5548812E+002  0.3997992E+02  0.7546771E-02  0.1348604E+00
          2   -1    0    0  502    0  0.00000000000E+00  0.00000000000E+00  0.31235645760E+02  0.31235645760E+02  0.00000000000E+00 0.  1.
         -2   -1    0    0    0  501 -0.00000000000E+00 -0.00000000000E+00 -0.51333578304E+02  0.51333578304E+02  0.00000000000E+00 0. -1.
         21    1    1    2  502  503  0.26741845249E+02 -0.29719822902E+02 -0.12364333552E+02  0.41848188788E+02  0.00000000000E+00 0.  1.
         21    1    1    2  503  501 -0.26741845249E+02  0.29719822902E+02 -0.77335989917E+01  0.40721035277E+02  0.00000000000E+00 0. -1.
</event>
<event>
 4    1  0.5548812E+002  0.2150027E+02  0.7546771E-02  0.1512241E+00
          2   -1    0    0  502    0  0.00000000000E+00  0.00000000000E+00  0.15622886570E+03  0.15622886570E+03  0.00000000000E+00 0.  1.
         -2   -1    0    0    0  501 -0.00000000000E+00 -0.00000000000E+00 -0.30392324838E+01  0.30392324838E+01  0.00000000000E+00 0. -1.
         21    1    1    2  502  503 -0.11818941957E+02  0.17960351496E+02  0.89543667081E+02  0.92088706849E+02  0.00000000000E+00 0. -1.
         21    1    1    2  503  501  0.11818941957E+02 -0.17960351496E+02  0.63645966140E+02  0.67179391339E+02  0.00000000000E+00 0.  1.
</event>
<event>
 4    1  0.5548812E+002  0.3288940E+02  0.7546771E-02  0.1396041E+00
          2   -1    0    0  502    0  0.00000000000E+00  0.00000000000E+00  0.31864781154E+03  0.31864781154E+03  0.00000000000E+00 0. -1.
         -2   -1    0    0    0  501 -0.00000000000E+00 -0.00000000000E+00 -0.71849045482E+01  0.71849045482E+01  0.00000000000E+00 0.  1.
         21    1    1    2  502  503 -0.31603169500E+02  0.91078101475E+01  0.27405896499E+03  0.27602541336E+03  0.00000000000E+00 0. -1.
         21    1    1    2  503  501  0.31603169500E+02 -0.91078101475E+01  0.37403942008E+02  0.49807302736E+02  0.00000000000E+00 0.  1.
</event>
<event>
 4    1  0.5548812E+002  0.2995534E+02  0.7546771E-02  0.1419985E+00
          2   -1    0    0  502    0  0.00000000000E+00  0.00000000000E+00  0.25819351568E+04  0.25819351568E+04  0.00000000000E+00 0.  1.
         -2   -1    0    0    0  501 -0.00000000000E+00 -0.00000000000E+00 -0.64881474345E+00  0.64881474345E+00  0.00000000000E+00 0. -1.
         21    1    1    2  502  503  0.29933414759E+02  0.11459215020E+01  0.21705696392E+04  0.21707763314E+04  0.00000000000E+00 0.  1.
         21    1    1    2  503  501 -0.29933414759E+02 -0.11459215020E+01  0.41071670291E+03  0.41180764017E+03  0.00000000000E+00 0. -1.
</event>
<event>
 4    1  0.5548812E+002  0.2353312E+02  0.7546771E-02  0.1485910E+00
          2   -1    0    0  503    0  0.00000000000E+00  0.00000000000E+00  0.40439920237E+03  0.40439920237E+03  0.00000000000E+00 0.  1.
         -2   -1    0    0    0  501 -0.00000000000E+00 -0.00000000000E+00 -0.60826909675E+01  0.60826909675E+01  0.00000000000E+00 0. -1.
         21    1    1    2  502  501  0.22980504278E+02 -0.50699136766E+01  0.18492600642E+02  0.29929648846E+02  0.00000000000E+00 0. -1.
         21    1    1    2  503  502 -0.22980504278E+02  0.50699136766E+01  0.37982391076E+03  0.38055224449E+03  0.00000000000E+00 0.  1.
</event>
<event>
 4    1  0.5548812E+002  0.2052936E+02  0.7546771E-02  0.1526092E+00
          2   -1    0    0  502    0  0.00000000000E+00  0.00000000000E+00  0.21094730801E+03  0.21094730801E+03  0.00000000000E+00 0.  1.
         -2   -1    0    0    0  501 -0.00000000000E+00 -0.00000000000E+00 -0.68889820037E+01  0.68889820037E+01  0.00000000000E+00 0. -1.
         21    1    1    2  502  503 -0.10009249958E+02  0.17923996647E+02  0.19380419147E+03  0.19488847932E+03  0.00000000000E+00 0.  1.
         21    1    1    2  503  501  0.10009249958E+02 -0.17923996647E+02  0.10254134536E+02  0.22947810693E+02  0.00000000000E+00 0. -1.
</event>
<event>
 4    1  0.5548812E+002  0.3096616E+02  0.7546771E-02  0.1411382E+00
          2   -1    0    0  502    0  0.00000000000E+00  0.00000000000E+00  0.75490317988E+03  0.75490317988E+03  0.00000000000E+00 0. -1.
         -2   -1    0    0    0  501 -0.00000000000E+00 -0.00000000000E+00 -0.23159470619E+01  0.23159470619E+01  0.00000000000E+00 0.  1.
         21    1    1    2  502  503  0.29677571439E+02  0.88399395641E+01  0.63070338439E+03  0.63146311204E+03  0.00000000000E+00 0. -1.
         21    1    1    2  503  501 -0.29677571439E+02 -0.88399395641E+01  0.12188384843E+03  0.12575601491E+03  0.00000000000E+00 0.  1.
</event>
<event>
 4    1  0.5548812E+002  0.2707917E+02  0.7546771E-02  0.1446814E+00
          2   -1    0    0  502    0  0.00000000000E+00  0.00000000000E+00  0.18767909856E+04  0.18767909856E+04  0.00000000000E+00 0. -1.
         -2   -1    0    0    0  501 -0.00000000000E+00 -0.00000000000E+00 -0.76841575206E+00  0.76841575206E+00  0.00000000000E+00 0.  1.
         21    1    1    2  502  503 -0.99608441500E+01 -0.25180606162E+02  0.15961876107E+04  0.15964172919E+04  0.00000000000E+00 0. -1.
         21    1    1    2  503  501  0.99608441500E+01  0.25180606162E+02  0.27983495921E+03  0.28114210951E+03  0.00000000000E+00 0.  1.
</event>
<event>
 4    1  0.5548812E+002  0.2448985E+02  0.7546771E-02  0.1474592E+00
          2   -1    0    0  503    0  0.00000000000E+00  0.00000000000E+00  0.32664454584E+02  0.32664454584E+02  0.00000000000E+00 0.  1.
         -2   -1    0    0    0  501 -0.00000000000E+00 -0.00000000000E+00 -0.43900413224E+02  0.43900413224E+02  0.00000000000E+00 0. -1.
         21    1    1    2  502  501  0.11637776077E+02 -0.21547972132E+02 -0.34817146494E+02  0.42567436204E+02  0.00000000000E+00 0. -1.
         21    1    1    2  503  502 -0.11637776077E+02  0.21547972132E+02  0.23581187854E+02  0.33997431603E+02  0.00000000000E+00 0.  1.
</event>
<event>
 4    1  0.5548812E+002  0.2021019E+02  0.7546771E-02  0.1530847E+00
          2   -1    0    0  503    0  0.00000000000E+00  0.00000000000E+00  0.15779076031E+04  0.15779076031E+04  0.00000000000E+00 0.  1.
         -2   -1    0    0    0  501 -0.00000000000E+00 -0.00000000000E+00 -0.10678902945E+01  0.10678902945E+01  0.00000000000E+00 0. -1.
         21    1    1    2  502  501 -0.19512602145E+02  0.52640386086E+01  0.10124796295E+03  0.10324534733E+03  0.00000000000E+00 0. -1.
         21    1    1    2  503  502  0.19512602145E+02 -0.52640386086E+01  0.14755917498E+04  0.14757301460E+04  0.00000000000E+00 0.  1.
</event>
<event>
 4    1  0.5548812E+002  0.2142083E+02  0.7546771E-02  0.1513340E+00
          2   -1    0    0  502    0  0.00000000000E+00  0.00000000000E+00  0.65905320995E+03  0.65905320995E+03  0.00000000000E+00 0. -1.
         -2   -1    0    0    0  501 -0.00000000000E+00 -0.00000000000E+00 -0.13070784705E+01  0.13070784705E+01  0.00000000000E+00 0.  1.
         21    1    1    2  502  503 -0.17458204044E+02  0.12412219776E+02  0.55459156419E+03  0.55500509471E+03  0.00000000000E+00 0. -1.
         21    1    1    2  503  501  0.17458204044E+02 -0.12412219776E+02  0.10315456729E+03  0.10535519371E+03  0.00000000000E+00 0.  1.
</event>
<event>
 4    1  0.5548812E+002  0.2864039E+02  0.7546771E-02  0.1431791E+00
          2   -1    0    0  503    0  0.00000000000E+00  0.00000000000E+00  0.73070436258E+03  0.73070436258E+03  0.00000000000E+00 0. -1.
         -2   -1    0    0    0  501 -0.00000000000E+00 -0.00000000000E+00 -0.37317445450E+01  0.37317445450E+01  0.00000000000E+00 0.  1.
         21    1    1    2  502  501  0.27386141353E+02 -0.83827920433E+01  0.56429274348E+02  0.63281394928E+02  0.00000000000E+00 0.  1.
         21    1    1    2  503  502 -0.27386141353E+02  0.83827920433E+01  0.67054334369E+03  0.67115471220E+03  0.00000000000E+00 0. -1.
</event>
<event>
 4    1  0.5548812E+002  0.2139922E+02  0.7546771E-02  0.1513641E+00
          2   -1    0    0  503    0  0.00000000000E+00  0.00000000000E+00  0.13773860407E+04  0.13773860407E+04  0.00000000000E+00 0. -1.
         -2   -1    0    0    0  501 -0.00000000000E+00 -0.00000000000E+00 -0.42492300447E+00  0.42492300447E+00  0.00000000000E+00 0.  1.
         21    1    1    2  502  501 -0.18942566926E+02 -0.99551845376E+01  0.36712398154E+03  0.36774712012E+03  0.00000000000E+00 0.  1.
         21    1    1    2  503  502  0.18942566926E+02  0.99551845376E+01  0.10098371361E+04  0.10100638436E+04  0.00000000000E+00 0. -1.
</event>
<event>
 4    1  0.5548812E+002  0.2204680E+02  0.7546771E-02  0.1504827E+00
          2   -1    0    0  502    0  0.00000000000E+00  0.00000000000E+00  0.63247802271E+03  0.63247802271E+03  0.00000000000E+00 0. -1.
         -2   -1    0    0    0  501 -0.00000000000E+00 -0.00000000000E+00 -0.90043322455E+00  0.90043322455E+00  0.00000000000E+00 0.  1.
         21    1    1    2  502  503 -0.11268904681E+02 -0.18949226774E+02  0.43701019480E+03  0.43756596276E+03  0.00000000000E+00 0. -1.
         21    1    1    2  503  501  0.11268904681E+02  0.18949226774E+02  0.19456739469E+03  0.19581249318E+03  0.00000000000E+00 0.  1.
</event>
<event>
 4    1  0.5548812E+002  0.2656695E+02  0.7546771E-02  0.1452007E+00
          2   -1    0    0  503    0  0.00000000000E+00  0.00000000000E+00  0.11015904474E+04  0.11015904474E+04  0.00000000000E+00 0. -1.
         -2   -1    0    0    0  501 -0.00000000000E+00 -0.00000000000E+00 -0.30380810037E+01  0.30380810037E+01  0.00000000000E+00 0.  1.
         21    1    1    2  502  501  0.58246002725E+01  0.25920591780E+02  0.58646341515E+02  0.64383199824E+02  0.00000000000E+00 0.  1.
         21    1    1    2  503  502 -0.58246002725E+01 -0.25920591780E+02  0.10399060248E+04  0.10402453285E+04  0.00000000000E+00 0. -1.
</event>
<event>
 4    1  0.5548812E+002  0.7445057E+02  0.7546771E-02  0.1217352E+00
          2   -1    0    0  503    0  0.00000000000E+00  0.00000000000E+00  0.10006350408E+04  0.10006350408E+04  0.00000000000E+00 0. -1.
         -2   -1    0    0    0  501 -0.00000000000E+00 -0.00000000000E+00 -0.21887327839E+02  0.21887327839E+02  0.00000000000E+00 0.  1.
         21    1    1    2  502  501  0.33741384916E+02  0.66365703345E+02  0.47520451683E+02  0.88323728208E+02  0.00000000000E+00 0.  1.
         21    1    1    2  503  502 -0.33741384916E+02 -0.66365703345E+02  0.93122726130E+03  0.93419864045E+03  0.00000000000E+00 0. -1.
</event>
<event>
 4    1  0.5548812E+002  0.3951936E+02  0.7546771E-02  0.1351326E+00
          2   -1    0    0  503    0  0.00000000000E+00  0.00000000000E+00  0.25491789221E+04  0.25491789221E+04  0.00000000000E+00 0. -1.
         -2   -1    0    0    0  501 -0.00000000000E+00 -0.00000000000E+00 -0.24140818458E+01  0.24140818458E+01  0.00000000000E+00 0.  1.
         21    1    1    2  502  501 -0.28691351916E+02  0.27176943149E+02  0.17130240600E+03  0.17580186067E+03  0.00000000000E+00 0.  1.
         21    1    1    2  503  502  0.28691351916E+02 -0.27176943149E+02  0.23754624343E+04  0.23757911433E+04  0.00000000000E+00 0. -1.
</event>
<event>
 4    1  0.5548812E+002  0.2432792E+02  0.7546771E-02  0.1476464E+00
          2   -1    0    0  503    0  0.00000000000E+00  0.00000000000E+00  0.13146730731E+03  0.13146730731E+03  0.00000000000E+00 0. -1.
         -2   -1    0    0    0  501 -0.00000000000E+00 -0.00000000000E+00 -0.35015230878E+02  0.35015230878E+02  0.00000000000E+00 0.  1.
         21    1    1    2  502  501 -0.16616587922E+02 -0.17768983401E+02 -0.29480090017E+02  0.38222028631E+02  0.00000000000E+00 0.  1.
         21    1    1    2  503  502  0.16616587922E+02  0.17768983401E+02  0.12593216645E+03  0.12826050956E+03  0.00000000000E+00 0. -1.
</event>
<event>
 4    1  0.5548812E+002  0.2270613E+02  0.7546771E-02  0.1496222E+00
          2   -1    0    0  502    0  0.00000000000E+00  0.00000000000E+00  0.21862700714E+03  0.21862700714E+03  0.00000000000E+00 0.  1.
         -2   -1    0    0    0  501 -0.00000000000E+00 -0.00000000000E+00 -0.27934804115E+01  0.27934804115E+01  0.00000000000E+00 0. -1.
         21    1    1    2  502  503  0.18108583954E+02 -0.13698449588E+02  0.15161809826E+03  0.15330889099E+03  0.00000000000E+00 0.  1.
         21    1    1    2  503  501 -0.18108583954E+02  0.13698449588E+02  0.64215428464E+02  0.68111596565E+02  0.00000000000E+00 0. -1.
</event>
<event>
 4    1  0.5548812E+002  0.3336054E+02  0.7546771E-02  0.1392470E+00
          2   -1    0    0  502    0  0.00000000000E+00  0.00000000000E+00  0.18709953175E+02  0.18709953175E+02  0.00000000000E+00 0.  1.
         -2   -1    0    0    0  501 -0.00000000000E+00 -0.00000000000E+00 -0.25896252173E+03  0.25896252173E+03  0.00000000000E+00 0. -1.
         21    1    1    2  502  503 -0.11426617168E+02 -0.31342591699E+02  0.17259369355E+01  0.33405156677E+02  0.00000000000E+00 0.  1.
         21    1    1    2  503  501  0.11426617168E+02  0.31342591699E+02 -0.24197850549E+03  0.24426731822E+03  0.00000000000E+00 0. -1.
</event>
<event>
 4    1  0.5548812E+002  0.4639814E+02  0.7546771E-02  0.1314593E+00
          2   -1    0    0  502    0  0.00000000000E+00  0.00000000000E+00  0.15793504218E+04  0.15793504218E+04  0.00000000000E+00 0. -1.
         -2   -1    0    0    0  501 -0.00000000000E+00 -0.00000000000E+00 -0.23721261581E+01  0.23721261581E+01  0.00000000000E+00 0.  1.
         21    1    1    2  502  503  0.36000661404E+02  0.29270115283E+02  0.13042947767E+04  0.13051197845E+04  0.00000000000E+00 0. -1.
         21    1    1    2  503  501 -0.36000661404E+02 -0.29270115283E+02  0.27268351889E+03  0.27660276345E+03  0.00000000000E+00 0.  1.
</event>
<event>
 4    1  0.5548812E+002  0.2463457E+02  0.7546771E-02  0.1472933E+00
          2   -1    0    0  502    0  0.00000000000E+00  0.00000000000E+00  0.42225923201E+01  0.42225923201E+01  0.00000000000E+00 0.  1.
         -2   -1    0    0    0  501 -0.00000000000E+00 -0.00000000000E+00 -0.39786771004E+03  0.39786771004E+03  0.00000000000E+00 0. -1.
         21    1    1    2  502  503 -0.24327151574E+02 -0.38796297626E+01 -0.36139827518E+02  0.43737272021E+02  0.00000000000E+00 0.  1.
         21    1    1    2  503  501  0.24327151574E+02  0.38796297626E+01 -0.35750529020E+03  0.35835303034E+03  0.00000000000E+00 0. -1.
</event>
<event>
 4    1  0.5548812E+002  0.2579768E+02  0.7546771E-02  0.1460074E+00
          2   -1    0    0  503    0  0.00000000000E+00  0.00000000000E+00  0.74135495903E+01  0.74135495903E+01  0.00000000000E+00 0.  1.
         -2   -1    0    0    0  501 -0.00000000000E+00 -0.00000000000E+00 -0.10918126402E+03  0.10918126402E+03  0.00000000000E+00 0. -1.
         21    1    1    2  502  501 -0.30067227503E+01 -0.25621864588E+02 -0.26303224218E+02  0.36842637405E+02  0.00000000000E+00 0.  1.
         21    1    1    2  503  502  0.30067227503E+01  0.25621864588E+02 -0.75464490209E+02  0.79752176203E+02  0.00000000000E+00 0. -1.
</event>
<event>
 4    1  0.5548812E+002  0.2120100E+02  0.7546771E-02  0.1516414E+00
          2   -1    0    0  503    0  0.00000000000E+00  0.00000000000E+00  0.31667680896E+01  0.31667680896E+01  0.00000000000E+00 0.  1.
         -2   -1    0    0    0  501 -0.00000000000E+00 -0.00000000000E+00 -0.26607748941E+03  0.26607748941E+03  0.00000000000E+00 0. -1.
         21    1    1    2  502  501 -0.11231428828E+02 -0.17981582259E+02 -0.22340895482E+03  0.22441266317E+03  0.00000000000E+00 0. -1.
         21    1    1    2  503  502  0.11231428828E+02  0.17981582259E+02 -0.39501766494E+02  0.44831594331E+02  0.00000000000E+00 0.  1.
</event>
<event>
 4    1  0.5548812E+002  0.2421725E+02  0.7546771E-02  0.1477754E+00
          2   -1    0    0  503    0  0.00000000000E+00  0.00000000000E+00  0.98316918796E+03  0.98316918796E+03  0.00000000000E+00 0. -1.
         -2   -1    0    0    0  501 -0.00000000000E+00 -0.00000000000E+00 -0.63227359150E+00  0.63227359150E+00  0.00000000000E+00 0.  1.
         21    1    1    2  502  501  0.86891011009E+01  0.22604752143E+02  0.60824919335E+03  0.60873110361E+03  0.00000000000E+00 0.  1.
         21    1    1    2  503  502 -0.86891011009E+01 -0.22604752143E+02  0.37428772102E+03  0.37507035794E+03  0.00000000000E+00 0. -1.
</event>
<event>
 4    1  0.5548812E+002  0.2198021E+02  0.7546771E-02  0.1505717E+00
          2   -1    0    0  502    0  0.00000000000E+00  0.00000000000E+00  0.38173156041E+02  0.38173156041E+02  0.00000000000E+00 0. -1.
         -2   -1    0    0    0  501 -0.00000000000E+00 -0.00000000000E+00 -0.13307713810E+02  0.13307713810E+02  0.00000000000E+00 0.  1.
         21    1    1    2  502  503  0.25733021659E+01 -0.21829053844E+02  0.18127871567E+02  0.28491212738E+02  0.00000000000E+00 0.  1.
         21    1    1    2  503  501 -0.25733021659E+01  0.21829053844E+02  0.67375706638E+01  0.22989657113E+02  0.00000000000E+00 0. -1.
</event>
<event>
 4    1  0.5548812E+002  0.3209803E+02  0.7546771E-02  0.1402200E+00
          2   -1    0    0  502    0  0.00000000000E+00  0.00000000000E+00  0.21925927340E+03  0.21925927340E+03  0.00000000000E+00 0. -1.
         -2   -1    0    0    0  501 -0.00000000000E+00 -0.00000000000E+00 -0.68212299044E+01  0.68212299044E+01  0.00000000000E+00 0.  1.
         21    1    1    2  502  503  0.15464645125E+02 -0.28127005385E+02  0.43166089541E+02  0.53792145961E+02  0.00000000000E+00 0.  1.
         21    1    1    2  503  501 -0.15464645125E+02  0.28127005385E+02  0.16927195395E+03  0.17228835734E+03  0.00000000000E+00 0. -1.
</event>
<event>
 4    1  0.5548812E+002  0.2075326E+02  0.7546771E-02  0.1522817E+00
          2   -1    0    0  502    0  0.00000000000E+00  0.00000000000E+00  0.65216136174E+01  0.65216136174E+01  0.00000000000E+00 0.  1.
         -2   -1    0    0    0  501 -0.00000000000E+00 -0.00000000000E+00 -0.17215730423E+03  0.17215730423E+03  0.00000000000E+00 0. -1.
         21    1    1    2  502  503 -0.20728515332E+02 -0.10130775741E+01 -0.12677086444E+02  0.24318844437E+02  0.00000000000E+00 0.  1.
         21    1    1    2  503  501  0.20728515332E+02  0.10130775741E+01 -0.15295860416E+03  0.15436007341E+03  0.00000000000E+00 0. -1.
</event>
<event>
 4    1  0.5548812E+002  0.2000840E+02  0.7546771E-02  0.1533907E+00
          2   -1    0    0  503    0  0.00000000000E+00  0.00000000000E+00  0.23815514052E+02  0.23815514052E+02  0.00000000000E+00 0. -1.
         -2   -1    0    0    0  501 -0.00000000000E+00 -0.00000000000E+00 -0.96708704751E+02  0.96708704751E+02  0.00000000000E+00 0.  1.
         21    1    1    2  502  501  0.14322665216E+02 -0.13971309240E+02 -0.91221509937E+02  0.93390042809E+02  0.00000000000E+00 0.  1.
         21    1    1    2  503  502 -0.14322665216E+02  0.13971309240E+02  0.18328319237E+02  0.27134175993E+02  0.00000000000E+00 0. -1.
</event>
<event>
 4    1  0.5548812E+002  0.3628007E+02  0.7546771E-02  0.1371781E+00
          2   -1    0    0  503    0  0.00000000000E+00  0.00000000000E+00  0.56619485145E+03  0.56619485145E+03  0.00000000000E+00 0.  1.
         -2   -1    0    0    0  501 -0.00000000000E+00 -0.00000000000E+00 -0.27852095393E+01  0.27852095393E+01  0.00000000000E+00 0. -1.
         21    1    1    2  502  501  0.35766823159E+02 -0.60809683184E+01  0.16602740834E+03  0.16994512095E+03  0.00000000000E+00 0. -1.
         21    1    1    2  503  502 -0.35766823159E+02  0.60809683184E+01  0.39738223357E+03  0.39903494004E+03  0.00000000000E+00 0.  1.
</event>
<event>
 4    1  0.5548812E+002  0.2577379E+02  0.7546771E-02  0.1460330E+00
          2   -1    0    0  502    0  0.00000000000E+00  0.00000000000E+00  0.14834092734E+04  0.14834092734E+04  0.00000000000E+00 0. -1.
         -2   -1    0    0    0  501 -0.00000000000E+00 -0.00000000000E+00 -0.36437324109E+01  0.36437324109E+01  0.00000000000E+00 0.  1.
         21    1    1    2  502  503  0.20669588914E+02 -0.15396638571E+02  0.14362225368E+04  0.14364537805E+04  0.00000000000E+00 0. -1.
         21    1    1    2  503  501 -0.20669588914E+02  0.15396638571E+02  0.43543004184E+02  0.50599225276E+02  0.00000000000E+00 0.  1.
</event>
<event>
 4    1  0.5548812E+002  0.3072041E+02  0.7546771E-02  0.1413437E+00
          2   -1    0    0  503    0  0.00000000000E+00  0.00000000000E+00  0.29913412876E+02  0.29913412876E+02  0.00000000000E+00 0.  1.
         -2   -1    0    0    0  501 -0.00000000000E+00 -0.00000000000E+00 -0.47757197829E+02  0.47757197829E+02  0.00000000000E+00 0. -1.
         21    1    1    2  502  501  0.30091770364E+02 -0.61829760432E+01 -0.31546037404E+02  0.44032900340E+02  0.00000000000E+00 0. -1.
         21    1    1    2  503  502 -0.30091770364E+02  0.61829760432E+01  0.13702252451E+02  0.33637710366E+02  0.00000000000E+00 0.  1.
</event>
<event>
 4    1  0.5548812E+002  0.2159983E+02  0.7546771E-02  0.1510871E+00
          2   -1    0    0  502    0  0.00000000000E+00  0.00000000000E+00  0.12060497782E+04  0.12060497782E+04  0.00000000000E+00 0.  1.
         -2   -1    0    0    0  501 -0.00000000000E+00 -0.00000000000E+00 -0.17213647208E+01  0.17213647208E+01  0.00000000000E+00 0. -1.
         21    1    1    2  502  503 -0.20817936627E+02  0.57590108337E+01  0.11338816685E+04  0.11340873823E+04  0.00000000000E+00 0.  1.
         21    1    1    2  503  501  0.20817936627E+02 -0.57590108337E+01  0.70446745054E+02  0.73683760625E+02  0.00000000000E+00 0. -1.
</event>
<event>
 4    1  0.5548812E+002  0.2615380E+02  0.7546771E-02  0.1456299E+00
          2   -1    0    0  502    0  0.00000000000E+00  0.00000000000E+00  0.14431762625E+02  0.14431762625E+02  0.00000000000E+00 0.  1.
         -2   -1    0    0    0  501 -0.00000000000E+00 -0.00000000000E+00 -0.51758535187E+02  0.51758535187E+02  0.00000000000E+00 0. -1.
         21    1    1    2  502  503  0.16839325577E+01 -0.26099531718E+02 -0.90561886014E+01  0.27677350610E+02  0.00000000000E+00 0. -1.
         21    1    1    2  503  501 -0.16839325577E+01  0.26099531718E+02 -0.28270583960E+02  0.38512947203E+02  0.00000000000E+00 0.  1.
</event>
<event>
 4    1  0.5548812E+002  0.2553950E+02  0.7546771E-02  0.1462858E+00
          2   -1    0    0  503    0  0.00000000000E+00  0.00000000000E+00  0.22400903195E+01  0.22400903195E+01  0.00000000000E+00 0.  1.
         -2   -1    0    0    0  501 -0.00000000000E+00 -0.00000000000E+00 -0.29205882261E+03  0.29205882261E+03  0.00000000000E+00 0. -1.
         21    1    1    2  502  501  0.11003617861E+02  0.23047482125E+02 -0.13683040493E+03  0.13919348315E+03  0.00000000000E+00 0. -1.
         21    1    1    2  503  502 -0.11003617861E+02 -0.23047482125E+02 -0.15298832736E+03  0.15510542977E+03  0.00000000000E+00 0.  1.
</event>
<event>
 4    1  0.5548812E+002  0.3173760E+02  0.7546771E-02  0.1405075E+00
          2   -1    0    0  503    0  0.00000000000E+00  0.00000000000E+00  0.84081167241E+03  0.84081167241E+03  0.00000000000E+00 0.  1.
         -2   -1    0    0    0  501 -0.00000000000E+00 -0.00000000000E+00 -0.78163398266E+01  0.78163398266E+01  0.00000000000E+00 0. -1.
         21    1    1    2  502  501 -0.27803210629E+02 -0.15305440081E+02  0.26051772122E+02  0.41060563173E+02  0.00000000000E+00 0. -1.
         21    1    1    2  503  502  0.27803210629E+02  0.15305440081E+02  0.80694356046E+03  0.80756744906E+03  0.00000000000E+00 0.  1.
</event>
<event>
 4    1  0.5548812E+002  0.3854071E+02  0.7546771E-02  0.1357256E+00
          2   -1    0    0  502    0  0.00000000000E+00  0.00000000000E+00  0.51550745206E+03  0.51550745206E+03  0.00000000000E+00 0. -1.
         -2   -1    0    0    0  501 -0.00000000000E+00 -0.00000000000E+00 -0.28936252604E+01  0.28936252604E+01  0.00000000000E+00 0.  1.
         21    1    1    2  502  503  0.37916011327E+02  0.69110589879E+01  0.27315008665E+03  0.27585568054E+03  0.00000000000E+00 0. -1.
         21    1    1    2  503  501 -0.37916011327E+02 -0.69110589879E+01  0.23946374016E+03  0.24254539678E+03  0.00000000000E+00 0.  1.
</event>
<event>
 4    1  0.5548812E+002  0.2289282E+02  0.7546771E-02  0.1493848E+00
          2   -1    0    0  502    0  0.00000000000E+00  0.00000000000E+00  0.21122919312E+02  0.21122919312E+02  0.00000000000E+00 0.  1.
         -2   -1    0    0    0  501 -0.00000000000E+00 -0.00000000000E+00 -0.27934583044E+02  0.27934583044E+02  0.00000000000E+00 0. -1.
         21    1    1    2  502  503 -0.21164988092E+02 -0.87249273148E+01  0.47963575566E+01  0.23389872240E+02  0.00000000000E+00 0.  1.
         21    1    1    2  503  501  0.21164988092E+02  0.87249273148E+01 -0.11608021289E+02  0.25667630117E+02  0.00000000000E+00 0. -1.
</event>
<event>
 4    1  0.5548812E+002  0.2378380E+02  0.7546771E-02  0.1482884E+00
          2   -1    0    0  503    0  0.00000000000E+00  0.00000000000E+00  0.20882350358E+02  0.20882350358E+02  0.00000000000E+00 0.  1.
         -2   -1    0    0    0  501 -0.00000000000E+00 -0.00000000000E+00 -0.79908526174E+02  0.79908526174E+02  0.00000000000E+00 0. -1.
         21    1    1    2  502  501 -0.22606329100E+02  0.73907412954E+01 -0.70485774316E+02  0.74390278621E+02  0.00000000000E+00 0. -1.
         21    1    1    2  503  502  0.22606329100E+02 -0.73907412954E+01  0.11459598500E+02  0.26400597911E+02  0.00000000000E+00 0.  1.
</event>
<event>
 4    1  0.5548812E+002  0.2510064E+02  0.7546771E-02  0.1467681E+00
          2   -1    0    0  502    0  0.00000000000E+00  0.00000000000E+00  0.20563853080E+02  0.20563853080E+02  0.00000000000E+00 0. -1.
         -2   -1    0    0    0  501 -0.00000000000E+00 -0.00000000000E+00 -0.47027554561E+02  0.47027554561E+02  0.00000000000E+00 0.  1.
         21    1    1    2  502  503  0.23714668894E+01  0.24988359281E+02  0.67191463220E+01  0.25984396896E+02  0.00000000000E+00 0. -1.
         21    1    1    2  503  501 -0.23714668894E+01 -0.24988359281E+02 -0.33182847803E+02  0.41607010744E+02  0.00000000000E+00 0.  1.
</event>
<event>
 4    1  0.5548812E+002  0.2277626E+02  0.7546771E-02  0.1495327E+00
          2   -1    0    0  503    0  0.00000000000E+00  0.00000000000E+00  0.99468463034E+03  0.99468463034E+03  0.00000000000E+00 0.  1.
         -2   -1    0    0    0  501 -0.00000000000E+00 -0.00000000000E+00 -0.11550618293E+01  0.11550618293E+01  0.00000000000E+00 0. -1.
         21    1    1    2  502  501 -0.22761093270E+02  0.83118539024E+00  0.12800723849E+03  0.13001773472E+03  0.00000000000E+00 0. -1.
         21    1    1    2  503  502  0.22761093270E+02 -0.83118539024E+00  0.86552233002E+03  0.86582195745E+03  0.00000000000E+00 0.  1.
</event>
<event>
 4    1  0.5548812E+002  0.2614527E+02  0.7546771E-02  0.1456388E+00
          2   -1    0    0  503    0  0.00000000000E+00  0.00000000000E+00  0.22196450664E+02  0.22196450664E+02  0.00000000000E+00 0. -1.
         -2   -1    0    0    0  501 -0.00000000000E+00 -0.00000000000E+00 -0.31947834482E+02  0.31947834482E+02  0.00000000000E+00 0.  1.
         21    1    1    2  502  501 -0.16323003816E+02  0.20423878219E+02 -0.10014749075E+02  0.27997686585E+02  0.00000000000E+00 0.  1.
         21    1    1    2  503  502  0.16323003816E+02 -0.20423878219E+02  0.26336525728E+00  0.26146598561E+02  0.00000000000E+00 0. -1.
</event>
<event>
 4    1  0.5548812E+002  0.2926802E+02  0.7546771E-02  0.1426066E+00
          2   -1    0    0  503    0  0.00000000000E+00  0.00000000000E+00  0.22302784089E+03  0.22302784089E+03  0.00000000000E+00 0.  1.
         -2   -1    0    0    0  501 -0.00000000000E+00 -0.00000000000E+00 -0.58680354759E+01  0.58680354759E+01  0.00000000000E+00 0. -1.
         21    1    1    2  502  501 -0.69564607080E+01 -0.28429289460E+02  0.41311955168E+02  0.50628988580E+02  0.00000000000E+00 0. -1.
         21    1    1    2  503  502  0.69564607080E+01  0.28429289460E+02  0.17584785024E+03  0.17826688778E+03  0.00000000000E+00 0.  1.
</event>
<event>
 4    1  0.5548812E+002  0.2174971E+02  0.7546771E-02  0.1508825E+00
          2   -1    0    0  503    0  0.00000000000E+00  0.00000000000E+00  0.11642674540E+02  0.11642674540E+02  0.00000000000E+00 0. -1.
         -2   -1    0    0    0  501 -0.00000000000E+00 -0.00000000000E+00 -0.92972154446E+02  0.92972154446E+02  0.00000000000E+00 0.  1.
         21    1    1    2  502  501  0.21625609902E+02 -0.23200905320E+01 -0.79912038434E+02  0.82818981583E+02  0.00000000000E+00 0. -1.
         21    1    1    2  503  502 -0.21625609902E+02  0.23200905320E+01 -0.14174414717E+01  0.21795847404E+02  0.00000000000E+00 0.  1.
</event>
<event>
 4    1  0.5548812E+002  0.2030445E+02  0.7546771E-02  0.1529431E+00
          2   -1    0    0  503    0  0.00000000000E+00  0.00000000000E+00  0.18925091735E+03  0.18925091735E+03  0.00000000000E+00 0. -1.
         -2   -1    0    0    0  501 -0.00000000000E+00 -0.00000000000E+00 -0.22216287095E+01  0.22216287095E+01  0.00000000000E+00 0.  1.
         21    1    1    2  502  501 -0.18732739645E+02 -0.78329441088E+01  0.80165349942E+02  0.82696758578E+02  0.00000000000E+00 0. -1.
         21    1    1    2  503  502  0.18732739645E+02  0.78329441088E+01  0.10686393870E+03  0.10877578749E+03  0.00000000000E+00 0.  1.
</event>
<event>
 4    1  0.5548812E+002  0.2374817E+02  0.7546771E-02  0.1483311E+00
          2   -1    0    0  503    0  0.00000000000E+00  0.00000000000E+00  0.15905327191E+02  0.15905327191E+02  0.00000000000E+00 0. -1.
         -2   -1    0    0    0  501 -0.00000000000E+00 -0.00000000000E+00 -0.41565295285E+02  0.41565295285E+02  0.00000000000E+00 0.  1.
         21    1    1    2  502  501  0.18554654844E+02 -0.14822296066E+02 -0.23844481295E+02  0.33653156840E+02  0.00000000000E+00 0.  1.
         21    1    1    2  503  502 -0.18554654844E+02  0.14822296066E+02 -0.18154867994E+01  0.23817465636E+02  0.00000000000E+00 0. -1.
</event>
<event>
 4    1  0.5548812E+002  0.2000777E+02  0.7546771E-02  0.1533917E+00
          2   -1    0    0  502    0  0.00000000000E+00  0.00000000000E+00  0.10487079426E+03  0.10487079426E+03  0.00000000000E+00 0.  1.
         -2   -1    0    0    0  501 -0.00000000000E+00 -0.00000000000E+00 -0.88883275056E+01  0.88883275056E+01  0.00000000000E+00 0. -1.
         21    1    1    2  502  503 -0.84284188615E+01  0.18145871112E+02  0.90954694123E+02  0.93129304013E+02  0.00000000000E+00 0.  1.
         21    1    1    2  503  501  0.84284188615E+01 -0.18145871112E+02  0.50277726331E+01  0.20629817754E+02  0.00000000000E+00 0. -1.
</event>
<event>
 4    1  0.5548812E+002  0.2172921E+02  0.7546771E-02  0.1509103E+00
          2   -1    0    0  502    0  0.00000000000E+00  0.00000000000E+00  0.63144083464E+03  0.63144083464E+03  0.00000000000E+00 0.  1.
         -2   -1    0    0    0  501 -0.00000000000E+00 -0.00000000000E+00 -0.34048401590E+01  0.34048401590E+01  0.00000000000E+00 0. -1.
         21    1    1    2  502  503  0.21131025289E+02  0.50634490927E+01  0.59442773922E+03  0.59482476066E+03  0.00000000000E+00 0.  1.
         21    1    1    2  503  501 -0.21131025289E+02 -0.50634490927E+01  0.33608255268E+02  0.40020914141E+02  0.00000000000E+00 0. -1.
</event>
<event>
 4    1  0.5548812E+002  0.2136018E+02  0.7546771E-02  0.1514184E+00
          2   -1    0    0  503    0  0.00000000000E+00  0.00000000000E+00  0.37863893516E+03  0.37863893516E+03  0.00000000000E+00 0. -1.
         -2   -1    0    0    0  501 -0.00000000000E+00 -0.00000000000E+00 -0.14317342982E+01  0.14317342982E+01  0.00000000000E+00 0.  1.
         21    1    1    2  502  501  0.17247960099E+02  0.12600199541E+02  0.11297801682E+03  0.11497951748E+03  0.00000000000E+00 0.  1.
         21    1    1    2  503  502 -0.17247960099E+02 -0.12600199541E+02  0.26422918404E+03  0.26509115198E+03  0.00000000000E+00 0. -1.
</event>
<event>
 4    1  0.5548812E+002  0.2503134E+02  0.7546771E-02  0.1468453E+00
          2   -1    0    0  502    0  0.00000000000E+00  0.00000000000E+00  0.46215744079E+01  0.46215744079E+01  0.00000000000E+00 0. -1.
         -2   -1    0    0    0  501 -0.00000000000E+00 -0.00000000000E+00 -0.18884838907E+03  0.18884838907E+03  0.00000000000E+00 0.  1.
         21    1    1    2  502  503  0.24735185882E+02  0.38391075693E+01 -0.14349217070E+03  0.14565909247E+03  0.00000000000E+00 0.  1.
         21    1    1    2  503  501 -0.24735185882E+02 -0.38391075693E+01 -0.40734643957E+02  0.47810871000E+02  0.00000000000E+00 0. -1.
</event>
<event>
 4    1  0.5548812E+002  0.3690432E+02  0.7546771E-02  0.1367648E+00
          2   -1    0    0  502    0  0.00000000000E+00  0.00000000000E+00  0.75996715441E+03  0.75996715441E+03  0.00000000000E+00 0. -1.
         -2   -1    0    0    0  501 -0.00000000000E+00 -0.00000000000E+00 -0.55541723425E+01  0.55541723425E+01  0.00000000000E+00 0.  1.
         21    1    1    2  502  503 -0.18071861089E+02 -0.32176650032E+02  0.69222191203E+03  0.69320495127E+03  0.00000000000E+00 0. -1.
         21    1    1    2  503  501  0.18071861089E+02  0.32176650032E+02  0.62191070035E+02  0.72316375480E+02  0.00000000000E+00 0.  1.
</event>
<event>
 4    1  0.5548812E+002  0.2380827E+02  0.7546771E-02  0.1482591E+00
          2   -1    0    0  502    0  0.00000000000E+00  0.00000000000E+00  0.77367430436E+03  0.77367430436E+03  0.00000000000E+00 0.  1.
         -2   -1    0    0    0  501 -0.00000000000E+00 -0.00000000000E+00 -0.83857827906E+00  0.83857827906E+00  0.00000000000E+00 0. -1.
         21    1    1    2  502  503  0.10177624463E+02 -0.21523234792E+02  0.52405309960E+03  0.52459363786E+03  0.00000000000E+00 0.  1.
         21    1    1    2  503  501 -0.10177624463E+02  0.21523234792E+02  0.24878262648E+03  0.24991924479E+03  0.00000000000E+00 0. -1.
</event>
<event>
 4    1  0.5548812E+002  0.2071156E+02  0.7546771E-02  0.1523423E+00
          2   -1    0    0  502    0  0.00000000000E+00  0.00000000000E+00  0.57449438521E+03  0.57449438521E+03  0.00000000000E+00 0.  1.
         -2   -1    0    0    0  501 -0.00000000000E+00 -0.00000000000E+00 -0.21994025650E+01  0.21994025650E+01  0.00000000000E+00 0. -1.
         21    1    1    2  502  503 -0.10688056204E+02 -0.17740753728E+02  0.52049095503E+03  0.52090287305E+03  0.00000000000E+00 0.  1.
         21    1    1    2  503  501  0.10688056204E+02  0.17740753728E+02  0.51804027618E+02  0.55790914724E+02  0.00000000000E+00 0. -1.
</event>
<event>
 4    1  0.5548812E+002  0.6328128E+02  0.7546771E-02  0.1249074E+00
          2   -1    0    0  502    0  0.00000000000E+00  0.00000000000E+00  0.28400021933E+04  0.28400021933E+04  0.00000000000E+00 0. -1.
         -2   -1    0    0    0  501 -0.00000000000E+00 -0.00000000000E+00 -0.19832816037E+01  0.19832816037E+01  0.00000000000E+00 0.  1.
         21    1    1    2  502  503  0.63072674667E+00 -0.63278131969E+02  0.21829650282E+04  0.21838820560E+04  0.00000000000E+00 0. -1.
         21    1    1    2  503  501 -0.63072674667E+00  0.63278131969E+02  0.65505388350E+03  0.65810341900E+03  0.00000000000E+00 0.  1.
</event>
<event>
 4    1  0.5548812E+002  0.3333934E+02  0.7546771E-02  0.1392630E+00
          2   -1    0    0  502    0  0.00000000000E+00  0.00000000000E+00  0.19224389046E+02  0.19224389046E+02  0.00000000000E+00 0. -1.
         -2   -1    0    0    0  501 -0.00000000000E+00 -0.00000000000E+00 -0.75643308677E+02  0.75643308677E+02  0.00000000000E+00 0.  1.
         21    1    1    2  502  503  0.32136543826E+02  0.88743492496E+01 -0.51831523483E+01  0.33739836869E+02  0.00000000000E+00 0. -1.
         21    1    1    2  503  501 -0.32136543826E+02 -0.88743492496E+01 -0.51235767282E+02  0.61127860855E+02  0.00000000000E+00 0.  1.
</event>
<event>
 4    1  0.5548812E+002  0.2293188E+02  0.7546771E-02  0.1493355E+00
          2   -1    0    0  502    0  0.00000000000E+00  0.00000000000E+00  0.47680099669E+01  0.47680099669E+01  0.00000000000E+00 0. -1.
         -2   -1    0    0    0  501 -0.00000000000E+00 -0.00000000000E+00 -0.13309868514E+03  0.13309868514E+03  0.00000000000E+00 0.  1.
         21    1    1    2  502  503 -0.86508713244E+01 -0.21237554070E+02 -0.35630347955E+02  0.42372077751E+02  0.00000000000E+00 0. -1.
         21    1    1    2  503  501  0.86508713244E+01  0.21237554070E+02 -0.92700327221E+02  0.95494617359E+02  0.00000000000E+00 0.  1.
</event>
<event>
 4    1  0.5548812E+002  0.2103977E+02  0.7546771E-02  0.1518698E+00
          2   -1    0    0  502    0  0.00000000000E+00  0.00000000000E+00  0.14185668258E+04  0.14185668258E+04  0.00000000000E+00 0.  1.
         -2   -1    0    0    0  501 -0.00000000000E+00 -0.00000000000E+00 -0.33146985850E+00  0.33146985850E+00  0.00000000000E+00 0. -1.
         21    1    1    2  502  503 -0.16297370968E+02  0.13306671962E+02  0.53742218797E+03  0.53783387764E+03  0.00000000000E+00 0. -1.
         21    1    1    2  503  501  0.16297370968E+02 -0.13306671962E+02  0.88081316793E+03  0.88106441797E+03  0.00000000000E+00 0.  1.
</event>
