<event>
 4    1  0.3927513E+003  0.2013916E+02  0.7546771E-02  0.1531919E+00
          2   -1    0    0  502    0  0.00000000000E+00  0.00000000000E+00  0.24859172047E+02  0.24859172047E+02  0.00000000000E+00 0.  1.
          1   -1    0    0  501    0 -0.00000000000E+00 -0.00000000000E+00 -0.24932965447E+02  0.24932965447E+02  0.00000000000E+00 0.  1.
          2    1    1    2  501    0 -0.19528694136E+02 -0.49209779424E+01  0.14599613459E+02  0.24874377012E+02  0.00000000000E+00 0.  1.
          1    1    1    2  502    0  0.19528694136E+02  0.49209779424E+01 -0.14673406860E+02  0.24917760482E+02  0.00000000000E+00 0.  1.
</event>
<event>
 4    1  0.3927513E+003  0.3096974E+02  0.7546771E-02  0.1411352E+00
          2   -1    0    0  502    0  0.00000000000E+00  0.00000000000E+00  0.21315817334E+03  0.21315817334E+03  0.00000000000E+00 0.  1.
          1   -1    0    0  501    0 -0.00000000000E+00 -0.00000000000E+00 -0.77908673983E+03  0.77908673983E+03  0.00000000000E+00 0.  1.
          2    1    1    2  501    0  0.45826283406E+01 -0.30628813947E+02  0.21172342873E+03  0.21397648235E+03  0.00000000000E+00 0.  1.
          1    1    1    2  502    0 -0.45826283406E+01  0.30628813947E+02 -0.77765199522E+03  0.77826843081E+03  0.00000000000E+00 0.  1.
</event>
<event>
 4    1  0.3927513E+003  0.2506537E+02  0.7546771E-02  0.1468073E+00
          2   -1    0    0  502    0  0.00000000000E+00  0.00000000000E+00  0.37178024637E+01  0.37178024637E+01  0.00000000000E+00 0. -1.
          1   -1    0    0  501    0 -0.00000000000E+00 -0.00000000000E+00 -0.21747824122E+03  0.21747824122E+03  0.00000000000E+00 0. -1.
          2    1    1    2  501    0  0.20493244326E+02 -0.14432586060E+02 -0.54657886884E+02  0.60131166644E+02  0.00000000000E+00 0. -1.
          1    1    1    2  502    0 -0.20493244326E+02  0.14432586060E+02 -0.15910255187E+03  0.16106487704E+03  0.00000000000E+00 0. -1.
</event>
<event>
 4    1  0.3927513E+003  0.2327333E+02  0.7546771E-02  0.1489094E+00
          2   -1    0    0  502    0  0.00000000000E+00  0.00000000000E+00  0.75513138230E+02  0.75513138230E+02  0.00000000000E+00 0. -1.
          1   -1    0    0  501    0 -0.00000000000E+00 -0.00000000000E+00 -0.16350953971E+03  0.16350953971E+03  0.00000000000E+00 0.  1.
          2    1    1    2  501    0  0.20730470245E+02  0.10578064489E+02  0.72862357607E+02  0.76489025363E+02  0.00000000000E+00 0. -1.
          1    1    1    2  502    0 -0.20730470245E+02 -0.10578064489E+02 -0.16085875909E+03  0.16253365258E+03  0.00000000000E+00 0.  1.
</event>
<event>
 4    1  0.3927513E+003  0.2408745E+02  0.7546771E-02  0.1479277E+00
          2   -1    0    0  502    0  0.00000000000E+00  0.00000000000E+00  0.46972679954E+01  0.46972679954E+01  0.00000000000E+00 0.  1.
          1   -1    0    0  501    0 -0.00000000000E+00 -0.00000000000E+00 -0.76616860747E+03  0.76616860747E+03  0.00000000000E+00 0.  1.
          2    1    1    2  501    0 -0.11010617950E+01 -0.24062267218E+02 -0.27736615446E+02  0.36735879970E+02  0.00000000000E+00 0.  1.
          1    1    1    2  502    0  0.11010617950E+01  0.24062267218E+02 -0.73373472403E+03  0.73412999549E+03  0.00000000000E+00 0.  1.
</event>
<event>
 4    1  0.3927513E+003  0.2296730E+02  0.7546771E-02  0.1492909E+00
          2   -1    0    0  502    0  0.00000000000E+00  0.00000000000E+00  0.11016224345E+01  0.11016224345E+01  0.00000000000E+00 0.  1.
          1   -1    0    0  501    0 -0.00000000000E+00 -0.00000000000E+00 -0.10636006457E+04  0.10636006457E+04  0.00000000000E+00 0. -1.
          2    1    1    2  501    0 -0.88279905922E+01 -0.21202910446E+02 -0.13652024878E+03  0.13843870541E+03  0.00000000000E+00 0.  1.
          1    1    1    2  502    0  0.88279905922E+01  0.21202910446E+02 -0.92597877447E+03  0.92626356271E+03  0.00000000000E+00 0. -1.
</event>
<event>
 4    1  0.3927513E+003  0.2498883E+02  0.7546771E-02  0.1468928E+00
          2   -1    0    0  502    0  0.00000000000E+00  0.00000000000E+00  0.38883222660E+03  0.38883222660E+03  0.00000000000E+00 0. -1.
          1   -1    0    0  501    0 -0.00000000000E+00 -0.00000000000E+00 -0.50718287937E+01  0.50718287937E+01  0.00000000000E+00 0.  1.
          2    1    1    2  501    0 -0.24770902075E+02 -0.32930327015E+01  0.35469182238E+03  0.35557099223E+03  0.00000000000E+00 0. -1.
          1    1    1    2  502    0  0.24770902075E+02  0.32930327015E+01  0.29068575426E+02  0.38333063161E+02  0.00000000000E+00 0.  1.
</event>
<event>
 4    1  0.3927513E+003  0.2279583E+02  0.7546771E-02  0.1495078E+00
          2   -1    0    0  502    0  0.00000000000E+00  0.00000000000E+00  0.15330685961E+04  0.15330685961E+04  0.00000000000E+00 0.  1.
          1   -1    0    0  501    0 -0.00000000000E+00 -0.00000000000E+00 -0.67567976768E+00  0.67567976768E+00  0.00000000000E+00 0. -1.
          2    1    1    2  501    0 -0.22244006361E+02 -0.49853661086E+01  0.13075568621E+04  0.13077555571E+04  0.00000000000E+00 0.  1.
          1    1    1    2  502    0  0.22244006361E+02  0.49853661086E+01  0.22483605427E+03  0.22598871873E+03  0.00000000000E+00 0. -1.
</event>
<event>
 4    1  0.3927513E+003  0.4176326E+02  0.7546771E-02  0.1338452E+00
          2   -1    0    0  502    0  0.00000000000E+00  0.00000000000E+00  0.29307638367E+01  0.29307638367E+01  0.00000000000E+00 0.  1.
          1   -1    0    0  501    0 -0.00000000000E+00 -0.00000000000E+00 -0.91772528807E+03  0.91772528807E+03  0.00000000000E+00 0. -1.
          2    1    1    2  501    0  0.25307799336E+02 -0.33221762423E+02 -0.18447209454E+03  0.18914048713E+03  0.00000000000E+00 0.  1.
          1    1    1    2  502    0 -0.25307799336E+02  0.33221762423E+02 -0.73032242969E+03  0.73151556478E+03  0.00000000000E+00 0. -1.
</event>
<event>
 4    1  0.3927513E+003  0.2822900E+02  0.7546771E-02  0.1435638E+00
          2   -1    0    0  502    0  0.00000000000E+00  0.00000000000E+00  0.83572163772E+02  0.83572163772E+02  0.00000000000E+00 0. -1.
          1   -1    0    0  501    0 -0.00000000000E+00 -0.00000000000E+00 -0.17787972601E+02  0.17787972601E+02  0.00000000000E+00 0.  1.
          2    1    1    2  501    0 -0.21701977435E+02 -0.18052710026E+02  0.67412371664E+02  0.73084225502E+02  0.00000000000E+00 0. -1.
          1    1    1    2  502    0  0.21701977435E+02  0.18052710026E+02 -0.16281804926E+01  0.28275910871E+02  0.00000000000E+00 0.  1.
</event>
<event>
 4    1  0.3927513E+003  0.2183687E+02  0.7546771E-02  0.1507644E+00
          2   -1    0    0  502    0  0.00000000000E+00  0.00000000000E+00  0.19543691591E+03  0.19543691591E+03  0.00000000000E+00 0.  1.
          1   -1    0    0  501    0 -0.00000000000E+00 -0.00000000000E+00 -0.51688990859E+02  0.51688990859E+02  0.00000000000E+00 0.  1.
          2    1    1    2  501    0 -0.20503551955E+02  0.75135334475E+01  0.19248534920E+03  0.19372005184E+03  0.00000000000E+00 0.  1.
          1    1    1    2  502    0  0.20503551955E+02 -0.75135334475E+01 -0.48737424152E+02  0.53405854928E+02  0.00000000000E+00 0.  1.
</event>
<event>
 4    1  0.3927513E+003  0.4020702E+02  0.7546771E-02  0.1347277E+00
          2   -1    0    0  502    0  0.00000000000E+00  0.00000000000E+00  0.19178287661E+04  0.19178287661E+04  0.00000000000E+00 0. -1.
          1   -1    0    0  501    0 -0.00000000000E+00 -0.00000000000E+00 -0.39933060265E+01  0.39933060265E+01  0.00000000000E+00 0. -1.
          2    1    1    2  501    0  0.25845022915E+02  0.30799986516E+02  0.18104063973E+04  0.18108528178E+04  0.00000000000E+00 0. -1.
          1    1    1    2  502    0 -0.25845022915E+02 -0.30799986516E+02  0.10342906285E+03  0.11096925439E+03  0.00000000000E+00 0. -1.
</event>
<event>
 4    1  0.3927513E+003  0.2051945E+02  0.7546771E-02  0.1526238E+00
          2   -1    0    0  502    0  0.00000000000E+00  0.00000000000E+00  0.19106404929E+03  0.19106404929E+03  0.00000000000E+00 0. -1.
          1   -1    0    0  501    0 -0.00000000000E+00 -0.00000000000E+00 -0.23816971353E+02  0.23816971353E+02  0.00000000000E+00 0.  1.
          2    1    1    2  501    0 -0.13493262548E+02 -0.15458970845E+02  0.18597287856E+03  0.18710146839E+03  0.00000000000E+00 0. -1.
          1    1    1    2  502    0  0.13493262548E+02  0.15458970845E+02 -0.18725800630E+02  0.27779552247E+02  0.00000000000E+00 0.  1.
</event>
<event>
 4    1  0.3927513E+003  0.2558571E+02  0.7546771E-02  0.1462357E+00
          2   -1    0    0  502    0  0.00000000000E+00  0.00000000000E+00  0.19598413600E+02  0.19598413600E+02  0.00000000000E+00 0. -1.
          1   -1    0    0  501    0 -0.00000000000E+00 -0.00000000000E+00 -0.39690436696E+02  0.39690436696E+02  0.00000000000E+00 0.  1.
          2    1    1    2  501    0  0.22844695484E+02 -0.11521655656E+02  0.17535840947E+01  0.25645734889E+02  0.00000000000E+00 0. -1.
          1    1    1    2  502    0 -0.22844695484E+02  0.11521655656E+02 -0.21845607190E+02  0.33643115408E+02  0.00000000000E+00 0.  1.
</event>
<event>
 4    1  0.3927513E+003  0.2063207E+02  0.7546771E-02  0.1524583E+00
          2   -1    0    0  502    0  0.00000000000E+00  0.00000000000E+00  0.12472815685E+04  0.12472815685E+04  0.00000000000E+00 0. -1.
          1   -1    0    0  501    0 -0.00000000000E+00 -0.00000000000E+00 -0.19172011641E+03  0.19172011641E+03  0.00000000000E+00 0. -1.
          2    1    1    2  501    0 -0.19397115145E+02  0.70309564463E+01  0.12466408781E+04  0.12468115981E+04  0.00000000000E+00 0. -1.
          1    1    1    2  502    0  0.19397115145E+02 -0.70309564463E+01 -0.19107942596E+03  0.19219008676E+03  0.00000000000E+00 0. -1.
</event>
<event>
 4    1  0.3927513E+003  0.2268651E+02  0.7546771E-02  0.1496473E+00
          2   -1    0    0  502    0  0.00000000000E+00  0.00000000000E+00  0.94934602467E+02  0.94934602467E+02  0.00000000000E+00 0.  1.
          1   -1    0    0  501    0 -0.00000000000E+00 -0.00000000000E+00 -0.54760036501E+01  0.54760036501E+01  0.00000000000E+00 0.  1.
          2    1    1    2  501    0 -0.11773102474E+02 -0.19392572392E+02  0.49742968966E+02  0.54672120568E+02  0.00000000000E+00 0.  1.
          1    1    1    2  502    0  0.11773102474E+02  0.19392572392E+02  0.39715629851E+02  0.45738485549E+02  0.00000000000E+00 0.  1.
</event>
<event>
 4    1  0.3927513E+003  0.2381712E+02  0.7546771E-02  0.1482485E+00
          2   -1    0    0  502    0  0.00000000000E+00  0.00000000000E+00  0.39311279774E+03  0.39311279774E+03  0.00000000000E+00 0.  1.
          1   -1    0    0  501    0 -0.00000000000E+00 -0.00000000000E+00 -0.75875368302E+01  0.75875368302E+01  0.00000000000E+00 0.  1.
          2    1    1    2  501    0 -0.23673116895E+02 -0.26150573998E+01  0.37305796491E+03  0.37381746906E+03  0.00000000000E+00 0.  1.
          1    1    1    2  502    0  0.23673116895E+02  0.26150573998E+01  0.12467296001E+02  0.26882865516E+02  0.00000000000E+00 0.  1.
</event>
<event>
 4    1  0.3927513E+003  0.2325509E+02  0.7546771E-02  0.1489320E+00
          2   -1    0    0  502    0  0.00000000000E+00  0.00000000000E+00  0.45720930961E+03  0.45720930961E+03  0.00000000000E+00 0.  1.
          1   -1    0    0  501    0 -0.00000000000E+00 -0.00000000000E+00 -0.11957398228E+01  0.11957398228E+01  0.00000000000E+00 0.  1.
          2    1    1    2  501    0 -0.96049002480E+01 -0.21178865247E+02  0.20418626966E+03  0.20550628010E+03  0.00000000000E+00 0.  1.
          1    1    1    2  502    0  0.96049002480E+01  0.21178865247E+02  0.25182730013E+03  0.25289876934E+03  0.00000000000E+00 0.  1.
</event>
<event>
 4    1  0.3927513E+003  0.4088287E+02  0.7546771E-02  0.1343388E+00
          2   -1    0    0  502    0  0.00000000000E+00  0.00000000000E+00  0.12877246118E+02  0.12877246118E+02  0.00000000000E+00 0. -1.
          1   -1    0    0  501    0 -0.00000000000E+00 -0.00000000000E+00 -0.40002081386E+03  0.40002081386E+03  0.00000000000E+00 0.  1.
          2    1    1    2  501    0  0.38621218051E+02  0.13409333148E+02 -0.23890258060E+02  0.47351379382E+02  0.00000000000E+00 0. -1.
          1    1    1    2  502    0 -0.38621218051E+02 -0.13409333148E+02 -0.36325330968E+03  0.36554668060E+03  0.00000000000E+00 0.  1.
</event>
<event>
 4    1  0.3927513E+003  0.2256171E+02  0.7546771E-02  0.1498076E+00
          2   -1    0    0  502    0  0.00000000000E+00  0.00000000000E+00  0.66220369863E+03  0.66220369863E+03  0.00000000000E+00 0.  1.
          1   -1    0    0  501    0 -0.00000000000E+00 -0.00000000000E+00 -0.14505456373E+03  0.14505456373E+03  0.00000000000E+00 0. -1.
          2    1    1    2  501    0  0.22445851070E+02  0.22834901407E+01  0.66113279627E+03  0.66151765272E+03  0.00000000000E+00 0.  1.
          1    1    1    2  502    0 -0.22445851070E+02 -0.22834901407E+01 -0.14398366137E+03  0.14574060964E+03  0.00000000000E+00 0. -1.
</event>
<event>
 4    1  0.3927513E+003  0.2859130E+02  0.7546771E-02  0.1432246E+00
          2   -1    0    0  502    0  0.00000000000E+00  0.00000000000E+00  0.60998847724E+03  0.60998847724E+03  0.00000000000E+00 0. -1.
          1   -1    0    0  501    0 -0.00000000000E+00 -0.00000000000E+00 -0.85930447759E+01  0.85930447759E+01  0.00000000000E+00 0. -1.
          2    1    1    2  501    0  0.84841789971E+01 -0.27303496572E+02  0.58484910138E+03  0.58554755025E+03  0.00000000000E+00 0. -1.
          1    1    1    2  502    0 -0.84841789971E+01  0.27303496572E+02  0.16546331085E+02  0.33033971767E+02  0.00000000000E+00 0. -1.
</event>
<event>
 4    1  0.3927513E+003  0.3474263E+02  0.7546771E-02  0.1382382E+00
          2   -1    0    0  502    0  0.00000000000E+00  0.00000000000E+00  0.14128617050E+03  0.14128617050E+03  0.00000000000E+00 0. -1.
          1   -1    0    0  501    0 -0.00000000000E+00 -0.00000000000E+00 -0.39896786270E+03  0.39896786270E+03  0.00000000000E+00 0. -1.
          2    1    1    2  501    0 -0.22146030145E+02  0.26769453084E+02  0.13837833622E+03  0.14267310260E+03  0.00000000000E+00 0. -1.
          1    1    1    2  502    0  0.22146030145E+02 -0.26769453084E+02 -0.39606002842E+03  0.39758093060E+03  0.00000000000E+00 0. -1.
</event>
<event>
 4    1  0.3927513E+003  0.8737114E+02  0.7546771E-02  0.1187697E+00
          2   -1    0    0  502    0  0.00000000000E+00  0.00000000000E+00  0.28618497899E+03  0.28618497899E+03  0.00000000000E+00 0.  1.
          1   -1    0    0  501    0 -0.00000000000E+00 -0.00000000000E+00 -0.59603496253E+03  0.59603496253E+03  0.00000000000E+00 0. -1.
          2    1    1    2  501    0 -0.87349178793E+02  0.19589215484E+01  0.27620161500E+03  0.28969129869E+03  0.00000000000E+00 0.  1.
          1    1    1    2  502    0  0.87349178793E+02 -0.19589215484E+01 -0.58605159854E+03  0.59252864282E+03  0.00000000000E+00 0. -1.
</event>
<event>
 4    1  0.3927513E+003  0.2449315E+02  0.7546771E-02  0.1474554E+00
          2   -1    0    0  502    0  0.00000000000E+00  0.00000000000E+00  0.15099992533E+01  0.15099992533E+01  0.00000000000E+00 0. -1.
          1   -1    0    0  501    0 -0.00000000000E+00 -0.00000000000E+00 -0.17466005751E+04  0.17466005751E+04  0.00000000000E+00 0.  1.
          2    1    1    2  501    0  0.89390687516E+01 -0.22803668047E+02 -0.10430450054E+03  0.10714169618E+03  0.00000000000E+00 0. -1.
          1    1    1    2  502    0 -0.89390687516E+01  0.22803668047E+02 -0.16407860753E+04  0.16409688782E+04  0.00000000000E+00 0.  1.
</event>
<event>
 4    1  0.3927513E+003  0.2922133E+02  0.7546771E-02  0.1426486E+00
          2   -1    0    0  502    0  0.00000000000E+00  0.00000000000E+00  0.24014839039E+01  0.24014839039E+01  0.00000000000E+00 0. -1.
          1   -1    0    0  501    0 -0.00000000000E+00 -0.00000000000E+00 -0.35694895816E+03  0.35694895816E+03  0.00000000000E+00 0. -1.
          2    1    1    2  501    0 -0.29170197024E+02  0.17279324207E+01 -0.16609013100E+03  0.16864109155E+03  0.00000000000E+00 0. -1.
          1    1    1    2  502    0  0.29170197024E+02 -0.17279324207E+01 -0.18845734326E+03  0.19070935051E+03  0.00000000000E+00 0. -1.
</event>
<event>
 4    1  0.3927513E+003  0.2313053E+02  0.7546771E-02  0.1490866E+00
          2   -1    0    0  502    0  0.00000000000E+00  0.00000000000E+00  0.77934677535E+02  0.77934677535E+02  0.00000000000E+00 0.  1.
          1   -1    0    0  501    0 -0.00000000000E+00 -0.00000000000E+00 -0.53012247769E+03  0.53012247769E+03  0.00000000000E+00 0. -1.
          2    1    1    2  501    0  0.53626864029E+01 -0.22500285599E+02  0.75959703569E+02  0.79403386727E+02  0.00000000000E+00 0.  1.
          1    1    1    2  502    0 -0.53626864029E+01  0.22500285599E+02 -0.52814750373E+03  0.52865376850E+03  0.00000000000E+00 0. -1.
</event>
<event>
 4    1  0.3927513E+003  0.2585544E+02  0.7546771E-02  0.1459457E+00
          2   -1    0    0  502    0  0.00000000000E+00  0.00000000000E+00  0.11774443979E+04  0.11774443979E+04  0.00000000000E+00 0.  1.
          1   -1    0    0  501    0 -0.00000000000E+00 -0.00000000000E+00 -0.15331347423E+03  0.15331347423E+03  0.00000000000E+00 0.  1.
          2    1    1    2  501    0 -0.25749151096E+02 -0.23420474750E+01  0.11762112223E+04  0.11764953648E+04  0.00000000000E+00 0.  1.
          1    1    1    2  502    0  0.25749151096E+02  0.23420474750E+01 -0.15208029856E+03  0.15426250737E+03  0.00000000000E+00 0.  1.
</event>
<event>
 4    1  0.3927513E+003  0.3845712E+02  0.7546771E-02  0.1357772E+00
          2   -1    0    0  502    0  0.00000000000E+00  0.00000000000E+00  0.10282486458E+03  0.10282486458E+03  0.00000000000E+00 0.  1.
          1   -1    0    0  501    0 -0.00000000000E+00 -0.00000000000E+00 -0.17892351030E+02  0.17892351030E+02  0.00000000000E+00 0.  1.
          2    1    1    2  501    0  0.94164474619E+01 -0.37286444818E+02  0.15735710862E+02  0.41551907854E+02  0.00000000000E+00 0.  1.
          1    1    1    2  502    0 -0.94164474619E+01  0.37286444818E+02  0.69196802684E+02  0.79165307753E+02  0.00000000000E+00 0.  1.
</event>
<event>
 4    1  0.3927513E+003  0.2125852E+02  0.7546771E-02  0.1515606E+00
          2   -1    0    0  502    0  0.00000000000E+00  0.00000000000E+00  0.70251533607E+03  0.70251533607E+03  0.00000000000E+00 0.  1.
          1   -1    0    0  501    0 -0.00000000000E+00 -0.00000000000E+00 -0.19021228398E+02  0.19021228398E+02  0.00000000000E+00 0.  1.
          2    1    1    2  501    0 -0.16856711684E+02  0.12952838745E+02  0.69636229905E+03  0.69668671317E+03  0.00000000000E+00 0.  1.
          1    1    1    2  502    0  0.16856711684E+02 -0.12952838745E+02 -0.12868191380E+02  0.24849851302E+02  0.00000000000E+00 0.  1.
</event>
<event>
 4    1  0.3927513E+003  0.2208057E+02  0.7546771E-02  0.1504378E+00
          2   -1    0    0  502    0  0.00000000000E+00  0.00000000000E+00  0.50465189975E+01  0.50465189975E+01  0.00000000000E+00 0.  1.
          1   -1    0    0  501    0 -0.00000000000E+00 -0.00000000000E+00 -0.30244877464E+03  0.30244877464E+03  0.00000000000E+00 0.  1.
          2    1    1    2  501    0 -0.11358306425E+02  0.18935164395E+02 -0.21864521045E+02  0.31074247473E+02  0.00000000000E+00 0.  1.
          1    1    1    2  502    0  0.11358306425E+02 -0.18935164395E+02 -0.27553773459E+03  0.27642104616E+03  0.00000000000E+00 0.  1.
</event>
<event>
 4    1  0.3927513E+003  0.2102956E+02  0.7546771E-02  0.1518843E+00
          2   -1    0    0  502    0  0.00000000000E+00  0.00000000000E+00  0.12066510139E+04  0.12066510139E+04  0.00000000000E+00 0.  1.
          1   -1    0    0  501    0 -0.00000000000E+00 -0.00000000000E+00 -0.25191572980E+02  0.25191572980E+02  0.00000000000E+00 0.  1.
          2    1    1    2  501    0  0.15124458610E+02 -0.14611403544E+02  0.12021541796E+04  0.12023381029E+04  0.00000000000E+00 0.  1.
          1    1    1    2  502    0 -0.15124458610E+02  0.14611403544E+02 -0.20694738670E+02  0.29504483903E+02  0.00000000000E+00 0.  1.
</event>
<event>
 4    1  0.3927513E+003  0.2217651E+02  0.7546771E-02  0.1503106E+00
          2   -1    0    0  502    0  0.00000000000E+00  0.00000000000E+00  0.15086081591E+04  0.15086081591E+04  0.00000000000E+00 0.  1.
          1   -1    0    0  501    0 -0.00000000000E+00 -0.00000000000E+00 -0.80561237716E+00  0.80561237716E+00  0.00000000000E+00 0.  1.
          2    1    1    2  501    0  0.10557472800E+02 -0.19502241723E+02  0.13362230323E+04  0.13364070449E+04  0.00000000000E+00 0.  1.
          1    1    1    2  502    0 -0.10557472800E+02  0.19502241723E+02  0.17157951438E+03  0.17300672651E+03  0.00000000000E+00 0.  1.
</event>
<event>
 4    1  0.3927513E+003  0.2317557E+02  0.7546771E-02  0.1490305E+00
          2   -1    0    0  502    0  0.00000000000E+00  0.00000000000E+00  0.13559748488E+04  0.13559748488E+04  0.00000000000E+00 0.  1.
          1   -1    0    0  501    0 -0.00000000000E+00 -0.00000000000E+00 -0.42472591639E+02  0.42472591639E+02  0.00000000000E+00 0.  1.
          2    1    1    2  501    0  0.16376843185E+02 -0.16398350841E+02  0.13527066940E+04  0.13529052098E+04  0.00000000000E+00 0.  1.
          1    1    1    2  502    0 -0.16376843185E+02  0.16398350841E+02 -0.39204436805E+02  0.45542230602E+02  0.00000000000E+00 0.  1.
</event>
<event>
 4    1  0.3927513E+003  0.2224040E+02  0.7546771E-02  0.1502263E+00
          2   -1    0    0  502    0  0.00000000000E+00  0.00000000000E+00  0.76202545347E+03  0.76202545347E+03  0.00000000000E+00 0.  1.
          1   -1    0    0  501    0 -0.00000000000E+00 -0.00000000000E+00 -0.71956108522E+01  0.71956108522E+01  0.00000000000E+00 0.  1.
          2    1    1    2  501    0  0.65903609906E+01  0.21241529739E+02  0.74426792496E+03  0.74460014744E+03  0.00000000000E+00 0.  1.
          1    1    1    2  502    0 -0.65903609906E+01 -0.21241529739E+02  0.10561917663E+02  0.24620916887E+02  0.00000000000E+00 0.  1.
</event>
<event>
 4    1  0.3927513E+003  0.2365549E+02  0.7546771E-02  0.1484427E+00
          2   -1    0    0  502    0  0.00000000000E+00  0.00000000000E+00  0.36547614074E+02  0.36547614074E+02  0.00000000000E+00 0.  1.
          1   -1    0    0  501    0 -0.00000000000E+00 -0.00000000000E+00 -0.18170083598E+02  0.18170083598E+02  0.00000000000E+00 0.  1.
          2    1    1    2  501    0  0.23565390565E+02 -0.20626823736E+01  0.20041247928E+02  0.31003772506E+02  0.00000000000E+00 0.  1.
          1    1    1    2  502    0 -0.23565390565E+02  0.20626823736E+01 -0.16637174521E+01  0.23713925167E+02  0.00000000000E+00 0.  1.
</event>
<event>
 4    1  0.3927513E+003  0.2276027E+02  0.7546771E-02  0.1495531E+00
          2   -1    0    0  502    0  0.00000000000E+00  0.00000000000E+00  0.14312440845E+03  0.14312440845E+03  0.00000000000E+00 0.  1.
          1   -1    0    0  501    0 -0.00000000000E+00 -0.00000000000E+00 -0.15428725358E+02  0.15428725358E+02  0.00000000000E+00 0.  1.
          2    1    1    2  501    0  0.18062149727E+02 -0.13848781425E+02  0.13320505652E+03  0.13513555077E+03  0.00000000000E+00 0.  1.
          1    1    1    2  502    0 -0.18062149727E+02  0.13848781425E+02 -0.55093734289E+01  0.23417583037E+02  0.00000000000E+00 0.  1.
</event>
<event>
 4    1  0.3927513E+003  0.3395983E+02  0.7546771E-02  0.1388027E+00
          2   -1    0    0  502    0  0.00000000000E+00  0.00000000000E+00  0.26105022528E+01  0.26105022528E+01  0.00000000000E+00 0. -1.
          1   -1    0    0  501    0 -0.00000000000E+00 -0.00000000000E+00 -0.52596371998E+03  0.52596371998E+03  0.00000000000E+00 0. -1.
          2    1    1    2  501    0  0.29415024790E+01  0.33832196017E+02 -0.15594376008E+03  0.15959864107E+03  0.00000000000E+00 0. -1.
          1    1    1    2  502    0 -0.29415024790E+01 -0.33832196017E+02 -0.36740945765E+03  0.36897558116E+03  0.00000000000E+00 0. -1.
</event>
<event>
 4    1  0.3927513E+003  0.3374227E+02  0.7546771E-02  0.1389628E+00
          2   -1    0    0  502    0  0.00000000000E+00  0.00000000000E+00  0.34137818624E+03  0.34137818624E+03  0.00000000000E+00 0.  1.
          1   -1    0    0  501    0 -0.00000000000E+00 -0.00000000000E+00 -0.11555648454E+02  0.11555648454E+02  0.00000000000E+00 0. -1.
          2    1    1    2  501    0  0.75029318874E+01 -0.32897515037E+02  0.31374992988E+03  0.31555912122E+03  0.00000000000E+00 0.  1.
          1    1    1    2  502    0 -0.75029318874E+01  0.32897515037E+02  0.16072607903E+02  0.37374713475E+02  0.00000000000E+00 0. -1.
</event>
<event>
 4    1  0.3927513E+003  0.2511323E+02  0.7546771E-02  0.1467541E+00
          2   -1    0    0  502    0  0.00000000000E+00  0.00000000000E+00  0.67747971324E+01  0.67747971324E+01  0.00000000000E+00 0.  1.
          1   -1    0    0  501    0 -0.00000000000E+00 -0.00000000000E+00 -0.57185928168E+03  0.57185928168E+03  0.00000000000E+00 0. -1.
          2    1    1    2  501    0 -0.23354136683E+02 -0.92335500269E+01 -0.17819038840E+02  0.30792731147E+02  0.00000000000E+00 0.  1.
          1    1    1    2  502    0  0.23354136683E+02  0.92335500269E+01 -0.54726544570E+03  0.54784134766E+03  0.00000000000E+00 0. -1.
</event>
<event>
 4    1  0.3927513E+003  0.2482243E+02  0.7546771E-02  0.1470800E+00
          2   -1    0    0  502    0  0.00000000000E+00  0.00000000000E+00  0.42758921380E+03  0.42758921380E+03  0.00000000000E+00 0. -1.
          1   -1    0    0  501    0 -0.00000000000E+00 -0.00000000000E+00 -0.23989831519E+03  0.23989831519E+03  0.00000000000E+00 0.  1.
          2    1    1    2  501    0  0.24252628873E+02 -0.52879988802E+01  0.42658535787E+03  0.42730693943E+03  0.00000000000E+00 0. -1.
          1    1    1    2  502    0 -0.24252628873E+02  0.52879988802E+01 -0.23889445925E+03  0.24018058956E+03  0.00000000000E+00 0.  1.
</event>
<event>
 4    1  0.3927513E+003  0.2703325E+02  0.7546771E-02  0.1447274E+00
          2   -1    0    0  502    0  0.00000000000E+00  0.00000000000E+00  0.20594624916E+04  0.20594624916E+04  0.00000000000E+00 0. -1.
          1   -1    0    0  501    0 -0.00000000000E+00 -0.00000000000E+00 -0.12114057178E+01  0.12114057178E+01  0.00000000000E+00 0.  1.
          2    1    1    2  501    0  0.70587893960E+01  0.26095404590E+02  0.18955141228E+04  0.18957068831E+04  0.00000000000E+00 0. -1.
          1    1    1    2  502    0 -0.70587893960E+01 -0.26095404590E+02  0.16273696308E+03  0.16496701429E+03  0.00000000000E+00 0.  1.
</event>
<event>
 4    1  0.3927513E+003  0.2490037E+02  0.7546771E-02  0.1469921E+00
          2   -1    0    0  502    0  0.00000000000E+00  0.00000000000E+00  0.11683645281E+03  0.11683645281E+03  0.00000000000E+00 0.  1.
          1   -1    0    0  501    0 -0.00000000000E+00 -0.00000000000E+00 -0.10041701604E+03  0.10041701604E+03  0.00000000000E+00 0. -1.
          2    1    1    2  501    0 -0.16403243952E+02 -0.18733975177E+02  0.11392715919E+03  0.11661657617E+03  0.00000000000E+00 0.  1.
          1    1    1    2  502    0  0.16403243952E+02  0.18733975177E+02 -0.97507722413E+02  0.10063689268E+03  0.00000000000E+00 0. -1.
</event>
<event>
 4    1  0.3927513E+003  0.2598401E+02  0.7546771E-02  0.1458090E+00
          2   -1    0    0  502    0  0.00000000000E+00  0.00000000000E+00  0.24515194656E+03  0.24515194656E+03  0.00000000000E+00 0.  1.
          1   -1    0    0  501    0 -0.00000000000E+00 -0.00000000000E+00 -0.17804184102E+03  0.17804184102E+03  0.00000000000E+00 0. -1.
          2    1    1    2  501    0 -0.83865534320E+01  0.24593378751E+02  0.24350900014E+03  0.24489140798E+03  0.00000000000E+00 0.  1.
          1    1    1    2  502    0  0.83865534320E+01 -0.24593378751E+02 -0.17639889460E+03  0.17830237960E+03  0.00000000000E+00 0. -1.
</event>
<event>
 4    1  0.3927513E+003  0.3183991E+02  0.7546771E-02  0.1404254E+00
          2   -1    0    0  502    0  0.00000000000E+00  0.00000000000E+00  0.35727747864E+02  0.35727747864E+02  0.00000000000E+00 0.  1.
          1   -1    0    0  501    0 -0.00000000000E+00 -0.00000000000E+00 -0.17168140308E+04  0.17168140308E+04  0.00000000000E+00 0. -1.
          2    1    1    2  501    0 -0.23242500062E+02 -0.21761573975E+02  0.28456166264E+02  0.42702848962E+02  0.00000000000E+00 0.  1.
          1    1    1    2  502    0  0.23242500062E+02  0.21761573975E+02 -0.17095424491E+04  0.17098389297E+04  0.00000000000E+00 0. -1.
</event>
<event>
 4    1  0.3927513E+003  0.3075352E+02  0.7546771E-02  0.1413159E+00
          2   -1    0    0  502    0  0.00000000000E+00  0.00000000000E+00  0.16205382019E+02  0.16205382019E+02  0.00000000000E+00 0. -1.
          1   -1    0    0  501    0 -0.00000000000E+00 -0.00000000000E+00 -0.99739348114E+03  0.99739348114E+03  0.00000000000E+00 0. -1.
          2    1    1    2  501    0 -0.26941049177E+02 -0.14831014727E+02  0.11543143593E+01  0.30775177827E+02  0.00000000000E+00 0. -1.
          1    1    1    2  502    0  0.26941049177E+02  0.14831014727E+02 -0.98234241348E+03  0.98282368533E+03  0.00000000000E+00 0. -1.
</event>
<event>
 4    1  0.3927513E+003  0.2693551E+02  0.7546771E-02  0.1448257E+00
          2   -1    0    0  502    0  0.00000000000E+00  0.00000000000E+00  0.10092511554E+04  0.10092511554E+04  0.00000000000E+00 0.  1.
          1   -1    0    0  501    0 -0.00000000000E+00 -0.00000000000E+00 -0.90578499858E+00  0.90578499858E+00  0.00000000000E+00 0. -1.
          2    1    1    2  501    0 -0.33693837089E+01  0.26723943035E+02  0.73361136968E+03  0.73410568967E+03  0.00000000000E+00 0.  1.
          1    1    1    2  502    0  0.33693837089E+01 -0.26723943035E+02  0.27473400068E+03  0.27605125069E+03  0.00000000000E+00 0. -1.
</event>
<event>
 4    1  0.3927513E+003  0.2032657E+02  0.7546771E-02  0.1529101E+00
          2   -1    0    0  502    0  0.00000000000E+00  0.00000000000E+00  0.96923471363E+03  0.96923471363E+03  0.00000000000E+00 0.  1.
          1   -1    0    0  501    0 -0.00000000000E+00 -0.00000000000E+00 -0.16381773990E+02  0.16381773990E+02  0.00000000000E+00 0.  1.
          2    1    1    2  501    0 -0.17027794752E+02  0.11100609088E+02  0.96278055847E+03  0.96299510543E+03  0.00000000000E+00 0.  1.
          1    1    1    2  502    0  0.17027794752E+02 -0.11100609088E+02 -0.99276188338E+01  0.22621382184E+02  0.00000000000E+00 0.  1.
</event>
<event>
 4    1  0.3927513E+003  0.4038715E+02  0.7546771E-02  0.1346232E+00
          2   -1    0    0  502    0  0.00000000000E+00  0.00000000000E+00  0.61462485419E+03  0.61462485419E+03  0.00000000000E+00 0.  1.
          1   -1    0    0  501    0 -0.00000000000E+00 -0.00000000000E+00 -0.36723844154E+02  0.36723844154E+02  0.00000000000E+00 0.  1.
          2    1    1    2  501    0  0.35721496340E+02  0.18844005860E+02  0.60263678132E+03  0.60398858603E+03  0.00000000000E+00 0.  1.
          1    1    1    2  502    0 -0.35721496340E+02 -0.18844005860E+02 -0.24735771281E+02  0.47360112315E+02  0.00000000000E+00 0.  1.
</event>
<event>
 4    1  0.3927513E+003  0.2299764E+02  0.7546771E-02  0.1492528E+00
          2   -1    0    0  502    0  0.00000000000E+00  0.00000000000E+00  0.65172869133E+00  0.65172869133E+00  0.00000000000E+00 0.  1.
          1   -1    0    0  501    0 -0.00000000000E+00 -0.00000000000E+00 -0.86684307264E+03  0.86684307264E+03  0.00000000000E+00 0.  1.
          2    1    1    2  501    0 -0.15820919967E+02  0.16691011508E+02 -0.32351934425E+03  0.32433571724E+03  0.00000000000E+00 0.  1.
          1    1    1    2  502    0  0.15820919967E+02 -0.16691011508E+02 -0.54267199970E+03  0.54315908409E+03  0.00000000000E+00 0.  1.
</event>
<event>
 4    1  0.3927513E+003  0.2212922E+02  0.7546771E-02  0.1503732E+00
          2   -1    0    0  502    0  0.00000000000E+00  0.00000000000E+00  0.11792848585E+03  0.11792848585E+03  0.00000000000E+00 0. -1.
          1   -1    0    0  501    0 -0.00000000000E+00 -0.00000000000E+00 -0.47122380103E+01  0.47122380103E+01  0.00000000000E+00 0.  1.
          2    1    1    2  501    0 -0.21157191197E+02  0.64865896999E+01  0.77741483325E+02  0.80829702554E+02  0.00000000000E+00 0. -1.
          1    1    1    2  502    0  0.21157191197E+02 -0.64865896999E+01  0.35474764510E+02  0.41811021302E+02  0.00000000000E+00 0.  1.
</event>
<event>
 4    1  0.3927513E+003  0.2678128E+02  0.7546771E-02  0.1449818E+00
          2   -1    0    0  502    0  0.00000000000E+00  0.00000000000E+00  0.10290092256E+04  0.10290092256E+04  0.00000000000E+00 0.  1.
          1   -1    0    0  501    0 -0.00000000000E+00 -0.00000000000E+00 -0.51883684166E+02  0.51883684166E+02  0.00000000000E+00 0.  1.
          2    1    1    2  501    0 -0.26099024305E+02 -0.60065081702E+01  0.10253667100E+04  0.10257163970E+04  0.00000000000E+00 0.  1.
          1    1    1    2  502    0  0.26099024305E+02  0.60065081702E+01 -0.48241168568E+02  0.55176512710E+02  0.00000000000E+00 0.  1.
</event>
<event>
 4    1  0.3927513E+003  0.2092274E+02  0.7546771E-02  0.1520371E+00
          2   -1    0    0  502    0  0.00000000000E+00  0.00000000000E+00  0.15437138180E+03  0.15437138180E+03  0.00000000000E+00 0.  1.
          1   -1    0    0  501    0 -0.00000000000E+00 -0.00000000000E+00 -0.17698370565E+02  0.17698370565E+02  0.00000000000E+00 0. -1.
          2    1    1    2  501    0 -0.13989730720E+02  0.15557903948E+02  0.14717809561E+03  0.14865783790E+03  0.00000000000E+00 0.  1.
          1    1    1    2  502    0  0.13989730720E+02 -0.15557903948E+02 -0.10505084382E+02  0.23411914461E+02  0.00000000000E+00 0. -1.
</event>
<event>
 4    1  0.3927513E+003  0.2425512E+02  0.7546771E-02  0.1477312E+00
          2   -1    0    0  502    0  0.00000000000E+00  0.00000000000E+00  0.25173858307E+01  0.25173858307E+01  0.00000000000E+00 0. -1.
          1   -1    0    0  501    0 -0.00000000000E+00 -0.00000000000E+00 -0.92208769310E+03  0.92208769310E+03  0.00000000000E+00 0. -1.
          2    1    1    2  501    0  0.21865079575E+02  0.10499008593E+02 -0.60340154424E+02  0.65032646588E+02  0.00000000000E+00 0. -1.
          1    1    1    2  502    0 -0.21865079575E+02 -0.10499008593E+02 -0.85923015285E+03  0.85957243234E+03  0.00000000000E+00 0. -1.
</event>
<event>
 4    1  0.3927513E+003  0.4813886E+02  0.7546771E-02  0.1306450E+00
          2   -1    0    0  502    0  0.00000000000E+00  0.00000000000E+00  0.21200126672E+02  0.21200126672E+02  0.00000000000E+00 0. -1.
          1   -1    0    0  501    0 -0.00000000000E+00 -0.00000000000E+00 -0.11950113786E+04  0.11950113786E+04  0.00000000000E+00 0. -1.
          2    1    1    2  501    0 -0.45066968881E+02  0.16920926332E+02 -0.72785962011E+01  0.48686008202E+02  0.00000000000E+00 0. -1.
          1    1    1    2  502    0  0.45066968881E+02 -0.16920926332E+02 -0.11665326557E+04  0.11675254971E+04  0.00000000000E+00 0. -1.
</event>
<event>
 4    1  0.3927513E+003  0.2174497E+02  0.7546771E-02  0.1508889E+00
          2   -1    0    0  502    0  0.00000000000E+00  0.00000000000E+00  0.21402258523E+02  0.21402258523E+02  0.00000000000E+00 0.  1.
          1   -1    0    0  501    0 -0.00000000000E+00 -0.00000000000E+00 -0.62341404928E+03  0.62341404928E+03  0.00000000000E+00 0.  1.
          2    1    1    2  501    0  0.15047091708E+02  0.15698048850E+02  0.15637815522E+02  0.26784043400E+02  0.00000000000E+00 0.  1.
          1    1    1    2  502    0 -0.15047091708E+02 -0.15698048850E+02 -0.61764960628E+03  0.61803226440E+03  0.00000000000E+00 0.  1.
</event>
<event>
 4    1  0.3927513E+003  0.3054094E+02  0.7546771E-02  0.1414953E+00
          2   -1    0    0  502    0  0.00000000000E+00  0.00000000000E+00  0.31822149926E+02  0.31822149926E+02  0.00000000000E+00 0.  1.
          1   -1    0    0  501    0 -0.00000000000E+00 -0.00000000000E+00 -0.12927507231E+04  0.12927507231E+04  0.00000000000E+00 0. -1.
          2    1    1    2  501    0 -0.17724527640E+02  0.24871469496E+02  0.24270893024E+02  0.39010577068E+02  0.00000000000E+00 0.  1.
          1    1    1    2  502    0  0.17724527640E+02 -0.24871469496E+02 -0.12851994662E+04  0.12855622959E+04  0.00000000000E+00 0. -1.
</event>
<event>
 4    1  0.3927513E+003  0.2070293E+02  0.7546771E-02  0.1523549E+00
          2   -1    0    0  502    0  0.00000000000E+00  0.00000000000E+00  0.11042273817E+04  0.11042273817E+04  0.00000000000E+00 0.  1.
          1   -1    0    0  501    0 -0.00000000000E+00 -0.00000000000E+00 -0.79469432242E+00  0.79469432242E+00  0.00000000000E+00 0.  1.
          2    1    1    2  501    0  0.54864101700E+01 -0.19962734453E+02  0.94689378268E+03  0.94712008063E+03  0.00000000000E+00 0.  1.
          1    1    1    2  502    0 -0.54864101700E+01  0.19962734453E+02  0.15653890465E+03  0.15790199534E+03  0.00000000000E+00 0.  1.
</event>
<event>
 4    1  0.3927513E+003  0.2307219E+02  0.7546771E-02  0.1491594E+00
          2   -1    0    0  502    0  0.00000000000E+00  0.00000000000E+00  0.32535673787E+03  0.32535673787E+03  0.00000000000E+00 0.  1.
          1   -1    0    0  501    0 -0.00000000000E+00 -0.00000000000E+00 -0.16504626006E+03  0.16504626006E+03  0.00000000000E+00 0.  1.
          2    1    1    2  501    0 -0.16095354891E+02  0.16530745797E+02  0.32413834977E+03  0.32495845242E+03  0.00000000000E+00 0.  1.
          1    1    1    2  502    0  0.16095354891E+02 -0.16530745797E+02 -0.16382787197E+03  0.16544454551E+03  0.00000000000E+00 0.  1.
</event>
<event>
 4    1  0.3927513E+003  0.2304495E+02  0.7546771E-02  0.1491934E+00
          2   -1    0    0  502    0  0.00000000000E+00  0.00000000000E+00  0.24246316152E+01  0.24246316152E+01  0.00000000000E+00 0. -1.
          1   -1    0    0  501    0 -0.00000000000E+00 -0.00000000000E+00 -0.23268011667E+03  0.23268011667E+03  0.00000000000E+00 0. -1.
          2    1    1    2  501    0  0.19793321458E+02 -0.11802274299E+02 -0.14359892986E+03  0.14543631565E+03  0.00000000000E+00 0. -1.
          1    1    1    2  502    0 -0.19793321458E+02  0.11802274299E+02 -0.86656555192E+02  0.89668432633E+02  0.00000000000E+00 0. -1.
</event>
<event>
 4    1  0.3927513E+003  0.2125314E+02  0.7546771E-02  0.1515681E+00
          2   -1    0    0  502    0  0.00000000000E+00  0.00000000000E+00  0.37163425154E+01  0.37163425154E+01  0.00000000000E+00 0. -1.
          1   -1    0    0  501    0 -0.00000000000E+00 -0.00000000000E+00 -0.32990649223E+03  0.32990649223E+03  0.00000000000E+00 0. -1.
          2    1    1    2  501    0 -0.58630537268E+01  0.20428426811E+02 -0.30526378271E+02  0.37196179795E+02  0.00000000000E+00 0. -1.
          1    1    1    2  502    0  0.58630537268E+01 -0.20428426811E+02 -0.29566377145E+03  0.29642665495E+03  0.00000000000E+00 0. -1.
</event>
<event>
 4    1  0.3927513E+003  0.2154889E+02  0.7546771E-02  0.1511570E+00
          2   -1    0    0  502    0  0.00000000000E+00  0.00000000000E+00  0.83458834630E+02  0.83458834630E+02  0.00000000000E+00 0.  1.
          1   -1    0    0  501    0 -0.00000000000E+00 -0.00000000000E+00 -0.22891563074E+03  0.22891563074E+03  0.00000000000E+00 0.  1.
          2    1    1    2  501    0 -0.21470147700E+02 -0.18404837076E+01  0.81549065598E+02  0.84348116295E+02  0.00000000000E+00 0.  1.
          1    1    1    2  502    0  0.21470147700E+02  0.18404837076E+01 -0.22700586170E+03  0.22802634907E+03  0.00000000000E+00 0.  1.
</event>
<event>
 4    1  0.3927513E+003  0.2120422E+02  0.7546771E-02  0.1516369E+00
          2   -1    0    0  502    0  0.00000000000E+00  0.00000000000E+00  0.12550865387E+02  0.12550865387E+02  0.00000000000E+00 0. -1.
          1   -1    0    0  501    0 -0.00000000000E+00 -0.00000000000E+00 -0.37442168118E+03  0.37442168118E+03  0.00000000000E+00 0. -1.
          2    1    1    2  501    0 -0.53263863930E+00 -0.21197528530E+02  0.30620499865E+01  0.21424170225E+02  0.00000000000E+00 0. -1.
          1    1    1    2  502    0  0.53263863930E+00  0.21197528530E+02 -0.36493286578E+03  0.36554837634E+03  0.00000000000E+00 0. -1.
</event>
<event>
 4    1  0.3927513E+003  0.2274350E+02  0.7546771E-02  0.1495744E+00
          2   -1    0    0  502    0  0.00000000000E+00  0.00000000000E+00  0.12084609176E+04  0.12084609176E+04  0.00000000000E+00 0.  1.
          1   -1    0    0  501    0 -0.00000000000E+00 -0.00000000000E+00 -0.10486660363E+01  0.10486660363E+01  0.00000000000E+00 0. -1.
          2    1    1    2  501    0  0.20224356971E+02  0.10403957561E+02  0.10689455221E+04  0.10691874467E+04  0.00000000000E+00 0.  1.
          1    1    1    2  502    0 -0.20224356971E+02 -0.10403957561E+02  0.13846672941E+03  0.14032213689E+03  0.00000000000E+00 0. -1.
</event>
<event>
 4    1  0.3927513E+003  0.2388260E+02  0.7546771E-02  0.1481703E+00
          2   -1    0    0  502    0  0.00000000000E+00  0.00000000000E+00  0.18983620639E+03  0.18983620639E+03  0.00000000000E+00 0. -1.
          1   -1    0    0  501    0 -0.00000000000E+00 -0.00000000000E+00 -0.17869531126E+02  0.17869531126E+02  0.00000000000E+00 0.  1.
          2    1    1    2  501    0 -0.20590487370E+02  0.12100011647E+02  0.18070376141E+03  0.18227514323E+03  0.00000000000E+00 0. -1.
          1    1    1    2  502    0  0.20590487370E+02 -0.12100011647E+02 -0.87370861366E+01  0.25430594294E+02  0.00000000000E+00 0.  1.
</event>
<event>
 4    1  0.3927513E+003  0.2833076E+02  0.7546771E-02  0.1434680E+00
          2   -1    0    0  502    0  0.00000000000E+00  0.00000000000E+00  0.30916342902E+02  0.30916342902E+02  0.00000000000E+00 0. -1.
          1   -1    0    0  501    0 -0.00000000000E+00 -0.00000000000E+00 -0.75378748176E+03  0.75378748176E+03  0.00000000000E+00 0. -1.
          2    1    1    2  501    0  0.36214870459E+01  0.28098339146E+02  0.24100590932E+02  0.37195030776E+02  0.00000000000E+00 0. -1.
          1    1    1    2  502    0 -0.36214870459E+01 -0.28098339146E+02 -0.74697172979E+03  0.74750879389E+03  0.00000000000E+00 0. -1.
</event>
<event>
 4    1  0.3927513E+003  0.2684969E+02  0.7546771E-02  0.1449124E+00
          2   -1    0    0  502    0  0.00000000000E+00  0.00000000000E+00  0.21443319766E+03  0.21443319766E+03  0.00000000000E+00 0. -1.
          1   -1    0    0  501    0 -0.00000000000E+00 -0.00000000000E+00 -0.34139901011E+01  0.34139901011E+01  0.00000000000E+00 0. -1.
          2    1    1    2  501    0  0.13362854570E+02 -0.23288182852E+02  0.92056507621E+02  0.95892157856E+02  0.00000000000E+00 0. -1.
          1    1    1    2  502    0 -0.13362854570E+02  0.23288182852E+02  0.11896269994E+03  0.12195502991E+03  0.00000000000E+00 0. -1.
</event>
<event>
 4    1  0.3927513E+003  0.3027208E+02  0.7546771E-02  0.1417246E+00
          2   -1    0    0  502    0  0.00000000000E+00  0.00000000000E+00  0.82811045178E+03  0.82811045178E+03  0.00000000000E+00 0. -1.
          1   -1    0    0  501    0 -0.00000000000E+00 -0.00000000000E+00 -0.11283086046E+02  0.11283086046E+02  0.00000000000E+00 0.  1.
          2    1    1    2  501    0 -0.21743629884E+02  0.21062130993E+02  0.80699807911E+03  0.80756566203E+03  0.00000000000E+00 0. -1.
          1    1    1    2  502    0  0.21743629884E+02 -0.21062130993E+02  0.98292866324E+01  0.31827875804E+02  0.00000000000E+00 0.  1.
</event>
<event>
 4    1  0.3927513E+003  0.2405337E+02  0.7546771E-02  0.1479678E+00
          2   -1    0    0  502    0  0.00000000000E+00  0.00000000000E+00  0.17053537085E+01  0.17053537085E+01  0.00000000000E+00 0.  1.
          1   -1    0    0  501    0 -0.00000000000E+00 -0.00000000000E+00 -0.64454430155E+03  0.64454430155E+03  0.00000000000E+00 0. -1.
          2    1    1    2  501    0  0.23318797313E+02 -0.58990156050E+01 -0.99040607832E+02  0.10191960897E+03  0.00000000000E+00 0.  1.
          1    1    1    2  502    0 -0.23318797313E+02  0.58990156050E+01 -0.54379834000E+03  0.54433004628E+03  0.00000000000E+00 0. -1.
</event>
<event>
 4    1  0.3927513E+003  0.3137933E+02  0.7546771E-02  0.1407977E+00
          2   -1    0    0  502    0  0.00000000000E+00  0.00000000000E+00  0.36686367046E+02  0.36686367046E+02  0.00000000000E+00 0. -1.
          1   -1    0    0  501    0 -0.00000000000E+00 -0.00000000000E+00 -0.23757285567E+03  0.23757285567E+03  0.00000000000E+00 0. -1.
          2    1    1    2  501    0  0.28623496624E+02 -0.12859155290E+02  0.28708106458E+02  0.42530198802E+02  0.00000000000E+00 0. -1.
          1    1    1    2  502    0 -0.28623496624E+02  0.12859155290E+02 -0.22959459508E+03  0.23172902392E+03  0.00000000000E+00 0. -1.
</event>
<event>
 4    1  0.3927513E+003  0.5665655E+02  0.7546771E-02  0.1271636E+00
          2   -1    0    0  502    0  0.00000000000E+00  0.00000000000E+00  0.15492351847E+04  0.15492351847E+04  0.00000000000E+00 0. -1.
          1   -1    0    0  501    0 -0.00000000000E+00 -0.00000000000E+00 -0.55480856499E+02  0.55480856499E+02  0.00000000000E+00 0. -1.
          2    1    1    2  501    0 -0.12178770236E+02  0.55332109198E+02  0.15341103478E+04  0.15351561888E+04  0.00000000000E+00 0. -1.
          1    1    1    2  502    0  0.12178770236E+02 -0.55332109198E+02 -0.40356019583E+02  0.69559852425E+02  0.00000000000E+00 0. -1.
</event>
<event>
 4    1  0.3927513E+003  0.2114360E+02  0.7546771E-02  0.1517224E+00
          2   -1    0    0  502    0  0.00000000000E+00  0.00000000000E+00  0.21817980679E+01  0.21817980679E+01  0.00000000000E+00 0.  1.
          1   -1    0    0  501    0 -0.00000000000E+00 -0.00000000000E+00 -0.22628107186E+03  0.22628107186E+03  0.00000000000E+00 0. -1.
          2    1    1    2  501    0  0.20612010267E+02  0.47113691570E+01 -0.76936544829E+02  0.79788996089E+02  0.00000000000E+00 0.  1.
          1    1    1    2  502    0 -0.20612010267E+02 -0.47113691570E+01 -0.14716272896E+03  0.14867387384E+03  0.00000000000E+00 0. -1.
</event>
<event>
 4    1  0.3927513E+003  0.2675274E+02  0.7546771E-02  0.1450108E+00
          2   -1    0    0  502    0  0.00000000000E+00  0.00000000000E+00  0.24539605316E+03  0.24539605316E+03  0.00000000000E+00 0.  1.
          1   -1    0    0  501    0 -0.00000000000E+00 -0.00000000000E+00 -0.91125874010E+02  0.91125874010E+02  0.00000000000E+00 0. -1.
          2    1    1    2  501    0  0.23179805101E+02  0.13356867798E+02  0.24268150104E+03  0.24415163368E+03  0.00000000000E+00 0.  1.
          1    1    1    2  502    0 -0.23179805101E+02 -0.13356867798E+02 -0.88411321888E+02  0.92370293492E+02  0.00000000000E+00 0. -1.
</event>
<event>
 4    1  0.3927513E+003  0.2816261E+02  0.7546771E-02  0.1436267E+00
          2   -1    0    0  502    0  0.00000000000E+00  0.00000000000E+00  0.23259962722E+01  0.23259962722E+01  0.00000000000E+00 0. -1.
          1   -1    0    0  501    0 -0.00000000000E+00 -0.00000000000E+00 -0.95948319138E+03  0.95948319138E+03  0.00000000000E+00 0. -1.
          2    1    1    2  501    0  0.15813234898E+02  0.23303947485E+02 -0.92470352559E+02  0.96663842612E+02  0.00000000000E+00 0. -1.
          1    1    1    2  502    0 -0.15813234898E+02 -0.23303947485E+02 -0.86468684255E+03  0.86514534504E+03  0.00000000000E+00 0. -1.
</event>
<event>
 4    1  0.3927513E+003  0.3050790E+02  0.7546771E-02  0.1415233E+00
          2   -1    0    0  502    0  0.00000000000E+00  0.00000000000E+00  0.13180485680E+04  0.13180485680E+04  0.00000000000E+00 0. -1.
          1   -1    0    0  501    0 -0.00000000000E+00 -0.00000000000E+00 -0.12706915836E+01  0.12706915836E+01  0.00000000000E+00 0. -1.
          2    1    1    2  501    0  0.30487054997E+02 -0.11276659719E+01  0.10980824808E+04  0.10985061979E+04  0.00000000000E+00 0. -1.
          1    1    1    2  502    0 -0.30487054997E+02  0.11276659719E+01  0.21869539568E+03  0.22081306176E+03  0.00000000000E+00 0. -1.
</event>
<event>
 4    1  0.3927513E+003  0.3623763E+02  0.7546771E-02  0.1372065E+00
          2   -1    0    0  502    0  0.00000000000E+00  0.00000000000E+00  0.16924300864E+04  0.16924300864E+04  0.00000000000E+00 0. -1.
          1   -1    0    0  501    0 -0.00000000000E+00 -0.00000000000E+00 -0.12094691084E+03  0.12094691084E+03  0.00000000000E+00 0.  1.
          2    1    1    2  501    0 -0.33494901063E+02  0.13829579274E+02  0.16895170875E+04  0.16899056644E+04  0.00000000000E+00 0. -1.
          1    1    1    2  502    0  0.33494901063E+02 -0.13829579274E+02 -0.11803391195E+03  0.12347133283E+03  0.00000000000E+00 0.  1.
</event>
<event>
 4    1  0.3927513E+003  0.2340243E+02  0.7546771E-02  0.1487506E+00
          2   -1    0    0  502    0  0.00000000000E+00  0.00000000000E+00  0.22798117224E+01  0.22798117224E+01  0.00000000000E+00 0. -1.
          1   -1    0    0  501    0 -0.00000000000E+00 -0.00000000000E+00 -0.71427484641E+03  0.71427484641E+03  0.00000000000E+00 0.  1.
          2    1    1    2  501    0  0.22078520250E+02  0.77596804086E+01 -0.64122136749E+02  0.68259227345E+02  0.00000000000E+00 0. -1.
          1    1    1    2  502    0 -0.22078520250E+02 -0.77596804086E+01 -0.64787289794E+03  0.64829543078E+03  0.00000000000E+00 0.  1.
</event>
<event>
 4    1  0.3927513E+003  0.2369638E+02  0.7546771E-02  0.1483934E+00
          2   -1    0    0  502    0  0.00000000000E+00  0.00000000000E+00  0.53386802162E+03  0.53386802162E+03  0.00000000000E+00 0.  1.
          1   -1    0    0  501    0 -0.00000000000E+00 -0.00000000000E+00 -0.52910934234E+01  0.52910934234E+01  0.00000000000E+00 0.  1.
          2    1    1    2  501    0  0.18181079509E+02 -0.15197597545E+02  0.50559069709E+03  0.50614570196E+03  0.00000000000E+00 0.  1.
          1    1    1    2  502    0 -0.18181079509E+02  0.15197597545E+02  0.22986231105E+02  0.33013413088E+02  0.00000000000E+00 0.  1.
</event>
<event>
 4    1  0.3927513E+003  0.2611177E+02  0.7546771E-02  0.1456741E+00
          2   -1    0    0  502    0  0.00000000000E+00  0.00000000000E+00  0.19079209097E+03  0.19079209097E+03  0.00000000000E+00 0.  1.
          1   -1    0    0  501    0 -0.00000000000E+00 -0.00000000000E+00 -0.17212672330E+03  0.17212672330E+03  0.00000000000E+00 0.  1.
          2    1    1    2  501    0  0.21954282181E+02  0.14136259434E+02  0.18889850400E+03  0.19069470143E+03  0.00000000000E+00 0.  1.
          1    1    1    2  502    0 -0.21954282181E+02 -0.14136259434E+02 -0.17023313634E+03  0.17222411284E+03  0.00000000000E+00 0.  1.
</event>
<event>
 4    1  0.3927513E+003  0.2027503E+02  0.7546771E-02  0.1529872E+00
          2   -1    0    0  502    0  0.00000000000E+00  0.00000000000E+00  0.88465840601E+03  0.88465840601E+03  0.00000000000E+00 0. -1.
          1   -1    0    0  501    0 -0.00000000000E+00 -0.00000000000E+00 -0.10082056560E+03  0.10082056560E+03  0.00000000000E+00 0. -1.
          2    1    1    2  501    0 -0.16475668698E+02 -0.11816481005E+02  0.88352159843E+03  0.88375420326E+03  0.00000000000E+00 0. -1.
          1    1    1    2  502    0  0.16475668698E+02  0.11816481005E+02 -0.99683758025E+02  0.10172476835E+03  0.00000000000E+00 0. -1.
</event>
<event>
 4    1  0.3927513E+003  0.2720137E+02  0.7546771E-02  0.1445596E+00
          2   -1    0    0  502    0  0.00000000000E+00  0.00000000000E+00  0.20817478451E+03  0.20817478451E+03  0.00000000000E+00 0.  1.
          1   -1    0    0  501    0 -0.00000000000E+00 -0.00000000000E+00 -0.28246923952E+02  0.28246923952E+02  0.00000000000E+00 0. -1.
          2    1    1    2  501    0 -0.13875626147E+02 -0.23396188597E+02  0.20048763620E+03  0.20232450892E+03  0.00000000000E+00 0.  1.
          1    1    1    2  502    0  0.13875626147E+02  0.23396188597E+02 -0.20559775643E+02  0.34097199538E+02  0.00000000000E+00 0. -1.
</event>
<event>
 4    1  0.3927513E+003  0.2611844E+02  0.7546771E-02  0.1456670E+00
          2   -1    0    0  502    0  0.00000000000E+00  0.00000000000E+00  0.65541793071E+03  0.65541793071E+03  0.00000000000E+00 0. -1.
          1   -1    0    0  501    0 -0.00000000000E+00 -0.00000000000E+00 -0.14777492367E+02  0.14777492367E+02  0.00000000000E+00 0. -1.
          2    1    1    2  501    0  0.25149324288E+02 -0.70487035196E+01  0.64340153621E+03  0.64393144785E+03  0.00000000000E+00 0. -1.
          1    1    1    2  502    0 -0.25149324288E+02  0.70487035196E+01 -0.27610978643E+01  0.26263975229E+02  0.00000000000E+00 0. -1.
</event>
<event>
 4    1  0.3927513E+003  0.2268072E+02  0.7546771E-02  0.1496547E+00
          2   -1    0    0  502    0  0.00000000000E+00  0.00000000000E+00  0.62171318172E+01  0.62171318172E+01  0.00000000000E+00 0.  1.
          1   -1    0    0  501    0 -0.00000000000E+00 -0.00000000000E+00 -0.13229271315E+03  0.13229271315E+03  0.00000000000E+00 0.  1.
          2    1    1    2  501    0  0.80737489176E+01 -0.21195041957E+02 -0.20653048988E+02  0.30675130931E+02  0.00000000000E+00 0.  1.
          1    1    1    2  502    0 -0.80737489176E+01  0.21195041957E+02 -0.10542253235E+03  0.10783471404E+03  0.00000000000E+00 0.  1.
</event>
<event>
 4    1  0.3927513E+003  0.2359859E+02  0.7546771E-02  0.1485115E+00
          2   -1    0    0  502    0  0.00000000000E+00  0.00000000000E+00  0.17352533944E+03  0.17352533944E+03  0.00000000000E+00 0.  1.
          1   -1    0    0  501    0 -0.00000000000E+00 -0.00000000000E+00 -0.49927568331E+01  0.49927568331E+01  0.00000000000E+00 0.  1.
          2    1    1    2  501    0 -0.62742882595E+01 -0.22749218369E+02  0.13761380905E+03  0.13962254142E+03  0.00000000000E+00 0.  1.
          1    1    1    2  502    0  0.62742882595E+01  0.22749218369E+02  0.30918773555E+02  0.38895554858E+02  0.00000000000E+00 0.  1.
</event>
<event>
 4    1  0.3927513E+003  0.2134093E+02  0.7546771E-02  0.1514453E+00
          2   -1    0    0  502    0  0.00000000000E+00  0.00000000000E+00  0.68762463953E+03  0.68762463953E+03  0.00000000000E+00 0. -1.
          1   -1    0    0  501    0 -0.00000000000E+00 -0.00000000000E+00 -0.12568188807E+01  0.12568188807E+01  0.00000000000E+00 0. -1.
          2    1    1    2  501    0 -0.56903214989E+01  0.20568309010E+02  0.58007551272E+03  0.58046794532E+03  0.00000000000E+00 0. -1.
          1    1    1    2  502    0  0.56903214989E+01 -0.20568309010E+02  0.10629230793E+03  0.10841351308E+03  0.00000000000E+00 0. -1.
</event>
<event>
 4    1  0.3927513E+003  0.2172258E+02  0.7546771E-02  0.1509193E+00
          2   -1    0    0  502    0  0.00000000000E+00  0.00000000000E+00  0.11257830554E+03  0.11257830554E+03  0.00000000000E+00 0. -1.
          1   -1    0    0  501    0 -0.00000000000E+00 -0.00000000000E+00 -0.11333427296E+02  0.11333427296E+02  0.00000000000E+00 0. -1.
          2    1    1    2  501    0  0.21388004128E+02 -0.37978562829E+01  0.99804863195E+02  0.10214147615E+03  0.00000000000E+00 0. -1.
          1    1    1    2  502    0 -0.21388004128E+02  0.37978562829E+01  0.14400150511E+01  0.21770256688E+02  0.00000000000E+00 0. -1.
</event>
<event>
 4    1  0.3927513E+003  0.3653613E+02  0.7546771E-02  0.1370074E+00
          2   -1    0    0  502    0  0.00000000000E+00  0.00000000000E+00  0.90359495412E+03  0.90359495412E+03  0.00000000000E+00 0.  1.
          1   -1    0    0  501    0 -0.00000000000E+00 -0.00000000000E+00 -0.29705170480E+01  0.29705170480E+01  0.00000000000E+00 0.  1.
          2    1    1    2  501    0  0.35738642156E+02 -0.75919860892E+01  0.77168814429E+03  0.77255257480E+03  0.00000000000E+00 0.  1.
          1    1    1    2  502    0 -0.35738642156E+02  0.75919860892E+01  0.12893629279E+03  0.13401289637E+03  0.00000000000E+00 0.  1.
</event>
<event>
 4    1  0.3927513E+003  0.2504038E+02  0.7546771E-02  0.1468352E+00
          2   -1    0    0  502    0  0.00000000000E+00  0.00000000000E+00  0.90310953621E+03  0.90310953621E+03  0.00000000000E+00 0. -1.
          1   -1    0    0  501    0 -0.00000000000E+00 -0.00000000000E+00 -0.25972933556E+03  0.25972933556E+03  0.00000000000E+00 0. -1.
          2    1    1    2  501    0 -0.15301916590E+02  0.19820993363E+02  0.90233191100E+03  0.90267928858E+03  0.00000000000E+00 0. -1.
          1    1    1    2  502    0  0.15301916590E+02 -0.19820993363E+02 -0.25895171035E+03  0.26015958319E+03  0.00000000000E+00 0. -1.
</event>
<event>
 4    1  0.3927513E+003  0.2044368E+02  0.7546771E-02  0.1527358E+00
          2   -1    0    0  502    0  0.00000000000E+00  0.00000000000E+00  0.30114921036E+02  0.30114921036E+02  0.00000000000E+00 0. -1.
          1   -1    0    0  501    0 -0.00000000000E+00 -0.00000000000E+00 -0.12064324128E+04  0.12064324128E+04  0.00000000000E+00 0. -1.
          2    1    1    2  501    0 -0.19582916553E+02 -0.58697212986E+01  0.26548449258E+02  0.33507676834E+02  0.00000000000E+00 0. -1.
          1    1    1    2  502    0  0.19582916553E+02  0.58697212986E+01 -0.12028659410E+04  0.12030396570E+04  0.00000000000E+00 0. -1.
</event>
<event>
 4    1  0.3927513E+003  0.2388655E+02  0.7546771E-02  0.1481656E+00
          2   -1    0    0  502    0  0.00000000000E+00  0.00000000000E+00  0.12692712226E+04  0.12692712226E+04  0.00000000000E+00 0. -1.
          1   -1    0    0  501    0 -0.00000000000E+00 -0.00000000000E+00 -0.18635593543E+01  0.18635593543E+01  0.00000000000E+00 0.  1.
          2    1    1    2  501    0 -0.21868786734E+02  0.96085109983E+01  0.11873345687E+04  0.11875748167E+04  0.00000000000E+00 0. -1.
          1    1    1    2  502    0  0.21868786734E+02 -0.96085109983E+01  0.80073094508E+02  0.83559965180E+02  0.00000000000E+00 0.  1.
</event>
<event>
 4    1  0.3927513E+003  0.2702697E+02  0.7546771E-02  0.1447337E+00
          2   -1    0    0  502    0  0.00000000000E+00  0.00000000000E+00  0.77732062887E+02  0.77732062887E+02  0.00000000000E+00 0. -1.
          1   -1    0    0  501    0 -0.00000000000E+00 -0.00000000000E+00 -0.13195687954E+04  0.13195687954E+04  0.00000000000E+00 0.  1.
          2    1    1    2  501    0 -0.26324674194E+02 -0.61211720164E+01  0.75239949756E+02  0.79946902739E+02  0.00000000000E+00 0. -1.
          1    1    1    2  502    0  0.26324674194E+02  0.61211720164E+01 -0.13170766823E+04  0.13173539556E+04  0.00000000000E+00 0.  1.
</event>
<event>
 4    1  0.3927513E+003  0.2450201E+02  0.7546771E-02  0.1474452E+00
          2   -1    0    0  502    0  0.00000000000E+00  0.00000000000E+00  0.12806071713E+01  0.12806071713E+01  0.00000000000E+00 0.  1.
          1   -1    0    0  501    0 -0.00000000000E+00 -0.00000000000E+00 -0.86435035676E+03  0.86435035676E+03  0.00000000000E+00 0.  1.
          2    1    1    2  501    0 -0.11987006390E+02  0.21369612420E+02 -0.13874317350E+03  0.14089008784E+03  0.00000000000E+00 0.  1.
          1    1    1    2  502    0  0.11987006390E+02 -0.21369612420E+02 -0.72432657608E+03  0.72474087609E+03  0.00000000000E+00 0.  1.
</event>
<event>
 4    1  0.3927513E+003  0.2022846E+02  0.7546771E-02  0.1530571E+00
          2   -1    0    0  502    0  0.00000000000E+00  0.00000000000E+00  0.30823147884E+03  0.30823147884E+03  0.00000000000E+00 0. -1.
          1   -1    0    0  501    0 -0.00000000000E+00 -0.00000000000E+00 -0.38624703469E+01  0.38624703469E+01  0.00000000000E+00 0.  1.
          2    1    1    2  501    0  0.19092869219E+02  0.66822937882E+01  0.27860150629E+03  0.27933490655E+03  0.00000000000E+00 0. -1.
          1    1    1    2  502    0 -0.19092869219E+02 -0.66822937882E+01  0.25767502202E+02  0.32759042644E+02  0.00000000000E+00 0.  1.
</event>
<event>
 4    1  0.3927513E+003  0.2293649E+02  0.7546771E-02  0.1493297E+00
          2   -1    0    0  502    0  0.00000000000E+00  0.00000000000E+00  0.72964300417E+03  0.72964300417E+03  0.00000000000E+00 0. -1.
          1   -1    0    0  501    0 -0.00000000000E+00 -0.00000000000E+00 -0.43436115900E+01  0.43436115900E+01  0.00000000000E+00 0.  1.
          2    1    1    2  501    0 -0.18919672294E+02  0.12966446412E+02  0.69780238480E+03  0.69817923986E+03  0.00000000000E+00 0. -1.
          1    1    1    2  502    0  0.18919672294E+02 -0.12966446412E+02  0.27497007776E+02  0.35807375901E+02  0.00000000000E+00 0.  1.
</event>
<event>
 4    1  0.3927513E+003  0.2467036E+02  0.7546771E-02  0.1472525E+00
          2   -1    0    0  502    0  0.00000000000E+00  0.00000000000E+00  0.73960570317E+03  0.73960570317E+03  0.00000000000E+00 0.  1.
          1   -1    0    0  501    0 -0.00000000000E+00 -0.00000000000E+00 -0.33622865765E+01  0.33622865765E+01  0.00000000000E+00 0. -1.
          2    1    1    2  501    0 -0.96752208159E+01  0.22693983407E+02  0.69096111975E+03  0.69140139990E+03  0.00000000000E+00 0.  1.
          1    1    1    2  502    0  0.96752208159E+01 -0.22693983407E+02  0.45282296841E+02  0.51566589842E+02  0.00000000000E+00 0. -1.
</event>
<event>
 4    1  0.3927513E+003  0.2252817E+02  0.7546771E-02  0.1498509E+00
          2   -1    0    0  502    0  0.00000000000E+00  0.00000000000E+00  0.15399888171E+04  0.15399888171E+04  0.00000000000E+00 0.  1.
          1   -1    0    0  501    0 -0.00000000000E+00 -0.00000000000E+00 -0.39652644339E+03  0.39652644339E+03  0.00000000000E+00 0. -1.
          2    1    1    2  501    0  0.16199043237E+02 -0.15655969317E+02  0.15395863659E+04  0.15397511800E+04  0.00000000000E+00 0.  1.
          1    1    1    2  502    0 -0.16199043237E+02  0.15655969317E+02 -0.39612399217E+03  0.39676408047E+03  0.00000000000E+00 0. -1.
</event>
<event>
 4    1  0.3927513E+003  0.3856903E+02  0.7546771E-02  0.1357082E+00
          2   -1    0    0  502    0  0.00000000000E+00  0.00000000000E+00  0.20007171178E+03  0.20007171178E+03  0.00000000000E+00 0. -1.
          1   -1    0    0  501    0 -0.00000000000E+00 -0.00000000000E+00 -0.94143166880E+01  0.94143166880E+01  0.00000000000E+00 0. -1.
          2    1    1    2  501    0  0.26579365196E+02 -0.27948295426E+02  0.14335378750E+03  0.14845160242E+03  0.00000000000E+00 0. -1.
          1    1    1    2  502    0 -0.26579365196E+02  0.27948295426E+02  0.47303607597E+02  0.61034426050E+02  0.00000000000E+00 0. -1.
</event>
<event>
 4    1  0.3927513E+003  0.2152193E+02  0.7546771E-02  0.1511942E+00
          2   -1    0    0  502    0  0.00000000000E+00  0.00000000000E+00  0.63562757587E+01  0.63562757587E+01  0.00000000000E+00 0. -1.
          1   -1    0    0  501    0 -0.00000000000E+00 -0.00000000000E+00 -0.53303156917E+03  0.53303156917E+03  0.00000000000E+00 0. -1.
          2    1    1    2  501    0  0.21468602212E+02  0.15140871729E+01 -0.12756142965E+02  0.25018243828E+02  0.00000000000E+00 0. -1.
          1    1    1    2  502    0 -0.21468602212E+02 -0.15140871729E+01 -0.51391915045E+03  0.51436960110E+03  0.00000000000E+00 0. -1.
</event>
<event>
 4    1  0.3927513E+003  0.1826103E+03  0.7546771E-02  0.1068201E+00
          2   -1    0    0  502    0  0.00000000000E+00  0.00000000000E+00  0.21774460776E+04  0.21774460776E+04  0.00000000000E+00 0. -1.
          1   -1    0    0  501    0 -0.00000000000E+00 -0.00000000000E+00 -0.15890285407E+02  0.15890285407E+02  0.00000000000E+00 0. -1.
          2    1    1    2  501    0  0.16972809984E+03 -0.67371240625E+02  0.12895330946E+04  0.13023986003E+04  0.00000000000E+00 0. -1.
          1    1    1    2  502    0 -0.16972809984E+03  0.67371240625E+02  0.87202269756E+03  0.89093776270E+03  0.00000000000E+00 0. -1.
</event>
<event>
 4    1  0.3927513E+003  0.2219613E+02  0.7546771E-02  0.1502847E+00
          2   -1    0    0  502    0  0.00000000000E+00  0.00000000000E+00  0.15246012591E+01  0.15246012591E+01  0.00000000000E+00 0.  1.
          1   -1    0    0  501    0 -0.00000000000E+00 -0.00000000000E+00 -0.10549842522E+04  0.10549842522E+04  0.00000000000E+00 0. -1.
          2    1    1    2  501    0  0.11979481101E+02  0.18685830943E+02 -0.86755010719E+02  0.89549428420E+02  0.00000000000E+00 0.  1.
          1    1    1    2  502    0 -0.11979481101E+02 -0.18685830943E+02 -0.96670464024E+03  0.96695942505E+03  0.00000000000E+00 0. -1.
</event>
<event>
 4    1  0.3927513E+003  0.4584305E+02  0.7546771E-02  0.1317277E+00
          2   -1    0    0  502    0  0.00000000000E+00  0.00000000000E+00  0.13577796901E+04  0.13577796901E+04  0.00000000000E+00 0. -1.
          1   -1    0    0  501    0 -0.00000000000E+00 -0.00000000000E+00 -0.12976537634E+03  0.12976537634E+03  0.00000000000E+00 0.  1.
          2    1    1    2  501    0 -0.12882965369E+02  0.43995615580E+02  0.13533306140E+04  0.13541068406E+04  0.00000000000E+00 0. -1.
          1    1    1    2  502    0  0.12882965369E+02 -0.43995615580E+02 -0.12531630028E+03  0.13343822580E+03  0.00000000000E+00 0.  1.
</event>
<event>
 4    1  0.3927513E+003  0.2083357E+02  0.7546771E-02  0.1521654E+00
          2   -1    0    0  502    0  0.00000000000E+00  0.00000000000E+00  0.66235690500E+00  0.66235690500E+00  0.00000000000E+00 0. -1.
          1   -1    0    0  501    0 -0.00000000000E+00 -0.00000000000E+00 -0.79915312584E+03  0.79915312584E+03  0.00000000000E+00 0. -1.
          2    1    1    2  501    0 -0.17861376226E+02 -0.10724220280E+02 -0.22957132803E+03  0.23051471171E+03  0.00000000000E+00 0. -1.
          1    1    1    2  502    0  0.17861376226E+02  0.10724220280E+02 -0.56891944091E+03  0.56930077104E+03  0.00000000000E+00 0. -1.
</event>
<event>
 4    1  0.3927513E+003  0.2011370E+02  0.7546771E-02  0.1532305E+00
          2   -1    0    0  502    0  0.00000000000E+00  0.00000000000E+00  0.56523886068E+03  0.56523886068E+03  0.00000000000E+00 0. -1.
          1   -1    0    0  501    0 -0.00000000000E+00 -0.00000000000E+00 -0.19252430402E+01  0.19252430402E+01  0.00000000000E+00 0. -1.
          2    1    1    2  501    0  0.11632854268E+02 -0.16408468245E+02  0.50642785835E+03  0.50682712717E+03  0.00000000000E+00 0. -1.
          1    1    1    2  502    0 -0.11632854268E+02  0.16408468245E+02  0.56885759297E+02  0.60336976551E+02  0.00000000000E+00 0. -1.
</event>
<event>
 4    1  0.3927513E+003  0.3498427E+02  0.7546771E-02  0.1380674E+00
          2   -1    0    0  502    0  0.00000000000E+00  0.00000000000E+00  0.55311472183E+03  0.55311472183E+03  0.00000000000E+00 0. -1.
          1   -1    0    0  501    0 -0.00000000000E+00 -0.00000000000E+00 -0.43986325354E+03  0.43986325354E+03  0.00000000000E+00 0.  1.
          2    1    1    2  501    0 -0.15519026118E+02 -0.31353772810E+02  0.55186434878E+03  0.55297211385E+03  0.00000000000E+00 0. -1.
          1    1    1    2  502    0  0.15519026118E+02  0.31353772810E+02 -0.43861288049E+03  0.44000586152E+03  0.00000000000E+00 0.  1.
</event>
<event>
 4    1  0.3927513E+003  0.2059143E+02  0.7546771E-02  0.1525179E+00
          2   -1    0    0  502    0  0.00000000000E+00  0.00000000000E+00  0.13528429097E+04  0.13528429097E+04  0.00000000000E+00 0. -1.
          1   -1    0    0  501    0 -0.00000000000E+00 -0.00000000000E+00 -0.90306459730E+00  0.90306459730E+00  0.00000000000E+00 0.  1.
          2    1    1    2  501    0 -0.11113479165E+02 -0.17334863330E+02  0.12229143985E+04  0.12230877454E+04  0.00000000000E+00 0. -1.
          1    1    1    2  502    0  0.11113479165E+02  0.17334863330E+02  0.12902544662E+03  0.13065822891E+03  0.00000000000E+00 0.  1.
</event>
<event>
 4    1  0.3927513E+003  0.2249262E+02  0.7546771E-02  0.1498969E+00
          2   -1    0    0  502    0  0.00000000000E+00  0.00000000000E+00  0.18310500775E+02  0.18310500775E+02  0.00000000000E+00 0.  1.
          1   -1    0    0  501    0 -0.00000000000E+00 -0.00000000000E+00 -0.91470550764E+03  0.91470550764E+03  0.00000000000E+00 0.  1.
          2    1    1    2  501    0 -0.98442523353E+01 -0.20223967434E+02  0.11210714731E+02  0.25131619279E+02  0.00000000000E+00 0.  1.
          1    1    1    2  502    0  0.98442523353E+01  0.20223967434E+02 -0.90760572160E+03  0.90788438914E+03  0.00000000000E+00 0.  1.
</event>
<event>
 4    1  0.3927513E+003  0.5733704E+02  0.7546771E-02  0.1269159E+00
          2   -1    0    0  502    0  0.00000000000E+00  0.00000000000E+00  0.58490861420E+03  0.58490861420E+03  0.00000000000E+00 0.  1.
          1   -1    0    0  501    0 -0.00000000000E+00 -0.00000000000E+00 -0.12872812853E+03  0.12872812853E+03  0.00000000000E+00 0.  1.
          2    1    1    2  501    0  0.44965316377E+01  0.57160454571E+02  0.57703187505E+03  0.57987353897E+03  0.00000000000E+00 0.  1.
          1    1    1    2  502    0 -0.44965316377E+01 -0.57160454571E+02 -0.12085138939E+03  0.13376320376E+03  0.00000000000E+00 0.  1.
</event>
<event>
 4    1  0.3927513E+003  0.2890483E+02  0.7546771E-02  0.1429358E+00
          2   -1    0    0  502    0  0.00000000000E+00  0.00000000000E+00  0.17711655934E+03  0.17711655934E+03  0.00000000000E+00 0.  1.
          1   -1    0    0  501    0 -0.00000000000E+00 -0.00000000000E+00 -0.12330720101E+04  0.12330720101E+04  0.00000000000E+00 0. -1.
          2    1    1    2  501    0 -0.17624251592E+02  0.22910145804E+02  0.17576658258E+03  0.17812742792E+03  0.00000000000E+00 0.  1.
          1    1    1    2  502    0  0.17624251592E+02 -0.22910145804E+02 -0.12317220333E+04  0.12320611415E+04  0.00000000000E+00 0. -1.
</event>
<event>
 4    1  0.3927513E+003  0.4492943E+02  0.7546771E-02  0.1321793E+00
          2   -1    0    0  502    0  0.00000000000E+00  0.00000000000E+00  0.31525205994E+01  0.31525205994E+01  0.00000000000E+00 0. -1.
          1   -1    0    0  501    0 -0.00000000000E+00 -0.00000000000E+00 -0.68763696593E+03  0.68763696593E+03  0.00000000000E+00 0.  1.
          2    1    1    2  501    0 -0.35485648771E+02 -0.27557624964E+02 -0.25164851948E+03  0.25562791576E+03  0.00000000000E+00 0. -1.
          1    1    1    2  502    0  0.35485648771E+02  0.27557624964E+02 -0.43283592585E+03  0.43516157077E+03  0.00000000000E+00 0.  1.
</event>
<event>
 4    1  0.3927513E+003  0.2715699E+02  0.7546771E-02  0.1446037E+00
          2   -1    0    0  502    0  0.00000000000E+00  0.00000000000E+00  0.64062979575E+01  0.64062979575E+01  0.00000000000E+00 0. -1.
          1   -1    0    0  501    0 -0.00000000000E+00 -0.00000000000E+00 -0.58405141729E+03  0.58405141729E+03  0.00000000000E+00 0.  1.
          2    1    1    2  501    0 -0.24854049784E+02 -0.10944335631E+02 -0.24285049649E+02  0.36431660813E+02  0.00000000000E+00 0. -1.
          1    1    1    2  502    0  0.24854049784E+02  0.10944335631E+02 -0.55336006968E+03  0.55402605444E+03  0.00000000000E+00 0.  1.
</event>
<event>
 4    1  0.3927513E+003  0.2056621E+02  0.7546771E-02  0.1525549E+00
          2   -1    0    0  502    0  0.00000000000E+00  0.00000000000E+00  0.43593205601E+03  0.43593205601E+03  0.00000000000E+00 0. -1.
          1   -1    0    0  501    0 -0.00000000000E+00 -0.00000000000E+00 -0.11267471995E+01  0.11267471995E+01  0.00000000000E+00 0. -1.
          2    1    1    2  501    0  0.12471212348E+02 -0.16353528235E+02  0.29884138433E+03  0.29954822986E+03  0.00000000000E+00 0. -1.
          1    1    1    2  502    0 -0.12471212348E+02  0.16353528235E+02  0.13596392448E+03  0.13751057335E+03  0.00000000000E+00 0. -1.
</event>
<event>
 4    1  0.3927513E+003  0.2732881E+02  0.7546771E-02  0.1444333E+00
          2   -1    0    0  502    0  0.00000000000E+00  0.00000000000E+00  0.22179383862E+02  0.22179383862E+02  0.00000000000E+00 0. -1.
          1   -1    0    0  501    0 -0.00000000000E+00 -0.00000000000E+00 -0.35966279980E+02  0.35966279980E+02  0.00000000000E+00 0. -1.
          2    1    1    2  501    0 -0.26171816457E+02  0.78675985031E+01 -0.14233461445E+02  0.30813219688E+02  0.00000000000E+00 0. -1.
          1    1    1    2  502    0  0.26171816457E+02 -0.78675985031E+01  0.44656532738E+00  0.27332444154E+02  0.00000000000E+00 0. -1.
</event>
<event>
 4    1  0.3927513E+003  0.3079853E+02  0.7546771E-02  0.1412782E+00
          2   -1    0    0  502    0  0.00000000000E+00  0.00000000000E+00  0.87907692824E+03  0.87907692824E+03  0.00000000000E+00 0.  1.
          1   -1    0    0  501    0 -0.00000000000E+00 -0.00000000000E+00 -0.11564733625E+01  0.11564733625E+01  0.00000000000E+00 0.  1.
          2    1    1    2  501    0 -0.20890201546E+02  0.22630709309E+02  0.55285265621E+03  0.55370985994E+03  0.00000000000E+00 0.  1.
          1    1    1    2  502    0  0.20890201546E+02 -0.22630709309E+02  0.32506779867E+03  0.32652354166E+03  0.00000000000E+00 0.  1.
</event>
<event>
 4    1  0.3927513E+003  0.3356440E+02  0.7546771E-02  0.1390947E+00
          2   -1    0    0  502    0  0.00000000000E+00  0.00000000000E+00  0.23978084015E+03  0.23978084015E+03  0.00000000000E+00 0.  1.
          1   -1    0    0  501    0 -0.00000000000E+00 -0.00000000000E+00 -0.47692784856E+01  0.47692784856E+01  0.00000000000E+00 0. -1.
          2    1    1    2  501    0  0.33337954266E+02  0.38922570491E+01  0.13241968912E+03  0.13660725796E+03  0.00000000000E+00 0.  1.
          1    1    1    2  502    0 -0.33337954266E+02 -0.38922570491E+01  0.10259187255E+03  0.10794286068E+03  0.00000000000E+00 0. -1.
</event>
<event>
 4    1  0.3927513E+003  0.3290154E+02  0.7546771E-02  0.1395948E+00
          2   -1    0    0  502    0  0.00000000000E+00  0.00000000000E+00  0.23988701273E+04  0.23988701273E+04  0.00000000000E+00 0. -1.
          1   -1    0    0  501    0 -0.00000000000E+00 -0.00000000000E+00 -0.57306024778E+00  0.57306024778E+00  0.00000000000E+00 0. -1.
          2    1    1    2  501    0 -0.32743095090E+02  0.32250773012E+01  0.17522520912E+04  0.17525609555E+04  0.00000000000E+00 0. -1.
          1    1    1    2  502    0  0.32743095090E+02 -0.32250773012E+01  0.64604497587E+03  0.64688223213E+03  0.00000000000E+00 0. -1.
</event>
<event>
 4    1  0.3927513E+003  0.2657621E+02  0.7546771E-02  0.1451912E+00
          2   -1    0    0  502    0  0.00000000000E+00  0.00000000000E+00  0.23586589367E+01  0.23586589367E+01  0.00000000000E+00 0. -1.
          1   -1    0    0  501    0 -0.00000000000E+00 -0.00000000000E+00 -0.30361275907E+03  0.30361275907E+03  0.00000000000E+00 0. -1.
          2    1    1    2  501    0  0.52978749626E+01 -0.26042788693E+02 -0.16854615375E+03  0.17062854470E+03  0.00000000000E+00 0. -1.
          1    1    1    2  502    0 -0.52978749626E+01  0.26042788693E+02 -0.13270794638E+03  0.13534287331E+03  0.00000000000E+00 0. -1.
</event>
<event>
 4    1  0.3927513E+003  0.2554829E+02  0.7546771E-02  0.1462762E+00
          2   -1    0    0  502    0  0.00000000000E+00  0.00000000000E+00  0.32105526884E+01  0.32105526884E+01  0.00000000000E+00 0. -1.
          1   -1    0    0  501    0 -0.00000000000E+00 -0.00000000000E+00 -0.10658411724E+04  0.10658411724E+04  0.00000000000E+00 0.  1.
          2    1    1    2  501    0 -0.93033770836E+01 -0.23794161260E+02 -0.50463069999E+02  0.56561792483E+02  0.00000000000E+00 0. -1.
          1    1    1    2  502    0  0.93033770836E+01  0.23794161260E+02 -0.10121675497E+04  0.10124899326E+04  0.00000000000E+00 0.  1.
</event>
<event>
 4    1  0.3927513E+003  0.2224317E+02  0.7546771E-02  0.1502227E+00
          2   -1    0    0  502    0  0.00000000000E+00  0.00000000000E+00  0.49481242335E+03  0.49481242335E+03  0.00000000000E+00 0.  1.
          1   -1    0    0  501    0 -0.00000000000E+00 -0.00000000000E+00 -0.34666252482E+01  0.34666252482E+01  0.00000000000E+00 0. -1.
          2    1    1    2  501    0  0.67241247122E+01 -0.21202465422E+02  0.45583305489E+03  0.45637542914E+03  0.00000000000E+00 0.  1.
          1    1    1    2  502    0 -0.67241247122E+01  0.21202465422E+02  0.35512743206E+02  0.41903619451E+02  0.00000000000E+00 0. -1.
</event>
<event>
 4    1  0.3927513E+003  0.2231121E+02  0.7546771E-02  0.1501333E+00
          2   -1    0    0  502    0  0.00000000000E+00  0.00000000000E+00  0.50509697887E+02  0.50509697887E+02  0.00000000000E+00 0. -1.
          1   -1    0    0  501    0 -0.00000000000E+00 -0.00000000000E+00 -0.15306683888E+02  0.15306683888E+02  0.00000000000E+00 0. -1.
          2    1    1    2  501    0 -0.15119216176E+02 -0.16407291369E+02  0.37240332334E+02  0.43412351471E+02  0.00000000000E+00 0. -1.
          1    1    1    2  502    0  0.15119216176E+02  0.16407291369E+02 -0.20373183349E+01  0.22404030304E+02  0.00000000000E+00 0. -1.
</event>
<event>
 4    1  0.3927513E+003  0.2776440E+02  0.7546771E-02  0.1440077E+00
          2   -1    0    0  502    0  0.00000000000E+00  0.00000000000E+00  0.85112858801E+03  0.85112858801E+03  0.00000000000E+00 0.  1.
          1   -1    0    0  501    0 -0.00000000000E+00 -0.00000000000E+00 -0.29143064602E+01  0.29143064602E+01  0.00000000000E+00 0. -1.
          2    1    1    2  501    0  0.27375768879E+02  0.46291727454E+01  0.77861850923E+03  0.77911337100E+03  0.00000000000E+00 0.  1.
          1    1    1    2  502    0 -0.27375768879E+02 -0.46291727454E+01  0.69595772319E+02  0.74929523465E+02  0.00000000000E+00 0. -1.
</event>
<event>
 4    1  0.3927513E+003  0.3210368E+02  0.7546771E-02  0.1402155E+00
          2   -1    0    0  502    0  0.00000000000E+00  0.00000000000E+00  0.28101010805E+02  0.28101010805E+02  0.00000000000E+00 0.  1.
          1   -1    0    0  501    0 -0.00000000000E+00 -0.00000000000E+00 -0.82188163395E+03  0.82188163395E+03  0.00000000000E+00 0. -1.
          2    1    1    2  501    0 -0.26008215107E+02 -0.18820702773E+02  0.18510170365E+02  0.37057691683E+02  0.00000000000E+00 0.  1.
          1    1    1    2  502    0  0.26008215107E+02  0.18820702773E+02 -0.81229079351E+03  0.81292495307E+03  0.00000000000E+00 0. -1.
</event>
<event>
 4    1  0.3927513E+003  0.3046250E+02  0.7546771E-02  0.1415619E+00
          2   -1    0    0  502    0  0.00000000000E+00  0.00000000000E+00  0.13331437229E+03  0.13331437229E+03  0.00000000000E+00 0.  1.
          1   -1    0    0  501    0 -0.00000000000E+00 -0.00000000000E+00 -0.38568059494E+03  0.38568059494E+03  0.00000000000E+00 0.  1.
          2    1    1    2  501    0  0.30339490763E+02  0.27348276776E+01  0.13096201961E+03  0.13445822608E+03  0.00000000000E+00 0.  1.
          1    1    1    2  502    0 -0.30339490763E+02 -0.27348276776E+01 -0.38332824226E+03  0.38453674115E+03  0.00000000000E+00 0.  1.
</event>
<event>
 4    1  0.3927513E+003  0.4018211E+02  0.7546771E-02  0.1347422E+00
          2   -1    0    0  502    0  0.00000000000E+00  0.00000000000E+00  0.14692300470E+01  0.14692300470E+01  0.00000000000E+00 0. -1.
          1   -1    0    0  501    0 -0.00000000000E+00 -0.00000000000E+00 -0.16503807157E+04  0.16503807157E+04  0.00000000000E+00 0. -1.
          2    1    1    2  501    0  0.38484685274E+02 -0.11555570652E+02 -0.34704060253E+03  0.34935910182E+03  0.00000000000E+00 0. -1.
          1    1    1    2  502    0 -0.38484685274E+02  0.11555570652E+02 -0.13018708831E+04  0.13024908439E+04  0.00000000000E+00 0. -1.
</event>
<event>
 4    1  0.3927513E+003  0.2206189E+02  0.7546771E-02  0.1504626E+00
          2   -1    0    0  502    0  0.00000000000E+00  0.00000000000E+00  0.82125566114E+00  0.82125566114E+00  0.00000000000E+00 0.  1.
          1   -1    0    0  501    0 -0.00000000000E+00 -0.00000000000E+00 -0.83169180620E+03  0.83169180620E+03  0.00000000000E+00 0.  1.
          2    1    1    2  501    0 -0.81217544088E+01  0.20512536875E+02 -0.19228068054E+03  0.19354221031E+03  0.00000000000E+00 0.  1.
          1    1    1    2  502    0  0.81217544088E+01 -0.20512536875E+02 -0.63858986999E+03  0.63897085154E+03  0.00000000000E+00 0.  1.
</event>
<event>
 4    1  0.3927513E+003  0.6026853E+02  0.7546771E-02  0.1258923E+00
          2   -1    0    0  502    0  0.00000000000E+00  0.00000000000E+00  0.14417441619E+04  0.14417441619E+04  0.00000000000E+00 0. -1.
          1   -1    0    0  501    0 -0.00000000000E+00 -0.00000000000E+00 -0.85357984356E+01  0.85357984356E+01  0.00000000000E+00 0.  1.
          2    1    1    2  501    0  0.13235138042E+02  0.58797340942E+02  0.13253961613E+04  0.13267657219E+04  0.00000000000E+00 0. -1.
          1    1    1    2  502    0 -0.13235138042E+02 -0.58797340942E+02  0.10781220209E+03  0.12351423846E+03  0.00000000000E+00 0.  1.
</event>
<event>
 4    1  0.3927513E+003  0.2417197E+02  0.7546771E-02  0.1478284E+00
          2   -1    0    0  502    0  0.00000000000E+00  0.00000000000E+00  0.40540702331E+01  0.40540702331E+01  0.00000000000E+00 0. -1.
          1   -1    0    0  501    0 -0.00000000000E+00 -0.00000000000E+00 -0.46704860765E+03  0.46704860765E+03  0.00000000000E+00 0.  1.
          2    1    1    2  501    0  0.57660067005E+01  0.23474182962E+02 -0.35632696000E+02  0.43057788183E+02  0.00000000000E+00 0. -1.
          1    1    1    2  502    0 -0.57660067005E+01 -0.23474182962E+02 -0.42736184142E+03  0.42804488970E+03  0.00000000000E+00 0.  1.
</event>
<event>
 4    1  0.3927513E+003  0.2492621E+02  0.7546771E-02  0.1469631E+00
          2   -1    0    0  502    0  0.00000000000E+00  0.00000000000E+00  0.53021768565E+03  0.53021768565E+03  0.00000000000E+00 0. -1.
          1   -1    0    0  501    0 -0.00000000000E+00 -0.00000000000E+00 -0.58321891876E+02  0.58321891876E+02  0.00000000000E+00 0.  1.
          2    1    1    2  501    0 -0.24888067931E+02  0.13784796330E+01  0.52724642603E+03  0.52783530565E+03  0.00000000000E+00 0. -1.
          1    1    1    2  502    0  0.24888067931E+02 -0.13784796330E+01 -0.55350632261E+02  0.60704271869E+02  0.00000000000E+00 0.  1.
</event>
<event>
 4    1  0.3927513E+003  0.2106549E+02  0.7546771E-02  0.1518332E+00
          2   -1    0    0  502    0  0.00000000000E+00  0.00000000000E+00  0.12434937938E+04  0.12434937938E+04  0.00000000000E+00 0.  1.
          1   -1    0    0  501    0 -0.00000000000E+00 -0.00000000000E+00 -0.41744774464E+00  0.41744774464E+00  0.00000000000E+00 0. -1.
          2    1    1    2  501    0 -0.79282799681E+01  0.19516585467E+02  0.85848249324E+03  0.85874090733E+03  0.00000000000E+00 0.  1.
          1    1    1    2  502    0  0.79282799681E+01 -0.19516585467E+02  0.38459385282E+03  0.38517033421E+03  0.00000000000E+00 0. -1.
</event>
<event>
 4    1  0.3927513E+003  0.2097768E+02  0.7546771E-02  0.1519584E+00
          2   -1    0    0  502    0  0.00000000000E+00  0.00000000000E+00  0.13023024906E+02  0.13023024906E+02  0.00000000000E+00 0. -1.
          1   -1    0    0  501    0 -0.00000000000E+00 -0.00000000000E+00 -0.57063110229E+03  0.57063110229E+03  0.00000000000E+00 0.  1.
          2    1    1    2  501    0  0.20236547268E+02 -0.55267787665E+01  0.42505865175E+01  0.21403985951E+02  0.00000000000E+00 0. -1.
          1    1    1    2  502    0 -0.20236547268E+02  0.55267787665E+01 -0.56185866390E+03  0.56225014125E+03  0.00000000000E+00 0.  1.
</event>
<event>
 4    1  0.3927513E+003  0.3167580E+02  0.7546771E-02  0.1405572E+00
          2   -1    0    0  502    0  0.00000000000E+00  0.00000000000E+00  0.60592058002E+01  0.60592058002E+01  0.00000000000E+00 0. -1.
          1   -1    0    0  501    0 -0.00000000000E+00 -0.00000000000E+00 -0.48347263868E+03  0.48347263868E+03  0.00000000000E+00 0.  1.
          2    1    1    2  501    0 -0.13094973063E+02 -0.28842295802E+02 -0.40235741842E+02  0.51208117210E+02  0.00000000000E+00 0. -1.
          1    1    1    2  502    0  0.13094973063E+02  0.28842295802E+02 -0.43717769104E+03  0.43832372727E+03  0.00000000000E+00 0.  1.
</event>
<event>
 4    1  0.3927513E+003  0.2848953E+02  0.7546771E-02  0.1433193E+00
          2   -1    0    0  502    0  0.00000000000E+00  0.00000000000E+00  0.40571052535E+03  0.40571052535E+03  0.00000000000E+00 0. -1.
          1   -1    0    0  501    0 -0.00000000000E+00 -0.00000000000E+00 -0.23794738821E+01  0.23794738821E+01  0.00000000000E+00 0. -1.
          2    1    1    2  501    0  0.14680751433E+02  0.24415751473E+02  0.28308878666E+03  0.28451874194E+03  0.00000000000E+00 0. -1.
          1    1    1    2  502    0 -0.14680751433E+02 -0.24415751473E+02  0.12024226481E+03  0.12357125729E+03  0.00000000000E+00 0. -1.
</event>
<event>
 4    1  0.3927513E+003  0.1117809E+03  0.7546771E-02  0.1144824E+00
          2   -1    0    0  502    0  0.00000000000E+00  0.00000000000E+00  0.52851307373E+03  0.52851307373E+03  0.00000000000E+00 0.  1.
          1   -1    0    0  501    0 -0.00000000000E+00 -0.00000000000E+00 -0.10349527973E+04  0.10349527973E+04  0.00000000000E+00 0.  1.
          2    1    1    2  501    0 -0.11178085380E+03 -0.82268941308E-01  0.51953281363E+03  0.53142197026E+03  0.00000000000E+00 0.  1.
          1    1    1    2  502    0  0.11178085380E+03  0.82268941308E-01 -0.10259725372E+04  0.10320439008E+04  0.00000000000E+00 0.  1.
</event>
<event>
 4    1  0.3927513E+003  0.5814806E+02  0.7546771E-02  0.1266258E+00
          2   -1    0    0  502    0  0.00000000000E+00  0.00000000000E+00  0.20311557442E+03  0.20311557442E+03  0.00000000000E+00 0.  1.
          1   -1    0    0  501    0 -0.00000000000E+00 -0.00000000000E+00 -0.60870563195E+03  0.60870563195E+03  0.00000000000E+00 0. -1.
          2    1    1    2  501    0 -0.56178991373E+02 -0.15003938937E+02  0.19752674933E+03  0.20590778022E+03  0.00000000000E+00 0.  1.
          1    1    1    2  502    0  0.56178991373E+02  0.15003938937E+02 -0.60311680687E+03  0.60591342615E+03  0.00000000000E+00 0. -1.
</event>
<event>
 4    1  0.3927513E+003  0.2012876E+02  0.7546771E-02  0.1532076E+00
          2   -1    0    0  502    0  0.00000000000E+00  0.00000000000E+00  0.22797825505E+02  0.22797825505E+02  0.00000000000E+00 0. -1.
          1   -1    0    0  501    0 -0.00000000000E+00 -0.00000000000E+00 -0.18536984186E+02  0.18536984186E+02  0.00000000000E+00 0. -1.
          2    1    1    2  501    0 -0.19571936073E+02 -0.47017212498E+01  0.63284353390E+01  0.21100141189E+02  0.00000000000E+00 0. -1.
          1    1    1    2  502    0  0.19571936073E+02  0.47017212498E+01 -0.20675940200E+01  0.20234668502E+02  0.00000000000E+00 0. -1.
</event>
<event>
 4    1  0.3927513E+003  0.2069885E+02  0.7546771E-02  0.1523608E+00
          2   -1    0    0  502    0  0.00000000000E+00  0.00000000000E+00  0.12307222318E+03  0.12307222318E+03  0.00000000000E+00 0.  1.
          1   -1    0    0  501    0 -0.00000000000E+00 -0.00000000000E+00 -0.14658880584E+02  0.14658880584E+02  0.00000000000E+00 0. -1.
          2    1    1    2  501    0 -0.14799212846E+02 -0.14471541529E+02  0.11434162382E+03  0.11620003939E+03  0.00000000000E+00 0.  1.
          1    1    1    2  502    0  0.14799212846E+02  0.14471541529E+02 -0.59282812231E+01  0.21531064380E+02  0.00000000000E+00 0. -1.
</event>
<event>
 4    1  0.3927513E+003  0.4202085E+02  0.7546771E-02  0.1337034E+00
          2   -1    0    0  502    0  0.00000000000E+00  0.00000000000E+00  0.45470021712E+01  0.45470021712E+01  0.00000000000E+00 0. -1.
          1   -1    0    0  501    0 -0.00000000000E+00 -0.00000000000E+00 -0.48749542686E+03  0.48749542686E+03  0.00000000000E+00 0. -1.
          2    1    1    2  501    0  0.34295577701E+02  0.24280955455E+02 -0.13051569621E+03  0.13711345086E+03  0.00000000000E+00 0. -1.
          1    1    1    2  502    0 -0.34295577701E+02 -0.24280955455E+02 -0.35243272848E+03  0.35492897818E+03  0.00000000000E+00 0. -1.
</event>
<event>
 4    1  0.3927513E+003  0.2169171E+02  0.7546771E-02  0.1509614E+00
          2   -1    0    0  502    0  0.00000000000E+00  0.00000000000E+00  0.27749123854E+01  0.27749123854E+01  0.00000000000E+00 0.  1.
          1   -1    0    0  501    0 -0.00000000000E+00 -0.00000000000E+00 -0.12343098794E+04  0.12343098794E+04  0.00000000000E+00 0.  1.
          2    1    1    2  501    0  0.60643306873E+01  0.20826765304E+02 -0.41280775182E+02  0.46632956794E+02  0.00000000000E+00 0.  1.
          1    1    1    2  502    0 -0.60643306873E+01 -0.20826765304E+02 -0.11902541918E+04  0.11904518350E+04  0.00000000000E+00 0.  1.
</event>
<event>
 4    1  0.3927513E+003  0.2064690E+02  0.7546771E-02  0.1524366E+00
          2   -1    0    0  502    0  0.00000000000E+00  0.00000000000E+00  0.46401499311E+02  0.46401499311E+02  0.00000000000E+00 0.  1.
          1   -1    0    0  501    0 -0.00000000000E+00 -0.00000000000E+00 -0.77803272588E+02  0.77803272588E+02  0.00000000000E+00 0. -1.
          2    1    1    2  501    0  0.20158667786E+02 -0.44634893278E+01  0.42619801342E+02  0.47357598021E+02  0.00000000000E+00 0.  1.
          1    1    1    2  502    0 -0.20158667786E+02  0.44634893278E+01 -0.74021574619E+02  0.76847173878E+02  0.00000000000E+00 0. -1.
</event>
<event>
 4    1  0.3927513E+003  0.2099879E+02  0.7546771E-02  0.1519282E+00
          2   -1    0    0  502    0  0.00000000000E+00  0.00000000000E+00  0.10156541871E+02  0.10156541871E+02  0.00000000000E+00 0.  1.
          1   -1    0    0  501    0 -0.00000000000E+00 -0.00000000000E+00 -0.48867275798E+03  0.48867275798E+03  0.00000000000E+00 0.  1.
          2    1    1    2  501    0  0.92079556366E+01 -0.18872272107E+02 -0.11805244385E+01  0.21031945688E+02  0.00000000000E+00 0.  1.
          1    1    1    2  502    0 -0.92079556366E+01  0.18872272107E+02 -0.47733569167E+03  0.47779735416E+03  0.00000000000E+00 0.  1.
</event>
<event>
 4    1  0.3927513E+003  0.2654439E+02  0.7546771E-02  0.1452239E+00
          2   -1    0    0  502    0  0.00000000000E+00  0.00000000000E+00  0.24317424313E+03  0.24317424313E+03  0.00000000000E+00 0. -1.
          1   -1    0    0  501    0 -0.00000000000E+00 -0.00000000000E+00 -0.88273800704E+02  0.88273800704E+02  0.00000000000E+00 0. -1.
          2    1    1    2  501    0 -0.15903273481E+02  0.21253014040E+02  0.24043165773E+03  0.24189251074E+03  0.00000000000E+00 0. -1.
          1    1    1    2  502    0  0.15903273481E+02 -0.21253014040E+02 -0.85531215313E+02  0.89555533085E+02  0.00000000000E+00 0. -1.
</event>
<event>
 4    1  0.3927513E+003  0.3159082E+02  0.7546771E-02  0.1406258E+00
          2   -1    0    0  502    0  0.00000000000E+00  0.00000000000E+00  0.69979686672E+01  0.69979686672E+01  0.00000000000E+00 0. -1.
          1   -1    0    0  501    0 -0.00000000000E+00 -0.00000000000E+00 -0.18925158275E+04  0.18925158275E+04  0.00000000000E+00 0.  1.
          2    1    1    2  501    0  0.30886566763E+02 -0.66332547736E+01 -0.29487147142E+02  0.43214256003E+02  0.00000000000E+00 0. -1.
          1    1    1    2  502    0 -0.30886566763E+02  0.66332547736E+01 -0.18560307117E+04  0.18562995401E+04  0.00000000000E+00 0.  1.
</event>
<event>
 4    1  0.3927513E+003  0.2624007E+02  0.7546771E-02  0.1455395E+00
          2   -1    0    0  502    0  0.00000000000E+00  0.00000000000E+00  0.26923549367E+03  0.26923549367E+03  0.00000000000E+00 0.  1.
          1   -1    0    0  501    0 -0.00000000000E+00 -0.00000000000E+00 -0.52725149306E+01  0.52725149306E+01  0.00000000000E+00 0. -1.
          2    1    1    2  501    0  0.21891712638E+02 -0.14466995510E+02  0.23047571298E+03  0.23196464238E+03  0.00000000000E+00 0.  1.
          1    1    1    2  502    0 -0.21891712638E+02  0.14466995510E+02  0.33487265763E+02  0.42543366223E+02  0.00000000000E+00 0. -1.
</event>
<event>
 4    1  0.3927513E+003  0.2002925E+02  0.7546771E-02  0.1533589E+00
          2   -1    0    0  502    0  0.00000000000E+00  0.00000000000E+00  0.33369593297E+03  0.33369593297E+03  0.00000000000E+00 0. -1.
          1   -1    0    0  501    0 -0.00000000000E+00 -0.00000000000E+00 -0.14641279111E+01  0.14641279111E+01  0.00000000000E+00 0. -1.
          2    1    1    2  501    0  0.63788003927E+00 -0.20019088312E+02  0.23699526879E+03  0.23784013164E+03  0.00000000000E+00 0. -1.
          1    1    1    2  502    0 -0.63788003927E+00  0.20019088312E+02  0.95236536268E+02  0.97319929244E+02  0.00000000000E+00 0. -1.
</event>
<event>
 4    1  0.3927513E+003  0.2430884E+02  0.7546771E-02  0.1476686E+00
          2   -1    0    0  502    0  0.00000000000E+00  0.00000000000E+00  0.50170064473E+02  0.50170064473E+02  0.00000000000E+00 0.  1.
          1   -1    0    0  501    0 -0.00000000000E+00 -0.00000000000E+00 -0.25983095541E+02  0.25983095541E+02  0.00000000000E+00 0.  1.
          2    1    1    2  501    0  0.57631742595E+01  0.23615785759E+02  0.40246799623E+02  0.47018341044E+02  0.00000000000E+00 0.  1.
          1    1    1    2  502    0 -0.57631742595E+01 -0.23615785759E+02 -0.16059830691E+02  0.29134818970E+02  0.00000000000E+00 0.  1.
</event>
<event>
 4    1  0.3927513E+003  0.2010606E+02  0.7546771E-02  0.1532420E+00
          2   -1    0    0  502    0  0.00000000000E+00  0.00000000000E+00  0.89894834668E+03  0.89894834668E+03  0.00000000000E+00 0. -1.
          1   -1    0    0  501    0 -0.00000000000E+00 -0.00000000000E+00 -0.53494007441E+00  0.53494007441E+00  0.00000000000E+00 0. -1.
          2    1    1    2  501    0  0.20026251961E+02  0.17897147141E+01  0.62873858595E+03  0.62905998387E+03  0.00000000000E+00 0. -1.
          1    1    1    2  502    0 -0.20026251961E+02 -0.17897147141E+01  0.26967482066E+03  0.27042330289E+03  0.00000000000E+00 0. -1.
</event>
<event>
 4    1  0.3927513E+003  0.2990555E+02  0.7546771E-02  0.1420419E+00
          2   -1    0    0  502    0  0.00000000000E+00  0.00000000000E+00  0.43743525380E+02  0.43743525380E+02  0.00000000000E+00 0. -1.
          1   -1    0    0  501    0 -0.00000000000E+00 -0.00000000000E+00 -0.18999527393E+03  0.18999527393E+03  0.00000000000E+00 0.  1.
          2    1    1    2  501    0  0.36702038803E+01  0.29679480804E+02  0.37276521524E+02  0.47789967924E+02  0.00000000000E+00 0. -1.
          1    1    1    2  502    0 -0.36702038803E+01 -0.29679480804E+02 -0.18352827007E+03  0.18594883138E+03  0.00000000000E+00 0.  1.
</event>
<event>
 4    1  0.3927513E+003  0.2433087E+02  0.7546771E-02  0.1476430E+00
          2   -1    0    0  502    0  0.00000000000E+00  0.00000000000E+00  0.17292518969E+03  0.17292518969E+03  0.00000000000E+00 0. -1.
          1   -1    0    0  501    0 -0.00000000000E+00 -0.00000000000E+00 -0.89964635705E+02  0.89964635705E+02  0.00000000000E+00 0. -1.
          2    1    1    2  501    0 -0.74936051449E+01 -0.23148151610E+02  0.17040001991E+03  0.17212831791E+03  0.00000000000E+00 0. -1.
          1    1    1    2  502    0  0.74936051449E+01  0.23148151610E+02 -0.87439465921E+02  0.90761507488E+02  0.00000000000E+00 0. -1.
</event>
<event>
 4    1  0.3927513E+003  0.2335926E+02  0.7546771E-02  0.1488035E+00
          2   -1    0    0  502    0  0.00000000000E+00  0.00000000000E+00  0.42351335550E+03  0.42351335550E+03  0.00000000000E+00 0.  1.
          1   -1    0    0  501    0 -0.00000000000E+00 -0.00000000000E+00 -0.12885554031E+01  0.12885554031E+01  0.00000000000E+00 0.  1.
          2    1    1    2  501    0  0.13973850654E+01  0.23317416599E+02  0.20877973513E+03  0.21008244192E+03  0.00000000000E+00 0.  1.
          1    1    1    2  502    0 -0.13973850654E+01 -0.23317416599E+02  0.21344506497E+03  0.21471946899E+03  0.00000000000E+00 0.  1.
</event>
<event>
 4    1  0.3927513E+003  0.2096436E+02  0.7546771E-02  0.1519774E+00
          2   -1    0    0  502    0  0.00000000000E+00  0.00000000000E+00  0.41758236048E+02  0.41758236048E+02  0.00000000000E+00 0.  1.
          1   -1    0    0  501    0 -0.00000000000E+00 -0.00000000000E+00 -0.14899289116E+03  0.14899289116E+03  0.00000000000E+00 0.  1.
          2    1    1    2  501    0  0.20935613000E+02  0.10974124078E+01  0.38327844265E+02  0.43686701085E+02  0.00000000000E+00 0.  1.
          1    1    1    2  502    0 -0.20935613000E+02 -0.10974124078E+01 -0.14556249938E+03  0.14706442612E+03  0.00000000000E+00 0.  1.
</event>
<event>
 4    1  0.3927513E+003  0.2001661E+02  0.7546771E-02  0.1533782E+00
          2   -1    0    0  502    0  0.00000000000E+00  0.00000000000E+00  0.36797498867E+03  0.36797498867E+03  0.00000000000E+00 0. -1.
          1   -1    0    0  501    0 -0.00000000000E+00 -0.00000000000E+00 -0.86325372288E+01  0.86325372288E+01  0.00000000000E+00 0.  1.
          2    1    1    2  501    0 -0.48279425605E+01  0.19425648284E+02  0.35569931517E+03  0.35626207720E+03  0.00000000000E+00 0. -1.
          1    1    1    2  502    0  0.48279425605E+01 -0.19425648284E+02  0.36431362671E+01  0.20345448692E+02  0.00000000000E+00 0.  1.
</event>
<event>
 4    1  0.3927513E+003  0.6752253E+02  0.7546771E-02  0.1236214E+00
          2   -1    0    0  502    0  0.00000000000E+00  0.00000000000E+00  0.10899825057E+02  0.10899825057E+02  0.00000000000E+00 0. -1.
          1   -1    0    0  501    0 -0.00000000000E+00 -0.00000000000E+00 -0.87404607309E+03  0.87404607309E+03  0.00000000000E+00 0.  1.
          2    1    1    2  501    0  0.38443377703E+02 -0.55510351182E+02 -0.11206228542E+03  0.13083290179E+03  0.00000000000E+00 0. -1.
          1    1    1    2  502    0 -0.38443377703E+02  0.55510351182E+02 -0.75108396262E+03  0.75411299636E+03  0.00000000000E+00 0.  1.
</event>
<event>
 4    1  0.3927513E+003  0.3714192E+02  0.7546771E-02  0.1366100E+00
          2   -1    0    0  502    0  0.00000000000E+00  0.00000000000E+00  0.13213039411E+03  0.13213039411E+03  0.00000000000E+00 0. -1.
          1   -1    0    0  501    0 -0.00000000000E+00 -0.00000000000E+00 -0.87760981119E+03  0.87760981119E+03  0.00000000000E+00 0.  1.
          2    1    1    2  501    0 -0.12003795475E+02 -0.35148698613E+02  0.12911827884E+03  0.13435420369E+03  0.00000000000E+00 0. -1.
          1    1    1    2  502    0  0.12003795475E+02  0.35148698613E+02 -0.87459769591E+03  0.87538600161E+03  0.00000000000E+00 0.  1.
</event>
<event>
 4    1  0.3927513E+003  0.2173468E+02  0.7546771E-02  0.1509029E+00
          2   -1    0    0  502    0  0.00000000000E+00  0.00000000000E+00  0.40178210582E+02  0.40178210582E+02  0.00000000000E+00 0. -1.
          1   -1    0    0  501    0 -0.00000000000E+00 -0.00000000000E+00 -0.94756594736E+02  0.94756594736E+02  0.00000000000E+00 0.  1.
          2    1    1    2  501    0  0.21339554756E+02  0.41254915697E+01  0.35853905555E+02  0.41927304008E+02  0.00000000000E+00 0. -1.
          1    1    1    2  502    0 -0.21339554756E+02 -0.41254915697E+01 -0.90432289708E+02  0.93007501309E+02  0.00000000000E+00 0.  1.
</event>
<event>
 4    1  0.3927513E+003  0.2044865E+02  0.7546771E-02  0.1527284E+00
          2   -1    0    0  502    0  0.00000000000E+00  0.00000000000E+00  0.31934882412E+02  0.31934882412E+02  0.00000000000E+00 0.  1.
          1   -1    0    0  501    0 -0.00000000000E+00 -0.00000000000E+00 -0.18391618922E+02  0.18391618922E+02  0.00000000000E+00 0.  1.
          2    1    1    2  501    0 -0.15422553717E+02  0.13427289395E+02  0.20277033271E+02  0.28797662092E+02  0.00000000000E+00 0.  1.
          1    1    1    2  502    0  0.15422553717E+02 -0.13427289395E+02 -0.67337697815E+01  0.21528839242E+02  0.00000000000E+00 0.  1.
</event>
<event>
 4    1  0.3927513E+003  0.2118274E+02  0.7546771E-02  0.1516672E+00
          2   -1    0    0  502    0  0.00000000000E+00  0.00000000000E+00  0.40445916884E+03  0.40445916884E+03  0.00000000000E+00 0. -1.
          1   -1    0    0  501    0 -0.00000000000E+00 -0.00000000000E+00 -0.22145289635E+01  0.22145289635E+01  0.00000000000E+00 0. -1.
          2    1    1    2  501    0 -0.18330753251E+02 -0.10615637795E+02  0.34476426129E+03  0.34541439481E+03  0.00000000000E+00 0. -1.
          1    1    1    2  502    0  0.18330753251E+02  0.10615637795E+02  0.57480378583E+02  0.61259302988E+02  0.00000000000E+00 0. -1.
</event>
<event>
 4    1  0.3927513E+003  0.2012243E+02  0.7546771E-02  0.1532172E+00
          2   -1    0    0  502    0  0.00000000000E+00  0.00000000000E+00  0.37477136216E+00  0.37477136216E+00  0.00000000000E+00 0.  1.
          1   -1    0    0  501    0 -0.00000000000E+00 -0.00000000000E+00 -0.13587996881E+04  0.13587996881E+04  0.00000000000E+00 0.  1.
          2    1    1    2  501    0  0.17141442854E+02 -0.10539592571E+02 -0.37161486536E+03  0.37215926729E+03  0.00000000000E+00 0.  1.
          1    1    1    2  502    0 -0.17141442854E+02  0.10539592571E+02 -0.98681005135E+03  0.98701519214E+03  0.00000000000E+00 0.  1.
</event>
<event>
 4    1  0.3927513E+003  0.2771465E+02  0.7546771E-02  0.1440558E+00
          2   -1    0    0  502    0  0.00000000000E+00  0.00000000000E+00  0.15727276529E+03  0.15727276529E+03  0.00000000000E+00 0.  1.
          1   -1    0    0  501    0 -0.00000000000E+00 -0.00000000000E+00 -0.13972434532E+04  0.13972434532E+04  0.00000000000E+00 0. -1.
          2    1    1    2  501    0  0.64337644423E+01  0.26957528302E+02  0.15591317403E+03  0.15835725273E+03  0.00000000000E+00 0.  1.
          1    1    1    2  502    0 -0.64337644423E+01 -0.26957528302E+02 -0.13958838619E+04  0.13961589657E+04  0.00000000000E+00 0. -1.
</event>
<event>
 4    1  0.3927513E+003  0.2627207E+02  0.7546771E-02  0.1455061E+00
          2   -1    0    0  502    0  0.00000000000E+00  0.00000000000E+00  0.36239124943E+01  0.36239124943E+01  0.00000000000E+00 0. -1.
          1   -1    0    0  501    0 -0.00000000000E+00 -0.00000000000E+00 -0.54065167426E+03  0.54065167426E+03  0.00000000000E+00 0. -1.
          2    1    1    2  501    0  0.26134492470E+02 -0.26850905600E+01 -0.49495228152E+02  0.56035694140E+02  0.00000000000E+00 0. -1.
          1    1    1    2  502    0 -0.26134492470E+02  0.26850905600E+01 -0.48753253362E+03  0.48823989262E+03  0.00000000000E+00 0. -1.
</event>
<event>
 4    1  0.3927513E+003  0.2060152E+02  0.7546771E-02  0.1525031E+00
          2   -1    0    0  502    0  0.00000000000E+00  0.00000000000E+00  0.46496347763E+03  0.46496347763E+03  0.00000000000E+00 0. -1.
          1   -1    0    0  501    0 -0.00000000000E+00 -0.00000000000E+00 -0.13417949739E+01  0.13417949739E+01  0.00000000000E+00 0.  1.
          2    1    1    2  501    0  0.20528549137E+02  0.17324776374E+01  0.36364223355E+03  0.36422533798E+03  0.00000000000E+00 0. -1.
          1    1    1    2  502    0 -0.20528549137E+02 -0.17324776374E+01  0.99979449111E+02  0.10207993463E+03  0.00000000000E+00 0.  1.
</event>
<event>
 4    1  0.3927513E+003  0.2021292E+02  0.7546771E-02  0.1530805E+00
          2   -1    0    0  502    0  0.00000000000E+00  0.00000000000E+00  0.17729412400E+03  0.17729412400E+03  0.00000000000E+00 0. -1.
          1   -1    0    0  501    0 -0.00000000000E+00 -0.00000000000E+00 -0.38730810415E+02  0.38730810415E+02  0.00000000000E+00 0.  1.
          2    1    1    2  501    0 -0.20205692914E+02 -0.54050612285E+00  0.17403155130E+03  0.17520143555E+03  0.00000000000E+00 0. -1.
          1    1    1    2  502    0  0.20205692914E+02  0.54050612285E+00 -0.35468237711E+02  0.40823498862E+02  0.00000000000E+00 0.  1.
</event>
<event>
 4    1  0.3927513E+003  0.2163355E+02  0.7546771E-02  0.1510409E+00
          2   -1    0    0  502    0  0.00000000000E+00  0.00000000000E+00  0.15677478096E+03  0.15677478096E+03  0.00000000000E+00 0.  1.
          1   -1    0    0  501    0 -0.00000000000E+00 -0.00000000000E+00 -0.99772611929E+02  0.99772611929E+02  0.00000000000E+00 0. -1.
          2    1    1    2  501    0 -0.12690640676E+02  0.17520215703E+02  0.15484120546E+03  0.15634516054E+03  0.00000000000E+00 0.  1.
          1    1    1    2  502    0  0.12690640676E+02 -0.17520215703E+02 -0.97839036422E+02  0.10020223235E+03  0.00000000000E+00 0. -1.
</event>
<event>
 4    1  0.3927513E+003  0.2697707E+02  0.7546771E-02  0.1447839E+00
          2   -1    0    0  502    0  0.00000000000E+00  0.00000000000E+00  0.59087553383E+03  0.59087553383E+03  0.00000000000E+00 0. -1.
          1   -1    0    0  501    0 -0.00000000000E+00 -0.00000000000E+00 -0.22972207596E+02  0.22972207596E+02  0.00000000000E+00 0.  1.
          2    1    1    2  501    0 -0.10604228986E+02  0.24805499977E+02  0.58253423852E+03  0.58315855610E+03  0.00000000000E+00 0. -1.
          1    1    1    2  502    0  0.10604228986E+02 -0.24805499977E+02 -0.14630912289E+02  0.30689185325E+02  0.00000000000E+00 0.  1.
</event>
<event>
 4    1  0.3927513E+003  0.2583636E+02  0.7546771E-02  0.1459661E+00
          2   -1    0    0  502    0  0.00000000000E+00  0.00000000000E+00  0.31124217787E+03  0.31124217787E+03  0.00000000000E+00 0. -1.
          1   -1    0    0  501    0 -0.00000000000E+00 -0.00000000000E+00 -0.10754009131E+02  0.10754009131E+02  0.00000000000E+00 0. -1.
          2    1    1    2  501    0  0.25821150817E+02  0.88645658149E+00  0.29429630735E+03  0.29542822166E+03  0.00000000000E+00 0. -1.
          1    1    1    2  502    0 -0.25821150817E+02 -0.88645658149E+00  0.61918613903E+01  0.26567965339E+02  0.00000000000E+00 0. -1.
</event>
<event>
 4    1  0.3927513E+003  0.4315785E+02  0.7546771E-02  0.1330912E+00
          2   -1    0    0  502    0  0.00000000000E+00  0.00000000000E+00  0.18679852583E+01  0.18679852583E+01  0.00000000000E+00 0. -1.
          1   -1    0    0  501    0 -0.00000000000E+00 -0.00000000000E+00 -0.13682349245E+04  0.13682349245E+04  0.00000000000E+00 0.  1.
          2    1    1    2  501    0 -0.42618012583E+02  0.68047931073E+01 -0.32640493846E+03  0.32924578062E+03  0.00000000000E+00 0. -1.
          1    1    1    2  502    0  0.42618012583E+02 -0.68047931073E+01 -0.10399620008E+04  0.10408571291E+04  0.00000000000E+00 0.  1.
</event>
<event>
 4    1  0.3927513E+003  0.2204434E+02  0.7546771E-02  0.1504860E+00
          2   -1    0    0  502    0  0.00000000000E+00  0.00000000000E+00  0.11889148043E+04  0.11889148043E+04  0.00000000000E+00 0.  1.
          1   -1    0    0  501    0 -0.00000000000E+00 -0.00000000000E+00 -0.82520896300E+00  0.82520896300E+00  0.00000000000E+00 0.  1.
          2    1    1    2  501    0 -0.19691466809E+02 -0.99095351541E+01  0.10166485065E+04  0.10168874758E+04  0.00000000000E+00 0.  1.
          1    1    1    2  502    0  0.19691466809E+02  0.99095351541E+01  0.17144108891E+03  0.17285253750E+03  0.00000000000E+00 0.  1.
</event>
<event>
 4    1  0.3927513E+003  0.2063922E+02  0.7546771E-02  0.1524479E+00
          2   -1    0    0  502    0  0.00000000000E+00  0.00000000000E+00  0.84328680953E+03  0.84328680953E+03  0.00000000000E+00 0. -1.
          1   -1    0    0  501    0 -0.00000000000E+00 -0.00000000000E+00 -0.25796467680E+01  0.25796467680E+01  0.00000000000E+00 0. -1.
          2    1    1    2  501    0  0.90753681819E+01 -0.18536853287E+02  0.79962419684E+03  0.79989051339E+03  0.00000000000E+00 0. -1.
          1    1    1    2  502    0 -0.90753681819E+01  0.18536853287E+02  0.41082965920E+02  0.45975942907E+02  0.00000000000E+00 0. -1.
</event>
<event>
 4    1  0.3927513E+003  0.2365088E+02  0.7546771E-02  0.1484483E+00
          2   -1    0    0  502    0  0.00000000000E+00  0.00000000000E+00  0.85644717091E+02  0.85644717091E+02  0.00000000000E+00 0. -1.
          1   -1    0    0  501    0 -0.00000000000E+00 -0.00000000000E+00 -0.16767198714E+02  0.16767198714E+02  0.00000000000E+00 0.  1.
          2    1    1    2  501    0 -0.14930002944E+02 -0.18342818198E+02  0.74447515877E+02  0.78113997386E+02  0.00000000000E+00 0. -1.
          1    1    1    2  502    0  0.14930002944E+02  0.18342818198E+02 -0.55699975002E+01  0.24297918419E+02  0.00000000000E+00 0.  1.
</event>
<event>
 4    1  0.3927513E+003  0.2156562E+02  0.7546771E-02  0.1511340E+00
          2   -1    0    0  502    0  0.00000000000E+00  0.00000000000E+00  0.36065648502E+02  0.36065648502E+02  0.00000000000E+00 0. -1.
          1   -1    0    0  501    0 -0.00000000000E+00 -0.00000000000E+00 -0.54745021430E+02  0.54745021430E+02  0.00000000000E+00 0.  1.
          2    1    1    2  501    0  0.14784126141E+02 -0.15700496229E+02  0.30359449491E+02  0.37239389643E+02  0.00000000000E+00 0. -1.
          1    1    1    2  502    0 -0.14784126141E+02  0.15700496229E+02 -0.49038822418E+02  0.53571280289E+02  0.00000000000E+00 0.  1.
</event>
<event>
 4    1  0.3927513E+003  0.5132999E+02  0.7546771E-02  0.1292507E+00
          2   -1    0    0  502    0  0.00000000000E+00  0.00000000000E+00  0.39066597086E+01  0.39066597086E+01  0.00000000000E+00 0.  1.
          1   -1    0    0  501    0 -0.00000000000E+00 -0.00000000000E+00 -0.74244709656E+03  0.74244709656E+03  0.00000000000E+00 0.  1.
          2    1    1    2  501    0 -0.29761968422E+02  0.41820963986E+02 -0.25631882345E+03  0.26140793226E+03  0.00000000000E+00 0.  1.
          1    1    1    2  502    0  0.29761968422E+02 -0.41820963986E+02 -0.48222161340E+03  0.48494582401E+03  0.00000000000E+00 0.  1.
</event>
<event>
 4    1  0.3927513E+003  0.2058632E+02  0.7546771E-02  0.1525254E+00
          2   -1    0    0  502    0  0.00000000000E+00  0.00000000000E+00  0.40851314414E+03  0.40851314414E+03  0.00000000000E+00 0.  1.
          1   -1    0    0  501    0 -0.00000000000E+00 -0.00000000000E+00 -0.15565211611E+01  0.15565211611E+01  0.00000000000E+00 0.  1.
          2    1    1    2  501    0  0.20534603506E+02 -0.14583559884E+01  0.32188579937E+03  0.32254343053E+03  0.00000000000E+00 0.  1.
          1    1    1    2  502    0 -0.20534603506E+02  0.14583559884E+01  0.85070823608E+02  0.87526234768E+02  0.00000000000E+00 0.  1.
</event>
<event>
 4    1  0.3927513E+003  0.2410521E+02  0.7546771E-02  0.1479068E+00
          2   -1    0    0  502    0  0.00000000000E+00  0.00000000000E+00  0.41571274985E+02  0.41571274985E+02  0.00000000000E+00 0. -1.
          1   -1    0    0  501    0 -0.00000000000E+00 -0.00000000000E+00 -0.13441695027E+04  0.13441695027E+04  0.00000000000E+00 0. -1.
          2    1    1    2  501    0  0.11364947747E+02  0.21257916553E+02  0.37959423942E+02  0.44966419910E+02  0.00000000000E+00 0. -1.
          1    1    1    2  502    0 -0.11364947747E+02 -0.21257916553E+02 -0.13405576517E+04  0.13407743578E+04  0.00000000000E+00 0. -1.
</event>
<event>
 4    1  0.3927513E+003  0.3975594E+02  0.7546771E-02  0.1349922E+00
          2   -1    0    0  502    0  0.00000000000E+00  0.00000000000E+00  0.69225042305E+02  0.69225042305E+02  0.00000000000E+00 0. -1.
          1   -1    0    0  501    0 -0.00000000000E+00 -0.00000000000E+00 -0.37895386827E+02  0.37895386827E+02  0.00000000000E+00 0.  1.
          2    1    1    2  501    0 -0.15900657709E+02  0.36437667596E+02  0.49433413470E+02  0.63436558093E+02  0.00000000000E+00 0. -1.
          1    1    1    2  502    0  0.15900657709E+02 -0.36437667596E+02 -0.18103757992E+02  0.43683871038E+02  0.00000000000E+00 0.  1.
</event>
<event>
 4    1  0.3927513E+003  0.3544488E+02  0.7546771E-02  0.1377462E+00
          2   -1    0    0  502    0  0.00000000000E+00  0.00000000000E+00  0.29245402335E+02  0.29245402335E+02  0.00000000000E+00 0.  1.
          1   -1    0    0  501    0 -0.00000000000E+00 -0.00000000000E+00 -0.62809674189E+02  0.62809674189E+02  0.00000000000E+00 0.  1.
          2    1    1    2  501    0  0.25178806339E+02 -0.24947291066E+02  0.90938676175E+01  0.36592868820E+02  0.00000000000E+00 0.  1.
          1    1    1    2  502    0 -0.25178806339E+02  0.24947291066E+02 -0.42658139472E+02  0.55462207704E+02  0.00000000000E+00 0.  1.
</event>
<event>
 4    1  0.3927513E+003  0.2359690E+02  0.7546771E-02  0.1485136E+00
          2   -1    0    0  502    0  0.00000000000E+00  0.00000000000E+00  0.14371635980E+03  0.14371635980E+03  0.00000000000E+00 0.  1.
          1   -1    0    0  501    0 -0.00000000000E+00 -0.00000000000E+00 -0.90804645942E+03  0.90804645942E+03  0.00000000000E+00 0. -1.
          2    1    1    2  501    0 -0.21601652892E+02  0.94964430572E+01  0.14259326204E+03  0.14453252996E+03  0.00000000000E+00 0.  1.
          1    1    1    2  502    0  0.21601652892E+02 -0.94964430572E+01 -0.90692336165E+03  0.90723028926E+03  0.00000000000E+00 0. -1.
</event>
<event>
 4    1  0.3927513E+003  0.2084072E+02  0.7546771E-02  0.1521551E+00
          2   -1    0    0  502    0  0.00000000000E+00  0.00000000000E+00  0.30992016075E+01  0.30992016075E+01  0.00000000000E+00 0. -1.
          1   -1    0    0  501    0 -0.00000000000E+00 -0.00000000000E+00 -0.18471039881E+03  0.18471039881E+03  0.00000000000E+00 0. -1.
          2    1    1    2  501    0 -0.16669852216E+02  0.12508069466E+02 -0.44679799508E+02  0.49301321064E+02  0.00000000000E+00 0. -1.
          1    1    1    2  502    0  0.16669852216E+02 -0.12508069466E+02 -0.13693139770E+03  0.13850827935E+03  0.00000000000E+00 0. -1.
</event>
<event>
 4    1  0.3927513E+003  0.3941977E+02  0.7546771E-02  0.1351920E+00
          2   -1    0    0  502    0  0.00000000000E+00  0.00000000000E+00  0.11675787740E+03  0.11675787740E+03  0.00000000000E+00 0.  1.
          1   -1    0    0  501    0 -0.00000000000E+00 -0.00000000000E+00 -0.16041289948E+02  0.16041289948E+02  0.00000000000E+00 0. -1.
          2    1    1    2  501    0  0.23045079586E+02  0.31981913433E+02  0.77762507534E+02  0.87183290016E+02  0.00000000000E+00 0.  1.
          1    1    1    2  502    0 -0.23045079586E+02 -0.31981913433E+02  0.22954079920E+02  0.45615877334E+02  0.00000000000E+00 0. -1.
</event>
<event>
 4    1  0.3927513E+003  0.3218851E+02  0.7546771E-02  0.1401485E+00
          2   -1    0    0  502    0  0.00000000000E+00  0.00000000000E+00  0.30374700949E+02  0.30374700949E+02  0.00000000000E+00 0.  1.
          1   -1    0    0  501    0 -0.00000000000E+00 -0.00000000000E+00 -0.11891859529E+04  0.11891859529E+04  0.00000000000E+00 0.  1.
          2    1    1    2  501    0 -0.59359476844E+01 -0.31636442445E+02  0.21565598490E+02  0.38744999725E+02  0.00000000000E+00 0.  1.
          1    1    1    2  502    0  0.59359476844E+01  0.31636442445E+02 -0.11803768505E+04  0.11808156541E+04  0.00000000000E+00 0.  1.
</event>
<event>
 4    1  0.3927513E+003  0.2383829E+02  0.7546771E-02  0.1482232E+00
          2   -1    0    0  502    0  0.00000000000E+00  0.00000000000E+00  0.33008190252E+02  0.33008190252E+02  0.00000000000E+00 0.  1.
          1   -1    0    0  501    0 -0.00000000000E+00 -0.00000000000E+00 -0.30126981881E+02  0.30126981881E+02  0.00000000000E+00 0.  1.
          2    1    1    2  501    0 -0.75677409115E+01  0.22605164822E+02  0.22106091649E+02  0.32510666974E+02  0.00000000000E+00 0.  1.
          1    1    1    2  502    0  0.75677409115E+01 -0.22605164822E+02 -0.19224883278E+02  0.30624505158E+02  0.00000000000E+00 0.  1.
</event>
<event>
 4    1  0.3927513E+003  0.3119227E+02  0.7546771E-02  0.1409511E+00
          2   -1    0    0  502    0  0.00000000000E+00  0.00000000000E+00  0.13002790877E+04  0.13002790877E+04  0.00000000000E+00 0. -1.
          1   -1    0    0  501    0 -0.00000000000E+00 -0.00000000000E+00 -0.22247176744E+01  0.22247176744E+01  0.00000000000E+00 0. -1.
          2    1    1    2  501    0 -0.28009495832E+02 -0.13726829273E+02  0.11795704723E+04  0.11799828206E+04  0.00000000000E+00 0. -1.
          1    1    1    2  502    0  0.28009495832E+02  0.13726829273E+02  0.11848389765E+03  0.12252098474E+03  0.00000000000E+00 0. -1.
</event>
<event>
 4    1  0.3927513E+003  0.2307427E+02  0.7546771E-02  0.1491568E+00
          2   -1    0    0  502    0  0.00000000000E+00  0.00000000000E+00  0.27381156458E+01  0.27381156458E+01  0.00000000000E+00 0.  1.
          1   -1    0    0  501    0 -0.00000000000E+00 -0.00000000000E+00 -0.59096042902E+03  0.59096042902E+03  0.00000000000E+00 0.  1.
          2    1    1    2  501    0 -0.15553544982E+02  0.17044330128E+02 -0.50955138681E+02  0.55936107381E+02  0.00000000000E+00 0.  1.
          1    1    1    2  502    0  0.15553544982E+02 -0.17044330128E+02 -0.53726717469E+03  0.53776243728E+03  0.00000000000E+00 0.  1.
</event>
<event>
 4    1  0.3927513E+003  0.3111308E+02  0.7546771E-02  0.1410164E+00
          2   -1    0    0  502    0  0.00000000000E+00  0.00000000000E+00  0.56734458765E+02  0.56734458765E+02  0.00000000000E+00 0. -1.
          1   -1    0    0  501    0 -0.00000000000E+00 -0.00000000000E+00 -0.13031953257E+03  0.13031953257E+03  0.00000000000E+00 0.  1.
          2    1    1    2  501    0 -0.28475690105E+02 -0.12536290495E+02  0.50397145032E+02  0.59227491367E+02  0.00000000000E+00 0. -1.
          1    1    1    2  502    0  0.28475690105E+02  0.12536290495E+02 -0.12398221884E+03  0.12782649997E+03  0.00000000000E+00 0.  1.
</event>
<event>
 4    1  0.3927513E+003  0.2412625E+02  0.7546771E-02  0.1478820E+00
          2   -1    0    0  502    0  0.00000000000E+00  0.00000000000E+00  0.10306856392E+04  0.10306856392E+04  0.00000000000E+00 0. -1.
          1   -1    0    0  501    0 -0.00000000000E+00 -0.00000000000E+00 -0.16065614423E+01  0.16065614423E+01  0.00000000000E+00 0. -1.
          2    1    1    2  501    0  0.15245733649E+02 -0.18698762835E+02  0.93018138766E+03  0.93049421819E+03  0.00000000000E+00 0. -1.
          1    1    1    2  502    0 -0.15245733649E+02  0.18698762835E+02  0.98897690147E+02  0.10179798251E+03  0.00000000000E+00 0. -1.
</event>
<event>
 4    1  0.3927513E+003  0.3898479E+02  0.7546771E-02  0.1354540E+00
          2   -1    0    0  502    0  0.00000000000E+00  0.00000000000E+00  0.38519456265E+03  0.38519456265E+03  0.00000000000E+00 0.  1.
          1   -1    0    0  501    0 -0.00000000000E+00 -0.00000000000E+00 -0.11862182812E+02  0.11862182812E+02  0.00000000000E+00 0. -1.
          2    1    1    2  501    0  0.11324137016E+02  0.37303853580E+02  0.34885088732E+03  0.35102244253E+03  0.00000000000E+00 0.  1.
          1    1    1    2  502    0 -0.11324137016E+02 -0.37303853580E+02  0.24481492517E+02  0.46034302937E+02  0.00000000000E+00 0. -1.
</event>
<event>
 4    1  0.3927513E+003  0.3212402E+02  0.7546771E-02  0.1401994E+00
          2   -1    0    0  502    0  0.00000000000E+00  0.00000000000E+00  0.19962739487E+02  0.19962739487E+02  0.00000000000E+00 0.  1.
          1   -1    0    0  501    0 -0.00000000000E+00 -0.00000000000E+00 -0.15109799786E+03  0.15109799786E+03  0.00000000000E+00 0.  1.
          2    1    1    2  501    0 -0.28290280917E+02 -0.15218819484E+02  0.38057847998E+01  0.32348670124E+02  0.00000000000E+00 0.  1.
          1    1    1    2  502    0  0.28290280917E+02  0.15218819484E+02 -0.13494104317E+03  0.13871206722E+03  0.00000000000E+00 0.  1.
</event>
<event>
 4    1  0.3927513E+003  0.2146717E+02  0.7546771E-02  0.1512698E+00
          2   -1    0    0  502    0  0.00000000000E+00  0.00000000000E+00  0.15065656345E+02  0.15065656345E+02  0.00000000000E+00 0. -1.
          1   -1    0    0  501    0 -0.00000000000E+00 -0.00000000000E+00 -0.34384256479E+03  0.34384256479E+03  0.00000000000E+00 0. -1.
          2    1    1    2  501    0  0.19458372001E+02  0.90670440359E+01  0.68975109591E+01  0.22548063906E+02  0.00000000000E+00 0. -1.
          1    1    1    2  502    0 -0.19458372001E+02 -0.90670440359E+01 -0.33567441940E+03  0.33636015723E+03  0.00000000000E+00 0. -1.
</event>
<event>
 4    1  0.3927513E+003  0.2054994E+02  0.7546771E-02  0.1525789E+00
          2   -1    0    0  502    0  0.00000000000E+00  0.00000000000E+00  0.16393384647E+02  0.16393384647E+02  0.00000000000E+00 0.  1.
          1   -1    0    0  501    0 -0.00000000000E+00 -0.00000000000E+00 -0.48289631171E+02  0.48289631171E+02  0.00000000000E+00 0.  1.
          2    1    1    2  501    0  0.20102243736E+02 -0.42661399842E+01  0.61424253611E+01  0.21448299301E+02  0.00000000000E+00 0.  1.
          1    1    1    2  502    0 -0.20102243736E+02  0.42661399842E+01 -0.38038671884E+02  0.43234716517E+02  0.00000000000E+00 0.  1.
</event>
<event>
 4    1  0.3927513E+003  0.2657902E+02  0.7546771E-02  0.1451883E+00
          2   -1    0    0  502    0  0.00000000000E+00  0.00000000000E+00  0.47098821846E+02  0.47098821846E+02  0.00000000000E+00 0.  1.
          1   -1    0    0  501    0 -0.00000000000E+00 -0.00000000000E+00 -0.29614515937E+02  0.29614515937E+02  0.00000000000E+00 0.  1.
          2    1    1    2  501    0 -0.12827420212E+02 -0.23278776144E+02  0.35688061570E+02  0.44498110822E+02  0.00000000000E+00 0.  1.
          1    1    1    2  502    0  0.12827420212E+02  0.23278776144E+02 -0.18203755661E+02  0.32215226962E+02  0.00000000000E+00 0.  1.
</event>
<event>
 4    1  0.3927513E+003  0.2065735E+02  0.7546771E-02  0.1524214E+00
          2   -1    0    0  502    0  0.00000000000E+00  0.00000000000E+00  0.77908124712E+03  0.77908124712E+03  0.00000000000E+00 0. -1.
          1   -1    0    0  501    0 -0.00000000000E+00 -0.00000000000E+00 -0.73184837239E+01  0.73184837239E+01  0.00000000000E+00 0.  1.
          2    1    1    2  501    0  0.13223268469E+02 -0.15870453936E+02  0.76408119918E+03  0.76436038952E+03  0.00000000000E+00 0. -1.
          1    1    1    2  502    0 -0.13223268469E+02  0.15870453936E+02  0.76815642249E+01  0.22039341326E+02  0.00000000000E+00 0.  1.
</event>
<event>
 4    1  0.3927513E+003  0.2156344E+02  0.7546771E-02  0.1511370E+00
          2   -1    0    0  502    0  0.00000000000E+00  0.00000000000E+00  0.19024453151E+02  0.19024453151E+02  0.00000000000E+00 0.  1.
          1   -1    0    0  501    0 -0.00000000000E+00 -0.00000000000E+00 -0.28377875183E+02  0.28377875183E+02  0.00000000000E+00 0.  1.
          2    1    1    2  501    0  0.38246182320E-01  0.21563403427E+02  0.41508468394E+01  0.21959311456E+02  0.00000000000E+00 0.  1.
          1    1    1    2  502    0 -0.38246182320E-01 -0.21563403427E+02 -0.13504268871E+02  0.25443016878E+02  0.00000000000E+00 0.  1.
</event>
<event>
 4    1  0.3927513E+003  0.2329749E+02  0.7546771E-02  0.1488796E+00
          2   -1    0    0  502    0  0.00000000000E+00  0.00000000000E+00  0.46104080356E+02  0.46104080356E+02  0.00000000000E+00 0.  1.
          1   -1    0    0  501    0 -0.00000000000E+00 -0.00000000000E+00 -0.25748952121E+02  0.25748952121E+02  0.00000000000E+00 0.  1.
          2    1    1    2  501    0 -0.13992696643E+02  0.18627327926E+02  0.36646077174E+02  0.43424738080E+02  0.00000000000E+00 0.  1.
          1    1    1    2  502    0  0.13992696643E+02 -0.18627327926E+02 -0.16290948940E+02  0.28428294398E+02  0.00000000000E+00 0.  1.
</event>
<event>
 4    1  0.3927513E+003  0.3106047E+02  0.7546771E-02  0.1410599E+00
          2   -1    0    0  502    0  0.00000000000E+00  0.00000000000E+00  0.14107118249E+03  0.14107118249E+03  0.00000000000E+00 0.  1.
          1   -1    0    0  501    0 -0.00000000000E+00 -0.00000000000E+00 -0.12046349132E+03  0.12046349132E+03  0.00000000000E+00 0.  1.
          2    1    1    2  501    0  0.25207070723E+02 -0.18148176271E+02  0.13730509129E+03  0.14077443238E+03  0.00000000000E+00 0.  1.
          1    1    1    2  502    0 -0.25207070723E+02  0.18148176271E+02 -0.11669740012E+03  0.12076024143E+03  0.00000000000E+00 0.  1.
</event>
<event>
 4    1  0.3927513E+003  0.2305050E+02  0.7546771E-02  0.1491865E+00
          2   -1    0    0  502    0  0.00000000000E+00  0.00000000000E+00  0.63770663708E+00  0.63770663708E+00  0.00000000000E+00 0. -1.
          1   -1    0    0  501    0 -0.00000000000E+00 -0.00000000000E+00 -0.16496305993E+04  0.16496305993E+04  0.00000000000E+00 0.  1.
          2    1    1    2  501    0  0.20232916367E+02  0.11043300427E+02 -0.24400508436E+03  0.24509142494E+03  0.00000000000E+00 0. -1.
          1    1    1    2  502    0 -0.20232916367E+02 -0.11043300427E+02 -0.14049878083E+04  0.14051768810E+04  0.00000000000E+00 0.  1.
</event>
<event>
 4    1  0.3927513E+003  0.2434003E+02  0.7546771E-02  0.1476324E+00
          2   -1    0    0  502    0  0.00000000000E+00  0.00000000000E+00  0.40052739912E+02  0.40052739912E+02  0.00000000000E+00 0. -1.
          1   -1    0    0  501    0 -0.00000000000E+00 -0.00000000000E+00 -0.43829670212E+02  0.43829670212E+02  0.00000000000E+00 0. -1.
          2    1    1    2  501    0  0.15104836980E+02  0.19086150507E+02  0.32249840352E+02  0.40404077073E+02  0.00000000000E+00 0. -1.
          1    1    1    2  502    0 -0.15104836980E+02 -0.19086150507E+02 -0.36026770652E+02  0.43478333052E+02  0.00000000000E+00 0. -1.
</event>
<event>
 4    1  0.3927513E+003  0.2952932E+02  0.7546771E-02  0.1423731E+00
          2   -1    0    0  502    0  0.00000000000E+00  0.00000000000E+00  0.35722523188E+01  0.35722523188E+01  0.00000000000E+00 0.  1.
          1   -1    0    0  501    0 -0.00000000000E+00 -0.00000000000E+00 -0.65353768000E+03  0.65353768000E+03  0.00000000000E+00 0.  1.
          2    1    1    2  501    0 -0.21603145845E+02  0.20131687460E+02 -0.64926329174E+02  0.71326074968E+02  0.00000000000E+00 0.  1.
          1    1    1    2  502    0  0.21603145845E+02 -0.20131687460E+02 -0.58503909851E+03  0.58578385735E+03  0.00000000000E+00 0.  1.
</event>
<event>
 4    1  0.3927513E+003  0.2337488E+02  0.7546771E-02  0.1487844E+00
          2   -1    0    0  502    0  0.00000000000E+00  0.00000000000E+00  0.31297712151E+03  0.31297712151E+03  0.00000000000E+00 0. -1.
          1   -1    0    0  501    0 -0.00000000000E+00 -0.00000000000E+00 -0.52618845130E+02  0.52618845130E+02  0.00000000000E+00 0. -1.
          2    1    1    2  501    0  0.10897713597E+02 -0.20679095606E+02  0.30991914414E+03  0.31079939038E+03  0.00000000000E+00 0. -1.
          1    1    1    2  502    0 -0.10897713597E+02  0.20679095606E+02 -0.49560867759E+02  0.54796576260E+02  0.00000000000E+00 0. -1.
</event>
<event>
 4    1  0.3927513E+003  0.3354438E+02  0.7546771E-02  0.1391096E+00
          2   -1    0    0  502    0  0.00000000000E+00  0.00000000000E+00  0.17900680341E+04  0.17900680341E+04  0.00000000000E+00 0.  1.
          1   -1    0    0  501    0 -0.00000000000E+00 -0.00000000000E+00 -0.21715663100E+01  0.21715663100E+01  0.00000000000E+00 0.  1.
          2    1    1    2  501    0 -0.33397614150E+02 -0.31344801891E+01  0.16493163085E+04  0.16496573921E+04  0.00000000000E+00 0.  1.
          1    1    1    2  502    0  0.33397614150E+02  0.31344801891E+01  0.13858015922E+03  0.14258220831E+03  0.00000000000E+00 0.  1.
</event>
<event>
 4    1  0.3927513E+003  0.3412279E+02  0.7546771E-02  0.1386837E+00
          2   -1    0    0  502    0  0.00000000000E+00  0.00000000000E+00  0.40609977273E+02  0.40609977273E+02  0.00000000000E+00 0. -1.
          1   -1    0    0  501    0 -0.00000000000E+00 -0.00000000000E+00 -0.34751680295E+02  0.34751680295E+02  0.00000000000E+00 0. -1.
          2    1    1    2  501    0 -0.22608920865E+02 -0.25557786338E+02 -0.12831633842E+02  0.36455652130E+02  0.00000000000E+00 0. -1.
          1    1    1    2  502    0  0.22608920865E+02  0.25557786338E+02  0.18689930819E+02  0.38906005439E+02  0.00000000000E+00 0. -1.
</event>
<event>
 4    1  0.3927513E+003  0.2711541E+02  0.7546771E-02  0.1446452E+00
          2   -1    0    0  502    0  0.00000000000E+00  0.00000000000E+00  0.44737225260E+02  0.44737225260E+02  0.00000000000E+00 0. -1.
          1   -1    0    0  501    0 -0.00000000000E+00 -0.00000000000E+00 -0.27011837666E+02  0.27011837666E+02  0.00000000000E+00 0.  1.
          2    1    1    2  501    0 -0.25994244668E+02 -0.77165300576E+01  0.31311435567E+02  0.41420424784E+02  0.00000000000E+00 0. -1.
          1    1    1    2  502    0  0.25994244668E+02  0.77165300576E+01 -0.13586047973E+02  0.30328638142E+02  0.00000000000E+00 0.  1.
</event>
<event>
 4    1  0.3927513E+003  0.2186160E+02  0.7546771E-02  0.1507310E+00
          2   -1    0    0  502    0  0.00000000000E+00  0.00000000000E+00  0.30355601480E+01  0.30355601480E+01  0.00000000000E+00 0.  1.
          1   -1    0    0  501    0 -0.00000000000E+00 -0.00000000000E+00 -0.34625255769E+03  0.34625255769E+03  0.00000000000E+00 0.  1.
          2    1    1    2  501    0  0.21505428275E+02  0.39301807484E+01 -0.42644489975E+02  0.47921626550E+02  0.00000000000E+00 0.  1.
          1    1    1    2  502    0 -0.21505428275E+02 -0.39301807484E+01 -0.30057250757E+03  0.30136649129E+03  0.00000000000E+00 0.  1.
</event>
<event>
 4    1  0.3927513E+003  0.2127800E+02  0.7546771E-02  0.1515333E+00
          2   -1    0    0  502    0  0.00000000000E+00  0.00000000000E+00  0.13003540887E+04  0.13003540887E+04  0.00000000000E+00 0.  1.
          1   -1    0    0  501    0 -0.00000000000E+00 -0.00000000000E+00 -0.53241455998E+00  0.53241455998E+00  0.00000000000E+00 0. -1.
          2    1    1    2  501    0 -0.21244086978E+02  0.12007963766E+01  0.10325362017E+04  0.10327554217E+04  0.00000000000E+00 0.  1.
          1    1    1    2  502    0  0.21244086978E+02 -0.12007963766E+01  0.26728547248E+03  0.26813108164E+03  0.00000000000E+00 0. -1.
</event>
<event>
 4    1  0.3927513E+003  0.2482157E+02  0.7546771E-02  0.1470809E+00
          2   -1    0    0  502    0  0.00000000000E+00  0.00000000000E+00  0.80155442493E+03  0.80155442493E+03  0.00000000000E+00 0. -1.
          1   -1    0    0  501    0 -0.00000000000E+00 -0.00000000000E+00 -0.11079241007E+02  0.11079241007E+02  0.00000000000E+00 0. -1.
          2    1    1    2  501    0  0.19466921129E+02 -0.15399650316E+02  0.78720658179E+03  0.78759781149E+03  0.00000000000E+00 0. -1.
          1    1    1    2  502    0 -0.19466921129E+02  0.15399650316E+02  0.32686021331E+01  0.25035854449E+02  0.00000000000E+00 0. -1.
</event>
<event>
 4    1  0.3927513E+003  0.7706775E+02  0.7546771E-02  0.1210823E+00
          2   -1    0    0  502    0  0.00000000000E+00  0.00000000000E+00  0.42247567258E+03  0.42247567258E+03  0.00000000000E+00 0. -1.
          1   -1    0    0  501    0 -0.00000000000E+00 -0.00000000000E+00 -0.15921908533E+02  0.15921908533E+02  0.00000000000E+00 0. -1.
          2    1    1    2  501    0  0.42064709923E+02  0.64575518559E+02  0.27826236702E+03  0.28873756652E+03  0.00000000000E+00 0. -1.
          1    1    1    2  502    0 -0.42064709923E+02 -0.64575518559E+02  0.12829139703E+03  0.14966001460E+03  0.00000000000E+00 0. -1.
</event>
<event>
 4    1  0.3927513E+003  0.2053984E+02  0.7546771E-02  0.1525937E+00
          2   -1    0    0  502    0  0.00000000000E+00  0.00000000000E+00  0.41169576587E+03  0.41169576587E+03  0.00000000000E+00 0. -1.
          1   -1    0    0  501    0 -0.00000000000E+00 -0.00000000000E+00 -0.20937405168E+03  0.20937405168E+03  0.00000000000E+00 0. -1.
          2    1    1    2  501    0 -0.17289443884E+02  0.11088740789E+02  0.41093490074E+03  0.41144790398E+03  0.00000000000E+00 0. -1.
          1    1    1    2  502    0  0.17289443884E+02 -0.11088740789E+02 -0.20861318655E+03  0.20962191356E+03  0.00000000000E+00 0. -1.
</event>
<event>
 4    1  0.3927513E+003  0.3691248E+02  0.7546771E-02  0.1367595E+00
          2   -1    0    0  502    0  0.00000000000E+00  0.00000000000E+00  0.82315355584E+03  0.82315355584E+03  0.00000000000E+00 0. -1.
          1   -1    0    0  501    0 -0.00000000000E+00 -0.00000000000E+00 -0.17935930299E+01  0.17935930299E+01  0.00000000000E+00 0. -1.
          2    1    1    2  501    0  0.32131119075E+02  0.18169274707E+02  0.52523142080E+03  0.52652690032E+03  0.00000000000E+00 0. -1.
          1    1    1    2  502    0 -0.32131119075E+02 -0.18169274707E+02  0.29612854201E+03  0.29842024856E+03  0.00000000000E+00 0. -1.
</event>
<event>
 4    1  0.3927513E+003  0.3006911E+02  0.7546771E-02  0.1418997E+00
          2   -1    0    0  502    0  0.00000000000E+00  0.00000000000E+00  0.92072340280E+03  0.92072340280E+03  0.00000000000E+00 0. -1.
          1   -1    0    0  501    0 -0.00000000000E+00 -0.00000000000E+00 -0.11446484347E+01  0.11446484347E+01  0.00000000000E+00 0. -1.
          2    1    1    2  501    0  0.23107210071E+02 -0.19240802637E+02  0.63353978133E+03  0.63425295125E+03  0.00000000000E+00 0. -1.
          1    1    1    2  502    0 -0.23107210071E+02  0.19240802637E+02  0.28603897303E+03  0.28761509998E+03  0.00000000000E+00 0. -1.
</event>
<event>
 4    1  0.3927513E+003  0.2356103E+02  0.7546771E-02  0.1485571E+00
          2   -1    0    0  502    0  0.00000000000E+00  0.00000000000E+00  0.56858635216E+03  0.56858635216E+03  0.00000000000E+00 0. -1.
          1   -1    0    0  501    0 -0.00000000000E+00 -0.00000000000E+00 -0.74470148648E+01  0.74470148648E+01  0.00000000000E+00 0. -1.
          2    1    1    2  501    0  0.11598159002E+02 -0.20508648390E+02  0.54904353141E+03  0.54954883435E+03  0.00000000000E+00 0. -1.
          1    1    1    2  502    0 -0.11598159002E+02  0.20508648390E+02  0.12095805884E+02  0.26484532674E+02  0.00000000000E+00 0. -1.
</event>
<event>
 4    1  0.3927513E+003  0.2239682E+02  0.7546771E-02  0.1500214E+00
          2   -1    0    0  502    0  0.00000000000E+00  0.00000000000E+00  0.32498076680E+03  0.32498076680E+03  0.00000000000E+00 0.  1.
          1   -1    0    0  501    0 -0.00000000000E+00 -0.00000000000E+00 -0.43509356514E+03  0.43509356514E+03  0.00000000000E+00 0. -1.
          2    1    1    2  501    0  0.21565544543E+02  0.60452490824E+01  0.32430606116E+03  0.32507851214E+03  0.00000000000E+00 0.  1.
          1    1    1    2  502    0 -0.21565544543E+02 -0.60452490824E+01 -0.43441885951E+03  0.43499581980E+03  0.00000000000E+00 0. -1.
</event>
<event>
 4    1  0.3927513E+003  0.2112332E+02  0.7546771E-02  0.1517511E+00
          2   -1    0    0  502    0  0.00000000000E+00  0.00000000000E+00  0.30508303678E+02  0.30508303678E+02  0.00000000000E+00 0.  1.
          1   -1    0    0  501    0 -0.00000000000E+00 -0.00000000000E+00 -0.11986465714E+04  0.11986465714E+04  0.00000000000E+00 0. -1.
          2    1    1    2  501    0  0.21020252180E+02 -0.20841436536E+01  0.26747396252E+02  0.34082515499E+02  0.00000000000E+00 0.  1.
          1    1    1    2  502    0 -0.21020252180E+02  0.20841436536E+01 -0.11948856640E+04  0.11950723596E+04  0.00000000000E+00 0. -1.
</event>
<event>
 4    1  0.3927513E+003  0.2245617E+02  0.7546771E-02  0.1499442E+00
          2   -1    0    0  502    0  0.00000000000E+00  0.00000000000E+00  0.64070628641E+02  0.64070628641E+02  0.00000000000E+00 0.  1.
          1   -1    0    0  501    0 -0.00000000000E+00 -0.00000000000E+00 -0.81998711313E+01  0.81998711313E+01  0.00000000000E+00 0.  1.
          2    1    1    2  501    0 -0.11456981384E+02  0.19313653168E+02  0.35175560934E+02  0.41732477858E+02  0.00000000000E+00 0.  1.
          1    1    1    2  502    0  0.11456981384E+02 -0.19313653168E+02  0.20695196576E+02  0.30538021915E+02  0.00000000000E+00 0.  1.
</event>
<event>
 4    1  0.3927513E+003  0.4731877E+02  0.7546771E-02  0.1310235E+00
          2   -1    0    0  502    0  0.00000000000E+00  0.00000000000E+00  0.50502535171E+03  0.50502535171E+03  0.00000000000E+00 0.  1.
          1   -1    0    0  501    0 -0.00000000000E+00 -0.00000000000E+00 -0.46771367366E+02  0.46771367366E+02  0.00000000000E+00 0.  1.
          2    1    1    2  501    0  0.46612773658E+02  0.81434418454E+01  0.49162330294E+03  0.49389527059E+03  0.00000000000E+00 0.  1.
          1    1    1    2  502    0 -0.46612773658E+02 -0.81434418454E+01 -0.33369318599E+02  0.57901448488E+02  0.00000000000E+00 0.  1.
</event>
<event>
 4    1  0.3927513E+003  0.4638913E+02  0.7546771E-02  0.1314636E+00
          2   -1    0    0  502    0  0.00000000000E+00  0.00000000000E+00  0.93870852119E+02  0.93870852119E+02  0.00000000000E+00 0. -1.
          1   -1    0    0  501    0 -0.00000000000E+00 -0.00000000000E+00 -0.25346269513E+02  0.25346269513E+02  0.00000000000E+00 0. -1.
          2    1    1    2  501    0 -0.43725523154E+02 -0.15492822492E+02  0.15837111443E+02  0.49017986726E+02  0.00000000000E+00 0. -1.
          1    1    1    2  502    0  0.43725523154E+02  0.15492822492E+02  0.52687471163E+02  0.70199134905E+02  0.00000000000E+00 0. -1.
</event>
<event>
 4    1  0.3927513E+003  0.2344277E+02  0.7546771E-02  0.1487012E+00
          2   -1    0    0  502    0  0.00000000000E+00  0.00000000000E+00  0.29283259207E+02  0.29283259207E+02  0.00000000000E+00 0. -1.
          1   -1    0    0  501    0 -0.00000000000E+00 -0.00000000000E+00 -0.11109853424E+03  0.11109853424E+03  0.00000000000E+00 0.  1.
          2    1    1    2  501    0 -0.55164981989E+01 -0.22784465718E+02  0.23080765933E+02  0.32898106123E+02  0.00000000000E+00 0. -1.
          1    1    1    2  502    0  0.55164981989E+01  0.22784465718E+02 -0.10489604097E+03  0.10748368733E+03  0.00000000000E+00 0.  1.
</event>
<event>
 4    1  0.3927513E+003  0.2201337E+02  0.7546771E-02  0.1505273E+00
          2   -1    0    0  502    0  0.00000000000E+00  0.00000000000E+00  0.95598771037E+03  0.95598771037E+03  0.00000000000E+00 0.  1.
          1   -1    0    0  501    0 -0.00000000000E+00 -0.00000000000E+00 -0.65502410519E+02  0.65502410519E+02  0.00000000000E+00 0.  1.
          2    1    1    2  501    0 -0.11513006379E+02  0.18762706230E+02  0.95400764141E+03  0.95426158276E+03  0.00000000000E+00 0.  1.
          1    1    1    2  502    0  0.11513006379E+02 -0.18762706230E+02 -0.63522341563E+02  0.67228538126E+02  0.00000000000E+00 0.  1.
</event>
<event>
 4    1  0.3927513E+003  0.2376157E+02  0.7546771E-02  0.1483150E+00
          2   -1    0    0  502    0  0.00000000000E+00  0.00000000000E+00  0.13196955859E+02  0.13196955859E+02  0.00000000000E+00 0.  1.
          1   -1    0    0  501    0 -0.00000000000E+00 -0.00000000000E+00 -0.49809656075E+03  0.49809656075E+03  0.00000000000E+00 0. -1.
          2    1    1    2  501    0  0.21285709926E+02 -0.10560804758E+02  0.19712274502E+01  0.23843191520E+02  0.00000000000E+00 0.  1.
          1    1    1    2  502    0 -0.21285709926E+02  0.10560804758E+02 -0.48687083234E+03  0.48745032509E+03  0.00000000000E+00 0. -1.
</event>
<event>
 4    1  0.3927513E+003  0.2187858E+02  0.7546771E-02  0.1507081E+00
          2   -1    0    0  502    0  0.00000000000E+00  0.00000000000E+00  0.52589676564E+01  0.52589676564E+01  0.00000000000E+00 0. -1.
          1   -1    0    0  501    0 -0.00000000000E+00 -0.00000000000E+00 -0.16027951130E+03  0.16027951130E+03  0.00000000000E+00 0. -1.
          2    1    1    2  501    0  0.21521173176E+02  0.39384549113E+01 -0.23101487304E+02  0.31817464350E+02  0.00000000000E+00 0. -1.
          1    1    1    2  502    0 -0.21521173176E+02 -0.39384549113E+01 -0.13191905634E+03  0.13372101461E+03  0.00000000000E+00 0. -1.
</event>
<event>
 4    1  0.3927513E+003  0.2710483E+02  0.7546771E-02  0.1446558E+00
          2   -1    0    0  502    0  0.00000000000E+00  0.00000000000E+00  0.16871965043E+04  0.16871965043E+04  0.00000000000E+00 0. -1.
          1   -1    0    0  501    0 -0.00000000000E+00 -0.00000000000E+00 -0.16373568739E+03  0.16373568739E+03  0.00000000000E+00 0. -1.
          2    1    1    2  501    0  0.23569900595E+02 -0.13384001203E+02  0.16859650910E+04  0.16861829556E+04  0.00000000000E+00 0. -1.
          1    1    1    2  502    0 -0.23569900595E+02  0.13384001203E+02 -0.16250427407E+03  0.16474923610E+03  0.00000000000E+00 0. -1.
</event>
<event>
 4    1  0.3927513E+003  0.2082910E+02  0.7546771E-02  0.1521719E+00
          2   -1    0    0  502    0  0.00000000000E+00  0.00000000000E+00  0.92928501057E+03  0.92928501057E+03  0.00000000000E+00 0. -1.
          1   -1    0    0  501    0 -0.00000000000E+00 -0.00000000000E+00 -0.29946755592E+02  0.29946755592E+02  0.00000000000E+00 0.  1.
          2    1    1    2  501    0 -0.20523557360E+02 -0.35545720621E+01  0.92553175210E+03  0.92576610196E+03  0.00000000000E+00 0. -1.
          1    1    1    2  502    0  0.20523557360E+02  0.35545720621E+01 -0.26193497120E+02  0.33465664205E+02  0.00000000000E+00 0.  1.
</event>
<event>
 4    1  0.3927513E+003  0.2163857E+02  0.7546771E-02  0.1510340E+00
          2   -1    0    0  502    0  0.00000000000E+00  0.00000000000E+00  0.10001869175E+03  0.10001869175E+03  0.00000000000E+00 0. -1.
          1   -1    0    0  501    0 -0.00000000000E+00 -0.00000000000E+00 -0.59069286810E+02  0.59069286810E+02  0.00000000000E+00 0.  1.
          2    1    1    2  501    0 -0.82838369772E+01  0.19990145782E+02  0.96801595017E+02  0.99190607828E+02  0.00000000000E+00 0. -1.
          1    1    1    2  502    0  0.82838369772E+01 -0.19990145782E+02 -0.55852190080E+02  0.59897370729E+02  0.00000000000E+00 0.  1.
</event>
<event>
 4    1  0.3927513E+003  0.5181479E+02  0.7546771E-02  0.1290490E+00
          2   -1    0    0  502    0  0.00000000000E+00  0.00000000000E+00  0.12771947485E+04  0.12771947485E+04  0.00000000000E+00 0.  1.
          1   -1    0    0  501    0 -0.00000000000E+00 -0.00000000000E+00 -0.70639482108E+01  0.70639482108E+01  0.00000000000E+00 0.  1.
          2    1    1    2  501    0 -0.25580024140E+02  0.45060347541E+02  0.11732374496E+04  0.11743810649E+04  0.00000000000E+00 0.  1.
          1    1    1    2  502    0  0.25580024140E+02 -0.45060347541E+02  0.96893350716E+02  0.10987763179E+03  0.00000000000E+00 0.  1.
</event>
<event>
 4    1  0.3927513E+003  0.2248588E+02  0.7546771E-02  0.1499057E+00
          2   -1    0    0  502    0  0.00000000000E+00  0.00000000000E+00  0.58538869687E+01  0.58538869687E+01  0.00000000000E+00 0. -1.
          1   -1    0    0  501    0 -0.00000000000E+00 -0.00000000000E+00 -0.17810211805E+03  0.17810211805E+03  0.00000000000E+00 0. -1.
          2    1    1    2  501    0  0.87269738606E+01 -0.20723293551E+02 -0.20114959940E+02  0.30169961580E+02  0.00000000000E+00 0. -1.
          1    1    1    2  502    0 -0.87269738606E+01  0.20723293551E+02 -0.15213327114E+03  0.15378604343E+03  0.00000000000E+00 0. -1.
</event>
<event>
 4    1  0.3927513E+003  0.4504017E+02  0.7546771E-02  0.1321239E+00
          2   -1    0    0  502    0  0.00000000000E+00  0.00000000000E+00  0.10774842424E+04  0.10774842424E+04  0.00000000000E+00 0. -1.
          1   -1    0    0  501    0 -0.00000000000E+00 -0.00000000000E+00 -0.11659222284E+03  0.11659222284E+03  0.00000000000E+00 0.  1.
          2    1    1    2  501    0  0.10693180675E+02 -0.43752399681E+02  0.10726441286E+04  0.10735893271E+04  0.00000000000E+00 0. -1.
          1    1    1    2  502    0 -0.10693180675E+02  0.43752399681E+02 -0.11175210904E+03  0.12048713817E+03  0.00000000000E+00 0.  1.
</event>
<event>
 4    1  0.3927513E+003  0.4137432E+02  0.7546771E-02  0.1340615E+00
          2   -1    0    0  502    0  0.00000000000E+00  0.00000000000E+00  0.21031632654E+02  0.21031632654E+02  0.00000000000E+00 0. -1.
          1   -1    0    0  501    0 -0.00000000000E+00 -0.00000000000E+00 -0.16748756523E+03  0.16748756523E+03  0.00000000000E+00 0.  1.
          2    1    1    2  501    0  0.33872425333E+02  0.23759065877E+02 -0.56474719632E+01  0.41757973476E+02  0.00000000000E+00 0. -1.
          1    1    1    2  502    0 -0.33872425333E+02 -0.23759065877E+02 -0.14080846061E+03  0.14676122440E+03  0.00000000000E+00 0.  1.
</event>
<event>
 4    1  0.3927513E+003  0.2071017E+02  0.7546771E-02  0.1523443E+00
          2   -1    0    0  502    0  0.00000000000E+00  0.00000000000E+00  0.73882327003E+03  0.73882327003E+03  0.00000000000E+00 0. -1.
          1   -1    0    0  501    0 -0.00000000000E+00 -0.00000000000E+00 -0.77206342792E+00  0.77206342792E+00  0.00000000000E+00 0. -1.
          2    1    1    2  501    0 -0.20349441609E+02 -0.38485522791E+01  0.55321168659E+03  0.55359920639E+03  0.00000000000E+00 0. -1.
          1    1    1    2  502    0  0.20349441609E+02  0.38485522791E+01  0.18483952000E+03  0.18599612707E+03  0.00000000000E+00 0. -1.
</event>
<event>
 4    1  0.3927513E+003  0.5976030E+02  0.7546771E-02  0.1260649E+00
          2   -1    0    0  502    0  0.00000000000E+00  0.00000000000E+00  0.23553017442E+03  0.23553017442E+03  0.00000000000E+00 0. -1.
          1   -1    0    0  501    0 -0.00000000000E+00 -0.00000000000E+00 -0.23201495519E+02  0.23201495519E+02  0.00000000000E+00 0.  1.
          2    1    1    2  501    0  0.53985061448E+02  0.25630183195E+02  0.18231169560E+03  0.19185631995E+03  0.00000000000E+00 0. -1.
          1    1    1    2  502    0 -0.53985061448E+02 -0.25630183195E+02  0.30016983299E+02  0.66875349991E+02  0.00000000000E+00 0.  1.
</event>
<event>
 4    1  0.3927513E+003  0.3511790E+02  0.7546771E-02  0.1379736E+00
          2   -1    0    0  502    0  0.00000000000E+00  0.00000000000E+00  0.20835132823E+01  0.20835132823E+01  0.00000000000E+00 0. -1.
          1   -1    0    0  501    0 -0.00000000000E+00 -0.00000000000E+00 -0.19250555647E+04  0.19250555647E+04  0.00000000000E+00 0. -1.
          2    1    1    2  501    0  0.17850298653E+02 -0.30242911136E+02 -0.15962504477E+03  0.16344241112E+03  0.00000000000E+00 0. -1.
          1    1    1    2  502    0 -0.17850298653E+02  0.30242911136E+02 -0.17633470066E+04  0.17636966669E+04  0.00000000000E+00 0. -1.
</event>
<event>
 4    1  0.3927513E+003  0.3497885E+02  0.7546771E-02  0.1380712E+00
          2   -1    0    0  502    0  0.00000000000E+00  0.00000000000E+00  0.75718782437E+02  0.75718782437E+02  0.00000000000E+00 0.  1.
          1   -1    0    0  501    0 -0.00000000000E+00 -0.00000000000E+00 -0.88695303001E+03  0.88695303001E+03  0.00000000000E+00 0. -1.
          2    1    1    2  501    0 -0.28375176415E+02  0.20454079015E+02  0.71314078097E+02  0.79430584284E+02  0.00000000000E+00 0.  1.
          1    1    1    2  502    0  0.28375176415E+02 -0.20454079015E+02 -0.88254832567E+03  0.88324122817E+03  0.00000000000E+00 0. -1.
</event>
<event>
 4    1  0.3927513E+003  0.3795262E+02  0.7546771E-02  0.1360920E+00
          2   -1    0    0  502    0  0.00000000000E+00  0.00000000000E+00  0.64804170542E+03  0.64804170542E+03  0.00000000000E+00 0.  1.
          1   -1    0    0  501    0 -0.00000000000E+00 -0.00000000000E+00 -0.26533206457E+02  0.26533206457E+02  0.00000000000E+00 0. -1.
          2    1    1    2  501    0 -0.30147093152E+02 -0.23055449955E+02  0.63360540317E+03  0.63474105581E+03  0.00000000000E+00 0.  1.
          1    1    1    2  502    0  0.30147093152E+02  0.23055449955E+02 -0.12096904208E+02  0.39833856072E+02  0.00000000000E+00 0. -1.
</event>
<event>
 4    1  0.3927513E+003  0.2001522E+02  0.7546771E-02  0.1533803E+00
          2   -1    0    0  502    0  0.00000000000E+00  0.00000000000E+00  0.32071230796E+02  0.32071230796E+02  0.00000000000E+00 0.  1.
          1   -1    0    0  501    0 -0.00000000000E+00 -0.00000000000E+00 -0.19833914387E+02  0.19833914387E+02  0.00000000000E+00 0.  1.
          2    1    1    2  501    0 -0.18949464592E+02  0.64441169531E+01  0.21909448848E+02  0.29675457881E+02  0.00000000000E+00 0.  1.
          1    1    1    2  502    0  0.18949464592E+02 -0.64441169531E+01 -0.96721324383E+01  0.22229687302E+02  0.00000000000E+00 0.  1.
</event>
<event>
 4    1  0.3927513E+003  0.2630337E+02  0.7546771E-02  0.1454734E+00
          2   -1    0    0  502    0  0.00000000000E+00  0.00000000000E+00  0.59725121855E+01  0.59725121855E+01  0.00000000000E+00 0. -1.
          1   -1    0    0  501    0 -0.00000000000E+00 -0.00000000000E+00 -0.36229546999E+03  0.36229546999E+03  0.00000000000E+00 0. -1.
          2    1    1    2  501    0 -0.48064249349E+01 -0.25860502200E+02 -0.26292157838E+02  0.37190655526E+02  0.00000000000E+00 0. -1.
          1    1    1    2  502    0  0.48064249349E+01  0.25860502200E+02 -0.33003079997E+03  0.33107732665E+03  0.00000000000E+00 0. -1.
</event>
<event>
 4    1  0.3927513E+003  0.2418841E+02  0.7546771E-02  0.1478091E+00
          2   -1    0    0  502    0  0.00000000000E+00  0.00000000000E+00  0.71685474976E+03  0.71685474976E+03  0.00000000000E+00 0.  1.
          1   -1    0    0  501    0 -0.00000000000E+00 -0.00000000000E+00 -0.10555292685E+01  0.10555292685E+01  0.00000000000E+00 0. -1.
          2    1    1    2  501    0 -0.24063547186E+02  0.24545191370E+01  0.52883247493E+03  0.52938536579E+03  0.00000000000E+00 0.  1.
          1    1    1    2  502    0  0.24063547186E+02 -0.24545191370E+01  0.18696674556E+03  0.18852491324E+03  0.00000000000E+00 0. -1.
</event>
<event>
 4    1  0.3927513E+003  0.2201877E+02  0.7546771E-02  0.1505201E+00
          2   -1    0    0  502    0  0.00000000000E+00  0.00000000000E+00  0.21751449348E+02  0.21751449348E+02  0.00000000000E+00 0.  1.
          1   -1    0    0  501    0 -0.00000000000E+00 -0.00000000000E+00 -0.86009313877E+02  0.86009313877E+02  0.00000000000E+00 0. -1.
          2    1    1    2  501    0 -0.21436131263E+02 -0.50317428287E+01  0.14247315203E+02  0.26226172994E+02  0.00000000000E+00 0.  1.
          1    1    1    2  502    0  0.21436131263E+02  0.50317428287E+01 -0.78505179731E+02  0.81534590231E+02  0.00000000000E+00 0. -1.
</event>
<event>
 4    1  0.3927513E+003  0.3184495E+02  0.7546771E-02  0.1404214E+00
          2   -1    0    0  502    0  0.00000000000E+00  0.00000000000E+00  0.44301265583E+01  0.44301265583E+01  0.00000000000E+00 0.  1.
          1   -1    0    0  501    0 -0.00000000000E+00 -0.00000000000E+00 -0.20422176434E+04  0.20422176434E+04  0.00000000000E+00 0.  1.
          2    1    1    2  501    0  0.28622477621E+02 -0.13959024726E+02 -0.54625577081E+02  0.63230168969E+02  0.00000000000E+00 0.  1.
          1    1    1    2  502    0 -0.28622477621E+02  0.13959024726E+02 -0.19831619398E+04  0.19834176010E+04  0.00000000000E+00 0.  1.
</event>
<event>
 4    1  0.3927513E+003  0.2342329E+02  0.7546771E-02  0.1487250E+00
          2   -1    0    0  502    0  0.00000000000E+00  0.00000000000E+00  0.29856266309E+01  0.29856266309E+01  0.00000000000E+00 0.  1.
          1   -1    0    0  501    0 -0.00000000000E+00 -0.00000000000E+00 -0.37615629544E+03  0.37615629544E+03  0.00000000000E+00 0. -1.
          2    1    1    2  501    0 -0.18851672588E+02 -0.13901984929E+02 -0.51009756965E+02  0.56130615977E+02  0.00000000000E+00 0.  1.
          1    1    1    2  502    0  0.18851672588E+02  0.13901984929E+02 -0.32216091185E+03  0.32301130610E+03  0.00000000000E+00 0. -1.
</event>
<event>
 4    1  0.3927513E+003  0.2748359E+02  0.7546771E-02  0.1442810E+00
          2   -1    0    0  502    0  0.00000000000E+00  0.00000000000E+00  0.58951378971E+01  0.58951378971E+01  0.00000000000E+00 0. -1.
          1   -1    0    0  501    0 -0.00000000000E+00 -0.00000000000E+00 -0.12827783245E+03  0.12827783245E+03  0.00000000000E+00 0.  1.
          2    1    1    2  501    0 -0.16742196803E+02 -0.21795558194E+02 -0.58918489416E+02  0.65013351750E+02  0.00000000000E+00 0. -1.
          1    1    1    2  502    0  0.16742196803E+02  0.21795558194E+02 -0.63464205137E+02  0.69159618597E+02  0.00000000000E+00 0.  1.
</event>
<event>
 4    1  0.3927513E+003  0.2379331E+02  0.7546771E-02  0.1482770E+00
          2   -1    0    0  502    0  0.00000000000E+00  0.00000000000E+00  0.38680665056E+02  0.38680665056E+02  0.00000000000E+00 0. -1.
          1   -1    0    0  501    0 -0.00000000000E+00 -0.00000000000E+00 -0.38660865931E+03  0.38660865931E+03  0.00000000000E+00 0.  1.
          2    1    1    2  501    0 -0.23670897295E+02 -0.24104603744E+01  0.34616805943E+02  0.42005296710E+02  0.00000000000E+00 0. -1.
          1    1    1    2  502    0  0.23670897295E+02  0.24104603744E+01 -0.38254480020E+03  0.38328402766E+03  0.00000000000E+00 0.  1.
</event>
<event>
 4    1  0.3927513E+003  0.2473216E+02  0.7546771E-02  0.1471822E+00
          2   -1    0    0  502    0  0.00000000000E+00  0.00000000000E+00  0.93872247756E+03  0.93872247756E+03  0.00000000000E+00 0.  1.
          1   -1    0    0  501    0 -0.00000000000E+00 -0.00000000000E+00 -0.38898223640E+02  0.38898223640E+02  0.00000000000E+00 0.  1.
          2    1    1    2  501    0 -0.21001965697E+02  0.13061291847E+02  0.93461099979E+03  0.93493818022E+03  0.00000000000E+00 0.  1.
          1    1    1    2  502    0  0.21001965697E+02 -0.13061291847E+02 -0.34786745876E+02  0.42682520972E+02  0.00000000000E+00 0.  1.
</event>
<event>
 4    1  0.3927513E+003  0.2250294E+02  0.7546771E-02  0.1498836E+00
          2   -1    0    0  502    0  0.00000000000E+00  0.00000000000E+00  0.27417374287E+02  0.27417374287E+02  0.00000000000E+00 0.  1.
          1   -1    0    0  501    0 -0.00000000000E+00 -0.00000000000E+00 -0.91792129058E+02  0.91792129058E+02  0.00000000000E+00 0.  1.
          2    1    1    2  501    0 -0.36664281123E+01 -0.22202241025E+02  0.21084438261E+02  0.30837245960E+02  0.00000000000E+00 0.  1.
          1    1    1    2  502    0  0.36664281123E+01  0.22202241025E+02 -0.85459193032E+02  0.88372257385E+02  0.00000000000E+00 0.  1.
</event>
<event>
 4    1  0.3927513E+003  0.2787550E+02  0.7546771E-02  0.1439006E+00
          2   -1    0    0  502    0  0.00000000000E+00  0.00000000000E+00  0.63263711310E+01  0.63263711310E+01  0.00000000000E+00 0.  1.
          1   -1    0    0  501    0 -0.00000000000E+00 -0.00000000000E+00 -0.12466076402E+03  0.12466076402E+03  0.00000000000E+00 0.  1.
          2    1    1    2  501    0  0.26702785999E+02  0.80002468981E+01 -0.67112789085E+02  0.72671653272E+02  0.00000000000E+00 0.  1.
          1    1    1    2  502    0 -0.26702785999E+02 -0.80002468981E+01 -0.51221603806E+02  0.58315481881E+02  0.00000000000E+00 0.  1.
</event>
<event>
 4    1  0.3927513E+003  0.2208778E+02  0.7546771E-02  0.1504282E+00
          2   -1    0    0  502    0  0.00000000000E+00  0.00000000000E+00  0.17102281363E+01  0.17102281363E+01  0.00000000000E+00 0. -1.
          1   -1    0    0  501    0 -0.00000000000E+00 -0.00000000000E+00 -0.84757149048E+03  0.84757149048E+03  0.00000000000E+00 0. -1.
          2    1    1    2  501    0 -0.14524102913E+02  0.16640932860E+02 -0.77055202386E+02  0.80158433285E+02  0.00000000000E+00 0. -1.
          1    1    1    2  502    0  0.14524102913E+02 -0.16640932860E+02 -0.76880605995E+03  0.76912328533E+03  0.00000000000E+00 0. -1.
</event>
<event>
 4    1  0.3927513E+003  0.2378699E+02  0.7546771E-02  0.1482845E+00
          2   -1    0    0  502    0  0.00000000000E+00  0.00000000000E+00  0.42953299247E+01  0.42953299247E+01  0.00000000000E+00 0.  1.
          1   -1    0    0  501    0 -0.00000000000E+00 -0.00000000000E+00 -0.15218672216E+04  0.15218672216E+04  0.00000000000E+00 0.  1.
          2    1    1    2  501    0  0.15046521587E+02 -0.18423442788E+02 -0.29477317481E+02  0.37877873514E+02  0.00000000000E+00 0.  1.
          1    1    1    2  502    0 -0.15046521587E+02  0.18423442788E+02 -0.14880945742E+04  0.14882846780E+04  0.00000000000E+00 0.  1.
</event>
<event>
 4    1  0.3927513E+003  0.3298069E+02  0.7546771E-02  0.1395344E+00
          2   -1    0    0  502    0  0.00000000000E+00  0.00000000000E+00  0.10363853373E+03  0.10363853373E+03  0.00000000000E+00 0.  1.
          1   -1    0    0  501    0 -0.00000000000E+00 -0.00000000000E+00 -0.41755019989E+02  0.41755019989E+02  0.00000000000E+00 0.  1.
          2    1    1    2  501    0 -0.28224225529E+02  0.17062201521E+02  0.93842069690E+02  0.99468887956E+02  0.00000000000E+00 0.  1.
          1    1    1    2  502    0  0.28224225529E+02 -0.17062201521E+02 -0.31958555947E+02  0.45924665766E+02  0.00000000000E+00 0.  1.
</event>
<event>
 4    1  0.3927513E+003  0.2047910E+02  0.7546771E-02  0.1526834E+00
          2   -1    0    0  502    0  0.00000000000E+00  0.00000000000E+00  0.66856072657E+02  0.66856072657E+02  0.00000000000E+00 0. -1.
          1   -1    0    0  501    0 -0.00000000000E+00 -0.00000000000E+00 -0.16049629907E+03  0.16049629907E+03  0.00000000000E+00 0. -1.
          2    1    1    2  501    0 -0.18961184826E+02 -0.77373716667E+01  0.64612384483E+02  0.67780186477E+02  0.00000000000E+00 0. -1.
          1    1    1    2  502    0  0.18961184826E+02  0.77373716667E+01 -0.15825261090E+03  0.15957218525E+03  0.00000000000E+00 0. -1.
</event>
<event>
 4    1  0.3927513E+003  0.2831229E+02  0.7546771E-02  0.1434853E+00
          2   -1    0    0  502    0  0.00000000000E+00  0.00000000000E+00  0.81719899100E+03  0.81719899100E+03  0.00000000000E+00 0. -1.
          1   -1    0    0  501    0 -0.00000000000E+00 -0.00000000000E+00 -0.22239634966E+02  0.22239634966E+02  0.00000000000E+00 0.  1.
          2    1    1    2  501    0 -0.28239299175E+02  0.20316420965E+01  0.80783861497E+03  0.80833459250E+03  0.00000000000E+00 0. -1.
          1    1    1    2  502    0  0.28239299175E+02 -0.20316420965E+01 -0.12879258935E+02  0.31104033472E+02  0.00000000000E+00 0.  1.
</event>
<event>
 4    1  0.3927513E+003  0.2272682E+02  0.7546771E-02  0.1495957E+00
          2   -1    0    0  502    0  0.00000000000E+00  0.00000000000E+00  0.13932845656E+02  0.13932845656E+02  0.00000000000E+00 0.  1.
          1   -1    0    0  501    0 -0.00000000000E+00 -0.00000000000E+00 -0.48033035252E+02  0.48033035252E+02  0.00000000000E+00 0.  1.
          2    1    1    2  501    0  0.20706417105E+02  0.93676384451E+01 -0.22490369089E+01  0.22837831035E+02  0.00000000000E+00 0.  1.
          1    1    1    2  502    0 -0.20706417105E+02 -0.93676384451E+01 -0.31851152687E+02  0.39128049873E+02  0.00000000000E+00 0.  1.
</event>
<event>
 4    1  0.3927513E+003  0.2214828E+02  0.7546771E-02  0.1503479E+00
          2   -1    0    0  502    0  0.00000000000E+00  0.00000000000E+00  0.58435157383E+03  0.58435157383E+03  0.00000000000E+00 0. -1.
          1   -1    0    0  501    0 -0.00000000000E+00 -0.00000000000E+00 -0.20476696267E+01  0.20476696267E+01  0.00000000000E+00 0. -1.
          2    1    1    2  501    0  0.62905998663E+01  0.21236167976E+02  0.51636966567E+03  0.51684444284E+03  0.00000000000E+00 0. -1.
          1    1    1    2  502    0 -0.62905998663E+01 -0.21236167976E+02  0.65934238535E+02  0.69554800612E+02  0.00000000000E+00 0. -1.
</event>
<event>
 4    1  0.3927513E+003  0.2298231E+02  0.7546771E-02  0.1492720E+00
          2   -1    0    0  502    0  0.00000000000E+00  0.00000000000E+00  0.22243422989E+02  0.22243422989E+02  0.00000000000E+00 0.  1.
          1   -1    0    0  501    0 -0.00000000000E+00 -0.00000000000E+00 -0.15242317309E+03  0.15242317309E+03  0.00000000000E+00 0. -1.
          2    1    1    2  501    0  0.21671660496E+02  0.76502165464E+01  0.15152827189E+02  0.27528073919E+02  0.00000000000E+00 0.  1.
          1    1    1    2  502    0 -0.21671660496E+02 -0.76502165464E+01 -0.14533257729E+03  0.14713852217E+03  0.00000000000E+00 0. -1.
</event>
<event>
 4    1  0.3927513E+003  0.2000736E+02  0.7546771E-02  0.1533923E+00
          2   -1    0    0  502    0  0.00000000000E+00  0.00000000000E+00  0.16247574269E+04  0.16247574269E+04  0.00000000000E+00 0. -1.
          1   -1    0    0  501    0 -0.00000000000E+00 -0.00000000000E+00 -0.43431535790E+00  0.43431535790E+00  0.00000000000E+00 0.  1.
          2    1    1    2  501    0 -0.14904315498E+02  0.13347504905E+02  0.13467082792E+04  0.13468568906E+04  0.00000000000E+00 0. -1.
          1    1    1    2  502    0  0.14904315498E+02 -0.13347504905E+02  0.27761483237E+03  0.27833485167E+03  0.00000000000E+00 0.  1.
</event>
<event>
 4    1  0.3927513E+003  0.3018393E+02  0.7546771E-02  0.1418005E+00
          2   -1    0    0  502    0  0.00000000000E+00  0.00000000000E+00  0.12951014399E+02  0.12951014399E+02  0.00000000000E+00 0. -1.
          1   -1    0    0  501    0 -0.00000000000E+00 -0.00000000000E+00 -0.15973186749E+03  0.15973186749E+03  0.00000000000E+00 0. -1.
          2    1    1    2  501    0  0.15210112907E+02  0.26071483916E+02 -0.88020143920E+01  0.31441139699E+02  0.00000000000E+00 0. -1.
          1    1    1    2  502    0 -0.15210112907E+02 -0.26071483916E+02 -0.13797883870E+03  0.14124174219E+03  0.00000000000E+00 0. -1.
</event>
<event>
 4    1  0.3927513E+003  0.2338441E+02  0.7546771E-02  0.1487727E+00
          2   -1    0    0  502    0  0.00000000000E+00  0.00000000000E+00  0.61769930461E+03  0.61769930461E+03  0.00000000000E+00 0.  1.
          1   -1    0    0  501    0 -0.00000000000E+00 -0.00000000000E+00 -0.17249636449E+04  0.17249636449E+04  0.00000000000E+00 0.  1.
          2    1    1    2  501    0  0.19611535297E+02 -0.12736497023E+02  0.61739869604E+03  0.61784138786E+03  0.00000000000E+00 0.  1.
          1    1    1    2  502    0 -0.19611535297E+02  0.12736497023E+02 -0.17246630364E+04  0.17248215617E+04  0.00000000000E+00 0.  1.
</event>
<event>
 4    1  0.3927513E+003  0.2635792E+02  0.7546771E-02  0.1454167E+00
          2   -1    0    0  502    0  0.00000000000E+00  0.00000000000E+00  0.46885211291E+03  0.46885211291E+03  0.00000000000E+00 0. -1.
          1   -1    0    0  501    0 -0.00000000000E+00 -0.00000000000E+00 -0.32217850562E+01  0.32217850562E+01  0.00000000000E+00 0. -1.
          2    1    1    2  501    0 -0.81249637610E+01  0.25074388664E+02  0.40627774984E+03  0.40713185827E+03  0.00000000000E+00 0. -1.
          1    1    1    2  502    0  0.81249637610E+01 -0.25074388664E+02  0.59352578008E+02  0.64942039691E+02  0.00000000000E+00 0. -1.
</event>
<event>
 4    1  0.3927513E+003  0.2238145E+02  0.7546771E-02  0.1500415E+00
          2   -1    0    0  502    0  0.00000000000E+00  0.00000000000E+00  0.10532086605E+04  0.10532086605E+04  0.00000000000E+00 0.  1.
          1   -1    0    0  501    0 -0.00000000000E+00 -0.00000000000E+00 -0.62589587926E+00  0.62589587926E+00  0.00000000000E+00 0. -1.
          2    1    1    2  501    0  0.28042223167E+01  0.22205079075E+02  0.78447765991E+03  0.78479687060E+03  0.00000000000E+00 0.  1.
          1    1    1    2  502    0 -0.28042223167E+01 -0.22205079075E+02  0.26810510467E+03  0.26903768574E+03  0.00000000000E+00 0. -1.
</event>
<event>
 4    1  0.3927513E+003  0.2037103E+02  0.7546771E-02  0.1528437E+00
          2   -1    0    0  502    0  0.00000000000E+00  0.00000000000E+00  0.13172458565E+04  0.13172458565E+04  0.00000000000E+00 0.  1.
          1   -1    0    0  501    0 -0.00000000000E+00 -0.00000000000E+00 -0.68798736618E+00  0.68798736618E+00  0.00000000000E+00 0.  1.
          2    1    1    2  501    0  0.17623298751E+02 -0.10217549468E+02  0.11434555692E+04  0.11436370131E+04  0.00000000000E+00 0.  1.
          1    1    1    2  502    0 -0.17623298751E+02  0.10217549468E+02  0.17310229990E+03  0.17429683074E+03  0.00000000000E+00 0.  1.
</event>
<event>
 4    1  0.3927513E+003  0.2098148E+02  0.7546771E-02  0.1519529E+00
          2   -1    0    0  502    0  0.00000000000E+00  0.00000000000E+00  0.99041383475E+01  0.99041383475E+01  0.00000000000E+00 0. -1.
          1   -1    0    0  501    0 -0.00000000000E+00 -0.00000000000E+00 -0.71792139189E+03  0.71792139189E+03  0.00000000000E+00 0.  1.
          2    1    1    2  501    0  0.68772532183E+01  0.19822361951E+02 -0.15412311018E+01  0.21038014128E+02  0.00000000000E+00 0. -1.
          1    1    1    2  502    0 -0.68772532183E+01 -0.19822361951E+02 -0.70647602244E+03  0.70678751611E+03  0.00000000000E+00 0.  1.
</event>
<event>
 4    1  0.3927513E+003  0.4668496E+02  0.7546771E-02  0.1313223E+00
          2   -1    0    0  502    0  0.00000000000E+00  0.00000000000E+00  0.95555120348E+01  0.95555120348E+01  0.00000000000E+00 0.  1.
          1   -1    0    0  501    0 -0.00000000000E+00 -0.00000000000E+00 -0.26657008598E+03  0.26657008598E+03  0.00000000000E+00 0.  1.
          2    1    1    2  501    0  0.19641843552E+02 -0.42351872563E+02 -0.18096493730E+03  0.18688978479E+03  0.00000000000E+00 0.  1.
          1    1    1    2  502    0 -0.19641843552E+02  0.42351872563E+02 -0.76049636649E+02  0.89235813226E+02  0.00000000000E+00 0.  1.
</event>
<event>
 4    1  0.3927513E+003  0.5217436E+02  0.7546771E-02  0.1289011E+00
          2   -1    0    0  502    0  0.00000000000E+00  0.00000000000E+00  0.12132875180E+01  0.12132875180E+01  0.00000000000E+00 0. -1.
          1   -1    0    0  501    0 -0.00000000000E+00 -0.00000000000E+00 -0.22624766854E+04  0.22624766854E+04  0.00000000000E+00 0. -1.
          2    1    1    2  501    0 -0.17767776337E+02  0.49055783830E+02 -0.10273187307E+04  0.10286427651E+04  0.00000000000E+00 0. -1.
          1    1    1    2  502    0  0.17767776337E+02 -0.49055783830E+02 -0.12339446672E+04  0.12350472078E+04  0.00000000000E+00 0. -1.
</event>
<event>
 4    1  0.3927513E+003  0.3193515E+02  0.7546771E-02  0.1403493E+00
          2   -1    0    0  502    0  0.00000000000E+00  0.00000000000E+00  0.20855285633E+03  0.20855285633E+03  0.00000000000E+00 0. -1.
          1   -1    0    0  501    0 -0.00000000000E+00 -0.00000000000E+00 -0.33389578895E+02  0.33389578895E+02  0.00000000000E+00 0. -1.
          2    1    1    2  501    0 -0.72487869455E+01 -0.31101587928E+02  0.19934377605E+03  0.20188559814E+03  0.00000000000E+00 0. -1.
          1    1    1    2  502    0  0.72487869455E+01  0.31101587928E+02 -0.24180498620E+02  0.40056837086E+02  0.00000000000E+00 0. -1.
</event>
<event>
 4    1  0.3927513E+003  0.2377365E+02  0.7546771E-02  0.1483005E+00
          2   -1    0    0  502    0  0.00000000000E+00  0.00000000000E+00  0.14196250944E+01  0.14196250944E+01  0.00000000000E+00 0. -1.
          1   -1    0    0  501    0 -0.00000000000E+00 -0.00000000000E+00 -0.47160817447E+03  0.47160817447E+03  0.00000000000E+00 0.  1.
          2    1    1    2  501    0 -0.23113833762E+02 -0.55621119761E+01 -0.14173364084E+03  0.14371364356E+03  0.00000000000E+00 0. -1.
          1    1    1    2  502    0  0.23113833762E+02  0.55621119761E+01 -0.32845490853E+03  0.32931415600E+03  0.00000000000E+00 0.  1.
</event>
<event>
 4    1  0.3927513E+003  0.2346215E+02  0.7546771E-02  0.1486775E+00
          2   -1    0    0  502    0  0.00000000000E+00  0.00000000000E+00  0.34257801771E+02  0.34257801771E+02  0.00000000000E+00 0. -1.
          1   -1    0    0  501    0 -0.00000000000E+00 -0.00000000000E+00 -0.25013032803E+02  0.25013032803E+02  0.00000000000E+00 0. -1.
          2    1    1    2  501    0 -0.13497331792E+02 -0.19191004034E+02  0.22344106172E+02  0.32399562990E+02  0.00000000000E+00 0. -1.
          1    1    1    2  502    0  0.13497331792E+02  0.19191004034E+02 -0.13099337204E+02  0.26871271584E+02  0.00000000000E+00 0. -1.
</event>
<event>
 4    1  0.3927513E+003  0.2365409E+02  0.7546771E-02  0.1484444E+00
          2   -1    0    0  502    0  0.00000000000E+00  0.00000000000E+00  0.35774347523E+03  0.35774347523E+03  0.00000000000E+00 0.  1.
          1   -1    0    0  501    0 -0.00000000000E+00 -0.00000000000E+00 -0.17739547167E+02  0.17739547167E+02  0.00000000000E+00 0.  1.
          2    1    1    2  501    0 -0.31125030774E+01  0.23448416337E+02  0.34927639102E+03  0.35007643912E+03  0.00000000000E+00 0.  1.
          1    1    1    2  502    0  0.31125030774E+01 -0.23448416337E+02 -0.92724629613E+01  0.25406583271E+02  0.00000000000E+00 0.  1.
</event>
<event>
 4    1  0.3927513E+003  0.2183625E+02  0.7546771E-02  0.1507652E+00
          2   -1    0    0  502    0  0.00000000000E+00  0.00000000000E+00  0.51882918996E+02  0.51882918996E+02  0.00000000000E+00 0.  1.
          1   -1    0    0  501    0 -0.00000000000E+00 -0.00000000000E+00 -0.11876531058E+03  0.11876531058E+03  0.00000000000E+00 0.  1.
          2    1    1    2  501    0 -0.20431740959E+02 -0.77049245374E+01  0.48515163799E+02  0.53202847848E+02  0.00000000000E+00 0.  1.
          1    1    1    2  502    0  0.20431740959E+02  0.77049245374E+01 -0.11539755539E+03  0.11744538173E+03  0.00000000000E+00 0.  1.
</event>
<event>
 4    1  0.3927513E+003  0.2267641E+02  0.7546771E-02  0.1496602E+00
          2   -1    0    0  502    0  0.00000000000E+00  0.00000000000E+00  0.34669633644E+03  0.34669633644E+03  0.00000000000E+00 0.  1.
          1   -1    0    0  501    0 -0.00000000000E+00 -0.00000000000E+00 -0.25392709265E+01  0.25392709265E+01  0.00000000000E+00 0.  1.
          2    1    1    2  501    0 -0.53550543479E+01  0.22035044072E+02  0.28468949830E+03  0.28559119422E+03  0.00000000000E+00 0.  1.
          1    1    1    2  502    0  0.53550543479E+01 -0.22035044072E+02  0.59467567212E+02  0.63644413144E+02  0.00000000000E+00 0.  1.
</event>
<event>
 4    1  0.3927513E+003  0.2072651E+02  0.7546771E-02  0.1523206E+00
          2   -1    0    0  502    0  0.00000000000E+00  0.00000000000E+00  0.23040588992E+03  0.23040588992E+03  0.00000000000E+00 0.  1.
          1   -1    0    0  501    0 -0.00000000000E+00 -0.00000000000E+00 -0.18722354215E+01  0.18722354215E+01  0.00000000000E+00 0.  1.
          2    1    1    2  501    0  0.15459591885E+02  0.13805410961E+02  0.12173918093E+03  0.12349095726E+03  0.00000000000E+00 0.  1.
          1    1    1    2  502    0 -0.15459591885E+02 -0.13805410961E+02  0.10679447357E+03  0.10878716808E+03  0.00000000000E+00 0.  1.
</event>
<event>
 4    1  0.3927513E+003  0.3487104E+02  0.7546771E-02  0.1381472E+00
          2   -1    0    0  502    0  0.00000000000E+00  0.00000000000E+00  0.26540432681E+02  0.26540432681E+02  0.00000000000E+00 0. -1.
          1   -1    0    0  501    0 -0.00000000000E+00 -0.00000000000E+00 -0.11632010039E+03  0.11632010039E+03  0.00000000000E+00 0.  1.
          2    1    1    2  501    0  0.19917362003E+02 -0.28623214344E+02  0.10721144706E+02  0.36481949678E+02  0.00000000000E+00 0. -1.
          1    1    1    2  502    0 -0.19917362003E+02  0.28623214344E+02 -0.10050081242E+03  0.10637858340E+03  0.00000000000E+00 0.  1.
</event>
<event>
 4    1  0.3927513E+003  0.2982693E+02  0.7546771E-02  0.1421107E+00
          2   -1    0    0  502    0  0.00000000000E+00  0.00000000000E+00  0.87968556145E+02  0.87968556145E+02  0.00000000000E+00 0.  1.
          1   -1    0    0  501    0 -0.00000000000E+00 -0.00000000000E+00 -0.15106194718E+03  0.15106194718E+03  0.00000000000E+00 0. -1.
          2    1    1    2  501    0 -0.21048909515E+02  0.21132654122E+02  0.83898633290E+02  0.89042834242E+02  0.00000000000E+00 0.  1.
          1    1    1    2  502    0  0.21048909515E+02 -0.21132654122E+02 -0.14699202432E+03  0.14998766908E+03  0.00000000000E+00 0. -1.
</event>
<event>
 4    1  0.3927513E+003  0.3208057E+02  0.7546771E-02  0.1402338E+00
          2   -1    0    0  502    0  0.00000000000E+00  0.00000000000E+00  0.24301268661E+04  0.24301268661E+04  0.00000000000E+00 0. -1.
          1   -1    0    0  501    0 -0.00000000000E+00 -0.00000000000E+00 -0.64549478153E+00  0.64549478153E+00  0.00000000000E+00 0.  1.
          2    1    1    2  501    0 -0.32080519001E+02 -0.58460549302E-01  0.19274912045E+04  0.19277581556E+04  0.00000000000E+00 0. -1.
          1    1    1    2  502    0  0.32080519001E+02  0.58460549302E-01  0.50199016682E+03  0.50301420527E+03  0.00000000000E+00 0.  1.
</event>
<event>
 4    1  0.3927513E+003  0.4219977E+02  0.7546771E-02  0.1336056E+00
          2   -1    0    0  502    0  0.00000000000E+00  0.00000000000E+00  0.12841998592E+03  0.12841998592E+03  0.00000000000E+00 0.  1.
          1   -1    0    0  501    0 -0.00000000000E+00 -0.00000000000E+00 -0.29594557084E+02  0.29594557084E+02  0.00000000000E+00 0.  1.
          2    1    1    2  501    0 -0.41335726169E+02  0.84957648976E+01  0.10700835201E+03  0.11502872545E+03  0.00000000000E+00 0.  1.
          1    1    1    2  502    0  0.41335726169E+02 -0.84957648976E+01 -0.81829231732E+01  0.42985817553E+02  0.00000000000E+00 0.  1.
</event>
<event>
 4    1  0.3927513E+003  0.2045527E+02  0.7546771E-02  0.1527186E+00
          2   -1    0    0  502    0  0.00000000000E+00  0.00000000000E+00  0.36009129644E+01  0.36009129644E+01  0.00000000000E+00 0.  1.
          1   -1    0    0  501    0 -0.00000000000E+00 -0.00000000000E+00 -0.12643143621E+03  0.12643143621E+03  0.00000000000E+00 0.  1.
          2    1    1    2  501    0 -0.10452372833E+02  0.17583117510E+02 -0.42917927941E+02  0.47543313494E+02  0.00000000000E+00 0.  1.
          1    1    1    2  502    0  0.10452372833E+02 -0.17583117510E+02 -0.79912595307E+02  0.82489035683E+02  0.00000000000E+00 0.  1.
</event>
<event>
 4    1  0.3927513E+003  0.2711680E+02  0.7546771E-02  0.1446438E+00
          2   -1    0    0  502    0  0.00000000000E+00  0.00000000000E+00  0.35008474352E+03  0.35008474352E+03  0.00000000000E+00 0.  1.
          1   -1    0    0  501    0 -0.00000000000E+00 -0.00000000000E+00 -0.31763862113E+02  0.31763862113E+02  0.00000000000E+00 0. -1.
          2    1    1    2  501    0 -0.11799389987E+01 -0.27091117450E+02  0.34366428536E+03  0.34473244978E+03  0.00000000000E+00 0.  1.
          1    1    1    2  502    0  0.11799389987E+01  0.27091117450E+02 -0.25343403957E+02  0.37116155847E+02  0.00000000000E+00 0. -1.
</event>
<event>
 4    1  0.3927513E+003  0.2260525E+02  0.7546771E-02  0.1497515E+00
          2   -1    0    0  502    0  0.00000000000E+00  0.00000000000E+00  0.64972041440E+03  0.64972041440E+03  0.00000000000E+00 0.  1.
          1   -1    0    0  501    0 -0.00000000000E+00 -0.00000000000E+00 -0.19727486307E+02  0.19727486307E+02  0.00000000000E+00 0. -1.
          2    1    1    2  501    0  0.21860370430E+02 -0.57551327233E+01  0.64298022758E+03  0.64337747117E+03  0.00000000000E+00 0.  1.
          1    1    1    2  502    0 -0.21860370430E+02  0.57551327233E+01 -0.12987299492E+02  0.26070429534E+02  0.00000000000E+00 0. -1.
</event>
<event>
 4    1  0.3927513E+003  0.2168975E+02  0.7546771E-02  0.1509641E+00
          2   -1    0    0  502    0  0.00000000000E+00  0.00000000000E+00  0.50482923293E+01  0.50482923293E+01  0.00000000000E+00 0.  1.
          1   -1    0    0  501    0 -0.00000000000E+00 -0.00000000000E+00 -0.18891095522E+03  0.18891095522E+03  0.00000000000E+00 0.  1.
          2    1    1    2  501    0  0.11184675206E+02  0.18583550574E+02 -0.22898179261E+02  0.31540005150E+02  0.00000000000E+00 0.  1.
          1    1    1    2  502    0 -0.11184675206E+02 -0.18583550574E+02 -0.16096448363E+03  0.16241924240E+03  0.00000000000E+00 0.  1.
</event>
<event>
 4    1  0.3927513E+003  0.2641804E+02  0.7546771E-02  0.1453543E+00
          2   -1    0    0  502    0  0.00000000000E+00  0.00000000000E+00  0.10854109526E+01  0.10854109526E+01  0.00000000000E+00 0.  1.
          1   -1    0    0  501    0 -0.00000000000E+00 -0.00000000000E+00 -0.86841236403E+03  0.86841236403E+03  0.00000000000E+00 0.  1.
          2    1    1    2  501    0 -0.26254635776E+02  0.29337407961E+01 -0.21216531654E+03  0.21380372840E+03  0.00000000000E+00 0.  1.
          1    1    1    2  502    0  0.26254635776E+02 -0.29337407961E+01 -0.65516163654E+03  0.65569404659E+03  0.00000000000E+00 0.  1.
</event>
<event>
 4    1  0.3927513E+003  0.2463773E+02  0.7546771E-02  0.1472897E+00
          2   -1    0    0  502    0  0.00000000000E+00  0.00000000000E+00  0.44204085195E+03  0.44204085195E+03  0.00000000000E+00 0. -1.
          1   -1    0    0  501    0 -0.00000000000E+00 -0.00000000000E+00 -0.63756851842E+01  0.63756851842E+01  0.00000000000E+00 0. -1.
          2    1    1    2  501    0  0.68091227224E+01  0.23678127076E+02  0.41643310087E+03  0.41716129417E+03  0.00000000000E+00 0. -1.
          1    1    1    2  502    0 -0.68091227224E+01 -0.23678127076E+02  0.19232065896E+02  0.31255242963E+02  0.00000000000E+00 0. -1.
</event>
<event>
 4    1  0.3927513E+003  0.2450328E+02  0.7546771E-02  0.1474437E+00
          2   -1    0    0  502    0  0.00000000000E+00  0.00000000000E+00  0.65662326757E+03  0.65662326757E+03  0.00000000000E+00 0.  1.
          1   -1    0    0  501    0 -0.00000000000E+00 -0.00000000000E+00 -0.26091679087E+02  0.26091679087E+02  0.00000000000E+00 0.  1.
          2    1    1    2  501    0 -0.24484469557E+02 -0.95997217989E+00  0.65058842956E+03  0.65104970277E+03  0.00000000000E+00 0.  1.
          1    1    1    2  502    0  0.24484469557E+02  0.95997217989E+00 -0.20056841082E+02  0.31665243884E+02  0.00000000000E+00 0.  1.
</event>
<event>
 4    1  0.3927513E+003  0.4411403E+02  0.7546771E-02  0.1325929E+00
          2   -1    0    0  502    0  0.00000000000E+00  0.00000000000E+00  0.16613052956E+04  0.16613052956E+04  0.00000000000E+00 0.  1.
          1   -1    0    0  501    0 -0.00000000000E+00 -0.00000000000E+00 -0.75625899195E+02  0.75625899195E+02  0.00000000000E+00 0. -1.
          2    1    1    2  501    0 -0.11478626193E+02 -0.42594472260E+02  0.16545530576E+04  0.16551410418E+04  0.00000000000E+00 0.  1.
          1    1    1    2  502    0  0.11478626193E+02  0.42594472260E+02 -0.68873661160E+02  0.81790153002E+02  0.00000000000E+00 0. -1.
</event>
<event>
 4    1  0.3927513E+003  0.2009841E+02  0.7546771E-02  0.1532537E+00
          2   -1    0    0  502    0  0.00000000000E+00  0.00000000000E+00  0.10774064604E+02  0.10774064604E+02  0.00000000000E+00 0. -1.
          1   -1    0    0  501    0 -0.00000000000E+00 -0.00000000000E+00 -0.10780730140E+03  0.10780730140E+03  0.00000000000E+00 0. -1.
          2    1    1    2  501    0  0.96246393727E+01 -0.17644047746E+02 -0.63311808701E+00  0.20108379906E+02  0.00000000000E+00 0. -1.
          1    1    1    2  502    0 -0.96246393727E+01  0.17644047746E+02 -0.96400118709E+02  0.98472986098E+02  0.00000000000E+00 0. -1.
</event>
<event>
 4    1  0.3927513E+003  0.2348987E+02  0.7546771E-02  0.1486437E+00
          2   -1    0    0  502    0  0.00000000000E+00  0.00000000000E+00  0.44762749555E+03  0.44762749555E+03  0.00000000000E+00 0.  1.
          1   -1    0    0  501    0 -0.00000000000E+00 -0.00000000000E+00 -0.54124879976E+01  0.54124879976E+01  0.00000000000E+00 0.  1.
          2    1    1    2  501    0 -0.80953967149E+01  0.22050817380E+02  0.42016892336E+03  0.42082502082E+03  0.00000000000E+00 0.  1.
          1    1    1    2  502    0  0.80953967149E+01 -0.22050817380E+02  0.22046084198E+02  0.32214962728E+02  0.00000000000E+00 0.  1.
</event>
<event>
 4    1  0.3927513E+003  0.2239334E+02  0.7546771E-02  0.1500260E+00
          2   -1    0    0  502    0  0.00000000000E+00  0.00000000000E+00  0.58376705619E+01  0.58376705619E+01  0.00000000000E+00 0.  1.
          1   -1    0    0  501    0 -0.00000000000E+00 -0.00000000000E+00 -0.28784888845E+03  0.28784888845E+03  0.00000000000E+00 0. -1.
          2    1    1    2  501    0 -0.22388206289E+02  0.47925299485E+00 -0.18009462267E+02  0.28736774269E+02  0.00000000000E+00 0.  1.
          1    1    1    2  502    0  0.22388206289E+02 -0.47925299485E+00 -0.26400175562E+03  0.26494978475E+03  0.00000000000E+00 0. -1.
</event>
<event>
 4    1  0.3927513E+003  0.2084242E+02  0.7546771E-02  0.1521527E+00
          2   -1    0    0  502    0  0.00000000000E+00  0.00000000000E+00  0.59243027875E+03  0.59243027875E+03  0.00000000000E+00 0. -1.
          1   -1    0    0  501    0 -0.00000000000E+00 -0.00000000000E+00 -0.79938019567E+02  0.79938019567E+02  0.00000000000E+00 0. -1.
          2    1    1    2  501    0 -0.20483424577E+02 -0.38517518811E+01  0.59088483760E+03  0.59125231330E+03  0.00000000000E+00 0. -1.
          1    1    1    2  502    0  0.20483424577E+02  0.38517518811E+01 -0.78392578416E+02  0.81115985019E+02  0.00000000000E+00 0. -1.
</event>
<event>
 4    1  0.3927513E+003  0.2084033E+02  0.7546771E-02  0.1521557E+00
          2   -1    0    0  502    0  0.00000000000E+00  0.00000000000E+00  0.23751223955E+02  0.23751223955E+02  0.00000000000E+00 0.  1.
          1   -1    0    0  501    0 -0.00000000000E+00 -0.00000000000E+00 -0.17250500583E+03  0.17250500583E+03  0.00000000000E+00 0. -1.
          2    1    1    2  501    0 -0.13450054641E+02  0.15919023738E+02  0.18404588484E+02  0.27803743702E+02  0.00000000000E+00 0.  1.
          1    1    1    2  502    0  0.13450054641E+02 -0.15919023738E+02 -0.16715837036E+03  0.16845248609E+03  0.00000000000E+00 0. -1.
</event>
<event>
 4    1  0.3927513E+003  0.2167868E+02  0.7546771E-02  0.1509792E+00
          2   -1    0    0  502    0  0.00000000000E+00  0.00000000000E+00  0.24047611603E+03  0.24047611603E+03  0.00000000000E+00 0.  1.
          1   -1    0    0  501    0 -0.00000000000E+00 -0.00000000000E+00 -0.17437329564E+03  0.17437329564E+03  0.00000000000E+00 0.  1.
          2    1    1    2  501    0 -0.20937104095E+02  0.56216521004E+01  0.23931047089E+03  0.24029038012E+03  0.00000000000E+00 0.  1.
          1    1    1    2  502    0  0.20937104095E+02 -0.56216521004E+01 -0.17320765050E+03  0.17455903154E+03  0.00000000000E+00 0.  1.
</event>
<event>
 4    1  0.3927513E+003  0.3201516E+02  0.7546771E-02  0.1402857E+00
          2   -1    0    0  502    0  0.00000000000E+00  0.00000000000E+00  0.31519499442E+03  0.31519499442E+03  0.00000000000E+00 0.  1.
          1   -1    0    0  501    0 -0.00000000000E+00 -0.00000000000E+00 -0.71252824452E+03  0.71252824452E+03  0.00000000000E+00 0.  1.
          2    1    1    2  501    0 -0.28641587613E+02  0.14304883088E+02  0.31402106389E+03  0.31564885361E+03  0.00000000000E+00 0.  1.
          1    1    1    2  502    0  0.28641587613E+02 -0.14304883088E+02 -0.71135431398E+03  0.71207438533E+03  0.00000000000E+00 0.  1.
</event>
<event>
 4    1  0.3927513E+003  0.4762566E+02  0.7546771E-02  0.1308808E+00
          2   -1    0    0  502    0  0.00000000000E+00  0.00000000000E+00  0.12860834521E+02  0.12860834521E+02  0.00000000000E+00 0. -1.
          1   -1    0    0  501    0 -0.00000000000E+00 -0.00000000000E+00 -0.18623389836E+03  0.18623389836E+03  0.00000000000E+00 0. -1.
          2    1    1    2  501    0 -0.43292223491E+02  0.19849099132E+02 -0.63770951542E+02  0.79592321311E+02  0.00000000000E+00 0. -1.
          1    1    1    2  502    0  0.43292223491E+02 -0.19849099132E+02 -0.10960211230E+03  0.11950241157E+03  0.00000000000E+00 0. -1.
</event>
<event>
 4    1  0.3927513E+003  0.3323940E+02  0.7546771E-02  0.1393382E+00
          2   -1    0    0  502    0  0.00000000000E+00  0.00000000000E+00  0.17935499494E+03  0.17935499494E+03  0.00000000000E+00 0.  1.
          1   -1    0    0  501    0 -0.00000000000E+00 -0.00000000000E+00 -0.10907967928E+02  0.10907967928E+02  0.00000000000E+00 0.  1.
          2    1    1    2  501    0  0.33145331873E+02  0.24989121683E+01  0.14698574312E+03  0.15069726696E+03  0.00000000000E+00 0.  1.
          1    1    1    2  502    0 -0.33145331873E+02 -0.24989121683E+01  0.21461283895E+02  0.39565695918E+02  0.00000000000E+00 0.  1.
</event>
<event>
 4    1  0.3927513E+003  0.5699801E+02  0.7546771E-02  0.1270388E+00
          2   -1    0    0  502    0  0.00000000000E+00  0.00000000000E+00  0.12891783606E+04  0.12891783606E+04  0.00000000000E+00 0. -1.
          1   -1    0    0  501    0 -0.00000000000E+00 -0.00000000000E+00 -0.44528898834E+03  0.44528898834E+03  0.00000000000E+00 0. -1.
          2    1    1    2  501    0  0.54401065332E+02  0.17008755323E+02  0.12867209010E+04  0.12879827059E+04  0.00000000000E+00 0. -1.
          1    1    1    2  502    0 -0.54401065332E+02 -0.17008755323E+02 -0.44283152871E+03  0.44648464305E+03  0.00000000000E+00 0. -1.
</event>
<event>
 4    1  0.3927513E+003  0.2137625E+02  0.7546771E-02  0.1513960E+00
          2   -1    0    0  502    0  0.00000000000E+00  0.00000000000E+00  0.52201711115E+03  0.52201711115E+03  0.00000000000E+00 0. -1.
          1   -1    0    0  501    0 -0.00000000000E+00 -0.00000000000E+00 -0.13721630523E+03  0.13721630523E+03  0.00000000000E+00 0. -1.
          2    1    1    2  501    0 -0.14192979961E+02  0.15984468566E+02  0.52096406854E+03  0.52140244018E+03  0.00000000000E+00 0. -1.
          1    1    1    2  502    0  0.14192979961E+02 -0.15984468566E+02 -0.13616326262E+03  0.13783097621E+03  0.00000000000E+00 0. -1.
</event>
<event>
 4    1  0.3927513E+003  0.3448366E+02  0.7546771E-02  0.1384230E+00
          2   -1    0    0  502    0  0.00000000000E+00  0.00000000000E+00  0.13995529697E+04  0.13995529697E+04  0.00000000000E+00 0. -1.
          1   -1    0    0  501    0 -0.00000000000E+00 -0.00000000000E+00 -0.85496128253E+00  0.85496128253E+00  0.00000000000E+00 0.  1.
          2    1    1    2  501    0 -0.30690624787E+02  0.15722813032E+02  0.64412723305E+03  0.64504962108E+03  0.00000000000E+00 0. -1.
          1    1    1    2  502    0  0.30690624787E+02 -0.15722813032E+02  0.75457077538E+03  0.75535830991E+03  0.00000000000E+00 0.  1.
</event>
<event>
 4    1  0.3927513E+003  0.2764687E+02  0.7546771E-02  0.1441216E+00
          2   -1    0    0  502    0  0.00000000000E+00  0.00000000000E+00  0.13506920750E+02  0.13506920750E+02  0.00000000000E+00 0.  1.
          1   -1    0    0  501    0 -0.00000000000E+00 -0.00000000000E+00 -0.42381994260E+03  0.42381994260E+03  0.00000000000E+00 0.  1.
          2    1    1    2  501    0  0.26515481338E+02 -0.78280648603E+01 -0.16141408582E+01  0.27693948811E+02  0.00000000000E+00 0.  1.
          1    1    1    2  502    0 -0.26515481338E+02  0.78280648603E+01 -0.40869888099E+03  0.40963291454E+03  0.00000000000E+00 0.  1.
</event>
<event>
 4    1  0.3927513E+003  0.5520338E+02  0.7546771E-02  0.1277062E+00
          2   -1    0    0  502    0  0.00000000000E+00  0.00000000000E+00  0.34760103330E+01  0.34760103330E+01  0.00000000000E+00 0. -1.
          1   -1    0    0  501    0 -0.00000000000E+00 -0.00000000000E+00 -0.89959248942E+03  0.89959248942E+03  0.00000000000E+00 0. -1.
          2    1    1    2  501    0 -0.54795250585E+02 -0.67003101536E+01 -0.37602600376E+03  0.38005653415E+03  0.00000000000E+00 0. -1.
          1    1    1    2  502    0  0.54795250585E+02  0.67003101536E+01 -0.52009047533E+03  0.52301196561E+03  0.00000000000E+00 0. -1.
</event>
<event>
 4    1  0.3927513E+003  0.2475509E+02  0.7546771E-02  0.1471562E+00
          2   -1    0    0  502    0  0.00000000000E+00  0.00000000000E+00  0.26070360744E+03  0.26070360744E+03  0.00000000000E+00 0.  1.
          1   -1    0    0  501    0 -0.00000000000E+00 -0.00000000000E+00 -0.75422101243E+02  0.75422101243E+02  0.00000000000E+00 0. -1.
          2    1    1    2  501    0 -0.19242344762E+02 -0.15573909846E+02  0.25806394025E+03  0.25924855208E+03  0.00000000000E+00 0.  1.
          1    1    1    2  502    0  0.19242344762E+02  0.15573909846E+02 -0.72782434054E+02  0.76877156599E+02  0.00000000000E+00 0. -1.
</event>
<event>
 4    1  0.3927513E+003  0.2661566E+02  0.7546771E-02  0.1451508E+00
          2   -1    0    0  502    0  0.00000000000E+00  0.00000000000E+00  0.19125844586E+03  0.19125844586E+03  0.00000000000E+00 0. -1.
          1   -1    0    0  501    0 -0.00000000000E+00 -0.00000000000E+00 -0.38391240029E+01  0.38391240029E+01  0.00000000000E+00 0. -1.
          2    1    1    2  501    0 -0.25901105887E+02 -0.61258642902E+01  0.11202037879E+03  0.11513886730E+03  0.00000000000E+00 0. -1.
          1    1    1    2  502    0  0.25901105887E+02  0.61258642902E+01  0.75398943062E+02  0.79958702555E+02  0.00000000000E+00 0. -1.
</event>
<event>
 4    1  0.3927513E+003  0.2234592E+02  0.7546771E-02  0.1500879E+00
          2   -1    0    0  502    0  0.00000000000E+00  0.00000000000E+00  0.77761204365E+03  0.77761204365E+03  0.00000000000E+00 0. -1.
          1   -1    0    0  501    0 -0.00000000000E+00 -0.00000000000E+00 -0.13356897253E+02  0.13356897253E+02  0.00000000000E+00 0. -1.
          2    1    1    2  501    0  0.21130366183E+02  0.72696388076E+01  0.76798830695E+03  0.76831333428E+03  0.00000000000E+00 0. -1.
          1    1    1    2  502    0 -0.21130366183E+02 -0.72696388076E+01 -0.37331605576E+01  0.22655606617E+02  0.00000000000E+00 0. -1.
</event>
<event>
 4    1  0.3927513E+003  0.2358687E+02  0.7546771E-02  0.1485257E+00
          2   -1    0    0  502    0  0.00000000000E+00  0.00000000000E+00  0.25293038219E+02  0.25293038219E+02  0.00000000000E+00 0.  1.
          1   -1    0    0  501    0 -0.00000000000E+00 -0.00000000000E+00 -0.12735773794E+03  0.12735773794E+03  0.00000000000E+00 0. -1.
          2    1    1    2  501    0  0.15775882899E+02 -0.17534591113E+02  0.18389830197E+02  0.29908631219E+02  0.00000000000E+00 0.  1.
          1    1    1    2  502    0 -0.15775882899E+02  0.17534591113E+02 -0.12045452992E+03  0.12274214494E+03  0.00000000000E+00 0. -1.
</event>
<event>
 4    1  0.3927513E+003  0.2008179E+02  0.7546771E-02  0.1532789E+00
          2   -1    0    0  502    0  0.00000000000E+00  0.00000000000E+00  0.18084207399E+03  0.18084207399E+03  0.00000000000E+00 0. -1.
          1   -1    0    0  501    0 -0.00000000000E+00 -0.00000000000E+00 -0.22309305459E+01  0.22309305459E+01  0.00000000000E+00 0. -1.
          2    1    1    2  501    0 -0.19840248393E+02  0.31052804029E+01  0.91172838653E+02  0.93358260110E+02  0.00000000000E+00 0. -1.
          1    1    1    2  502    0  0.19840248393E+02 -0.31052804029E+01  0.87438304789E+02  0.89714744424E+02  0.00000000000E+00 0. -1.
</event>
<event>
 4    1  0.3927513E+003  0.4844454E+02  0.7546771E-02  0.1305061E+00
          2   -1    0    0  502    0  0.00000000000E+00  0.00000000000E+00  0.43946883074E+01  0.43946883074E+01  0.00000000000E+00 0.  1.
          1   -1    0    0  501    0 -0.00000000000E+00 -0.00000000000E+00 -0.27273749510E+04  0.27273749510E+04  0.00000000000E+00 0.  1.
          2    1    1    2  501    0 -0.16076238111E+02 -0.45699320434E+02 -0.13660427034E+03  0.14493998756E+03  0.00000000000E+00 0.  1.
          1    1    1    2  502    0  0.16076238111E+02  0.45699320434E+02 -0.25863759924E+04  0.25868296518E+04  0.00000000000E+00 0.  1.
</event>
<event>
 4    1  0.3927513E+003  0.2590513E+02  0.7546771E-02  0.1458927E+00
          2   -1    0    0  502    0  0.00000000000E+00  0.00000000000E+00  0.48923183337E+03  0.48923183337E+03  0.00000000000E+00 0. -1.
          1   -1    0    0  501    0 -0.00000000000E+00 -0.00000000000E+00 -0.27697271234E+02  0.27697271234E+02  0.00000000000E+00 0.  1.
          2    1    1    2  501    0  0.80480752909E+01  0.24623244383E+02  0.48275040757E+03  0.48344496242E+03  0.00000000000E+00 0. -1.
          1    1    1    2  502    0 -0.80480752909E+01 -0.24623244383E+02 -0.21215845438E+02  0.33484142180E+02  0.00000000000E+00 0.  1.
</event>
<event>
 4    1  0.3927513E+003  0.3807256E+02  0.7546771E-02  0.1360166E+00
          2   -1    0    0  502    0  0.00000000000E+00  0.00000000000E+00  0.15233303133E+04  0.15233303133E+04  0.00000000000E+00 0.  1.
          1   -1    0    0  501    0 -0.00000000000E+00 -0.00000000000E+00 -0.69026896193E+01  0.69026896193E+01  0.00000000000E+00 0.  1.
          2    1    1    2  501    0 -0.31203399972E+02  0.21814395429E+02  0.14686393808E+04  0.14691327888E+04  0.00000000000E+00 0.  1.
          1    1    1    2  502    0  0.31203399972E+02 -0.21814395429E+02  0.47788242828E+02  0.61100214160E+02  0.00000000000E+00 0.  1.
</event>
<event>
 4    1  0.3927513E+003  0.2260983E+02  0.7546771E-02  0.1497457E+00
          2   -1    0    0  502    0  0.00000000000E+00  0.00000000000E+00  0.83862003952E+01  0.83862003952E+01  0.00000000000E+00 0.  1.
          1   -1    0    0  501    0 -0.00000000000E+00 -0.00000000000E+00 -0.14740244750E+03  0.14740244750E+03  0.00000000000E+00 0.  1.
          2    1    1    2  501    0 -0.56329640707E+01  0.21896896903E+02 -0.98564677330E+01  0.24664840043E+02  0.00000000000E+00 0.  1.
          1    1    1    2  502    0  0.56329640707E+01 -0.21896896903E+02 -0.12915977938E+03  0.13112380786E+03  0.00000000000E+00 0.  1.
</event>
<event>
 4    1  0.3927513E+003  0.2213661E+02  0.7546771E-02  0.1503634E+00
          2   -1    0    0  502    0  0.00000000000E+00  0.00000000000E+00  0.65913805152E+03  0.65913805152E+03  0.00000000000E+00 0. -1.
          1   -1    0    0  501    0 -0.00000000000E+00 -0.00000000000E+00 -0.19499270327E+01  0.19499270327E+01  0.00000000000E+00 0.  1.
          2    1    1    2  501    0  0.22089092505E+02  0.14496689405E+01  0.58859889823E+03  0.58901501895E+03  0.00000000000E+00 0. -1.
          1    1    1    2  502    0 -0.22089092505E+02 -0.14496689405E+01  0.68589226259E+02  0.72072959607E+02  0.00000000000E+00 0.  1.
</event>
<event>
 4    1  0.3927513E+003  0.3478698E+02  0.7546771E-02  0.1382067E+00
          2   -1    0    0  502    0  0.00000000000E+00  0.00000000000E+00  0.55566876262E+03  0.55566876262E+03  0.00000000000E+00 0.  1.
          1   -1    0    0  501    0 -0.00000000000E+00 -0.00000000000E+00 -0.29128498308E+01  0.29128498308E+01  0.00000000000E+00 0. -1.
          2    1    1    2  501    0  0.22686507406E+02 -0.26371509176E+02  0.41667763719E+03  0.41812723835E+03  0.00000000000E+00 0.  1.
          1    1    1    2  502    0 -0.22686507406E+02  0.26371509176E+02  0.13607827560E+03  0.14045437410E+03  0.00000000000E+00 0. -1.
</event>
<event>
 4    1  0.3927513E+003  0.2465917E+02  0.7546771E-02  0.1472652E+00
          2   -1    0    0  502    0  0.00000000000E+00  0.00000000000E+00  0.26973754020E+02  0.26973754020E+02  0.00000000000E+00 0.  1.
          1   -1    0    0  501    0 -0.00000000000E+00 -0.00000000000E+00 -0.24715910628E+02  0.24715910628E+02  0.00000000000E+00 0.  1.
          2    1    1    2  501    0 -0.17993217873E+02 -0.16861758805E+02  0.87916972307E+01  0.26179548117E+02  0.00000000000E+00 0.  1.
          1    1    1    2  502    0  0.17993217873E+02  0.16861758805E+02 -0.65338538389E+01  0.25510116531E+02  0.00000000000E+00 0.  1.
</event>
<event>
 4    1  0.3927513E+003  0.2228650E+02  0.7546771E-02  0.1501657E+00
          2   -1    0    0  502    0  0.00000000000E+00  0.00000000000E+00  0.75528351728E+03  0.75528351728E+03  0.00000000000E+00 0. -1.
          1   -1    0    0  501    0 -0.00000000000E+00 -0.00000000000E+00 -0.11130530610E+01  0.11130530610E+01  0.00000000000E+00 0.  1.
          2    1    1    2  501    0 -0.22141849806E+02  0.25350681811E+01  0.61900692994E+03  0.61940799753E+03  0.00000000000E+00 0. -1.
          1    1    1    2  502    0  0.22141849806E+02 -0.25350681811E+01  0.13516353428E+03  0.13698857281E+03  0.00000000000E+00 0.  1.
</event>
<event>
 4    1  0.3927513E+003  0.2690451E+02  0.7546771E-02  0.1448570E+00
          2   -1    0    0  502    0  0.00000000000E+00  0.00000000000E+00  0.16470532646E+03  0.16470532646E+03  0.00000000000E+00 0.  1.
          1   -1    0    0  501    0 -0.00000000000E+00 -0.00000000000E+00 -0.24285898671E+02  0.24285898671E+02  0.00000000000E+00 0.  1.
          2    1    1    2  501    0 -0.23891180408E+02 -0.12371912875E+02  0.15572890008E+03  0.15803589165E+03  0.00000000000E+00 0.  1.
          1    1    1    2  502    0  0.23891180408E+02  0.12371912875E+02 -0.15309472287E+02  0.30955333485E+02  0.00000000000E+00 0.  1.
</event>
<event>
 4    1  0.3927513E+003  0.3212289E+02  0.7546771E-02  0.1402003E+00
          2   -1    0    0  502    0  0.00000000000E+00  0.00000000000E+00  0.10374464952E+04  0.10374464952E+04  0.00000000000E+00 0.  1.
          1   -1    0    0  501    0 -0.00000000000E+00 -0.00000000000E+00 -0.54873477086E+02  0.54873477086E+02  0.00000000000E+00 0. -1.
          2    1    1    2  501    0 -0.24124347569E+02  0.21210747605E+02  0.10324740228E+04  0.10329736142E+04  0.00000000000E+00 0.  1.
          1    1    1    2  502    0  0.24124347569E+02 -0.21210747605E+02 -0.49901004617E+02  0.59346358114E+02  0.00000000000E+00 0. -1.
</event>
<event>
 4    1  0.3927513E+003  0.1635784E+03  0.7546771E-02  0.1084460E+00
          2   -1    0    0  502    0  0.00000000000E+00  0.00000000000E+00  0.66516386239E+03  0.66516386239E+03  0.00000000000E+00 0.  1.
          1   -1    0    0  501    0 -0.00000000000E+00 -0.00000000000E+00 -0.16908891375E+04  0.16908891375E+04  0.00000000000E+00 0. -1.
          2    1    1    2  501    0  0.11435473248E+02  0.16317823432E+03  0.65106643670E+03  0.67130128199E+03  0.00000000000E+00 0.  1.
          1    1    1    2  502    0 -0.11435473248E+02 -0.16317823432E+03 -0.16767917118E+04  0.16847517179E+04  0.00000000000E+00 0. -1.
</event>
<event>
 4    1  0.3927513E+003  0.2736753E+02  0.7546771E-02  0.1443951E+00
          2   -1    0    0  502    0  0.00000000000E+00  0.00000000000E+00  0.75481730575E+02  0.75481730575E+02  0.00000000000E+00 0.  1.
          1   -1    0    0  501    0 -0.00000000000E+00 -0.00000000000E+00 -0.23022168203E+02  0.23022168203E+02  0.00000000000E+00 0.  1.
          2    1    1    2  501    0  0.64073075851E+01  0.26606915958E+02  0.63381367784E+02  0.69037521316E+02  0.00000000000E+00 0.  1.
          1    1    1    2  502    0 -0.64073075851E+01 -0.26606915958E+02 -0.10921805411E+02  0.29466377462E+02  0.00000000000E+00 0.  1.
</event>
<event>
 4    1  0.3927513E+003  0.2078152E+02  0.7546771E-02  0.1522407E+00
          2   -1    0    0  502    0  0.00000000000E+00  0.00000000000E+00  0.22406026985E+01  0.22406026985E+01  0.00000000000E+00 0.  1.
          1   -1    0    0  501    0 -0.00000000000E+00 -0.00000000000E+00 -0.25740286808E+03  0.25740286808E+03  0.00000000000E+00 0.  1.
          2    1    1    2  501    0 -0.14145100573E+02  0.15224572399E+02 -0.62516998483E+02  0.65880547768E+02  0.00000000000E+00 0.  1.
          1    1    1    2  502    0  0.14145100573E+02 -0.15224572399E+02 -0.19264526690E+03  0.19376292301E+03  0.00000000000E+00 0.  1.
</event>
<event>
 4    1  0.3927513E+003  0.2303148E+02  0.7546771E-02  0.1492103E+00
          2   -1    0    0  502    0  0.00000000000E+00  0.00000000000E+00  0.10867807901E+03  0.10867807901E+03  0.00000000000E+00 0. -1.
          1   -1    0    0  501    0 -0.00000000000E+00 -0.00000000000E+00 -0.38056354999E+02  0.38056354999E+02  0.00000000000E+00 0.  1.
          2    1    1    2  501    0  0.18904732203E+02 -0.13155232518E+02  0.10381183839E+03  0.10633600910E+03  0.00000000000E+00 0. -1.
          1    1    1    2  502    0 -0.18904732203E+02  0.13155232518E+02 -0.33190114380E+02  0.40398424905E+02  0.00000000000E+00 0.  1.
</event>
<event>
 4    1  0.3927513E+003  0.4606082E+02  0.7546771E-02  0.1316219E+00
          2   -1    0    0  502    0  0.00000000000E+00  0.00000000000E+00  0.61032310261E+03  0.61032310261E+03  0.00000000000E+00 0. -1.
          1   -1    0    0  501    0 -0.00000000000E+00 -0.00000000000E+00 -0.38488510516E+01  0.38488510516E+01  0.00000000000E+00 0. -1.
          2    1    1    2  501    0  0.58500078327E+01  0.45687794702E+02  0.20768216488E+03  0.21272865059E+03  0.00000000000E+00 0. -1.
          1    1    1    2  502    0 -0.58500078327E+01 -0.45687794702E+02  0.39879208668E+03  0.40144330307E+03  0.00000000000E+00 0. -1.
</event>
<event>
 4    1  0.3927513E+003  0.2232351E+02  0.7546771E-02  0.1501172E+00
          2   -1    0    0  502    0  0.00000000000E+00  0.00000000000E+00  0.84644871711E+03  0.84644871711E+03  0.00000000000E+00 0.  1.
          1   -1    0    0  501    0 -0.00000000000E+00 -0.00000000000E+00 -0.91496888624E+00  0.91496888624E+00  0.00000000000E+00 0.  1.
          2    1    1    2  501    0  0.19489416964E+02  0.10885858510E+02  0.67575320346E+03  0.67612183168E+03  0.00000000000E+00 0.  1.
          1    1    1    2  502    0 -0.19489416964E+02 -0.10885858510E+02  0.16978054477E+03  0.17124185432E+03  0.00000000000E+00 0.  1.
</event>
<event>
 4    1  0.3927513E+003  0.2267480E+02  0.7546771E-02  0.1496623E+00
          2   -1    0    0  502    0  0.00000000000E+00  0.00000000000E+00  0.20741570825E+01  0.20741570825E+01  0.00000000000E+00 0. -1.
          1   -1    0    0  501    0 -0.00000000000E+00 -0.00000000000E+00 -0.26722392513E+03  0.26722392513E+03  0.00000000000E+00 0. -1.
          2    1    1    2  501    0 -0.18709737681E+02  0.12809835420E+02 -0.16880048941E+03  0.17031662101E+03  0.00000000000E+00 0. -1.
          1    1    1    2  502    0  0.18709737681E+02 -0.12809835420E+02 -0.96349278638E+02  0.98981461202E+02  0.00000000000E+00 0. -1.
</event>
<event>
 4    1  0.3927513E+003  0.3772869E+02  0.7546771E-02  0.1362335E+00
          2   -1    0    0  502    0  0.00000000000E+00  0.00000000000E+00  0.37210199690E+02  0.37210199690E+02  0.00000000000E+00 0.  1.
          1   -1    0    0  501    0 -0.00000000000E+00 -0.00000000000E+00 -0.52705011153E+02  0.52705011153E+02  0.00000000000E+00 0.  1.
          2    1    1    2  501    0  0.37507540942E+02 -0.40790502368E+01  0.15793336738E+02  0.40900901747E+02  0.00000000000E+00 0.  1.
          1    1    1    2  502    0 -0.37507540942E+02  0.40790502368E+01 -0.31288148201E+02  0.49014309097E+02  0.00000000000E+00 0.  1.
</event>
<event>
 4    1  0.3927513E+003  0.2843373E+02  0.7546771E-02  0.1433714E+00
          2   -1    0    0  502    0  0.00000000000E+00  0.00000000000E+00  0.28324423210E+03  0.28324423210E+03  0.00000000000E+00 0. -1.
          1   -1    0    0  501    0 -0.00000000000E+00 -0.00000000000E+00 -0.12984689511E+02  0.12984689511E+02  0.00000000000E+00 0. -1.
          2    1    1    2  501    0 -0.18679472799E+02 -0.21437213532E+02  0.26595568587E+03  0.26747131374E+03  0.00000000000E+00 0. -1.
          1    1    1    2  502    0  0.18679472799E+02  0.21437213532E+02  0.43038567260E+01  0.28757607877E+02  0.00000000000E+00 0. -1.
</event>
<event>
 4    1  0.3927513E+003  0.3814631E+02  0.7546771E-02  0.1359705E+00
          2   -1    0    0  502    0  0.00000000000E+00  0.00000000000E+00  0.23110080659E+04  0.23110080659E+04  0.00000000000E+00 0.  1.
          1   -1    0    0  501    0 -0.00000000000E+00 -0.00000000000E+00 -0.69478505125E+00  0.69478505125E+00  0.00000000000E+00 0.  1.
          2    1    1    2  501    0 -0.18290420602E+02 -0.33475381153E+02  0.15090426429E+04  0.15095247063E+04  0.00000000000E+00 0.  1.
          1    1    1    2  502    0  0.18290420602E+02  0.33475381153E+02  0.80127063795E+03  0.80217814473E+03  0.00000000000E+00 0.  1.
</event>
<event>
 4    1  0.3927513E+003  0.2861949E+02  0.7546771E-02  0.1431985E+00
          2   -1    0    0  502    0  0.00000000000E+00  0.00000000000E+00  0.40343729942E+01  0.40343729942E+01  0.00000000000E+00 0. -1.
          1   -1    0    0  501    0 -0.00000000000E+00 -0.00000000000E+00 -0.20437356221E+03  0.20437356221E+03  0.00000000000E+00 0. -1.
          2    1    1    2  501    0 -0.25329733273E+02 -0.13322121876E+02 -0.10863752497E+03  0.11234405258E+03  0.00000000000E+00 0. -1.
          1    1    1    2  502    0  0.25329733273E+02  0.13322121876E+02 -0.91701664248E+02  0.96063882624E+02  0.00000000000E+00 0. -1.
</event>
<event>
 4    1  0.3927513E+003  0.2554379E+02  0.7546771E-02  0.1462811E+00
          2   -1    0    0  502    0  0.00000000000E+00  0.00000000000E+00  0.44110114922E+01  0.44110114922E+01  0.00000000000E+00 0.  1.
          1   -1    0    0  501    0 -0.00000000000E+00 -0.00000000000E+00 -0.24938549714E+03  0.24938549714E+03  0.00000000000E+00 0. -1.
          2    1    1    2  501    0 -0.22902998229E+02  0.11310973630E+02 -0.41545033117E+02  0.48769613788E+02  0.00000000000E+00 0.  1.
          1    1    1    2  502    0  0.22902998229E+02 -0.11310973630E+02 -0.20342945253E+03  0.20502689484E+03  0.00000000000E+00 0. -1.
</event>
<event>
 4    1  0.3927513E+003  0.2103831E+02  0.7546771E-02  0.1518718E+00
          2   -1    0    0  502    0  0.00000000000E+00  0.00000000000E+00  0.33182062170E+02  0.33182062170E+02  0.00000000000E+00 0. -1.
          1   -1    0    0  501    0 -0.00000000000E+00 -0.00000000000E+00 -0.37451436130E+03  0.37451436130E+03  0.00000000000E+00 0. -1.
          2    1    1    2  501    0  0.19606788381E+02  0.76278706053E+01  0.29518981114E+02  0.36248873177E+02  0.00000000000E+00 0. -1.
          1    1    1    2  502    0 -0.19606788381E+02 -0.76278706053E+01 -0.37085128024E+03  0.37144755029E+03  0.00000000000E+00 0. -1.
</event>
<event>
 4    1  0.3927513E+003  0.2855736E+02  0.7546771E-02  0.1432562E+00
          2   -1    0    0  502    0  0.00000000000E+00  0.00000000000E+00  0.19945655022E+02  0.19945655022E+02  0.00000000000E+00 0.  1.
          1   -1    0    0  501    0 -0.00000000000E+00 -0.00000000000E+00 -0.18228051506E+03  0.18228051506E+03  0.00000000000E+00 0. -1.
          2    1    1    2  501    0 -0.21551606635E+02  0.18736353768E+02  0.78861988069E+01  0.29626252424E+02  0.00000000000E+00 0.  1.
          1    1    1    2  502    0  0.21551606635E+02 -0.18736353768E+02 -0.17022105885E+03  0.17259991766E+03  0.00000000000E+00 0. -1.
</event>
<event>
 4    1  0.3927513E+003  0.2120292E+02  0.7546771E-02  0.1516387E+00
          2   -1    0    0  502    0  0.00000000000E+00  0.00000000000E+00  0.45174572754E+03  0.45174572754E+03  0.00000000000E+00 0. -1.
          1   -1    0    0  501    0 -0.00000000000E+00 -0.00000000000E+00 -0.13842762184E+01  0.13842762184E+01  0.00000000000E+00 0. -1.
          2    1    1    2  501    0  0.20236387973E+02 -0.63286876167E+01  0.34530082077E+03  0.34595118226E+03  0.00000000000E+00 0. -1.
          1    1    1    2  502    0 -0.20236387973E+02  0.63286876167E+01  0.10506063055E+03  0.10717882149E+03  0.00000000000E+00 0. -1.
</event>
<event>
 4    1  0.3927513E+003  0.2249887E+02  0.7546771E-02  0.1498889E+00
          2   -1    0    0  502    0  0.00000000000E+00  0.00000000000E+00  0.44090192804E+02  0.44090192804E+02  0.00000000000E+00 0.  1.
          1   -1    0    0  501    0 -0.00000000000E+00 -0.00000000000E+00 -0.11553609275E+02  0.11553609275E+02  0.00000000000E+00 0.  1.
          2    1    1    2  501    0 -0.62076494442E+01 -0.21625549563E+02  0.18473946077E+02  0.29111612617E+02  0.00000000000E+00 0.  1.
          1    1    1    2  502    0  0.62076494442E+01  0.21625549563E+02  0.14062637452E+02  0.26532189462E+02  0.00000000000E+00 0.  1.
</event>
<event>
 4    1  0.3927513E+003  0.5817713E+02  0.7546771E-02  0.1266155E+00
          2   -1    0    0  502    0  0.00000000000E+00  0.00000000000E+00  0.10061045143E+04  0.10061045143E+04  0.00000000000E+00 0. -1.
          1   -1    0    0  501    0 -0.00000000000E+00 -0.00000000000E+00 -0.12878772465E+02  0.12878772465E+02  0.00000000000E+00 0.  1.
          2    1    1    2  501    0 -0.46542759218E+02 -0.34904877305E+02  0.93453616926E+03  0.93634525179E+03  0.00000000000E+00 0. -1.
          1    1    1    2  502    0  0.46542759218E+02  0.34904877305E+02  0.58689572576E+02  0.82638034975E+02  0.00000000000E+00 0.  1.
</event>
<event>
 4    1  0.3927513E+003  0.2192934E+02  0.7546771E-02  0.1506399E+00
          2   -1    0    0  502    0  0.00000000000E+00  0.00000000000E+00  0.21014348001E+02  0.21014348001E+02  0.00000000000E+00 0. -1.
          1   -1    0    0  501    0 -0.00000000000E+00 -0.00000000000E+00 -0.16382609995E+03  0.16382609995E+03  0.00000000000E+00 0.  1.
          2    1    1    2  501    0 -0.54205208228E+01  0.21248859383E+02  0.14316769602E+02  0.26189042802E+02  0.00000000000E+00 0. -1.
          1    1    1    2  502    0  0.54205208228E+01 -0.21248859383E+02 -0.15712852155E+03  0.15865140514E+03  0.00000000000E+00 0.  1.
</event>
<event>
 4    1  0.3927513E+003  0.4213026E+02  0.7546771E-02  0.1336435E+00
          2   -1    0    0  502    0  0.00000000000E+00  0.00000000000E+00  0.16577300833E+03  0.16577300833E+03  0.00000000000E+00 0. -1.
          1   -1    0    0  501    0 -0.00000000000E+00 -0.00000000000E+00 -0.64667211333E+03  0.64667211333E+03  0.00000000000E+00 0.  1.
          2    1    1    2  501    0  0.17300069023E+01 -0.42094720898E+02  0.16239599140E+03  0.16777191802E+03  0.00000000000E+00 0. -1.
          1    1    1    2  502    0 -0.17300069023E+01  0.42094720898E+02 -0.64329509640E+03  0.64467320365E+03  0.00000000000E+00 0.  1.
</event>
<event>
 4    1  0.4375952E+003  0.2123024E+02  0.7546771E-02  0.1516003E+00
          2   -1    0    0  502    0  0.00000000000E+00  0.00000000000E+00  0.10110593592E+04  0.10110593592E+04  0.00000000000E+00 0. -1.
          1   -1    0    0  501    0 -0.00000000000E+00 -0.00000000000E+00 -0.93353222831E+03  0.93353222831E+03  0.00000000000E+00 0. -1.
          2    1    1    2  501    0 -0.11856599551E+02  0.17610914364E+02  0.10108271795E+04  0.10110501027E+04  0.00000000000E+00 0. -1.
          1    1    1    2  502    0  0.11856599551E+02 -0.17610914364E+02 -0.93330004860E+03  0.93354148487E+03  0.00000000000E+00 0. -1.
</event>
<event>
 4    1  0.3927513E+003  0.3794298E+02  0.7546771E-02  0.1360981E+00
          2   -1    0    0  502    0  0.00000000000E+00  0.00000000000E+00  0.68106409907E+03  0.68106409907E+03  0.00000000000E+00 0. -1.
          1   -1    0    0  501    0 -0.00000000000E+00 -0.00000000000E+00 -0.51989809847E+01  0.51989809847E+01  0.00000000000E+00 0.  1.
          2    1    1    2  501    0 -0.86852137632E+01  0.36935571824E+02  0.60225748303E+03  0.60345152686E+03  0.00000000000E+00 0. -1.
          1    1    1    2  502    0  0.86852137632E+01 -0.36935571824E+02  0.73607635055E+02  0.82811553194E+02  0.00000000000E+00 0.  1.
</event>
<event>
 4    1  0.3927513E+003  0.2752669E+02  0.7546771E-02  0.1442388E+00
          2   -1    0    0  502    0  0.00000000000E+00  0.00000000000E+00  0.87039084075E+03  0.87039084075E+03  0.00000000000E+00 0.  1.
          1   -1    0    0  501    0 -0.00000000000E+00 -0.00000000000E+00 -0.26830989262E+01  0.26830989262E+01  0.00000000000E+00 0. -1.
          2    1    1    2  501    0  0.22077003812E+02  0.16441551984E+02  0.79264984253E+03  0.79312766412E+03  0.00000000000E+00 0.  1.
          1    1    1    2  502    0 -0.22077003812E+02 -0.16441551984E+02  0.75057899288E+02  0.79946275551E+02  0.00000000000E+00 0. -1.
</event>
<event>
 4    1  0.3927513E+003  0.2594364E+02  0.7546771E-02  0.1458518E+00
          2   -1    0    0  502    0  0.00000000000E+00  0.00000000000E+00  0.84041245251E+02  0.84041245251E+02  0.00000000000E+00 0.  1.
          1   -1    0    0  501    0 -0.00000000000E+00 -0.00000000000E+00 -0.97136617178E+03  0.97136617178E+03  0.00000000000E+00 0. -1.
          2    1    1    2  501    0  0.23787844522E+02 -0.10354266920E+02  0.81861305785E+02  0.85874011059E+02  0.00000000000E+00 0.  1.
          1    1    1    2  502    0 -0.23787844522E+02  0.10354266920E+02 -0.96918623232E+03  0.96953340598E+03  0.00000000000E+00 0. -1.
</event>
<event>
 4    1  0.3927513E+003  0.2076833E+02  0.7546771E-02  0.1522598E+00
          2   -1    0    0  502    0  0.00000000000E+00  0.00000000000E+00  0.19991731550E+04  0.19991731550E+04  0.00000000000E+00 0. -1.
          1   -1    0    0  501    0 -0.00000000000E+00 -0.00000000000E+00 -0.27303232498E+00  0.27303232498E+00  0.00000000000E+00 0.  1.
          2    1    1    2  501    0 -0.20407371611E+02 -0.38552417532E+01  0.14573589070E+04  0.14575068808E+04  0.00000000000E+00 0. -1.
          1    1    1    2  502    0  0.20407371611E+02  0.38552417532E+01  0.54154121565E+03  0.54193930652E+03  0.00000000000E+00 0.  1.
</event>
<event>
 4    1  0.3927513E+003  0.2122434E+02  0.7546771E-02  0.1516086E+00
          2   -1    0    0  502    0  0.00000000000E+00  0.00000000000E+00  0.88410241187E+03  0.88410241187E+03  0.00000000000E+00 0.  1.
          1   -1    0    0  501    0 -0.00000000000E+00 -0.00000000000E+00 -0.59048592734E+01  0.59048592734E+01  0.00000000000E+00 0.  1.
          2    1    1    2  501    0 -0.12661035585E+02  0.17034398383E+02  0.86446984605E+03  0.86473035524E+03  0.00000000000E+00 0.  1.
          1    1    1    2  502    0  0.12661035585E+02 -0.17034398383E+02  0.13727706546E+02  0.25276915899E+02  0.00000000000E+00 0.  1.
</event>
<event>
 4    1  0.3927513E+003  0.2090110E+02  0.7546771E-02  0.1520682E+00
          2   -1    0    0  502    0  0.00000000000E+00  0.00000000000E+00  0.60142818098E+03  0.60142818098E+03  0.00000000000E+00 0. -1.
          1   -1    0    0  501    0 -0.00000000000E+00 -0.00000000000E+00 -0.97900122211E+00  0.97900122211E+00  0.00000000000E+00 0.  1.
          2    1    1    2  501    0 -0.13789695482E+02 -0.15706691125E+02  0.45323363310E+03  0.45371530944E+03  0.00000000000E+00 0. -1.
          1    1    1    2  502    0  0.13789695482E+02  0.15706691125E+02  0.14721554666E+03  0.14869187276E+03  0.00000000000E+00 0.  1.
</event>
<event>
 4    1  0.3927513E+003  0.2260087E+02  0.7546771E-02  0.1497572E+00
          2   -1    0    0  502    0  0.00000000000E+00  0.00000000000E+00  0.93657435519E+02  0.93657435519E+02  0.00000000000E+00 0. -1.
          1   -1    0    0  501    0 -0.00000000000E+00 -0.00000000000E+00 -0.12724224741E+02  0.12724224741E+02  0.00000000000E+00 0. -1.
          2    1    1    2  501    0  0.12514936419E+02 -0.18819558700E+02  0.80673232798E+02  0.83779292867E+02  0.00000000000E+00 0. -1.
          1    1    1    2  502    0 -0.12514936419E+02  0.18819558700E+02  0.25997798063E+00  0.22602367393E+02  0.00000000000E+00 0. -1.
</event>
<event>
 4    1  0.3927513E+003  0.3866165E+02  0.7546771E-02  0.1356512E+00
          2   -1    0    0  502    0  0.00000000000E+00  0.00000000000E+00  0.14636157869E+03  0.14636157869E+03  0.00000000000E+00 0. -1.
          1   -1    0    0  501    0 -0.00000000000E+00 -0.00000000000E+00 -0.26971852839E+02  0.26971852839E+02  0.00000000000E+00 0. -1.
          2    1    1    2  501    0 -0.38633588632E+02  0.14727291345E+01  0.12801128070E+03  0.13372214135E+03  0.00000000000E+00 0. -1.
          1    1    1    2  502    0  0.38633588632E+02 -0.14727291345E+01 -0.86215548459E+01  0.39611290180E+02  0.00000000000E+00 0. -1.
</event>
<event>
 4    1  0.3927513E+003  0.2023340E+02  0.7546771E-02  0.1530497E+00
          2   -1    0    0  502    0  0.00000000000E+00  0.00000000000E+00  0.43412129895E+03  0.43412129895E+03  0.00000000000E+00 0. -1.
          1   -1    0    0  501    0 -0.00000000000E+00 -0.00000000000E+00 -0.41623750640E+02  0.41623750640E+02  0.00000000000E+00 0. -1.
          2    1    1    2  501    0 -0.64520993327E+01 -0.19177090479E+02  0.43141122812E+03  0.43188544561E+03  0.00000000000E+00 0. -1.
          1    1    1    2  502    0  0.64520993327E+01  0.19177090479E+02 -0.38913679807E+02  0.43859603979E+02  0.00000000000E+00 0. -1.
</event>
<event>
 4    1  0.3927513E+003  0.4594784E+02  0.7546771E-02  0.1316767E+00
          2   -1    0    0  502    0  0.00000000000E+00  0.00000000000E+00  0.73594949994E+01  0.73594949994E+01  0.00000000000E+00 0.  1.
          1   -1    0    0  501    0 -0.00000000000E+00 -0.00000000000E+00 -0.20321178113E+04  0.20321178113E+04  0.00000000000E+00 0. -1.
          2    1    1    2  501    0 -0.27306716222E+02  0.36953311950E+02 -0.67354297989E+02  0.81534075529E+02  0.00000000000E+00 0.  1.
          1    1    1    2  502    0  0.27306716222E+02 -0.36953311950E+02 -0.19574040183E+04  0.19579432308E+04  0.00000000000E+00 0. -1.
</event>
<event>
 4    1  0.3927513E+003  0.2223445E+02  0.7546771E-02  0.1502342E+00
          2   -1    0    0  502    0  0.00000000000E+00  0.00000000000E+00  0.27717491541E+03  0.27717491541E+03  0.00000000000E+00 0.  1.
          1   -1    0    0  501    0 -0.00000000000E+00 -0.00000000000E+00 -0.31912629260E+01  0.31912629260E+01  0.00000000000E+00 0. -1.
          2    1    1    2  501    0  0.21985345384E+02 -0.33189200866E+01  0.23009465036E+03  0.23116643088E+03  0.00000000000E+00 0.  1.
          1    1    1    2  502    0 -0.21985345384E+02  0.33189200866E+01  0.43889002126E+02  0.49199747457E+02  0.00000000000E+00 0. -1.
</event>
<event>
 4    1  0.3927513E+003  0.2153334E+02  0.7546771E-02  0.1511785E+00
          2   -1    0    0  502    0  0.00000000000E+00  0.00000000000E+00  0.11829753871E+04  0.11829753871E+04  0.00000000000E+00 0. -1.
          1   -1    0    0  501    0 -0.00000000000E+00 -0.00000000000E+00 -0.45993839095E+00  0.45993839095E+00  0.00000000000E+00 0. -1.
          2    1    1    2  501    0  0.51476140569E+01 -0.20909011807E+02  0.81873332725E+03  0.81901645030E+03  0.00000000000E+00 0. -1.
          1    1    1    2  502    0 -0.51476140569E+01  0.20909011807E+02  0.36378212143E+03  0.36441887517E+03  0.00000000000E+00 0. -1.
</event>
<event>
 4    1  0.3927513E+003  0.8182852E+02  0.7546771E-02  0.1199665E+00
          2   -1    0    0  502    0  0.00000000000E+00  0.00000000000E+00  0.10504364306E+04  0.10504364306E+04  0.00000000000E+00 0. -1.
          1   -1    0    0  501    0 -0.00000000000E+00 -0.00000000000E+00 -0.22885579566E+02  0.22885579566E+02  0.00000000000E+00 0. -1.
          2    1    1    2  501    0  0.32620096373E+02 -0.75045559988E+02  0.96961084993E+03  0.97305760727E+03  0.00000000000E+00 0. -1.
          1    1    1    2  502    0 -0.32620096373E+02  0.75045559988E+02  0.57940001113E+02  0.10026440291E+03  0.00000000000E+00 0. -1.
</event>
<event>
 4    1  0.3927513E+003  0.3895949E+02  0.7546771E-02  0.1354693E+00
          2   -1    0    0  502    0  0.00000000000E+00  0.00000000000E+00  0.29969958377E+03  0.29969958377E+03  0.00000000000E+00 0.  1.
          1   -1    0    0  501    0 -0.00000000000E+00 -0.00000000000E+00 -0.51027947357E+01  0.51027947357E+01  0.00000000000E+00 0.  1.
          2    1    1    2  501    0 -0.31343493614E+02 -0.23139298653E+02  0.16049323375E+03  0.16515423039E+03  0.00000000000E+00 0.  1.
          1    1    1    2  502    0  0.31343493614E+02  0.23139298653E+02  0.13410355529E+03  0.13964814812E+03  0.00000000000E+00 0.  1.
</event>
<event>
 4    1  0.3927513E+003  0.2319978E+02  0.7546771E-02  0.1490005E+00
          2   -1    0    0  502    0  0.00000000000E+00  0.00000000000E+00  0.25896928191E+02  0.25896928191E+02  0.00000000000E+00 0.  1.
          1   -1    0    0  501    0 -0.00000000000E+00 -0.00000000000E+00 -0.88259373508E+02  0.88259373508E+02  0.00000000000E+00 0. -1.
          2    1    1    2  501    0 -0.12165985189E+02  0.19753950105E+02  0.18726024643E+02  0.29814321043E+02  0.00000000000E+00 0.  1.
          1    1    1    2  502    0  0.12165985189E+02 -0.19753950105E+02 -0.81088469960E+02  0.84341980655E+02  0.00000000000E+00 0. -1.
</event>
<event>
 4    1  0.3927513E+003  0.5857061E+02  0.7546771E-02  0.1264768E+00
          2   -1    0    0  502    0  0.00000000000E+00  0.00000000000E+00  0.13989853065E+02  0.13989853065E+02  0.00000000000E+00 0. -1.
          1   -1    0    0  501    0 -0.00000000000E+00 -0.00000000000E+00 -0.24120407937E+04  0.24120407937E+04  0.00000000000E+00 0. -1.
          2    1    1    2  501    0  0.49420428486E+02  0.31434661163E+02 -0.49321587514E+02  0.76571115109E+02  0.00000000000E+00 0. -1.
          1    1    1    2  502    0 -0.49420428486E+02 -0.31434661163E+02 -0.23487293531E+04  0.23494595316E+04  0.00000000000E+00 0. -1.
</event>
<event>
 4    1  0.3927513E+003  0.2021284E+02  0.7546771E-02  0.1530807E+00
          2   -1    0    0  502    0  0.00000000000E+00  0.00000000000E+00  0.70202643437E+02  0.70202643437E+02  0.00000000000E+00 0. -1.
          1   -1    0    0  501    0 -0.00000000000E+00 -0.00000000000E+00 -0.20472629628E+03  0.20472629628E+03  0.00000000000E+00 0.  1.
          2    1    1    2  501    0 -0.19752232081E+02 -0.42904832489E+01  0.68234721374E+02  0.71165554306E+02  0.00000000000E+00 0. -1.
          1    1    1    2  502    0  0.19752232081E+02  0.42904832489E+01 -0.20275837421E+03  0.20376338541E+03  0.00000000000E+00 0.  1.
</event>
<event>
 4    1  0.3927513E+003  0.2452193E+02  0.7546771E-02  0.1474223E+00
          2   -1    0    0  502    0  0.00000000000E+00  0.00000000000E+00  0.10042685218E+02  0.10042685218E+02  0.00000000000E+00 0.  1.
          1   -1    0    0  501    0 -0.00000000000E+00 -0.00000000000E+00 -0.42928211726E+03  0.42928211726E+03  0.00000000000E+00 0. -1.
          2    1    1    2  501    0  0.95431929206E+01 -0.22588772654E+02 -0.58517916377E+01  0.25210486836E+02  0.00000000000E+00 0.  1.
          1    1    1    2  502    0 -0.95431929206E+01  0.22588772654E+02 -0.41338764041E+03  0.41411431565E+03  0.00000000000E+00 0. -1.
</event>
<event>
 4    1  0.3927513E+003  0.2352809E+02  0.7546771E-02  0.1485971E+00
          2   -1    0    0  502    0  0.00000000000E+00  0.00000000000E+00  0.22544237565E+02  0.22544237565E+02  0.00000000000E+00 0. -1.
          1   -1    0    0  501    0 -0.00000000000E+00 -0.00000000000E+00 -0.14407620523E+03  0.14407620523E+03  0.00000000000E+00 0.  1.
          2    1    1    2  501    0  0.23405306238E+02  0.24005754371E+01  0.15113584559E+02  0.27964112015E+02  0.00000000000E+00 0. -1.
          1    1    1    2  502    0 -0.23405306238E+02 -0.24005754371E+01 -0.13664555223E+03  0.13865633078E+03  0.00000000000E+00 0.  1.
</event>
<event>
 4    1  0.3927513E+003  0.2131331E+02  0.7546771E-02  0.1514838E+00
          2   -1    0    0  502    0  0.00000000000E+00  0.00000000000E+00  0.26349808950E+03  0.26349808950E+03  0.00000000000E+00 0. -1.
          1   -1    0    0  501    0 -0.00000000000E+00 -0.00000000000E+00 -0.18822052603E+01  0.18822052603E+01  0.00000000000E+00 0. -1.
          2    1    1    2  501    0 -0.21214534473E+02  0.20495590226E+01  0.16928361022E+03  0.17062003942E+03  0.00000000000E+00 0. -1.
          1    1    1    2  502    0  0.21214534473E+02 -0.20495590226E+01  0.92332274028E+02  0.94760255341E+02  0.00000000000E+00 0. -1.
</event>
<event>
 4    1  0.3927513E+003  0.2099817E+02  0.7546771E-02  0.1519291E+00
          2   -1    0    0  502    0  0.00000000000E+00  0.00000000000E+00  0.19463272458E+02  0.19463272458E+02  0.00000000000E+00 0. -1.
          1   -1    0    0  501    0 -0.00000000000E+00 -0.00000000000E+00 -0.22707272197E+02  0.22707272197E+02  0.00000000000E+00 0. -1.
          2    1    1    2  501    0 -0.20569873009E+02 -0.42194315796E+01 -0.60185009983E+00  0.21006796567E+02  0.00000000000E+00 0. -1.
          1    1    1    2  502    0  0.20569873009E+02  0.42194315796E+01 -0.26421496391E+01  0.21163748089E+02  0.00000000000E+00 0. -1.
</event>
<event>
 4    1  0.3927513E+003  0.2415128E+02  0.7546771E-02  0.1478526E+00
          2   -1    0    0  502    0  0.00000000000E+00  0.00000000000E+00  0.14375419629E+04  0.14375419629E+04  0.00000000000E+00 0.  1.
          1   -1    0    0  501    0 -0.00000000000E+00 -0.00000000000E+00 -0.68083465085E+01  0.68083465085E+01  0.00000000000E+00 0. -1.
          2    1    1    2  501    0 -0.12301080351E+02  0.20783835985E+02  0.14156919901E+04  0.14158979820E+04  0.00000000000E+00 0.  1.
          1    1    1    2  502    0  0.12301080351E+02 -0.20783835985E+02  0.15041626252E+02  0.28452327433E+02  0.00000000000E+00 0. -1.
</event>
<event>
 4    1  0.3927513E+003  0.4546939E+02  0.7546771E-02  0.1319109E+00
          2   -1    0    0  502    0  0.00000000000E+00  0.00000000000E+00  0.23648062226E+03  0.23648062226E+03  0.00000000000E+00 0.  1.
          1   -1    0    0  501    0 -0.00000000000E+00 -0.00000000000E+00 -0.89241349213E+01  0.89241349213E+01  0.00000000000E+00 0.  1.
          2    1    1    2  501    0  0.53904998420E+00 -0.45466194096E+02  0.13127670914E+03  0.13892818196E+03  0.00000000000E+00 0.  1.
          1    1    1    2  502    0 -0.53904998420E+00  0.45466194096E+02  0.96279778196E+02  0.10647657522E+03  0.00000000000E+00 0.  1.
</event>
<event>
 4    1  0.3927513E+003  0.2808841E+02  0.7546771E-02  0.1436971E+00
          2   -1    0    0  502    0  0.00000000000E+00  0.00000000000E+00  0.36546557222E+03  0.36546557222E+03  0.00000000000E+00 0. -1.
          1   -1    0    0  501    0 -0.00000000000E+00 -0.00000000000E+00 -0.14529819266E+03  0.14529819266E+03  0.00000000000E+00 0.  1.
          2    1    1    2  501    0  0.20861809992E+02  0.18808079336E+02  0.36356129566E+03  0.36464472389E+03  0.00000000000E+00 0. -1.
          1    1    1    2  502    0 -0.20861809992E+02 -0.18808079336E+02 -0.14339391610E+03  0.14611904098E+03  0.00000000000E+00 0.  1.
</event>
<event>
 4    1  0.3927513E+003  0.2043953E+02  0.7546771E-02  0.1527419E+00
          2   -1    0    0  502    0  0.00000000000E+00  0.00000000000E+00  0.36633887118E+03  0.36633887118E+03  0.00000000000E+00 0.  1.
          1   -1    0    0  501    0 -0.00000000000E+00 -0.00000000000E+00 -0.15291661441E+01  0.15291661441E+01  0.00000000000E+00 0.  1.
          2    1    1    2  501    0 -0.10854897009E+02 -0.17318942535E+02  0.27514682586E+03  0.27590496614E+03  0.00000000000E+00 0.  1.
          1    1    1    2  502    0  0.10854897009E+02  0.17318942535E+02  0.89662879179E+02  0.91963071188E+02  0.00000000000E+00 0.  1.
</event>
<event>
 4    1  0.3927513E+003  0.2253191E+02  0.7546771E-02  0.1498461E+00
          2   -1    0    0  502    0  0.00000000000E+00  0.00000000000E+00  0.33836295950E+03  0.33836295950E+03  0.00000000000E+00 0.  1.
          1   -1    0    0  501    0 -0.00000000000E+00 -0.00000000000E+00 -0.10344093496E+02  0.10344093496E+02  0.00000000000E+00 0. -1.
          2    1    1    2  501    0  0.19046236090E+02  0.12038606365E+02  0.32522271659E+03  0.32600230450E+03  0.00000000000E+00 0.  1.
          1    1    1    2  502    0 -0.19046236090E+02 -0.12038606365E+02  0.27961494045E+01  0.22704748488E+02  0.00000000000E+00 0. -1.
</event>
<event>
 4    1  0.3927513E+003  0.2789405E+02  0.7546771E-02  0.1438828E+00
          2   -1    0    0  502    0  0.00000000000E+00  0.00000000000E+00  0.21070143823E+04  0.21070143823E+04  0.00000000000E+00 0. -1.
          1   -1    0    0  501    0 -0.00000000000E+00 -0.00000000000E+00 -0.50634247806E+00  0.50634247806E+00  0.00000000000E+00 0.  1.
          2    1    1    2  501    0 -0.77400019505E+01  0.26798700936E+02  0.16015046874E+04  0.16017475899E+04  0.00000000000E+00 0. -1.
          1    1    1    2  502    0  0.77400019505E+01 -0.26798700936E+02  0.50500335244E+03  0.50577313489E+03  0.00000000000E+00 0.  1.
</event>
<event>
 4    1  0.3927513E+003  0.2916778E+02  0.7546771E-02  0.1426969E+00
          2   -1    0    0  502    0  0.00000000000E+00  0.00000000000E+00  0.34974034195E+03  0.34974034195E+03  0.00000000000E+00 0.  1.
          1   -1    0    0  501    0 -0.00000000000E+00 -0.00000000000E+00 -0.15281339455E+02  0.15281339455E+02  0.00000000000E+00 0.  1.
          2    1    1    2  501    0 -0.24535405889E+02 -0.15772540750E+02  0.33458467453E+03  0.33585363421E+03  0.00000000000E+00 0.  1.
          1    1    1    2  502    0  0.24535405889E+02  0.15772540750E+02 -0.12567202834E+00  0.29168047198E+02  0.00000000000E+00 0.  1.
</event>
<event>
 4    1  0.3927513E+003  0.2530426E+02  0.7546771E-02  0.1465428E+00
          2   -1    0    0  502    0  0.00000000000E+00  0.00000000000E+00  0.27013552047E+03  0.27013552047E+03  0.00000000000E+00 0. -1.
          1   -1    0    0  501    0 -0.00000000000E+00 -0.00000000000E+00 -0.16476920068E+02  0.16476920068E+02  0.00000000000E+00 0.  1.
          2    1    1    2  501    0  0.24222091249E+02 -0.73209210342E+01  0.25942771044E+03  0.26065886237E+03  0.00000000000E+00 0. -1.
          1    1    1    2  502    0 -0.24222091249E+02  0.73209210342E+01 -0.57691100330E+01  0.25953578170E+02  0.00000000000E+00 0.  1.
</event>
<event>
 4    1  0.3927513E+003  0.3687005E+02  0.7546771E-02  0.1367872E+00
          2   -1    0    0  502    0  0.00000000000E+00  0.00000000000E+00  0.37619100060E+03  0.37619100060E+03  0.00000000000E+00 0.  1.
          1   -1    0    0  501    0 -0.00000000000E+00 -0.00000000000E+00 -0.37406772391E+01  0.37406772391E+01  0.00000000000E+00 0.  1.
          2    1    1    2  501    0 -0.20130188130E+02  0.30889714511E+02  0.15120998152E+03  0.15564015371E+03  0.00000000000E+00 0.  1.
          1    1    1    2  502    0  0.20130188130E+02 -0.30889714511E+02  0.22124034184E+03  0.22429152412E+03  0.00000000000E+00 0.  1.
</event>
<event>
 4    1  0.3927513E+003  0.2548827E+02  0.7546771E-02  0.1463415E+00
          2   -1    0    0  502    0  0.00000000000E+00  0.00000000000E+00  0.12457623947E+03  0.12457623947E+03  0.00000000000E+00 0.  1.
          1   -1    0    0  501    0 -0.00000000000E+00 -0.00000000000E+00 -0.15617411323E+03  0.15617411323E+03  0.00000000000E+00 0. -1.
          2    1    1    2  501    0 -0.20847654906E+02  0.14663800477E+02  0.12221267001E+03  0.12484225435E+03  0.00000000000E+00 0.  1.
          1    1    1    2  502    0  0.20847654906E+02 -0.14663800477E+02 -0.15381054376E+03  0.15590809835E+03  0.00000000000E+00 0. -1.
</event>
<event>
 4    1  0.3927513E+003  0.5527645E+02  0.7546771E-02  0.1276785E+00
          2   -1    0    0  502    0  0.00000000000E+00  0.00000000000E+00  0.26082814357E+03  0.26082814357E+03  0.00000000000E+00 0.  1.
          1   -1    0    0  501    0 -0.00000000000E+00 -0.00000000000E+00 -0.19560817093E+04  0.19560817093E+04  0.00000000000E+00 0. -1.
          2    1    1    2  501    0 -0.15574641640E+02 -0.53036931653E+02  0.25750400953E+03  0.26337008279E+03  0.00000000000E+00 0.  1.
          1    1    1    2  502    0  0.15574641640E+02  0.53036931653E+02 -0.19527575752E+04  0.19535397701E+04  0.00000000000E+00 0. -1.
</event>
<event>
 4    1  0.3927513E+003  0.3195242E+02  0.7546771E-02  0.1403356E+00
          2   -1    0    0  502    0  0.00000000000E+00  0.00000000000E+00  0.83535196718E+01  0.83535196718E+01  0.00000000000E+00 0.  1.
          1   -1    0    0  501    0 -0.00000000000E+00 -0.00000000000E+00 -0.12024712912E+04  0.12024712912E+04  0.00000000000E+00 0.  1.
          2    1    1    2  501    0  0.26151255348E+02 -0.18359433409E+02 -0.23237670896E+02  0.39508812941E+02  0.00000000000E+00 0.  1.
          1    1    1    2  502    0 -0.26151255348E+02  0.18359433409E+02 -0.11708801006E+04  0.11713159979E+04  0.00000000000E+00 0.  1.
</event>
<event>
 4    1  0.3927513E+003  0.3679376E+02  0.7546771E-02  0.1368373E+00
          2   -1    0    0  502    0  0.00000000000E+00  0.00000000000E+00  0.14190585981E+03  0.14190585981E+03  0.00000000000E+00 0.  1.
          1   -1    0    0  501    0 -0.00000000000E+00 -0.00000000000E+00 -0.96658907466E+01  0.96658907466E+01  0.00000000000E+00 0. -1.
          2    1    1    2  501    0 -0.36706643162E+02  0.25304602188E+01  0.74769198664E+02  0.83331950356E+02  0.00000000000E+00 0.  1.
          1    1    1    2  502    0  0.36706643162E+02 -0.25304602188E+01  0.57470770396E+02  0.68239800198E+02  0.00000000000E+00 0. -1.
</event>
<event>
 4    1  0.3927513E+003  0.2095786E+02  0.7546771E-02  0.1519867E+00
          2   -1    0    0  502    0  0.00000000000E+00  0.00000000000E+00  0.20682056039E+01  0.20682056039E+01  0.00000000000E+00 0. -1.
          1   -1    0    0  501    0 -0.00000000000E+00 -0.00000000000E+00 -0.22284503543E+03  0.22284503543E+03  0.00000000000E+00 0.  1.
          2    1    1    2  501    0  0.20586292539E+02  0.39289206135E+01 -0.86010823904E+02  0.88527361230E+02  0.00000000000E+00 0. -1.
          1    1    1    2  502    0 -0.20586292539E+02 -0.39289206135E+01 -0.13476600592E+03  0.13638587980E+03  0.00000000000E+00 0.  1.
</event>
<event>
 4    1  0.3927513E+003  0.2021535E+02  0.7546771E-02  0.1530769E+00
          2   -1    0    0  502    0  0.00000000000E+00  0.00000000000E+00  0.10424000857E+04  0.10424000857E+04  0.00000000000E+00 0. -1.
          1   -1    0    0  501    0 -0.00000000000E+00 -0.00000000000E+00 -0.31791064929E+01  0.31791064929E+01  0.00000000000E+00 0. -1.
          2    1    1    2  501    0  0.41758763043E+01 -0.19779341198E+02  0.10091054572E+04  0.10093079233E+04  0.00000000000E+00 0. -1.
          1    1    1    2  502    0 -0.41758763043E+01  0.19779341198E+02  0.30115521979E+02  0.36271268867E+02  0.00000000000E+00 0. -1.
</event>
<event>
 4    1  0.3927513E+003  0.2267551E+02  0.7546771E-02  0.1496614E+00
          2   -1    0    0  502    0  0.00000000000E+00  0.00000000000E+00  0.25945135641E+03  0.25945135641E+03  0.00000000000E+00 0.  1.
          1   -1    0    0  501    0 -0.00000000000E+00 -0.00000000000E+00 -0.12305820580E+03  0.12305820580E+03  0.00000000000E+00 0.  1.
          2    1    1    2  501    0  0.28941046749E+01  0.22490060444E+02  0.25790507331E+03  0.25889999131E+03  0.00000000000E+00 0.  1.
          1    1    1    2  502    0 -0.28941046749E+01 -0.22490060444E+02 -0.12151192270E+03  0.12360957090E+03  0.00000000000E+00 0.  1.
</event>
<event>
 4    1  0.3927513E+003  0.2252581E+02  0.7546771E-02  0.1498540E+00
          2   -1    0    0  502    0  0.00000000000E+00  0.00000000000E+00  0.34152498401E+02  0.34152498401E+02  0.00000000000E+00 0.  1.
          1   -1    0    0  501    0 -0.00000000000E+00 -0.00000000000E+00 -0.68037227424E+02  0.68037227424E+02  0.00000000000E+00 0.  1.
          2    1    1    2  501    0  0.20374103692E+02  0.96077003657E+01  0.28230541783E+02  0.36116139009E+02  0.00000000000E+00 0.  1.
          1    1    1    2  502    0 -0.20374103692E+02 -0.96077003657E+01 -0.62115270805E+02  0.66073586816E+02  0.00000000000E+00 0.  1.
</event>
<event>
 4    1  0.3927513E+003  0.6967340E+02  0.7546771E-02  0.1230092E+00
          2   -1    0    0  502    0  0.00000000000E+00  0.00000000000E+00  0.35897170627E+03  0.35897170627E+03  0.00000000000E+00 0. -1.
          1   -1    0    0  501    0 -0.00000000000E+00 -0.00000000000E+00 -0.18873649087E+02  0.18873649087E+02  0.00000000000E+00 0. -1.
          2    1    1    2  501    0 -0.53026739361E+02 -0.45194550561E+02  0.27063987742E+03  0.27946435504E+03  0.00000000000E+00 0. -1.
          1    1    1    2  502    0  0.53026739361E+02  0.45194550561E+02  0.69458179762E+02  0.98381000318E+02  0.00000000000E+00 0. -1.
</event>
<event>
 4    1  0.3927513E+003  0.2210709E+02  0.7546771E-02  0.1504026E+00
          2   -1    0    0  502    0  0.00000000000E+00  0.00000000000E+00  0.47083773826E+02  0.47083773826E+02  0.00000000000E+00 0. -1.
          1   -1    0    0  501    0 -0.00000000000E+00 -0.00000000000E+00 -0.10446231935E+02  0.10446231935E+02  0.00000000000E+00 0. -1.
          2    1    1    2  501    0  0.48588889596E+01  0.21566502243E+02  0.16025856103E+02  0.27304777691E+02  0.00000000000E+00 0. -1.
          1    1    1    2  502    0 -0.48588889596E+01 -0.21566502243E+02  0.20611685787E+02  0.30225228070E+02  0.00000000000E+00 0. -1.
</event>
<event>
 4    1  0.3927513E+003  0.4076692E+02  0.7546771E-02  0.1344049E+00
          2   -1    0    0  502    0  0.00000000000E+00  0.00000000000E+00  0.52417342336E+02  0.52417342336E+02  0.00000000000E+00 0. -1.
          1   -1    0    0  501    0 -0.00000000000E+00 -0.00000000000E+00 -0.49955138048E+03  0.49955138048E+03  0.00000000000E+00 0. -1.
          2    1    1    2  501    0  0.24073886894E+02  0.32899697558E+02  0.43515573612E+02  0.59628409977E+02  0.00000000000E+00 0. -1.
          1    1    1    2  502    0 -0.24073886894E+02 -0.32899697558E+02 -0.49064961176E+03  0.49234031284E+03  0.00000000000E+00 0. -1.
</event>
<event>
 4    1  0.3927513E+003  0.2701714E+02  0.7546771E-02  0.1447436E+00
          2   -1    0    0  502    0  0.00000000000E+00  0.00000000000E+00  0.43458176238E+03  0.43458176238E+03  0.00000000000E+00 0. -1.
          1   -1    0    0  501    0 -0.00000000000E+00 -0.00000000000E+00 -0.60535233385E+01  0.60535233385E+01  0.00000000000E+00 0. -1.
          2    1    1    2  501    0  0.14701425156E+02 -0.22667020647E+02  0.40153941814E+03  0.40244730096E+03  0.00000000000E+00 0. -1.
          1    1    1    2  502    0 -0.14701425156E+02  0.22667020647E+02  0.26988820906E+02  0.38187984767E+02  0.00000000000E+00 0. -1.
</event>
<event>
 4    1  0.3927513E+003  0.2857241E+02  0.7546771E-02  0.1432422E+00
          2   -1    0    0  502    0  0.00000000000E+00  0.00000000000E+00  0.36203976863E+03  0.36203976863E+03  0.00000000000E+00 0. -1.
          1   -1    0    0  501    0 -0.00000000000E+00 -0.00000000000E+00 -0.42159473298E+02  0.42159473298E+02  0.00000000000E+00 0. -1.
          2    1    1    2  501    0  0.18350991333E+02  0.21900315074E+02  0.35656072076E+03  0.35770369061E+03  0.00000000000E+00 0. -1.
          1    1    1    2  502    0 -0.18350991333E+02 -0.21900315074E+02 -0.36680425428E+02  0.46495551323E+02  0.00000000000E+00 0. -1.
</event>
<event>
 4    1  0.3927513E+003  0.2449660E+02  0.7546771E-02  0.1474514E+00
          2   -1    0    0  502    0  0.00000000000E+00  0.00000000000E+00  0.17134460107E+04  0.17134460107E+04  0.00000000000E+00 0. -1.
          1   -1    0    0  501    0 -0.00000000000E+00 -0.00000000000E+00 -0.35987044804E+00  0.35987044804E+00  0.00000000000E+00 0. -1.
          2    1    1    2  501    0  0.23895884303E+02  0.53916815592E+01  0.99686524465E+03  0.99716618450E+03  0.00000000000E+00 0. -1.
          1    1    1    2  502    0 -0.23895884303E+02 -0.53916815592E+01  0.71622089556E+03  0.71663969661E+03  0.00000000000E+00 0. -1.
</event>
<event>
 4    1  0.3927513E+003  0.2896003E+02  0.7546771E-02  0.1428854E+00
          2   -1    0    0  502    0  0.00000000000E+00  0.00000000000E+00  0.30646069180E+03  0.30646069180E+03  0.00000000000E+00 0.  1.
          1   -1    0    0  501    0 -0.00000000000E+00 -0.00000000000E+00 -0.63853901671E+01  0.63853901671E+01  0.00000000000E+00 0. -1.
          2    1    1    2  501    0  0.28210110833E+02 -0.65477576071E+01  0.26828106284E+03  0.26983960451E+03  0.00000000000E+00 0.  1.
          1    1    1    2  502    0 -0.28210110833E+02  0.65477576071E+01  0.31794238790E+02  0.43006477455E+02  0.00000000000E+00 0. -1.
</event>
<event>
 4    1  0.3927513E+003  0.2396501E+02  0.7546771E-02  0.1480723E+00
          2   -1    0    0  502    0  0.00000000000E+00  0.00000000000E+00  0.13617467635E+03  0.13617467635E+03  0.00000000000E+00 0. -1.
          1   -1    0    0  501    0 -0.00000000000E+00 -0.00000000000E+00 -0.81426458468E+02  0.81426458468E+02  0.00000000000E+00 0.  1.
          2    1    1    2  501    0 -0.10839984041E+02  0.21373262131E+02  0.13331951581E+03  0.13545632094E+03  0.00000000000E+00 0. -1.
          1    1    1    2  502    0  0.10839984041E+02 -0.21373262131E+02 -0.78571297929E+02  0.82144813873E+02  0.00000000000E+00 0.  1.
</event>
<event>
 4    1  0.3927513E+003  0.2500068E+02  0.7546771E-02  0.1468796E+00
          2   -1    0    0  502    0  0.00000000000E+00  0.00000000000E+00  0.24736747691E+03  0.24736747691E+03  0.00000000000E+00 0. -1.
          1   -1    0    0  501    0 -0.00000000000E+00 -0.00000000000E+00 -0.51956690291E+01  0.51956690291E+01  0.00000000000E+00 0. -1.
          2    1    1    2  501    0 -0.23343509155E+02 -0.89506790826E+01  0.21159401496E+03  0.21306586128E+03  0.00000000000E+00 0. -1.
          1    1    1    2  502    0  0.23343509155E+02  0.89506790826E+01  0.30577792926E+02  0.39497284665E+02  0.00000000000E+00 0. -1.
</event>
<event>
 4    1  0.3927513E+003  0.2805517E+02  0.7546771E-02  0.1437287E+00
          2   -1    0    0  502    0  0.00000000000E+00  0.00000000000E+00  0.21189738301E+01  0.21189738301E+01  0.00000000000E+00 0.  1.
          1   -1    0    0  501    0 -0.00000000000E+00 -0.00000000000E+00 -0.85828119513E+03  0.85828119513E+03  0.00000000000E+00 0.  1.
          2    1    1    2  501    0  0.26414795608E+02  0.94525589208E+01 -0.10408111509E+03  0.10779596846E+03  0.00000000000E+00 0.  1.
          1    1    1    2  502    0 -0.26414795608E+02 -0.94525589208E+01 -0.75208110620E+03  0.75260420050E+03  0.00000000000E+00 0.  1.
</event>
<event>
 4    1  0.3927513E+003  0.4876976E+02  0.7546771E-02  0.1303596E+00
          2   -1    0    0  502    0  0.00000000000E+00  0.00000000000E+00  0.59319236316E+01  0.59319236316E+01  0.00000000000E+00 0.  1.
          1   -1    0    0  501    0 -0.00000000000E+00 -0.00000000000E+00 -0.74184685221E+03  0.74184685221E+03  0.00000000000E+00 0. -1.
          2    1    1    2  501    0  0.15650324762E+01 -0.48744641692E+02 -0.11450972832E+03  0.12446271450E+03  0.00000000000E+00 0.  1.
          1    1    1    2  502    0 -0.15650324762E+01  0.48744641692E+02 -0.62140520025E+03  0.62331606134E+03  0.00000000000E+00 0. -1.
</event>
<event>
 4    1  0.3927513E+003  0.2009515E+02  0.7546771E-02  0.1532586E+00
          2   -1    0    0  502    0  0.00000000000E+00  0.00000000000E+00  0.17381115510E+02  0.17381115510E+02  0.00000000000E+00 0. -1.
          1   -1    0    0  501    0 -0.00000000000E+00 -0.00000000000E+00 -0.15963381506E+03  0.15963381506E+03  0.00000000000E+00 0.  1.
          2    1    1    2  501    0  0.48230125445E+01 -0.19507778876E+02  0.10687342303E+02  0.22760364061E+02  0.00000000000E+00 0. -1.
          1    1    1    2  502    0 -0.48230125445E+01  0.19507778876E+02 -0.15294004185E+03  0.15425456651E+03  0.00000000000E+00 0.  1.
</event>
<event>
 4    1  0.3927513E+003  0.1936847E+03  0.7546771E-02  0.1059706E+00
          2   -1    0    0  502    0  0.00000000000E+00  0.00000000000E+00  0.16219022525E+04  0.16219022525E+04  0.00000000000E+00 0. -1.
          1   -1    0    0  501    0 -0.00000000000E+00 -0.00000000000E+00 -0.17535869011E+04  0.17535869011E+04  0.00000000000E+00 0.  1.
          2    1    1    2  501    0  0.29306893247E+02  0.19145463525E+03  0.16107347853E+04  0.16223379179E+04  0.00000000000E+00 0. -1.
          1    1    1    2  502    0 -0.29306893247E+02 -0.19145463525E+03 -0.17424194339E+04  0.17531512356E+04  0.00000000000E+00 0.  1.
</event>
<event>
 4    1  0.3927513E+003  0.4635163E+02  0.7546771E-02  0.1314816E+00
          2   -1    0    0  502    0  0.00000000000E+00  0.00000000000E+00  0.10193048557E+04  0.10193048557E+04  0.00000000000E+00 0. -1.
          1   -1    0    0  501    0 -0.00000000000E+00 -0.00000000000E+00 -0.73717830723E+01  0.73717830723E+01  0.00000000000E+00 0. -1.
          2    1    1    2  501    0 -0.65384114312E+01  0.45888154474E+02  0.93975235539E+03  0.94089476723E+03  0.00000000000E+00 0. -1.
          1    1    1    2  502    0  0.65384114312E+01 -0.45888154474E+02  0.72180717282E+02  0.85781871583E+02  0.00000000000E+00 0. -1.
</event>
<event>
 4    1  0.3927513E+003  0.2472720E+02  0.7546771E-02  0.1471878E+00
          2   -1    0    0  502    0  0.00000000000E+00  0.00000000000E+00  0.11235736857E+03  0.11235736857E+03  0.00000000000E+00 0.  1.
          1   -1    0    0  501    0 -0.00000000000E+00 -0.00000000000E+00 -0.32026128962E+03  0.32026128962E+03  0.00000000000E+00 0.  1.
          2    1    1    2  501    0 -0.12209793642E+02  0.21502449077E+02  0.11051173344E+03  0.11324432703E+03  0.00000000000E+00 0.  1.
          1    1    1    2  502    0  0.12209793642E+02 -0.21502449077E+02 -0.31841565449E+03  0.31937433116E+03  0.00000000000E+00 0.  1.
</event>
<event>
 4    1  0.3927513E+003  0.2209995E+02  0.7546771E-02  0.1504120E+00
          2   -1    0    0  502    0  0.00000000000E+00  0.00000000000E+00  0.13489960886E+04  0.13489960886E+04  0.00000000000E+00 0.  1.
          1   -1    0    0  501    0 -0.00000000000E+00 -0.00000000000E+00 -0.61568069212E+00  0.61568069212E+00  0.00000000000E+00 0.  1.
          2    1    1    2  501    0 -0.42701591187E+01  0.21683489590E+02  0.11073014825E+04  0.11075220003E+04  0.00000000000E+00 0.  1.
          1    1    1    2  502    0  0.42701591187E+01 -0.21683489590E+02  0.24107892543E+03  0.24208976902E+03  0.00000000000E+00 0.  1.
</event>
<event>
 4    1  0.3927513E+003  0.2551365E+02  0.7546771E-02  0.1463138E+00
          2   -1    0    0  502    0  0.00000000000E+00  0.00000000000E+00  0.84925984995E+02  0.84925984995E+02  0.00000000000E+00 0. -1.
          1   -1    0    0  501    0 -0.00000000000E+00 -0.00000000000E+00 -0.10283854682E+04  0.10283854682E+04  0.00000000000E+00 0. -1.
          2    1    1    2  501    0 -0.10175202138E+02  0.23396830342E+02  0.82847643540E+02  0.86687245018E+02  0.00000000000E+00 0. -1.
          1    1    1    2  502    0  0.10175202138E+02 -0.23396830342E+02 -0.10263071267E+04  0.10266242082E+04  0.00000000000E+00 0. -1.
</event>
<event>
 4    1  0.3927513E+003  0.2076056E+02  0.7546771E-02  0.1522711E+00
          2   -1    0    0  502    0  0.00000000000E+00  0.00000000000E+00  0.35597201923E+00  0.35597201923E+00  0.00000000000E+00 0. -1.
          1   -1    0    0  501    0 -0.00000000000E+00 -0.00000000000E+00 -0.12329284296E+04  0.12329284296E+04  0.00000000000E+00 0. -1.
          2    1    1    2  501    0 -0.20285333143E+02 -0.44165529569E+01 -0.53362122084E+03  0.53402491328E+03  0.00000000000E+00 0. -1.
          1    1    1    2  502    0  0.20285333143E+02  0.44165529569E+01 -0.69895123673E+03  0.69925948832E+03  0.00000000000E+00 0. -1.
</event>
<event>
 4    1  0.3927513E+003  0.2493873E+02  0.7546771E-02  0.1469490E+00
          2   -1    0    0  502    0  0.00000000000E+00  0.00000000000E+00  0.98731234250E+03  0.98731234250E+03  0.00000000000E+00 0.  1.
          1   -1    0    0  501    0 -0.00000000000E+00 -0.00000000000E+00 -0.41229002859E+03  0.41229002859E+03  0.00000000000E+00 0. -1.
          2    1    1    2  501    0 -0.22261887884E+02 -0.11240500160E+02  0.98677752933E+03  0.98709261616E+03  0.00000000000E+00 0.  1.
          1    1    1    2  502    0  0.22261887884E+02  0.11240500160E+02 -0.41175521541E+03  0.41250975493E+03  0.00000000000E+00 0. -1.
</event>
<event>
 4    1  0.3927513E+003  0.4282193E+02  0.7546771E-02  0.1332698E+00
          2   -1    0    0  502    0  0.00000000000E+00  0.00000000000E+00  0.19129827464E+03  0.19129827464E+03  0.00000000000E+00 0.  1.
          1   -1    0    0  501    0 -0.00000000000E+00 -0.00000000000E+00 -0.10812541242E+04  0.10812541242E+04  0.00000000000E+00 0.  1.
          2    1    1    2  501    0 -0.27879671188E+02  0.32502945125E+02  0.18847160510E+03  0.19327509782E+03  0.00000000000E+00 0.  1.
          1    1    1    2  502    0  0.27879671188E+02 -0.32502945125E+02 -0.10784274546E+04  0.10792773010E+04  0.00000000000E+00 0.  1.
</event>
<event>
 4    1  0.3927513E+003  0.2295213E+02  0.7546771E-02  0.1493100E+00
          2   -1    0    0  502    0  0.00000000000E+00  0.00000000000E+00  0.10225733763E+04  0.10225733763E+04  0.00000000000E+00 0.  1.
          1   -1    0    0  501    0 -0.00000000000E+00 -0.00000000000E+00 -0.70674841643E+01  0.70674841643E+01  0.00000000000E+00 0.  1.
          2    1    1    2  501    0 -0.22950910457E+02  0.23674902948E+00  0.10034549425E+04  0.10037174014E+04  0.00000000000E+00 0.  1.
          1    1    1    2  502    0  0.22950910457E+02 -0.23674902948E+00  0.12050949658E+02  0.25923459039E+02  0.00000000000E+00 0.  1.
</event>
<event>
 4    1  0.3927513E+003  0.2307922E+02  0.7546771E-02  0.1491506E+00
          2   -1    0    0  502    0  0.00000000000E+00  0.00000000000E+00  0.39206807190E+02  0.39206807190E+02  0.00000000000E+00 0.  1.
          1   -1    0    0  501    0 -0.00000000000E+00 -0.00000000000E+00 -0.15975590594E+03  0.15975590594E+03  0.00000000000E+00 0.  1.
          2    1    1    2  501    0  0.20252891196E+02 -0.11066648630E+02  0.34882885842E+02  0.41826618778E+02  0.00000000000E+00 0.  1.
          1    1    1    2  502    0 -0.20252891196E+02  0.11066648630E+02 -0.15543198459E+03  0.15713609435E+03  0.00000000000E+00 0.  1.
</event>
<event>
 4    1  0.3927513E+003  0.2289365E+02  0.7546771E-02  0.1493838E+00
          2   -1    0    0  502    0  0.00000000000E+00  0.00000000000E+00  0.68485076540E+03  0.68485076540E+03  0.00000000000E+00 0. -1.
          1   -1    0    0  501    0 -0.00000000000E+00 -0.00000000000E+00 -0.10277437075E+02  0.10277437075E+02  0.00000000000E+00 0. -1.
          2    1    1    2  501    0  0.63658756322E+01 -0.21990793939E+02  0.67165985281E+03  0.67204990683E+03  0.00000000000E+00 0. -1.
          1    1    1    2  502    0 -0.63658756322E+01  0.21990793939E+02  0.29134755199E+01  0.23078295652E+02  0.00000000000E+00 0. -1.
</event>
<event>
 4    1  0.4906324E+003  0.3335878E+02  0.7546771E-02  0.1392484E+00
          2   -1    0    0  502    0  0.00000000000E+00  0.00000000000E+00  0.74066628164E+03  0.74066628164E+03  0.00000000000E+00 0.  1.
          1   -1    0    0  501    0 -0.00000000000E+00 -0.00000000000E+00 -0.11838645639E+04  0.11838645639E+04  0.00000000000E+00 0.  1.
          2    1    1    2  501    0  0.33358467037E+02  0.14516363550E+00  0.74005548233E+03  0.74080694200E+03  0.00000000000E+00 0.  1.
          1    1    1    2  502    0 -0.33358467037E+02 -0.14516363550E+00 -0.11832537645E+04  0.11837239035E+04  0.00000000000E+00 0.  1.
</event>
<event>
 4    1  0.3927513E+003  0.2119007E+02  0.7546771E-02  0.1516568E+00
          2   -1    0    0  502    0  0.00000000000E+00  0.00000000000E+00  0.20968769538E+04  0.20968769538E+04  0.00000000000E+00 0.  1.
          1   -1    0    0  501    0 -0.00000000000E+00 -0.00000000000E+00 -0.22382935887E+00  0.22382935887E+00  0.00000000000E+00 0.  1.
          2    1    1    2  501    0 -0.13278839997E+02 -0.16513360724E+02  0.83012976656E+03  0.83040017341E+03  0.00000000000E+00 0.  1.
          1    1    1    2  502    0  0.13278839997E+02  0.16513360724E+02  0.12665233579E+04  0.12667006097E+04  0.00000000000E+00 0.  1.
</event>
<event>
 4    1  0.3927513E+003  0.2171001E+02  0.7546771E-02  0.1509365E+00
          2   -1    0    0  502    0  0.00000000000E+00  0.00000000000E+00  0.77705168468E+02  0.77705168468E+02  0.00000000000E+00 0.  1.
          1   -1    0    0  501    0 -0.00000000000E+00 -0.00000000000E+00 -0.11914431783E+02  0.11914431783E+02  0.00000000000E+00 0. -1.
          2    1    1    2  501    0 -0.17393136985E+02 -0.12992425652E+02  0.64291264110E+02  0.67857873378E+02  0.00000000000E+00 0.  1.
          1    1    1    2  502    0  0.17393136985E+02  0.12992425652E+02  0.14994725749E+01  0.21761726873E+02  0.00000000000E+00 0. -1.
</event>
<event>
 4    1  0.3927513E+003  0.2820904E+02  0.7546771E-02  0.1435827E+00
          2   -1    0    0  502    0  0.00000000000E+00  0.00000000000E+00  0.12944067518E+03  0.12944067518E+03  0.00000000000E+00 0. -1.
          1   -1    0    0  501    0 -0.00000000000E+00 -0.00000000000E+00 -0.25455607377E+03  0.25455607377E+03  0.00000000000E+00 0. -1.
          2    1    1    2  501    0  0.16496788075E+02 -0.22882435969E+02  0.12710809776E+03  0.13020068513E+03  0.00000000000E+00 0. -1.
          1    1    1    2  502    0 -0.16496788075E+02  0.22882435969E+02 -0.25222349635E+03  0.25379606381E+03  0.00000000000E+00 0. -1.
</event>
<event>
 4    1  0.3927513E+003  0.3365218E+02  0.7546771E-02  0.1390295E+00
          2   -1    0    0  502    0  0.00000000000E+00  0.00000000000E+00  0.61602782665E+03  0.61602782665E+03  0.00000000000E+00 0. -1.
          1   -1    0    0  501    0 -0.00000000000E+00 -0.00000000000E+00 -0.86969198193E+01  0.86969198193E+01  0.00000000000E+00 0.  1.
          2    1    1    2  501    0  0.22019245015E+02  0.25448418210E+02  0.58105689102E+03  0.58203056599E+03  0.00000000000E+00 0. -1.
          1    1    1    2  502    0 -0.22019245015E+02 -0.25448418210E+02  0.26274015815E+02  0.42694180487E+02  0.00000000000E+00 0.  1.
</event>
<event>
 4    1  0.3927513E+003  0.2973824E+02  0.7546771E-02  0.1421885E+00
          2   -1    0    0  502    0  0.00000000000E+00  0.00000000000E+00  0.30102508964E+03  0.30102508964E+03  0.00000000000E+00 0. -1.
          1   -1    0    0  501    0 -0.00000000000E+00 -0.00000000000E+00 -0.16651781159E+02  0.16651781159E+02  0.00000000000E+00 0. -1.
          2    1    1    2  501    0  0.88557702151E-02  0.29738242376E+02  0.28633392224E+03  0.28787406650E+03  0.00000000000E+00 0. -1.
          1    1    1    2  502    0 -0.88557702151E-02 -0.29738242376E+02 -0.19606137557E+01  0.29802804303E+02  0.00000000000E+00 0. -1.
</event>
<event>
 4    1  0.3927513E+003  0.3024888E+02  0.7546771E-02  0.1417446E+00
          2   -1    0    0  502    0  0.00000000000E+00  0.00000000000E+00  0.13217646581E+02  0.13217646581E+02  0.00000000000E+00 0. -1.
          1   -1    0    0  501    0 -0.00000000000E+00 -0.00000000000E+00 -0.74322593400E+02  0.74322593400E+02  0.00000000000E+00 0.  1.
          2    1    1    2  501    0  0.22865109225E+02 -0.19803572013E+02 -0.19089694524E+02  0.35768856864E+02  0.00000000000E+00 0. -1.
          1    1    1    2  502    0 -0.22865109225E+02  0.19803572013E+02 -0.42015252295E+02  0.51771383116E+02  0.00000000000E+00 0.  1.
</event>
<event>
 4    1  0.3927513E+003  0.2266681E+02  0.7546771E-02  0.1496725E+00
          2   -1    0    0  502    0  0.00000000000E+00  0.00000000000E+00  0.13135411018E+03  0.13135411018E+03  0.00000000000E+00 0. -1.
          1   -1    0    0  501    0 -0.00000000000E+00 -0.00000000000E+00 -0.15012171673E+02  0.15012171673E+02  0.00000000000E+00 0. -1.
          2    1    1    2  501    0  0.21881397662E+02  0.59151267923E+01  0.12110202270E+03  0.12320504937E+03  0.00000000000E+00 0. -1.
          1    1    1    2  502    0 -0.21881397662E+02 -0.59151267923E+01 -0.47600841913E+01  0.23161232483E+02  0.00000000000E+00 0. -1.
</event>
<event>
 4    1  0.3927513E+003  0.3300081E+02  0.7546771E-02  0.1395190E+00
          2   -1    0    0  502    0  0.00000000000E+00  0.00000000000E+00  0.36943845468E+01  0.36943845468E+01  0.00000000000E+00 0. -1.
          1   -1    0    0  501    0 -0.00000000000E+00 -0.00000000000E+00 -0.37428671376E+03  0.37428671376E+03  0.00000000000E+00 0. -1.
          2    1    1    2  501    0  0.11919458930E+02  0.30773041663E+02 -0.98195225030E+02  0.10359225750E+03  0.00000000000E+00 0. -1.
          1    1    1    2  502    0 -0.11919458930E+02 -0.30773041663E+02 -0.27239710418E+03  0.27438884081E+03  0.00000000000E+00 0. -1.
</event>
<event>
 4    1  0.3927513E+003  0.2144867E+02  0.7546771E-02  0.1512954E+00
          2   -1    0    0  502    0  0.00000000000E+00  0.00000000000E+00  0.32776822659E+03  0.32776822659E+03  0.00000000000E+00 0.  1.
          1   -1    0    0  501    0 -0.00000000000E+00 -0.00000000000E+00 -0.54810680494E+02  0.54810680494E+02  0.00000000000E+00 0.  1.
          2    1    1    2  501    0  0.20991974119E+02  0.44025754981E+01  0.32530311089E+03  0.32600944710E+03  0.00000000000E+00 0.  1.
          1    1    1    2  502    0 -0.20991974119E+02 -0.44025754981E+01 -0.52345564794E+02  0.56569459976E+02  0.00000000000E+00 0.  1.
</event>
<event>
 4    1  0.3927513E+003  0.2104700E+02  0.7546771E-02  0.1518595E+00
          2   -1    0    0  502    0  0.00000000000E+00  0.00000000000E+00  0.12628405262E+04  0.12628405262E+04  0.00000000000E+00 0. -1.
          1   -1    0    0  501    0 -0.00000000000E+00 -0.00000000000E+00 -0.65733447262E+01  0.65733447262E+01  0.00000000000E+00 0.  1.
          2    1    1    2  501    0 -0.14018673466E+02  0.15698819707E+02  0.12456732238E+04  0.12458510170E+04  0.00000000000E+00 0. -1.
          1    1    1    2  502    0  0.14018673466E+02 -0.15698819707E+02  0.10593957730E+02  0.23562853951E+02  0.00000000000E+00 0.  1.
</event>
<event>
 4    1  0.3927513E+003  0.2099112E+02  0.7546771E-02  0.1519392E+00
          2   -1    0    0  502    0  0.00000000000E+00  0.00000000000E+00  0.37487902881E+01  0.37487902881E+01  0.00000000000E+00 0. -1.
          1   -1    0    0  501    0 -0.00000000000E+00 -0.00000000000E+00 -0.13302645969E+04  0.13302645969E+04  0.00000000000E+00 0. -1.
          2    1    1    2  501    0 -0.17063673010E+02 -0.12225311732E+02 -0.26400007635E+02  0.33728142354E+02  0.00000000000E+00 0. -1.
          1    1    1    2  502    0  0.17063673010E+02  0.12225311732E+02 -0.13001157990E+04  0.13002852448E+04  0.00000000000E+00 0. -1.
</event>
<event>
 4    1  0.3927513E+003  0.7992456E+02  0.7546771E-02  0.1204023E+00
          2   -1    0    0  502    0  0.00000000000E+00  0.00000000000E+00  0.19826097885E+04  0.19826097885E+04  0.00000000000E+00 0. -1.
          1   -1    0    0  501    0 -0.00000000000E+00 -0.00000000000E+00 -0.90580314278E+02  0.90580314278E+02  0.00000000000E+00 0.  1.
          2    1    1    2  501    0  0.79048210975E+02 -0.11803200119E+02  0.19640067820E+04  0.19656323601E+04  0.00000000000E+00 0. -1.
          1    1    1    2  502    0 -0.79048210975E+02  0.11803200119E+02 -0.71977307753E+02  0.10755774274E+03  0.00000000000E+00 0.  1.
</event>
<event>
 4    1  0.3927513E+003  0.2213333E+02  0.7546771E-02  0.1503677E+00
          2   -1    0    0  502    0  0.00000000000E+00  0.00000000000E+00  0.90427726608E+02  0.90427726608E+02  0.00000000000E+00 0. -1.
          1   -1    0    0  501    0 -0.00000000000E+00 -0.00000000000E+00 -0.97705998533E+01  0.97705998533E+01  0.00000000000E+00 0. -1.
          2    1    1    2  501    0  0.89753196591E+01  0.20231857776E+02  0.73769117335E+02  0.77017966115E+02  0.00000000000E+00 0. -1.
          1    1    1    2  502    0 -0.89753196591E+01 -0.20231857776E+02  0.68880094195E+01  0.23180360347E+02  0.00000000000E+00 0. -1.
</event>
<event>
 4    1  0.3927513E+003  0.3892749E+02  0.7546771E-02  0.1354888E+00
          2   -1    0    0  502    0  0.00000000000E+00  0.00000000000E+00  0.80196657022E+02  0.80196657022E+02  0.00000000000E+00 0.  1.
          1   -1    0    0  501    0 -0.00000000000E+00 -0.00000000000E+00 -0.20239308744E+02  0.20239308744E+02  0.00000000000E+00 0.  1.
          2    1    1    2  501    0  0.36194920352E+02 -0.14327502547E+02  0.42918932301E+02  0.57942940367E+02  0.00000000000E+00 0.  1.
          1    1    1    2  502    0 -0.36194920352E+02  0.14327502547E+02  0.17038415978E+02  0.42493025399E+02  0.00000000000E+00 0.  1.
</event>
<event>
 4    1  0.3927513E+003  0.4625946E+02  0.7546771E-02  0.1315259E+00
          2   -1    0    0  502    0  0.00000000000E+00  0.00000000000E+00  0.18257144839E+03  0.18257144839E+03  0.00000000000E+00 0. -1.
          1   -1    0    0  501    0 -0.00000000000E+00 -0.00000000000E+00 -0.12795784511E+02  0.12795784511E+02  0.00000000000E+00 0. -1.
          2    1    1    2  501    0  0.41988263674E+02  0.19414507127E+02  0.11319716804E+03  0.12228465246E+03  0.00000000000E+00 0. -1.
          1    1    1    2  502    0 -0.41988263674E+02 -0.19414507127E+02  0.56578495830E+02  0.73082580440E+02  0.00000000000E+00 0. -1.
</event>
<event>
 4    1  0.3927513E+003  0.2297986E+02  0.7546771E-02  0.1492751E+00
          2   -1    0    0  502    0  0.00000000000E+00  0.00000000000E+00  0.40891651510E+03  0.40891651510E+03  0.00000000000E+00 0.  1.
          1   -1    0    0  501    0 -0.00000000000E+00 -0.00000000000E+00 -0.79775654506E+02  0.79775654506E+02  0.00000000000E+00 0.  1.
          2    1    1    2  501    0  0.51610450921E-01 -0.22979804369E+02  0.40693072405E+03  0.40757905767E+03  0.00000000000E+00 0.  1.
          1    1    1    2  502    0 -0.51610450921E-01  0.22979804369E+02 -0.77789863455E+02  0.81113111941E+02  0.00000000000E+00 0.  1.
</event>
<event>
 4    1  0.3927513E+003  0.2121220E+02  0.7546771E-02  0.1516257E+00
          2   -1    0    0  502    0  0.00000000000E+00  0.00000000000E+00  0.61045567927E+00  0.61045567927E+00  0.00000000000E+00 0. -1.
          1   -1    0    0  501    0 -0.00000000000E+00 -0.00000000000E+00 -0.74814941462E+03  0.74814941462E+03  0.00000000000E+00 0. -1.
          2    1    1    2  501    0  0.19981508980E+02 -0.71201187130E+01 -0.41930104688E+03  0.41983725979E+03  0.00000000000E+00 0. -1.
          1    1    1    2  502    0 -0.19981508980E+02  0.71201187130E+01 -0.32823791205E+03  0.32892261050E+03  0.00000000000E+00 0. -1.
</event>
<event>
 4    1  0.3927513E+003  0.4771126E+02  0.7546771E-02  0.1308413E+00
          2   -1    0    0  502    0  0.00000000000E+00  0.00000000000E+00  0.14342470340E+03  0.14342470340E+03  0.00000000000E+00 0.  1.
          1   -1    0    0  501    0 -0.00000000000E+00 -0.00000000000E+00 -0.22280783795E+02  0.22280783795E+02  0.00000000000E+00 0.  1.
          2    1    1    2  501    0  0.10278771318E+02 -0.46590887127E+02  0.10500916272E+03  0.11533988104E+03  0.00000000000E+00 0.  1.
          1    1    1    2  502    0 -0.10278771318E+02  0.46590887127E+02  0.16134756876E+02  0.50365606147E+02  0.00000000000E+00 0.  1.
</event>
<event>
 4    1  0.3927513E+003  0.2373332E+02  0.7546771E-02  0.1483490E+00
          2   -1    0    0  502    0  0.00000000000E+00  0.00000000000E+00  0.91558195892E+00  0.91558195892E+00  0.00000000000E+00 0.  1.
          1   -1    0    0  501    0 -0.00000000000E+00 -0.00000000000E+00 -0.15597331179E+04  0.15597331179E+04  0.00000000000E+00 0.  1.
          2    1    1    2  501    0 -0.75933510258E+01  0.22485805311E+02 -0.17217277913E+03  0.17380085240E+03  0.00000000000E+00 0.  1.
          1    1    1    2  502    0  0.75933510258E+01 -0.22485805311E+02 -0.13866447569E+04  0.13868478475E+04  0.00000000000E+00 0.  1.
</event>
<event>
 4    1  0.3927513E+003  0.2451964E+02  0.7546771E-02  0.1474249E+00
          2   -1    0    0  502    0  0.00000000000E+00  0.00000000000E+00  0.88868805743E+03  0.88868805743E+03  0.00000000000E+00 0.  1.
          1   -1    0    0  501    0 -0.00000000000E+00 -0.00000000000E+00 -0.20619862280E+02  0.20619862280E+02  0.00000000000E+00 0. -1.
          2    1    1    2  501    0 -0.20038014005E+01  0.24437621445E+02  0.88116748740E+03  0.88150856684E+03  0.00000000000E+00 0.  1.
          1    1    1    2  502    0  0.20038014005E+01 -0.24437621445E+02 -0.13099292257E+02  0.27799352863E+02  0.00000000000E+00 0. -1.
</event>
<event>
 4    1  0.3927513E+003  0.2174165E+02  0.7546771E-02  0.1508934E+00
          2   -1    0    0  502    0  0.00000000000E+00  0.00000000000E+00  0.62738622587E+01  0.62738622587E+01  0.00000000000E+00 0. -1.
          1   -1    0    0  501    0 -0.00000000000E+00 -0.00000000000E+00 -0.16652428936E+03  0.16652428936E+03  0.00000000000E+00 0. -1.
          2    1    1    2  501    0 -0.20340954895E+01 -0.21646289228E+02 -0.16192930335E+02  0.27109230432E+02  0.00000000000E+00 0. -1.
          1    1    1    2  502    0  0.20340954895E+01  0.21646289228E+02 -0.14405749677E+03  0.14568892119E+03  0.00000000000E+00 0. -1.
</event>
<event>
 4    1  0.3927513E+003  0.2510051E+02  0.7546771E-02  0.1467682E+00
          2   -1    0    0  502    0  0.00000000000E+00  0.00000000000E+00  0.10691048609E+03  0.10691048609E+03  0.00000000000E+00 0.  1.
          1   -1    0    0  501    0 -0.00000000000E+00 -0.00000000000E+00 -0.94049757199E+01  0.94049757199E+01  0.00000000000E+00 0.  1.
          2    1    1    2  501    0 -0.22528318107E+02 -0.11068435702E+02  0.84291123945E+02  0.87949013420E+02  0.00000000000E+00 0.  1.
          1    1    1    2  502    0  0.22528318107E+02  0.11068435702E+02  0.13214386424E+02  0.28366448389E+02  0.00000000000E+00 0.  1.
</event>
<event>
 4    1  0.3927513E+003  0.3145955E+02  0.7546771E-02  0.1407323E+00
          2   -1    0    0  502    0  0.00000000000E+00  0.00000000000E+00  0.10281708413E+04  0.10281708413E+04  0.00000000000E+00 0.  1.
          1   -1    0    0  501    0 -0.00000000000E+00 -0.00000000000E+00 -0.70794099910E+01  0.70794099910E+01  0.00000000000E+00 0.  1.
          2    1    1    2  501    0  0.26414587403E+02  0.17087207990E+02  0.99169495125E+03  0.99219382151E+03  0.00000000000E+00 0.  1.
          1    1    1    2  502    0 -0.26414587403E+02 -0.17087207990E+02  0.29396480015E+02  0.43056429739E+02  0.00000000000E+00 0.  1.
</event>
<event>
 4    1  0.3927513E+003  0.4091303E+02  0.7546771E-02  0.1343217E+00
          2   -1    0    0  502    0  0.00000000000E+00  0.00000000000E+00  0.10806699329E+02  0.10806699329E+02  0.00000000000E+00 0. -1.
          1   -1    0    0  501    0 -0.00000000000E+00 -0.00000000000E+00 -0.20816779963E+03  0.20816779963E+03  0.00000000000E+00 0. -1.
          2    1    1    2  501    0 -0.28082238766E+02  0.29753384706E+02 -0.43292004525E+02  0.59565709022E+02  0.00000000000E+00 0. -1.
          1    1    1    2  502    0  0.28082238766E+02 -0.29753384706E+02 -0.15406909578E+03  0.15940878994E+03  0.00000000000E+00 0. -1.
</event>
<event>
 4    1  0.3927513E+003  0.2586603E+02  0.7546771E-02  0.1459344E+00
          2   -1    0    0  502    0  0.00000000000E+00  0.00000000000E+00  0.49103713907E+03  0.49103713907E+03  0.00000000000E+00 0.  1.
          1   -1    0    0  501    0 -0.00000000000E+00 -0.00000000000E+00 -0.14514100545E+03  0.14514100545E+03  0.00000000000E+00 0. -1.
          2    1    1    2  501    0 -0.45753060801E+01  0.25458164657E+02  0.48954057010E+03  0.49022344023E+03  0.00000000000E+00 0.  1.
          1    1    1    2  502    0  0.45753060801E+01 -0.25458164657E+02 -0.14364443649E+03  0.14595470430E+03  0.00000000000E+00 0. -1.
</event>
<event>
 4    1  0.3927513E+003  0.4468415E+02  0.7546771E-02  0.1323026E+00
          2   -1    0    0  502    0  0.00000000000E+00  0.00000000000E+00  0.48567709140E+03  0.48567709140E+03  0.00000000000E+00 0. -1.
          1   -1    0    0  501    0 -0.00000000000E+00 -0.00000000000E+00 -0.57712852981E+03  0.57712852981E+03  0.00000000000E+00 0. -1.
          2    1    1    2  501    0  0.18555491487E+02 -0.40649314832E+02  0.48378101369E+03  0.48584024357E+03  0.00000000000E+00 0. -1.
          1    1    1    2  502    0 -0.18555491487E+02  0.40649314832E+02 -0.57523245209E+03  0.57696537765E+03  0.00000000000E+00 0. -1.
</event>
<event>
 4    1  0.3927513E+003  0.2026815E+02  0.7546771E-02  0.1529975E+00
          2   -1    0    0  502    0  0.00000000000E+00  0.00000000000E+00  0.45512320855E+03  0.45512320855E+03  0.00000000000E+00 0.  1.
          1   -1    0    0  501    0 -0.00000000000E+00 -0.00000000000E+00 -0.16205145945E+02  0.16205145945E+02  0.00000000000E+00 0.  1.
          2    1    1    2  501    0 -0.19611257388E+02 -0.51182459608E+01  0.44846606973E+03  0.44892383937E+03  0.00000000000E+00 0.  1.
          1    1    1    2  502    0  0.19611257388E+02  0.51182459608E+01 -0.95480071207E+01  0.22404515126E+02  0.00000000000E+00 0.  1.
</event>
<event>
 4    1  0.3927513E+003  0.2451259E+02  0.7546771E-02  0.1474331E+00
          2   -1    0    0  502    0  0.00000000000E+00  0.00000000000E+00  0.94328999299E+03  0.94328999299E+03  0.00000000000E+00 0. -1.
          1   -1    0    0  501    0 -0.00000000000E+00 -0.00000000000E+00 -0.86432668982E+00  0.86432668982E+00  0.00000000000E+00 0. -1.
          2    1    1    2  501    0 -0.18891538460E+02  0.15619752367E+02  0.71332030269E+03  0.71374135449E+03  0.00000000000E+00 0. -1.
          1    1    1    2  502    0  0.18891538460E+02 -0.15619752367E+02  0.22910536361E+03  0.23041296518E+03  0.00000000000E+00 0. -1.
</event>
<event>
 4    1  0.3927513E+003  0.2890298E+02  0.7546771E-02  0.1429375E+00
          2   -1    0    0  502    0  0.00000000000E+00  0.00000000000E+00  0.27476091455E+03  0.27476091455E+03  0.00000000000E+00 0. -1.
          1   -1    0    0  501    0 -0.00000000000E+00 -0.00000000000E+00 -0.33972058547E+01  0.33972058547E+01  0.00000000000E+00 0. -1.
          2    1    1    2  501    0 -0.14151918585E+02 -0.25201299957E+02  0.18075506520E+03  0.18305129313E+03  0.00000000000E+00 0. -1.
          1    1    1    2  502    0  0.14151918585E+02  0.25201299957E+02  0.90608643490E+02  0.95106827275E+02  0.00000000000E+00 0. -1.
</event>
<event>
 4    1  0.3927513E+003  0.2195903E+02  0.7546771E-02  0.1506000E+00
          2   -1    0    0  502    0  0.00000000000E+00  0.00000000000E+00  0.22429278162E+02  0.22429278162E+02  0.00000000000E+00 0. -1.
          1   -1    0    0  501    0 -0.00000000000E+00 -0.00000000000E+00 -0.76471678799E+03  0.76471678799E+03  0.00000000000E+00 0.  1.
          2    1    1    2  501    0 -0.21321060562E+02  0.52546690902E+01  0.16857537155E+02  0.27683492006E+02  0.00000000000E+00 0. -1.
          1    1    1    2  502    0  0.21321060562E+02 -0.52546690902E+01 -0.75914504698E+03  0.75946257415E+03  0.00000000000E+00 0.  1.
</event>
<event>
 4    1  0.3927513E+003  0.2104544E+02  0.7546771E-02  0.1518617E+00
          2   -1    0    0  502    0  0.00000000000E+00  0.00000000000E+00  0.28477332830E+01  0.28477332830E+01  0.00000000000E+00 0. -1.
          1   -1    0    0  501    0 -0.00000000000E+00 -0.00000000000E+00 -0.27329903086E+03  0.27329903086E+03  0.00000000000E+00 0. -1.
          2    1    1    2  501    0 -0.20797084015E+01 -0.20942431088E+02 -0.44588809506E+02  0.49305907761E+02  0.00000000000E+00 0. -1.
          1    1    1    2  502    0  0.20797084015E+01  0.20942431088E+02 -0.22586248807E+03  0.22684085638E+03  0.00000000000E+00 0. -1.
</event>
<event>
 4    1  0.3927513E+003  0.2098792E+02  0.7546771E-02  0.1519437E+00
          2   -1    0    0  502    0  0.00000000000E+00  0.00000000000E+00  0.20499957491E+03  0.20499957491E+03  0.00000000000E+00 0.  1.
          1   -1    0    0  501    0 -0.00000000000E+00 -0.00000000000E+00 -0.15633243811E+02  0.15633243811E+02  0.00000000000E+00 0. -1.
          2    1    1    2  501    0 -0.14565684513E+02  0.15110710285E+02  0.19713810469E+03  0.19825217540E+03  0.00000000000E+00 0.  1.
          1    1    1    2  502    0  0.14565684513E+02 -0.15110710285E+02 -0.77717735910E+01  0.22380643319E+02  0.00000000000E+00 0. -1.
</event>
<event>
 4    1  0.3927513E+003  0.6532697E+02  0.7546771E-02  0.1242734E+00
          2   -1    0    0  502    0  0.00000000000E+00  0.00000000000E+00  0.76237862849E+03  0.76237862849E+03  0.00000000000E+00 0.  1.
          1   -1    0    0  501    0 -0.00000000000E+00 -0.00000000000E+00 -0.11173054621E+04  0.11173054621E+04  0.00000000000E+00 0.  1.
          2    1    1    2  501    0  0.34559916962E+02 -0.55436671926E+02  0.76002134292E+03  0.76282373727E+03  0.00000000000E+00 0.  1.
          1    1    1    2  502    0 -0.34559916962E+02  0.55436671926E+02 -0.11149481766E+04  0.11168603533E+04  0.00000000000E+00 0.  1.
</event>
<event>
 4    1  0.3927513E+003  0.2902166E+02  0.7546771E-02  0.1428293E+00
          2   -1    0    0  502    0  0.00000000000E+00  0.00000000000E+00  0.20495420423E+03  0.20495420423E+03  0.00000000000E+00 0.  1.
          1   -1    0    0  501    0 -0.00000000000E+00 -0.00000000000E+00 -0.22620936551E+03  0.22620936551E+03  0.00000000000E+00 0.  1.
          2    1    1    2  501    0 -0.15224614427E+02 -0.24707652463E+02  0.20298701891E+03  0.20505118098E+03  0.00000000000E+00 0.  1.
          1    1    1    2  502    0  0.15224614427E+02  0.24707652463E+02 -0.22424218020E+03  0.22611238877E+03  0.00000000000E+00 0.  1.
</event>
<event>
 4    1  0.3927513E+003  0.3676687E+02  0.7546771E-02  0.1368550E+00
          2   -1    0    0  502    0  0.00000000000E+00  0.00000000000E+00  0.64769413480E+03  0.64769413480E+03  0.00000000000E+00 0. -1.
          1   -1    0    0  501    0 -0.00000000000E+00 -0.00000000000E+00 -0.28071139026E+01  0.28071139026E+01  0.00000000000E+00 0. -1.
          2    1    1    2  501    0  0.33852543272E+02  0.14345965189E+02  0.15771869108E+03  0.16194748197E+03  0.00000000000E+00 0. -1.
          1    1    1    2  502    0 -0.33852543272E+02 -0.14345965189E+02  0.48716832983E+03  0.48855376673E+03  0.00000000000E+00 0. -1.
</event>
<event>
 4    1  0.3927513E+003  0.3571992E+02  0.7546771E-02  0.1375571E+00
          2   -1    0    0  502    0  0.00000000000E+00  0.00000000000E+00  0.15214347717E+04  0.15214347717E+04  0.00000000000E+00 0.  1.
          1   -1    0    0  501    0 -0.00000000000E+00 -0.00000000000E+00 -0.85546412940E+00  0.85546412940E+00  0.00000000000E+00 0.  1.
          2    1    1    2  501    0 -0.28155873629E+00 -0.35718796992E+02  0.65349755843E+03  0.65447304804E+03  0.00000000000E+00 0.  1.
          1    1    1    2  502    0  0.28155873629E+00  0.35718796992E+02  0.86708174916E+03  0.86781718781E+03  0.00000000000E+00 0.  1.
</event>
<event>
 4    1  0.3927513E+003  0.2247108E+02  0.7546771E-02  0.1499249E+00
          2   -1    0    0  502    0  0.00000000000E+00  0.00000000000E+00  0.51856198251E+02  0.51856198251E+02  0.00000000000E+00 0.  1.
          1   -1    0    0  501    0 -0.00000000000E+00 -0.00000000000E+00 -0.14980767693E+04  0.14980767693E+04  0.00000000000E+00 0. -1.
          2    1    1    2  501    0 -0.19648778542E+02  0.10902983619E+02  0.49333451675E+02  0.54210137467E+02  0.00000000000E+00 0.  1.
          1    1    1    2  502    0  0.19648778542E+02 -0.10902983619E+02 -0.14955540228E+04  0.14957228301E+04  0.00000000000E+00 0. -1.
</event>
<event>
 4    1  0.3927513E+003  0.2824230E+02  0.7546771E-02  0.1435513E+00
          2   -1    0    0  502    0  0.00000000000E+00  0.00000000000E+00  0.12907123042E+04  0.12907123042E+04  0.00000000000E+00 0. -1.
          1   -1    0    0  501    0 -0.00000000000E+00 -0.00000000000E+00 -0.63472047785E+01  0.63472047785E+01  0.00000000000E+00 0. -1.
          2    1    1    2  501    0  0.20670574884E+02 -0.19244600295E+02  0.12583330281E+04  0.12586499262E+04  0.00000000000E+00 0. -1.
          1    1    1    2  502    0 -0.20670574884E+02  0.19244600295E+02  0.26032071339E+02  0.38409582720E+02  0.00000000000E+00 0. -1.
</event>
<event>
 4    1  0.3927513E+003  0.2162606E+02  0.7546771E-02  0.1510511E+00
          2   -1    0    0  502    0  0.00000000000E+00  0.00000000000E+00  0.22210114704E+01  0.22210114704E+01  0.00000000000E+00 0. -1.
          1   -1    0    0  501    0 -0.00000000000E+00 -0.00000000000E+00 -0.28769191780E+03  0.28769191780E+03  0.00000000000E+00 0. -1.
          2    1    1    2  501    0 -0.92271170864E+01 -0.19558802049E+02 -0.67685146223E+02  0.71056072552E+02  0.00000000000E+00 0. -1.
          1    1    1    2  502    0  0.92271170864E+01  0.19558802049E+02 -0.21778576011E+03  0.21885685672E+03  0.00000000000E+00 0. -1.
</event>
<event>
 4    1  0.3927513E+003  0.5909203E+02  0.7546771E-02  0.1262949E+00
          2   -1    0    0  502    0  0.00000000000E+00  0.00000000000E+00  0.17342717319E+02  0.17342717319E+02  0.00000000000E+00 0. -1.
          1   -1    0    0  501    0 -0.00000000000E+00 -0.00000000000E+00 -0.44770052941E+03  0.44770052941E+03  0.00000000000E+00 0. -1.
          2    1    1    2  501    0  0.28958566248E+02  0.51509902192E+02 -0.42694140763E+02  0.72901702576E+02  0.00000000000E+00 0. -1.
          1    1    1    2  502    0 -0.28958566248E+02 -0.51509902192E+02 -0.38766367133E+03  0.39214154415E+03  0.00000000000E+00 0. -1.
</event>
<event>
 4    1  0.3927513E+003  0.3391022E+02  0.7546771E-02  0.1388391E+00
          2   -1    0    0  502    0  0.00000000000E+00  0.00000000000E+00  0.11768861775E+02  0.11768861775E+02  0.00000000000E+00 0. -1.
          1   -1    0    0  501    0 -0.00000000000E+00 -0.00000000000E+00 -0.12977645849E+04  0.12977645849E+04  0.00000000000E+00 0.  1.
          2    1    1    2  501    0  0.39044186060E+01 -0.33684689060E+02 -0.13361727512E+02  0.36447750600E+02  0.00000000000E+00 0. -1.
          1    1    1    2  502    0 -0.39044186060E+01  0.33684689060E+02 -0.12726339956E+04  0.12730856961E+04  0.00000000000E+00 0.  1.
</event>
<event>
 4    1  0.3927513E+003  0.6700224E+02  0.7546771E-02  0.1237734E+00
          2   -1    0    0  502    0  0.00000000000E+00  0.00000000000E+00  0.21125886038E+03  0.21125886038E+03  0.00000000000E+00 0.  1.
          1   -1    0    0  501    0 -0.00000000000E+00 -0.00000000000E+00 -0.19799842379E+03  0.19799842379E+03  0.00000000000E+00 0.  1.
          2    1    1    2  501    0  0.81028939190E+01 -0.66510478636E+02  0.19996635694E+03  0.21089296946E+03  0.00000000000E+00 0.  1.
          1    1    1    2  502    0 -0.81028939190E+01  0.66510478636E+02 -0.18670592035E+03  0.19836431471E+03  0.00000000000E+00 0.  1.
</event>
<event>
 4    1  0.3927513E+003  0.4777146E+02  0.7546771E-02  0.1308135E+00
          2   -1    0    0  502    0  0.00000000000E+00  0.00000000000E+00  0.15893040714E+02  0.15893040714E+02  0.00000000000E+00 0.  1.
          1   -1    0    0  501    0 -0.00000000000E+00 -0.00000000000E+00 -0.14433846787E+03  0.14433846787E+03  0.00000000000E+00 0.  1.
          2    1    1    2  501    0 -0.34781877853E+02 -0.32746496022E+02 -0.58460897247E+02  0.75496943883E+02  0.00000000000E+00 0.  1.
          1    1    1    2  502    0  0.34781877853E+02  0.32746496022E+02 -0.69984529911E+02  0.84734564704E+02  0.00000000000E+00 0.  1.
</event>
<event>
 4    1  0.3927513E+003  0.2383230E+02  0.7546771E-02  0.1482303E+00
          2   -1    0    0  502    0  0.00000000000E+00  0.00000000000E+00  0.39253440653E+01  0.39253440653E+01  0.00000000000E+00 0. -1.
          1   -1    0    0  501    0 -0.00000000000E+00 -0.00000000000E+00 -0.23164711353E+03  0.23164711353E+03  0.00000000000E+00 0.  1.
          2    1    1    2  501    0  0.20715019339E+02  0.11784158412E+02 -0.41696874259E+02  0.48027156263E+02  0.00000000000E+00 0. -1.
          1    1    1    2  502    0 -0.20715019339E+02 -0.11784158412E+02 -0.18602489521E+03  0.18754530134E+03  0.00000000000E+00 0.  1.
</event>
<event>
 4    1  0.3927513E+003  0.2447887E+02  0.7546771E-02  0.1474718E+00
          2   -1    0    0  502    0  0.00000000000E+00  0.00000000000E+00  0.68388557065E+01  0.68388557065E+01  0.00000000000E+00 0.  1.
          1   -1    0    0  501    0 -0.00000000000E+00 -0.00000000000E+00 -0.34157873482E+03  0.34157873482E+03  0.00000000000E+00 0. -1.
          2    1    1    2  501    0  0.74034709786E+01  0.23332461548E+02 -0.17157148307E+02  0.29892856713E+02  0.00000000000E+00 0.  1.
          1    1    1    2  502    0 -0.74034709786E+01 -0.23332461548E+02 -0.31758273081E+03  0.31852473381E+03  0.00000000000E+00 0. -1.
</event>
<event>
 4    1  0.3927513E+003  0.2382127E+02  0.7546771E-02  0.1482435E+00
          2   -1    0    0  502    0  0.00000000000E+00  0.00000000000E+00  0.68675940674E+02  0.68675940674E+02  0.00000000000E+00 0.  1.
          1   -1    0    0  501    0 -0.00000000000E+00 -0.00000000000E+00 -0.92651052970E+01  0.92651052970E+01  0.00000000000E+00 0. -1.
          2    1    1    2  501    0  0.20030138168E+02 -0.12893653318E+02  0.42523409798E+02  0.48741082382E+02  0.00000000000E+00 0.  1.
          1    1    1    2  502    0 -0.20030138168E+02  0.12893653318E+02  0.16887425579E+02  0.29199963589E+02  0.00000000000E+00 0. -1.
</event>
<event>
 4    1  0.3927513E+003  0.2055832E+02  0.7546771E-02  0.1525665E+00
          2   -1    0    0  502    0  0.00000000000E+00  0.00000000000E+00  0.15126206460E+04  0.15126206460E+04  0.00000000000E+00 0.  1.
          1   -1    0    0  501    0 -0.00000000000E+00 -0.00000000000E+00 -0.57156814685E+01  0.57156814685E+01  0.00000000000E+00 0. -1.
          2    1    1    2  501    0 -0.11865112662E+02 -0.16788794753E+02  0.14938321130E+04  0.14939735695E+04  0.00000000000E+00 0.  1.
          1    1    1    2  502    0  0.11865112662E+02  0.16788794753E+02  0.13072851486E+02  0.24362757925E+02  0.00000000000E+00 0. -1.
</event>
<event>
 4    1  0.3927513E+003  0.2812752E+02  0.7546771E-02  0.1436599E+00
          2   -1    0    0  502    0  0.00000000000E+00  0.00000000000E+00  0.45279852336E+03  0.45279852336E+03  0.00000000000E+00 0. -1.
          1   -1    0    0  501    0 -0.00000000000E+00 -0.00000000000E+00 -0.59085407703E+01  0.59085407703E+01  0.00000000000E+00 0.  1.
          2    1    1    2  501    0 -0.19689512354E+02  0.20086820843E+02  0.41592195725E+03  0.41687196090E+03  0.00000000000E+00 0. -1.
          1    1    1    2  502    0  0.19689512354E+02 -0.20086820843E+02  0.30968025344E+02  0.41835103227E+02  0.00000000000E+00 0.  1.
</event>
<event>
 4    1  0.3927513E+003  0.4679594E+02  0.7546771E-02  0.1312696E+00
          2   -1    0    0  502    0  0.00000000000E+00  0.00000000000E+00  0.18827802709E+02  0.18827802709E+02  0.00000000000E+00 0.  1.
          1   -1    0    0  501    0 -0.00000000000E+00 -0.00000000000E+00 -0.65898865453E+03  0.65898865453E+03  0.00000000000E+00 0.  1.
          2    1    1    2  501    0 -0.42646789065E+02 -0.19264242797E+02 -0.12531256552E+02  0.48444732003E+02  0.00000000000E+00 0.  1.
          1    1    1    2  502    0  0.42646789065E+02  0.19264242797E+02 -0.62762959527E+03  0.62937172523E+03  0.00000000000E+00 0.  1.
</event>
<event>
 4    1  0.3927513E+003  0.3066712E+02  0.7546771E-02  0.1413886E+00
          2   -1    0    0  502    0  0.00000000000E+00  0.00000000000E+00  0.30230158775E+03  0.30230158775E+03  0.00000000000E+00 0. -1.
          1   -1    0    0  501    0 -0.00000000000E+00 -0.00000000000E+00 -0.10225336055E+02  0.10225336055E+02  0.00000000000E+00 0. -1.
          2    1    1    2  501    0  0.31669460560E+01 -0.30503157686E+02  0.27638020046E+03  0.27807640566E+03  0.00000000000E+00 0. -1.
          1    1    1    2  502    0 -0.31669460560E+01  0.30503157686E+02  0.15696051229E+02  0.34450518142E+02  0.00000000000E+00 0. -1.
</event>
<event>
 4    1  0.3927513E+003  0.2890138E+02  0.7546771E-02  0.1429390E+00
          2   -1    0    0  502    0  0.00000000000E+00  0.00000000000E+00  0.15383534203E+03  0.15383534203E+03  0.00000000000E+00 0.  1.
          1   -1    0    0  501    0 -0.00000000000E+00 -0.00000000000E+00 -0.15964245177E+03  0.15964245177E+03  0.00000000000E+00 0. -1.
          2    1    1    2  501    0 -0.17788993489E+02  0.22778097573E+02  0.15114677794E+03  0.15388514711E+03  0.00000000000E+00 0.  1.
          1    1    1    2  502    0  0.17788993489E+02 -0.22778097573E+02 -0.15695388768E+03  0.15959264669E+03  0.00000000000E+00 0. -1.
</event>
<event>
 4    1  0.3927513E+003  0.2142742E+02  0.7546771E-02  0.1513249E+00
          2   -1    0    0  502    0  0.00000000000E+00  0.00000000000E+00  0.98056326789E+03  0.98056326789E+03  0.00000000000E+00 0. -1.
          1   -1    0    0  501    0 -0.00000000000E+00 -0.00000000000E+00 -0.37759942811E+03  0.37759942811E+03  0.00000000000E+00 0.  1.
          2    1    1    2  501    0  0.11976249317E+02 -0.17768059314E+02  0.98014209591E+03  0.98037628626E+03  0.00000000000E+00 0. -1.
          1    1    1    2  502    0 -0.11976249317E+02  0.17768059314E+02 -0.37717825613E+03  0.37778640973E+03  0.00000000000E+00 0.  1.
</event>
<event>
 4    1  0.3927513E+003  0.2179323E+02  0.7546771E-02  0.1508234E+00
          2   -1    0    0  502    0  0.00000000000E+00  0.00000000000E+00  0.11723599766E+03  0.11723599766E+03  0.00000000000E+00 0. -1.
          1   -1    0    0  501    0 -0.00000000000E+00 -0.00000000000E+00 -0.12409486950E+02  0.12409486950E+02  0.00000000000E+00 0.  1.
          2    1    1    2  501    0 -0.73440920438E+01  0.20518510199E+02  0.10561298960E+03  0.10783806620E+03  0.00000000000E+00 0. -1.
          1    1    1    2  502    0  0.73440920438E+01 -0.20518510199E+02 -0.78647889144E+00  0.21807418412E+02  0.00000000000E+00 0.  1.
</event>
<event>
 4    1  0.3927513E+003  0.2072934E+02  0.7546771E-02  0.1523164E+00
          2   -1    0    0  502    0  0.00000000000E+00  0.00000000000E+00  0.23358652278E+03  0.23358652278E+03  0.00000000000E+00 0. -1.
          1   -1    0    0  501    0 -0.00000000000E+00 -0.00000000000E+00 -0.14728487668E+03  0.14728487668E+03  0.00000000000E+00 0. -1.
          2    1    1    2  501    0 -0.63297396367E+01 -0.19739301355E+02  0.23239350763E+03  0.23331619749E+03  0.00000000000E+00 0. -1.
          1    1    1    2  502    0  0.63297396367E+01  0.19739301355E+02 -0.14609186154E+03  0.14755520197E+03  0.00000000000E+00 0. -1.
</event>
<event>
 4    1  0.3927513E+003  0.3847723E+02  0.7546771E-02  0.1357648E+00
          2   -1    0    0  502    0  0.00000000000E+00  0.00000000000E+00  0.21357011016E+03  0.21357011016E+03  0.00000000000E+00 0.  1.
          1   -1    0    0  501    0 -0.00000000000E+00 -0.00000000000E+00 -0.10726586364E+02  0.10726586364E+02  0.00000000000E+00 0.  1.
          2    1    1    2  501    0  0.32364321434E+02  0.20809801002E+02  0.16812340524E+03  0.17247021920E+03  0.00000000000E+00 0.  1.
          1    1    1    2  502    0 -0.32364321434E+02 -0.20809801002E+02  0.34720118551E+02  0.51826477324E+02  0.00000000000E+00 0.  1.
</event>
<event>
 4    1  0.3927513E+003  0.3726316E+02  0.7546771E-02  0.1365316E+00
          2   -1    0    0  502    0  0.00000000000E+00  0.00000000000E+00  0.83450451583E+02  0.83450451583E+02  0.00000000000E+00 0. -1.
          1   -1    0    0  501    0 -0.00000000000E+00 -0.00000000000E+00 -0.40943052276E+03  0.40943052276E+03  0.00000000000E+00 0.  1.
          2    1    1    2  501    0  0.29855803867E+02  0.22297401427E+02  0.78390880112E+02  0.86796735075E+02  0.00000000000E+00 0. -1.
          1    1    1    2  502    0 -0.29855803867E+02 -0.22297401427E+02 -0.40437095129E+03  0.40608423927E+03  0.00000000000E+00 0.  1.
</event>
<event>
 4    1  0.3927513E+003  0.5117562E+02  0.7546771E-02  0.1293154E+00
          2   -1    0    0  502    0  0.00000000000E+00  0.00000000000E+00  0.27132858364E+03  0.27132858364E+03  0.00000000000E+00 0. -1.
          1   -1    0    0  501    0 -0.00000000000E+00 -0.00000000000E+00 -0.12781527998E+02  0.12781527998E+02  0.00000000000E+00 0. -1.
          2    1    1    2  501    0 -0.47489940589E+02  0.19069586632E+02  0.19956202252E+03  0.20601928168E+03  0.00000000000E+00 0. -1.
          1    1    1    2  502    0  0.47489940589E+02 -0.19069586632E+02  0.58985033126E+02  0.78090829964E+02  0.00000000000E+00 0. -1.
</event>
<event>
 4    1  0.3927513E+003  0.2918087E+02  0.7546771E-02  0.1426851E+00
          2   -1    0    0  502    0  0.00000000000E+00  0.00000000000E+00  0.26936884085E+02  0.26936884085E+02  0.00000000000E+00 0.  1.
          1   -1    0    0  501    0 -0.00000000000E+00 -0.00000000000E+00 -0.92137258994E+03  0.92137258994E+03  0.00000000000E+00 0.  1.
          2    1    1    2  501    0 -0.28306692566E+02 -0.70890218701E+01  0.18731898225E+02  0.34675742043E+02  0.00000000000E+00 0.  1.
          1    1    1    2  502    0  0.28306692566E+02  0.70890218701E+01 -0.91316760408E+03  0.91363373198E+03  0.00000000000E+00 0.  1.
</event>
<event>
 4    1  0.3927513E+003  0.2910096E+02  0.7546771E-02  0.1427573E+00
          2   -1    0    0  502    0  0.00000000000E+00  0.00000000000E+00  0.10573340803E+04  0.10573340803E+04  0.00000000000E+00 0. -1.
          1   -1    0    0  501    0 -0.00000000000E+00 -0.00000000000E+00 -0.30618235629E+01  0.30618235629E+01  0.00000000000E+00 0. -1.
          2    1    1    2  501    0  0.11308410964E+02 -0.26813906248E+02  0.98273920546E+03  0.98316998107E+03  0.00000000000E+00 0. -1.
          1    1    1    2  502    0 -0.11308410964E+02  0.26813906248E+02  0.71533051316E+02  0.77225922833E+02  0.00000000000E+00 0. -1.
</event>
<event>
 4    1  0.3927513E+003  0.2136418E+02  0.7546771E-02  0.1514128E+00
          2   -1    0    0  502    0  0.00000000000E+00  0.00000000000E+00  0.57186864933E+01  0.57186864933E+01  0.00000000000E+00 0.  1.
          1   -1    0    0  501    0 -0.00000000000E+00 -0.00000000000E+00 -0.47435429263E+03  0.47435429263E+03  0.00000000000E+00 0.  1.
          2    1    1    2  501    0  0.95973950269E+01 -0.19087125218E+02 -0.15404673411E+02  0.26338798441E+02  0.00000000000E+00 0.  1.
          1    1    1    2  502    0 -0.95973950269E+01  0.19087125218E+02 -0.45323093272E+03  0.45373418068E+03  0.00000000000E+00 0.  1.
</event>
<event>
 4    1  0.3927513E+003  0.2098611E+02  0.7546771E-02  0.1519463E+00
          2   -1    0    0  502    0  0.00000000000E+00  0.00000000000E+00  0.12022823431E+02  0.12022823431E+02  0.00000000000E+00 0.  1.
          1   -1    0    0  501    0 -0.00000000000E+00 -0.00000000000E+00 -0.41670248685E+02  0.41670248685E+02  0.00000000000E+00 0.  1.
          2    1    1    2  501    0 -0.20962585215E+02 -0.99308880566E+00 -0.24159025152E+02  0.32001167175E+02  0.00000000000E+00 0.  1.
          1    1    1    2  502    0  0.20962585215E+02  0.99308880566E+00 -0.54884001026E+01  0.21691904941E+02  0.00000000000E+00 0.  1.
</event>
<event>
 4    1  0.3927513E+003  0.2377176E+02  0.7546771E-02  0.1483028E+00
          2   -1    0    0  502    0  0.00000000000E+00  0.00000000000E+00  0.49687588218E+01  0.49687588218E+01  0.00000000000E+00 0. -1.
          1   -1    0    0  501    0 -0.00000000000E+00 -0.00000000000E+00 -0.18369332987E+03  0.18369332987E+03  0.00000000000E+00 0. -1.
          2    1    1    2  501    0 -0.22603408631E+02  0.73608849327E+01 -0.31146155782E+02  0.39181369664E+02  0.00000000000E+00 0. -1.
          1    1    1    2  502    0  0.22603408631E+02 -0.73608849327E+01 -0.14757841526E+03  0.14948071902E+03  0.00000000000E+00 0. -1.
</event>
<event>
 4    1  0.3927513E+003  0.2908492E+02  0.7546771E-02  0.1427719E+00
          2   -1    0    0  502    0  0.00000000000E+00  0.00000000000E+00  0.34081450526E+03  0.34081450526E+03  0.00000000000E+00 0.  1.
          1   -1    0    0  501    0 -0.00000000000E+00 -0.00000000000E+00 -0.47222087625E+01  0.47222087625E+01  0.00000000000E+00 0. -1.
          2    1    1    2  501    0  0.28243067966E+02  0.69470690057E+01  0.28704068577E+03  0.28851046418E+03  0.00000000000E+00 0.  1.
          1    1    1    2  502    0 -0.28243067966E+02 -0.69470690057E+01  0.49051610735E+02  0.57026249847E+02  0.00000000000E+00 0. -1.
</event>
<event>
 4    1  0.3927513E+003  0.2593747E+02  0.7546771E-02  0.1458584E+00
          2   -1    0    0  502    0  0.00000000000E+00  0.00000000000E+00  0.22469661913E+03  0.22469661913E+03  0.00000000000E+00 0.  1.
          1   -1    0    0  501    0 -0.00000000000E+00 -0.00000000000E+00 -0.10429771985E+02  0.10429771985E+02  0.00000000000E+00 0. -1.
          2    1    1    2  501    0 -0.25951849912E+01  0.25807315444E+02  0.20639829828E+03  0.20802165764E+03  0.00000000000E+00 0.  1.
          1    1    1    2  502    0  0.25951849912E+01 -0.25807315444E+02  0.78685488688E+01  0.27104733477E+02  0.00000000000E+00 0. -1.
</event>
<event>
 4    1  0.3927513E+003  0.2294861E+02  0.7546771E-02  0.1493145E+00
          2   -1    0    0  502    0  0.00000000000E+00  0.00000000000E+00  0.12890439000E+02  0.12890439000E+02  0.00000000000E+00 0.  1.
          1   -1    0    0  501    0 -0.00000000000E+00 -0.00000000000E+00 -0.18479831559E+03  0.18479831559E+03  0.00000000000E+00 0.  1.
          2    1    1    2  501    0  0.22913724634E+02 -0.12648271514E+01  0.12826663868E+01  0.22984425104E+02  0.00000000000E+00 0.  1.
          1    1    1    2  502    0 -0.22913724634E+02  0.12648271514E+01 -0.17319054297E+03  0.17470432948E+03  0.00000000000E+00 0.  1.
</event>
<event>
 4    1  0.3927513E+003  0.3099560E+02  0.7546771E-02  0.1411137E+00
          2   -1    0    0  502    0  0.00000000000E+00  0.00000000000E+00  0.17612935612E+04  0.17612935612E+04  0.00000000000E+00 0. -1.
          1   -1    0    0  501    0 -0.00000000000E+00 -0.00000000000E+00 -0.38738637574E+02  0.38738637574E+02  0.00000000000E+00 0.  1.
          2    1    1    2  501    0  0.12277505586E+02 -0.28460323157E+02  0.17549346732E+04  0.17552083735E+04  0.00000000000E+00 0. -1.
          1    1    1    2  502    0 -0.12277505586E+02  0.28460323157E+02 -0.32379749534E+02  0.44823825334E+02  0.00000000000E+00 0.  1.
</event>
<event>
 4    1  0.3927513E+003  0.2301319E+02  0.7546771E-02  0.1492333E+00
          2   -1    0    0  502    0  0.00000000000E+00  0.00000000000E+00  0.69683251922E+03  0.69683251922E+03  0.00000000000E+00 0.  1.
          1   -1    0    0  501    0 -0.00000000000E+00 -0.00000000000E+00 -0.28812272632E+01  0.28812272632E+01  0.00000000000E+00 0.  1.
          2    1    1    2  501    0  0.12492087984E+02 -0.19327556244E+02  0.64716355749E+03  0.64757260352E+03  0.00000000000E+00 0.  1.
          1    1    1    2  502    0 -0.12492087984E+02  0.19327556244E+02  0.46787734475E+02  0.52141142966E+02  0.00000000000E+00 0.  1.
</event>
<event>
 4    1  0.3927513E+003  0.3411867E+02  0.7546771E-02  0.1386867E+00
          2   -1    0    0  502    0  0.00000000000E+00  0.00000000000E+00  0.95587075939E+02  0.95587075939E+02  0.00000000000E+00 0. -1.
          1   -1    0    0  501    0 -0.00000000000E+00 -0.00000000000E+00 -0.55907303488E+03  0.55907303488E+03  0.00000000000E+00 0.  1.
          2    1    1    2  501    0  0.23839816287E+02  0.24407925623E+02  0.92002341625E+02  0.98124994462E+02  0.00000000000E+00 0. -1.
          1    1    1    2  502    0 -0.23839816287E+02 -0.24407925623E+02 -0.55548830057E+03  0.55653511636E+03  0.00000000000E+00 0.  1.
</event>
<event>
 4    1  0.3927513E+003  0.2401805E+02  0.7546771E-02  0.1480095E+00
          2   -1    0    0  502    0  0.00000000000E+00  0.00000000000E+00  0.10454832734E+02  0.10454832734E+02  0.00000000000E+00 0.  1.
          1   -1    0    0  501    0 -0.00000000000E+00 -0.00000000000E+00 -0.16379590900E+04  0.16379590900E+04  0.00000000000E+00 0.  1.
          2    1    1    2  501    0  0.21075775873E+02 -0.11518609669E+02 -0.35463962477E+01  0.24278460077E+02  0.00000000000E+00 0.  1.
          1    1    1    2  502    0 -0.21075775873E+02  0.11518609669E+02 -0.16239578610E+04  0.16241354627E+04  0.00000000000E+00 0.  1.
</event>
<event>
 4    1  0.3927513E+003  0.2945231E+02  0.7546771E-02  0.1424416E+00
          2   -1    0    0  502    0  0.00000000000E+00  0.00000000000E+00  0.19420334099E+03  0.19420334099E+03  0.00000000000E+00 0.  1.
          1   -1    0    0  501    0 -0.00000000000E+00 -0.00000000000E+00 -0.55115952714E+03  0.55115952714E+03  0.00000000000E+00 0.  1.
          2    1    1    2  501    0 -0.29352790635E+02  0.24191717466E+01  0.19269014521E+03  0.19492801433E+03  0.00000000000E+00 0.  1.
          1    1    1    2  502    0  0.29352790635E+02 -0.24191717466E+01 -0.54964633136E+03  0.55043485381E+03  0.00000000000E+00 0.  1.
</event>
<event>
 4    1  0.3927513E+003  0.3048905E+02  0.7546771E-02  0.1415393E+00
          2   -1    0    0  502    0  0.00000000000E+00  0.00000000000E+00  0.76555597073E+03  0.76555597073E+03  0.00000000000E+00 0. -1.
          1   -1    0    0  501    0 -0.00000000000E+00 -0.00000000000E+00 -0.36882229397E+03  0.36882229397E+03  0.00000000000E+00 0.  1.
          2    1    1    2  501    0 -0.46643063302E+01  0.30130154895E+02  0.76462153511E+03  0.76522916433E+03  0.00000000000E+00 0. -1.
          1    1    1    2  502    0  0.46643063302E+01 -0.30130154895E+02 -0.36788785835E+03  0.36914910038E+03  0.00000000000E+00 0.  1.
</event>
<event>
 4    1  0.5834250E+003  0.2433896E+02  0.7546771E-02  0.1476336E+00
          2   -1    0    0  502    0  0.00000000000E+00  0.00000000000E+00  0.10053970396E+04  0.10053970396E+04  0.00000000000E+00 0.  1.
          1   -1    0    0  501    0 -0.00000000000E+00 -0.00000000000E+00 -0.12439403362E+04  0.12439403362E+04  0.00000000000E+00 0.  1.
          2    1    1    2  501    0 -0.17851960447E+02  0.16543656566E+02  0.10051306526E+04  0.10054252901E+04  0.00000000000E+00 0.  1.
          1    1    1    2  502    0  0.17851960447E+02 -0.16543656566E+02 -0.12436739492E+04  0.12439120857E+04  0.00000000000E+00 0.  1.
</event>
<event>
 4    1  0.3927513E+003  0.2331868E+02  0.7546771E-02  0.1488535E+00
          2   -1    0    0  502    0  0.00000000000E+00  0.00000000000E+00  0.16371185189E+03  0.16371185189E+03  0.00000000000E+00 0.  1.
          1   -1    0    0  501    0 -0.00000000000E+00 -0.00000000000E+00 -0.34074000966E+02  0.34074000966E+02  0.00000000000E+00 0. -1.
          2    1    1    2  501    0 -0.15849226410E+02 -0.17104462235E+02  0.15876837542E+03  0.16047167239E+03  0.00000000000E+00 0.  1.
          1    1    1    2  502    0  0.15849226410E+02  0.17104462235E+02 -0.29130524498E+02  0.37314180463E+02  0.00000000000E+00 0. -1.
</event>
<event>
 4    1  0.3927513E+003  0.2476753E+02  0.7546771E-02  0.1471421E+00
          2   -1    0    0  502    0  0.00000000000E+00  0.00000000000E+00  0.27078704384E+02  0.27078704384E+02  0.00000000000E+00 0.  1.
          1   -1    0    0  501    0 -0.00000000000E+00 -0.00000000000E+00 -0.29106831458E+03  0.29106831458E+03  0.00000000000E+00 0.  1.
          2    1    1    2  501    0  0.16403023221E+02  0.18557241029E+02  0.20763049523E+02  0.32319260371E+02  0.00000000000E+00 0.  1.
          1    1    1    2  502    0 -0.16403023221E+02 -0.18557241029E+02 -0.28475265972E+03  0.28582775860E+03  0.00000000000E+00 0.  1.
</event>
<event>
 4    1  0.3927513E+003  0.2628019E+02  0.7546771E-02  0.1454976E+00
          2   -1    0    0  502    0  0.00000000000E+00  0.00000000000E+00  0.86679833229E+01  0.86679833229E+01  0.00000000000E+00 0. -1.
          1   -1    0    0  501    0 -0.00000000000E+00 -0.00000000000E+00 -0.82324311112E+02  0.82324311112E+02  0.00000000000E+00 0. -1.
          2    1    1    2  501    0  0.12004072684E+02 -0.23378405519E+02 -0.44985168930E+02  0.52099069370E+02  0.00000000000E+00 0. -1.
          1    1    1    2  502    0 -0.12004072684E+02  0.23378405519E+02 -0.28671158859E+02  0.38893225065E+02  0.00000000000E+00 0. -1.
</event>
<event>
 4    1  0.3927513E+003  0.2113428E+02  0.7546771E-02  0.1517356E+00
          2   -1    0    0  502    0  0.00000000000E+00  0.00000000000E+00  0.55522125184E+03  0.55522125184E+03  0.00000000000E+00 0. -1.
          1   -1    0    0  501    0 -0.00000000000E+00 -0.00000000000E+00 -0.19226893868E+03  0.19226893868E+03  0.00000000000E+00 0.  1.
          2    1    1    2  501    0  0.82373053335E+01  0.19462904321E+02  0.55443854297E+03  0.55484119870E+03  0.00000000000E+00 0. -1.
          1    1    1    2  502    0 -0.82373053335E+01 -0.19462904321E+02 -0.19148622981E+03  0.19264899182E+03  0.00000000000E+00 0.  1.
</event>
<event>
 4    1  0.3927513E+003  0.2544720E+02  0.7546771E-02  0.1463862E+00
          2   -1    0    0  502    0  0.00000000000E+00  0.00000000000E+00  0.23420788268E+03  0.23420788268E+03  0.00000000000E+00 0.  1.
          1   -1    0    0  501    0 -0.00000000000E+00 -0.00000000000E+00 -0.11922250326E+02  0.11922250326E+02  0.00000000000E+00 0.  1.
          2    1    1    2  501    0  0.96113237739E+01  0.23562311522E+02  0.21899792449E+03  0.22047142899E+03  0.00000000000E+00 0.  1.
          1    1    1    2  502    0 -0.96113237739E+01 -0.23562311522E+02  0.32877078635E+01  0.25658704019E+02  0.00000000000E+00 0.  1.
</event>
<event>
 4    1  0.3927513E+003  0.2126852E+02  0.7546771E-02  0.1515465E+00
          2   -1    0    0  502    0  0.00000000000E+00  0.00000000000E+00  0.15280986198E+04  0.15280986198E+04  0.00000000000E+00 0. -1.
          1   -1    0    0  501    0 -0.00000000000E+00 -0.00000000000E+00 -0.30474794027E+02  0.30474794027E+02  0.00000000000E+00 0.  1.
          2    1    1    2  501    0  0.13289185886E+02 -0.16605644654E+02  0.15243045256E+04  0.15244528974E+04  0.00000000000E+00 0. -1.
          1    1    1    2  502    0 -0.13289185886E+02  0.16605644654E+02 -0.26680699795E+02  0.34120516371E+02  0.00000000000E+00 0.  1.
</event>
<event>
 4    1  0.3927513E+003  0.2033415E+02  0.7546771E-02  0.1528987E+00
          2   -1    0    0  502    0  0.00000000000E+00  0.00000000000E+00  0.32259138524E+02  0.32259138524E+02  0.00000000000E+00 0.  1.
          1   -1    0    0  501    0 -0.00000000000E+00 -0.00000000000E+00 -0.13225092401E+04  0.13225092401E+04  0.00000000000E+00 0. -1.
          2    1    1    2  501    0 -0.24453133214E+01  0.20186580597E+02  0.28968640240E+02  0.35392933062E+02  0.00000000000E+00 0.  1.
          1    1    1    2  502    0  0.24453133214E+01 -0.20186580597E+02 -0.13192187418E+04  0.13193754456E+04  0.00000000000E+00 0. -1.
</event>
<event>
 4    1  0.3927513E+003  0.2437084E+02  0.7546771E-02  0.1475966E+00
          2   -1    0    0  502    0  0.00000000000E+00  0.00000000000E+00  0.10783262248E+03  0.10783262248E+03  0.00000000000E+00 0. -1.
          1   -1    0    0  501    0 -0.00000000000E+00 -0.00000000000E+00 -0.75731064136E+01  0.75731064136E+01  0.00000000000E+00 0. -1.
          2    1    1    2  501    0  0.12142782607E+02 -0.21130326898E+02  0.80262292124E+02  0.83880709470E+02  0.00000000000E+00 0. -1.
          1    1    1    2  502    0 -0.12142782607E+02  0.21130326898E+02  0.19997223942E+02  0.31525019423E+02  0.00000000000E+00 0. -1.
</event>
<event>
 4    1  0.3927513E+003  0.2789795E+02  0.7546771E-02  0.1438791E+00
          2   -1    0    0  502    0  0.00000000000E+00  0.00000000000E+00  0.13247124462E+04  0.13247124462E+04  0.00000000000E+00 0. -1.
          1   -1    0    0  501    0 -0.00000000000E+00 -0.00000000000E+00 -0.63664903162E+00  0.63664903162E+00  0.00000000000E+00 0. -1.
          2    1    1    2  501    0 -0.47968592159E+01  0.27482467479E+02  0.84612214020E+03  0.84658193462E+03  0.00000000000E+00 0. -1.
          1    1    1    2  502    0  0.47968592159E+01 -0.27482467479E+02  0.47795365698E+03  0.47876716063E+03  0.00000000000E+00 0. -1.
</event>
<event>
 4    1  0.3927513E+003  0.2700586E+02  0.7546771E-02  0.1447549E+00
          2   -1    0    0  502    0  0.00000000000E+00  0.00000000000E+00  0.96578931027E+03  0.96578931027E+03  0.00000000000E+00 0.  1.
          1   -1    0    0  501    0 -0.00000000000E+00 -0.00000000000E+00 -0.52631316104E+03  0.52631316104E+03  0.00000000000E+00 0. -1.
          2    1    1    2  501    0 -0.17627441641E+02 -0.20459464484E+02  0.96525390349E+03  0.96563161433E+03  0.00000000000E+00 0.  1.
          1    1    1    2  502    0  0.17627441641E+02  0.20459464484E+02 -0.52577775426E+03  0.52647085699E+03  0.00000000000E+00 0. -1.
</event>
<event>
 4    1  0.3927513E+003  0.2234741E+02  0.7546771E-02  0.1500859E+00
          2   -1    0    0  502    0  0.00000000000E+00  0.00000000000E+00  0.28266003264E+03  0.28266003264E+03  0.00000000000E+00 0.  1.
          1   -1    0    0  501    0 -0.00000000000E+00 -0.00000000000E+00 -0.24146139860E+03  0.24146139860E+03  0.00000000000E+00 0.  1.
          2    1    1    2  501    0  0.10242080240E+02  0.19862188006E+02  0.28169950286E+03  0.28258453007E+03  0.00000000000E+00 0.  1.
          1    1    1    2  502    0 -0.10242080240E+02 -0.19862188006E+02 -0.24050086883E+03  0.24153690117E+03  0.00000000000E+00 0.  1.
</event>
<event>
 4    1  0.3927513E+003  0.2603310E+02  0.7546771E-02  0.1457570E+00
          2   -1    0    0  502    0  0.00000000000E+00  0.00000000000E+00  0.55050186556E+03  0.55050186556E+03  0.00000000000E+00 0. -1.
          1   -1    0    0  501    0 -0.00000000000E+00 -0.00000000000E+00 -0.55904255319E+02  0.55904255319E+02  0.00000000000E+00 0.  1.
          2    1    1    2  501    0  0.10236607380E+02 -0.23936040414E+02  0.54714477883E+03  0.54776375489E+03  0.00000000000E+00 0. -1.
          1    1    1    2  502    0 -0.10236607380E+02  0.23936040414E+02 -0.52547168597E+02  0.58642365990E+02  0.00000000000E+00 0.  1.
</event>
<event>
 4    1  0.3927513E+003  0.2064352E+02  0.7546771E-02  0.1524416E+00
          2   -1    0    0  502    0  0.00000000000E+00  0.00000000000E+00  0.26071389248E+02  0.26071389248E+02  0.00000000000E+00 0.  1.
          1   -1    0    0  501    0 -0.00000000000E+00 -0.00000000000E+00 -0.24626048574E+02  0.24626048574E+02  0.00000000000E+00 0. -1.
          2    1    1    2  501    0  0.15718632968E+02  0.13382059677E+02  0.15421512418E+02  0.25767770351E+02  0.00000000000E+00 0.  1.
          1    1    1    2  502    0 -0.15718632968E+02 -0.13382059677E+02 -0.13976171745E+02  0.24929667471E+02  0.00000000000E+00 0. -1.
</event>
<event>
 4    1  0.3927513E+003  0.2561859E+02  0.7546771E-02  0.1462001E+00
          2   -1    0    0  502    0  0.00000000000E+00  0.00000000000E+00  0.10632726362E+03  0.10632726362E+03  0.00000000000E+00 0.  1.
          1   -1    0    0  501    0 -0.00000000000E+00 -0.00000000000E+00 -0.94825991136E+01  0.94825991136E+01  0.00000000000E+00 0.  1.
          2    1    1    2  501    0 -0.20278585153E+02 -0.15655370943E+02  0.14211135228E+02  0.29296211694E+02  0.00000000000E+00 0.  1.
          1    1    1    2  502    0  0.20278585153E+02  0.15655370943E+02  0.82633529274E+02  0.86513651035E+02  0.00000000000E+00 0.  1.
</event>
<event>
 4    1  0.3927513E+003  0.2084026E+02  0.7546771E-02  0.1521558E+00
          2   -1    0    0  502    0  0.00000000000E+00  0.00000000000E+00  0.59311124235E+02  0.59311124235E+02  0.00000000000E+00 0. -1.
          1   -1    0    0  501    0 -0.00000000000E+00 -0.00000000000E+00 -0.10475197998E+03  0.10475197998E+03  0.00000000000E+00 0. -1.
          2    1    1    2  501    0  0.77013321980E+01  0.19365069502E+02  0.56391979052E+02  0.60119645174E+02  0.00000000000E+00 0. -1.
          1    1    1    2  502    0 -0.77013321980E+01 -0.19365069502E+02 -0.10183283480E+03  0.10394345904E+03  0.00000000000E+00 0. -1.
</event>
<event>
 4    1  0.3927513E+003  0.2786090E+02  0.7546771E-02  0.1439147E+00
          2   -1    0    0  502    0  0.00000000000E+00  0.00000000000E+00  0.46565039506E+01  0.46565039506E+01  0.00000000000E+00 0. -1.
          1   -1    0    0  501    0 -0.00000000000E+00 -0.00000000000E+00 -0.17487382724E+03  0.17487382724E+03  0.00000000000E+00 0.  1.
          2    1    1    2  501    0 -0.19603808369E+02 -0.19796984358E+02 -0.65699297832E+02  0.71362648689E+02  0.00000000000E+00 0. -1.
          1    1    1    2  502    0  0.19603808369E+02  0.19796984358E+02 -0.10451802546E+03  0.10816768250E+03  0.00000000000E+00 0.  1.
</event>
<event>
 4    1  0.3927513E+003  0.2166053E+02  0.7546771E-02  0.1510040E+00
          2   -1    0    0  502    0  0.00000000000E+00  0.00000000000E+00  0.21741338254E+01  0.21741338254E+01  0.00000000000E+00 0.  1.
          1   -1    0    0  501    0 -0.00000000000E+00 -0.00000000000E+00 -0.15302626707E+04  0.15302626707E+04  0.00000000000E+00 0. -1.
          2    1    1    2  501    0 -0.41353088149E+00  0.21656579640E+02 -0.53904741369E+02  0.58093886009E+02  0.00000000000E+00 0.  1.
          1    1    1    2  502    0  0.41353088149E+00 -0.21656579640E+02 -0.14741837955E+04  0.14743429185E+04  0.00000000000E+00 0. -1.
</event>
<event>
 4    1  0.3927513E+003  0.2618496E+02  0.7546771E-02  0.1455972E+00
          2   -1    0    0  502    0  0.00000000000E+00  0.00000000000E+00  0.27699948276E+03  0.27699948276E+03  0.00000000000E+00 0.  1.
          1   -1    0    0  501    0 -0.00000000000E+00 -0.00000000000E+00 -0.98303585736E+01  0.98303585736E+01  0.00000000000E+00 0.  1.
          2    1    1    2  501    0  0.84478736767E+01  0.24784782948E+02  0.25763640914E+03  0.25896364870E+03  0.00000000000E+00 0.  1.
          1    1    1    2  502    0 -0.84478736767E+01 -0.24784782948E+02  0.95327150440E+01  0.27866192627E+02  0.00000000000E+00 0.  1.
</event>
<event>
 4    1  0.3927513E+003  0.3364673E+02  0.7546771E-02  0.1390335E+00
          2   -1    0    0  502    0  0.00000000000E+00  0.00000000000E+00  0.72549957470E+03  0.72549957470E+03  0.00000000000E+00 0. -1.
          1   -1    0    0  501    0 -0.00000000000E+00 -0.00000000000E+00 -0.13629531222E+04  0.13629531222E+04  0.00000000000E+00 0.  1.
          2    1    1    2  501    0 -0.13313927600E+02 -0.30900514021E+02  0.72490163601E+03  0.72568208213E+03  0.00000000000E+00 0. -1.
          1    1    1    2  502    0  0.13313927600E+02  0.30900514021E+02 -0.13623551835E+04  0.13627706148E+04  0.00000000000E+00 0.  1.
</event>
<event>
 4    1  0.3927513E+003  0.2897154E+02  0.7546771E-02  0.1428749E+00
          2   -1    0    0  502    0  0.00000000000E+00  0.00000000000E+00  0.37206075581E+01  0.37206075581E+01  0.00000000000E+00 0. -1.
          1   -1    0    0  501    0 -0.00000000000E+00 -0.00000000000E+00 -0.23743801740E+03  0.23743801740E+03  0.00000000000E+00 0. -1.
          2    1    1    2  501    0  0.15572183231E+02 -0.24430667359E+02 -0.89929150153E+02  0.94480698799E+02  0.00000000000E+00 0. -1.
          1    1    1    2  502    0 -0.15572183231E+02  0.24430667359E+02 -0.14378825968E+03  0.14667792616E+03  0.00000000000E+00 0. -1.
</event>
<event>
 4    1  0.3927513E+003  0.2551759E+02  0.7546771E-02  0.1463096E+00
          2   -1    0    0  502    0  0.00000000000E+00  0.00000000000E+00  0.13522281272E+04  0.13522281272E+04  0.00000000000E+00 0.  1.
          1   -1    0    0  501    0 -0.00000000000E+00 -0.00000000000E+00 -0.49226212682E+01  0.49226212682E+01  0.00000000000E+00 0.  1.
          2    1    1    2  501    0  0.19441567000E+02  0.16527946056E+02  0.13181846316E+04  0.13184315949E+04  0.00000000000E+00 0.  1.
          1    1    1    2  502    0 -0.19441567000E+02 -0.16527946056E+02  0.29120874308E+02  0.38719153513E+02  0.00000000000E+00 0.  1.
</event>
<event>
 4    1  0.3927513E+003  0.2470848E+02  0.7546771E-02  0.1472091E+00
          2   -1    0    0  502    0  0.00000000000E+00  0.00000000000E+00  0.85593327982E+01  0.85593327982E+01  0.00000000000E+00 0.  1.
          1   -1    0    0  501    0 -0.00000000000E+00 -0.00000000000E+00 -0.15678339413E+03  0.15678339413E+03  0.00000000000E+00 0. -1.
          2    1    1    2  501    0  0.23191092036E+02  0.85253768826E+01 -0.13077141330E+02  0.27955686831E+02  0.00000000000E+00 0.  1.
          1    1    1    2  502    0 -0.23191092036E+02 -0.85253768826E+01 -0.13514692000E+03  0.13738704009E+03  0.00000000000E+00 0. -1.
</event>
<event>
 4    1  0.3927513E+003  0.2386930E+02  0.7546771E-02  0.1481862E+00
          2   -1    0    0  502    0  0.00000000000E+00  0.00000000000E+00  0.41281357676E+01  0.41281357676E+01  0.00000000000E+00 0. -1.
          1   -1    0    0  501    0 -0.00000000000E+00 -0.00000000000E+00 -0.22340244465E+03  0.22340244465E+03  0.00000000000E+00 0. -1.
          2    1    1    2  501    0 -0.18262607662E+02 -0.15369476536E+02 -0.39303456940E+02  0.45983751207E+02  0.00000000000E+00 0. -1.
          1    1    1    2  502    0  0.18262607662E+02  0.15369476536E+02 -0.17997085194E+03  0.18154682921E+03  0.00000000000E+00 0. -1.
</event>
<event>
 4    1  0.3927513E+003  0.2189395E+02  0.7546771E-02  0.1506874E+00
          2   -1    0    0  502    0  0.00000000000E+00  0.00000000000E+00  0.11862099395E+04  0.11862099395E+04  0.00000000000E+00 0.  1.
          1   -1    0    0  501    0 -0.00000000000E+00 -0.00000000000E+00 -0.37331139165E+02  0.37331139165E+02  0.00000000000E+00 0. -1.
          2    1    1    2  501    0 -0.16324216742E+02 -0.14589895192E+02  0.11828898169E+04  0.11830924157E+04  0.00000000000E+00 0.  1.
          1    1    1    2  502    0  0.16324216742E+02  0.14589895192E+02 -0.34011016540E+02  0.40448663019E+02  0.00000000000E+00 0. -1.
</event>
<event>
 4    1  0.3927513E+003  0.3563116E+02  0.7546771E-02  0.1376179E+00
          2   -1    0    0  502    0  0.00000000000E+00  0.00000000000E+00  0.71598017556E+03  0.71598017556E+03  0.00000000000E+00 0.  1.
          1   -1    0    0  501    0 -0.00000000000E+00 -0.00000000000E+00 -0.32541301261E+01  0.32541301261E+01  0.00000000000E+00 0.  1.
          2    1    1    2  501    0 -0.30993731602E+02  0.17577491065E+02  0.59896229783E+03  0.60002117781E+03  0.00000000000E+00 0.  1.
          1    1    1    2  502    0  0.30993731602E+02 -0.17577491065E+02  0.11376374761E+03  0.11921312788E+03  0.00000000000E+00 0.  1.
</event>
<event>
 4    1  0.3927513E+003  0.2069444E+02  0.7546771E-02  0.1523672E+00
          2   -1    0    0  502    0  0.00000000000E+00  0.00000000000E+00  0.23362208472E+02  0.23362208472E+02  0.00000000000E+00 0.  1.
          1   -1    0    0  501    0 -0.00000000000E+00 -0.00000000000E+00 -0.27555047731E+02  0.27555047731E+02  0.00000000000E+00 0.  1.
          2    1    1    2  501    0  0.97630104783E+01 -0.18246744031E+02  0.12633071026E+02  0.24245711474E+02  0.00000000000E+00 0.  1.
          1    1    1    2  502    0 -0.97630104783E+01  0.18246744031E+02 -0.16825910285E+02  0.26671544729E+02  0.00000000000E+00 0.  1.
</event>
<event>
 4    1  0.3927513E+003  0.2147927E+02  0.7546771E-02  0.1512531E+00
          2   -1    0    0  502    0  0.00000000000E+00  0.00000000000E+00  0.44686280426E+01  0.44686280426E+01  0.00000000000E+00 0.  1.
          1   -1    0    0  501    0 -0.00000000000E+00 -0.00000000000E+00 -0.38370335744E+03  0.38370335744E+03  0.00000000000E+00 0.  1.
          2    1    1    2  501    0 -0.21479248195E+02 -0.32591414515E-01 -0.23684909889E+02  0.31973960056E+02  0.00000000000E+00 0.  1.
          1    1    1    2  502    0  0.21479248195E+02  0.32591414515E-01 -0.35554981951E+03  0.35619802543E+03  0.00000000000E+00 0.  1.
</event>
<event>
 4    1  0.3927513E+003  0.4425314E+02  0.7546771E-02  0.1325216E+00
          2   -1    0    0  502    0  0.00000000000E+00  0.00000000000E+00  0.27180907707E+02  0.27180907707E+02  0.00000000000E+00 0. -1.
          1   -1    0    0  501    0 -0.00000000000E+00 -0.00000000000E+00 -0.79283136317E+02  0.79283136317E+02  0.00000000000E+00 0. -1.
          2    1    1    2  501    0 -0.40237992026E+02 -0.18418593030E+02 -0.99708093556E+01  0.45362513275E+02  0.00000000000E+00 0. -1.
          1    1    1    2  502    0  0.40237992026E+02  0.18418593030E+02 -0.42131419254E+02  0.61101530748E+02  0.00000000000E+00 0. -1.
</event>
<event>
 4    1  0.3927513E+003  0.2054926E+02  0.7546771E-02  0.1525799E+00
          2   -1    0    0  502    0  0.00000000000E+00  0.00000000000E+00  0.13837240080E+02  0.13837240080E+02  0.00000000000E+00 0.  1.
          1   -1    0    0  501    0 -0.00000000000E+00 -0.00000000000E+00 -0.36423897312E+02  0.36423897312E+02  0.00000000000E+00 0.  1.
          2    1    1    2  501    0 -0.13850320724E+02 -0.15180261462E+02 -0.21413480941E+02  0.29678424625E+02  0.00000000000E+00 0.  1.
          1    1    1    2  502    0  0.13850320724E+02  0.15180261462E+02 -0.11731762908E+01  0.20582712766E+02  0.00000000000E+00 0.  1.
</event>
<event>
 4    1  0.3927513E+003  0.2248088E+02  0.7546771E-02  0.1499122E+00
          2   -1    0    0  502    0  0.00000000000E+00  0.00000000000E+00  0.12982980574E+04  0.12982980574E+04  0.00000000000E+00 0.  1.
          1   -1    0    0  501    0 -0.00000000000E+00 -0.00000000000E+00 -0.12560344001E+03  0.12560344001E+03  0.00000000000E+00 0. -1.
          2    1    1    2  501    0  0.17233883109E+02  0.14435486991E+02  0.12971939596E+04  0.12973887462E+04  0.00000000000E+00 0.  1.
          1    1    1    2  502    0 -0.17233883109E+02 -0.14435486991E+02 -0.12449934219E+03  0.12651275120E+03  0.00000000000E+00 0. -1.
</event>
<event>
 4    1  0.3927513E+003  0.3018643E+02  0.7546771E-02  0.1417983E+00
          2   -1    0    0  502    0  0.00000000000E+00  0.00000000000E+00  0.23158190202E+03  0.23158190202E+03  0.00000000000E+00 0. -1.
          1   -1    0    0  501    0 -0.00000000000E+00 -0.00000000000E+00 -0.12633828952E+02  0.12633828952E+02  0.00000000000E+00 0.  1.
          2    1    1    2  501    0  0.27760167307E+02 -0.11857216797E+02  0.21079805199E+03  0.21294844259E+03  0.00000000000E+00 0. -1.
          1    1    1    2  502    0 -0.27760167307E+02  0.11857216797E+02  0.81500210775E+01  0.31267288380E+02  0.00000000000E+00 0.  1.
</event>
<event>
 4    1  0.3927513E+003  0.2428289E+02  0.7546771E-02  0.1476988E+00
          2   -1    0    0  502    0  0.00000000000E+00  0.00000000000E+00  0.10034339487E+03  0.10034339487E+03  0.00000000000E+00 0.  1.
          1   -1    0    0  501    0 -0.00000000000E+00 -0.00000000000E+00 -0.76207388599E+01  0.76207388599E+01  0.00000000000E+00 0.  1.
          2    1    1    2  501    0 -0.17012093391E+02  0.17327651466E+02  0.72187811599E+02  0.76162582482E+02  0.00000000000E+00 0.  1.
          1    1    1    2  502    0  0.17012093391E+02 -0.17327651466E+02  0.20534844414E+02  0.31801551251E+02  0.00000000000E+00 0.  1.
</event>
<event>
 4    1  0.3927513E+003  0.2202381E+02  0.7546771E-02  0.1505134E+00
          2   -1    0    0  502    0  0.00000000000E+00  0.00000000000E+00  0.18624254672E+04  0.18624254672E+04  0.00000000000E+00 0. -1.
          1   -1    0    0  501    0 -0.00000000000E+00 -0.00000000000E+00 -0.28100872631E+00  0.28100872631E+00  0.00000000000E+00 0. -1.
          2    1    1    2  501    0  0.56284654690E+01  0.21292454910E+02  0.11830536921E+04  0.11832586727E+04  0.00000000000E+00 0. -1.
          1    1    1    2  502    0 -0.56284654690E+01 -0.21292454910E+02  0.67909076640E+03  0.67944780320E+03  0.00000000000E+00 0. -1.
</event>
<event>
 4    1  0.3927513E+003  0.2241552E+02  0.7546771E-02  0.1499971E+00
          2   -1    0    0  502    0  0.00000000000E+00  0.00000000000E+00  0.38789690332E+00  0.38789690332E+00  0.00000000000E+00 0. -1.
          1   -1    0    0  501    0 -0.00000000000E+00 -0.00000000000E+00 -0.19055732862E+04  0.19055732862E+04  0.00000000000E+00 0. -1.
          2    1    1    2  501    0  0.12798963064E+02 -0.18402233798E+02 -0.41330357163E+03  0.41391097834E+03  0.00000000000E+00 0. -1.
          1    1    1    2  502    0 -0.12798963064E+02  0.18402233798E+02 -0.14918818177E+04  0.14920502048E+04  0.00000000000E+00 0. -1.
</event>
<event>
 4    1  0.3927513E+003  0.2123463E+02  0.7546771E-02  0.1515941E+00
          2   -1    0    0  502    0  0.00000000000E+00  0.00000000000E+00  0.24302892181E+01  0.24302892181E+01  0.00000000000E+00 0. -1.
          1   -1    0    0  501    0 -0.00000000000E+00 -0.00000000000E+00 -0.45233787609E+03  0.45233787609E+03  0.00000000000E+00 0. -1.
          2    1    1    2  501    0  0.40598092162E+01  0.20842926267E+02 -0.50322586802E+02  0.54619340610E+02  0.00000000000E+00 0. -1.
          1    1    1    2  502    0 -0.40598092162E+01 -0.20842926267E+02 -0.39958500006E+03  0.40014882469E+03  0.00000000000E+00 0. -1.
</event>
<event>
 4    1  0.3927513E+003  0.2014870E+02  0.7546771E-02  0.1531775E+00
          2   -1    0    0  502    0  0.00000000000E+00  0.00000000000E+00  0.14813731369E+04  0.14813731369E+04  0.00000000000E+00 0.  1.
          1   -1    0    0  501    0 -0.00000000000E+00 -0.00000000000E+00 -0.59842086985E+01  0.59842086985E+01  0.00000000000E+00 0.  1.
          2    1    1    2  501    0  0.64648509910E+00  0.20138320874E+02  0.14641450207E+04  0.14642836514E+04  0.00000000000E+00 0.  1.
          1    1    1    2  502    0 -0.64648509910E+00 -0.20138320874E+02  0.11243907472E+02  0.23073694239E+02  0.00000000000E+00 0.  1.
</event>
<event>
 4    1  0.3927513E+003  0.4192231E+02  0.7546771E-02  0.1337575E+00
          2   -1    0    0  502    0  0.00000000000E+00  0.00000000000E+00  0.93575683550E+01  0.93575683550E+01  0.00000000000E+00 0.  1.
          1   -1    0    0  501    0 -0.00000000000E+00 -0.00000000000E+00 -0.35758295136E+03  0.35758295136E+03  0.00000000000E+00 0.  1.
          2    1    1    2  501    0  0.11469283292E+02 -0.40322890524E+02 -0.47695326840E+02  0.63500583949E+02  0.00000000000E+00 0.  1.
          1    1    1    2  502    0 -0.11469283292E+02  0.40322890524E+02 -0.30053005617E+03  0.30343993577E+03  0.00000000000E+00 0.  1.
</event>
<event>
 4    1  0.3927513E+003  0.2297620E+02  0.7546771E-02  0.1492797E+00
          2   -1    0    0  502    0  0.00000000000E+00  0.00000000000E+00  0.12164147941E+01  0.12164147941E+01  0.00000000000E+00 0. -1.
          1   -1    0    0  501    0 -0.00000000000E+00 -0.00000000000E+00 -0.78616248519E+03  0.78616248519E+03  0.00000000000E+00 0. -1.
          2    1    1    2  501    0 -0.22976185637E+02 -0.29201155294E-01 -0.12897443089E+03  0.13100499907E+03  0.00000000000E+00 0. -1.
          1    1    1    2  502    0  0.22976185637E+02  0.29201155294E-01 -0.65597163950E+03  0.65637390091E+03  0.00000000000E+00 0. -1.
</event>
<event>
 4    1  0.3927513E+003  0.2095815E+02  0.7546771E-02  0.1519863E+00
          2   -1    0    0  502    0  0.00000000000E+00  0.00000000000E+00  0.45124047419E+02  0.45124047419E+02  0.00000000000E+00 0. -1.
          1   -1    0    0  501    0 -0.00000000000E+00 -0.00000000000E+00 -0.14660701808E+02  0.14660701808E+02  0.00000000000E+00 0. -1.
          2    1    1    2  501    0 -0.70347949576E+01 -0.19742227739E+02  0.32559930784E+02  0.38721996189E+02  0.00000000000E+00 0. -1.
          1    1    1    2  502    0  0.70347949576E+01  0.19742227739E+02 -0.20965851723E+01  0.21062753039E+02  0.00000000000E+00 0. -1.
</event>
<event>
 4    1  0.3927513E+003  0.2569999E+02  0.7546771E-02  0.1461123E+00
          2   -1    0    0  502    0  0.00000000000E+00  0.00000000000E+00  0.12764295420E+03  0.12764295420E+03  0.00000000000E+00 0.  1.
          1   -1    0    0  501    0 -0.00000000000E+00 -0.00000000000E+00 -0.87155090176E+01  0.87155090176E+01  0.00000000000E+00 0. -1.
          2    1    1    2  501    0 -0.80717830620E+01 -0.24399507312E+02  0.10292161669E+03  0.10608180250E+03  0.00000000000E+00 0.  1.
          1    1    1    2  502    0  0.80717830620E+01  0.24399507312E+02  0.16005828498E+02  0.30276660727E+02  0.00000000000E+00 0. -1.
</event>
<event>
 4    1  0.3927513E+003  0.2069090E+02  0.7546771E-02  0.1523724E+00
          2   -1    0    0  502    0  0.00000000000E+00  0.00000000000E+00  0.72808397732E+03  0.72808397732E+03  0.00000000000E+00 0. -1.
          1   -1    0    0  501    0 -0.00000000000E+00 -0.00000000000E+00 -0.16522823340E+01  0.16522823340E+01  0.00000000000E+00 0.  1.
          2    1    1    2  501    0  0.12939879458E+02 -0.16145360548E+02  0.65605038188E+03  0.65637658148E+03  0.00000000000E+00 0. -1.
          1    1    1    2  502    0 -0.12939879458E+02  0.16145360548E+02  0.70381313108E+02  0.73359678178E+02  0.00000000000E+00 0.  1.
</event>
<event>
 4    1  0.3927513E+003  0.2385764E+02  0.7546771E-02  0.1482001E+00
          2   -1    0    0  502    0  0.00000000000E+00  0.00000000000E+00  0.20815365445E+04  0.20815365445E+04  0.00000000000E+00 0.  1.
          1   -1    0    0  501    0 -0.00000000000E+00 -0.00000000000E+00 -0.33082871297E+00  0.33082871297E+00  0.00000000000E+00 0.  1.
          2    1    1    2  501    0 -0.16358501366E+02  0.17366239503E+02  0.14741275348E+04  0.14743205810E+04  0.00000000000E+00 0.  1.
          1    1    1    2  502    0  0.16358501366E+02 -0.17366239503E+02  0.60707818103E+03  0.60754679221E+03  0.00000000000E+00 0.  1.
</event>
<event>
 4    1  0.3927513E+003  0.2124120E+02  0.7546771E-02  0.1515849E+00
          2   -1    0    0  502    0  0.00000000000E+00  0.00000000000E+00  0.96424758259E+03  0.96424758259E+03  0.00000000000E+00 0.  1.
          1   -1    0    0  501    0 -0.00000000000E+00 -0.00000000000E+00 -0.92441961071E+01  0.92441961071E+01  0.00000000000E+00 0.  1.
          2    1    1    2  501    0 -0.20987716415E+02 -0.32717497915E+01  0.95176869803E+03  0.95200569491E+03  0.00000000000E+00 0.  1.
          1    1    1    2  502    0  0.20987716415E+02  0.32717497915E+01  0.32346884473E+01  0.21486083784E+02  0.00000000000E+00 0.  1.
</event>
<event>
 4    1  0.3927513E+003  0.3420805E+02  0.7546771E-02  0.1386218E+00
          2   -1    0    0  502    0  0.00000000000E+00  0.00000000000E+00  0.62493642782E+03  0.62493642782E+03  0.00000000000E+00 0.  1.
          1   -1    0    0  501    0 -0.00000000000E+00 -0.00000000000E+00 -0.16773805622E+02  0.16773805622E+02  0.00000000000E+00 0. -1.
          2    1    1    2  501    0  0.85450520866E+01 -0.33123594158E+02  0.60649775255E+03  0.60746169777E+03  0.00000000000E+00 0.  1.
          1    1    1    2  502    0 -0.85450520866E+01  0.33123594158E+02  0.16648696498E+01  0.34248535678E+02  0.00000000000E+00 0. -1.
</event>
<event>
 4    1  0.3927513E+003  0.2584651E+02  0.7546771E-02  0.1459552E+00
          2   -1    0    0  502    0  0.00000000000E+00  0.00000000000E+00  0.13999742470E+02  0.13999742470E+02  0.00000000000E+00 0. -1.
          1   -1    0    0  501    0 -0.00000000000E+00 -0.00000000000E+00 -0.64676630081E+02  0.64676630081E+02  0.00000000000E+00 0. -1.
          2    1    1    2  501    0  0.23961375191E+02 -0.96899187051E+01 -0.51949913620E+01  0.26363420886E+02  0.00000000000E+00 0. -1.
          1    1    1    2  502    0 -0.23961375191E+02  0.96899187051E+01 -0.45481896248E+02  0.52312951665E+02  0.00000000000E+00 0. -1.
</event>
<event>
 4    1  0.3927513E+003  0.2328602E+02  0.7546771E-02  0.1488937E+00
          2   -1    0    0  502    0  0.00000000000E+00  0.00000000000E+00  0.12679531074E+04  0.12679531074E+04  0.00000000000E+00 0. -1.
          1   -1    0    0  501    0 -0.00000000000E+00 -0.00000000000E+00 -0.13639347115E+01  0.13639347115E+01  0.00000000000E+00 0. -1.
          2    1    1    2  501    0 -0.23278530187E+02  0.59055198432E+00  0.11591272393E+04  0.11593611153E+04  0.00000000000E+00 0. -1.
          1    1    1    2  502    0  0.23278530187E+02 -0.59055198432E+00  0.10746193338E+03  0.10995592683E+03  0.00000000000E+00 0. -1.
</event>
<event>
 4    1  0.3927513E+003  0.4878311E+02  0.7546771E-02  0.1303536E+00
          2   -1    0    0  502    0  0.00000000000E+00  0.00000000000E+00  0.26069116594E+03  0.26069116594E+03  0.00000000000E+00 0. -1.
          1   -1    0    0  501    0 -0.00000000000E+00 -0.00000000000E+00 -0.13491414849E+02  0.13491414849E+02  0.00000000000E+00 0. -1.
          2    1    1    2  501    0 -0.45314509193E+02 -0.18066197904E+02  0.20155695453E+03  0.20737646484E+03  0.00000000000E+00 0. -1.
          1    1    1    2  502    0  0.45314509193E+02  0.18066197904E+02  0.45642796555E+02  0.66806115944E+02  0.00000000000E+00 0. -1.
</event>
<event>
 4    1  0.3927513E+003  0.3388971E+02  0.7546771E-02  0.1388541E+00
          2   -1    0    0  502    0  0.00000000000E+00  0.00000000000E+00  0.43714253382E+03  0.43714253382E+03  0.00000000000E+00 0. -1.
          1   -1    0    0  501    0 -0.00000000000E+00 -0.00000000000E+00 -0.26439771171E+01  0.26439771171E+01  0.00000000000E+00 0. -1.
          2    1    1    2  501    0  0.21685104769E+02  0.26043586812E+02  0.23470416164E+03  0.23713826278E+03  0.00000000000E+00 0. -1.
          1    1    1    2  502    0 -0.21685104769E+02 -0.26043586812E+02  0.19979439506E+03  0.20264824816E+03  0.00000000000E+00 0. -1.
</event>
<event>
 4    1  0.3927513E+003  0.2193359E+02  0.7546771E-02  0.1506342E+00
          2   -1    0    0  502    0  0.00000000000E+00  0.00000000000E+00  0.53311152626E+02  0.53311152626E+02  0.00000000000E+00 0.  1.
          1   -1    0    0  501    0 -0.00000000000E+00 -0.00000000000E+00 -0.17157537252E+02  0.17157537252E+02  0.00000000000E+00 0.  1.
          2    1    1    2  501    0 -0.21489202563E+02 -0.43927605695E+01  0.42336053169E+02  0.47680431732E+02  0.00000000000E+00 0.  1.
          1    1    1    2  502    0  0.21489202563E+02  0.43927605695E+01 -0.61824377947E+01  0.22788258145E+02  0.00000000000E+00 0.  1.
</event>
<event>
 4    1  0.3927513E+003  0.2606680E+02  0.7546771E-02  0.1457214E+00
          2   -1    0    0  502    0  0.00000000000E+00  0.00000000000E+00  0.26646419315E+02  0.26646419315E+02  0.00000000000E+00 0. -1.
          1   -1    0    0  501    0 -0.00000000000E+00 -0.00000000000E+00 -0.36411270613E+02  0.36411270613E+02  0.00000000000E+00 0. -1.
          2    1    1    2  501    0  0.10133759529E+02  0.24016337734E+02 -0.22142091644E+02  0.34201604973E+02  0.00000000000E+00 0. -1.
          1    1    1    2  502    0 -0.10133759529E+02 -0.24016337734E+02  0.12377240347E+02  0.28856084955E+02  0.00000000000E+00 0. -1.
</event>
<event>
 4    1  0.3927513E+003  0.2105877E+02  0.7546771E-02  0.1518427E+00
          2   -1    0    0  502    0  0.00000000000E+00  0.00000000000E+00  0.13712337557E+03  0.13712337557E+03  0.00000000000E+00 0. -1.
          1   -1    0    0  501    0 -0.00000000000E+00 -0.00000000000E+00 -0.80721445129E+01  0.80721445129E+01  0.00000000000E+00 0.  1.
          2    1    1    2  501    0 -0.28629817412E+01 -0.20863243418E+02  0.12072912028E+03  0.12255199743E+03  0.00000000000E+00 0. -1.
          1    1    1    2  502    0  0.28629817412E+01  0.20863243418E+02  0.83221107776E+01  0.22643522654E+02  0.00000000000E+00 0.  1.
</event>
<event>
 4    1  0.3927513E+003  0.2283892E+02  0.7546771E-02  0.1494531E+00
          2   -1    0    0  502    0  0.00000000000E+00  0.00000000000E+00  0.43921084496E+03  0.43921084496E+03  0.00000000000E+00 0. -1.
          1   -1    0    0  501    0 -0.00000000000E+00 -0.00000000000E+00 -0.69738483662E+02  0.69738483662E+02  0.00000000000E+00 0.  1.
          2    1    1    2  501    0 -0.78323199550E+01  0.21453923439E+02  0.43703473493E+03  0.43763109534E+03  0.00000000000E+00 0. -1.
          1    1    1    2  502    0  0.78323199550E+01 -0.21453923439E+02 -0.67562373638E+02  0.71318233282E+02  0.00000000000E+00 0.  1.
</event>
<event>
 4    1  0.3927513E+003  0.3167918E+02  0.7546771E-02  0.1405545E+00
          2   -1    0    0  502    0  0.00000000000E+00  0.00000000000E+00  0.10461767138E+03  0.10461767138E+03  0.00000000000E+00 0.  1.
          1   -1    0    0  501    0 -0.00000000000E+00 -0.00000000000E+00 -0.12199630779E+03  0.12199630779E+03  0.00000000000E+00 0. -1.
          2    1    1    2  501    0 -0.15786794822E+02  0.27465388935E+02  0.10007173366E+03  0.10496629153E+03  0.00000000000E+00 0.  1.
          1    1    1    2  502    0  0.15786794822E+02 -0.27465388935E+02 -0.11745037007E+03  0.12164768764E+03  0.00000000000E+00 0. -1.
</event>
<event>
 4    1  0.3927513E+003  0.4491039E+02  0.7546771E-02  0.1321888E+00
          2   -1    0    0  502    0  0.00000000000E+00  0.00000000000E+00  0.17230555899E+02  0.17230555899E+02  0.00000000000E+00 0. -1.
          1   -1    0    0  501    0 -0.00000000000E+00 -0.00000000000E+00 -0.13697549904E+03  0.13697549904E+03  0.00000000000E+00 0.  1.
          2    1    1    2  501    0  0.25307285303E+02  0.37101008027E+02 -0.30469789015E+02  0.54271092937E+02  0.00000000000E+00 0. -1.
          1    1    1    2  502    0 -0.25307285303E+02 -0.37101008027E+02 -0.89275154128E+02  0.99934962003E+02  0.00000000000E+00 0.  1.
</event>
<event>
 4    1  0.3927513E+003  0.2570631E+02  0.7546771E-02  0.1461055E+00
          2   -1    0    0  502    0  0.00000000000E+00  0.00000000000E+00  0.17285881451E+02  0.17285881451E+02  0.00000000000E+00 0.  1.
          1   -1    0    0  501    0 -0.00000000000E+00 -0.00000000000E+00 -0.49719504761E+03  0.49719504761E+03  0.00000000000E+00 0. -1.
          2    1    1    2  501    0 -0.24061482118E+02 -0.90476172912E+01  0.71986964178E+01  0.26695234228E+02  0.00000000000E+00 0.  1.
          1    1    1    2  502    0  0.24061482118E+02  0.90476172912E+01 -0.48710786257E+03  0.48778569483E+03  0.00000000000E+00 0. -1.
</event>
<event>
 4    1  0.3927513E+003  0.2194074E+02  0.7546771E-02  0.1506246E+00
          2   -1    0    0  502    0  0.00000000000E+00  0.00000000000E+00  0.58152614668E+03  0.58152614668E+03  0.00000000000E+00 0. -1.
          1   -1    0    0  501    0 -0.00000000000E+00 -0.00000000000E+00 -0.42742017677E+01  0.42742017677E+01  0.00000000000E+00 0.  1.
          2    1    1    2  501    0  0.12199905968E+02  0.18236181043E+02  0.55163710662E+03  0.55207326815E+03  0.00000000000E+00 0. -1.
          1    1    1    2  502    0 -0.12199905968E+02 -0.18236181043E+02  0.25614838288E+02  0.33727080294E+02  0.00000000000E+00 0.  1.
</event>
<event>
 4    1  0.3927513E+003  0.2208309E+02  0.7546771E-02  0.1504344E+00
          2   -1    0    0  502    0  0.00000000000E+00  0.00000000000E+00  0.16268645984E+03  0.16268645984E+03  0.00000000000E+00 0.  1.
          1   -1    0    0  501    0 -0.00000000000E+00 -0.00000000000E+00 -0.64418110425E+01  0.64418110425E+01  0.00000000000E+00 0. -1.
          2    1    1    2  501    0  0.97623826742E+01  0.19808042731E+02  0.13995663536E+03  0.14168811684E+03  0.00000000000E+00 0.  1.
          1    1    1    2  502    0 -0.97623826742E+01 -0.19808042731E+02  0.16288013445E+02  0.27440154051E+02  0.00000000000E+00 0. -1.
</event>
<event>
 4    1  0.3927513E+003  0.4697423E+02  0.7546771E-02  0.1311852E+00
          2   -1    0    0  502    0  0.00000000000E+00  0.00000000000E+00  0.12523860831E+04  0.12523860831E+04  0.00000000000E+00 0.  1.
          1   -1    0    0  501    0 -0.00000000000E+00 -0.00000000000E+00 -0.19045061297E+01  0.19045061297E+01  0.00000000000E+00 0. -1.
          2    1    1    2  501    0 -0.12716250459E+02 -0.45220299933E+02  0.79685240045E+03  0.79823575882E+03  0.00000000000E+00 0.  1.
          1    1    1    2  502    0  0.12716250459E+02  0.45220299933E+02  0.45362917648E+03  0.45605483037E+03  0.00000000000E+00 0. -1.
</event>
<event>
 4    1  0.3927513E+003  0.2446297E+02  0.7546771E-02  0.1474902E+00
          2   -1    0    0  502    0  0.00000000000E+00  0.00000000000E+00  0.18238925087E+02  0.18238925087E+02  0.00000000000E+00 0. -1.
          1   -1    0    0  501    0 -0.00000000000E+00 -0.00000000000E+00 -0.17777726034E+03  0.17777726034E+03  0.00000000000E+00 0. -1.
          2    1    1    2  501    0  0.22982834264E+02  0.83801073091E+01  0.87336998822E+01  0.25975264829E+02  0.00000000000E+00 0. -1.
          1    1    1    2  502    0 -0.22982834264E+02 -0.83801073091E+01 -0.16827203513E+03  0.17004092059E+03  0.00000000000E+00 0. -1.
</event>
<event>
 4    1  0.3927513E+003  0.2121179E+02  0.7546771E-02  0.1516262E+00
          2   -1    0    0  502    0  0.00000000000E+00  0.00000000000E+00  0.38189326671E+03  0.38189326671E+03  0.00000000000E+00 0.  1.
          1   -1    0    0  501    0 -0.00000000000E+00 -0.00000000000E+00 -0.45502501367E+02  0.45502501367E+02  0.00000000000E+00 0.  1.
          2    1    1    2  501    0 -0.13794662201E+02  0.16113579490E+02  0.37910851382E+03  0.37970146879E+03  0.00000000000E+00 0.  1.
          1    1    1    2  502    0  0.13794662201E+02 -0.16113579490E+02 -0.42717748480E+02  0.47694299286E+02  0.00000000000E+00 0.  1.
</event>
<event>
 4    1  0.3927513E+003  0.4665215E+02  0.7546771E-02  0.1313379E+00
          2   -1    0    0  502    0  0.00000000000E+00  0.00000000000E+00  0.70727874068E+02  0.70727874068E+02  0.00000000000E+00 0.  1.
          1   -1    0    0  501    0 -0.00000000000E+00 -0.00000000000E+00 -0.68494214875E+03  0.68494214875E+03  0.00000000000E+00 0.  1.
          2    1    1    2  501    0  0.18447451586E+02  0.42849911380E+02  0.62143014986E+02  0.77705712060E+02  0.00000000000E+00 0.  1.
          1    1    1    2  502    0 -0.18447451586E+02 -0.42849911380E+02 -0.67635728967E+03  0.67796431076E+03  0.00000000000E+00 0.  1.
</event>
<event>
 4    1  0.3927513E+003  0.2174189E+02  0.7546771E-02  0.1508931E+00
          2   -1    0    0  502    0  0.00000000000E+00  0.00000000000E+00  0.15466291043E+02  0.15466291043E+02  0.00000000000E+00 0.  1.
          1   -1    0    0  501    0 -0.00000000000E+00 -0.00000000000E+00 -0.70335496575E+02  0.70335496575E+02  0.00000000000E+00 0.  1.
          2    1    1    2  501    0  0.12078152474E+02 -0.18078380650E+02  0.48255018545E+01  0.22270947044E+02  0.00000000000E+00 0.  1.
          1    1    1    2  502    0 -0.12078152474E+02  0.18078380650E+02 -0.59694707386E+02  0.63530840574E+02  0.00000000000E+00 0.  1.
</event>
<event>
 4    1  0.3927513E+003  0.2061829E+02  0.7546771E-02  0.1524785E+00
          2   -1    0    0  502    0  0.00000000000E+00  0.00000000000E+00  0.32749583314E+03  0.32749583314E+03  0.00000000000E+00 0. -1.
          1   -1    0    0  501    0 -0.00000000000E+00 -0.00000000000E+00 -0.41742239122E+03  0.41742239122E+03  0.00000000000E+00 0. -1.
          2    1    1    2  501    0  0.12903370102E+02  0.16081573370E+02  0.32691625701E+03  0.32756579959E+03  0.00000000000E+00 0. -1.
          1    1    1    2  502    0 -0.12903370102E+02 -0.16081573370E+02 -0.41684281509E+03  0.41735242476E+03  0.00000000000E+00 0. -1.
</event>
<event>
 4    1  0.3927513E+003  0.2456420E+02  0.7546771E-02  0.1473738E+00
          2   -1    0    0  502    0  0.00000000000E+00  0.00000000000E+00  0.19484398356E+03  0.19484398356E+03  0.00000000000E+00 0. -1.
          1   -1    0    0  501    0 -0.00000000000E+00 -0.00000000000E+00 -0.16397008396E+02  0.16397008396E+02  0.00000000000E+00 0.  1.
          2    1    1    2  501    0  0.22340302570E+02  0.10213270677E+02  0.18434845374E+03  0.18597782774E+03  0.00000000000E+00 0. -1.
          1    1    1    2  502    0 -0.22340302570E+02 -0.10213270677E+02 -0.59014785713E+01  0.25263164215E+02  0.00000000000E+00 0.  1.
</event>
<event>
 4    1  0.3927513E+003  0.2747467E+02  0.7546771E-02  0.1442897E+00
          2   -1    0    0  502    0  0.00000000000E+00  0.00000000000E+00  0.13437361098E+03  0.13437361098E+03  0.00000000000E+00 0. -1.
          1   -1    0    0  501    0 -0.00000000000E+00 -0.00000000000E+00 -0.27569220677E+02  0.27569220677E+02  0.00000000000E+00 0. -1.
          2    1    1    2  501    0 -0.22223307320E+02  0.16154933820E+02  0.12565467830E+03  0.12862330836E+03  0.00000000000E+00 0. -1.
          1    1    1    2  502    0  0.22223307320E+02 -0.16154933820E+02 -0.18850287999E+02  0.33319523295E+02  0.00000000000E+00 0. -1.
</event>
<event>
 4    1  0.3927513E+003  0.2744492E+02  0.7546771E-02  0.1443189E+00
          2   -1    0    0  502    0  0.00000000000E+00  0.00000000000E+00  0.14442768965E+02  0.14442768965E+02  0.00000000000E+00 0.  1.
          1   -1    0    0  501    0 -0.00000000000E+00 -0.00000000000E+00 -0.67290651950E+03  0.67290651950E+03  0.00000000000E+00 0.  1.
          2    1    1    2  501    0 -0.46529005946E+01 -0.27047625012E+02  0.85629988352E+00  0.27458272929E+02  0.00000000000E+00 0.  1.
          1    1    1    2  502    0  0.46529005946E+01  0.27047625012E+02 -0.65932005042E+03  0.65989101553E+03  0.00000000000E+00 0.  1.
</event>
<event>
 4    1  0.3927513E+003  0.2152508E+02  0.7546771E-02  0.1511898E+00
          2   -1    0    0  502    0  0.00000000000E+00  0.00000000000E+00  0.45541780841E+03  0.45541780841E+03  0.00000000000E+00 0.  1.
          1   -1    0    0  501    0 -0.00000000000E+00 -0.00000000000E+00 -0.67557248295E+01  0.67557248295E+01  0.00000000000E+00 0.  1.
          2    1    1    2  501    0 -0.95837451866E+00  0.21503736786E+02  0.43730805704E+03  0.43783748804E+03  0.00000000000E+00 0.  1.
          1    1    1    2  502    0  0.95837451866E+00 -0.21503736786E+02  0.11354026541E+02  0.24336045204E+02  0.00000000000E+00 0.  1.
</event>
<event>
 4    1  0.3927513E+003  0.2475935E+02  0.7546771E-02  0.1471514E+00
          2   -1    0    0  502    0  0.00000000000E+00  0.00000000000E+00  0.88534222818E+03  0.88534222818E+03  0.00000000000E+00 0.  1.
          1   -1    0    0  501    0 -0.00000000000E+00 -0.00000000000E+00 -0.19326039051E+02  0.19326039051E+02  0.00000000000E+00 0. -1.
          2    1    1    2  501    0  0.48089411608E+01 -0.24287848410E+02  0.87716516801E+03  0.87751453405E+03  0.00000000000E+00 0.  1.
          1    1    1    2  502    0 -0.48089411608E+01  0.24287848410E+02 -0.11148978884E+02  0.27153733180E+02  0.00000000000E+00 0. -1.
</event>
<event>
 4    1  0.3927513E+003  0.3384391E+02  0.7546771E-02  0.1388878E+00
          2   -1    0    0  502    0  0.00000000000E+00  0.00000000000E+00  0.48786255145E+03  0.48786255145E+03  0.00000000000E+00 0.  1.
          1   -1    0    0  501    0 -0.00000000000E+00 -0.00000000000E+00 -0.23649503987E+01  0.23649503987E+01  0.00000000000E+00 0. -1.
          2    1    1    2  501    0  0.20146891946E+02 -0.27193992249E+02  0.26361378018E+03  0.26577741734E+03  0.00000000000E+00 0.  1.
          1    1    1    2  502    0 -0.20146891946E+02  0.27193992249E+02  0.22188382088E+03  0.22445008451E+03  0.00000000000E+00 0. -1.
</event>
<event>
 4    1  0.3927513E+003  0.4383699E+02  0.7546771E-02  0.1327358E+00
          2   -1    0    0  502    0  0.00000000000E+00  0.00000000000E+00  0.15264036018E+04  0.15264036018E+04  0.00000000000E+00 0.  1.
          1   -1    0    0  501    0 -0.00000000000E+00 -0.00000000000E+00 -0.38442376918E+03  0.38442376918E+03  0.00000000000E+00 0.  1.
          2    1    1    2  501    0  0.39067956836E+02 -0.19884069458E+02  0.15248378632E+04  0.15254678596E+04  0.00000000000E+00 0.  1.
          1    1    1    2  502    0 -0.39067956836E+02  0.19884069458E+02 -0.38285803058E+03  0.38535951143E+03  0.00000000000E+00 0.  1.
</event>
<event>
 4    1  0.3927513E+003  0.3318220E+02  0.7546771E-02  0.1393814E+00
          2   -1    0    0  502    0  0.00000000000E+00  0.00000000000E+00  0.14398683499E+04  0.14398683499E+04  0.00000000000E+00 0. -1.
          1   -1    0    0  501    0 -0.00000000000E+00 -0.00000000000E+00 -0.36622839325E+01  0.36622839325E+01  0.00000000000E+00 0.  1.
          2    1    1    2  501    0  0.71812167475E+01 -0.32395806648E+02  0.13601081544E+04  0.13605128628E+04  0.00000000000E+00 0. -1.
          1    1    1    2  502    0 -0.71812167475E+01  0.32395806648E+02  0.76097911500E+02  0.83017770971E+02  0.00000000000E+00 0.  1.
</event>
<event>
 4    1  0.3927513E+003  0.2599734E+02  0.7546771E-02  0.1457948E+00
          2   -1    0    0  502    0  0.00000000000E+00  0.00000000000E+00  0.42561589883E+03  0.42561589883E+03  0.00000000000E+00 0.  1.
          1   -1    0    0  501    0 -0.00000000000E+00 -0.00000000000E+00 -0.54075767355E+03  0.54075767355E+03  0.00000000000E+00 0.  1.
          2    1    1    2  501    0  0.24039767709E+02 -0.98970441598E+01  0.42490592609E+03  0.42570049088E+03  0.00000000000E+00 0.  1.
          1    1    1    2  502    0 -0.24039767709E+02  0.98970441598E+01 -0.54004770081E+03  0.54067308150E+03  0.00000000000E+00 0.  1.
</event>
<event>
 4    1  0.3927513E+003  0.4563836E+02  0.7546771E-02  0.1318278E+00
          2   -1    0    0  502    0  0.00000000000E+00  0.00000000000E+00  0.33547856620E+03  0.33547856620E+03  0.00000000000E+00 0.  1.
          1   -1    0    0  501    0 -0.00000000000E+00 -0.00000000000E+00 -0.63985111752E+03  0.63985111752E+03  0.00000000000E+00 0.  1.
          2    1    1    2  501    0 -0.33282839653E+02  0.31226796635E+02  0.33310683624E+03  0.33621871541E+03  0.00000000000E+00 0.  1.
          1    1    1    2  502    0  0.33282839653E+02 -0.31226796635E+02 -0.63747938756E+03  0.63911096830E+03  0.00000000000E+00 0.  1.
</event>
<event>
 4    1  0.3927513E+003  0.3055229E+02  0.7546771E-02  0.1414857E+00
          2   -1    0    0  502    0  0.00000000000E+00  0.00000000000E+00  0.22898261773E+03  0.22898261773E+03  0.00000000000E+00 0.  1.
          1   -1    0    0  501    0 -0.00000000000E+00 -0.00000000000E+00 -0.17554357493E+03  0.17554357493E+03  0.00000000000E+00 0.  1.
          2    1    1    2  501    0 -0.31373121533E+01 -0.30390783736E+02  0.22662034358E+03  0.22867055470E+03  0.00000000000E+00 0.  1.
          1    1    1    2  502    0  0.31373121533E+01  0.30390783736E+02 -0.17318130078E+03  0.17585563796E+03  0.00000000000E+00 0.  1.
</event>
<event>
 4    1  0.3927513E+003  0.3372107E+02  0.7546771E-02  0.1389784E+00
          2   -1    0    0  502    0  0.00000000000E+00  0.00000000000E+00  0.12293360378E+04  0.12293360378E+04  0.00000000000E+00 0. -1.
          1   -1    0    0  501    0 -0.00000000000E+00 -0.00000000000E+00 -0.18786319701E+01  0.18786319701E+01  0.00000000000E+00 0. -1.
          2    1    1    2  501    0  0.28073896159E+01 -0.33604008699E+02  0.10523381309E+04  0.10528782705E+04  0.00000000000E+00 0. -1.
          1    1    1    2  502    0 -0.28073896159E+01  0.33604008699E+02  0.17511927495E+03  0.17833639924E+03  0.00000000000E+00 0. -1.
</event>
<event>
 4    1  0.3927513E+003  0.3717030E+02  0.7546771E-02  0.1365916E+00
          2   -1    0    0  502    0  0.00000000000E+00  0.00000000000E+00  0.58963486996E+02  0.58963486996E+02  0.00000000000E+00 0.  1.
          1   -1    0    0  501    0 -0.00000000000E+00 -0.00000000000E+00 -0.53257073253E+02  0.53257073253E+02  0.00000000000E+00 0.  1.
          2    1    1    2  501    0  0.19771028017E+02  0.31475979456E+02  0.44843097689E+02  0.58245465419E+02  0.00000000000E+00 0.  1.
          1    1    1    2  502    0 -0.19771028017E+02 -0.31475979456E+02 -0.39136683946E+02  0.53975094830E+02  0.00000000000E+00 0.  1.
</event>
<event>
 4    1  0.3927513E+003  0.3585815E+02  0.7546771E-02  0.1374629E+00
          2   -1    0    0  502    0  0.00000000000E+00  0.00000000000E+00  0.21287505178E+03  0.21287505178E+03  0.00000000000E+00 0.  1.
          1   -1    0    0  501    0 -0.00000000000E+00 -0.00000000000E+00 -0.73468433530E+02  0.73468433530E+02  0.00000000000E+00 0. -1.
          2    1    1    2  501    0  0.29742735619E+02  0.20029384770E+02  0.20686342144E+03  0.20994828341E+03  0.00000000000E+00 0.  1.
          1    1    1    2  502    0 -0.29742735619E+02 -0.20029384770E+02 -0.67456803192E+02  0.76395201899E+02  0.00000000000E+00 0. -1.
</event>
<event>
 4    1  0.3927513E+003  0.2582441E+02  0.7546771E-02  0.1459788E+00
          2   -1    0    0  502    0  0.00000000000E+00  0.00000000000E+00  0.13258673129E+03  0.13258673129E+03  0.00000000000E+00 0. -1.
          1   -1    0    0  501    0 -0.00000000000E+00 -0.00000000000E+00 -0.74356639514E+01  0.74356639514E+01  0.00000000000E+00 0. -1.
          2    1    1    2  501    0  0.17614298805E+02  0.18884831707E+02  0.10239839931E+03  0.10560460488E+03  0.00000000000E+00 0. -1.
          1    1    1    2  502    0 -0.17614298805E+02 -0.18884831707E+02  0.22752668035E+02  0.34417790366E+02  0.00000000000E+00 0. -1.
</event>
<event>
 4    1  0.3927513E+003  0.2272113E+02  0.7546771E-02  0.1496030E+00
          2   -1    0    0  502    0  0.00000000000E+00  0.00000000000E+00  0.86695307513E+00  0.86695307513E+00  0.00000000000E+00 0.  1.
          1   -1    0    0  501    0 -0.00000000000E+00 -0.00000000000E+00 -0.63875324096E+03  0.63875324096E+03  0.00000000000E+00 0.  1.
          2    1    1    2  501    0 -0.36091178583E+01  0.22432659730E+02 -0.23569890070E+03  0.23679151535E+03  0.00000000000E+00 0.  1.
          1    1    1    2  502    0  0.36091178583E+01 -0.22432659730E+02 -0.40218738718E+03  0.40282867868E+03  0.00000000000E+00 0.  1.
</event>
<event>
 4    1  0.3927513E+003  0.2311969E+02  0.7546771E-02  0.1491001E+00
          2   -1    0    0  502    0  0.00000000000E+00  0.00000000000E+00  0.97057729074E+02  0.97057729074E+02  0.00000000000E+00 0.  1.
          1   -1    0    0  501    0 -0.00000000000E+00 -0.00000000000E+00 -0.34410527601E+03  0.34410527601E+03  0.00000000000E+00 0.  1.
          2    1    1    2  501    0 -0.89295977458E+00  0.23102434637E+02  0.95285459928E+02  0.98050184788E+02  0.00000000000E+00 0.  1.
          1    1    1    2  502    0  0.89295977458E+00 -0.23102434637E+02 -0.34233300686E+03  0.34311282029E+03  0.00000000000E+00 0.  1.
</event>
<event>
 4    1  0.3927513E+003  0.2190196E+02  0.7546771E-02  0.1506767E+00
          2   -1    0    0  502    0  0.00000000000E+00  0.00000000000E+00  0.92521256351E+03  0.92521256351E+03  0.00000000000E+00 0.  1.
          1   -1    0    0  501    0 -0.00000000000E+00 -0.00000000000E+00 -0.11891120395E+01  0.11891120395E+01  0.00000000000E+00 0. -1.
          2    1    1    2  501    0 -0.15169312521E+02  0.15798345200E+02  0.80987057550E+03  0.81016667718E+03  0.00000000000E+00 0.  1.
          1    1    1    2  502    0  0.15169312521E+02 -0.15798345200E+02  0.11415287597E+03  0.11623499836E+03  0.00000000000E+00 0. -1.
</event>
<event>
 4    1  0.3927513E+003  0.4159565E+02  0.7546771E-02  0.1339381E+00
          2   -1    0    0  502    0  0.00000000000E+00  0.00000000000E+00  0.51434977461E+03  0.51434977461E+03  0.00000000000E+00 0.  1.
          1   -1    0    0  501    0 -0.00000000000E+00 -0.00000000000E+00 -0.11781096185E+02  0.11781096185E+02  0.00000000000E+00 0.  1.
          2    1    1    2  501    0  0.11807653176E+02  0.39884553424E+02  0.47364390295E+03  0.47546687064E+03  0.00000000000E+00 0.  1.
          1    1    1    2  502    0 -0.11807653176E+02 -0.39884553424E+02  0.28924775477E+02  0.50664000156E+02  0.00000000000E+00 0.  1.
</event>
<event>
 4    1  0.3927513E+003  0.2293106E+02  0.7546771E-02  0.1493366E+00
          2   -1    0    0  502    0  0.00000000000E+00  0.00000000000E+00  0.22929740520E+03  0.22929740520E+03  0.00000000000E+00 0.  1.
          1   -1    0    0  501    0 -0.00000000000E+00 -0.00000000000E+00 -0.13677184816E+02  0.13677184816E+02  0.00000000000E+00 0.  1.
          2    1    1    2  501    0  0.19053390870E+02 -0.12759375384E+02  0.21864562604E+03  0.21984481607E+03  0.00000000000E+00 0.  1.
          1    1    1    2  502    0 -0.19053390870E+02  0.12759375384E+02 -0.30254056536E+01  0.23129773955E+02  0.00000000000E+00 0.  1.
</event>
<event>
 4    1  0.3927513E+003  0.4092426E+02  0.7546771E-02  0.1343153E+00
          2   -1    0    0  502    0  0.00000000000E+00  0.00000000000E+00  0.60043887302E+03  0.60043887302E+03  0.00000000000E+00 0. -1.
          1   -1    0    0  501    0 -0.00000000000E+00 -0.00000000000E+00 -0.12446258786E+03  0.12446258786E+03  0.00000000000E+00 0. -1.
          2    1    1    2  501    0  0.40253781838E+02  0.73775311208E+01  0.59635448588E+03  0.59775703069E+03  0.00000000000E+00 0. -1.
          1    1    1    2  502    0 -0.40253781838E+02 -0.73775311208E+01 -0.12037820072E+03  0.12714443019E+03  0.00000000000E+00 0. -1.
</event>
<event>
 4    1  0.3927513E+003  0.4856975E+02  0.7546771E-02  0.1304495E+00
          2   -1    0    0  502    0  0.00000000000E+00  0.00000000000E+00  0.34599181781E+03  0.34599181781E+03  0.00000000000E+00 0.  1.
          1   -1    0    0  501    0 -0.00000000000E+00 -0.00000000000E+00 -0.10721939598E+02  0.10721939598E+02  0.00000000000E+00 0.  1.
          2    1    1    2  501    0 -0.73696439168E+01  0.48007382666E+02  0.27525592761E+03  0.27950822193E+03  0.00000000000E+00 0.  1.
          1    1    1    2  502    0  0.73696439168E+01 -0.48007382666E+02  0.60013950607E+02  0.77205535484E+02  0.00000000000E+00 0.  1.
</event>
<event>
 4    1  0.3927513E+003  0.2652246E+02  0.7546771E-02  0.1452465E+00
          2   -1    0    0  502    0  0.00000000000E+00  0.00000000000E+00  0.11016554794E+02  0.11016554794E+02  0.00000000000E+00 0. -1.
          1   -1    0    0  501    0 -0.00000000000E+00 -0.00000000000E+00 -0.25569867263E+03  0.25569867263E+03  0.00000000000E+00 0.  1.
          2    1    1    2  501    0 -0.16184065089E+02 -0.21012302569E+02 -0.68284199602E+01  0.27387371930E+02  0.00000000000E+00 0. -1.
          1    1    1    2  502    0  0.16184065089E+02  0.21012302569E+02 -0.23785369788E+03  0.23932785550E+03  0.00000000000E+00 0.  1.
</event>
<event>
 4    1  0.3927513E+003  0.3235471E+02  0.7546771E-02  0.1400179E+00
          2   -1    0    0  502    0  0.00000000000E+00  0.00000000000E+00  0.21425922519E+01  0.21425922519E+01  0.00000000000E+00 0.  1.
          1   -1    0    0  501    0 -0.00000000000E+00 -0.00000000000E+00 -0.83554396312E+03  0.83554396312E+03  0.00000000000E+00 0.  1.
          2    1    1    2  501    0 -0.31617985562E+02 -0.68651590939E+01 -0.14679677933E+03  0.15032006467E+03  0.00000000000E+00 0.  1.
          1    1    1    2  502    0  0.31617985562E+02  0.68651590939E+01 -0.68660459154E+03  0.68736649071E+03  0.00000000000E+00 0.  1.
</event>
<event>
 4    1  0.3927513E+003  0.2916032E+02  0.7546771E-02  0.1427036E+00
          2   -1    0    0  502    0  0.00000000000E+00  0.00000000000E+00  0.18682930817E+04  0.18682930817E+04  0.00000000000E+00 0. -1.
          1   -1    0    0  501    0 -0.00000000000E+00 -0.00000000000E+00 -0.38396963138E+02  0.38396963138E+02  0.00000000000E+00 0.  1.
          2    1    1    2  501    0  0.25886992589E+02  0.13423405370E+02  0.18626260520E+04  0.18628542975E+04  0.00000000000E+00 0. -1.
          1    1    1    2  502    0 -0.25886992589E+02 -0.13423405370E+02 -0.32729933459E+02  0.43835747299E+02  0.00000000000E+00 0.  1.
</event>
<event>
 4    1  0.3927513E+003  0.2086146E+02  0.7546771E-02  0.1521252E+00
          2   -1    0    0  502    0  0.00000000000E+00  0.00000000000E+00  0.98575824813E+03  0.98575824813E+03  0.00000000000E+00 0. -1.
          1   -1    0    0  501    0 -0.00000000000E+00 -0.00000000000E+00 -0.10367771014E+01  0.10367771014E+01  0.00000000000E+00 0. -1.
          2    1    1    2  501    0 -0.16167842149E+02 -0.13183370971E+02  0.86622868904E+03  0.86647985672E+03  0.00000000000E+00 0. -1.
          1    1    1    2  502    0  0.16167842149E+02  0.13183370971E+02  0.11849278199E+03  0.12031516851E+03  0.00000000000E+00 0. -1.
</event>
<event>
 4    1  0.3927513E+003  0.2046721E+02  0.7546771E-02  0.1527009E+00
          2   -1    0    0  502    0  0.00000000000E+00  0.00000000000E+00  0.15495315140E+01  0.15495315140E+01  0.00000000000E+00 0. -1.
          1   -1    0    0  501    0 -0.00000000000E+00 -0.00000000000E+00 -0.31291217519E+03  0.31291217519E+03  0.00000000000E+00 0. -1.
          2    1    1    2  501    0  0.33337548791E-02  0.20467208228E+02 -0.97689225709E+02  0.99810277243E+02  0.00000000000E+00 0. -1.
          1    1    1    2  502    0 -0.33337548791E-02 -0.20467208228E+02 -0.21367341796E+03  0.21465142946E+03  0.00000000000E+00 0. -1.
</event>
<event>
 4    1  0.3927513E+003  0.2689863E+02  0.7546771E-02  0.1448629E+00
          2   -1    0    0  502    0  0.00000000000E+00  0.00000000000E+00  0.18964146472E+03  0.18964146472E+03  0.00000000000E+00 0.  1.
          1   -1    0    0  501    0 -0.00000000000E+00 -0.00000000000E+00 -0.41177303369E+01  0.41177303369E+01  0.00000000000E+00 0.  1.
          2    1    1    2  501    0  0.99013610534E+01 -0.25009987999E+02  0.11901771271E+03  0.12201947545E+03  0.00000000000E+00 0.  1.
          1    1    1    2  502    0 -0.99013610534E+01  0.25009987999E+02  0.66506021668E+02  0.71739719602E+02  0.00000000000E+00 0.  1.
</event>
<event>
 4    1  0.3927513E+003  0.2170241E+02  0.7546771E-02  0.1509468E+00
          2   -1    0    0  502    0  0.00000000000E+00  0.00000000000E+00  0.12457121195E+03  0.12457121195E+03  0.00000000000E+00 0.  1.
          1   -1    0    0  501    0 -0.00000000000E+00 -0.00000000000E+00 -0.59347312653E+02  0.59347312653E+02  0.00000000000E+00 0.  1.
          2    1    1    2  501    0  0.19751627011E+02 -0.89926470299E+01  0.12159371751E+03  0.12351528897E+03  0.00000000000E+00 0.  1.
          1    1    1    2  502    0 -0.19751627011E+02  0.89926470299E+01 -0.56369818213E+02  0.60403235638E+02  0.00000000000E+00 0.  1.
</event>
<event>
 4    1  0.3927513E+003  0.2141662E+02  0.7546771E-02  0.1513399E+00
          2   -1    0    0  502    0  0.00000000000E+00  0.00000000000E+00  0.57937756386E+03  0.57937756386E+03  0.00000000000E+00 0.  1.
          1   -1    0    0  501    0 -0.00000000000E+00 -0.00000000000E+00 -0.80378718891E+02  0.80378718891E+02  0.00000000000E+00 0.  1.
          2    1    1    2  501    0  0.14882292314E+02  0.15400937961E+02  0.57774903339E+03  0.57814584414E+03  0.00000000000E+00 0.  1.
          1    1    1    2  502    0 -0.14882292314E+02 -0.15400937961E+02 -0.78750188418E+02  0.81610438612E+02  0.00000000000E+00 0.  1.
</event>
<event>
 4    1  0.3927513E+003  0.2276783E+02  0.7546771E-02  0.1495434E+00
          2   -1    0    0  502    0  0.00000000000E+00  0.00000000000E+00  0.11131940570E+03  0.11131940570E+03  0.00000000000E+00 0. -1.
          1   -1    0    0  501    0 -0.00000000000E+00 -0.00000000000E+00 -0.63466676339E+03  0.63466676339E+03  0.00000000000E+00 0.  1.
          2    1    1    2  501    0  0.90494235644E+01  0.20892151229E+02  0.10994853586E+03  0.11228114083E+03  0.00000000000E+00 0. -1.
          1    1    1    2  502    0 -0.90494235644E+01 -0.20892151229E+02 -0.63329589355E+03  0.63370502825E+03  0.00000000000E+00 0.  1.
</event>
<event>
 4    1  0.3927513E+003  0.4006348E+02  0.7546771E-02  0.1348114E+00
          2   -1    0    0  502    0  0.00000000000E+00  0.00000000000E+00  0.85671340496E+01  0.85671340496E+01  0.00000000000E+00 0.  1.
          1   -1    0    0  501    0 -0.00000000000E+00 -0.00000000000E+00 -0.35036647116E+03  0.35036647116E+03  0.00000000000E+00 0. -1.
          2    1    1    2  501    0  0.38769111634E+02 -0.10101398215E+02 -0.48484853141E+02  0.62895653641E+02  0.00000000000E+00 0.  1.
          1    1    1    2  502    0 -0.38769111634E+02  0.10101398215E+02 -0.29331448397E+03  0.29603795156E+03  0.00000000000E+00 0. -1.
</event>
<event>
 4    1  0.3927513E+003  0.2110639E+02  0.7546771E-02  0.1517751E+00
          2   -1    0    0  502    0  0.00000000000E+00  0.00000000000E+00  0.87069700701E+03  0.87069700701E+03  0.00000000000E+00 0.  1.
          1   -1    0    0  501    0 -0.00000000000E+00 -0.00000000000E+00 -0.13869682048E+01  0.13869682048E+01  0.00000000000E+00 0. -1.
          2    1    1    2  501    0 -0.11378098282E+02 -0.17776909955E+02  0.78105797826E+03  0.78134310328E+03  0.00000000000E+00 0.  1.
          1    1    1    2  502    0  0.11378098282E+02  0.17776909955E+02  0.88252060552E+02  0.90740871937E+02  0.00000000000E+00 0. -1.
</event>
<event>
 4    1  0.3927513E+003  0.2538375E+02  0.7546771E-02  0.1464556E+00
          2   -1    0    0  502    0  0.00000000000E+00  0.00000000000E+00  0.14830742910E+04  0.14830742910E+04  0.00000000000E+00 0.  1.
          1   -1    0    0  501    0 -0.00000000000E+00 -0.00000000000E+00 -0.20921408673E+02  0.20921408673E+02  0.00000000000E+00 0.  1.
          2    1    1    2  501    0  0.24650115953E+02 -0.60586073075E+01  0.14752252448E+04  0.14754436139E+04  0.00000000000E+00 0.  1.
          1    1    1    2  502    0 -0.24650115953E+02  0.60586073075E+01 -0.13072362493E+02  0.28552085741E+02  0.00000000000E+00 0.  1.
</event>
<event>
 4    1  0.3927513E+003  0.3326214E+02  0.7546771E-02  0.1393210E+00
          2   -1    0    0  502    0  0.00000000000E+00  0.00000000000E+00  0.11528022199E+02  0.11528022199E+02  0.00000000000E+00 0. -1.
          1   -1    0    0  501    0 -0.00000000000E+00 -0.00000000000E+00 -0.12696161956E+03  0.12696161956E+03  0.00000000000E+00 0. -1.
          2    1    1    2  501    0 -0.31734264798E+02  0.99652437524E+01 -0.23506426866E+02  0.40729863115E+02  0.00000000000E+00 0. -1.
          1    1    1    2  502    0  0.31734264798E+02 -0.99652437524E+01 -0.91927170498E+02  0.97759778647E+02  0.00000000000E+00 0. -1.
</event>
<event>
 4    1  0.3927513E+003  0.2191486E+02  0.7546771E-02  0.1506593E+00
          2   -1    0    0  502    0  0.00000000000E+00  0.00000000000E+00  0.63334718425E+03  0.63334718425E+03  0.00000000000E+00 0.  1.
          1   -1    0    0  501    0 -0.00000000000E+00 -0.00000000000E+00 -0.24474241298E+02  0.24474241298E+02  0.00000000000E+00 0. -1.
          2    1    1    2  501    0 -0.15282391759E+02 -0.15706990019E+02  0.62821173996E+03  0.62859386829E+03  0.00000000000E+00 0.  1.
          1    1    1    2  502    0  0.15282391759E+02  0.15706990019E+02 -0.19338797008E+02  0.29227557254E+02  0.00000000000E+00 0. -1.
</event>
<event>
 4    1  0.3927513E+003  0.2025917E+02  0.7546771E-02  0.1530110E+00
          2   -1    0    0  502    0  0.00000000000E+00  0.00000000000E+00  0.18956005930E+03  0.18956005930E+03  0.00000000000E+00 0. -1.
          1   -1    0    0  501    0 -0.00000000000E+00 -0.00000000000E+00 -0.52444088338E+03  0.52444088338E+03  0.00000000000E+00 0. -1.
          2    1    1    2  501    0  0.20177392727E+02 -0.18184790678E+01  0.18882234578E+03  0.18990606181E+03  0.00000000000E+00 0. -1.
          1    1    1    2  502    0 -0.20177392727E+02  0.18184790678E+01 -0.52370316986E+03  0.52409488088E+03  0.00000000000E+00 0. -1.
</event>
<event>
 4    1  0.3927513E+003  0.3691347E+02  0.7546771E-02  0.1367588E+00
          2   -1    0    0  502    0  0.00000000000E+00  0.00000000000E+00  0.19592809546E+02  0.19592809546E+02  0.00000000000E+00 0. -1.
          1   -1    0    0  501    0 -0.00000000000E+00 -0.00000000000E+00 -0.53413671038E+03  0.53413671038E+03  0.00000000000E+00 0.  1.
          2    1    1    2  501    0  0.32026207154E+02  0.18355554613E+02  0.94019231346E+00  0.36925442332E+02  0.00000000000E+00 0. -1.
          1    1    1    2  502    0 -0.32026207154E+02 -0.18355554613E+02 -0.51548409315E+03  0.51680407759E+03  0.00000000000E+00 0.  1.
</event>
<event>
 4    1  0.3927513E+003  0.3540519E+02  0.7546771E-02  0.1377737E+00
          2   -1    0    0  502    0  0.00000000000E+00  0.00000000000E+00  0.13856252714E+04  0.13856252714E+04  0.00000000000E+00 0.  1.
          1   -1    0    0  501    0 -0.00000000000E+00 -0.00000000000E+00 -0.23412739466E+01  0.23412739466E+01  0.00000000000E+00 0.  1.
          2    1    1    2  501    0 -0.31947404677E+02 -0.15260752884E+02  0.12352578463E+04  0.12357651371E+04  0.00000000000E+00 0.  1.
          1    1    1    2  502    0  0.31947404677E+02  0.15260752884E+02  0.14802615109E+03  0.15220140817E+03  0.00000000000E+00 0.  1.
</event>
<event>
 4    1  0.3927513E+003  0.2756834E+02  0.7546771E-02  0.1441981E+00
          2   -1    0    0  502    0  0.00000000000E+00  0.00000000000E+00  0.19028612115E+04  0.19028612115E+04  0.00000000000E+00 0. -1.
          1   -1    0    0  501    0 -0.00000000000E+00 -0.00000000000E+00 -0.44445235847E+01  0.44445235847E+01  0.00000000000E+00 0.  1.
          2    1    1    2  501    0  0.27367277154E+02  0.33234634399E+01  0.18590028553E+04  0.18592072583E+04  0.00000000000E+00 0. -1.
          1    1    1    2  502    0 -0.27367277154E+02 -0.33234634399E+01  0.39413832594E+02  0.48098476772E+02  0.00000000000E+00 0.  1.
</event>
<event>
 4    1  0.3927513E+003  0.2092051E+02  0.7546771E-02  0.1520403E+00
          2   -1    0    0  502    0  0.00000000000E+00  0.00000000000E+00  0.14213220656E+01  0.14213220656E+01  0.00000000000E+00 0.  1.
          1   -1    0    0  501    0 -0.00000000000E+00 -0.00000000000E+00 -0.85862974278E+03  0.85862974278E+03  0.00000000000E+00 0.  1.
          2    1    1    2  501    0 -0.20498342713E+02 -0.41815667201E+01 -0.84215618744E+02  0.86775215325E+02  0.00000000000E+00 0.  1.
          1    1    1    2  502    0  0.20498342713E+02  0.41815667201E+01 -0.77299280197E+03  0.77327584952E+03  0.00000000000E+00 0.  1.
</event>
<event>
 4    1  0.3927513E+003  0.2903872E+02  0.7546771E-02  0.1428138E+00
          2   -1    0    0  502    0  0.00000000000E+00  0.00000000000E+00  0.29895924665E+03  0.29895924665E+03  0.00000000000E+00 0. -1.
          1   -1    0    0  501    0 -0.00000000000E+00 -0.00000000000E+00 -0.28274213687E+01  0.28274213687E+01  0.00000000000E+00 0. -1.
          2    1    1    2  501    0 -0.92765795365E+01  0.27517110697E+02  0.14065771382E+03  0.14362394914E+03  0.00000000000E+00 0. -1.
          1    1    1    2  502    0  0.92765795365E+01 -0.27517110697E+02  0.15547411147E+03  0.15816271888E+03  0.00000000000E+00 0. -1.
</event>
<event>
 4    1  0.3927513E+003  0.2078302E+02  0.7546771E-02  0.1522385E+00
          2   -1    0    0  502    0  0.00000000000E+00  0.00000000000E+00  0.51440436610E+03  0.51440436610E+03  0.00000000000E+00 0.  1.
          1   -1    0    0  501    0 -0.00000000000E+00 -0.00000000000E+00 -0.15415560255E+01  0.15415560255E+01  0.00000000000E+00 0.  1.
          2    1    1    2  501    0 -0.87166810212E+01  0.18866726747E+02  0.43050200610E+03  0.43100337721E+03  0.00000000000E+00 0.  1.
          1    1    1    2  502    0  0.87166810212E+01 -0.18866726747E+02  0.82360803967E+02  0.84942544913E+02  0.00000000000E+00 0.  1.
</event>
<event>
 4    1  0.3927513E+003  0.5095006E+02  0.7546771E-02  0.1294105E+00
          2   -1    0    0  502    0  0.00000000000E+00  0.00000000000E+00  0.74034386045E+03  0.74034386045E+03  0.00000000000E+00 0. -1.
          1   -1    0    0  501    0 -0.00000000000E+00 -0.00000000000E+00 -0.40148693352E+03  0.40148693352E+03  0.00000000000E+00 0. -1.
          2    1    1    2  501    0  0.48893365767E+02 -0.14329932421E+02  0.73784537094E+03  0.73960239291E+03  0.00000000000E+00 0. -1.
          1    1    1    2  502    0 -0.48893365767E+02  0.14329932421E+02 -0.39898844400E+03  0.40222840107E+03  0.00000000000E+00 0. -1.
</event>
<event>
 4    1  0.3927513E+003  0.3075546E+02  0.7546771E-02  0.1413143E+00
          2   -1    0    0  502    0  0.00000000000E+00  0.00000000000E+00  0.14936109397E+02  0.14936109397E+02  0.00000000000E+00 0. -1.
          1   -1    0    0  501    0 -0.00000000000E+00 -0.00000000000E+00 -0.18090907287E+04  0.18090907287E+04  0.00000000000E+00 0.  1.
          2    1    1    2  501    0  0.63356863577E+01 -0.30095804817E+02 -0.11692172188E+01  0.30777677920E+02  0.00000000000E+00 0. -1.
          1    1    1    2  502    0 -0.63356863577E+01  0.30095804817E+02 -0.17929854021E+04  0.17932491602E+04  0.00000000000E+00 0.  1.
</event>
<event>
 4    1  0.3927513E+003  0.5085194E+02  0.7546771E-02  0.1294520E+00
          2   -1    0    0  502    0  0.00000000000E+00  0.00000000000E+00  0.78492370805E+02  0.78492370805E+02  0.00000000000E+00 0.  1.
          1   -1    0    0  501    0 -0.00000000000E+00 -0.00000000000E+00 -0.35250581189E+02  0.35250581189E+02  0.00000000000E+00 0.  1.
          2    1    1    2  501    0 -0.61316101709E+01  0.50480894573E+02  0.70757475616E+01  0.51341830545E+02  0.00000000000E+00 0.  1.
          1    1    1    2  502    0  0.61316101709E+01 -0.50480894573E+02  0.36166042055E+02  0.62401121449E+02  0.00000000000E+00 0.  1.
</event>
<event>
 4    1  0.3927513E+003  0.3375969E+02  0.7546771E-02  0.1389499E+00
          2   -1    0    0  502    0  0.00000000000E+00  0.00000000000E+00  0.85863541774E+02  0.85863541774E+02  0.00000000000E+00 0. -1.
          1   -1    0    0  501    0 -0.00000000000E+00 -0.00000000000E+00 -0.92768814588E+03  0.92768814588E+03  0.00000000000E+00 0.  1.
          2    1    1    2  501    0 -0.32201900816E+01 -0.33605761698E+02  0.82224944665E+02  0.88885647709E+02  0.00000000000E+00 0. -1.
          1    1    1    2  502    0  0.32201900816E+01  0.33605761698E+02 -0.92404954877E+03  0.92466603994E+03  0.00000000000E+00 0.  1.
</event>
<event>
 4    1  0.3927513E+003  0.2089515E+02  0.7546771E-02  0.1520767E+00
          2   -1    0    0  502    0  0.00000000000E+00  0.00000000000E+00  0.17341178544E+03  0.17341178544E+03  0.00000000000E+00 0. -1.
          1   -1    0    0  501    0 -0.00000000000E+00 -0.00000000000E+00 -0.97244543451E+02  0.97244543451E+02  0.00000000000E+00 0. -1.
          2    1    1    2  501    0 -0.20186076859E+02 -0.53971912099E+01  0.17164841251E+03  0.17291554265E+03  0.00000000000E+00 0. -1.
          1    1    1    2  502    0  0.20186076859E+02  0.53971912099E+01 -0.95481170520E+02  0.97740786245E+02  0.00000000000E+00 0. -1.
</event>
<event>
 4    1  0.3927513E+003  0.2477452E+02  0.7546771E-02  0.1471342E+00
          2   -1    0    0  502    0  0.00000000000E+00  0.00000000000E+00  0.48395578688E+01  0.48395578688E+01  0.00000000000E+00 0.  1.
          1   -1    0    0  501    0 -0.00000000000E+00 -0.00000000000E+00 -0.83049114364E+03  0.83049114364E+03  0.00000000000E+00 0. -1.
          2    1    1    2  501    0  0.14894111165E+02  0.19797527512E+02 -0.28371874871E+02  0.37666164215E+02  0.00000000000E+00 0.  1.
          1    1    1    2  502    0 -0.14894111165E+02 -0.19797527512E+02 -0.79727971090E+03  0.79766453730E+03  0.00000000000E+00 0. -1.
</event>
<event>
 4    1  0.3927513E+003  0.2417887E+02  0.7546771E-02  0.1478203E+00
          2   -1    0    0  502    0  0.00000000000E+00  0.00000000000E+00  0.22832428340E+03  0.22832428340E+03  0.00000000000E+00 0.  1.
          1   -1    0    0  501    0 -0.00000000000E+00 -0.00000000000E+00 -0.36521203010E+01  0.36521203010E+01  0.00000000000E+00 0.  1.
          2    1    1    2  501    0 -0.16724470071E+02  0.17461662685E+02  0.17574976402E+03  0.17740517782E+03  0.00000000000E+00 0.  1.
          1    1    1    2  502    0  0.16724470071E+02 -0.17461662685E+02  0.48922399074E+02  0.54571225880E+02  0.00000000000E+00 0.  1.
</event>
<event>
 4    1  0.3927513E+003  0.2117203E+02  0.7546771E-02  0.1516823E+00
          2   -1    0    0  502    0  0.00000000000E+00  0.00000000000E+00  0.19972274792E+03  0.19972274792E+03  0.00000000000E+00 0. -1.
          1   -1    0    0  501    0 -0.00000000000E+00 -0.00000000000E+00 -0.97450459236E+01  0.97450459236E+01  0.00000000000E+00 0.  1.
          2    1    1    2  501    0  0.17822262736E+02  0.11428987838E+02  0.18687394712E+03  0.18806947367E+03  0.00000000000E+00 0. -1.
          1    1    1    2  502    0 -0.17822262736E+02 -0.11428987838E+02  0.31037548727E+01  0.21398320176E+02  0.00000000000E+00 0.  1.
</event>
<event>
 4    1  0.3927513E+003  0.3079809E+02  0.7546771E-02  0.1412785E+00
          2   -1    0    0  502    0  0.00000000000E+00  0.00000000000E+00  0.40639910290E+00  0.40639910290E+00  0.00000000000E+00 0. -1.
          1   -1    0    0  501    0 -0.00000000000E+00 -0.00000000000E+00 -0.24380969872E+04  0.24380969872E+04  0.00000000000E+00 0. -1.
          2    1    1    2  501    0 -0.17079967072E+02 -0.25628049519E+02 -0.96687156629E+03  0.96736195289E+03  0.00000000000E+00 0. -1.
          1    1    1    2  502    0  0.17079967072E+02  0.25628049519E+02 -0.14708190218E+04  0.14711414334E+04  0.00000000000E+00 0. -1.
</event>
<event>
 4    1  0.3927513E+003  0.2094215E+02  0.7546771E-02  0.1520092E+00
          2   -1    0    0  502    0  0.00000000000E+00  0.00000000000E+00  0.79165008606E+03  0.79165008606E+03  0.00000000000E+00 0. -1.
          1   -1    0    0  501    0 -0.00000000000E+00 -0.00000000000E+00 -0.54713784564E+01  0.54713784564E+01  0.00000000000E+00 0. -1.
          2    1    1    2  501    0  0.11070865259E+02  0.17776654235E+02  0.77093374833E+03  0.77121813893E+03  0.00000000000E+00 0. -1.
          1    1    1    2  502    0 -0.11070865259E+02 -0.17776654235E+02  0.15244959271E+02  0.25903325589E+02  0.00000000000E+00 0. -1.
</event>
<event>
 4    1  0.3927513E+003  0.2622678E+02  0.7546771E-02  0.1455534E+00
          2   -1    0    0  502    0  0.00000000000E+00  0.00000000000E+00  0.61288331467E+02  0.61288331467E+02  0.00000000000E+00 0.  1.
          1   -1    0    0  501    0 -0.00000000000E+00 -0.00000000000E+00 -0.14071886819E+04  0.14071886819E+04  0.00000000000E+00 0.  1.
          2    1    1    2  501    0 -0.15380881841E+02 -0.21243178010E+02  0.58354497012E+02  0.63977272994E+02  0.00000000000E+00 0.  1.
          1    1    1    2  502    0  0.15380881841E+02  0.21243178010E+02 -0.14042548474E+04  0.14044997403E+04  0.00000000000E+00 0.  1.
</event>
<event>
 4    1  0.4810422E+003  0.2877066E+02  0.7546771E-02  0.1430589E+00
          2   -1    0    0  502    0  0.00000000000E+00  0.00000000000E+00  0.12048739011E+04  0.12048739011E+04  0.00000000000E+00 0. -1.
          1   -1    0    0  501    0 -0.00000000000E+00 -0.00000000000E+00 -0.65899901970E+03  0.65899901970E+03  0.00000000000E+00 0. -1.
          2    1    1    2  501    0  0.11641104590E+02  0.26310373511E+02  0.12043880055E+04  0.12047315962E+04  0.00000000000E+00 0. -1.
          1    1    1    2  502    0 -0.11641104590E+02 -0.26310373511E+02 -0.65851312415E+03  0.65914132456E+03  0.00000000000E+00 0. -1.
</event>
<event>
 4    1  0.3927513E+003  0.2108168E+02  0.7546771E-02  0.1518102E+00
          2   -1    0    0  502    0  0.00000000000E+00  0.00000000000E+00  0.21263327530E+02  0.21263327530E+02  0.00000000000E+00 0.  1.
          1   -1    0    0  501    0 -0.00000000000E+00 -0.00000000000E+00 -0.18169484636E+03  0.18169484636E+03  0.00000000000E+00 0. -1.
          2    1    1    2  501    0  0.56345657303E+01 -0.20314742069E+02  0.15248142064E+02  0.26018126618E+02  0.00000000000E+00 0.  1.
          1    1    1    2  502    0 -0.56345657303E+01  0.20314742069E+02 -0.17567966089E+03  0.17694004727E+03  0.00000000000E+00 0. -1.
</event>
<event>
 4    1  0.3927513E+003  0.2243906E+02  0.7546771E-02  0.1499665E+00
          2   -1    0    0  502    0  0.00000000000E+00  0.00000000000E+00  0.18703432719E+03  0.18703432719E+03  0.00000000000E+00 0. -1.
          1   -1    0    0  501    0 -0.00000000000E+00 -0.00000000000E+00 -0.36762079122E+02  0.36762079122E+02  0.00000000000E+00 0. -1.
          2    1    1    2  501    0  0.10748476643E+02 -0.19697245207E+02  0.18285929934E+03  0.18423092730E+03  0.00000000000E+00 0. -1.
          1    1    1    2  502    0 -0.10748476643E+02  0.19697245207E+02 -0.32587051271E+02  0.39565479012E+02  0.00000000000E+00 0. -1.
</event>
<event>
 4    1  0.3927513E+003  0.2140273E+02  0.7546771E-02  0.1513592E+00
          2   -1    0    0  502    0  0.00000000000E+00  0.00000000000E+00  0.16435836888E+01  0.16435836888E+01  0.00000000000E+00 0. -1.
          1   -1    0    0  501    0 -0.00000000000E+00 -0.00000000000E+00 -0.28552277680E+03  0.28552277680E+03  0.00000000000E+00 0.  1.
          2    1    1    2  501    0  0.21340976806E+02  0.16246539088E+01 -0.11975407173E+03  0.12165161112E+03  0.00000000000E+00 0. -1.
          1    1    1    2  502    0 -0.21340976806E+02 -0.16246539088E+01 -0.16412512138E+03  0.16551474937E+03  0.00000000000E+00 0.  1.
</event>
<event>
 4    1  0.3927513E+003  0.2956099E+02  0.7546771E-02  0.1423450E+00
          2   -1    0    0  502    0  0.00000000000E+00  0.00000000000E+00  0.56345271484E+01  0.56345271484E+01  0.00000000000E+00 0. -1.
          1   -1    0    0  501    0 -0.00000000000E+00 -0.00000000000E+00 -0.25650109664E+03  0.25650109664E+03  0.00000000000E+00 0. -1.
          2    1    1    2  501    0  0.26095924842E+02  0.13887213280E+02 -0.43020086003E+02  0.52197507467E+02  0.00000000000E+00 0. -1.
          1    1    1    2  502    0 -0.26095924842E+02 -0.13887213280E+02 -0.20784648349E+03  0.20993811632E+03  0.00000000000E+00 0. -1.
</event>
<event>
 4    1  0.3927513E+003  0.2141095E+02  0.7546771E-02  0.1513478E+00
          2   -1    0    0  502    0  0.00000000000E+00  0.00000000000E+00  0.22854120366E+02  0.22854120366E+02  0.00000000000E+00 0.  1.
          1   -1    0    0  501    0 -0.00000000000E+00 -0.00000000000E+00 -0.20884156340E+02  0.20884156340E+02  0.00000000000E+00 0.  1.
          2    1    1    2  501    0  0.61613029813E+01  0.20505284479E+02 -0.33623177241E+01  0.21673336764E+02  0.00000000000E+00 0.  1.
          1    1    1    2  502    0 -0.61613029813E+01 -0.20505284479E+02  0.53322817500E+01  0.22064939942E+02  0.00000000000E+00 0.  1.
</event>
<event>
 4    1  0.3927513E+003  0.2954925E+02  0.7546771E-02  0.1423554E+00
          2   -1    0    0  502    0  0.00000000000E+00  0.00000000000E+00  0.10399505628E+02  0.10399505628E+02  0.00000000000E+00 0.  1.
          1   -1    0    0  501    0 -0.00000000000E+00 -0.00000000000E+00 -0.41357542373E+03  0.41357542373E+03  0.00000000000E+00 0.  1.
          2    1    1    2  501    0  0.25320208399E+00  0.29548166901E+02 -0.12338092530E+02  0.32021661509E+02  0.00000000000E+00 0.  1.
          1    1    1    2  502    0 -0.25320208399E+00 -0.29548166901E+02 -0.39083782557E+03  0.39195326785E+03  0.00000000000E+00 0.  1.
</event>
<event>
 4    1  0.3927513E+003  0.2248442E+02  0.7546771E-02  0.1499076E+00
          2   -1    0    0  502    0  0.00000000000E+00  0.00000000000E+00  0.10229882957E+04  0.10229882957E+04  0.00000000000E+00 0. -1.
          1   -1    0    0  501    0 -0.00000000000E+00 -0.00000000000E+00 -0.13703092304E+01  0.13703092304E+01  0.00000000000E+00 0. -1.
          2    1    1    2  501    0 -0.20246199488E+02  0.97796001050E+01  0.92034744278E+03  0.92062205307E+03  0.00000000000E+00 0. -1.
          1    1    1    2  502    0  0.20246199488E+02 -0.97796001050E+01  0.10127054364E+03  0.10373655181E+03  0.00000000000E+00 0. -1.
</event>
<event>
 4    1  0.3927513E+003  0.4243564E+02  0.7546771E-02  0.1334775E+00
          2   -1    0    0  502    0  0.00000000000E+00  0.00000000000E+00  0.13419891688E+04  0.13419891688E+04  0.00000000000E+00 0.  1.
          1   -1    0    0  501    0 -0.00000000000E+00 -0.00000000000E+00 -0.11275312893E+03  0.11275312893E+03  0.00000000000E+00 0.  1.
          2    1    1    2  501    0 -0.32695845969E+02  0.27051162412E+02  0.13376479871E+04  0.13383209336E+04  0.00000000000E+00 0.  1.
          1    1    1    2  502    0  0.32695845969E+02 -0.27051162412E+02 -0.10841194725E+03  0.11642136418E+03  0.00000000000E+00 0.  1.
</event>
<event>
 4    1  0.3927513E+003  0.2069794E+02  0.7546771E-02  0.1523621E+00
          2   -1    0    0  502    0  0.00000000000E+00  0.00000000000E+00  0.10872010465E+03  0.10872010465E+03  0.00000000000E+00 0.  1.
          1   -1    0    0  501    0 -0.00000000000E+00 -0.00000000000E+00 -0.15029179806E+02  0.15029179806E+02  0.00000000000E+00 0. -1.
          2    1    1    2  501    0 -0.15822602943E+02 -0.13343537359E+02  0.99993374815E+02  0.10211307340E+03  0.00000000000E+00 0.  1.
          1    1    1    2  502    0  0.15822602943E+02  0.13343537359E+02 -0.63024499690E+01  0.21636211054E+02  0.00000000000E+00 0. -1.
</event>
<event>
 4    1  0.3927513E+003  0.2062805E+02  0.7546771E-02  0.1524642E+00
          2   -1    0    0  502    0  0.00000000000E+00  0.00000000000E+00  0.32672710900E+02  0.32672710900E+02  0.00000000000E+00 0. -1.
          1   -1    0    0  501    0 -0.00000000000E+00 -0.00000000000E+00 -0.53260463356E+03  0.53260463356E+03  0.00000000000E+00 0. -1.
          2    1    1    2  501    0 -0.19216522398E+02 -0.74994341166E+01  0.29195690669E+02  0.35747791523E+02  0.00000000000E+00 0. -1.
          1    1    1    2  502    0  0.19216522398E+02  0.74994341166E+01 -0.52912761333E+03  0.52952955294E+03  0.00000000000E+00 0. -1.
</event>
<event>
 4    1  0.3927513E+003  0.2096191E+02  0.7546771E-02  0.1519809E+00
          2   -1    0    0  502    0  0.00000000000E+00  0.00000000000E+00  0.45773683261E+03  0.45773683261E+03  0.00000000000E+00 0. -1.
          1   -1    0    0  501    0 -0.00000000000E+00 -0.00000000000E+00 -0.16877310820E+01  0.16877310820E+01  0.00000000000E+00 0.  1.
          2    1    1    2  501    0  0.15001341344E+02 -0.14641088350E+02  0.37887088936E+03  0.37945032944E+03  0.00000000000E+00 0. -1.
          1    1    1    2  502    0 -0.15001341344E+02  0.14641088350E+02  0.77178212167E+02  0.79974234247E+02  0.00000000000E+00 0.  1.
</event>
<event>
 4    1  0.3927513E+003  0.2194364E+02  0.7546771E-02  0.1506207E+00
          2   -1    0    0  502    0  0.00000000000E+00  0.00000000000E+00  0.95951599549E+03  0.95951599549E+03  0.00000000000E+00 0. -1.
          1   -1    0    0  501    0 -0.00000000000E+00 -0.00000000000E+00 -0.12299171265E+02  0.12299171265E+02  0.00000000000E+00 0.  1.
          2    1    1    2  501    0  0.21202428349E+02 -0.56551207308E+01  0.94949957754E+03  0.94975311061E+03  0.00000000000E+00 0. -1.
          1    1    1    2  502    0 -0.21202428349E+02  0.56551207308E+01 -0.22827533246E+01  0.22062056140E+02  0.00000000000E+00 0.  1.
</event>
<event>
 4    1  0.3927513E+003  0.4099470E+02  0.7546771E-02  0.1342753E+00
          2   -1    0    0  502    0  0.00000000000E+00  0.00000000000E+00  0.52140862038E+03  0.52140862038E+03  0.00000000000E+00 0. -1.
          1   -1    0    0  501    0 -0.00000000000E+00 -0.00000000000E+00 -0.37440204789E+03  0.37440204789E+03  0.00000000000E+00 0. -1.
          2    1    1    2  501    0 -0.14715650873E+02  0.38262446715E+02  0.51947650571E+03  0.52109155164E+03  0.00000000000E+00 0. -1.
          1    1    1    2  502    0  0.14715650873E+02 -0.38262446715E+02 -0.37246993323E+03  0.37471911663E+03  0.00000000000E+00 0. -1.
</event>
<event>
 4    1  0.3927513E+003  0.2604600E+02  0.7546771E-02  0.1457434E+00
          2   -1    0    0  502    0  0.00000000000E+00  0.00000000000E+00  0.10552395773E+04  0.10552395773E+04  0.00000000000E+00 0.  1.
          1   -1    0    0  501    0 -0.00000000000E+00 -0.00000000000E+00 -0.27718113097E+03  0.27718113097E+03  0.00000000000E+00 0.  1.
          2    1    1    2  501    0  0.25985658640E+02 -0.17719395172E+01  0.10544665393E+04  0.10547881667E+04  0.00000000000E+00 0.  1.
          1    1    1    2  502    0 -0.25985658640E+02  0.17719395172E+01 -0.27640809299E+03  0.27763254149E+03  0.00000000000E+00 0.  1.
</event>
<event>
 4    1  0.3927513E+003  0.2880847E+02  0.7546771E-02  0.1430241E+00
          2   -1    0    0  502    0  0.00000000000E+00  0.00000000000E+00  0.79331326377E+01  0.79331326377E+01  0.00000000000E+00 0. -1.
          1   -1    0    0  501    0 -0.00000000000E+00 -0.00000000000E+00 -0.10848347930E+03  0.10848347930E+03  0.00000000000E+00 0. -1.
          2    1    1    2  501    0  0.16112833337E+02 -0.23881037886E+02 -0.61266603551E+02  0.67701728777E+02  0.00000000000E+00 0. -1.
          1    1    1    2  502    0 -0.16112833337E+02  0.23881037886E+02 -0.39283743114E+02  0.48714883164E+02  0.00000000000E+00 0. -1.
</event>
<event>
 4    1  0.3927513E+003  0.2949615E+02  0.7546771E-02  0.1424026E+00
          2   -1    0    0  502    0  0.00000000000E+00  0.00000000000E+00  0.35642866819E+02  0.35642866819E+02  0.00000000000E+00 0.  1.
          1   -1    0    0  501    0 -0.00000000000E+00 -0.00000000000E+00 -0.55764268870E+02  0.55764268870E+02  0.00000000000E+00 0. -1.
          2    1    1    2  501    0 -0.27062204749E+02 -0.11732854959E+02  0.24210098736E+02  0.38159555712E+02  0.00000000000E+00 0.  1.
          1    1    1    2  502    0  0.27062204749E+02  0.11732854959E+02 -0.44331500788E+02  0.53247579977E+02  0.00000000000E+00 0. -1.
</event>
<event>
 4    1  0.3927513E+003  0.2038634E+02  0.7546771E-02  0.1528209E+00
          2   -1    0    0  502    0  0.00000000000E+00  0.00000000000E+00  0.41286337103E+02  0.41286337103E+02  0.00000000000E+00 0. -1.
          1   -1    0    0  501    0 -0.00000000000E+00 -0.00000000000E+00 -0.17868672761E+02  0.17868672761E+02  0.00000000000E+00 0.  1.
          2    1    1    2  501    0 -0.18398216836E+02  0.87811390695E+01  0.31253455223E+02  0.37314625142E+02  0.00000000000E+00 0. -1.
          1    1    1    2  502    0  0.18398216836E+02 -0.87811390695E+01 -0.78357908812E+01  0.21840384722E+02  0.00000000000E+00 0.  1.
</event>
<event>
 4    1  0.3927513E+003  0.2267566E+02  0.7546771E-02  0.1496612E+00
          2   -1    0    0  502    0  0.00000000000E+00  0.00000000000E+00  0.18684176858E+02  0.18684176858E+02  0.00000000000E+00 0. -1.
          1   -1    0    0  501    0 -0.00000000000E+00 -0.00000000000E+00 -0.28504174810E+03  0.28504174810E+03  0.00000000000E+00 0. -1.
          2    1    1    2  501    0 -0.21320692868E+02 -0.77209730071E+01  0.11167206743E+02  0.25276310550E+02  0.00000000000E+00 0. -1.
          1    1    1    2  502    0  0.21320692868E+02  0.77209730071E+01 -0.27752477799E+03  0.27844961441E+03  0.00000000000E+00 0. -1.
</event>
<event>
 4    1  0.3927513E+003  0.3027728E+02  0.7546771E-02  0.1417202E+00
          2   -1    0    0  502    0  0.00000000000E+00  0.00000000000E+00  0.35972584890E+01  0.35972584890E+01  0.00000000000E+00 0. -1.
          1   -1    0    0  501    0 -0.00000000000E+00 -0.00000000000E+00 -0.30948498812E+03  0.30948498812E+03  0.00000000000E+00 0. -1.
          2    1    1    2  501    0  0.30259768302E+02 -0.10296588679E+01 -0.87163449727E+02  0.92272318402E+02  0.00000000000E+00 0. -1.
          1    1    1    2  502    0 -0.30259768302E+02  0.10296588679E+01 -0.21872427990E+03  0.22080992821E+03  0.00000000000E+00 0. -1.
</event>
<event>
 4    1  0.3927513E+003  0.4767682E+02  0.7546771E-02  0.1308572E+00
          2   -1    0    0  502    0  0.00000000000E+00  0.00000000000E+00  0.10745629039E+04  0.10745629039E+04  0.00000000000E+00 0. -1.
          1   -1    0    0  501    0 -0.00000000000E+00 -0.00000000000E+00 -0.28657326993E+02  0.28657326993E+02  0.00000000000E+00 0. -1.
          2    1    1    2  501    0 -0.47155729312E+02 -0.70296688787E+01  0.10538140049E+04  0.10548919546E+04  0.00000000000E+00 0. -1.
          1    1    1    2  502    0  0.47155729312E+02  0.70296688787E+01 -0.79084279955E+01  0.48328276245E+02  0.00000000000E+00 0. -1.
</event>
<event>
 4    1  0.3927513E+003  0.6173962E+02  0.7546771E-02  0.1254034E+00
          2   -1    0    0  502    0  0.00000000000E+00  0.00000000000E+00  0.11040319608E+04  0.11040319608E+04  0.00000000000E+00 0.  1.
          1   -1    0    0  501    0 -0.00000000000E+00 -0.00000000000E+00 -0.11045899722E+03  0.11045899722E+03  0.00000000000E+00 0.  1.
          2    1    1    2  501    0  0.10164750045E+02  0.60897110283E+02  0.10944663314E+04  0.10962063358E+04  0.00000000000E+00 0.  1.
          1    1    1    2  502    0 -0.10164750045E+02 -0.60897110283E+02 -0.10089336780E+03  0.11828462220E+03  0.00000000000E+00 0.  1.
</event>
<event>
 4    1  0.3927513E+003  0.2046791E+02  0.7546771E-02  0.1526999E+00
          2   -1    0    0  502    0  0.00000000000E+00  0.00000000000E+00  0.52185497927E+02  0.52185497927E+02  0.00000000000E+00 0. -1.
          1   -1    0    0  501    0 -0.00000000000E+00 -0.00000000000E+00 -0.81603483729E+02  0.81603483729E+02  0.00000000000E+00 0.  1.
          2    1    1    2  501    0 -0.20467907084E+02 -0.14408825714E-01  0.48809928824E+02  0.52927729782E+02  0.00000000000E+00 0. -1.
          1    1    1    2  502    0  0.20467907084E+02  0.14408825714E-01 -0.78227914626E+02  0.80861251874E+02  0.00000000000E+00 0.  1.
</event>
<event>
 4    1  0.3927513E+003  0.2110961E+02  0.7546771E-02  0.1517706E+00
          2   -1    0    0  502    0  0.00000000000E+00  0.00000000000E+00  0.59752948901E+03  0.59752948901E+03  0.00000000000E+00 0. -1.
          1   -1    0    0  501    0 -0.00000000000E+00 -0.00000000000E+00 -0.33844981534E+02  0.33844981534E+02  0.00000000000E+00 0. -1.
          2    1    1    2  501    0  0.86288579387E+01 -0.19265474758E+02  0.59403208108E+03  0.59440703988E+03  0.00000000000E+00 0. -1.
          1    1    1    2  502    0 -0.86288579387E+01  0.19265474758E+02 -0.30347573599E+02  0.36967430670E+02  0.00000000000E+00 0. -1.
</event>
<event>
 4    1  0.3927513E+003  0.2028328E+02  0.7546771E-02  0.1529748E+00
          2   -1    0    0  502    0  0.00000000000E+00  0.00000000000E+00  0.65767069456E+02  0.65767069456E+02  0.00000000000E+00 0.  1.
          1   -1    0    0  501    0 -0.00000000000E+00 -0.00000000000E+00 -0.10836727763E+04  0.10836727763E+04  0.00000000000E+00 0.  1.
          2    1    1    2  501    0 -0.20114095319E+02  0.26142799724E+01  0.64105861818E+02  0.67238179703E+02  0.00000000000E+00 0.  1.
          1    1    1    2  502    0  0.20114095319E+02 -0.26142799724E+01 -0.10820115687E+04  0.10822016661E+04  0.00000000000E+00 0.  1.
</event>
<event>
 4    1  0.3927513E+003  0.2054557E+02  0.7546771E-02  0.1525853E+00
          2   -1    0    0  502    0  0.00000000000E+00  0.00000000000E+00  0.26627202410E+03  0.26627202410E+03  0.00000000000E+00 0. -1.
          1   -1    0    0  501    0 -0.00000000000E+00 -0.00000000000E+00 -0.26007138700E+02  0.26007138700E+02  0.00000000000E+00 0.  1.
          2    1    1    2  501    0  0.48626772642E+01  0.19961838565E+02  0.26174793456E+03  0.26255304583E+03  0.00000000000E+00 0. -1.
          1    1    1    2  502    0 -0.48626772642E+01 -0.19961838565E+02 -0.21483049157E+02  0.29726116971E+02  0.00000000000E+00 0.  1.
</event>
<event>
 4    1  0.3927513E+003  0.2966574E+02  0.7546771E-02  0.1422524E+00
          2   -1    0    0  502    0  0.00000000000E+00  0.00000000000E+00  0.16937364926E+03  0.16937364926E+03  0.00000000000E+00 0. -1.
          1   -1    0    0  501    0 -0.00000000000E+00 -0.00000000000E+00 -0.51797732241E+02  0.51797732241E+02  0.00000000000E+00 0.  1.
          2    1    1    2  501    0 -0.13295708127E+01  0.29635928902E+02  0.16368055880E+03  0.16634717121E+03  0.00000000000E+00 0. -1.
          1    1    1    2  502    0  0.13295708127E+01 -0.29635928902E+02 -0.46104641780E+02  0.54824210292E+02  0.00000000000E+00 0.  1.
</event>
<event>
 4    1  0.3927513E+003  0.4597241E+02  0.7546771E-02  0.1316647E+00
          2   -1    0    0  502    0  0.00000000000E+00  0.00000000000E+00  0.10442963549E+04  0.10442963549E+04  0.00000000000E+00 0. -1.
          1   -1    0    0  501    0 -0.00000000000E+00 -0.00000000000E+00 -0.51526117637E+03  0.51526117637E+03  0.00000000000E+00 0. -1.
          2    1    1    2  501    0  0.23913247844E+02  0.39263461034E+02  0.10427634616E+04  0.10437763648E+04  0.00000000000E+00 0. -1.
          1    1    1    2  502    0 -0.23913247844E+02 -0.39263461034E+02 -0.51372828312E+03  0.51578116646E+03  0.00000000000E+00 0. -1.
</event>
<event>
 4    1  0.3927513E+003  0.4101376E+02  0.7546771E-02  0.1342645E+00
          2   -1    0    0  502    0  0.00000000000E+00  0.00000000000E+00  0.14458389795E+02  0.14458389795E+02  0.00000000000E+00 0.  1.
          1   -1    0    0  501    0 -0.00000000000E+00 -0.00000000000E+00 -0.53374692593E+03  0.53374692593E+03  0.00000000000E+00 0.  1.
          2    1    1    2  501    0  0.40733141849E+02 -0.47895202379E+01 -0.17249096000E+02  0.44493366492E+02  0.00000000000E+00 0.  1.
          1    1    1    2  502    0 -0.40733141849E+02  0.47895202379E+01 -0.50203944013E+03  0.50371194923E+03  0.00000000000E+00 0.  1.
</event>
<event>
 4    1  0.3927513E+003  0.2646936E+02  0.7546771E-02  0.1453013E+00
          2   -1    0    0  502    0  0.00000000000E+00  0.00000000000E+00  0.79914426689E+03  0.79914426689E+03  0.00000000000E+00 0. -1.
          1   -1    0    0  501    0 -0.00000000000E+00 -0.00000000000E+00 -0.27906765190E+01  0.27906765190E+01  0.00000000000E+00 0.  1.
          2    1    1    2  501    0 -0.25346095677E+02 -0.76290487734E+01  0.73023961978E+03  0.73071918631E+03  0.00000000000E+00 0. -1.
          1    1    1    2  502    0  0.25346095677E+02  0.76290487734E+01  0.66113970591E+02  0.71215757095E+02  0.00000000000E+00 0.  1.
</event>
<event>
 4    1  0.3927513E+003  0.3468457E+02  0.7546771E-02  0.1382794E+00
          2   -1    0    0  502    0  0.00000000000E+00  0.00000000000E+00  0.68145161780E+02  0.68145161780E+02  0.00000000000E+00 0.  1.
          1   -1    0    0  501    0 -0.00000000000E+00 -0.00000000000E+00 -0.29238834933E+02  0.29238834933E+02  0.00000000000E+00 0. -1.
          2    1    1    2  501    0 -0.48066583596E+00  0.34681238363E+02  0.50102897772E+02  0.60937014197E+02  0.00000000000E+00 0.  1.
          1    1    1    2  502    0  0.48066583596E+00 -0.34681238363E+02 -0.11196570925E+02  0.36446982516E+02  0.00000000000E+00 0. -1.
</event>
<event>
 4    1  0.3927513E+003  0.2764642E+02  0.7546771E-02  0.1441221E+00
          2   -1    0    0  502    0  0.00000000000E+00  0.00000000000E+00  0.64600630325E+02  0.64600630325E+02  0.00000000000E+00 0.  1.
          1   -1    0    0  501    0 -0.00000000000E+00 -0.00000000000E+00 -0.86516750144E+03  0.86516750144E+03  0.00000000000E+00 0. -1.
          2    1    1    2  501    0  0.15857411131E+02  0.22646569142E+02  0.61410943808E+02  0.67347075668E+02  0.00000000000E+00 0.  1.
          1    1    1    2  502    0 -0.15857411131E+02 -0.22646569142E+02 -0.86197781492E+03  0.86242105609E+03  0.00000000000E+00 0. -1.
</event>
<event>
 4    1  0.3927513E+003  0.8083930E+02  0.7546771E-02  0.1201912E+00
          2   -1    0    0  502    0  0.00000000000E+00  0.00000000000E+00  0.54533828052E+03  0.54533828052E+03  0.00000000000E+00 0. -1.
          1   -1    0    0  501    0 -0.00000000000E+00 -0.00000000000E+00 -0.12061769360E+02  0.12061769360E+02  0.00000000000E+00 0. -1.
          2    1    1    2  501    0 -0.53400074497E+02 -0.60691170062E+02  0.24416791527E+03  0.25720217131E+03  0.00000000000E+00 0. -1.
          1    1    1    2  502    0  0.53400074497E+02  0.60691170062E+02  0.28910859588E+03  0.30019787856E+03  0.00000000000E+00 0. -1.
</event>
<event>
 4    1  0.3927513E+003  0.3030219E+02  0.7546771E-02  0.1416988E+00
          2   -1    0    0  502    0  0.00000000000E+00  0.00000000000E+00  0.28213012397E+03  0.28213012397E+03  0.00000000000E+00 0. -1.
          1   -1    0    0  501    0 -0.00000000000E+00 -0.00000000000E+00 -0.35968762986E+01  0.35968762986E+01  0.00000000000E+00 0.  1.
          2    1    1    2  501    0  0.14918862250E+02 -0.26375178008E+02  0.18333661678E+03  0.18582394226E+03  0.00000000000E+00 0. -1.
          1    1    1    2  502    0 -0.14918862250E+02  0.26375178008E+02  0.95196630891E+02  0.99903058005E+02  0.00000000000E+00 0.  1.
</event>
<event>
 4    1  0.3927513E+003  0.2633960E+02  0.7546771E-02  0.1454357E+00
          2   -1    0    0  502    0  0.00000000000E+00  0.00000000000E+00  0.56605130794E+00  0.56605130794E+00  0.00000000000E+00 0.  1.
          1   -1    0    0  501    0 -0.00000000000E+00 -0.00000000000E+00 -0.13836519890E+04  0.13836519890E+04  0.00000000000E+00 0.  1.
          2    1    1    2  501    0 -0.23904257835E+02 -0.11061688987E+02 -0.45765515392E+03  0.45841249374E+03  0.00000000000E+00 0.  1.
          1    1    1    2  502    0  0.23904257835E+02  0.11061688987E+02 -0.92543078373E+03  0.92580554653E+03  0.00000000000E+00 0.  1.
</event>
<event>
 4    1  0.3927513E+003  0.3288749E+02  0.7546771E-02  0.1396056E+00
          2   -1    0    0  502    0  0.00000000000E+00  0.00000000000E+00  0.15589114080E+03  0.15589114080E+03  0.00000000000E+00 0.  1.
          1   -1    0    0  501    0 -0.00000000000E+00 -0.00000000000E+00 -0.10946539055E+02  0.10946539055E+02  0.00000000000E+00 0.  1.
          2    1    1    2  501    0 -0.80945538970E+01 -0.31875781873E+02  0.12295164904E+03  0.12727409506E+03  0.00000000000E+00 0.  1.
          1    1    1    2  502    0  0.80945538970E+01  0.31875781873E+02  0.21992952704E+02  0.39563584791E+02  0.00000000000E+00 0.  1.
</event>
<event>
 4    1  0.3927513E+003  0.2211416E+02  0.7546771E-02  0.1503932E+00
          2   -1    0    0  502    0  0.00000000000E+00  0.00000000000E+00  0.79387829308E+02  0.79387829308E+02  0.00000000000E+00 0. -1.
          1   -1    0    0  501    0 -0.00000000000E+00 -0.00000000000E+00 -0.86143996733E+02  0.86143996733E+02  0.00000000000E+00 0. -1.
          2    1    1    2  501    0  0.76781575909E+01 -0.20738422018E+02  0.76373681674E+02  0.79510851487E+02  0.00000000000E+00 0. -1.
          1    1    1    2  502    0 -0.76781575909E+01  0.20738422018E+02 -0.83129849099E+02  0.86020974553E+02  0.00000000000E+00 0. -1.
</event>
<event>
 4    1  0.3927513E+003  0.3707425E+02  0.7546771E-02  0.1366540E+00
          2   -1    0    0  502    0  0.00000000000E+00  0.00000000000E+00  0.23020709611E+04  0.23020709611E+04  0.00000000000E+00 0. -1.
          1   -1    0    0  501    0 -0.00000000000E+00 -0.00000000000E+00 -0.16913202800E+01  0.16913202800E+01  0.00000000000E+00 0.  1.
          2    1    1    2  501    0  0.36650292897E+02  0.55906988810E+01  0.20767057022E+04  0.20770366086E+04  0.00000000000E+00 0. -1.
          1    1    1    2  502    0 -0.36650292897E+02 -0.55906988810E+01  0.22367393866E+03  0.22672567283E+03  0.00000000000E+00 0.  1.
</event>
<event>
 4    1  0.3927513E+003  0.2497417E+02  0.7546771E-02  0.1469093E+00
          2   -1    0    0  502    0  0.00000000000E+00  0.00000000000E+00  0.34326092227E+03  0.34326092227E+03  0.00000000000E+00 0.  1.
          1   -1    0    0  501    0 -0.00000000000E+00 -0.00000000000E+00 -0.10651628891E+02  0.10651628891E+02  0.00000000000E+00 0. -1.
          2    1    1    2  501    0  0.13758137607E+02  0.20842809506E+02  0.32746263123E+03  0.32841358667E+03  0.00000000000E+00 0.  1.
          1    1    1    2  502    0 -0.13758137607E+02 -0.20842809506E+02  0.51466621427E+01  0.25498964483E+02  0.00000000000E+00 0. -1.
</event>
<event>
 4    1  0.3927513E+003  0.2222958E+02  0.7546771E-02  0.1502406E+00
          2   -1    0    0  502    0  0.00000000000E+00  0.00000000000E+00  0.76835319321E+03  0.76835319321E+03  0.00000000000E+00 0.  1.
          1   -1    0    0  501    0 -0.00000000000E+00 -0.00000000000E+00 -0.86431965089E+00  0.86431965089E+00  0.00000000000E+00 0.  1.
          2    1    1    2  501    0  0.72555738562E+01 -0.21012158144E+02  0.57830747860E+03  0.57873456260E+03  0.00000000000E+00 0.  1.
          1    1    1    2  502    0 -0.72555738562E+01  0.21012158144E+02  0.18918139496E+03  0.19048295026E+03  0.00000000000E+00 0.  1.
</event>
<event>
 4    1  0.3927513E+003  0.3450568E+02  0.7546771E-02  0.1384072E+00
          2   -1    0    0  502    0  0.00000000000E+00  0.00000000000E+00  0.60222176556E+02  0.60222176556E+02  0.00000000000E+00 0. -1.
          1   -1    0    0  501    0 -0.00000000000E+00 -0.00000000000E+00 -0.11463909026E+04  0.11463909026E+04  0.00000000000E+00 0. -1.
          2    1    1    2  501    0  0.28644559817E+02  0.19238786195E+02  0.54997196333E+02  0.64925598232E+02  0.00000000000E+00 0. -1.
          1    1    1    2  502    0 -0.28644559817E+02 -0.19238786195E+02 -0.11411659224E+04  0.11416874810E+04  0.00000000000E+00 0. -1.
</event>
<event>
 4    1  0.3927513E+003  0.2049106E+02  0.7546771E-02  0.1526657E+00
          2   -1    0    0  502    0  0.00000000000E+00  0.00000000000E+00  0.50020721426E+03  0.50020721426E+03  0.00000000000E+00 0. -1.
          1   -1    0    0  501    0 -0.00000000000E+00 -0.00000000000E+00 -0.12902151255E+01  0.12902151255E+01  0.00000000000E+00 0.  1.
          2    1    1    2  501    0  0.12685676289E+02  0.16092140473E+02  0.39767542750E+03  0.39820299974E+03  0.00000000000E+00 0. -1.
          1    1    1    2  502    0 -0.12685676289E+02 -0.16092140473E+02  0.10124157164E+03  0.10329442964E+03  0.00000000000E+00 0.  1.
</event>
<event>
 4    1  0.3927513E+003  0.2106385E+02  0.7546771E-02  0.1518355E+00
          2   -1    0    0  502    0  0.00000000000E+00  0.00000000000E+00  0.19267435665E+02  0.19267435665E+02  0.00000000000E+00 0.  1.
          1   -1    0    0  501    0 -0.00000000000E+00 -0.00000000000E+00 -0.23674515486E+02  0.23674515486E+02  0.00000000000E+00 0.  1.
          2    1    1    2  501    0 -0.20561936869E+01  0.20963250022E+02  0.13452724496E+01  0.21106765312E+02  0.00000000000E+00 0.  1.
          1    1    1    2  502    0  0.20561936869E+01 -0.20963250022E+02 -0.57523522709E+01  0.21835185839E+02  0.00000000000E+00 0.  1.
</event>
<event>
 4    1  0.3927513E+003  0.2096452E+02  0.7546771E-02  0.1519772E+00
          2   -1    0    0  502    0  0.00000000000E+00  0.00000000000E+00  0.60552168906E+00  0.60552168906E+00  0.00000000000E+00 0.  1.
          1   -1    0    0  501    0 -0.00000000000E+00 -0.00000000000E+00 -0.72612165653E+03  0.72612165653E+03  0.00000000000E+00 0.  1.
          2    1    1    2  501    0 -0.17303287921E+02 -0.11836687153E+02 -0.35558220816E+03  0.35619968795E+03  0.00000000000E+00 0.  1.
          1    1    1    2  502    0  0.17303287921E+02  0.11836687153E+02 -0.36993392668E+03  0.37052749027E+03  0.00000000000E+00 0.  1.
</event>
<event>
 4    1  0.3927513E+003  0.2064998E+02  0.7546771E-02  0.1524321E+00
          2   -1    0    0  502    0  0.00000000000E+00  0.00000000000E+00  0.12938643060E+01  0.12938643060E+01  0.00000000000E+00 0. -1.
          1   -1    0    0  501    0 -0.00000000000E+00 -0.00000000000E+00 -0.33751860476E+03  0.33751860476E+03  0.00000000000E+00 0. -1.
          2    1    1    2  501    0 -0.74518496050E+01  0.19258543459E+02 -0.14211861769E+03  0.14361101299E+03  0.00000000000E+00 0. -1.
          1    1    1    2  502    0  0.74518496050E+01 -0.19258543459E+02 -0.19410612276E+03  0.19520145607E+03  0.00000000000E+00 0. -1.
</event>
<event>
 4    1  0.3927513E+003  0.3669414E+02  0.7546771E-02  0.1369029E+00
          2   -1    0    0  502    0  0.00000000000E+00  0.00000000000E+00  0.13685625315E+02  0.13685625315E+02  0.00000000000E+00 0. -1.
          1   -1    0    0  501    0 -0.00000000000E+00 -0.00000000000E+00 -0.10912131086E+03  0.10912131086E+03  0.00000000000E+00 0. -1.
          2    1    1    2  501    0 -0.33813147789E+02  0.14252358725E+02 -0.66978360155E+02  0.76371194974E+02  0.00000000000E+00 0. -1.
          1    1    1    2  502    0  0.33813147789E+02 -0.14252358725E+02 -0.28457325392E+02  0.46435741203E+02  0.00000000000E+00 0. -1.
</event>
<event>
 4    1  0.3927513E+003  0.2562391E+02  0.7546771E-02  0.1461943E+00
          2   -1    0    0  502    0  0.00000000000E+00  0.00000000000E+00  0.75789737296E+02  0.75789737296E+02  0.00000000000E+00 0. -1.
          1   -1    0    0  501    0 -0.00000000000E+00 -0.00000000000E+00 -0.17586618792E+02  0.17586618792E+02  0.00000000000E+00 0.  1.
          2    1    1    2  501    0 -0.17731986256E+02 -0.18497603356E+02  0.62358356399E+02  0.67417722294E+02  0.00000000000E+00 0. -1.
          1    1    1    2  502    0  0.17731986256E+02  0.18497603356E+02 -0.41552378946E+01  0.25958633794E+02  0.00000000000E+00 0.  1.
</event>
<event>
 4    1  0.3927513E+003  0.2103050E+02  0.7546771E-02  0.1518830E+00
          2   -1    0    0  502    0  0.00000000000E+00  0.00000000000E+00  0.13089903044E+03  0.13089903044E+03  0.00000000000E+00 0.  1.
          1   -1    0    0  501    0 -0.00000000000E+00 -0.00000000000E+00 -0.61192829681E+01  0.61192829681E+01  0.00000000000E+00 0.  1.
          2    1    1    2  501    0 -0.16790049269E+02  0.12663976955E+02  0.10823695064E+03  0.11026114253E+03  0.00000000000E+00 0.  1.
          1    1    1    2  502    0  0.16790049269E+02 -0.12663976955E+02  0.16542796833E+02  0.26757170885E+02  0.00000000000E+00 0.  1.
</event>
<event>
 4    1  0.3927513E+003  0.2276735E+02  0.7546771E-02  0.1495440E+00
          2   -1    0    0  502    0  0.00000000000E+00  0.00000000000E+00  0.70004497225E+00  0.70004497225E+00  0.00000000000E+00 0. -1.
          1   -1    0    0  501    0 -0.00000000000E+00 -0.00000000000E+00 -0.74556520466E+03  0.74556520466E+03  0.00000000000E+00 0.  1.
          2    1    1    2  501    0  0.66643712336E+01  0.21770127562E+02 -0.34154319081E+03  0.34230118826E+03  0.00000000000E+00 0. -1.
          1    1    1    2  502    0 -0.66643712336E+01 -0.21770127562E+02 -0.40332196888E+03  0.40396406137E+03  0.00000000000E+00 0.  1.
</event>
<event>
 4    1  0.3927513E+003  0.2119569E+02  0.7546771E-02  0.1516489E+00
          2   -1    0    0  502    0  0.00000000000E+00  0.00000000000E+00  0.17842378372E+02  0.17842378372E+02  0.00000000000E+00 0.  1.
          1   -1    0    0  501    0 -0.00000000000E+00 -0.00000000000E+00 -0.63848993852E+02  0.63848993852E+02  0.00000000000E+00 0. -1.
          2    1    1    2  501    0 -0.21220753181E+01  0.21089190817E+02  0.87840904296E+01  0.22943788215E+02  0.00000000000E+00 0.  1.
          1    1    1    2  502    0  0.21220753181E+01 -0.21089190817E+02 -0.54790705909E+02  0.58747584010E+02  0.00000000000E+00 0. -1.
</event>
<event>
 4    1  0.3927513E+003  0.2175335E+02  0.7546771E-02  0.1508775E+00
          2   -1    0    0  502    0  0.00000000000E+00  0.00000000000E+00  0.11473158399E+04  0.11473158399E+04  0.00000000000E+00 0. -1.
          1   -1    0    0  501    0 -0.00000000000E+00 -0.00000000000E+00 -0.73209940797E+02  0.73209940797E+02  0.00000000000E+00 0. -1.
          2    1    1    2  501    0  0.21372229732E+02  0.40541455177E+01  0.11455943707E+04  0.11458008860E+04  0.00000000000E+00 0. -1.
          1    1    1    2  502    0 -0.21372229732E+02 -0.40541455177E+01 -0.71488471627E+02  0.74724894615E+02  0.00000000000E+00 0. -1.
</event>
<event>
 4    1  0.3927513E+003  0.5983950E+02  0.7546771E-02  0.1260379E+00
          2   -1    0    0  502    0  0.00000000000E+00  0.00000000000E+00  0.11000511996E+03  0.11000511996E+03  0.00000000000E+00 0. -1.
          1   -1    0    0  501    0 -0.00000000000E+00 -0.00000000000E+00 -0.34832766251E+02  0.34832766251E+02  0.00000000000E+00 0. -1.
          2    1    1    2  501    0 -0.58749992363E+02  0.11366818885E+02  0.56121614595E+02  0.82039026072E+02  0.00000000000E+00 0. -1.
          1    1    1    2  502    0  0.58749992363E+02 -0.11366818885E+02  0.19050739117E+02  0.62798860142E+02  0.00000000000E+00 0. -1.
</event>
<event>
 4    1  0.3927513E+003  0.2335429E+02  0.7546771E-02  0.1488097E+00
          2   -1    0    0  502    0  0.00000000000E+00  0.00000000000E+00  0.35097207299E+03  0.35097207299E+03  0.00000000000E+00 0. -1.
          1   -1    0    0  501    0 -0.00000000000E+00 -0.00000000000E+00 -0.23191886047E+01  0.23191886047E+01  0.00000000000E+00 0. -1.
          2    1    1    2  501    0  0.20717286281E+02 -0.10780384487E+02  0.27578983443E+03  0.27677690549E+03  0.00000000000E+00 0. -1.
          1    1    1    2  502    0 -0.20717286281E+02  0.10780384487E+02  0.72863049956E+02  0.76514356100E+02  0.00000000000E+00 0. -1.
</event>
<event>
 4    1  0.3927513E+003  0.3154306E+02  0.7546771E-02  0.1406645E+00
          2   -1    0    0  502    0  0.00000000000E+00  0.00000000000E+00  0.14825564560E+04  0.14825564560E+04  0.00000000000E+00 0.  1.
          1   -1    0    0  501    0 -0.00000000000E+00 -0.00000000000E+00 -0.18682798247E+02  0.18682798247E+02  0.00000000000E+00 0. -1.
          2    1    1    2  501    0 -0.23932557585E+02  0.20547436144E+02  0.14689514714E+04  0.14692900972E+04  0.00000000000E+00 0.  1.
          1    1    1    2  502    0  0.23932557585E+02 -0.20547436144E+02 -0.50778136330E+01  0.31949157046E+02  0.00000000000E+00 0. -1.
</event>
<event>
 4    1  0.3927513E+003  0.2285954E+02  0.7546771E-02  0.1494270E+00
          2   -1    0    0  502    0  0.00000000000E+00  0.00000000000E+00  0.63479613393E+01  0.63479613393E+01  0.00000000000E+00 0. -1.
          1   -1    0    0  501    0 -0.00000000000E+00 -0.00000000000E+00 -0.24235442241E+03  0.24235442241E+03  0.00000000000E+00 0.  1.
          2    1    1    2  501    0 -0.18754157197E+02 -0.13070575205E+02 -0.16954135824E+02  0.28460517738E+02  0.00000000000E+00 0. -1.
          1    1    1    2  502    0  0.18754157197E+02  0.13070575205E+02 -0.21905232524E+03  0.22024186601E+03  0.00000000000E+00 0.  1.
</event>
<event>
 4    1  0.3927513E+003  0.2183596E+02  0.7546771E-02  0.1507656E+00
          2   -1    0    0  502    0  0.00000000000E+00  0.00000000000E+00  0.74658378943E+02  0.74658378943E+02  0.00000000000E+00 0. -1.
          1   -1    0    0  501    0 -0.00000000000E+00 -0.00000000000E+00 -0.80598603724E+01  0.80598603724E+01  0.00000000000E+00 0. -1.
          2    1    1    2  501    0 -0.12556002789E+01 -0.21799827532E+02  0.52144278034E+02  0.56531714499E+02  0.00000000000E+00 0. -1.
          1    1    1    2  502    0  0.12556002789E+01  0.21799827532E+02  0.14454240536E+02  0.26186524816E+02  0.00000000000E+00 0. -1.
</event>
<event>
 4    1  0.3927513E+003  0.3265789E+02  0.7546771E-02  0.1397821E+00
          2   -1    0    0  502    0  0.00000000000E+00  0.00000000000E+00  0.14726062773E+04  0.14726062773E+04  0.00000000000E+00 0.  1.
          1   -1    0    0  501    0 -0.00000000000E+00 -0.00000000000E+00 -0.12102247525E+03  0.12102247525E+03  0.00000000000E+00 0.  1.
          2    1    1    2  501    0  0.18232872806E+02 -0.27094278188E+02  0.14702184558E+04  0.14705811250E+04  0.00000000000E+00 0.  1.
          1    1    1    2  502    0 -0.18232872806E+02  0.27094278188E+02 -0.11863465375E+03  0.12304762750E+03  0.00000000000E+00 0.  1.
</event>
<event>
 4    1  0.3927513E+003  0.2350581E+02  0.7546771E-02  0.1486243E+00
          2   -1    0    0  502    0  0.00000000000E+00  0.00000000000E+00  0.14108283521E+02  0.14108283521E+02  0.00000000000E+00 0.  1.
          1   -1    0    0  501    0 -0.00000000000E+00 -0.00000000000E+00 -0.62852116658E+03  0.62852116658E+03  0.00000000000E+00 0. -1.
          2    1    1    2  501    0 -0.22758250926E+02  0.58808966649E+01  0.39367640514E+01  0.23833192023E+02  0.00000000000E+00 0.  1.
          1    1    1    2  502    0  0.22758250926E+02 -0.58808966649E+01 -0.61834964711E+03  0.61879625808E+03  0.00000000000E+00 0. -1.
</event>
<event>
 4    1  0.3927513E+003  0.2799674E+02  0.7546771E-02  0.1437845E+00
          2   -1    0    0  502    0  0.00000000000E+00  0.00000000000E+00  0.33531122918E+01  0.33531122918E+01  0.00000000000E+00 0. -1.
          1   -1    0    0  501    0 -0.00000000000E+00 -0.00000000000E+00 -0.17434065969E+04  0.17434065969E+04  0.00000000000E+00 0. -1.
          2    1    1    2  501    0  0.27864102106E+02 -0.27219670890E+01 -0.57305256031E+02  0.63778598760E+02  0.00000000000E+00 0. -1.
          1    1    1    2  502    0 -0.27864102106E+02  0.27219670890E+01 -0.16827482286E+04  0.16829811105E+04  0.00000000000E+00 0. -1.
</event>
<event>
 4    1  0.3927513E+003  0.3320001E+02  0.7546771E-02  0.1393679E+00
          2   -1    0    0  502    0  0.00000000000E+00  0.00000000000E+00  0.90592430282E+00  0.90592430282E+00  0.00000000000E+00 0.  1.
          1   -1    0    0  501    0 -0.00000000000E+00 -0.00000000000E+00 -0.12445355324E+04  0.12445355324E+04  0.00000000000E+00 0.  1.
          2    1    1    2  501    0 -0.13396533990E+02 -0.30377183142E+02 -0.52868904844E+03  0.52973045062E+03  0.00000000000E+00 0.  1.
          1    1    1    2  502    0  0.13396533990E+02  0.30377183142E+02 -0.71494055968E+03  0.71571100610E+03  0.00000000000E+00 0.  1.
</event>
<event>
 4    1  0.3927513E+003  0.2038856E+02  0.7546771E-02  0.1528176E+00
          2   -1    0    0  502    0  0.00000000000E+00  0.00000000000E+00  0.87973336442E+00  0.87973336442E+00  0.00000000000E+00 0.  1.
          1   -1    0    0  501    0 -0.00000000000E+00 -0.00000000000E+00 -0.13172468989E+04  0.13172468989E+04  0.00000000000E+00 0. -1.
          2    1    1    2  501    0  0.20320484412E+02  0.16647589566E+01 -0.13040574010E+03  0.13198996386E+03  0.00000000000E+00 0.  1.
          1    1    1    2  502    0 -0.20320484412E+02 -0.16647589566E+01 -0.11859614255E+04  0.11861366684E+04  0.00000000000E+00 0. -1.
</event>
<event>
 4    1  0.3927513E+003  0.2258421E+02  0.7546771E-02  0.1497786E+00
          2   -1    0    0  502    0  0.00000000000E+00  0.00000000000E+00  0.99147548120E+03  0.99147548120E+03  0.00000000000E+00 0.  1.
          1   -1    0    0  501    0 -0.00000000000E+00 -0.00000000000E+00 -0.98435079519E+01  0.98435079519E+01  0.00000000000E+00 0. -1.
          2    1    1    2  501    0  0.21722815309E+02 -0.61778503181E+01  0.97821744790E+03  0.97847811520E+03  0.00000000000E+00 0.  1.
          1    1    1    2  502    0 -0.21722815309E+02  0.61778503181E+01  0.34145253414E+01  0.22840873950E+02  0.00000000000E+00 0. -1.
</event>
<event>
 4    1  0.3927513E+003  0.2194917E+02  0.7546771E-02  0.1506132E+00
          2   -1    0    0  502    0  0.00000000000E+00  0.00000000000E+00  0.33197383885E+03  0.33197383885E+03  0.00000000000E+00 0. -1.
          1   -1    0    0  501    0 -0.00000000000E+00 -0.00000000000E+00 -0.17713111574E+02  0.17713111574E+02  0.00000000000E+00 0.  1.
          2    1    1    2  501    0  0.25663792718E+01 -0.21798619921E+02  0.32465842748E+03  0.32539954005E+03  0.00000000000E+00 0. -1.
          1    1    1    2  502    0 -0.25663792718E+01  0.21798619921E+02 -0.10397700203E+02  0.24287410371E+02  0.00000000000E+00 0.  1.
</event>
<event>
 4    1  0.3927513E+003  0.2146204E+02  0.7546771E-02  0.1512769E+00
          2   -1    0    0  502    0  0.00000000000E+00  0.00000000000E+00  0.10209470201E+04  0.10209470201E+04  0.00000000000E+00 0. -1.
          1   -1    0    0  501    0 -0.00000000000E+00 -0.00000000000E+00 -0.59615158621E+02  0.59615158621E+02  0.00000000000E+00 0.  1.
          2    1    1    2  501    0 -0.13145666037E+02 -0.16964982464E+02  0.10188987091E+04  0.10191247218E+04  0.00000000000E+00 0. -1.
          1    1    1    2  502    0  0.13145666037E+02  0.16964982464E+02 -0.57566847634E+02  0.61437456914E+02  0.00000000000E+00 0.  1.
</event>
<event>
 4    1  0.3927513E+003  0.1299770E+03  0.7546771E-02  0.1120112E+00
          2   -1    0    0  502    0  0.00000000000E+00  0.00000000000E+00  0.11348456736E+04  0.11348456736E+04  0.00000000000E+00 0.  1.
          1   -1    0    0  501    0 -0.00000000000E+00 -0.00000000000E+00 -0.29878242135E+03  0.29878242135E+03  0.00000000000E+00 0. -1.
          2    1    1    2  501    0 -0.61710138304E+02  0.11439350952E+03  0.11167601478E+04  0.11242985564E+04  0.00000000000E+00 0.  1.
          1    1    1    2  502    0  0.61710138304E+02 -0.11439350952E+03 -0.28069689560E+03  0.30932953850E+03  0.00000000000E+00 0. -1.
</event>
<event>
 4    1  0.3927513E+003  0.2786196E+02  0.7546771E-02  0.1439137E+00
          2   -1    0    0  502    0  0.00000000000E+00  0.00000000000E+00  0.75269829989E+02  0.75269829989E+02  0.00000000000E+00 0. -1.
          1   -1    0    0  501    0 -0.00000000000E+00 -0.00000000000E+00 -0.12181301063E+03  0.12181301063E+03  0.00000000000E+00 0. -1.
          2    1    1    2  501    0  0.21054396531E+02  0.18248323645E+02  0.71006033274E+02  0.76276770320E+02  0.00000000000E+00 0. -1.
          1    1    1    2  502    0 -0.21054396531E+02 -0.18248323645E+02 -0.11754921392E+03  0.12080607030E+03  0.00000000000E+00 0. -1.
</event>
<event>
 4    1  0.3927513E+003  0.2655927E+02  0.7546771E-02  0.1452086E+00
          2   -1    0    0  502    0  0.00000000000E+00  0.00000000000E+00  0.16064074220E+03  0.16064074220E+03  0.00000000000E+00 0. -1.
          1   -1    0    0  501    0 -0.00000000000E+00 -0.00000000000E+00 -0.57833814264E+03  0.57833814264E+03  0.00000000000E+00 0.  1.
          2    1    1    2  501    0  0.19004496752E+02  0.18553266190E+02  0.15923536358E+03  0.16143511266E+03  0.00000000000E+00 0. -1.
          1    1    1    2  502    0 -0.19004496752E+02 -0.18553266190E+02 -0.57693276402E+03  0.57754377218E+03  0.00000000000E+00 0.  1.
</event>
<event>
 4    1  0.3927513E+003  0.2234193E+02  0.7546771E-02  0.1500931E+00
          2   -1    0    0  502    0  0.00000000000E+00  0.00000000000E+00  0.60956082746E+03  0.60956082746E+03  0.00000000000E+00 0. -1.
          1   -1    0    0  501    0 -0.00000000000E+00 -0.00000000000E+00 -0.16912511109E+02  0.16912511109E+02  0.00000000000E+00 0.  1.
          2    1    1    2  501    0 -0.13676569116E+01  0.22300033651E+02  0.60188342869E+03  0.60229795261E+03  0.00000000000E+00 0. -1.
          1    1    1    2  502    0  0.13676569116E+01 -0.22300033651E+02 -0.92351123407E+01  0.24175385958E+02  0.00000000000E+00 0.  1.
</event>
<event>
 4    1  0.3927513E+003  0.2725578E+02  0.7546771E-02  0.1445056E+00
          2   -1    0    0  502    0  0.00000000000E+00  0.00000000000E+00  0.14646959935E+04  0.14646959935E+04  0.00000000000E+00 0.  1.
          1   -1    0    0  501    0 -0.00000000000E+00 -0.00000000000E+00 -0.50794513191E+00  0.50794513191E+00  0.00000000000E+00 0.  1.
          2    1    1    2  501    0  0.26928013638E+02 -0.42141293921E+01  0.70381703668E+03  0.70434458749E+03  0.00000000000E+00 0.  1.
          1    1    1    2  502    0 -0.26928013638E+02  0.42141293921E+01  0.76037101173E+03  0.76085935119E+03  0.00000000000E+00 0.  1.
</event>
<event>
 4    1  0.3927513E+003  0.2437388E+02  0.7546771E-02  0.1475931E+00
          2   -1    0    0  502    0  0.00000000000E+00  0.00000000000E+00  0.95038318212E+01  0.95038318212E+01  0.00000000000E+00 0. -1.
          1   -1    0    0  501    0 -0.00000000000E+00 -0.00000000000E+00 -0.11187765746E+04  0.11187765746E+04  0.00000000000E+00 0. -1.
          2    1    1    2  501    0 -0.12024979110E+02 -0.21201083792E+02 -0.64829825871E+01  0.25221323117E+02  0.00000000000E+00 0. -1.
          1    1    1    2  502    0  0.12024979110E+02  0.21201083792E+02 -0.11027897602E+04  0.11030590833E+04  0.00000000000E+00 0. -1.
</event>
<event>
 4    1  0.3927513E+003  0.2667803E+02  0.7546771E-02  0.1450869E+00
          2   -1    0    0  502    0  0.00000000000E+00  0.00000000000E+00  0.36432417609E+01  0.36432417609E+01  0.00000000000E+00 0.  1.
          1   -1    0    0  501    0 -0.00000000000E+00 -0.00000000000E+00 -0.29631228891E+03  0.29631228891E+03  0.00000000000E+00 0.  1.
          2    1    1    2  501    0 -0.24968162192E+02  0.93972526781E+01 -0.58790678598E+02  0.64560524867E+02  0.00000000000E+00 0.  1.
          1    1    1    2  502    0  0.24968162192E+02 -0.93972526781E+01 -0.23387836855E+03  0.23539500581E+03  0.00000000000E+00 0.  1.
</event>
<event>
 4    1  0.3927513E+003  0.2842860E+02  0.7546771E-02  0.1433762E+00
          2   -1    0    0  502    0  0.00000000000E+00  0.00000000000E+00  0.10335674591E+02  0.10335674591E+02  0.00000000000E+00 0.  1.
          1   -1    0    0  501    0 -0.00000000000E+00 -0.00000000000E+00 -0.81345548912E+03  0.81345548912E+03  0.00000000000E+00 0.  1.
          2    1    1    2  501    0  0.22182012020E+02 -0.17780432906E+02 -0.99612341004E+01  0.30123273999E+02  0.00000000000E+00 0.  1.
          1    1    1    2  502    0 -0.22182012020E+02  0.17780432906E+02 -0.79315858043E+03  0.79366788972E+03  0.00000000000E+00 0.  1.
</event>
<event>
 4    1  0.3927513E+003  0.2119674E+02  0.7546771E-02  0.1516474E+00
          2   -1    0    0  502    0  0.00000000000E+00  0.00000000000E+00  0.71458566374E+01  0.71458566374E+01  0.00000000000E+00 0. -1.
          1   -1    0    0  501    0 -0.00000000000E+00 -0.00000000000E+00 -0.26420505543E+03  0.26420505543E+03  0.00000000000E+00 0. -1.
          2    1    1    2  501    0  0.12115287457E+02 -0.17393142106E+02 -0.10093484550E+02  0.23477223278E+02  0.00000000000E+00 0. -1.
          1    1    1    2  502    0 -0.12115287457E+02  0.17393142106E+02 -0.24696571424E+03  0.24787368879E+03  0.00000000000E+00 0. -1.
</event>
<event>
 4    1  0.3927513E+003  0.3044751E+02  0.7546771E-02  0.1415747E+00
          2   -1    0    0  502    0  0.00000000000E+00  0.00000000000E+00  0.29165622335E+02  0.29165622335E+02  0.00000000000E+00 0. -1.
          1   -1    0    0  501    0 -0.00000000000E+00 -0.00000000000E+00 -0.94786581348E+02  0.94786581348E+02  0.00000000000E+00 0. -1.
          2    1    1    2  501    0 -0.30440623149E+02  0.64763750539E+00  0.17716576141E+02  0.35226808572E+02  0.00000000000E+00 0. -1.
          1    1    1    2  502    0  0.30440623149E+02 -0.64763750539E+00 -0.83337535154E+02  0.88725395111E+02  0.00000000000E+00 0. -1.
</event>
<event>
 4    1  0.3927513E+003  0.2375771E+02  0.7546771E-02  0.1483197E+00
          2   -1    0    0  502    0  0.00000000000E+00  0.00000000000E+00  0.93249848747E+01  0.93249848747E+01  0.00000000000E+00 0. -1.
          1   -1    0    0  501    0 -0.00000000000E+00 -0.00000000000E+00 -0.25923386806E+03  0.25923386806E+03  0.00000000000E+00 0. -1.
          2    1    1    2  501    0 -0.14982245190E+02 -0.18438030577E+02 -0.73920924303E+01  0.24881150958E+02  0.00000000000E+00 0. -1.
          1    1    1    2  502    0  0.14982245190E+02  0.18438030577E+02 -0.24251679076E+03  0.24367770198E+03  0.00000000000E+00 0. -1.
</event>
<event>
 4    1  0.3927513E+003  0.2474939E+02  0.7546771E-02  0.1471627E+00
          2   -1    0    0  502    0  0.00000000000E+00  0.00000000000E+00  0.21654300360E+04  0.21654300360E+04  0.00000000000E+00 0.  1.
          1   -1    0    0  501    0 -0.00000000000E+00 -0.00000000000E+00 -0.39051467010E+00  0.39051467010E+00  0.00000000000E+00 0.  1.
          2    1    1    2  501    0  0.11843898931E+02  0.21731414512E+02  0.16510751001E+04  0.16512605846E+04  0.00000000000E+00 0.  1.
          1    1    1    2  502    0 -0.11843898931E+02 -0.21731414512E+02  0.51396442127E+03  0.51455996604E+03  0.00000000000E+00 0.  1.
</event>
<event>
 4    1  0.3927513E+003  0.2380683E+02  0.7546771E-02  0.1482608E+00
          2   -1    0    0  502    0  0.00000000000E+00  0.00000000000E+00  0.10598462689E+04  0.10598462689E+04  0.00000000000E+00 0. -1.
          1   -1    0    0  501    0 -0.00000000000E+00 -0.00000000000E+00 -0.43966685161E+02  0.43966685161E+02  0.00000000000E+00 0.  1.
          2    1    1    2  501    0  0.75519576059E+01 -0.22577266184E+02  0.10564796143E+04  0.10567478131E+04  0.00000000000E+00 0. -1.
          1    1    1    2  502    0 -0.75519576059E+01  0.22577266184E+02 -0.40600030574E+02  0.47065140971E+02  0.00000000000E+00 0.  1.
</event>
<event>
 4    1  0.3927513E+003  0.2049136E+02  0.7546771E-02  0.1526652E+00
          2   -1    0    0  502    0  0.00000000000E+00  0.00000000000E+00  0.19215895045E+01  0.19215895045E+01  0.00000000000E+00 0.  1.
          1   -1    0    0  501    0 -0.00000000000E+00 -0.00000000000E+00 -0.88591990076E+03  0.88591990076E+03  0.00000000000E+00 0. -1.
          2    1    1    2  501    0 -0.15591698033E+02  0.13296427592E+02 -0.56695682281E+02  0.60285126055E+02  0.00000000000E+00 0.  1.
          1    1    1    2  502    0  0.15591698033E+02 -0.13296427592E+02 -0.82730262897E+03  0.82755636421E+03  0.00000000000E+00 0. -1.
</event>
<event>
 4    1  0.3927513E+003  0.3523303E+02  0.7546771E-02  0.1378932E+00
          2   -1    0    0  502    0  0.00000000000E+00  0.00000000000E+00  0.80032063919E+02  0.80032063919E+02  0.00000000000E+00 0. -1.
          1   -1    0    0  501    0 -0.00000000000E+00 -0.00000000000E+00 -0.75411803592E+02  0.75411803592E+02  0.00000000000E+00 0.  1.
          2    1    1    2  501    0 -0.52535395600E+01 -0.34839157516E+02  0.71579421685E+02  0.79780825912E+02  0.00000000000E+00 0. -1.
          1    1    1    2  502    0  0.52535395600E+01  0.34839157516E+02 -0.66959161358E+02  0.75663041599E+02  0.00000000000E+00 0.  1.
</event>
<event>
 4    1  0.3927513E+003  0.5224973E+02  0.7546771E-02  0.1288702E+00
          2   -1    0    0  502    0  0.00000000000E+00  0.00000000000E+00  0.23019763566E+03  0.23019763566E+03  0.00000000000E+00 0. -1.
          1   -1    0    0  501    0 -0.00000000000E+00 -0.00000000000E+00 -0.21137074375E+03  0.21137074375E+03  0.00000000000E+00 0.  1.
          2    1    1    2  501    0  0.36667450620E+02  0.37222733695E+02  0.22391438469E+03  0.22992974038E+03  0.00000000000E+00 0. -1.
          1    1    1    2  502    0 -0.36667450620E+02 -0.37222733695E+02 -0.20508749278E+03  0.21163863904E+03  0.00000000000E+00 0.  1.
</event>
<event>
 4    1  0.3927513E+003  0.2097684E+02  0.7546771E-02  0.1519596E+00
          2   -1    0    0  502    0  0.00000000000E+00  0.00000000000E+00  0.26889396902E+01  0.26889396902E+01  0.00000000000E+00 0. -1.
          1   -1    0    0  501    0 -0.00000000000E+00 -0.00000000000E+00 -0.71715410038E+03  0.71715410038E+03  0.00000000000E+00 0. -1.
          2    1    1    2  501    0 -0.18088476650E+02 -0.10622376131E+02 -0.41030669494E+02  0.46081923802E+02  0.00000000000E+00 0. -1.
          1    1    1    2  502    0  0.18088476650E+02  0.10622376131E+02 -0.67343449120E+03  0.67376111627E+03  0.00000000000E+00 0. -1.
</event>
<event>
 4    1  0.3927513E+003  0.6666188E+02  0.7546771E-02  0.1238736E+00
          2   -1    0    0  502    0  0.00000000000E+00  0.00000000000E+00  0.21179697052E+03  0.21179697052E+03  0.00000000000E+00 0.  1.
          1   -1    0    0  501    0 -0.00000000000E+00 -0.00000000000E+00 -0.96600010041E+03  0.96600010041E+03  0.00000000000E+00 0.  1.
          2    1    1    2  501    0  0.66657538136E+02  0.76054544533E+00  0.20536644762E+03  0.21591476010E+03  0.00000000000E+00 0.  1.
          1    1    1    2  502    0 -0.66657538136E+02 -0.76054544533E+00 -0.95956957751E+03  0.96188231084E+03  0.00000000000E+00 0.  1.
</event>
<event>
 4    1  0.3927513E+003  0.2414188E+02  0.7546771E-02  0.1478637E+00
          2   -1    0    0  502    0  0.00000000000E+00  0.00000000000E+00  0.16029481844E+03  0.16029481844E+03  0.00000000000E+00 0. -1.
          1   -1    0    0  501    0 -0.00000000000E+00 -0.00000000000E+00 -0.13330370131E+03  0.13330370131E+03  0.00000000000E+00 0. -1.
          2    1    1    2  501    0 -0.87545862728E+01  0.22498613033E+02  0.15827892968E+03  0.16010949363E+03  0.00000000000E+00 0. -1.
          1    1    1    2  502    0  0.87545862728E+01 -0.22498613033E+02 -0.13128781255E+03  0.13348902612E+03  0.00000000000E+00 0. -1.
</event>
<event>
 4    1  0.3927513E+003  0.2156141E+02  0.7546771E-02  0.1511398E+00
          2   -1    0    0  502    0  0.00000000000E+00  0.00000000000E+00  0.54483786755E+01  0.54483786755E+01  0.00000000000E+00 0.  1.
          1   -1    0    0  501    0 -0.00000000000E+00 -0.00000000000E+00 -0.12798882129E+03  0.12798882129E+03  0.00000000000E+00 0.  1.
          2    1    1    2  501    0  0.14627339090E+02 -0.15840939775E+02 -0.22750775804E+02  0.31344731958E+02  0.00000000000E+00 0.  1.
          1    1    1    2  502    0 -0.14627339090E+02  0.15840939775E+02 -0.99789666813E+02  0.10209246801E+03  0.00000000000E+00 0.  1.
</event>
<event>
 4    1  0.3927513E+003  0.3102371E+02  0.7546771E-02  0.1410904E+00
          2   -1    0    0  502    0  0.00000000000E+00  0.00000000000E+00  0.21050369203E+04  0.21050369203E+04  0.00000000000E+00 0.  1.
          1   -1    0    0  501    0 -0.00000000000E+00 -0.00000000000E+00 -0.26892953090E+01  0.26892953090E+01  0.00000000000E+00 0. -1.
          2    1    1    2  501    0 -0.29393551771E+02 -0.99242048533E+01  0.20112796507E+04  0.20115189047E+04  0.00000000000E+00 0.  1.
          1    1    1    2  502    0  0.29393551771E+02  0.99242048533E+01  0.91067974363E+02  0.96207310961E+02  0.00000000000E+00 0. -1.
</event>
<event>
 4    1  0.3927513E+003  0.3739507E+02  0.7546771E-02  0.1364466E+00
          2   -1    0    0  502    0  0.00000000000E+00  0.00000000000E+00  0.41431578628E+03  0.41431578628E+03  0.00000000000E+00 0. -1.
          1   -1    0    0  501    0 -0.00000000000E+00 -0.00000000000E+00 -0.10636846065E+02  0.10636846065E+02  0.00000000000E+00 0.  1.
          2    1    1    2  501    0 -0.18014278184E+02  0.32770064330E+02  0.37739808961E+03  0.37924623845E+03  0.00000000000E+00 0. -1.
          1    1    1    2  502    0  0.18014278184E+02 -0.32770064330E+02  0.26280850606E+02  0.45706393899E+02  0.00000000000E+00 0.  1.
</event>
<event>
 4    1  0.3927513E+003  0.2488037E+02  0.7546771E-02  0.1470146E+00
          2   -1    0    0  502    0  0.00000000000E+00  0.00000000000E+00  0.69147618460E+00  0.69147618460E+00  0.00000000000E+00 0. -1.
          1   -1    0    0  501    0 -0.00000000000E+00 -0.00000000000E+00 -0.13592409851E+04  0.13592409851E+04  0.00000000000E+00 0. -1.
          2    1    1    2  501    0  0.19531815488E+02 -0.15412370892E+02 -0.28199048278E+03  0.28308596816E+03  0.00000000000E+00 0. -1.
          1    1    1    2  502    0 -0.19531815488E+02  0.15412370892E+02 -0.10765590261E+04  0.10768464931E+04  0.00000000000E+00 0. -1.
</event>
<event>
 4    1  0.3927513E+003  0.2189477E+02  0.7546771E-02  0.1506863E+00
          2   -1    0    0  502    0  0.00000000000E+00  0.00000000000E+00  0.32301109069E+01  0.32301109069E+01  0.00000000000E+00 0. -1.
          1   -1    0    0  501    0 -0.00000000000E+00 -0.00000000000E+00 -0.37131163531E+03  0.37131163531E+03  0.00000000000E+00 0. -1.
          2    1    1    2  501    0  0.13619001858E+02 -0.17143621722E+02 -0.38944068009E+02  0.44676855423E+02  0.00000000000E+00 0. -1.
          1    1    1    2  502    0 -0.13619001858E+02  0.17143621722E+02 -0.32913745639E+03  0.32986489079E+03  0.00000000000E+00 0. -1.
</event>
<event>
 4    1  0.3927513E+003  0.3567171E+02  0.7546771E-02  0.1375901E+00
          2   -1    0    0  502    0  0.00000000000E+00  0.00000000000E+00  0.60896575823E+03  0.60896575823E+03  0.00000000000E+00 0.  1.
          1   -1    0    0  501    0 -0.00000000000E+00 -0.00000000000E+00 -0.76112241129E+01  0.76112241129E+01  0.00000000000E+00 0.  1.
          2    1    1    2  501    0  0.45827081596E+01  0.35376121609E+02  0.56325929862E+03  0.56438772902E+03  0.00000000000E+00 0.  1.
          1    1    1    2  502    0 -0.45827081596E+01 -0.35376121609E+02  0.38095235498E+02  0.52189253317E+02  0.00000000000E+00 0.  1.
</event>
<event>
 4    1  0.3927513E+003  0.2137029E+02  0.7546771E-02  0.1514043E+00
          2   -1    0    0  502    0  0.00000000000E+00  0.00000000000E+00  0.33715054616E+02  0.33715054616E+02  0.00000000000E+00 0.  1.
          1   -1    0    0  501    0 -0.00000000000E+00 -0.00000000000E+00 -0.13760026804E+04  0.13760026804E+04  0.00000000000E+00 0.  1.
          2    1    1    2  501    0 -0.19056993644E+02  0.96705988928E+01  0.30237108711E+02  0.37026642203E+02  0.00000000000E+00 0.  1.
          1    1    1    2  502    0  0.19056993644E+02 -0.96705988928E+01 -0.13725247345E+04  0.13726910928E+04  0.00000000000E+00 0.  1.
</event>
<event>
 4    1  0.3927513E+003  0.2318893E+02  0.7546771E-02  0.1490139E+00
          2   -1    0    0  502    0  0.00000000000E+00  0.00000000000E+00  0.11369273084E+01  0.11369273084E+01  0.00000000000E+00 0. -1.
          1   -1    0    0  501    0 -0.00000000000E+00 -0.00000000000E+00 -0.17245498808E+04  0.17245498808E+04  0.00000000000E+00 0.  1.
          2    1    1    2  501    0  0.97756091719E+01  0.21027697019E+02 -0.12664392949E+03  0.12874941340E+03  0.00000000000E+00 0. -1.
          1    1    1    2  502    0 -0.97756091719E+01 -0.21027697019E+02 -0.15967690240E+04  0.15969373947E+04  0.00000000000E+00 0.  1.
</event>
<event>
 4    1  0.3927513E+003  0.2443523E+02  0.7546771E-02  0.1475222E+00
          2   -1    0    0  502    0  0.00000000000E+00  0.00000000000E+00  0.70806835166E+02  0.70806835166E+02  0.00000000000E+00 0.  1.
          1   -1    0    0  501    0 -0.00000000000E+00 -0.00000000000E+00 -0.22404775065E+03  0.22404775065E+03  0.00000000000E+00 0. -1.
          2    1    1    2  501    0  0.53232705931E+01  0.23848337998E+02  0.68005853403E+02  0.72262552765E+02  0.00000000000E+00 0.  1.
          1    1    1    2  502    0 -0.53232705931E+01 -0.23848337998E+02 -0.22124676888E+03  0.22259203305E+03  0.00000000000E+00 0. -1.
</event>
<event>
 4    1  0.3927513E+003  0.2909604E+02  0.7546771E-02  0.1427618E+00
          2   -1    0    0  502    0  0.00000000000E+00  0.00000000000E+00  0.38052027669E+02  0.38052027669E+02  0.00000000000E+00 0.  1.
          1   -1    0    0  501    0 -0.00000000000E+00 -0.00000000000E+00 -0.16401409209E+04  0.16401409209E+04  0.00000000000E+00 0.  1.
          2    1    1    2  501    0  0.26192262264E+02  0.12670637228E+02  0.32341567982E+02  0.43503524798E+02  0.00000000000E+00 0.  1.
          1    1    1    2  502    0 -0.26192262264E+02 -0.12670637228E+02 -0.16344304612E+04  0.16346894237E+04  0.00000000000E+00 0.  1.
</event>
<event>
 4    1  0.3927513E+003  0.2533286E+02  0.7546771E-02  0.1465114E+00
          2   -1    0    0  502    0  0.00000000000E+00  0.00000000000E+00  0.21550716604E+04  0.21550716604E+04  0.00000000000E+00 0. -1.
          1   -1    0    0  501    0 -0.00000000000E+00 -0.00000000000E+00 -0.36434641596E+00  0.36434641596E+00  0.00000000000E+00 0. -1.
          2    1    1    2  501    0  0.21423387501E+02  0.13520064636E+02  0.15379819252E+04  0.15381905460E+04  0.00000000000E+00 0. -1.
          1    1    1    2  502    0 -0.21423387501E+02 -0.13520064636E+02  0.61672538881E+03  0.61724546081E+03  0.00000000000E+00 0. -1.
</event>
<event>
 4    1  0.3927513E+003  0.2183546E+02  0.7546771E-02  0.1507663E+00
          2   -1    0    0  502    0  0.00000000000E+00  0.00000000000E+00  0.14781690051E+02  0.14781690051E+02  0.00000000000E+00 0.  1.
          1   -1    0    0  501    0 -0.00000000000E+00 -0.00000000000E+00 -0.13657977449E+03  0.13657977449E+03  0.00000000000E+00 0. -1.
          2    1    1    2  501    0  0.18211008063E+02  0.12047683568E+02  0.52441700073E+01  0.22456375779E+02  0.00000000000E+00 0.  1.
          1    1    1    2  502    0 -0.18211008063E+02 -0.12047683568E+02 -0.12704225445E+03  0.12890508876E+03  0.00000000000E+00 0. -1.
</event>
<event>
 4    1  0.3927513E+003  0.2580358E+02  0.7546771E-02  0.1460011E+00
          2   -1    0    0  502    0  0.00000000000E+00  0.00000000000E+00  0.61387955599E+02  0.61387955599E+02  0.00000000000E+00 0. -1.
          1   -1    0    0  501    0 -0.00000000000E+00 -0.00000000000E+00 -0.28560241768E+02  0.28560241768E+02  0.00000000000E+00 0. -1.
          2    1    1    2  501    0  0.21966704554E+02 -0.13538407512E+02  0.51833212213E+02  0.57900833113E+02  0.00000000000E+00 0. -1.
          1    1    1    2  502    0 -0.21966704554E+02  0.13538407512E+02 -0.19005498382E+02  0.32047364254E+02  0.00000000000E+00 0. -1.
</event>
<event>
 4    1  0.3927513E+003  0.2233500E+02  0.7546771E-02  0.1501022E+00
          2   -1    0    0  502    0  0.00000000000E+00  0.00000000000E+00  0.86591783741E+02  0.86591783741E+02  0.00000000000E+00 0. -1.
          1   -1    0    0  501    0 -0.00000000000E+00 -0.00000000000E+00 -0.21277194311E+02  0.21277194311E+02  0.00000000000E+00 0. -1.
          2    1    1    2  501    0  0.49441059378E+01 -0.21780909593E+02  0.78715020321E+02  0.81822409097E+02  0.00000000000E+00 0. -1.
          1    1    1    2  502    0 -0.49441059378E+01  0.21780909593E+02 -0.13400430892E+02  0.26046568955E+02  0.00000000000E+00 0. -1.
</event>
<event>
 4    1  0.3927513E+003  0.5374143E+02  0.7546771E-02  0.1282718E+00
          2   -1    0    0  502    0  0.00000000000E+00  0.00000000000E+00  0.10849079296E+02  0.10849079296E+02  0.00000000000E+00 0.  1.
          1   -1    0    0  501    0 -0.00000000000E+00 -0.00000000000E+00 -0.45279370358E+03  0.45279370358E+03  0.00000000000E+00 0. -1.
          2    1    1    2  501    0 -0.37892086718E+02 -0.38109456803E+02 -0.72159828454E+02  0.89973228108E+02  0.00000000000E+00 0.  1.
          1    1    1    2  502    0  0.37892086718E+02  0.38109456803E+02 -0.36978479583E+03  0.37366955477E+03  0.00000000000E+00 0. -1.
</event>
<event>
 4    1  0.3927513E+003  0.2126818E+02  0.7546771E-02  0.1515470E+00
          2   -1    0    0  502    0  0.00000000000E+00  0.00000000000E+00  0.73067753730E+00  0.73067753730E+00  0.00000000000E+00 0. -1.
          1   -1    0    0  501    0 -0.00000000000E+00 -0.00000000000E+00 -0.62137320222E+03  0.62137320222E+03  0.00000000000E+00 0. -1.
          2    1    1    2  501    0 -0.19539892979E+02  0.83980640306E+01 -0.32929050427E+03  0.32997662205E+03  0.00000000000E+00 0. -1.
          1    1    1    2  502    0  0.19539892979E+02 -0.83980640306E+01 -0.29135202042E+03  0.29212725771E+03  0.00000000000E+00 0. -1.
</event>
<event>
 4    1  0.3927513E+003  0.4529140E+02  0.7546771E-02  0.1319989E+00
          2   -1    0    0  502    0  0.00000000000E+00  0.00000000000E+00  0.39134453642E+01  0.39134453642E+01  0.00000000000E+00 0.  1.
          1   -1    0    0  501    0 -0.00000000000E+00 -0.00000000000E+00 -0.52423585417E+03  0.52423585417E+03  0.00000000000E+00 0.  1.
          2    1    1    2  501    0 -0.24264464869E+02  0.38243254128E+02 -0.25720194368E+03  0.26115924371E+03  0.00000000000E+00 0.  1.
          1    1    1    2  502    0  0.24264464869E+02 -0.38243254128E+02 -0.26312046512E+03  0.26699005582E+03  0.00000000000E+00 0.  1.
</event>
<event>
 4    1  0.3927513E+003  0.2574535E+02  0.7546771E-02  0.1460635E+00
          2   -1    0    0  502    0  0.00000000000E+00  0.00000000000E+00  0.25291777467E+03  0.25291777467E+03  0.00000000000E+00 0. -1.
          1   -1    0    0  501    0 -0.00000000000E+00 -0.00000000000E+00 -0.39612178658E+03  0.39612178658E+03  0.00000000000E+00 0. -1.
          2    1    1    2  501    0  0.24772229465E+02 -0.70113806793E+01  0.25184249695E+03  0.25315502381E+03  0.00000000000E+00 0. -1.
          1    1    1    2  502    0 -0.24772229465E+02  0.70113806793E+01 -0.39504650886E+03  0.39588453743E+03  0.00000000000E+00 0. -1.
</event>
<event>
 4    1  0.3927513E+003  0.4237401E+02  0.7546771E-02  0.1335109E+00
          2   -1    0    0  502    0  0.00000000000E+00  0.00000000000E+00  0.93832233669E+02  0.93832233669E+02  0.00000000000E+00 0.  1.
          1   -1    0    0  501    0 -0.00000000000E+00 -0.00000000000E+00 -0.23306867602E+02  0.23306867602E+02  0.00000000000E+00 0.  1.
          2    1    1    2  501    0  0.41308438156E+02 -0.94429616636E+01  0.60039903859E+02  0.73487050855E+02  0.00000000000E+00 0.  1.
          1    1    1    2  502    0 -0.41308438156E+02  0.94429616636E+01  0.10485462207E+02  0.43652050417E+02  0.00000000000E+00 0.  1.
</event>
<event>
 4    1  0.3927513E+003  0.2116860E+02  0.7546771E-02  0.1516871E+00
          2   -1    0    0  502    0  0.00000000000E+00  0.00000000000E+00  0.96721146904E+03  0.96721146904E+03  0.00000000000E+00 0.  1.
          1   -1    0    0  501    0 -0.00000000000E+00 -0.00000000000E+00 -0.87812600398E+01  0.87812600398E+01  0.00000000000E+00 0. -1.
          2    1    1    2  501    0  0.78138856283E+01 -0.19673654786E+02  0.95416365966E+03  0.95439844872E+03  0.00000000000E+00 0.  1.
          1    1    1    2  502    0 -0.78138856283E+01  0.19673654786E+02  0.42665493471E+01  0.21594280368E+02  0.00000000000E+00 0. -1.
</event>
<event>
 4    1  0.3927513E+003  0.3792244E+02  0.7546771E-02  0.1361110E+00
          2   -1    0    0  502    0  0.00000000000E+00  0.00000000000E+00  0.42535406991E+02  0.42535406991E+02  0.00000000000E+00 0.  1.
          1   -1    0    0  501    0 -0.00000000000E+00 -0.00000000000E+00 -0.33918880579E+02  0.33918880579E+02  0.00000000000E+00 0.  1.
          2    1    1    2  501    0 -0.22507339309E+02 -0.30520971439E+02  0.21395983926E+01  0.37982731624E+02  0.00000000000E+00 0.  1.
          1    1    1    2  502    0  0.22507339309E+02  0.30520971439E+02  0.64769280193E+01  0.38471555946E+02  0.00000000000E+00 0.  1.
</event>
<event>
 4    1  0.3927513E+003  0.2346731E+02  0.7546771E-02  0.1486712E+00
          2   -1    0    0  502    0  0.00000000000E+00  0.00000000000E+00  0.67925850027E+02  0.67925850027E+02  0.00000000000E+00 0.  1.
          1   -1    0    0  501    0 -0.00000000000E+00 -0.00000000000E+00 -0.11127184432E+03  0.11127184432E+03  0.00000000000E+00 0. -1.
          2    1    1    2  501    0  0.23409278865E+02 -0.16493035777E+01  0.64599906034E+02  0.68730360095E+02  0.00000000000E+00 0.  1.
          1    1    1    2  502    0 -0.23409278865E+02  0.16493035777E+01 -0.10794590033E+03  0.11046733425E+03  0.00000000000E+00 0. -1.
</event>
<event>
 4    1  0.3927513E+003  0.2402299E+02  0.7546771E-02  0.1480037E+00
          2   -1    0    0  502    0  0.00000000000E+00  0.00000000000E+00  0.12070468995E+02  0.12070468995E+02  0.00000000000E+00 0.  1.
          1   -1    0    0  501    0 -0.00000000000E+00 -0.00000000000E+00 -0.17501427784E+04  0.17501427784E+04  0.00000000000E+00 0.  1.
          2    1    1    2  501    0 -0.13563574671E+02  0.19827594619E+02 -0.48115659534E-01  0.24023038553E+02  0.00000000000E+00 0.  1.
          1    1    1    2  502    0  0.13563574671E+02 -0.19827594619E+02 -0.17380241937E+04  0.17381902088E+04  0.00000000000E+00 0.  1.
</event>
<event>
 4    1  0.3927513E+003  0.2247080E+02  0.7546771E-02  0.1499252E+00
          2   -1    0    0  502    0  0.00000000000E+00  0.00000000000E+00  0.20927839302E+02  0.20927839302E+02  0.00000000000E+00 0. -1.
          1   -1    0    0  501    0 -0.00000000000E+00 -0.00000000000E+00 -0.53949956957E+02  0.53949956957E+02  0.00000000000E+00 0. -1.
          2    1    1    2  501    0  0.51329570871E+00 -0.22464938284E+02  0.11324442644E+02  0.25163066701E+02  0.00000000000E+00 0. -1.
          1    1    1    2  502    0 -0.51329570871E+00  0.22464938284E+02 -0.44346560300E+02  0.49714729558E+02  0.00000000000E+00 0. -1.
</event>
<event>
 4    1  0.3927513E+003  0.3003750E+02  0.7546771E-02  0.1419271E+00
          2   -1    0    0  502    0  0.00000000000E+00  0.00000000000E+00  0.94508236527E+03  0.94508236527E+03  0.00000000000E+00 0.  1.
          1   -1    0    0  501    0 -0.00000000000E+00 -0.00000000000E+00 -0.12531637191E+01  0.12531637191E+01  0.00000000000E+00 0. -1.
          2    1    1    2  501    0 -0.30019819286E+02 -0.10303545879E+01  0.70283994887E+03  0.70348151711E+03  0.00000000000E+00 0.  1.
          1    1    1    2  502    0  0.30019819286E+02  0.10303545879E+01  0.24098925268E+03  0.24285401188E+03  0.00000000000E+00 0. -1.
</event>
<event>
 4    1  0.3929964E+003  0.2669102E+02  0.7546771E-02  0.1450737E+00
          2   -1    0    0  502    0  0.00000000000E+00  0.00000000000E+00  0.56455914490E+03  0.56455914490E+03  0.00000000000E+00 0.  1.
          1   -1    0    0  501    0 -0.00000000000E+00 -0.00000000000E+00 -0.85242802318E+03  0.85242802318E+03  0.00000000000E+00 0. -1.
          2    1    1    2  501    0 -0.87961745693E+01 -0.25199958397E+02  0.56403454289E+03  0.56466572073E+03  0.00000000000E+00 0.  1.
          1    1    1    2  502    0  0.87961745693E+01  0.25199958397E+02 -0.85190342117E+03  0.85232144734E+03  0.00000000000E+00 0. -1.
</event>
<event>
 4    1  0.3927513E+003  0.2452870E+02  0.7546771E-02  0.1474145E+00
          2   -1    0    0  502    0  0.00000000000E+00  0.00000000000E+00  0.48461130176E+03  0.48461130176E+03  0.00000000000E+00 0.  1.
          1   -1    0    0  501    0 -0.00000000000E+00 -0.00000000000E+00 -0.22913724992E+02  0.22913724992E+02  0.00000000000E+00 0.  1.
          2    1    1    2  501    0 -0.20652918316E+02 -0.13233059148E+02  0.47764081366E+03  0.47827022044E+03  0.00000000000E+00 0.  1.
          1    1    1    2  502    0  0.20652918316E+02  0.13233059148E+02 -0.15943236894E+02  0.29254806306E+02  0.00000000000E+00 0.  1.
</event>
<event>
 4    1  0.3927513E+003  0.4746085E+02  0.7546771E-02  0.1309573E+00
          2   -1    0    0  502    0  0.00000000000E+00  0.00000000000E+00  0.90594227136E+02  0.90594227136E+02  0.00000000000E+00 0.  1.
          1   -1    0    0  501    0 -0.00000000000E+00 -0.00000000000E+00 -0.47040114724E+03  0.47040114724E+03  0.00000000000E+00 0.  1.
          2    1    1    2  501    0  0.41992841757E+02 -0.22116353070E+02  0.83080465527E+02  0.95681218555E+02  0.00000000000E+00 0.  1.
          1    1    1    2  502    0 -0.41992841757E+02  0.22116353070E+02 -0.46288738563E+03  0.46531415583E+03  0.00000000000E+00 0.  1.
</event>
<event>
 4    1  0.3927513E+003  0.3766739E+02  0.7546771E-02  0.1362725E+00
          2   -1    0    0  502    0  0.00000000000E+00  0.00000000000E+00  0.95015459188E+02  0.95015459188E+02  0.00000000000E+00 0.  1.
          1   -1    0    0  501    0 -0.00000000000E+00 -0.00000000000E+00 -0.16954840846E+02  0.16954840846E+02  0.00000000000E+00 0.  1.
          2    1    1    2  501    0  0.15007648024E+01 -0.37637483262E+02  0.58365000060E+02  0.69464420197E+02  0.00000000000E+00 0.  1.
          1    1    1    2  502    0 -0.15007648024E+01  0.37637483262E+02  0.19695618282E+02  0.42505879838E+02  0.00000000000E+00 0.  1.
</event>
<event>
 4    1  0.3927513E+003  0.2958837E+02  0.7546771E-02  0.1423208E+00
          2   -1    0    0  502    0  0.00000000000E+00  0.00000000000E+00  0.46114113827E+02  0.46114113827E+02  0.00000000000E+00 0.  1.
          1   -1    0    0  501    0 -0.00000000000E+00 -0.00000000000E+00 -0.75809922141E+02  0.75809922141E+02  0.00000000000E+00 0.  1.
          2    1    1    2  501    0 -0.29563862972E+02 -0.12039054512E+01  0.37931703088E+02  0.48107021123E+02  0.00000000000E+00 0.  1.
          1    1    1    2  502    0  0.29563862972E+02  0.12039054512E+01 -0.67627511402E+02  0.73817014845E+02  0.00000000000E+00 0.  1.
</event>
<event>
 4    1  0.3927513E+003  0.2015749E+02  0.7546771E-02  0.1531642E+00
          2   -1    0    0  502    0  0.00000000000E+00  0.00000000000E+00  0.28079468188E+02  0.28079468188E+02  0.00000000000E+00 0. -1.
          1   -1    0    0  501    0 -0.00000000000E+00 -0.00000000000E+00 -0.14304366429E+03  0.14304366429E+03  0.00000000000E+00 0. -1.
          2    1    1    2  501    0  0.20069268718E+02 -0.18838380443E+01  0.23636334791E+02  0.31064460643E+02  0.00000000000E+00 0. -1.
          1    1    1    2  502    0 -0.20069268718E+02  0.18838380443E+01 -0.13860053089E+03  0.14005867184E+03  0.00000000000E+00 0. -1.
</event>
<event>
 4    1  0.3927513E+003  0.4975246E+02  0.7546771E-02  0.1299249E+00
          2   -1    0    0  502    0  0.00000000000E+00  0.00000000000E+00  0.34002909828E+03  0.34002909828E+03  0.00000000000E+00 0.  1.
          1   -1    0    0  501    0 -0.00000000000E+00 -0.00000000000E+00 -0.54550189354E+03  0.54550189354E+03  0.00000000000E+00 0.  1.
          2    1    1    2  501    0 -0.33010556446E+01  0.49642829091E+02  0.33706483489E+03  0.34071690649E+03  0.00000000000E+00 0.  1.
          1    1    1    2  502    0  0.33010556446E+01 -0.49642829091E+02 -0.54253763015E+03  0.54481408533E+03  0.00000000000E+00 0.  1.
</event>
<event>
 4    1  0.3927513E+003  0.2398253E+02  0.7546771E-02  0.1480516E+00
          2   -1    0    0  502    0  0.00000000000E+00  0.00000000000E+00  0.69268980116E+02  0.69268980116E+02  0.00000000000E+00 0.  1.
          1   -1    0    0  501    0 -0.00000000000E+00 -0.00000000000E+00 -0.86002928934E+01  0.86002928934E+01  0.00000000000E+00 0.  1.
          2    1    1    2  501    0  0.18580733825E+02  0.15163025916E+02  0.23099093166E+02  0.33297584439E+02  0.00000000000E+00 0.  1.
          1    1    1    2  502    0 -0.18580733825E+02 -0.15163025916E+02  0.37569594057E+02  0.44571688570E+02  0.00000000000E+00 0.  1.
</event>
<event>
 4    1  0.3927513E+003  0.3089656E+02  0.7546771E-02  0.1411962E+00
          2   -1    0    0  502    0  0.00000000000E+00  0.00000000000E+00  0.62347983124E+02  0.62347983124E+02  0.00000000000E+00 0.  1.
          1   -1    0    0  501    0 -0.00000000000E+00 -0.00000000000E+00 -0.60993775987E+03  0.60993775987E+03  0.00000000000E+00 0.  1.
          2    1    1    2  501    0 -0.95049279300E+01  0.29398192051E+02  0.58102201388E+02  0.65806254695E+02  0.00000000000E+00 0.  1.
          1    1    1    2  502    0  0.95049279300E+01 -0.29398192051E+02 -0.60569197813E+03  0.60647948830E+03  0.00000000000E+00 0.  1.
</event>
<event>
 4    1  0.3927513E+003  0.6964956E+02  0.7546771E-02  0.1230158E+00
          2   -1    0    0  502    0  0.00000000000E+00  0.00000000000E+00  0.19867221173E+03  0.19867221173E+03  0.00000000000E+00 0.  1.
          1   -1    0    0  501    0 -0.00000000000E+00 -0.00000000000E+00 -0.14314758320E+04  0.14314758320E+04  0.00000000000E+00 0.  1.
          2    1    1    2  501    0  0.14136312133E+02  0.68199891553E+02  0.19169074684E+03  0.20395196237E+03  0.00000000000E+00 0.  1.
          1    1    1    2  502    0 -0.14136312133E+02 -0.68199891553E+02 -0.14244943671E+04  0.14261960813E+04  0.00000000000E+00 0.  1.
</event>
<event>
 4    1  0.3927513E+003  0.2452170E+02  0.7546771E-02  0.1474226E+00
          2   -1    0    0  502    0  0.00000000000E+00  0.00000000000E+00  0.12682517725E+04  0.12682517725E+04  0.00000000000E+00 0. -1.
          1   -1    0    0  501    0 -0.00000000000E+00 -0.00000000000E+00 -0.35006189559E+01  0.35006189559E+01  0.00000000000E+00 0.  1.
          2    1    1    2  501    0  0.17183742957E+00  0.24521101319E+02  0.12236237646E+04  0.12238694503E+04  0.00000000000E+00 0. -1.
          1    1    1    2  502    0 -0.17183742957E+00 -0.24521101319E+02  0.41127388938E+02  0.47882941209E+02  0.00000000000E+00 0.  1.
</event>
<event>
 4    1  0.3927513E+003  0.5516842E+02  0.7546771E-02  0.1277195E+00
          2   -1    0    0  502    0  0.00000000000E+00  0.00000000000E+00  0.75865570488E+03  0.75865570488E+03  0.00000000000E+00 0. -1.
          1   -1    0    0  501    0 -0.00000000000E+00 -0.00000000000E+00 -0.22070323687E+03  0.22070323687E+03  0.00000000000E+00 0. -1.
          2    1    1    2  501    0  0.31687670949E+01  0.55077338893E+02  0.75418478704E+03  0.75619987262E+03  0.00000000000E+00 0. -1.
          1    1    1    2  502    0 -0.31687670949E+01 -0.55077338893E+02 -0.21623231903E+03  0.22315906913E+03  0.00000000000E+00 0. -1.
</event>
<event>
 4    1  0.3927513E+003  0.2575158E+02  0.7546771E-02  0.1460568E+00
          2   -1    0    0  502    0  0.00000000000E+00  0.00000000000E+00  0.21628850175E+03  0.21628850175E+03  0.00000000000E+00 0.  1.
          1   -1    0    0  501    0 -0.00000000000E+00 -0.00000000000E+00 -0.40662743035E+01  0.40662743035E+01  0.00000000000E+00 0. -1.
          2    1    1    2  501    0 -0.22658208508E+02 -0.12237216311E+02  0.16075610370E+03  0.16280561646E+03  0.00000000000E+00 0.  1.
          1    1    1    2  502    0  0.22658208508E+02  0.12237216311E+02  0.51466123748E+02  0.57549159590E+02  0.00000000000E+00 0. -1.
</event>
<event>
 4    1  0.3927513E+003  0.2844209E+02  0.7546771E-02  0.1433636E+00
          2   -1    0    0  502    0  0.00000000000E+00  0.00000000000E+00  0.11212070202E+04  0.11212070202E+04  0.00000000000E+00 0. -1.
          1   -1    0    0  501    0 -0.00000000000E+00 -0.00000000000E+00 -0.83192550542E+00  0.83192550542E+00  0.00000000000E+00 0.  1.
          2    1    1    2  501    0  0.13394873266E+02  0.25090437523E+02  0.76458111402E+03  0.76510994805E+03  0.00000000000E+00 0. -1.
          1    1    1    2  502    0 -0.13394873266E+02 -0.25090437523E+02  0.35579398065E+03  0.35692899763E+03  0.00000000000E+00 0.  1.
</event>
<event>
 4    1  0.3927513E+003  0.3406731E+02  0.7546771E-02  0.1387241E+00
          2   -1    0    0  502    0  0.00000000000E+00  0.00000000000E+00  0.37096008054E+02  0.37096008054E+02  0.00000000000E+00 0.  1.
          1   -1    0    0  501    0 -0.00000000000E+00 -0.00000000000E+00 -0.11939207727E+03  0.11939207727E+03  0.00000000000E+00 0.  1.
          2    1    1    2  501    0  0.29756039441E+02  0.16587938937E+02  0.26067047371E+02  0.42896066952E+02  0.00000000000E+00 0.  1.
          1    1    1    2  502    0 -0.29756039441E+02 -0.16587938937E+02 -0.10836311658E+03  0.11359201837E+03  0.00000000000E+00 0.  1.
</event>
<event>
 4    1  0.3927513E+003  0.5251690E+02  0.7546771E-02  0.1287614E+00
          2   -1    0    0  502    0  0.00000000000E+00  0.00000000000E+00  0.82143781648E+03  0.82143781648E+03  0.00000000000E+00 0.  1.
          1   -1    0    0  501    0 -0.00000000000E+00 -0.00000000000E+00 -0.19531107483E+02  0.19531107483E+02  0.00000000000E+00 0.  1.
          2    1    1    2  501    0 -0.14694337888E+02 -0.50419253905E+02  0.78359232036E+03  0.78535020804E+03  0.00000000000E+00 0.  1.
          1    1    1    2  502    0  0.14694337888E+02  0.50419253905E+02  0.18314388633E+02  0.55618715926E+02  0.00000000000E+00 0.  1.
</event>
<event>
 4    1  0.3927513E+003  0.3312382E+02  0.7546771E-02  0.1394256E+00
          2   -1    0    0  502    0  0.00000000000E+00  0.00000000000E+00  0.73788421171E+01  0.73788421171E+01  0.00000000000E+00 0.  1.
          1   -1    0    0  501    0 -0.00000000000E+00 -0.00000000000E+00 -0.24158537414E+04  0.24158537414E+04  0.00000000000E+00 0.  1.
          2    1    1    2  501    0  0.12330419930E+02 -0.30743267362E+02 -0.30500249263E+02  0.45027246739E+02  0.00000000000E+00 0.  1.
          1    1    1    2  502    0 -0.12330419930E+02  0.30743267362E+02 -0.23779746500E+04  0.23782053367E+04  0.00000000000E+00 0.  1.
</event>
<event>
 4    1  0.3927513E+003  0.2176724E+02  0.7546771E-02  0.1508587E+00
          2   -1    0    0  502    0  0.00000000000E+00  0.00000000000E+00  0.15706671219E+04  0.15706671219E+04  0.00000000000E+00 0. -1.
          1   -1    0    0  501    0 -0.00000000000E+00 -0.00000000000E+00 -0.66947586260E+01  0.66947586260E+01  0.00000000000E+00 0. -1.
          2    1    1    2  501    0 -0.10576827201E+02 -0.19024808393E+02  0.15526934846E+04  0.15528460548E+04  0.00000000000E+00 0. -1.
          1    1    1    2  502    0  0.10576827201E+02  0.19024808393E+02  0.11278878610E+02  0.24515825720E+02  0.00000000000E+00 0. -1.
</event>
<event>
 4    1  0.3927513E+003  0.2531233E+02  0.7546771E-02  0.1465339E+00
          2   -1    0    0  502    0  0.00000000000E+00  0.00000000000E+00  0.50263553947E+03  0.50263553947E+03  0.00000000000E+00 0. -1.
          1   -1    0    0  501    0 -0.00000000000E+00 -0.00000000000E+00 -0.60093879418E+03  0.60093879418E+03  0.00000000000E+00 0.  1.
          2    1    1    2  501    0  0.19141129207E+02 -0.16562953533E+02  0.50205000422E+03  0.50268769728E+03  0.00000000000E+00 0. -1.
          1    1    1    2  502    0 -0.19141129207E+02  0.16562953533E+02 -0.60035325893E+03  0.60088663637E+03  0.00000000000E+00 0.  1.
</event>
<event>
 4    1  0.3927513E+003  0.2249380E+02  0.7546771E-02  0.1498954E+00
          2   -1    0    0  502    0  0.00000000000E+00  0.00000000000E+00  0.54831492278E+02  0.54831492278E+02  0.00000000000E+00 0.  1.
          1   -1    0    0  501    0 -0.00000000000E+00 -0.00000000000E+00 -0.18582761924E+02  0.18582761924E+02  0.00000000000E+00 0.  1.
          2    1    1    2  501    0 -0.57872802925E+01 -0.21736571637E+02  0.44168953521E+02  0.49566799522E+02  0.00000000000E+00 0.  1.
          1    1    1    2  502    0  0.57872802925E+01  0.21736571637E+02 -0.79202231675E+01  0.23847454680E+02  0.00000000000E+00 0.  1.
</event>
<event>
 4    1  0.3927513E+003  0.3316361E+02  0.7546771E-02  0.1393954E+00
          2   -1    0    0  502    0  0.00000000000E+00  0.00000000000E+00  0.20321664203E+03  0.20321664203E+03  0.00000000000E+00 0.  1.
          1   -1    0    0  501    0 -0.00000000000E+00 -0.00000000000E+00 -0.79182742781E+01  0.79182742781E+01  0.00000000000E+00 0.  1.
          2    1    1    2  501    0 -0.33103293446E+02 -0.19992888970E+01  0.15704036487E+03  0.16050389837E+03  0.00000000000E+00 0.  1.
          1    1    1    2  502    0  0.33103293446E+02  0.19992888970E+01  0.38258002883E+02  0.50631017940E+02  0.00000000000E+00 0.  1.
</event>
<event>
 4    1  0.3927513E+003  0.2315809E+02  0.7546771E-02  0.1490522E+00
          2   -1    0    0  502    0  0.00000000000E+00  0.00000000000E+00  0.23758410214E+01  0.23758410214E+01  0.00000000000E+00 0.  1.
          1   -1    0    0  501    0 -0.00000000000E+00 -0.00000000000E+00 -0.26016655766E+03  0.26016655766E+03  0.00000000000E+00 0.  1.
          2    1    1    2  501    0  0.44902928123E+01  0.22718594454E+02 -0.81136150511E+02  0.84376372186E+02  0.00000000000E+00 0.  1.
          1    1    1    2  502    0 -0.44902928123E+01 -0.22718594454E+02 -0.17665456613E+03  0.17816602650E+03  0.00000000000E+00 0.  1.
</event>
<event>
 4    1  0.3927513E+003  0.2191256E+02  0.7546771E-02  0.1506624E+00
          2   -1    0    0  502    0  0.00000000000E+00  0.00000000000E+00  0.16164494567E+03  0.16164494567E+03  0.00000000000E+00 0. -1.
          1   -1    0    0  501    0 -0.00000000000E+00 -0.00000000000E+00 -0.13342081860E+04  0.13342081860E+04  0.00000000000E+00 0. -1.
          2    1    1    2  501    0 -0.14949858286E+02  0.16020670090E+02  0.16081189530E+03  0.16229795378E+03  0.00000000000E+00 0. -1.
          1    1    1    2  502    0  0.14949858286E+02 -0.16020670090E+02 -0.13333751357E+04  0.13335551779E+04  0.00000000000E+00 0. -1.
</event>
<event>
 4    1  0.3927513E+003  0.2147173E+02  0.7546771E-02  0.1512635E+00
          2   -1    0    0  502    0  0.00000000000E+00  0.00000000000E+00  0.29861886900E+02  0.29861886900E+02  0.00000000000E+00 0. -1.
          1   -1    0    0  501    0 -0.00000000000E+00 -0.00000000000E+00 -0.27362397333E+02  0.27362397333E+02  0.00000000000E+00 0.  1.
          2    1    1    2  501    0  0.59702930214E+01 -0.20624988276E+02 -0.17637787479E+02  0.27787156877E+02  0.00000000000E+00 0. -1.
          1    1    1    2  502    0 -0.59702930214E+01  0.20624988276E+02  0.20137277046E+02  0.29437127356E+02  0.00000000000E+00 0.  1.
</event>
<event>
 4    1  0.3927513E+003  0.2267397E+02  0.7546771E-02  0.1496633E+00
          2   -1    0    0  502    0  0.00000000000E+00  0.00000000000E+00  0.26295653016E+03  0.26295653016E+03  0.00000000000E+00 0. -1.
          1   -1    0    0  501    0 -0.00000000000E+00 -0.00000000000E+00 -0.26262087276E+01  0.26262087276E+01  0.00000000000E+00 0. -1.
          2    1    1    2  501    0 -0.18962892071E+02 -0.12430508748E+02  0.19729236852E+03  0.19859100558E+03  0.00000000000E+00 0. -1.
          1    1    1    2  502    0  0.18962892071E+02  0.12430508748E+02  0.63037952920E+02  0.66991733309E+02  0.00000000000E+00 0. -1.
</event>
<event>
 4    1  0.3927513E+003  0.2226697E+02  0.7546771E-02  0.1501914E+00
          2   -1    0    0  502    0  0.00000000000E+00  0.00000000000E+00  0.74888860662E+01  0.74888860662E+01  0.00000000000E+00 0.  1.
          1   -1    0    0  501    0 -0.00000000000E+00 -0.00000000000E+00 -0.77206643201E+02  0.77206643201E+02  0.00000000000E+00 0.  1.
          2    1    1    2  501    0 -0.17341923969E+02  0.13966951193E+02 -0.18874754730E+02  0.29190313782E+02  0.00000000000E+00 0.  1.
          1    1    1    2  502    0  0.17341923969E+02 -0.13966951193E+02 -0.50843002405E+02  0.55505215485E+02  0.00000000000E+00 0.  1.
</event>
<event>
 4    1  0.3927513E+003  0.2641217E+02  0.7546771E-02  0.1453604E+00
          2   -1    0    0  502    0  0.00000000000E+00  0.00000000000E+00  0.38170342018E+03  0.38170342018E+03  0.00000000000E+00 0.  1.
          1   -1    0    0  501    0 -0.00000000000E+00 -0.00000000000E+00 -0.18276332666E+01  0.18276332666E+01  0.00000000000E+00 0. -1.
          2    1    1    2  501    0 -0.59251278502E+01 -0.25738977410E+02  0.18915019291E+03  0.19098533341E+03  0.00000000000E+00 0.  1.
          1    1    1    2  502    0  0.59251278502E+01  0.25738977410E+02  0.19072559400E+03  0.19254572004E+03  0.00000000000E+00 0. -1.
</event>
<event>
 4    1  0.3927513E+003  0.4198117E+02  0.7546771E-02  0.1337252E+00
          2   -1    0    0  502    0  0.00000000000E+00  0.00000000000E+00  0.21674537650E+03  0.21674537650E+03  0.00000000000E+00 0. -1.
          1   -1    0    0  501    0 -0.00000000000E+00 -0.00000000000E+00 -0.42360370735E+03  0.42360370735E+03  0.00000000000E+00 0.  1.
          2    1    1    2  501    0  0.19339905238E+02 -0.37261057991E+02  0.21365753139E+03  0.21774287381E+03  0.00000000000E+00 0. -1.
          1    1    1    2  502    0 -0.19339905238E+02  0.37261057991E+02 -0.42051586223E+03  0.42260621004E+03  0.00000000000E+00 0.  1.
</event>
<event>
 4    1  0.3927513E+003  0.2074395E+02  0.7546771E-02  0.1522952E+00
          2   -1    0    0  502    0  0.00000000000E+00  0.00000000000E+00  0.26513297527E+03  0.26513297527E+03  0.00000000000E+00 0.  1.
          1   -1    0    0  501    0 -0.00000000000E+00 -0.00000000000E+00 -0.13376841131E+02  0.13376841131E+02  0.00000000000E+00 0. -1.
          2    1    1    2  501    0 -0.20037183874E+02 -0.53686703919E+01  0.25641205227E+03  0.25724978505E+03  0.00000000000E+00 0.  1.
          1    1    1    2  502    0  0.20037183874E+02  0.53686703919E+01 -0.46559181309E+01  0.21260031351E+02  0.00000000000E+00 0. -1.
</event>
<event>
 4    1  0.3927513E+003  0.3582716E+02  0.7546771E-02  0.1374839E+00
          2   -1    0    0  502    0  0.00000000000E+00  0.00000000000E+00  0.41036411445E+01  0.41036411445E+01  0.00000000000E+00 0. -1.
          1   -1    0    0  501    0 -0.00000000000E+00 -0.00000000000E+00 -0.54691507898E+03  0.54691507898E+03  0.00000000000E+00 0.  1.
          2    1    1    2  501    0  0.28058014898E+02 -0.22278544352E+02 -0.91146033349E+02  0.97934596205E+02  0.00000000000E+00 0. -1.
          1    1    1    2  502    0 -0.28058014898E+02  0.22278544352E+02 -0.45166540449E+03  0.45308412392E+03  0.00000000000E+00 0.  1.
</event>
<event>
 4    1  0.3927513E+003  0.3208054E+02  0.7546771E-02  0.1402338E+00
          2   -1    0    0  502    0  0.00000000000E+00  0.00000000000E+00  0.44163472904E+03  0.44163472904E+03  0.00000000000E+00 0.  1.
          1   -1    0    0  501    0 -0.00000000000E+00 -0.00000000000E+00 -0.86821084418E+01  0.86821084418E+01  0.00000000000E+00 0. -1.
          2    1    1    2  501    0 -0.30883577520E+02 -0.86813379202E+01  0.40906144756E+03  0.41031747326E+03  0.00000000000E+00 0.  1.
          1    1    1    2  502    0  0.30883577520E+02  0.86813379202E+01  0.23891173040E+02  0.39999364217E+02  0.00000000000E+00 0. -1.
</event>
<event>
 4    1  0.3927513E+003  0.2379275E+02  0.7546771E-02  0.1482776E+00
          2   -1    0    0  502    0  0.00000000000E+00  0.00000000000E+00  0.87246582098E+01  0.87246582098E+01  0.00000000000E+00 0.  1.
          1   -1    0    0  501    0 -0.00000000000E+00 -0.00000000000E+00 -0.15243603317E+03  0.15243603317E+03  0.00000000000E+00 0.  1.
          2    1    1    2  501    0  0.80175095018E+01 -0.22401216910E+02 -0.10787192731E+02  0.26123906765E+02  0.00000000000E+00 0.  1.
          1    1    1    2  502    0 -0.80175095018E+01  0.22401216910E+02 -0.13292418223E+03  0.13503678461E+03  0.00000000000E+00 0.  1.
</event>
<event>
 4    1  0.3927513E+003  0.2086430E+02  0.7546771E-02  0.1521211E+00
          2   -1    0    0  502    0  0.00000000000E+00  0.00000000000E+00  0.28777700318E+03  0.28777700318E+03  0.00000000000E+00 0. -1.
          1   -1    0    0  501    0 -0.00000000000E+00 -0.00000000000E+00 -0.13878447645E+02  0.13878447645E+02  0.00000000000E+00 0.  1.
          2    1    1    2  501    0  0.20856850526E+02  0.55754480247E+00  0.27932010189E+03  0.28009826560E+03  0.00000000000E+00 0. -1.
          1    1    1    2  502    0 -0.20856850526E+02 -0.55754480247E+00 -0.54215463551E+01  0.21557185228E+02  0.00000000000E+00 0.  1.
</event>
<event>
 4    1  0.3927513E+003  0.2279320E+02  0.7546771E-02  0.1495111E+00
          2   -1    0    0  502    0  0.00000000000E+00  0.00000000000E+00  0.30189832048E+03  0.30189832048E+03  0.00000000000E+00 0.  1.
          1   -1    0    0  501    0 -0.00000000000E+00 -0.00000000000E+00 -0.11034556726E+03  0.11034556726E+03  0.00000000000E+00 0.  1.
          2    1    1    2  501    0 -0.44203832722E+01  0.22360456254E+02  0.30028473368E+03  0.30114855316E+03  0.00000000000E+00 0.  1.
          1    1    1    2  502    0  0.44203832722E+01 -0.22360456254E+02 -0.10873198045E+03  0.11109533458E+03  0.00000000000E+00 0.  1.
</event>
<event>
 4    1  0.3927513E+003  0.3326461E+02  0.7546771E-02  0.1393192E+00
          2   -1    0    0  502    0  0.00000000000E+00  0.00000000000E+00  0.50144713634E+00  0.50144713634E+00  0.00000000000E+00 0.  1.
          1   -1    0    0  501    0 -0.00000000000E+00 -0.00000000000E+00 -0.24184533423E+04  0.24184533423E+04  0.00000000000E+00 0.  1.
          2    1    1    2  501    0  0.12473075331E+01 -0.33241198739E+02 -0.15668787938E+04  0.15672318551E+04  0.00000000000E+00 0.  1.
          1    1    1    2  502    0 -0.12473075331E+01  0.33241198739E+02 -0.85107310134E+03  0.85172293434E+03  0.00000000000E+00 0.  1.
</event>
<event>
 4    1  0.3927513E+003  0.2437463E+02  0.7546771E-02  0.1475922E+00
          2   -1    0    0  502    0  0.00000000000E+00  0.00000000000E+00  0.12757711967E+04  0.12757711967E+04  0.00000000000E+00 0. -1.
          1   -1    0    0  501    0 -0.00000000000E+00 -0.00000000000E+00 -0.28056307777E+03  0.28056307777E+03  0.00000000000E+00 0.  1.
          2    1    1    2  501    0 -0.20534597207E+02 -0.13132141326E+02  0.12751251021E+04  0.12753580473E+04  0.00000000000E+00 0. -1.
          1    1    1    2  502    0  0.20534597207E+02  0.13132141326E+02 -0.27991698312E+03  0.28097622721E+03  0.00000000000E+00 0.  1.
</event>
<event>
 4    1  0.3927513E+003  0.2074313E+02  0.7546771E-02  0.1522964E+00
          2   -1    0    0  502    0  0.00000000000E+00  0.00000000000E+00  0.40214705282E+03  0.40214705282E+03  0.00000000000E+00 0.  1.
          1   -1    0    0  501    0 -0.00000000000E+00 -0.00000000000E+00 -0.28495207431E+02  0.28495207431E+02  0.00000000000E+00 0.  1.
          2    1    1    2  501    0 -0.18118150442E+02  0.10100002212E+02  0.39806589022E+03  0.39860598387E+03  0.00000000000E+00 0.  1.
          1    1    1    2  502    0  0.18118150442E+02 -0.10100002212E+02 -0.24414044824E+02  0.32036276388E+02  0.00000000000E+00 0.  1.
</event>
<event>
 4    1  0.3927513E+003  0.2139188E+02  0.7546771E-02  0.1513743E+00
          2   -1    0    0  502    0  0.00000000000E+00  0.00000000000E+00  0.68579240143E+01  0.68579240143E+01  0.00000000000E+00 0. -1.
          1   -1    0    0  501    0 -0.00000000000E+00 -0.00000000000E+00 -0.44978862016E+03  0.44978862016E+03  0.00000000000E+00 0. -1.
          2    1    1    2  501    0 -0.21332277139E+02 -0.15957610174E+01 -0.10757867638E+02  0.23944607269E+02  0.00000000000E+00 0. -1.
          1    1    1    2  502    0  0.21332277139E+02  0.15957610174E+01 -0.43217282851E+03  0.43270193691E+03  0.00000000000E+00 0. -1.
</event>
<event>
 4    1  0.3927513E+003  0.3213007E+02  0.7546771E-02  0.1401946E+00
          2   -1    0    0  502    0  0.00000000000E+00  0.00000000000E+00  0.18719056285E+01  0.18719056285E+01  0.00000000000E+00 0.  1.
          1   -1    0    0  501    0 -0.00000000000E+00 -0.00000000000E+00 -0.82938813815E+03  0.82938813815E+03  0.00000000000E+00 0.  1.
          2    1    1    2  501    0 -0.12587456675E+02 -0.29561750354E+02 -0.17317276269E+03  0.17612821151E+03  0.00000000000E+00 0.  1.
          1    1    1    2  502    0  0.12587456675E+02  0.29561750354E+02 -0.65434346983E+03  0.65513183227E+03  0.00000000000E+00 0.  1.
</event>
<event>
 4    1  0.3927513E+003  0.2945048E+02  0.7546771E-02  0.1424433E+00
          2   -1    0    0  502    0  0.00000000000E+00  0.00000000000E+00  0.10124920220E+03  0.10124920220E+03  0.00000000000E+00 0.  1.
          1   -1    0    0  501    0 -0.00000000000E+00 -0.00000000000E+00 -0.91566448760E+02  0.91566448760E+02  0.00000000000E+00 0.  1.
          2    1    1    2  501    0  0.21956525680E+02 -0.19627569009E+02  0.96628878872E+02  0.10101718031E+03  0.00000000000E+00 0.  1.
          1    1    1    2  502    0 -0.21956525680E+02  0.19627569009E+02 -0.86946125436E+02  0.91798470649E+02  0.00000000000E+00 0.  1.
</event>
<event>
 4    1  0.3927513E+003  0.2487551E+02  0.7546771E-02  0.1470201E+00
          2   -1    0    0  502    0  0.00000000000E+00  0.00000000000E+00  0.20497693823E+01  0.20497693823E+01  0.00000000000E+00 0. -1.
          1   -1    0    0  501    0 -0.00000000000E+00 -0.00000000000E+00 -0.18526191930E+04  0.18526191930E+04  0.00000000000E+00 0.  1.
          2    1    1    2  501    0  0.20727580645E+02  0.13753485002E+02 -0.76862046621E+02  0.80787159622E+02  0.00000000000E+00 0. -1.
          1    1    1    2  502    0 -0.20727580645E+02 -0.13753485002E+02 -0.17737073770E+04  0.17738818027E+04  0.00000000000E+00 0.  1.
</event>
<event>
 4    1  0.3927513E+003  0.2064458E+02  0.7546771E-02  0.1524400E+00
          2   -1    0    0  502    0  0.00000000000E+00  0.00000000000E+00  0.85723154985E+03  0.85723154985E+03  0.00000000000E+00 0. -1.
          1   -1    0    0  501    0 -0.00000000000E+00 -0.00000000000E+00 -0.26595915732E+03  0.26595915732E+03  0.00000000000E+00 0. -1.
          2    1    1    2  501    0  0.16844061263E+02 -0.11936342429E+02  0.85670638504E+03  0.85695509149E+03  0.00000000000E+00 0. -1.
          1    1    1    2  502    0 -0.16844061263E+02  0.11936342429E+02 -0.26543399252E+03  0.26623561567E+03  0.00000000000E+00 0. -1.
</event>
<event>
 4    1  0.3927513E+003  0.3328590E+02  0.7546771E-02  0.1393031E+00
          2   -1    0    0  502    0  0.00000000000E+00  0.00000000000E+00  0.69205627836E+02  0.69205627836E+02  0.00000000000E+00 0.  1.
          1   -1    0    0  501    0 -0.00000000000E+00 -0.00000000000E+00 -0.22883280911E+03  0.22883280911E+03  0.00000000000E+00 0. -1.
          2    1    1    2  501    0  0.13460799772E+02  0.30442700890E+02  0.63898291482E+02  0.72048197912E+02  0.00000000000E+00 0.  1.
          1    1    1    2  502    0 -0.13460799772E+02 -0.30442700890E+02 -0.22352547276E+03  0.22599023904E+03  0.00000000000E+00 0. -1.
</event>
<event>
 4    1  0.3927513E+003  0.2599296E+02  0.7546771E-02  0.1457995E+00
          2   -1    0    0  502    0  0.00000000000E+00  0.00000000000E+00  0.24650060998E+02  0.24650060998E+02  0.00000000000E+00 0. -1.
          1   -1    0    0  501    0 -0.00000000000E+00 -0.00000000000E+00 -0.27413174316E+02  0.27413174316E+02  0.00000000000E+00 0. -1.
          2    1    1    2  501    0 -0.23557191260E+02 -0.10986026607E+02 -0.10611388958E+01  0.26014612363E+02  0.00000000000E+00 0. -1.
          1    1    1    2  502    0  0.23557191260E+02  0.10986026607E+02 -0.17019744220E+01  0.26048622950E+02  0.00000000000E+00 0. -1.
</event>
<event>
 4    1  0.3927513E+003  0.3060499E+02  0.7546771E-02  0.1414411E+00
          2   -1    0    0  502    0  0.00000000000E+00  0.00000000000E+00  0.20879683907E+04  0.20879683907E+04  0.00000000000E+00 0.  1.
          1   -1    0    0  501    0 -0.00000000000E+00 -0.00000000000E+00 -0.10499520629E+03  0.10499520629E+03  0.00000000000E+00 0. -1.
          2    1    1    2  501    0  0.24833803997E+02  0.17887083038E+02  0.20856234750E+04  0.20858480158E+04  0.00000000000E+00 0.  1.
          1    1    1    2  502    0 -0.24833803997E+02 -0.17887083038E+02 -0.10265029062E+03  0.10711558115E+03  0.00000000000E+00 0. -1.
</event>
<event>
 4    1  0.3927513E+003  0.2156733E+02  0.7546771E-02  0.1511317E+00
          2   -1    0    0  502    0  0.00000000000E+00  0.00000000000E+00  0.10642497082E+03  0.10642497082E+03  0.00000000000E+00 0. -1.
          1   -1    0    0  501    0 -0.00000000000E+00 -0.00000000000E+00 -0.55624369176E+02  0.55624369176E+02  0.00000000000E+00 0.  1.
          2    1    1    2  501    0 -0.21191360841E+02  0.40094949602E+01  0.10317659989E+03  0.10540664395E+03  0.00000000000E+00 0. -1.
          1    1    1    2  502    0  0.21191360841E+02 -0.40094949602E+01 -0.52375998241E+02  0.56642696050E+02  0.00000000000E+00 0.  1.
</event>
<event>
 4    1  0.3927513E+003  0.2707810E+02  0.7546771E-02  0.1446825E+00
          2   -1    0    0  502    0  0.00000000000E+00  0.00000000000E+00  0.83911527150E+02  0.83911527150E+02  0.00000000000E+00 0.  1.
          1   -1    0    0  501    0 -0.00000000000E+00 -0.00000000000E+00 -0.91364102472E+01  0.91364102472E+01  0.00000000000E+00 0.  1.
          2    1    1    2  501    0 -0.13046378870E+02 -0.23727935409E+02  0.27672884016E+02  0.38717068976E+02  0.00000000000E+00 0.  1.
          1    1    1    2  502    0  0.13046378870E+02  0.23727935409E+02  0.47102232887E+02  0.54330868420E+02  0.00000000000E+00 0.  1.
</event>
<event>
 4    1  0.3927513E+003  0.3500178E+02  0.7546771E-02  0.1380551E+00
          2   -1    0    0  502    0  0.00000000000E+00  0.00000000000E+00  0.19121327027E+04  0.19121327027E+04  0.00000000000E+00 0. -1.
          1   -1    0    0  501    0 -0.00000000000E+00 -0.00000000000E+00 -0.95340112668E+01  0.95340112668E+01  0.00000000000E+00 0. -1.
          2    1    1    2  501    0 -0.19463486179E+02  0.29091194917E+02  0.18792859637E+04  0.18796118903E+04  0.00000000000E+00 0. -1.
          1    1    1    2  502    0  0.19463486179E+02 -0.29091194917E+02  0.23312727715E+02  0.42054823617E+02  0.00000000000E+00 0. -1.
</event>
<event>
 4    1  0.3927513E+003  0.2834570E+02  0.7546771E-02  0.1434539E+00
          2   -1    0    0  502    0  0.00000000000E+00  0.00000000000E+00  0.22636100516E+02  0.22636100516E+02  0.00000000000E+00 0. -1.
          1   -1    0    0  501    0 -0.00000000000E+00 -0.00000000000E+00 -0.36987129417E+02  0.36987129417E+02  0.00000000000E+00 0. -1.
          2    1    1    2  501    0 -0.14525994193E+02 -0.24340792058E+02 -0.11886785836E+01  0.28370611944E+02  0.00000000000E+00 0. -1.
          1    1    1    2  502    0  0.14525994193E+02  0.24340792058E+02 -0.13162350318E+02  0.31252617989E+02  0.00000000000E+00 0. -1.
</event>
<event>
 4    1  0.3927513E+003  0.2776107E+02  0.7546771E-02  0.1440109E+00
          2   -1    0    0  502    0  0.00000000000E+00  0.00000000000E+00  0.35052300801E+02  0.35052300801E+02  0.00000000000E+00 0.  1.
          1   -1    0    0  501    0 -0.00000000000E+00 -0.00000000000E+00 -0.12222942583E+04  0.12222942583E+04  0.00000000000E+00 0.  1.
          2    1    1    2  501    0  0.21091068917E+02 -0.18051142198E+02  0.29372391824E+02  0.40415520833E+02  0.00000000000E+00 0.  1.
          1    1    1    2  502    0 -0.21091068917E+02  0.18051142198E+02 -0.12166143493E+04  0.12169310382E+04  0.00000000000E+00 0.  1.
</event>
<event>
 4    1  0.3927513E+003  0.3118535E+02  0.7546771E-02  0.1409568E+00
          2   -1    0    0  502    0  0.00000000000E+00  0.00000000000E+00  0.29655615209E+03  0.29655615209E+03  0.00000000000E+00 0. -1.
          1   -1    0    0  501    0 -0.00000000000E+00 -0.00000000000E+00 -0.16293083076E+02  0.16293083076E+02  0.00000000000E+00 0. -1.
          2    1    1    2  501    0  0.18096385726E+02 -0.25397767857E+02  0.27993038638E+03  0.28166211497E+03  0.00000000000E+00 0. -1.
          1    1    1    2  502    0 -0.18096385726E+02  0.25397767857E+02  0.33268263131E+00  0.31187120197E+02  0.00000000000E+00 0. -1.
</event>
<event>
 4    1  0.3927513E+003  0.4660003E+02  0.7546771E-02  0.1313627E+00
          2   -1    0    0  502    0  0.00000000000E+00  0.00000000000E+00  0.12048720685E+04  0.12048720685E+04  0.00000000000E+00 0. -1.
          1   -1    0    0  501    0 -0.00000000000E+00 -0.00000000000E+00 -0.25637568435E+01  0.25637568435E+01  0.00000000000E+00 0.  1.
          2    1    1    2  501    0  0.42605982581E+02 -0.18875738530E+02  0.93016711781E+03  0.93133368365E+03  0.00000000000E+00 0. -1.
          1    1    1    2  502    0 -0.42605982581E+02  0.18875738530E+02  0.27214119389E+03  0.27610214173E+03  0.00000000000E+00 0.  1.
</event>
<event>
 4    1  0.3927513E+003  0.3754413E+02  0.7546771E-02  0.1363511E+00
          2   -1    0    0  502    0  0.00000000000E+00  0.00000000000E+00  0.26344945927E+03  0.26344945927E+03  0.00000000000E+00 0.  1.
          1   -1    0    0  501    0 -0.00000000000E+00 -0.00000000000E+00 -0.20631890196E+02  0.20631890196E+02  0.00000000000E+00 0. -1.
          2    1    1    2  501    0  0.19137450798E+02 -0.32300459245E+02  0.24365234184E+03  0.24652794035E+03  0.00000000000E+00 0.  1.
          1    1    1    2  502    0 -0.19137450798E+02  0.32300459245E+02 -0.83477276645E+00  0.37553409114E+02  0.00000000000E+00 0. -1.
</event>
<event>
 4    1  0.3927513E+003  0.2035710E+02  0.7546771E-02  0.1528645E+00
          2   -1    0    0  502    0  0.00000000000E+00  0.00000000000E+00  0.24547104701E+01  0.24547104701E+01  0.00000000000E+00 0. -1.
          1   -1    0    0  501    0 -0.00000000000E+00 -0.00000000000E+00 -0.17547098109E+03  0.17547098109E+03  0.00000000000E+00 0.  1.
          2    1    1    2  501    0 -0.77624743863E+01 -0.18819020788E+02 -0.69191984863E+02  0.72124491827E+02  0.00000000000E+00 0. -1.
          1    1    1    2  502    0  0.77624743863E+01  0.18819020788E+02 -0.10382428576E+03  0.10580119973E+03  0.00000000000E+00 0.  1.
</event>
<event>
 4    1  0.3927513E+003  0.3849959E+02  0.7546771E-02  0.1357510E+00
          2   -1    0    0  502    0  0.00000000000E+00  0.00000000000E+00  0.28053857890E+04  0.28053857890E+04  0.00000000000E+00 0.  1.
          1   -1    0    0  501    0 -0.00000000000E+00 -0.00000000000E+00 -0.10904806472E+02  0.10904806472E+02  0.00000000000E+00 0. -1.
          2    1    1    2  501    0 -0.37117328339E+02 -0.10223620697E+02  0.27708493254E+04  0.27711167789E+04  0.00000000000E+00 0.  1.
          1    1    1    2  502    0  0.37117328339E+02  0.10223620697E+02  0.23631657179E+02  0.45173816578E+02  0.00000000000E+00 0. -1.
</event>
<event>
 4    1  0.3927513E+003  0.2192922E+02  0.7546771E-02  0.1506400E+00
          2   -1    0    0  502    0  0.00000000000E+00  0.00000000000E+00  0.16756902519E+04  0.16756902519E+04  0.00000000000E+00 0.  1.
          1   -1    0    0  501    0 -0.00000000000E+00 -0.00000000000E+00 -0.42717785206E+00  0.42717785206E+00  0.00000000000E+00 0.  1.
          2    1    1    2  501    0 -0.18568077301E+02  0.11666930904E+02  0.13177403404E+04  0.13179227958E+04  0.00000000000E+00 0.  1.
          1    1    1    2  502    0  0.18568077301E+02 -0.11666930904E+02  0.35752273361E+03  0.35819463400E+03  0.00000000000E+00 0.  1.
</event>
<event>
 4    1  0.3927513E+003  0.2112801E+02  0.7546771E-02  0.1517445E+00
          2   -1    0    0  502    0  0.00000000000E+00  0.00000000000E+00  0.34702535606E+01  0.34702535606E+01  0.00000000000E+00 0.  1.
          1   -1    0    0  501    0 -0.00000000000E+00 -0.00000000000E+00 -0.45621533920E+03  0.45621533920E+03  0.00000000000E+00 0. -1.
          2    1    1    2  501    0 -0.79934505683E+00  0.21112883575E+02 -0.31609974777E+02  0.38020827329E+02  0.00000000000E+00 0.  1.
          1    1    1    2  502    0  0.79934505683E+00 -0.21112883575E+02 -0.42113511086E+03  0.42166476543E+03  0.00000000000E+00 0. -1.
</event>
<event>
 4    1  0.3927513E+003  0.3685435E+02  0.7546771E-02  0.1367975E+00
          2   -1    0    0  502    0  0.00000000000E+00  0.00000000000E+00  0.84790847525E+03  0.84790847525E+03  0.00000000000E+00 0.  1.
          1   -1    0    0  501    0 -0.00000000000E+00 -0.00000000000E+00 -0.26825401502E+02  0.26825401502E+02  0.00000000000E+00 0.  1.
          2    1    1    2  501    0 -0.27004179948E+02 -0.25080220243E+02  0.83464882903E+03  0.83546209428E+03  0.00000000000E+00 0.  1.
          1    1    1    2  502    0  0.27004179948E+02  0.25080220243E+02 -0.13565755281E+02  0.39271782471E+02  0.00000000000E+00 0.  1.
</event>
<event>
 4    1  0.3927513E+003  0.2131356E+02  0.7546771E-02  0.1514835E+00
          2   -1    0    0  502    0  0.00000000000E+00  0.00000000000E+00  0.12328170587E+01  0.12328170587E+01  0.00000000000E+00 0. -1.
          1   -1    0    0  501    0 -0.00000000000E+00 -0.00000000000E+00 -0.67412633304E+03  0.67412633304E+03  0.00000000000E+00 0. -1.
          2    1    1    2  501    0  0.20934616940E+02  0.40012281479E+01 -0.10907109334E+03  0.11113402456E+03  0.00000000000E+00 0. -1.
          1    1    1    2  502    0 -0.20934616940E+02 -0.40012281479E+01 -0.56382242264E+03  0.56422512554E+03  0.00000000000E+00 0. -1.
</event>
<event>
 4    1  0.3927513E+003  0.2285211E+02  0.7546771E-02  0.1494364E+00
          2   -1    0    0  502    0  0.00000000000E+00  0.00000000000E+00  0.98304379142E+03  0.98304379142E+03  0.00000000000E+00 0.  1.
          1   -1    0    0  501    0 -0.00000000000E+00 -0.00000000000E+00 -0.13298384872E+01  0.13298384872E+01  0.00000000000E+00 0.  1.
          2    1    1    2  501    0  0.10823622843E+02  0.20126304876E+02  0.87227255364E+03  0.87257184621E+03  0.00000000000E+00 0.  1.
          1    1    1    2  502    0 -0.10823622843E+02 -0.20126304876E+02  0.10944139929E+03  0.11180178370E+03  0.00000000000E+00 0.  1.
</event>
<event>
 4    1  0.3927513E+003  0.3158915E+02  0.7546771E-02  0.1406272E+00
          2   -1    0    0  502    0  0.00000000000E+00  0.00000000000E+00  0.39536931486E+02  0.39536931486E+02  0.00000000000E+00 0. -1.
          1   -1    0    0  501    0 -0.00000000000E+00 -0.00000000000E+00 -0.13008161219E+03  0.13008161219E+03  0.00000000000E+00 0.  1.
          2    1    1    2  501    0 -0.25435907537E+02  0.18732023314E+02  0.30866142409E+02  0.44165516377E+02  0.00000000000E+00 0. -1.
          1    1    1    2  502    0  0.25435907537E+02 -0.18732023314E+02 -0.12141082311E+03  0.12545302730E+03  0.00000000000E+00 0.  1.
</event>
<event>
 4    1  0.3927513E+003  0.2204983E+02  0.7546771E-02  0.1504787E+00
          2   -1    0    0  502    0  0.00000000000E+00  0.00000000000E+00  0.12578888777E+04  0.12578888777E+04  0.00000000000E+00 0. -1.
          1   -1    0    0  501    0 -0.00000000000E+00 -0.00000000000E+00 -0.53215275396E+01  0.53215275396E+01  0.00000000000E+00 0.  1.
          2    1    1    2  501    0 -0.52684910489E+01 -0.21411161259E+02  0.12345189523E+04  0.12347158533E+04  0.00000000000E+00 0. -1.
          1    1    1    2  502    0  0.52684910489E+01  0.21411161259E+02  0.18048397860E+02  0.28494551930E+02  0.00000000000E+00 0.  1.
</event>
<event>
 4    1  0.3927513E+003  0.2422754E+02  0.7546771E-02  0.1477633E+00
          2   -1    0    0  502    0  0.00000000000E+00  0.00000000000E+00  0.10500611258E+04  0.10500611258E+04  0.00000000000E+00 0. -1.
          1   -1    0    0  501    0 -0.00000000000E+00 -0.00000000000E+00 -0.94742426721E+02  0.94742426721E+02  0.00000000000E+00 0.  1.
          2    1    1    2  501    0 -0.24189474315E+02 -0.13576017954E+01  0.10483700130E+04  0.10486499215E+04  0.00000000000E+00 0. -1.
          1    1    1    2  502    0  0.24189474315E+02  0.13576017954E+01 -0.93051313873E+02  0.96153631048E+02  0.00000000000E+00 0.  1.
</event>
<event>
 4    1  0.3927513E+003  0.3281138E+02  0.7546771E-02  0.1396639E+00
          2   -1    0    0  502    0  0.00000000000E+00  0.00000000000E+00  0.14763456835E+01  0.14763456835E+01  0.00000000000E+00 0.  1.
          1   -1    0    0  501    0 -0.00000000000E+00 -0.00000000000E+00 -0.73023685311E+03  0.73023685311E+03  0.00000000000E+00 0.  1.
          2    1    1    2  501    0 -0.10298360995E+02  0.31153315205E+02 -0.37801220305E+03  0.37943353956E+03  0.00000000000E+00 0.  1.
          1    1    1    2  502    0  0.10298360995E+02 -0.31153315205E+02 -0.35074830437E+03  0.35227965923E+03  0.00000000000E+00 0.  1.
</event>
<event>
 4    1  0.3927513E+003  0.2762502E+02  0.7546771E-02  0.1441429E+00
          2   -1    0    0  502    0  0.00000000000E+00  0.00000000000E+00  0.66501423422E+03  0.66501423422E+03  0.00000000000E+00 0. -1.
          1   -1    0    0  501    0 -0.00000000000E+00 -0.00000000000E+00 -0.13336240200E+01  0.13336240200E+01  0.00000000000E+00 0.  1.
          2    1    1    2  501    0  0.13401830792E+01  0.27592488716E+02  0.45628872449E+03  0.45712420809E+03  0.00000000000E+00 0. -1.
          1    1    1    2  502    0 -0.13401830792E+01 -0.27592488716E+02  0.20739188572E+03  0.20922365016E+03  0.00000000000E+00 0.  1.
</event>
<event>
 4    1  0.3927513E+003  0.2213845E+02  0.7546771E-02  0.1503610E+00
          2   -1    0    0  502    0  0.00000000000E+00  0.00000000000E+00  0.11075543308E+02  0.11075543308E+02  0.00000000000E+00 0.  1.
          1   -1    0    0  501    0 -0.00000000000E+00 -0.00000000000E+00 -0.21496465239E+03  0.21496465239E+03  0.00000000000E+00 0.  1.
          2    1    1    2  501    0  0.32927982828E+01 -0.21892196615E+02 -0.12269276987E+01  0.22172418558E+02  0.00000000000E+00 0.  1.
          1    1    1    2  502    0 -0.32927982828E+01  0.21892196615E+02 -0.20266218138E+03  0.20386777714E+03  0.00000000000E+00 0.  1.
</event>
<event>
 4    1  0.3927513E+003  0.2013000E+02  0.7546771E-02  0.1532058E+00
          2   -1    0    0  502    0  0.00000000000E+00  0.00000000000E+00  0.22784389647E+01  0.22784389647E+01  0.00000000000E+00 0. -1.
          1   -1    0    0  501    0 -0.00000000000E+00 -0.00000000000E+00 -0.15350970705E+04  0.15350970705E+04  0.00000000000E+00 0.  1.
          2    1    1    2  501    0  0.19050879078E+02 -0.65023618871E+01 -0.43619948403E+02  0.48040780619E+02  0.00000000000E+00 0. -1.
          1    1    1    2  502    0 -0.19050879078E+02  0.65023618871E+01 -0.14891986832E+04  0.14893347289E+04  0.00000000000E+00 0.  1.
</event>
<event>
 4    1  0.3927513E+003  0.2111634E+02  0.7546771E-02  0.1517610E+00
          2   -1    0    0  502    0  0.00000000000E+00  0.00000000000E+00  0.61804872638E+03  0.61804872638E+03  0.00000000000E+00 0.  1.
          1   -1    0    0  501    0 -0.00000000000E+00 -0.00000000000E+00 -0.74967001653E+02  0.74967001653E+02  0.00000000000E+00 0.  1.
          2    1    1    2  501    0  0.20981987473E+02  0.23782000914E+01  0.61637734317E+03  0.61673894705E+03  0.00000000000E+00 0.  1.
          1    1    1    2  502    0 -0.20981987473E+02 -0.23782000914E+01 -0.73295618444E+02  0.76276780983E+02  0.00000000000E+00 0.  1.
</event>
<event>
 4    1  0.3927513E+003  0.2137685E+02  0.7546771E-02  0.1513952E+00
          2   -1    0    0  502    0  0.00000000000E+00  0.00000000000E+00  0.30687662428E+03  0.30687662428E+03  0.00000000000E+00 0. -1.
          1   -1    0    0  501    0 -0.00000000000E+00 -0.00000000000E+00 -0.71205034535E+02  0.71205034535E+02  0.00000000000E+00 0. -1.
          2    1    1    2  501    0  0.14423939928E+02 -0.15777189672E+02  0.30488949022E+03  0.30563797376E+03  0.00000000000E+00 0. -1.
          1    1    1    2  502    0 -0.14423939928E+02  0.15777189672E+02 -0.69217900479E+02  0.72443685051E+02  0.00000000000E+00 0. -1.
</event>
<event>
 4    1  0.3927513E+003  0.6702806E+02  0.7546771E-02  0.1237658E+00
          2   -1    0    0  502    0  0.00000000000E+00  0.00000000000E+00  0.18979082853E+02  0.18979082853E+02  0.00000000000E+00 0. -1.
          1   -1    0    0  501    0 -0.00000000000E+00 -0.00000000000E+00 -0.13864707606E+04  0.13864707606E+04  0.00000000000E+00 0.  1.
          2    1    1    2  501    0  0.49357755018E+02  0.45349445863E+02 -0.43817216792E+02  0.80079390031E+02  0.00000000000E+00 0. -1.
          1    1    1    2  502    0 -0.49357755018E+02 -0.45349445863E+02 -0.13236744609E+04  0.13253704534E+04  0.00000000000E+00 0.  1.
</event>
<event>
 4    1  0.3927513E+003  0.2899060E+02  0.7546771E-02  0.1428576E+00
          2   -1    0    0  502    0  0.00000000000E+00  0.00000000000E+00  0.10693454010E+03  0.10693454010E+03  0.00000000000E+00 0. -1.
          1   -1    0    0  501    0 -0.00000000000E+00 -0.00000000000E+00 -0.81144325410E+01  0.81144325410E+01  0.00000000000E+00 0.  1.
          2    1    1    2  501    0 -0.16204159431E+02 -0.24039135487E+02  0.59605682358E+02  0.66281914480E+02  0.00000000000E+00 0. -1.
          1    1    1    2  502    0  0.16204159431E+02  0.24039135487E+02  0.39214425204E+02  0.48767058163E+02  0.00000000000E+00 0.  1.
</event>
<event>
 4    1  0.3927513E+003  0.2049899E+02  0.7546771E-02  0.1526540E+00
          2   -1    0    0  502    0  0.00000000000E+00  0.00000000000E+00  0.76809641721E+02  0.76809641721E+02  0.00000000000E+00 0. -1.
          1   -1    0    0  501    0 -0.00000000000E+00 -0.00000000000E+00 -0.71949734845E+01  0.71949734845E+01  0.00000000000E+00 0.  1.
          2    1    1    2  501    0  0.13772703609E+02 -0.15182927091E+02  0.55368681559E+02  0.59041506903E+02  0.00000000000E+00 0. -1.
          1    1    1    2  502    0 -0.13772703609E+02  0.15182927091E+02  0.14245986677E+02  0.24963108303E+02  0.00000000000E+00 0.  1.
</event>
<event>
 4    1  0.3927513E+003  0.5983464E+02  0.7546771E-02  0.1260395E+00
          2   -1    0    0  502    0  0.00000000000E+00  0.00000000000E+00  0.75449555681E+03  0.75449555681E+03  0.00000000000E+00 0. -1.
          1   -1    0    0  501    0 -0.00000000000E+00 -0.00000000000E+00 -0.13246895733E+04  0.13246895733E+04  0.00000000000E+00 0.  1.
          2    1    1    2  501    0 -0.57089006377E+02  0.17917289793E+02  0.75263193775E+03  0.75500663417E+03  0.00000000000E+00 0. -1.
          1    1    1    2  502    0  0.57089006377E+02 -0.17917289793E+02 -0.13228259542E+04  0.13241784959E+04  0.00000000000E+00 0.  1.
</event>
<event>
 4    1  0.3927513E+003  0.3297043E+02  0.7546771E-02  0.1395422E+00
          2   -1    0    0  502    0  0.00000000000E+00  0.00000000000E+00  0.21332062246E+03  0.21332062246E+03  0.00000000000E+00 0. -1.
          1   -1    0    0  501    0 -0.00000000000E+00 -0.00000000000E+00 -0.60774283412E+02  0.60774283412E+02  0.00000000000E+00 0.  1.
          2    1    1    2  501    0  0.32461905387E+02  0.57683572464E+01  0.20744922295E+03  0.21005292036E+03  0.00000000000E+00 0. -1.
          1    1    1    2  502    0 -0.32461905387E+02 -0.57683572464E+01 -0.54902883909E+02  0.64041985512E+02  0.00000000000E+00 0.  1.
</event>
<event>
 4    1  0.3927513E+003  0.3320514E+02  0.7546771E-02  0.1393640E+00
          2   -1    0    0  502    0  0.00000000000E+00  0.00000000000E+00  0.52795883739E+03  0.52795883739E+03  0.00000000000E+00 0. -1.
          1   -1    0    0  501    0 -0.00000000000E+00 -0.00000000000E+00 -0.43995884843E+01  0.43995884843E+01  0.00000000000E+00 0. -1.
          2    1    1    2  501    0  0.14294545490E+00 -0.33204833842E+02  0.45470403454E+03  0.45591483903E+03  0.00000000000E+00 0. -1.
          1    1    1    2  502    0 -0.14294545490E+00  0.33204833842E+02  0.68855214372E+02  0.76443586847E+02  0.00000000000E+00 0. -1.
</event>
<event>
 4    1  0.3927513E+003  0.2103808E+02  0.7546771E-02  0.1518722E+00
          2   -1    0    0  502    0  0.00000000000E+00  0.00000000000E+00  0.88834594512E+03  0.88834594512E+03  0.00000000000E+00 0.  1.
          1   -1    0    0  501    0 -0.00000000000E+00 -0.00000000000E+00 -0.17246609432E+03  0.17246609432E+03  0.00000000000E+00 0. -1.
          2    1    1    2  501    0 -0.16517141436E+02  0.13030147166E+02  0.88757925709E+03  0.88782855232E+03  0.00000000000E+00 0.  1.
          1    1    1    2  502    0  0.16517141436E+02 -0.13030147166E+02 -0.17169940628E+03  0.17298348712E+03  0.00000000000E+00 0. -1.
</event>
<event>
 4    1  0.3927513E+003  0.2674410E+02  0.7546771E-02  0.1450196E+00
          2   -1    0    0  502    0  0.00000000000E+00  0.00000000000E+00  0.11147825998E+04  0.11147825998E+04  0.00000000000E+00 0.  1.
          1   -1    0    0  501    0 -0.00000000000E+00 -0.00000000000E+00 -0.62882043536E+02  0.62882043536E+02  0.00000000000E+00 0.  1.
          2    1    1    2  501    0 -0.20685582260E+02 -0.16951506868E+02  0.11117708918E+04  0.11120925154E+04  0.00000000000E+00 0.  1.
          1    1    1    2  502    0  0.20685582260E+02  0.16951506868E+02 -0.59870335494E+02  0.65572128002E+02  0.00000000000E+00 0.  1.
</event>
<event>
 4    1  0.3927513E+003  0.4369222E+02  0.7546771E-02  0.1328110E+00
          2   -1    0    0  502    0  0.00000000000E+00  0.00000000000E+00  0.14859231671E+01  0.14859231671E+01  0.00000000000E+00 0.  1.
          1   -1    0    0  501    0 -0.00000000000E+00 -0.00000000000E+00 -0.13719608043E+04  0.13719608043E+04  0.00000000000E+00 0.  1.
          2    1    1    2  501    0 -0.34023805015E+02  0.27411510847E+02 -0.51207821513E+03  0.51393881800E+03  0.00000000000E+00 0.  1.
          1    1    1    2  502    0  0.34023805015E+02 -0.27411510847E+02 -0.85839666600E+03  0.85950790947E+03  0.00000000000E+00 0.  1.
</event>
<event>
 4    1  0.3927513E+003  0.3818264E+02  0.7546771E-02  0.1359478E+00
          2   -1    0    0  502    0  0.00000000000E+00  0.00000000000E+00  0.50567711846E+03  0.50567711846E+03  0.00000000000E+00 0.  1.
          1   -1    0    0  501    0 -0.00000000000E+00 -0.00000000000E+00 -0.11118448279E+04  0.11118448279E+04  0.00000000000E+00 0. -1.
          2    1    1    2  501    0  0.37971747500E+02  0.40075702466E+01  0.50462785030E+03  0.50607033258E+03  0.00000000000E+00 0.  1.
          1    1    1    2  502    0 -0.37971747500E+02 -0.40075702466E+01 -0.11107955597E+04  0.11114516138E+04  0.00000000000E+00 0. -1.
</event>
<event>
 4    1  0.3927513E+003  0.2088600E+02  0.7546771E-02  0.1520899E+00
          2   -1    0    0  502    0  0.00000000000E+00  0.00000000000E+00  0.44714523173E+03  0.44714523173E+03  0.00000000000E+00 0. -1.
          1   -1    0    0  501    0 -0.00000000000E+00 -0.00000000000E+00 -0.19465130128E+03  0.19465130128E+03  0.00000000000E+00 0. -1.
          2    1    1    2  501    0  0.14023029513E+02 -0.15478354704E+02  0.44634006277E+03  0.44682846424E+03  0.00000000000E+00 0. -1.
          1    1    1    2  502    0 -0.14023029513E+02  0.15478354704E+02 -0.19384613232E+03  0.19496806876E+03  0.00000000000E+00 0. -1.
</event>
<event>
 4    1  0.3927513E+003  0.2713219E+02  0.7546771E-02  0.1446285E+00
          2   -1    0    0  502    0  0.00000000000E+00  0.00000000000E+00  0.12881360338E+04  0.12881360338E+04  0.00000000000E+00 0.  1.
          1   -1    0    0  501    0 -0.00000000000E+00 -0.00000000000E+00 -0.25634109761E+01  0.25634109761E+01  0.00000000000E+00 0.  1.
          2    1    1    2  501    0 -0.26592671732E+02 -0.53838207160E+01  0.12116682654E+04  0.12119720051E+04  0.00000000000E+00 0.  1.
          1    1    1    2  502    0  0.26592671732E+02  0.53838207160E+01  0.73904357445E+02  0.78727439719E+02  0.00000000000E+00 0.  1.
</event>
<event>
 4    1  0.3927513E+003  0.2379229E+02  0.7546771E-02  0.1482782E+00
          2   -1    0    0  502    0  0.00000000000E+00  0.00000000000E+00  0.88054137778E+03  0.88054137778E+03  0.00000000000E+00 0. -1.
          1   -1    0    0  501    0 -0.00000000000E+00 -0.00000000000E+00 -0.77513050555E+00  0.77513050555E+00  0.00000000000E+00 0. -1.
          2    1    1    2  501    0  0.20134906708E+02  0.12675115140E+02  0.62190800089E+03  0.62236294442E+03  0.00000000000E+00 0. -1.
          1    1    1    2  502    0 -0.20134906708E+02 -0.12675115140E+02  0.25785824639E+03  0.25895356387E+03  0.00000000000E+00 0. -1.
</event>
<event>
 4    1  0.4874173E+003  0.2161322E+02  0.7546771E-02  0.1510687E+00
          2   -1    0    0  502    0  0.00000000000E+00  0.00000000000E+00  0.10970604509E+04  0.10970604509E+04  0.00000000000E+00 0.  1.
          1   -1    0    0  501    0 -0.00000000000E+00 -0.00000000000E+00 -0.79288905096E+03  0.79288905096E+03  0.00000000000E+00 0. -1.
          2    1    1    2  501    0 -0.21265969854E+02  0.38587157420E+01  0.10968066785E+04  0.10970196084E+04  0.00000000000E+00 0.  1.
          1    1    1    2  502    0  0.21265969854E+02 -0.38587157420E+01 -0.79263527856E+03  0.79292989348E+03  0.00000000000E+00 0. -1.
</event>
<event>
 4    1  0.3927513E+003  0.2491140E+02  0.7546771E-02  0.1469797E+00
          2   -1    0    0  502    0  0.00000000000E+00  0.00000000000E+00  0.12567125832E+03  0.12567125832E+03  0.00000000000E+00 0.  1.
          1   -1    0    0  501    0 -0.00000000000E+00 -0.00000000000E+00 -0.14465596155E+03  0.14465596155E+03  0.00000000000E+00 0. -1.
          2    1    1    2  501    0  0.24911395033E+02 -0.10283815081E-01  0.12334419399E+03  0.12583468480E+03  0.00000000000E+00 0.  1.
          1    1    1    2  502    0 -0.24911395033E+02  0.10283815081E-01 -0.14232889722E+03  0.14449253507E+03  0.00000000000E+00 0. -1.
</event>
<event>
 4    1  0.3927513E+003  0.2394326E+02  0.7546771E-02  0.1480982E+00
          2   -1    0    0  502    0  0.00000000000E+00  0.00000000000E+00  0.23792621759E+02  0.23792621759E+02  0.00000000000E+00 0.  1.
          1   -1    0    0  501    0 -0.00000000000E+00 -0.00000000000E+00 -0.39788170522E+02  0.39788170522E+02  0.00000000000E+00 0.  1.
          2    1    1    2  501    0  0.20448362598E+02  0.12455678575E+02  0.11967555383E+02  0.26767552065E+02  0.00000000000E+00 0.  1.
          1    1    1    2  502    0 -0.20448362598E+02 -0.12455678575E+02 -0.27963104146E+02  0.36813240216E+02  0.00000000000E+00 0.  1.
</event>
<event>
 4    1  0.3927513E+003  0.2585949E+02  0.7546771E-02  0.1459414E+00
          2   -1    0    0  502    0  0.00000000000E+00  0.00000000000E+00  0.51402131224E+01  0.51402131224E+01  0.00000000000E+00 0. -1.
          1   -1    0    0  501    0 -0.00000000000E+00 -0.00000000000E+00 -0.11206165496E+04  0.11206165496E+04  0.00000000000E+00 0.  1.
          2    1    1    2  501    0 -0.25828581714E+02  0.12638592307E+01 -0.28540225358E+02  0.38513081375E+02  0.00000000000E+00 0. -1.
          1    1    1    2  502    0  0.25828581714E+02 -0.12638592307E+01 -0.10869361111E+04  0.10872436813E+04  0.00000000000E+00 0.  1.
</event>
<event>
 4    1  0.3927513E+003  0.2298406E+02  0.7546771E-02  0.1492698E+00
          2   -1    0    0  502    0  0.00000000000E+00  0.00000000000E+00  0.14678356009E+03  0.14678356009E+03  0.00000000000E+00 0. -1.
          1   -1    0    0  501    0 -0.00000000000E+00 -0.00000000000E+00 -0.36495781672E+01  0.36495781672E+01  0.00000000000E+00 0. -1.
          2    1    1    2  501    0  0.22636118353E+02  0.39840691987E+01  0.62707898643E+02  0.66787328242E+02  0.00000000000E+00 0. -1.
          1    1    1    2  502    0 -0.22636118353E+02 -0.39840691987E+01  0.80426083285E+02  0.83645810020E+02  0.00000000000E+00 0. -1.
</event>
<event>
 4    1  0.3927513E+003  0.2133649E+02  0.7546771E-02  0.1514514E+00
          2   -1    0    0  502    0  0.00000000000E+00  0.00000000000E+00  0.50241076146E+03  0.50241076146E+03  0.00000000000E+00 0. -1.
          1   -1    0    0  501    0 -0.00000000000E+00 -0.00000000000E+00 -0.11359735570E+01  0.11359735570E+01  0.00000000000E+00 0. -1.
          2    1    1    2  501    0 -0.16140994304E+02 -0.13954000717E+02  0.36389012168E+03  0.36451511147E+03  0.00000000000E+00 0. -1.
          1    1    1    2  502    0  0.16140994304E+02  0.13954000717E+02  0.13738466621E+03  0.13903162354E+03  0.00000000000E+00 0. -1.
</event>
<event>
 4    1  0.3927513E+003  0.3253596E+02  0.7546771E-02  0.1398766E+00
          2   -1    0    0  502    0  0.00000000000E+00  0.00000000000E+00  0.12388242357E+01  0.12388242357E+01  0.00000000000E+00 0.  1.
          1   -1    0    0  501    0 -0.00000000000E+00 -0.00000000000E+00 -0.17213905296E+04  0.17213905296E+04  0.00000000000E+00 0. -1.
          2    1    1    2  501    0 -0.31235731648E+02 -0.91059230259E+01 -0.24885023032E+03  0.25096817706E+03  0.00000000000E+00 0.  1.
          1    1    1    2  502    0  0.31235731648E+02  0.91059230259E+01 -0.14713014750E+04  0.14716611767E+04  0.00000000000E+00 0. -1.
</event>
<event>
 4    1  0.3927513E+003  0.5179150E+02  0.7546771E-02  0.1290587E+00
          2   -1    0    0  502    0  0.00000000000E+00  0.00000000000E+00  0.63085307807E+03  0.63085307807E+03  0.00000000000E+00 0.  1.
          1   -1    0    0  501    0 -0.00000000000E+00 -0.00000000000E+00 -0.75283312062E+01  0.75283312062E+01  0.00000000000E+00 0. -1.
          2    1    1    2  501    0 -0.51647135771E+02  0.38642365903E+01  0.52223298200E+03  0.52479486130E+03  0.00000000000E+00 0.  1.
          1    1    1    2  502    0  0.51647135771E+02 -0.38642365903E+01  0.10109176486E+03  0.11358654797E+03  0.00000000000E+00 0. -1.
</event>
<event>
 4    1  0.3927513E+003  0.2126506E+02  0.7546771E-02  0.1515514E+00
          2   -1    0    0  502    0  0.00000000000E+00  0.00000000000E+00  0.62806721521E+02  0.62806721521E+02  0.00000000000E+00 0. -1.
          1   -1    0    0  501    0 -0.00000000000E+00 -0.00000000000E+00 -0.76711635962E+02  0.76711635962E+02  0.00000000000E+00 0. -1.
          2    1    1    2  501    0 -0.18276813792E+02  0.10870190222E+02  0.59452386982E+02  0.63141026882E+02  0.00000000000E+00 0. -1.
          1    1    1    2  502    0  0.18276813792E+02 -0.10870190222E+02 -0.73357301423E+02  0.76377330602E+02  0.00000000000E+00 0. -1.
</event>
<event>
 4    1  0.3927513E+003  0.2038880E+02  0.7546771E-02  0.1528173E+00
          2   -1    0    0  502    0  0.00000000000E+00  0.00000000000E+00  0.14919782067E+03  0.14919782067E+03  0.00000000000E+00 0. -1.
          1   -1    0    0  501    0 -0.00000000000E+00 -0.00000000000E+00 -0.15505223267E+02  0.15505223267E+02  0.00000000000E+00 0. -1.
          2    1    1    2  501    0  0.79699246121E+00 -0.20373214335E+02  0.14143251441E+03  0.14289457369E+03  0.00000000000E+00 0. -1.
          1    1    1    2  502    0 -0.79699246121E+00  0.20373214335E+02 -0.77399170018E+01  0.21808470247E+02  0.00000000000E+00 0. -1.
</event>
<event>
 4    1  0.3927513E+003  0.2404810E+02  0.7546771E-02  0.1479740E+00
          2   -1    0    0  502    0  0.00000000000E+00  0.00000000000E+00  0.15840776250E+04  0.15840776250E+04  0.00000000000E+00 0.  1.
          1   -1    0    0  501    0 -0.00000000000E+00 -0.00000000000E+00 -0.90333704830E+00  0.90333704830E+00  0.00000000000E+00 0. -1.
          2    1    1    2  501    0  0.21296641044E+02  0.11169785396E+02  0.14033245446E+04  0.14035305798E+04  0.00000000000E+00 0.  1.
          1    1    1    2  502    0 -0.21296641044E+02 -0.11169785396E+02  0.17984974337E+03  0.18145038224E+03  0.00000000000E+00 0. -1.
</event>
<event>
 4    1  0.3927513E+003  0.2205675E+02  0.7546771E-02  0.1504695E+00
          2   -1    0    0  502    0  0.00000000000E+00  0.00000000000E+00  0.11986304893E+03  0.11986304893E+03  0.00000000000E+00 0.  1.
          1   -1    0    0  501    0 -0.00000000000E+00 -0.00000000000E+00 -0.52423025492E+01  0.52423025492E+01  0.00000000000E+00 0. -1.
          2    1    1    2  501    0  0.17134657497E+02  0.13888976126E+02  0.87031785747E+02  0.89783249416E+02  0.00000000000E+00 0.  1.
          1    1    1    2  502    0 -0.17134657497E+02 -0.13888976126E+02  0.27588960637E+02  0.35322102066E+02  0.00000000000E+00 0. -1.
</event>
<event>
 4    1  0.3927513E+003  0.2442851E+02  0.7546771E-02  0.1475299E+00
          2   -1    0    0  502    0  0.00000000000E+00  0.00000000000E+00  0.12239183049E+01  0.12239183049E+01  0.00000000000E+00 0.  1.
          1   -1    0    0  501    0 -0.00000000000E+00 -0.00000000000E+00 -0.54975833691E+03  0.54975833691E+03  0.00000000000E+00 0.  1.
          2    1    1    2  501    0  0.12665853240E+01 -0.24395651589E+02 -0.18161442660E+03  0.18324997136E+03  0.00000000000E+00 0.  1.
          1    1    1    2  502    0 -0.12665853240E+01  0.24395651589E+02 -0.36691999200E+03  0.36773228385E+03  0.00000000000E+00 0.  1.
</event>
<event>
 4    1  0.3927513E+003  0.2922436E+02  0.7546771E-02  0.1426459E+00
          2   -1    0    0  502    0  0.00000000000E+00  0.00000000000E+00  0.16610243188E+01  0.16610243188E+01  0.00000000000E+00 0.  1.
          1   -1    0    0  501    0 -0.00000000000E+00 -0.00000000000E+00 -0.52033770792E+03  0.52033770792E+03  0.00000000000E+00 0.  1.
          2    1    1    2  501    0 -0.25958625706E+02 -0.13424313642E+02 -0.28773523664E+03  0.28921554047E+03  0.00000000000E+00 0.  1.
          1    1    1    2  502    0  0.25958625706E+02  0.13424313642E+02 -0.23094144697E+03  0.23278319177E+03  0.00000000000E+00 0.  1.
</event>
<event>
 4    1  0.3927513E+003  0.2825125E+02  0.7546771E-02  0.1435428E+00
          2   -1    0    0  502    0  0.00000000000E+00  0.00000000000E+00  0.30211786770E+04  0.30211786770E+04  0.00000000000E+00 0.  1.
          1   -1    0    0  501    0 -0.00000000000E+00 -0.00000000000E+00 -0.29848028351E+00  0.29848028351E+00  0.00000000000E+00 0.  1.
          2    1    1    2  501    0 -0.14049251376E+02  0.24510217038E+02  0.99830307340E+03  0.99870273784E+03  0.00000000000E+00 0.  1.
          1    1    1    2  502    0  0.14049251376E+02 -0.24510217038E+02  0.20225771233E+04  0.20227744194E+04  0.00000000000E+00 0.  1.
</event>
<event>
 4    1  0.3927513E+003  0.2127796E+02  0.7546771E-02  0.1515333E+00
          2   -1    0    0  502    0  0.00000000000E+00  0.00000000000E+00  0.10379565065E+02  0.10379565065E+02  0.00000000000E+00 0. -1.
          1   -1    0    0  501    0 -0.00000000000E+00 -0.00000000000E+00 -0.33791270995E+03  0.33791270995E+03  0.00000000000E+00 0. -1.
          2    1    1    2  501    0 -0.11396228199E+02  0.17968788870E+02 -0.12484833522E+01  0.21314551398E+02  0.00000000000E+00 0. -1.
          1    1    1    2  502    0  0.11396228199E+02 -0.17968788870E+02 -0.32628466154E+03  0.32697772362E+03  0.00000000000E+00 0. -1.
</event>
<event>
 4    1  0.3927513E+003  0.2043554E+02  0.7546771E-02  0.1527479E+00
          2   -1    0    0  502    0  0.00000000000E+00  0.00000000000E+00  0.11162316418E+04  0.11162316418E+04  0.00000000000E+00 0.  1.
          1   -1    0    0  501    0 -0.00000000000E+00 -0.00000000000E+00 -0.55581178934E+00  0.55581178934E+00  0.00000000000E+00 0.  1.
          2    1    1    2  501    0 -0.13589010651E+02  0.15262696353E+02  0.87709262576E+03  0.87733065903E+03  0.00000000000E+00 0.  1.
          1    1    1    2  502    0  0.13589010651E+02 -0.15262696353E+02  0.23858320427E+03  0.23945679458E+03  0.00000000000E+00 0.  1.
</event>
<event>
 4    1  0.3927513E+003  0.2662159E+02  0.7546771E-02  0.1451447E+00
          2   -1    0    0  502    0  0.00000000000E+00  0.00000000000E+00  0.36341924601E+01  0.36341924601E+01  0.00000000000E+00 0. -1.
          1   -1    0    0  501    0 -0.00000000000E+00 -0.00000000000E+00 -0.15074868942E+04  0.15074868942E+04  0.00000000000E+00 0.  1.
          2    1    1    2  501    0  0.21374097815E+02  0.15870002120E+02 -0.46928007749E+02  0.53953192083E+02  0.00000000000E+00 0. -1.
          1    1    1    2  502    0 -0.21374097815E+02 -0.15870002120E+02 -0.14569246940E+04  0.14571678946E+04  0.00000000000E+00 0.  1.
</event>
<event>
 4    1  0.3927513E+003  0.2526433E+02  0.7546771E-02  0.1465868E+00
          2   -1    0    0  502    0  0.00000000000E+00  0.00000000000E+00  0.81698459471E+02  0.81698459471E+02  0.00000000000E+00 0. -1.
          1   -1    0    0  501    0 -0.00000000000E+00 -0.00000000000E+00 -0.15254267341E+04  0.15254267341E+04  0.00000000000E+00 0. -1.
          2    1    1    2  501    0  0.15601606203E+02  0.19871499742E+02  0.79638031749E+02  0.83549402864E+02  0.00000000000E+00 0. -1.
          1    1    1    2  502    0 -0.15601606203E+02 -0.19871499742E+02 -0.15233663064E+04  0.15235757908E+04  0.00000000000E+00 0. -1.
</event>
<event>
 4    1  0.3927513E+003  0.3876263E+02  0.7546771E-02  0.1355893E+00
          2   -1    0    0  502    0  0.00000000000E+00  0.00000000000E+00  0.14058610445E+04  0.14058610445E+04  0.00000000000E+00 0. -1.
          1   -1    0    0  501    0 -0.00000000000E+00 -0.00000000000E+00 -0.77167168350E+01  0.77167168350E+01  0.00000000000E+00 0.  1.
          2    1    1    2  501    0  0.29520797163E+02 -0.25120983932E+02  0.13550923666E+04  0.13556466587E+04  0.00000000000E+00 0. -1.
          1    1    1    2  502    0 -0.29520797163E+02  0.25120983932E+02  0.43051961097E+02  0.57931102640E+02  0.00000000000E+00 0.  1.
</event>
<event>
 4    1  0.3927513E+003  0.6823874E+02  0.7546771E-02  0.1234147E+00
          2   -1    0    0  502    0  0.00000000000E+00  0.00000000000E+00  0.77281875505E+01  0.77281875505E+01  0.00000000000E+00 0. -1.
          1   -1    0    0  501    0 -0.00000000000E+00 -0.00000000000E+00 -0.89199982800E+03  0.89199982800E+03  0.00000000000E+00 0. -1.
          2    1    1    2  501    0 -0.64153348163E+02 -0.23256678841E+02 -0.18586765681E+03  0.19799826019E+03  0.00000000000E+00 0. -1.
          1    1    1    2  502    0  0.64153348163E+02  0.23256678841E+02 -0.69840398364E+03  0.70172975536E+03  0.00000000000E+00 0. -1.
</event>
<event>
 4    1  0.3927513E+003  0.2601323E+02  0.7546771E-02  0.1457780E+00
          2   -1    0    0  502    0  0.00000000000E+00  0.00000000000E+00  0.34899741378E+02  0.34899741378E+02  0.00000000000E+00 0.  1.
          1   -1    0    0  501    0 -0.00000000000E+00 -0.00000000000E+00 -0.16710588699E+03  0.16710588699E+03  0.00000000000E+00 0. -1.
          2    1    1    2  501    0 -0.49903208799E+01 -0.25530081925E+02  0.28859384489E+02  0.38852959458E+02  0.00000000000E+00 0.  1.
          1    1    1    2  502    0  0.49903208799E+01  0.25530081925E+02 -0.16106553010E+03  0.16315266891E+03  0.00000000000E+00 0. -1.
</event>
<event>
 4    1  0.3927513E+003  0.4125759E+02  0.7546771E-02  0.1341270E+00
          2   -1    0    0  502    0  0.00000000000E+00  0.00000000000E+00  0.10774988954E+04  0.10774988954E+04  0.00000000000E+00 0.  1.
          1   -1    0    0  501    0 -0.00000000000E+00 -0.00000000000E+00 -0.45888496378E+02  0.45888496378E+02  0.00000000000E+00 0.  1.
          2    1    1    2  501    0 -0.19689248335E+02  0.36256336490E+02  0.10677457772E+04  0.10685425743E+04  0.00000000000E+00 0.  1.
          1    1    1    2  502    0  0.19689248335E+02 -0.36256336490E+02 -0.36135378226E+02  0.54844817396E+02  0.00000000000E+00 0.  1.
</event>
<event>
 4    1  0.3927513E+003  0.2254478E+02  0.7546771E-02  0.1498295E+00
          2   -1    0    0  502    0  0.00000000000E+00  0.00000000000E+00  0.97078872449E+03  0.97078872449E+03  0.00000000000E+00 0. -1.
          1   -1    0    0  501    0 -0.00000000000E+00 -0.00000000000E+00 -0.65175884309E+00  0.65175884309E+00  0.00000000000E+00 0. -1.
          2    1    1    2  501    0  0.15868482710E+02  0.16014320940E+02  0.70048694196E+03  0.70084964370E+03  0.00000000000E+00 0. -1.
          1    1    1    2  502    0 -0.15868482710E+02 -0.16014320940E+02  0.26965002369E+03  0.27059083963E+03  0.00000000000E+00 0. -1.
</event>
<event>
 4    1  0.3927513E+003  0.3113540E+02  0.7546771E-02  0.1409980E+00
          2   -1    0    0  502    0  0.00000000000E+00  0.00000000000E+00  0.61890589661E+01  0.61890589661E+01  0.00000000000E+00 0. -1.
          1   -1    0    0  501    0 -0.00000000000E+00 -0.00000000000E+00 -0.47439020667E+03  0.47439020667E+03  0.00000000000E+00 0.  1.
          2    1    1    2  501    0  0.30823943204E+02 -0.43929146976E+01 -0.37441211446E+02  0.48695559230E+02  0.00000000000E+00 0. -1.
          1    1    1    2  502    0 -0.30823943204E+02  0.43929146976E+01 -0.43075993626E+03  0.43188370641E+03  0.00000000000E+00 0.  1.
</event>
<event>
 4    1  0.3927513E+003  0.2966328E+02  0.7546771E-02  0.1422545E+00
          2   -1    0    0  502    0  0.00000000000E+00  0.00000000000E+00  0.13415957115E+03  0.13415957115E+03  0.00000000000E+00 0. -1.
          1   -1    0    0  501    0 -0.00000000000E+00 -0.00000000000E+00 -0.10449063521E+04  0.10449063521E+04  0.00000000000E+00 0.  1.
          2    1    1    2  501    0 -0.15031441070E+02 -0.25572754993E+02  0.13230646442E+03  0.13559096779E+03  0.00000000000E+00 0. -1.
          1    1    1    2  502    0  0.15031441070E+02  0.25572754993E+02 -0.10430532453E+04  0.10434749554E+04  0.00000000000E+00 0.  1.
</event>
<event>
 4    1  0.3927513E+003  0.2203645E+02  0.7546771E-02  0.1504965E+00
          2   -1    0    0  502    0  0.00000000000E+00  0.00000000000E+00  0.12141659933E+04  0.12141659933E+04  0.00000000000E+00 0. -1.
          1   -1    0    0  501    0 -0.00000000000E+00 -0.00000000000E+00 -0.10005875174E+02  0.10005875174E+02  0.00000000000E+00 0.  1.
          2    1    1    2  501    0 -0.89859053097E+01 -0.20121098686E+02  0.12018082581E+04  0.12020102722E+04  0.00000000000E+00 0. -1.
          1    1    1    2  502    0  0.89859053097E+01  0.20121098686E+02  0.23518600348E+01  0.22161596336E+02  0.00000000000E+00 0.  1.
</event>
<event>
 4    1  0.3927513E+003  0.2616456E+02  0.7546771E-02  0.1456186E+00
          2   -1    0    0  502    0  0.00000000000E+00  0.00000000000E+00  0.24455653284E+03  0.24455653284E+03  0.00000000000E+00 0. -1.
          1   -1    0    0  501    0 -0.00000000000E+00 -0.00000000000E+00 -0.10239994693E+03  0.10239994693E+03  0.00000000000E+00 0.  1.
          2    1    1    2  501    0  0.73379199906E+01  0.25114523988E+02  0.24216893073E+03  0.24357827365E+03  0.00000000000E+00 0. -1.
          1    1    1    2  502    0 -0.73379199906E+01 -0.25114523988E+02 -0.10001234482E+03  0.10337820612E+03  0.00000000000E+00 0.  1.
</event>
<event>
 4    1  0.3927513E+003  0.2753607E+02  0.7546771E-02  0.1442296E+00
          2   -1    0    0  502    0  0.00000000000E+00  0.00000000000E+00  0.41664075138E+01  0.41664075138E+01  0.00000000000E+00 0.  1.
          1   -1    0    0  501    0 -0.00000000000E+00 -0.00000000000E+00 -0.50195773555E+03  0.50195773555E+03  0.00000000000E+00 0.  1.
          2    1    1    2  501    0  0.23657121386E+02 -0.14091692052E+02 -0.46850669303E+02  0.54343540474E+02  0.00000000000E+00 0.  1.
          1    1    1    2  502    0 -0.23657121386E+02  0.14091692052E+02 -0.45094065873E+03  0.45178060259E+03  0.00000000000E+00 0.  1.
</event>
<event>
 4    1  0.3927513E+003  0.4275216E+02  0.7546771E-02  0.1333071E+00
          2   -1    0    0  502    0  0.00000000000E+00  0.00000000000E+00  0.90907641387E+03  0.90907641387E+03  0.00000000000E+00 0. -1.
          1   -1    0    0  501    0 -0.00000000000E+00 -0.00000000000E+00 -0.22250696600E+01  0.22250696600E+01  0.00000000000E+00 0. -1.
          2    1    1    2  501    0  0.41239576463E+02  0.11271406382E+02  0.59490393624E+03  0.59643812808E+03  0.00000000000E+00 0. -1.
          1    1    1    2  502    0 -0.41239576463E+02 -0.11271406382E+02  0.31194740796E+03  0.31486335545E+03  0.00000000000E+00 0. -1.
</event>
<event>
 4    1  0.3927513E+003  0.2389793E+02  0.7546771E-02  0.1481520E+00
          2   -1    0    0  502    0  0.00000000000E+00  0.00000000000E+00  0.81331350150E+03  0.81331350150E+03  0.00000000000E+00 0. -1.
          1   -1    0    0  501    0 -0.00000000000E+00 -0.00000000000E+00 -0.57098941168E+01  0.57098941168E+01  0.00000000000E+00 0.  1.
          2    1    1    2  501    0  0.23891670975E+02  0.54683887101E+00  0.78730683156E+03  0.78766944717E+03  0.00000000000E+00 0. -1.
          1    1    1    2  502    0 -0.23891670975E+02 -0.54683887101E+00  0.20296775821E+02  0.31353948450E+02  0.00000000000E+00 0.  1.
</event>
<event>
 4    1  0.3927513E+003  0.2141450E+02  0.7546771E-02  0.1513428E+00
          2   -1    0    0  502    0  0.00000000000E+00  0.00000000000E+00  0.72483641502E+03  0.72483641502E+03  0.00000000000E+00 0.  1.
          1   -1    0    0  501    0 -0.00000000000E+00 -0.00000000000E+00 -0.10253256340E+03  0.10253256340E+03  0.00000000000E+00 0. -1.
          2    1    1    2  501    0 -0.21381862637E+02 -0.11818233383E+01  0.72355813869E+03  0.72387496215E+03  0.00000000000E+00 0.  1.
          1    1    1    2  502    0  0.21381862637E+02  0.11818233383E+01 -0.10125428707E+03  0.10349401628E+03  0.00000000000E+00 0. -1.
</event>
<event>
 4    1  0.3927513E+003  0.2330438E+02  0.7546771E-02  0.1488711E+00
          2   -1    0    0  502    0  0.00000000000E+00  0.00000000000E+00  0.17198204486E+04  0.17198204486E+04  0.00000000000E+00 0.  1.
          1   -1    0    0  501    0 -0.00000000000E+00 -0.00000000000E+00 -0.69690281052E+02  0.69690281052E+02  0.00000000000E+00 0. -1.
          2    1    1    2  501    0  0.20558411047E+02 -0.10974790541E+02  0.17177909580E+04  0.17179490300E+04  0.00000000000E+00 0.  1.
          1    1    1    2  502    0 -0.20558411047E+02  0.10974790541E+02 -0.67660790453E+02  0.71561699650E+02  0.00000000000E+00 0. -1.
</event>
<event>
 4    1  0.3927513E+003  0.2584967E+02  0.7546771E-02  0.1459519E+00
          2   -1    0    0  502    0  0.00000000000E+00  0.00000000000E+00  0.95597191224E+03  0.95597191224E+03  0.00000000000E+00 0. -1.
          1   -1    0    0  501    0 -0.00000000000E+00 -0.00000000000E+00 -0.81745077292E+01  0.81745077292E+01  0.00000000000E+00 0. -1.
          2    1    1    2  501    0  0.26479023607E+01 -0.25713690491E+02  0.93490103262E+03  0.93525833119E+03  0.00000000000E+00 0. -1.
          1    1    1    2  502    0 -0.26479023607E+01  0.25713690491E+02  0.12896371897E+02  0.28888088786E+02  0.00000000000E+00 0. -1.
</event>
<event>
 4    1  0.3927513E+003  0.3634566E+02  0.7546771E-02  0.1371342E+00
          2   -1    0    0  502    0  0.00000000000E+00  0.00000000000E+00  0.66504745852E+03  0.66504745852E+03  0.00000000000E+00 0.  1.
          1   -1    0    0  501    0 -0.00000000000E+00 -0.00000000000E+00 -0.32507115058E+01  0.32507115058E+01  0.00000000000E+00 0. -1.
          2    1    1    2  501    0 -0.36327719869E+02 -0.11418029133E+01  0.53929433390E+03  0.54051770139E+03  0.00000000000E+00 0.  1.
          1    1    1    2  502    0  0.36327719869E+02  0.11418029133E+01  0.12250241312E+03  0.12778046864E+03  0.00000000000E+00 0. -1.
</event>
<event>
 4    1  0.3927513E+003  0.2151398E+02  0.7546771E-02  0.1512052E+00
          2   -1    0    0  502    0  0.00000000000E+00  0.00000000000E+00  0.21408224526E+03  0.21408224526E+03  0.00000000000E+00 0. -1.
          1   -1    0    0  501    0 -0.00000000000E+00 -0.00000000000E+00 -0.34370508134E+03  0.34370508134E+03  0.00000000000E+00 0.  1.
          2    1    1    2  501    0  0.11177516464E+02  0.18382450757E+02  0.21320369182E+03  0.21428641015E+03  0.00000000000E+00 0. -1.
          1    1    1    2  502    0 -0.11177516464E+02 -0.18382450757E+02 -0.34282652790E+03  0.34350091645E+03  0.00000000000E+00 0.  1.
</event>
<event>
 4    1  0.3927513E+003  0.2375200E+02  0.7546771E-02  0.1483265E+00
          2   -1    0    0  502    0  0.00000000000E+00  0.00000000000E+00  0.92266666523E+03  0.92266666523E+03  0.00000000000E+00 0. -1.
          1   -1    0    0  501    0 -0.00000000000E+00 -0.00000000000E+00 -0.28556501890E+01  0.28556501890E+01  0.00000000000E+00 0. -1.
          2    1    1    2  501    0  0.48121822719E+01  0.23259415689E+02  0.87014354779E+03  0.87046766239E+03  0.00000000000E+00 0. -1.
          1    1    1    2  502    0 -0.48121822719E+01 -0.23259415689E+02  0.49667467256E+02  0.55054653028E+02  0.00000000000E+00 0. -1.
</event>
<event>
 4    1  0.3927513E+003  0.4755154E+02  0.7546771E-02  0.1309152E+00
          2   -1    0    0  502    0  0.00000000000E+00  0.00000000000E+00  0.10938940736E+02  0.10938940736E+02  0.00000000000E+00 0.  1.
          1   -1    0    0  501    0 -0.00000000000E+00 -0.00000000000E+00 -0.11216534840E+04  0.11216534840E+04  0.00000000000E+00 0. -1.
          2    1    1    2  501    0 -0.24605821102E+02 -0.40690322191E+02 -0.43896537812E+02  0.64715182021E+02  0.00000000000E+00 0.  1.
          1    1    1    2  502    0  0.24605821102E+02  0.40690322191E+02 -0.10668180054E+04  0.10678772427E+04  0.00000000000E+00 0. -1.
</event>
<event>
 4    1  0.3927513E+003  0.2077575E+02  0.7546771E-02  0.1522491E+00
          2   -1    0    0  502    0  0.00000000000E+00  0.00000000000E+00  0.44187070501E+03  0.44187070501E+03  0.00000000000E+00 0.  1.
          1   -1    0    0  501    0 -0.00000000000E+00 -0.00000000000E+00 -0.26137082889E+02  0.26137082889E+02  0.00000000000E+00 0.  1.
          2    1    1    2  501    0 -0.63631376969E+01  0.19777315171E+02  0.43745632269E+03  0.43794938746E+03  0.00000000000E+00 0.  1.
          1    1    1    2  502    0  0.63631376969E+01 -0.19777315171E+02 -0.21722700570E+02  0.30058400436E+02  0.00000000000E+00 0.  1.
</event>
<event>
 4    1  0.3927513E+003  0.5686458E+02  0.7546771E-02  0.1270875E+00
          2   -1    0    0  502    0  0.00000000000E+00  0.00000000000E+00  0.10490779898E+04  0.10490779898E+04  0.00000000000E+00 0. -1.
          1   -1    0    0  501    0 -0.00000000000E+00 -0.00000000000E+00 -0.51630184700E+01  0.51630184700E+01  0.00000000000E+00 0. -1.
          2    1    1    2  501    0  0.31215685732E+02 -0.47530636869E+02  0.85658681009E+03  0.85847221486E+03  0.00000000000E+00 0. -1.
          1    1    1    2  502    0 -0.31215685732E+02  0.47530636869E+02  0.18732816122E+03  0.19576879338E+03  0.00000000000E+00 0. -1.
</event>
<event>
 4    1  0.3927513E+003  0.2793703E+02  0.7546771E-02  0.1438416E+00
          2   -1    0    0  502    0  0.00000000000E+00  0.00000000000E+00  0.50613657205E+03  0.50613657205E+03  0.00000000000E+00 0. -1.
          1   -1    0    0  501    0 -0.00000000000E+00 -0.00000000000E+00 -0.57526618891E+02  0.57526618891E+02  0.00000000000E+00 0. -1.
          2    1    1    2  501    0  0.17476198909E+02  0.21795871958E+02  0.50233359587E+03  0.50310984795E+03  0.00000000000E+00 0. -1.
          1    1    1    2  502    0 -0.17476198909E+02 -0.21795871958E+02 -0.53723642706E+02  0.60553342999E+02  0.00000000000E+00 0. -1.
</event>
<event>
 4    1  0.3927513E+003  0.5199725E+02  0.7546771E-02  0.1289738E+00
          2   -1    0    0  502    0  0.00000000000E+00  0.00000000000E+00  0.89846127224E+03  0.89846127224E+03  0.00000000000E+00 0. -1.
          1   -1    0    0  501    0 -0.00000000000E+00 -0.00000000000E+00 -0.60076552344E+02  0.60076552344E+02  0.00000000000E+00 0.  1.
          2    1    1    2  501    0 -0.40589713599E+02 -0.32499066971E+02  0.88630363166E+03  0.88782759683E+03  0.00000000000E+00 0. -1.
          1    1    1    2  502    0  0.40589713599E+02  0.32499066971E+02 -0.47918911764E+02  0.70710227752E+02  0.00000000000E+00 0.  1.
</event>
<event>
 4    1  0.3927513E+003  0.2275991E+02  0.7546771E-02  0.1495535E+00
          2   -1    0    0  502    0  0.00000000000E+00  0.00000000000E+00  0.10082001078E+04  0.10082001078E+04  0.00000000000E+00 0. -1.
          1   -1    0    0  501    0 -0.00000000000E+00 -0.00000000000E+00 -0.58141584498E+00  0.58141584498E+00  0.00000000000E+00 0. -1.
          2    1    1    2  501    0 -0.13142972494E+02 -0.18581593855E+02  0.67581688551E+03  0.67620002669E+03  0.00000000000E+00 0. -1.
          1    1    1    2  502    0  0.13142972494E+02  0.18581593855E+02  0.33180180648E+03  0.33258149698E+03  0.00000000000E+00 0. -1.
</event>
<event>
 4    1  0.3927513E+003  0.2211587E+02  0.7546771E-02  0.1503909E+00
          2   -1    0    0  502    0  0.00000000000E+00  0.00000000000E+00  0.10424577714E+04  0.10424577714E+04  0.00000000000E+00 0.  1.
          1   -1    0    0  501    0 -0.00000000000E+00 -0.00000000000E+00 -0.34194265995E+03  0.34194265995E+03  0.00000000000E+00 0. -1.
          2    1    1    2  501    0  0.10899997144E+02  0.19243223677E+02  0.10419827130E+04  0.10422173890E+04  0.00000000000E+00 0.  1.
          1    1    1    2  502    0 -0.10899997144E+02 -0.19243223677E+02 -0.34146760157E+03  0.34218304241E+03  0.00000000000E+00 0. -1.
</event>
<event>
 4    1  0.3927513E+003  0.2410538E+02  0.7546771E-02  0.1479066E+00
          2   -1    0    0  502    0  0.00000000000E+00  0.00000000000E+00  0.30568671807E+02  0.30568671807E+02  0.00000000000E+00 0.  1.
          1   -1    0    0  501    0 -0.00000000000E+00 -0.00000000000E+00 -0.44265506770E+03  0.44265506770E+03  0.00000000000E+00 0. -1.
          2    1    1    2  501    0 -0.11084069195E+02  0.21405902274E+02  0.25432592272E+02  0.35041204200E+02  0.00000000000E+00 0.  1.
          1    1    1    2  502    0  0.11084069195E+02 -0.21405902274E+02 -0.43751898817E+03  0.43818253531E+03  0.00000000000E+00 0. -1.
</event>
<event>
 4    1  0.3927513E+003  0.2040519E+02  0.7546771E-02  0.1527929E+00
          2   -1    0    0  502    0  0.00000000000E+00  0.00000000000E+00  0.92096760368E+00  0.92096760368E+00  0.00000000000E+00 0. -1.
          1   -1    0    0  501    0 -0.00000000000E+00 -0.00000000000E+00 -0.46755854369E+03  0.46755854369E+03  0.00000000000E+00 0.  1.
          2    1    1    2  501    0 -0.19568075872E+02  0.57846481807E+01 -0.19073033160E+03  0.19181874554E+03  0.00000000000E+00 0. -1.
          1    1    1    2  502    0  0.19568075872E+02 -0.57846481807E+01 -0.27590724449E+03  0.27666076575E+03  0.00000000000E+00 0.  1.
</event>
<event>
 4    1  0.3927513E+003  0.2725938E+02  0.7546771E-02  0.1445020E+00
          2   -1    0    0  502    0  0.00000000000E+00  0.00000000000E+00  0.16368342326E+03  0.16368342326E+03  0.00000000000E+00 0.  1.
          1   -1    0    0  501    0 -0.00000000000E+00 -0.00000000000E+00 -0.52136308681E+01  0.52136308681E+01  0.00000000000E+00 0.  1.
          2    1    1    2  501    0  0.25805011717E+02  0.87849310163E+01  0.10959684208E+03  0.11293600594E+03  0.00000000000E+00 0.  1.
          1    1    1    2  502    0 -0.25805011717E+02 -0.87849310163E+01  0.48872950313E+02  0.55961048194E+02  0.00000000000E+00 0.  1.
</event>
<event>
 4    1  0.3927513E+003  0.2683673E+02  0.7546771E-02  0.1449255E+00
          2   -1    0    0  502    0  0.00000000000E+00  0.00000000000E+00  0.17179312602E+04  0.17179312602E+04  0.00000000000E+00 0. -1.
          1   -1    0    0  501    0 -0.00000000000E+00 -0.00000000000E+00 -0.64311750225E+00  0.64311750225E+00  0.00000000000E+00 0.  1.
          2    1    1    2  501    0  0.23666683627E+02 -0.12652989919E+02  0.13656430828E+04  0.13659067464E+04  0.00000000000E+00 0. -1.
          1    1    1    2  502    0 -0.23666683627E+02  0.12652989919E+02  0.35164505985E+03  0.35266763133E+03  0.00000000000E+00 0.  1.
</event>
<event>
 4    1  0.3927513E+003  0.2746454E+02  0.7546771E-02  0.1442997E+00
          2   -1    0    0  502    0  0.00000000000E+00  0.00000000000E+00  0.21632842310E+02  0.21632842310E+02  0.00000000000E+00 0. -1.
          1   -1    0    0  501    0 -0.00000000000E+00 -0.00000000000E+00 -0.13339201947E+03  0.13339201947E+03  0.00000000000E+00 0.  1.
          2    1    1    2  501    0 -0.23921120532E+01  0.27360171278E+02  0.10736136260E+02  0.29488401012E+02  0.00000000000E+00 0. -1.
          1    1    1    2  502    0  0.23921120532E+01 -0.27360171278E+02 -0.12249531342E+03  0.12553646077E+03  0.00000000000E+00 0.  1.
</event>
<event>
 4    1  0.3927513E+003  0.2645531E+02  0.7546771E-02  0.1453158E+00
          2   -1    0    0  502    0  0.00000000000E+00  0.00000000000E+00  0.90632144162E+03  0.90632144162E+03  0.00000000000E+00 0.  1.
          1   -1    0    0  501    0 -0.00000000000E+00 -0.00000000000E+00 -0.27253474097E+02  0.27253474097E+02  0.00000000000E+00 0.  1.
          2    1    1    2  501    0 -0.15829960114E+02  0.21196603091E+02  0.89966073167E+03  0.90004961848E+03  0.00000000000E+00 0.  1.
          1    1    1    2  502    0  0.15829960114E+02 -0.21196603091E+02 -0.20592764144E+02  0.33525297238E+02  0.00000000000E+00 0.  1.
</event>
<event>
 4    1  0.3927513E+003  0.2097159E+02  0.7546771E-02  0.1519671E+00
          2   -1    0    0  502    0  0.00000000000E+00  0.00000000000E+00  0.12017026911E+03  0.12017026911E+03  0.00000000000E+00 0. -1.
          1   -1    0    0  501    0 -0.00000000000E+00 -0.00000000000E+00 -0.12686055039E+03  0.12686055039E+03  0.00000000000E+00 0.  1.
          2    1    1    2  501    0  0.20964146721E+02 -0.55857171137E+00  0.11837554852E+03  0.12021887513E+03  0.00000000000E+00 0. -1.
          1    1    1    2  502    0 -0.20964146721E+02  0.55857171137E+00 -0.12506582981E+03  0.12681194437E+03  0.00000000000E+00 0.  1.
</event>
<event>
 4    1  0.3927513E+003  0.2068886E+02  0.7546771E-02  0.1523754E+00
          2   -1    0    0  502    0  0.00000000000E+00  0.00000000000E+00  0.11935946588E+04  0.11935946588E+04  0.00000000000E+00 0.  1.
          1   -1    0    0  501    0 -0.00000000000E+00 -0.00000000000E+00 -0.98621835115E+02  0.98621835115E+02  0.00000000000E+00 0. -1.
          2    1    1    2  501    0  0.23906443701E+01  0.20550274112E+02  0.11924189120E+04  0.11925983777E+04  0.00000000000E+00 0.  1.
          1    1    1    2  502    0 -0.23906443701E+01 -0.20550274112E+02 -0.97446088293E+02  0.99618116174E+02  0.00000000000E+00 0. -1.
</event>
<event>
 4    1  0.3927513E+003  0.2930096E+02  0.7546771E-02  0.1425770E+00
          2   -1    0    0  502    0  0.00000000000E+00  0.00000000000E+00  0.13467012822E+02  0.13467012822E+02  0.00000000000E+00 0.  1.
          1   -1    0    0  501    0 -0.00000000000E+00 -0.00000000000E+00 -0.66627327644E+03  0.66627327644E+03  0.00000000000E+00 0.  1.
          2    1    1    2  501    0  0.14628210923E+02  0.25388214000E+02 -0.32018354341E+01  0.29475374723E+02  0.00000000000E+00 0.  1.
          1    1    1    2  502    0 -0.14628210923E+02 -0.25388214000E+02 -0.64960442819E+03  0.65026491454E+03  0.00000000000E+00 0.  1.
</event>
<event>
 4    1  0.3927513E+003  0.2242325E+02  0.7546771E-02  0.1499870E+00
          2   -1    0    0  502    0  0.00000000000E+00  0.00000000000E+00  0.16842357448E+03  0.16842357448E+03  0.00000000000E+00 0.  1.
          1   -1    0    0  501    0 -0.00000000000E+00 -0.00000000000E+00 -0.61037126971E+03  0.61037126971E+03  0.00000000000E+00 0.  1.
          2    1    1    2  501    0 -0.18690743521E+02 -0.12387831490E+02  0.16747013013E+03  0.16896463165E+03  0.00000000000E+00 0.  1.
          1    1    1    2  502    0  0.18690743521E+02  0.12387831490E+02 -0.60941782536E+03  0.60983021255E+03  0.00000000000E+00 0.  1.
</event>
<event>
 4    1  0.3927513E+003  0.3041399E+02  0.7546771E-02  0.1416032E+00
          2   -1    0    0  502    0  0.00000000000E+00  0.00000000000E+00  0.98107222277E+02  0.98107222277E+02  0.00000000000E+00 0. -1.
          1   -1    0    0  501    0 -0.00000000000E+00 -0.00000000000E+00 -0.11989722434E+02  0.11989722434E+02  0.00000000000E+00 0. -1.
          2    1    1    2  501    0  0.20900473843E+02  0.22094818586E+02  0.68501169969E+02  0.74949456985E+02  0.00000000000E+00 0. -1.
          1    1    1    2  502    0 -0.20900473843E+02 -0.22094818586E+02  0.17616329875E+02  0.35147487726E+02  0.00000000000E+00 0. -1.
</event>
<event>
 4    1  0.3927513E+003  0.2984802E+02  0.7546771E-02  0.1420922E+00
          2   -1    0    0  502    0  0.00000000000E+00  0.00000000000E+00  0.41864163968E+03  0.41864163968E+03  0.00000000000E+00 0.  1.
          1   -1    0    0  501    0 -0.00000000000E+00 -0.00000000000E+00 -0.43821421001E+03  0.43821421001E+03  0.00000000000E+00 0.  1.
          2    1    1    2  501    0 -0.12672389805E+02 -0.27024333504E+02  0.41760009463E+03  0.41866543098E+03  0.00000000000E+00 0.  1.
          1    1    1    2  502    0  0.12672389805E+02  0.27024333504E+02 -0.43717266496E+03  0.43819041872E+03  0.00000000000E+00 0.  1.
</event>
<event>
 4    1  0.3927513E+003  0.2568590E+02  0.7546771E-02  0.1461275E+00
          2   -1    0    0  502    0  0.00000000000E+00  0.00000000000E+00  0.82427354251E+03  0.82427354251E+03  0.00000000000E+00 0.  1.
          1   -1    0    0  501    0 -0.00000000000E+00 -0.00000000000E+00 -0.23720623512E+02  0.23720623512E+02  0.00000000000E+00 0.  1.
          2    1    1    2  501    0 -0.24310769775E+02  0.82916776839E+01  0.81705854978E+03  0.81746219437E+03  0.00000000000E+00 0.  1.
          1    1    1    2  502    0  0.24310769775E+02 -0.82916776839E+01 -0.16505630782E+02  0.30531971659E+02  0.00000000000E+00 0.  1.
</event>
<event>
 4    1  0.3927513E+003  0.2615295E+02  0.7546771E-02  0.1456308E+00
          2   -1    0    0  502    0  0.00000000000E+00  0.00000000000E+00  0.25745278293E+02  0.25745278293E+02  0.00000000000E+00 0.  1.
          1   -1    0    0  501    0 -0.00000000000E+00 -0.00000000000E+00 -0.57544441272E+02  0.57544441272E+02  0.00000000000E+00 0.  1.
          2    1    1    2  501    0  0.18641355437E+02 -0.18343296862E+02  0.14655396767E+02  0.29979281624E+02  0.00000000000E+00 0.  1.
          1    1    1    2  502    0 -0.18641355437E+02  0.18343296862E+02 -0.46454559746E+02  0.53310437941E+02  0.00000000000E+00 0.  1.
</event>
<event>
 4    1  0.3927513E+003  0.2283206E+02  0.7546771E-02  0.1494618E+00
          2   -1    0    0  502    0  0.00000000000E+00  0.00000000000E+00  0.48756559739E+01  0.48756559739E+01  0.00000000000E+00 0. -1.
          1   -1    0    0  501    0 -0.00000000000E+00 -0.00000000000E+00 -0.19336928140E+03  0.19336928140E+03  0.00000000000E+00 0. -1.
          2    1    1    2  501    0  0.18305621844E+02  0.13645769512E+02 -0.27970207184E+02  0.36105890193E+02  0.00000000000E+00 0. -1.
          1    1    1    2  502    0 -0.18305621844E+02 -0.13645769512E+02 -0.16052341825E+03  0.16213904719E+03  0.00000000000E+00 0. -1.
</event>
<event>
 4    1  0.3927513E+003  0.2022979E+02  0.7546771E-02  0.1530552E+00
          2   -1    0    0  502    0  0.00000000000E+00  0.00000000000E+00  0.15051168246E+01  0.15051168246E+01  0.00000000000E+00 0. -1.
          1   -1    0    0  501    0 -0.00000000000E+00 -0.00000000000E+00 -0.54210233353E+03  0.54210233353E+03  0.00000000000E+00 0. -1.
          2    1    1    2  501    0  0.14409286882E+02  0.14199182714E+02 -0.78406253341E+02  0.80973976692E+02  0.00000000000E+00 0. -1.
          1    1    1    2  502    0 -0.14409286882E+02 -0.14199182714E+02 -0.46219096337E+03  0.46263347367E+03  0.00000000000E+00 0. -1.
</event>
<event>
 4    1  0.3927513E+003  0.2681152E+02  0.7546771E-02  0.1449511E+00
          2   -1    0    0  502    0  0.00000000000E+00  0.00000000000E+00  0.62351965761E+03  0.62351965761E+03  0.00000000000E+00 0.  1.
          1   -1    0    0  501    0 -0.00000000000E+00 -0.00000000000E+00 -0.80702069530E+01  0.80702069530E+01  0.00000000000E+00 0.  1.
          2    1    1    2  501    0  0.82177737563E+01 -0.25521086886E+02  0.60009367682E+03  0.60069233276E+03  0.00000000000E+00 0.  1.
          1    1    1    2  502    0 -0.82177737563E+01  0.25521086886E+02  0.15355773843E+02  0.30897531806E+02  0.00000000000E+00 0.  1.
</event>
<event>
 4    1  0.3927513E+003  0.2003869E+02  0.7546771E-02  0.1533445E+00
          2   -1    0    0  502    0  0.00000000000E+00  0.00000000000E+00  0.11817902721E+04  0.11817902721E+04  0.00000000000E+00 0.  1.
          1   -1    0    0  501    0 -0.00000000000E+00 -0.00000000000E+00 -0.62356585704E+00  0.62356585704E+00  0.00000000000E+00 0.  1.
          2    1    1    2  501    0  0.60312842615E+01 -0.19109494766E+02  0.98941848477E+03  0.98962138577E+03  0.00000000000E+00 0.  1.
          1    1    1    2  502    0 -0.60312842615E+01  0.19109494766E+02  0.19174822147E+03  0.19279245217E+03  0.00000000000E+00 0.  1.
</event>
<event>
 4    1  0.3927513E+003  0.2156984E+02  0.7546771E-02  0.1511282E+00
          2   -1    0    0  502    0  0.00000000000E+00  0.00000000000E+00  0.14400932152E+02  0.14400932152E+02  0.00000000000E+00 0. -1.
          1   -1    0    0  501    0 -0.00000000000E+00 -0.00000000000E+00 -0.44124702263E+02  0.44124702263E+02  0.00000000000E+00 0. -1.
          2    1    1    2  501    0  0.16952376803E+02 -0.13336968072E+02  0.28184926796E+00  0.21571676699E+02  0.00000000000E+00 0. -1.
          1    1    1    2  502    0 -0.16952376803E+02  0.13336968072E+02 -0.30005619378E+02  0.36953957716E+02  0.00000000000E+00 0. -1.
</event>
<event>
 4    1  0.3927513E+003  0.2433540E+02  0.7546771E-02  0.1476377E+00
          2   -1    0    0  502    0  0.00000000000E+00  0.00000000000E+00  0.16211683919E+03  0.16211683919E+03  0.00000000000E+00 0. -1.
          1   -1    0    0  501    0 -0.00000000000E+00 -0.00000000000E+00 -0.55877805733E+01  0.55877805733E+01  0.00000000000E+00 0. -1.
          2    1    1    2  501    0  0.22130332105E+02  0.10122258654E+02  0.12760598697E+03  0.12990573363E+03  0.00000000000E+00 0. -1.
          1    1    1    2  502    0 -0.22130332105E+02 -0.10122258654E+02  0.28923071639E+02  0.37798886126E+02  0.00000000000E+00 0. -1.
</event>
<event>
 4    1  0.3927513E+003  0.2508645E+02  0.7546771E-02  0.1467839E+00
          2   -1    0    0  502    0  0.00000000000E+00  0.00000000000E+00  0.17803321833E+02  0.17803321833E+02  0.00000000000E+00 0.  1.
          1   -1    0    0  501    0 -0.00000000000E+00 -0.00000000000E+00 -0.41594714431E+03  0.41594714431E+03  0.00000000000E+00 0.  1.
          2    1    1    2  501    0  0.20910593682E+02  0.13859183175E+02  0.83832338260E+01  0.26450113342E+02  0.00000000000E+00 0.  1.
          1    1    1    2  502    0 -0.20910593682E+02 -0.13859183175E+02 -0.40652705631E+03  0.40730035280E+03  0.00000000000E+00 0.  1.
</event>
<event>
 4    1  0.3927513E+003  0.2848131E+02  0.7546771E-02  0.1433270E+00
          2   -1    0    0  502    0  0.00000000000E+00  0.00000000000E+00  0.10838323366E+01  0.10838323366E+01  0.00000000000E+00 0.  1.
          1   -1    0    0  501    0 -0.00000000000E+00 -0.00000000000E+00 -0.96243012713E+03  0.96243012713E+03  0.00000000000E+00 0.  1.
          2    1    1    2  501    0 -0.24503343314E+02 -0.14517953741E+02 -0.25350940008E+03  0.25510429386E+03  0.00000000000E+00 0.  1.
          1    1    1    2  502    0  0.24503343314E+02  0.14517953741E+02 -0.70783689471E+03  0.70840966560E+03  0.00000000000E+00 0.  1.
</event>
<event>
 4    1  0.3927513E+003  0.2042414E+02  0.7546771E-02  0.1527648E+00
          2   -1    0    0  502    0  0.00000000000E+00  0.00000000000E+00  0.96276477051E+01  0.96276477051E+01  0.00000000000E+00 0. -1.
          1   -1    0    0  501    0 -0.00000000000E+00 -0.00000000000E+00 -0.16180881433E+03  0.16180881433E+03  0.00000000000E+00 0. -1.
          2    1    1    2  501    0  0.16744969652E+02  0.11694083452E+02 -0.27412212293E+01  0.20607277604E+02  0.00000000000E+00 0. -1.
          1    1    1    2  502    0 -0.16744969652E+02 -0.11694083452E+02 -0.14943994540E+03  0.15082918443E+03  0.00000000000E+00 0. -1.
</event>
<event>
 4    1  0.3927513E+003  0.2070742E+02  0.7546771E-02  0.1523483E+00
          2   -1    0    0  502    0  0.00000000000E+00  0.00000000000E+00  0.37545721808E+03  0.37545721808E+03  0.00000000000E+00 0. -1.
          1   -1    0    0  501    0 -0.00000000000E+00 -0.00000000000E+00 -0.19047591942E+02  0.19047591942E+02  0.00000000000E+00 0.  1.
          2    1    1    2  501    0  0.18431940032E+02  0.94372093446E+01  0.36945232578E+03  0.37003218557E+03  0.00000000000E+00 0. -1.
          1    1    1    2  502    0 -0.18431940032E+02 -0.94372093446E+01 -0.13042699643E+02  0.24472624452E+02  0.00000000000E+00 0.  1.
</event>
<event>
 4    1  0.3927513E+003  0.2177595E+02  0.7546771E-02  0.1508468E+00
          2   -1    0    0  502    0  0.00000000000E+00  0.00000000000E+00  0.15225292922E+04  0.15225292922E+04  0.00000000000E+00 0.  1.
          1   -1    0    0  501    0 -0.00000000000E+00 -0.00000000000E+00 -0.30676380769E+01  0.30676380769E+01  0.00000000000E+00 0. -1.
          2    1    1    2  501    0 -0.87888857513E+01  0.19923545548E+02  0.14827705426E+04  0.14829304347E+04  0.00000000000E+00 0.  1.
          1    1    1    2  502    0  0.87888857513E+01 -0.19923545548E+02  0.36691111572E+02  0.42666495618E+02  0.00000000000E+00 0. -1.
</event>
<event>
 4    1  0.3927513E+003  0.2348422E+02  0.7546771E-02  0.1486506E+00
          2   -1    0    0  502    0  0.00000000000E+00  0.00000000000E+00  0.16426170586E+04  0.16426170586E+04  0.00000000000E+00 0. -1.
          1   -1    0    0  501    0 -0.00000000000E+00 -0.00000000000E+00 -0.46728623299E+00  0.46728623299E+00  0.00000000000E+00 0.  1.
          2    1    1    2  501    0  0.19456788946E+02 -0.13150747728E+02  0.12569488660E+04  0.12571682308E+04  0.00000000000E+00 0. -1.
          1    1    1    2  502    0 -0.19456788946E+02  0.13150747728E+02  0.38520090632E+03  0.38591611398E+03  0.00000000000E+00 0.  1.
</event>
<event>
 4    1  0.3927513E+003  0.2139332E+02  0.7546771E-02  0.1513723E+00
          2   -1    0    0  502    0  0.00000000000E+00  0.00000000000E+00  0.19176006277E+04  0.19176006277E+04  0.00000000000E+00 0.  1.
          1   -1    0    0  501    0 -0.00000000000E+00 -0.00000000000E+00 -0.29904758123E+00  0.29904758123E+00  0.00000000000E+00 0.  1.
          2    1    1    2  501    0  0.15033694438E+02  0.15220452181E+02  0.13895372673E+04  0.13897019433E+04  0.00000000000E+00 0.  1.
          1    1    1    2  502    0 -0.15033694438E+02 -0.15220452181E+02  0.52776431283E+03  0.52819773194E+03  0.00000000000E+00 0.  1.
</event>
<event>
 4    1  0.3927513E+003  0.3374254E+02  0.7546771E-02  0.1389626E+00
          2   -1    0    0  502    0  0.00000000000E+00  0.00000000000E+00  0.18992795316E+03  0.18992795316E+03  0.00000000000E+00 0.  1.
          1   -1    0    0  501    0 -0.00000000000E+00 -0.00000000000E+00 -0.20985857738E+02  0.20985857738E+02  0.00000000000E+00 0. -1.
          2    1    1    2  501    0 -0.33623821391E+02  0.28279745195E+01  0.17360217985E+03  0.17685099845E+03  0.00000000000E+00 0.  1.
          1    1    1    2  502    0  0.33623821391E+02 -0.28279745195E+01 -0.46600844276E+01  0.34062812446E+02  0.00000000000E+00 0. -1.
</event>
<event>
 4    1  0.3927513E+003  0.3103806E+02  0.7546771E-02  0.1410785E+00
          2   -1    0    0  502    0  0.00000000000E+00  0.00000000000E+00  0.38013680239E+02  0.38013680239E+02  0.00000000000E+00 0. -1.
          1   -1    0    0  501    0 -0.00000000000E+00 -0.00000000000E+00 -0.48966529279E+03  0.48966529279E+03  0.00000000000E+00 0. -1.
          2    1    1    2  501    0  0.12673965464E+02  0.28332526819E+02  0.31095508558E+02  0.43935089951E+02  0.00000000000E+00 0. -1.
          1    1    1    2  502    0 -0.12673965464E+02 -0.28332526819E+02 -0.48274712111E+03  0.48374388308E+03  0.00000000000E+00 0. -1.
</event>
<event>
 4    1  0.3927513E+003  0.2204821E+02  0.7546771E-02  0.1504809E+00
          2   -1    0    0  502    0  0.00000000000E+00  0.00000000000E+00  0.15432282648E+03  0.15432282648E+03  0.00000000000E+00 0.  1.
          1   -1    0    0  501    0 -0.00000000000E+00 -0.00000000000E+00 -0.36710977215E+02  0.36710977215E+02  0.00000000000E+00 0.  1.
          2    1    1    2  501    0 -0.12082721030E+02  0.18442657449E+02  0.15013294030E+03  0.15174328164E+03  0.00000000000E+00 0.  1.
          1    1    1    2  502    0  0.12082721030E+02 -0.18442657449E+02 -0.32521091032E+02  0.39290522053E+02  0.00000000000E+00 0.  1.
</event>
<event>
 4    1  0.3927513E+003  0.2101887E+02  0.7546771E-02  0.1518995E+00
          2   -1    0    0  502    0  0.00000000000E+00  0.00000000000E+00  0.97516649617E+01  0.97516649617E+01  0.00000000000E+00 0.  1.
          1   -1    0    0  501    0 -0.00000000000E+00 -0.00000000000E+00 -0.10506914062E+03  0.10506914062E+03  0.00000000000E+00 0.  1.
          2    1    1    2  501    0  0.89598422435E+01 -0.19013528732E+02 -0.43599609418E+01  0.21466306326E+02  0.00000000000E+00 0.  1.
          1    1    1    2  502    0 -0.89598422435E+01  0.19013528732E+02 -0.90957514719E+02  0.93354499258E+02  0.00000000000E+00 0.  1.
</event>
<event>
 4    1  0.3927513E+003  0.2726999E+02  0.7546771E-02  0.1444915E+00
          2   -1    0    0  502    0  0.00000000000E+00  0.00000000000E+00  0.80933991117E+03  0.80933991117E+03  0.00000000000E+00 0. -1.
          1   -1    0    0  501    0 -0.00000000000E+00 -0.00000000000E+00 -0.20365359043E+02  0.20365359043E+02  0.00000000000E+00 0.  1.
          2    1    1    2  501    0  0.26610406821E+02 -0.59614132158E+01  0.79987330507E+03  0.80033802631E+03  0.00000000000E+00 0. -1.
          1    1    1    2  502    0 -0.26610406821E+02  0.59614132158E+01 -0.10898752942E+02  0.29367243902E+02  0.00000000000E+00 0.  1.
</event>
<event>
 4    1  0.3927513E+003  0.4332995E+02  0.7546771E-02  0.1330005E+00
          2   -1    0    0  502    0  0.00000000000E+00  0.00000000000E+00  0.24108546835E+01  0.24108546835E+01  0.00000000000E+00 0. -1.
          1   -1    0    0  501    0 -0.00000000000E+00 -0.00000000000E+00 -0.95832524132E+03  0.95832524132E+03  0.00000000000E+00 0. -1.
          2    1    1    2  501    0  0.37257884731E+02  0.22120905260E+02 -0.27002336075E+03  0.27347778662E+03  0.00000000000E+00 0. -1.
          1    1    1    2  502    0 -0.37257884731E+02 -0.22120905260E+02 -0.68589102589E+03  0.68725830939E+03  0.00000000000E+00 0. -1.
</event>
<event>
 4    1  0.3927513E+003  0.2151889E+02  0.7546771E-02  0.1511984E+00
          2   -1    0    0  502    0  0.00000000000E+00  0.00000000000E+00  0.33797134701E+03  0.33797134701E+03  0.00000000000E+00 0. -1.
          1   -1    0    0  501    0 -0.00000000000E+00 -0.00000000000E+00 -0.63287285188E+01  0.63287285188E+01  0.00000000000E+00 0.  1.
          2    1    1    2  501    0 -0.49499721415E+01 -0.20941838434E+02  0.31820153176E+03  0.31892832680E+03  0.00000000000E+00 0. -1.
          1    1    1    2  502    0  0.49499721415E+01  0.20941838434E+02  0.13441086738E+02  0.25371748735E+02  0.00000000000E+00 0.  1.
</event>
<event>
 4    1  0.3927513E+003  0.4378237E+02  0.7546771E-02  0.1327641E+00
          2   -1    0    0  502    0  0.00000000000E+00  0.00000000000E+00  0.17617450746E+03  0.17617450746E+03  0.00000000000E+00 0.  1.
          1   -1    0    0  501    0 -0.00000000000E+00 -0.00000000000E+00 -0.10113815302E+03  0.10113815302E+03  0.00000000000E+00 0.  1.
          2    1    1    2  501    0 -0.31587054394E+02 -0.30317547094E+02  0.16850385617E+03  0.17409895235E+03  0.00000000000E+00 0.  1.
          1    1    1    2  502    0  0.31587054394E+02  0.30317547094E+02 -0.93467501726E+02  0.10321370813E+03  0.00000000000E+00 0.  1.
</event>
<event>
 4    1  0.3927513E+003  0.2021890E+02  0.7546771E-02  0.1530715E+00
          2   -1    0    0  502    0  0.00000000000E+00  0.00000000000E+00  0.94724483037E+02  0.94724483037E+02  0.00000000000E+00 0.  1.
          1   -1    0    0  501    0 -0.00000000000E+00 -0.00000000000E+00 -0.75026162356E+01  0.75026162356E+01  0.00000000000E+00 0. -1.
          2    1    1    2  501    0  0.63957578090E+01 -0.19180668766E+02  0.76923956813E+02  0.79536777053E+02  0.00000000000E+00 0.  1.
          1    1    1    2  502    0 -0.63957578090E+01  0.19180668766E+02  0.10297909988E+02  0.22690322219E+02  0.00000000000E+00 0. -1.
</event>
<event>
 4    1  0.3927513E+003  0.2796963E+02  0.7546771E-02  0.1438104E+00
          2   -1    0    0  502    0  0.00000000000E+00  0.00000000000E+00  0.20642562185E+02  0.20642562185E+02  0.00000000000E+00 0. -1.
          1   -1    0    0  501    0 -0.00000000000E+00 -0.00000000000E+00 -0.42225673818E+02  0.42225673818E+02  0.00000000000E+00 0. -1.
          2    1    1    2  501    0 -0.14730515972E+02 -0.23776296154E+02 -0.72761430244E+00  0.27979095450E+02  0.00000000000E+00 0. -1.
          1    1    1    2  502    0  0.14730515972E+02  0.23776296154E+02 -0.20855497330E+02  0.34889140553E+02  0.00000000000E+00 0. -1.
</event>
<event>
 4    1  0.3927513E+003  0.3071478E+02  0.7546771E-02  0.1413485E+00
          2   -1    0    0  502    0  0.00000000000E+00  0.00000000000E+00  0.16081450559E+03  0.16081450559E+03  0.00000000000E+00 0. -1.
          1   -1    0    0  501    0 -0.00000000000E+00 -0.00000000000E+00 -0.18349589738E+02  0.18349589738E+02  0.00000000000E+00 0.  1.
          2    1    1    2  501    0 -0.15396031769E+02 -0.26577426699E+02  0.14511998172E+03  0.14833477845E+03  0.00000000000E+00 0. -1.
          1    1    1    2  502    0  0.15396031769E+02  0.26577426699E+02 -0.26550658691E+01  0.30829316874E+02  0.00000000000E+00 0.  1.
</event>
<event>
 4    1  0.3927513E+003  0.2175038E+02  0.7546771E-02  0.1508815E+00
          2   -1    0    0  502    0  0.00000000000E+00  0.00000000000E+00  0.60991802717E+03  0.60991802717E+03  0.00000000000E+00 0.  1.
          1   -1    0    0  501    0 -0.00000000000E+00 -0.00000000000E+00 -0.31695596048E+02  0.31695596048E+02  0.00000000000E+00 0. -1.
          2    1    1    2  501    0 -0.21606706828E+02  0.24958844108E+01  0.60596837582E+03  0.60635859994E+03  0.00000000000E+00 0.  1.
          1    1    1    2  502    0  0.21606706828E+02 -0.24958844108E+01 -0.27745944703E+02  0.35255023279E+02  0.00000000000E+00 0. -1.
</event>
<event>
 4    1  0.3927513E+003  0.2263318E+02  0.7546771E-02  0.1497156E+00
          2   -1    0    0  502    0  0.00000000000E+00  0.00000000000E+00  0.36890748646E+02  0.36890748646E+02  0.00000000000E+00 0.  1.
          1   -1    0    0  501    0 -0.00000000000E+00 -0.00000000000E+00 -0.13888296605E+02  0.13888296605E+02  0.00000000000E+00 0.  1.
          2    1    1    2  501    0  0.22615758478E+02  0.88798715336E+00  0.11835116426E+02  0.25540771984E+02  0.00000000000E+00 0.  1.
          1    1    1    2  502    0 -0.22615758478E+02 -0.88798715336E+00  0.11167335615E+02  0.25238273267E+02  0.00000000000E+00 0.  1.
</event>
<event>
 4    1  0.3927513E+003  0.4016284E+02  0.7546771E-02  0.1347534E+00
          2   -1    0    0  502    0  0.00000000000E+00  0.00000000000E+00  0.10451966171E+03  0.10451966171E+03  0.00000000000E+00 0.  1.
          1   -1    0    0  501    0 -0.00000000000E+00 -0.00000000000E+00 -0.23691976110E+03  0.23691976110E+03  0.00000000000E+00 0. -1.
          2    1    1    2  501    0 -0.40102034666E+02  0.22091762627E+01  0.98865672010E+02  0.10671211152E+03  0.00000000000E+00 0.  1.
          1    1    1    2  502    0  0.40102034666E+02 -0.22091762627E+01 -0.23126577140E+03  0.23472731129E+03  0.00000000000E+00 0. -1.
</event>
<event>
 4    1  0.3927513E+003  0.2555672E+02  0.7546771E-02  0.1462671E+00
          2   -1    0    0  502    0  0.00000000000E+00  0.00000000000E+00  0.89406551043E+03  0.89406551043E+03  0.00000000000E+00 0.  1.
          1   -1    0    0  501    0 -0.00000000000E+00 -0.00000000000E+00 -0.53065251746E+01  0.53065251746E+01  0.00000000000E+00 0.  1.
          2    1    1    2  501    0 -0.19563755890E+02  0.16444007390E+02  0.86196635143E+03  0.86234513794E+03  0.00000000000E+00 0.  1.
          1    1    1    2  502    0  0.19563755890E+02 -0.16444007390E+02  0.26792633819E+02  0.37026897663E+02  0.00000000000E+00 0.  1.
</event>
<event>
 4    1  0.3927513E+003  0.4370373E+02  0.7546771E-02  0.1328050E+00
          2   -1    0    0  502    0  0.00000000000E+00  0.00000000000E+00  0.15680521790E+02  0.15680521790E+02  0.00000000000E+00 0.  1.
          1   -1    0    0  501    0 -0.00000000000E+00 -0.00000000000E+00 -0.19380547303E+03  0.19380547303E+03  0.00000000000E+00 0.  1.
          2    1    1    2  501    0 -0.26235173675E+02 -0.34953272840E+02 -0.25221413775E+02  0.50459244275E+02  0.00000000000E+00 0.  1.
          1    1    1    2  502    0  0.26235173675E+02  0.34953272840E+02 -0.15290353747E+03  0.15902675055E+03  0.00000000000E+00 0.  1.
</event>
<event>
 4    1  0.3927513E+003  0.2413098E+02  0.7546771E-02  0.1478765E+00
          2   -1    0    0  502    0  0.00000000000E+00  0.00000000000E+00  0.31289215944E+02  0.31289215944E+02  0.00000000000E+00 0. -1.
          1   -1    0    0  501    0 -0.00000000000E+00 -0.00000000000E+00 -0.61622624875E+03  0.61622624875E+03  0.00000000000E+00 0. -1.
          2    1    1    2  501    0  0.21585662770E+02 -0.10787186627E+02  0.26362903168E+02  0.35739430549E+02  0.00000000000E+00 0. -1.
          1    1    1    2  502    0 -0.21585662770E+02  0.10787186627E+02 -0.61129993598E+03  0.61177603415E+03  0.00000000000E+00 0. -1.
</event>
<event>
 4    1  0.3927513E+003  0.2548434E+02  0.7546771E-02  0.1463457E+00
          2   -1    0    0  502    0  0.00000000000E+00  0.00000000000E+00  0.14634992004E+04  0.14634992004E+04  0.00000000000E+00 0.  1.
          1   -1    0    0  501    0 -0.00000000000E+00 -0.00000000000E+00 -0.64245775803E+01  0.64245775803E+01  0.00000000000E+00 0. -1.
          2    1    1    2  501    0  0.22760126973E+02  0.11464210417E+02  0.14376619629E+04  0.14378878159E+04  0.00000000000E+00 0.  1.
          1    1    1    2  502    0 -0.22760126973E+02 -0.11464210417E+02  0.19412659843E+02  0.32035962019E+02  0.00000000000E+00 0. -1.
</event>
<event>
 4    1  0.3927513E+003  0.3252374E+02  0.7546771E-02  0.1398861E+00
          2   -1    0    0  502    0  0.00000000000E+00  0.00000000000E+00  0.57530386016E+02  0.57530386016E+02  0.00000000000E+00 0.  1.
          1   -1    0    0  501    0 -0.00000000000E+00 -0.00000000000E+00 -0.49947450370E+02  0.49947450370E+02  0.00000000000E+00 0. -1.
          2    1    1    2  501    0  0.61469755795E+01  0.31937568437E+02  0.46508980884E+02  0.56752787502E+02  0.00000000000E+00 0.  1.
          1    1    1    2  502    0 -0.61469755795E+01 -0.31937568437E+02 -0.38926045237E+02  0.50725048883E+02  0.00000000000E+00 0. -1.
</event>
<event>
 4    1  0.3927513E+003  0.2370539E+02  0.7546771E-02  0.1483826E+00
          2   -1    0    0  502    0  0.00000000000E+00  0.00000000000E+00  0.77683446152E+03  0.77683446152E+03  0.00000000000E+00 0. -1.
          1   -1    0    0  501    0 -0.00000000000E+00 -0.00000000000E+00 -0.29406978381E+01  0.29406978381E+01  0.00000000000E+00 0. -1.
          2    1    1    2  501    0  0.19105186678E+02  0.14033432555E+02  0.72550116817E+03  0.72588834569E+03  0.00000000000E+00 0. -1.
          1    1    1    2  502    0 -0.19105186678E+02 -0.14033432555E+02  0.48392595509E+02  0.53886813669E+02  0.00000000000E+00 0. -1.
</event>
<event>
 4    1  0.3927513E+003  0.2751960E+02  0.7546771E-02  0.1442457E+00
          2   -1    0    0  502    0  0.00000000000E+00  0.00000000000E+00  0.76683039538E+03  0.76683039538E+03  0.00000000000E+00 0. -1.
          1   -1    0    0  501    0 -0.00000000000E+00 -0.00000000000E+00 -0.55388249670E+01  0.55388249670E+01  0.00000000000E+00 0.  1.
          2    1    1    2  501    0 -0.66898197753E+01 -0.26694091182E+02  0.73071175097E+03  0.73122978003E+03  0.00000000000E+00 0. -1.
          1    1    1    2  502    0  0.66898197753E+01  0.26694091182E+02  0.30579819443E+02  0.41139440320E+02  0.00000000000E+00 0.  1.
</event>
<event>
 4    1  0.3927513E+003  0.2570901E+02  0.7546771E-02  0.1461026E+00
          2   -1    0    0  502    0  0.00000000000E+00  0.00000000000E+00  0.87978886727E+02  0.87978886727E+02  0.00000000000E+00 0.  1.
          1   -1    0    0  501    0 -0.00000000000E+00 -0.00000000000E+00 -0.20677717649E+02  0.20677717649E+02  0.00000000000E+00 0.  1.
          2    1    1    2  501    0  0.21372479419E+02 -0.14288817280E+02  0.77000339224E+02  0.81178848331E+02  0.00000000000E+00 0.  1.
          1    1    1    2  502    0 -0.21372479419E+02  0.14288817280E+02 -0.96991701452E+01  0.27477756046E+02  0.00000000000E+00 0.  1.
</event>
<event>
 4    1  0.3927513E+003  0.2241829E+02  0.7546771E-02  0.1499935E+00
          2   -1    0    0  502    0  0.00000000000E+00  0.00000000000E+00  0.32129968799E+00  0.32129968799E+00  0.00000000000E+00 0. -1.
          1   -1    0    0  501    0 -0.00000000000E+00 -0.00000000000E+00 -0.19157575916E+04  0.19157575916E+04  0.00000000000E+00 0. -1.
          2    1    1    2  501    0  0.91592835437E+01  0.20461844210E+02 -0.54731903637E+03  0.54777797247E+03  0.00000000000E+00 0. -1.
          1    1    1    2  502    0 -0.91592835437E+01 -0.20461844210E+02 -0.13681172555E+04  0.13683009188E+04  0.00000000000E+00 0. -1.
</event>
<event>
 4    1  0.3927513E+003  0.3055830E+02  0.7546771E-02  0.1414806E+00
          2   -1    0    0  502    0  0.00000000000E+00  0.00000000000E+00  0.26950368333E+03  0.26950368333E+03  0.00000000000E+00 0.  1.
          1   -1    0    0  501    0 -0.00000000000E+00 -0.00000000000E+00 -0.12735650146E+02  0.12735650146E+02  0.00000000000E+00 0.  1.
          2    1    1    2  501    0  0.23644710239E+02 -0.19358136406E+02  0.24878606047E+03  0.25065576724E+03  0.00000000000E+00 0.  1.
          1    1    1    2  502    0 -0.23644710239E+02  0.19358136406E+02  0.79819727078E+01  0.31583566229E+02  0.00000000000E+00 0.  1.
</event>
<event>
 4    1  0.3927513E+003  0.6516287E+02  0.7546771E-02  0.1243233E+00
          2   -1    0    0  502    0  0.00000000000E+00  0.00000000000E+00  0.14057944629E+02  0.14057944629E+02  0.00000000000E+00 0. -1.
          1   -1    0    0  501    0 -0.00000000000E+00 -0.00000000000E+00 -0.31991333233E+03  0.31991333233E+03  0.00000000000E+00 0. -1.
          2    1    1    2  501    0 -0.49692023199E+02  0.42153277955E+02 -0.19238700688E+03  0.20312300812E+03  0.00000000000E+00 0. -1.
          1    1    1    2  502    0  0.49692023199E+02 -0.42153277955E+02 -0.11346838082E+03  0.13084826884E+03  0.00000000000E+00 0. -1.
</event>
<event>
 4    1  0.3927513E+003  0.2829347E+02  0.7546771E-02  0.1435030E+00
          2   -1    0    0  502    0  0.00000000000E+00  0.00000000000E+00  0.37686280316E+03  0.37686280316E+03  0.00000000000E+00 0. -1.
          1   -1    0    0  501    0 -0.00000000000E+00 -0.00000000000E+00 -0.44219144669E+02  0.44219144669E+02  0.00000000000E+00 0. -1.
          2    1    1    2  501    0 -0.27058589408E+02  0.82676108701E+01  0.37174365511E+03  0.37281881091E+03  0.00000000000E+00 0. -1.
          1    1    1    2  502    0  0.27058589408E+02 -0.82676108701E+01 -0.39099996619E+02  0.48263136925E+02  0.00000000000E+00 0. -1.
</event>
<event>
 4    1  0.3927513E+003  0.3420679E+02  0.7546771E-02  0.1386227E+00
          2   -1    0    0  502    0  0.00000000000E+00  0.00000000000E+00  0.59765617371E+02  0.59765617371E+02  0.00000000000E+00 0.  1.
          1   -1    0    0  501    0 -0.00000000000E+00 -0.00000000000E+00 -0.25128774750E+02  0.25128774750E+02  0.00000000000E+00 0.  1.
          2    1    1    2  501    0  0.91826696753E+01 -0.32951219664E+02  0.37267902929E+02  0.50586568261E+02  0.00000000000E+00 0.  1.
          1    1    1    2  502    0 -0.91826696753E+01  0.32951219664E+02 -0.26310603073E+01  0.34307823861E+02  0.00000000000E+00 0.  1.
</event>
<event>
 4    1  0.3927513E+003  0.3076085E+02  0.7546771E-02  0.1413098E+00
          2   -1    0    0  502    0  0.00000000000E+00  0.00000000000E+00  0.49522459689E+03  0.49522459689E+03  0.00000000000E+00 0. -1.
          1   -1    0    0  501    0 -0.00000000000E+00 -0.00000000000E+00 -0.38115755632E+01  0.38115755632E+01  0.00000000000E+00 0. -1.
          2    1    1    2  501    0  0.29982749053E+02 -0.68749411266E+01  0.42191449703E+03  0.42303436368E+03  0.00000000000E+00 0. -1.
          1    1    1    2  502    0 -0.29982749053E+02  0.68749411266E+01  0.69498524300E+02  0.76001808769E+02  0.00000000000E+00 0. -1.
</event>
<event>
 4    1  0.3927513E+003  0.2188230E+02  0.7546771E-02  0.1507031E+00
          2   -1    0    0  502    0  0.00000000000E+00  0.00000000000E+00  0.70262699319E+03  0.70262699319E+03  0.00000000000E+00 0. -1.
          1   -1    0    0  501    0 -0.00000000000E+00 -0.00000000000E+00 -0.74485527365E+00  0.74485527365E+00  0.00000000000E+00 0.  1.
          2    1    1    2  501    0 -0.11648205291E+02  0.18524430162E+02  0.45351459466E+03  0.45404220373E+03  0.00000000000E+00 0. -1.
          1    1    1    2  502    0  0.11648205291E+02 -0.18524430162E+02  0.24836754326E+03  0.24932964474E+03  0.00000000000E+00 0.  1.
</event>
<event>
 4    1  0.3927513E+003  0.2926729E+02  0.7546771E-02  0.1426072E+00
          2   -1    0    0  502    0  0.00000000000E+00  0.00000000000E+00  0.11961978521E+04  0.11961978521E+04  0.00000000000E+00 0. -1.
          1   -1    0    0  501    0 -0.00000000000E+00 -0.00000000000E+00 -0.32036947381E+03  0.32036947381E+03  0.00000000000E+00 0. -1.
          2    1    1    2  501    0  0.18203766294E+02 -0.22917184341E+02  0.11953499308E+04  0.11957081715E+04  0.00000000000E+00 0. -1.
          1    1    1    2  502    0 -0.18203766294E+02  0.22917184341E+02 -0.31952155249E+03  0.32085915439E+03  0.00000000000E+00 0. -1.
</event>
<event>
 4    1  0.3927513E+003  0.4460493E+02  0.7546771E-02  0.1323427E+00
          2   -1    0    0  502    0  0.00000000000E+00  0.00000000000E+00  0.20264535770E+04  0.20264535770E+04  0.00000000000E+00 0.  1.
          1   -1    0    0  501    0 -0.00000000000E+00 -0.00000000000E+00 -0.16268279884E+02  0.16268279884E+02  0.00000000000E+00 0.  1.
          2    1    1    2  501    0  0.10250724998E+02 -0.43411081804E+02  0.19951536999E+04  0.19956522457E+04  0.00000000000E+00 0.  1.
          1    1    1    2  502    0 -0.10250724998E+02  0.43411081804E+02  0.15031597224E+02  0.47069611231E+02  0.00000000000E+00 0.  1.
</event>
<event>
 4    1  0.3927513E+003  0.3048748E+02  0.7546771E-02  0.1415407E+00
          2   -1    0    0  502    0  0.00000000000E+00  0.00000000000E+00  0.11084899515E+04  0.11084899515E+04  0.00000000000E+00 0.  1.
          1   -1    0    0  501    0 -0.00000000000E+00 -0.00000000000E+00 -0.16595019192E+01  0.16595019192E+01  0.00000000000E+00 0.  1.
          2    1    1    2  501    0  0.23887086405E+02  0.18944482590E+02  0.94383381282E+03  0.94432608380E+03  0.00000000000E+00 0.  1.
          1    1    1    2  502    0 -0.23887086405E+02 -0.18944482590E+02  0.16299663677E+03  0.16582336963E+03  0.00000000000E+00 0.  1.
</event>
<event>
 4    1  0.3927513E+003  0.4016978E+02  0.7546771E-02  0.1347494E+00
          2   -1    0    0  502    0  0.00000000000E+00  0.00000000000E+00  0.12125296097E+04  0.12125296097E+04  0.00000000000E+00 0.  1.
          1   -1    0    0  501    0 -0.00000000000E+00 -0.00000000000E+00 -0.14734802848E+01  0.14734802848E+01  0.00000000000E+00 0. -1.
          2    1    1    2  501    0  0.13854644896E+02  0.37704903891E+02  0.79442679424E+03  0.79544172782E+03  0.00000000000E+00 0.  1.
          1    1    1    2  502    0 -0.13854644896E+02 -0.37704903891E+02  0.41662933520E+03  0.41856136218E+03  0.00000000000E+00 0. -1.
</event>
<event>
 4    1  0.5925317E+003  0.2396418E+02  0.7546771E-02  0.1480733E+00
          2   -1    0    0  502    0  0.00000000000E+00  0.00000000000E+00  0.95561418499E+03  0.95561418499E+03  0.00000000000E+00 0. -1.
          1   -1    0    0  501    0 -0.00000000000E+00 -0.00000000000E+00 -0.87102052979E+03  0.87102052979E+03  0.00000000000E+00 0. -1.
          2    1    1    2  501    0  0.11794492218E+02 -0.20860775737E+02  0.95529906143E+03  0.95559959124E+03  0.00000000000E+00 0. -1.
          1    1    1    2  502    0 -0.11794492218E+02  0.20860775737E+02 -0.87070540623E+03  0.87103512354E+03  0.00000000000E+00 0. -1.
</event>
<event>
 4    1  0.3927513E+003  0.2481879E+02  0.7546771E-02  0.1470841E+00
          2   -1    0    0  502    0  0.00000000000E+00  0.00000000000E+00  0.16907472138E+02  0.16907472138E+02  0.00000000000E+00 0. -1.
          1   -1    0    0  501    0 -0.00000000000E+00 -0.00000000000E+00 -0.44944447691E+02  0.44944447691E+02  0.00000000000E+00 0. -1.
          2    1    1    2  501    0 -0.17964844925E+02 -0.17124137577E+02 -0.27477535404E+02  0.37026837467E+02  0.00000000000E+00 0. -1.
          1    1    1    2  502    0  0.17964844925E+02  0.17124137577E+02 -0.55944014947E+00  0.24825082361E+02  0.00000000000E+00 0. -1.
</event>
<event>
 4    1  0.3927513E+003  0.2109363E+02  0.7546771E-02  0.1517932E+00
          2   -1    0    0  502    0  0.00000000000E+00  0.00000000000E+00  0.38498803341E+02  0.38498803341E+02  0.00000000000E+00 0. -1.
          1   -1    0    0  501    0 -0.00000000000E+00 -0.00000000000E+00 -0.13822985756E+02  0.13822985756E+02  0.00000000000E+00 0. -1.
          2    1    1    2  501    0  0.75826504847E+01 -0.19683618027E+02  0.22929312465E+02  0.31155974982E+02  0.00000000000E+00 0. -1.
          1    1    1    2  502    0 -0.75826504847E+01  0.19683618027E+02  0.17465051196E+01  0.21165814114E+02  0.00000000000E+00 0. -1.
</event>
<event>
 4    1  0.3927513E+003  0.2576452E+02  0.7546771E-02  0.1460430E+00
          2   -1    0    0  502    0  0.00000000000E+00  0.00000000000E+00  0.45900636257E+03  0.45900636257E+03  0.00000000000E+00 0.  1.
          1   -1    0    0  501    0 -0.00000000000E+00 -0.00000000000E+00 -0.17234020593E+01  0.17234020593E+01  0.00000000000E+00 0.  1.
          2    1    1    2  501    0  0.24204993311E+02  0.88276936131E+01  0.13625042140E+03  0.13866501797E+03  0.00000000000E+00 0.  1.
          1    1    1    2  502    0 -0.24204993311E+02 -0.88276936131E+01  0.32103253911E+03  0.32206474666E+03  0.00000000000E+00 0.  1.
</event>
<event>
 4    1  0.3927513E+003  0.2079066E+02  0.7546771E-02  0.1522275E+00
          2   -1    0    0  502    0  0.00000000000E+00  0.00000000000E+00  0.19789547687E+03  0.19789547687E+03  0.00000000000E+00 0.  1.
          1   -1    0    0  501    0 -0.00000000000E+00 -0.00000000000E+00 -0.17343081954E+03  0.17343081954E+03  0.00000000000E+00 0.  1.
          2    1    1    2  501    0  0.19493798314E+02  0.72279553039E+01  0.19672262273E+03  0.19781820393E+03  0.00000000000E+00 0.  1.
          1    1    1    2  502    0 -0.19493798314E+02 -0.72279553039E+01 -0.17225796540E+03  0.17350809248E+03  0.00000000000E+00 0.  1.
</event>
<event>
 4    1  0.3927513E+003  0.3583423E+02  0.7546771E-02  0.1374791E+00
          2   -1    0    0  502    0  0.00000000000E+00  0.00000000000E+00  0.22014117599E+03  0.22014117599E+03  0.00000000000E+00 0.  1.
          1   -1    0    0  501    0 -0.00000000000E+00 -0.00000000000E+00 -0.13360256101E+03  0.13360256101E+03  0.00000000000E+00 0. -1.
          2    1    1    2  501    0 -0.17180655215E+02  0.31447047486E+02  0.21623700729E+03  0.21918607399E+03  0.00000000000E+00 0.  1.
          1    1    1    2  502    0  0.17180655215E+02 -0.31447047486E+02 -0.12969839231E+03  0.13455766302E+03  0.00000000000E+00 0. -1.
</event>
<event>
 4    1  0.3927513E+003  0.2974004E+02  0.7546771E-02  0.1421869E+00
          2   -1    0    0  502    0  0.00000000000E+00  0.00000000000E+00  0.60186046718E+02  0.60186046718E+02  0.00000000000E+00 0. -1.
          1   -1    0    0  501    0 -0.00000000000E+00 -0.00000000000E+00 -0.73023786476E+02  0.73023786476E+02  0.00000000000E+00 0.  1.
          2    1    1    2  501    0  0.77391894804E+01  0.28715412827E+02  0.53108042472E+02  0.60868170359E+02  0.00000000000E+00 0. -1.
          1    1    1    2  502    0 -0.77391894804E+01 -0.28715412827E+02 -0.65945782230E+02  0.72341662834E+02  0.00000000000E+00 0.  1.
</event>
<event>
 4    1  0.3927513E+003  0.2707355E+02  0.7546771E-02  0.1446871E+00
          2   -1    0    0  502    0  0.00000000000E+00  0.00000000000E+00  0.73299674106E+02  0.73299674106E+02  0.00000000000E+00 0.  1.
          1   -1    0    0  501    0 -0.00000000000E+00 -0.00000000000E+00 -0.14020193168E+04  0.14020193168E+04  0.00000000000E+00 0.  1.
          2    1    1    2  501    0 -0.19966783166E+02  0.18284006521E+02  0.70664332566E+02  0.75673147295E+02  0.00000000000E+00 0.  1.
          1    1    1    2  502    0  0.19966783166E+02 -0.18284006521E+02 -0.13993839752E+04  0.13996458436E+04  0.00000000000E+00 0.  1.
</event>
<event>
 4    1  0.3927513E+003  0.2119360E+02  0.7546771E-02  0.1516519E+00
          2   -1    0    0  502    0  0.00000000000E+00  0.00000000000E+00  0.39765010363E+03  0.39765010363E+03  0.00000000000E+00 0. -1.
          1   -1    0    0  501    0 -0.00000000000E+00 -0.00000000000E+00 -0.14263635791E+02  0.14263635791E+02  0.00000000000E+00 0.  1.
          2    1    1    2  501    0 -0.67008051451E+01 -0.20106413934E+02  0.38932691590E+03  0.38990334201E+03  0.00000000000E+00 0. -1.
          1    1    1    2  502    0  0.67008051451E+01  0.20106413934E+02 -0.59404480594E+01  0.22010397407E+02  0.00000000000E+00 0.  1.
</event>
<event>
 4    1  0.3927513E+003  0.2057957E+02  0.7546771E-02  0.1525353E+00
          2   -1    0    0  502    0  0.00000000000E+00  0.00000000000E+00  0.15054899840E+01  0.15054899840E+01  0.00000000000E+00 0.  1.
          1   -1    0    0  501    0 -0.00000000000E+00 -0.00000000000E+00 -0.48738199490E+03  0.48738199490E+03  0.00000000000E+00 0.  1.
          2    1    1    2  501    0 -0.98263727752E+01  0.18082068407E+02 -0.83993174734E+02  0.86477582076E+02  0.00000000000E+00 0.  1.
          1    1    1    2  502    0  0.98263727752E+01 -0.18082068407E+02 -0.40188333018E+03  0.40240990281E+03  0.00000000000E+00 0.  1.
</event>
<event>
 4    1  0.3927513E+003  0.3044749E+02  0.7546771E-02  0.1415747E+00
          2   -1    0    0  502    0  0.00000000000E+00  0.00000000000E+00  0.31763164957E+02  0.31763164957E+02  0.00000000000E+00 0. -1.
          1   -1    0    0  501    0 -0.00000000000E+00 -0.00000000000E+00 -0.50035015254E+03  0.50035015254E+03  0.00000000000E+00 0.  1.
          2    1    1    2  501    0  0.29552511073E+02 -0.73279278841E+01  0.23886801986E+02  0.38699208608E+02  0.00000000000E+00 0. -1.
          1    1    1    2  502    0 -0.29552511073E+02  0.73279278841E+01 -0.49247378957E+03  0.49341410889E+03  0.00000000000E+00 0.  1.
</event>
<event>
 4    1  0.3927513E+003  0.3289790E+02  0.7546771E-02  0.1395976E+00
          2   -1    0    0  502    0  0.00000000000E+00  0.00000000000E+00  0.20670266557E+04  0.20670266557E+04  0.00000000000E+00 0. -1.
          1   -1    0    0  501    0 -0.00000000000E+00 -0.00000000000E+00 -0.18474383486E+02  0.18474383486E+02  0.00000000000E+00 0. -1.
          2    1    1    2  501    0  0.27064633580E+02  0.18702335500E+02  0.20521439786E+04  0.20524076546E+04  0.00000000000E+00 0. -1.
          1    1    1    2  502    0 -0.27064633580E+02 -0.18702335500E+02 -0.35917064512E+01  0.33093384523E+02  0.00000000000E+00 0. -1.
</event>
<event>
 4    1  0.3927513E+003  0.2846531E+02  0.7546771E-02  0.1433419E+00
          2   -1    0    0  502    0  0.00000000000E+00  0.00000000000E+00  0.15907686596E+04  0.15907686596E+04  0.00000000000E+00 0. -1.
          1   -1    0    0  501    0 -0.00000000000E+00 -0.00000000000E+00 -0.11646690337E+01  0.11646690337E+01  0.00000000000E+00 0.  1.
          2    1    1    2  501    0 -0.10288862774E+02  0.26540777939E+02  0.13918603257E+04  0.13921513710E+04  0.00000000000E+00 0. -1.
          1    1    1    2  502    0  0.10288862774E+02 -0.26540777939E+02  0.19774366482E+03  0.19978195757E+03  0.00000000000E+00 0.  1.
</event>
<event>
 4    1  0.3927513E+003  0.2862342E+02  0.7546771E-02  0.1431948E+00
          2   -1    0    0  502    0  0.00000000000E+00  0.00000000000E+00  0.14422363530E+04  0.14422363530E+04  0.00000000000E+00 0.  1.
          1   -1    0    0  501    0 -0.00000000000E+00 -0.00000000000E+00 -0.16415287467E+02  0.16415287467E+02  0.00000000000E+00 0. -1.
          2    1    1    2  501    0  0.16236283746E+02  0.23572938927E+02  0.14295055181E+04  0.14297920571E+04  0.00000000000E+00 0.  1.
          1    1    1    2  502    0 -0.16236283746E+02 -0.23572938927E+02 -0.36844525665E+01  0.28859583335E+02  0.00000000000E+00 0. -1.
</event>
<event>
 4    1  0.3927513E+003  0.2866777E+02  0.7546771E-02  0.1431538E+00
          2   -1    0    0  502    0  0.00000000000E+00  0.00000000000E+00  0.20634218362E+04  0.20634218362E+04  0.00000000000E+00 0. -1.
          1   -1    0    0  501    0 -0.00000000000E+00 -0.00000000000E+00 -0.68995118564E+00  0.68995118564E+00  0.00000000000E+00 0.  1.
          2    1    1    2  501    0 -0.17949551917E+02  0.22352950553E+02  0.17023823864E+04  0.17026237489E+04  0.00000000000E+00 0. -1.
          1    1    1    2  502    0  0.17949551917E+02 -0.22352950553E+02  0.36034949859E+03  0.36148803846E+03  0.00000000000E+00 0.  1.
</event>
<event>
 4    1  0.3927513E+003  0.2267822E+02  0.7546771E-02  0.1496579E+00
          2   -1    0    0  502    0  0.00000000000E+00  0.00000000000E+00  0.52006412921E+03  0.52006412921E+03  0.00000000000E+00 0. -1.
          1   -1    0    0  501    0 -0.00000000000E+00 -0.00000000000E+00 -0.21049673382E+01  0.21049673382E+01  0.00000000000E+00 0.  1.
          2    1    1    2  501    0 -0.18769397759E+02 -0.12728362981E+02  0.44908736960E+03  0.44965961243E+03  0.00000000000E+00 0. -1.
          1    1    1    2  502    0  0.18769397759E+02  0.12728362981E+02  0.68871792276E+02  0.72509484122E+02  0.00000000000E+00 0.  1.
</event>
<event>
 4    1  0.3927513E+003  0.3679568E+02  0.7546771E-02  0.1368360E+00
          2   -1    0    0  502    0  0.00000000000E+00  0.00000000000E+00  0.10228135503E+04  0.10228135503E+04  0.00000000000E+00 0. -1.
          1   -1    0    0  501    0 -0.00000000000E+00 -0.00000000000E+00 -0.14983633133E+01  0.14983633133E+01  0.00000000000E+00 0. -1.
          2    1    1    2  501    0  0.36407806947E+02  0.53285475573E+01  0.68550770286E+03  0.68649452475E+03  0.00000000000E+00 0. -1.
          1    1    1    2  502    0 -0.36407806947E+02 -0.53285475573E+01  0.33580748416E+03  0.33781738890E+03  0.00000000000E+00 0. -1.
</event>
<event>
 4    1  0.3927513E+003  0.2018038E+02  0.7546771E-02  0.1531296E+00
          2   -1    0    0  502    0  0.00000000000E+00  0.00000000000E+00  0.28743472623E+02  0.28743472623E+02  0.00000000000E+00 0. -1.
          1   -1    0    0  501    0 -0.00000000000E+00 -0.00000000000E+00 -0.50635910348E+02  0.50635910348E+02  0.00000000000E+00 0. -1.
          2    1    1    2  501    0  0.64001350699E+01 -0.19138601756E+02  0.22736079637E+02  0.30400281632E+02  0.00000000000E+00 0. -1.
          1    1    1    2  502    0 -0.64001350699E+01  0.19138601756E+02 -0.44628517361E+02  0.48979101338E+02  0.00000000000E+00 0. -1.
</event>
<event>
 4    1  0.3927513E+003  0.2755423E+02  0.7546771E-02  0.1442119E+00
          2   -1    0    0  502    0  0.00000000000E+00  0.00000000000E+00  0.76318254371E+01  0.76318254371E+01  0.00000000000E+00 0. -1.
          1   -1    0    0  501    0 -0.00000000000E+00 -0.00000000000E+00 -0.17191620216E+04  0.17191620216E+04  0.00000000000E+00 0.  1.
          2    1    1    2  501    0  0.14722540340E+01  0.27514871355E+02 -0.17721539241E+02  0.32761084089E+02  0.00000000000E+00 0. -1.
          1    1    1    2  502    0 -0.14722540340E+01 -0.27514871355E+02 -0.16938086569E+04  0.16940327629E+04  0.00000000000E+00 0.  1.
</event>
<event>
 4    1  0.3927513E+003  0.2009002E+02  0.7546771E-02  0.1532664E+00
          2   -1    0    0  502    0  0.00000000000E+00  0.00000000000E+00  0.47738726182E+03  0.47738726182E+03  0.00000000000E+00 0.  1.
          1   -1    0    0  501    0 -0.00000000000E+00 -0.00000000000E+00 -0.20044041219E+01  0.20044041219E+01  0.00000000000E+00 0.  1.
          2    1    1    2  501    0  0.18780040143E+02 -0.71357425337E+01  0.41995518147E+03  0.42043544472E+03  0.00000000000E+00 0.  1.
          1    1    1    2  502    0 -0.18780040143E+02  0.71357425337E+01  0.55427676230E+02  0.58956221229E+02  0.00000000000E+00 0.  1.
</event>
<event>
 4    1  0.3927513E+003  0.2225027E+02  0.7546771E-02  0.1502133E+00
          2   -1    0    0  502    0  0.00000000000E+00  0.00000000000E+00  0.10135974282E+03  0.10135974282E+03  0.00000000000E+00 0. -1.
          1   -1    0    0  501    0 -0.00000000000E+00 -0.00000000000E+00 -0.69505252663E+01  0.69505252663E+01  0.00000000000E+00 0. -1.
          2    1    1    2  501    0  0.18473228104E+02  0.12402199384E+02  0.76731397694E+02  0.79892315640E+02  0.00000000000E+00 0. -1.
          1    1    1    2  502    0 -0.18473228104E+02 -0.12402199384E+02  0.17677819854E+02  0.28417952442E+02  0.00000000000E+00 0. -1.
</event>
<event>
 4    1  0.3927513E+003  0.3308159E+02  0.7546771E-02  0.1394576E+00
          2   -1    0    0  502    0  0.00000000000E+00  0.00000000000E+00  0.33783352249E+03  0.33783352249E+03  0.00000000000E+00 0.  1.
          1   -1    0    0  501    0 -0.00000000000E+00 -0.00000000000E+00 -0.12338244985E+02  0.12338244985E+02  0.00000000000E+00 0. -1.
          2    1    1    2  501    0 -0.18745630080E+02  0.27257900774E+02  0.31310219384E+03  0.31484500249E+03  0.00000000000E+00 0.  1.
          1    1    1    2  502    0  0.18745630080E+02 -0.27257900774E+02  0.12393083657E+02  0.35326764984E+02  0.00000000000E+00 0. -1.
</event>
<event>
 4    1  0.3927513E+003  0.2816314E+02  0.7546771E-02  0.1436261E+00
          2   -1    0    0  502    0  0.00000000000E+00  0.00000000000E+00  0.18062355105E+03  0.18062355105E+03  0.00000000000E+00 0.  1.
          1   -1    0    0  501    0 -0.00000000000E+00 -0.00000000000E+00 -0.96534265054E+01  0.96534265054E+01  0.00000000000E+00 0.  1.
          2    1    1    2  501    0  0.28040912780E+02  0.26209682027E+01  0.15572731215E+03  0.15825346130E+03  0.00000000000E+00 0.  1.
          1    1    1    2  502    0 -0.28040912780E+02 -0.26209682027E+01  0.15242812400E+02  0.32023516261E+02  0.00000000000E+00 0.  1.
</event>
<event>
 4    1  0.3927513E+003  0.5977395E+02  0.7546771E-02  0.1260603E+00
          2   -1    0    0  502    0  0.00000000000E+00  0.00000000000E+00  0.14608885691E+04  0.14608885691E+04  0.00000000000E+00 0. -1.
          1   -1    0    0  501    0 -0.00000000000E+00 -0.00000000000E+00 -0.50406830321E+01  0.50406830321E+01  0.00000000000E+00 0. -1.
          2    1    1    2  501    0  0.21212446178E+02  0.55883426355E+02  0.12538247793E+04  0.12552487811E+04  0.00000000000E+00 0. -1.
          1    1    1    2  502    0 -0.21212446178E+02 -0.55883426355E+02  0.20202310671E+03  0.21068047100E+03  0.00000000000E+00 0. -1.
</event>
<event>
 4    1  0.3927513E+003  0.2750937E+02  0.7546771E-02  0.1442557E+00
          2   -1    0    0  502    0  0.00000000000E+00  0.00000000000E+00  0.89747021619E+03  0.89747021619E+03  0.00000000000E+00 0. -1.
          1   -1    0    0  501    0 -0.00000000000E+00 -0.00000000000E+00 -0.17318419264E+03  0.17318419264E+03  0.00000000000E+00 0. -1.
          2    1    1    2  501    0 -0.19650879047E+02  0.19251192160E+02  0.89616539223E+03  0.89658751702E+03  0.00000000000E+00 0. -1.
          1    1    1    2  502    0  0.19650879047E+02 -0.19251192160E+02 -0.17187936868E+03  0.17406689181E+03  0.00000000000E+00 0. -1.
</event>
<event>
 4    1  0.3927513E+003  0.2651372E+02  0.7546771E-02  0.1452555E+00
          2   -1    0    0  502    0  0.00000000000E+00  0.00000000000E+00  0.49483885862E+03  0.49483885862E+03  0.00000000000E+00 0.  1.
          1   -1    0    0  501    0 -0.00000000000E+00 -0.00000000000E+00 -0.10212750573E+03  0.10212750573E+03  0.00000000000E+00 0.  1.
          2    1    1    2  501    0 -0.15164516807E+02 -0.21748908177E+02  0.49275560067E+03  0.49346839774E+03  0.00000000000E+00 0.  1.
          1    1    1    2  502    0  0.15164516807E+02  0.21748908177E+02 -0.10004424779E+03  0.10349796661E+03  0.00000000000E+00 0.  1.
</event>
<event>
 4    1  0.3927513E+003  0.2264947E+02  0.7546771E-02  0.1496947E+00
          2   -1    0    0  502    0  0.00000000000E+00  0.00000000000E+00  0.15609588543E+04  0.15609588543E+04  0.00000000000E+00 0.  1.
          1   -1    0    0  501    0 -0.00000000000E+00 -0.00000000000E+00 -0.58327016876E+01  0.58327016876E+01  0.00000000000E+00 0. -1.
          2    1    1    2  501    0  0.58988247542E+01 -0.21867837844E+02  0.15385686987E+04  0.15387354025E+04  0.00000000000E+00 0.  1.
          1    1    1    2  502    0 -0.58988247542E+01  0.21867837844E+02  0.16557453923E+02  0.28056153441E+02  0.00000000000E+00 0. -1.
</event>
<event>
 4    1  0.3927513E+003  0.2167868E+02  0.7546771E-02  0.1509792E+00
          2   -1    0    0  502    0  0.00000000000E+00  0.00000000000E+00  0.13862876098E+01  0.13862876098E+01  0.00000000000E+00 0.  1.
          1   -1    0    0  501    0 -0.00000000000E+00 -0.00000000000E+00 -0.38879468372E+03  0.38879468372E+03  0.00000000000E+00 0.  1.
          2    1    1    2  501    0  0.10668320182E+02  0.18871991118E+02 -0.12389307573E+03  0.12577543209E+03  0.00000000000E+00 0.  1.
          1    1    1    2  502    0 -0.10668320182E+02 -0.18871991118E+02 -0.26351532039E+03  0.26440553924E+03  0.00000000000E+00 0.  1.
</event>
<event>
 4    1  0.3927513E+003  0.2365557E+02  0.7546771E-02  0.1484426E+00
          2   -1    0    0  502    0  0.00000000000E+00  0.00000000000E+00  0.23266243968E+01  0.23266243968E+01  0.00000000000E+00 0.  1.
          1   -1    0    0  501    0 -0.00000000000E+00 -0.00000000000E+00 -0.12629735157E+04  0.12629735157E+04  0.00000000000E+00 0.  1.
          2    1    1    2  501    0  0.18134036814E+02  0.15190223653E+02 -0.61091246274E+02  0.65511270459E+02  0.00000000000E+00 0.  1.
          1    1    1    2  502    0 -0.18134036814E+02 -0.15190223653E+02 -0.11995556451E+04  0.11997888697E+04  0.00000000000E+00 0.  1.
</event>
<event>
 4    1  0.3927513E+003  0.2311802E+02  0.7546771E-02  0.1491021E+00
          2   -1    0    0  502    0  0.00000000000E+00  0.00000000000E+00  0.17468671774E+02  0.17468671774E+02  0.00000000000E+00 0. -1.
          1   -1    0    0  501    0 -0.00000000000E+00 -0.00000000000E+00 -0.96696348077E+02  0.96696348077E+02  0.00000000000E+00 0. -1.
          2    1    1    2  501    0 -0.55786581419E-01  0.23117950788E+02  0.75821734219E+01  0.24329655045E+02  0.00000000000E+00 0. -1.
          1    1    1    2  502    0  0.55786581419E-01 -0.23117950788E+02 -0.86809849725E+02  0.89835364807E+02  0.00000000000E+00 0. -1.
</event>
<event>
 4    1  0.3927513E+003  0.2864088E+02  0.7546771E-02  0.1431787E+00
          2   -1    0    0  502    0  0.00000000000E+00  0.00000000000E+00  0.48662798201E+03  0.48662798201E+03  0.00000000000E+00 0. -1.
          1   -1    0    0  501    0 -0.00000000000E+00 -0.00000000000E+00 -0.16936355435E+01  0.16936355435E+01  0.00000000000E+00 0. -1.
          2    1    1    2  501    0  0.22829557711E+02  0.17294837212E+02  0.25919896323E+03  0.26077653775E+03  0.00000000000E+00 0. -1.
          1    1    1    2  502    0 -0.22829557711E+02 -0.17294837212E+02  0.22573538323E+03  0.22754507980E+03  0.00000000000E+00 0. -1.
</event>
<event>
 4    1  0.3927513E+003  0.3183862E+02  0.7546771E-02  0.1404264E+00
          2   -1    0    0  502    0  0.00000000000E+00  0.00000000000E+00  0.48587115800E+02  0.48587115800E+02  0.00000000000E+00 0. -1.
          1   -1    0    0  501    0 -0.00000000000E+00 -0.00000000000E+00 -0.28641232205E+02  0.28641232205E+02  0.00000000000E+00 0. -1.
          2    1    1    2  501    0 -0.21927388478E+01  0.31763001922E+02 -0.10149371557E+02  0.33417153346E+02  0.00000000000E+00 0. -1.
          1    1    1    2  502    0  0.21927388478E+01 -0.31763001922E+02  0.30095255152E+02  0.43811194658E+02  0.00000000000E+00 0. -1.
</event>
<event>
 4    1  0.3927513E+003  0.8635022E+02  0.7546771E-02  0.1189826E+00
          2   -1    0    0  502    0  0.00000000000E+00  0.00000000000E+00  0.10048366693E+04  0.10048366693E+04  0.00000000000E+00 0.  1.
          1   -1    0    0  501    0 -0.00000000000E+00 -0.00000000000E+00 -0.18203902260E+03  0.18203902260E+03  0.00000000000E+00 0. -1.
          2    1    1    2  501    0 -0.22593053472E+02  0.83342155759E+02  0.99261565581E+03  0.99636449212E+03  0.00000000000E+00 0.  1.
          1    1    1    2  502    0  0.22593053472E+02 -0.83342155759E+02 -0.16981800916E+03  0.19051119974E+03  0.00000000000E+00 0. -1.
</event>
<event>
 4    1  0.3927513E+003  0.2786437E+02  0.7546771E-02  0.1439113E+00
          2   -1    0    0  502    0  0.00000000000E+00  0.00000000000E+00  0.37962112280E+03  0.37962112280E+03  0.00000000000E+00 0.  1.
          1   -1    0    0  501    0 -0.00000000000E+00 -0.00000000000E+00 -0.12941282372E+02  0.12941282372E+02  0.00000000000E+00 0.  1.
          2    1    1    2  501    0  0.12688353756E+02  0.24807832387E+02  0.36344422805E+03  0.36451080885E+03  0.00000000000E+00 0.  1.
          1    1    1    2  502    0 -0.12688353756E+02 -0.24807832387E+02  0.32356123843E+01  0.28051596323E+02  0.00000000000E+00 0.  1.
</event>
<event>
 4    1  0.3927513E+003  0.5813310E+02  0.7546771E-02  0.1266311E+00
          2   -1    0    0  502    0  0.00000000000E+00  0.00000000000E+00  0.67355198169E+02  0.67355198169E+02  0.00000000000E+00 0.  1.
          1   -1    0    0  501    0 -0.00000000000E+00 -0.00000000000E+00 -0.21383003470E+03  0.21383003470E+03  0.00000000000E+00 0. -1.
          2    1    1    2  501    0  0.42862403844E+02  0.39271763015E+02  0.49759610099E+02  0.76521080957E+02  0.00000000000E+00 0.  1.
          1    1    1    2  502    0 -0.42862403844E+02 -0.39271763015E+02 -0.19623444663E+03  0.20466415192E+03  0.00000000000E+00 0. -1.
</event>
<event>
 4    1  0.3927513E+003  0.2507913E+02  0.7546771E-02  0.1467920E+00
          2   -1    0    0  502    0  0.00000000000E+00  0.00000000000E+00  0.73025020033E+02  0.73025020033E+02  0.00000000000E+00 0. -1.
          1   -1    0    0  501    0 -0.00000000000E+00 -0.00000000000E+00 -0.24324243089E+02  0.24324243089E+02  0.00000000000E+00 0.  1.
          2    1    1    2  501    0  0.13701319655E+02  0.21005630623E+02  0.63469467686E+02  0.68244677496E+02  0.00000000000E+00 0. -1.
          1    1    1    2  502    0 -0.13701319655E+02 -0.21005630623E+02 -0.14768690743E+02  0.29104585625E+02  0.00000000000E+00 0.  1.
</event>
<event>
 4    1  0.3927513E+003  0.3335021E+02  0.7546771E-02  0.1392548E+00
          2   -1    0    0  502    0  0.00000000000E+00  0.00000000000E+00  0.14179153923E+02  0.14179153923E+02  0.00000000000E+00 0.  1.
          1   -1    0    0  501    0 -0.00000000000E+00 -0.00000000000E+00 -0.29043164328E+03  0.29043164328E+03  0.00000000000E+00 0. -1.
          2    1    1    2  501    0  0.31979502177E+01 -0.33196529924E+02 -0.80041656520E+01  0.34297276166E+02  0.00000000000E+00 0.  1.
          1    1    1    2  502    0 -0.31979502177E+01  0.33196529924E+02 -0.26824832371E+03  0.27031352104E+03  0.00000000000E+00 0. -1.
</event>
<event>
 4    1  0.3927513E+003  0.3860530E+02  0.7546771E-02  0.1356858E+00
          2   -1    0    0  502    0  0.00000000000E+00  0.00000000000E+00  0.73629024626E+01  0.73629024626E+01  0.00000000000E+00 0. -1.
          1   -1    0    0  501    0 -0.00000000000E+00 -0.00000000000E+00 -0.20901068972E+03  0.20901068972E+03  0.00000000000E+00 0. -1.
          2    1    1    2  501    0 -0.36316877007E+02  0.13093971375E+02 -0.12004128573E+03  0.12609630416E+03  0.00000000000E+00 0. -1.
          1    1    1    2  502    0  0.36316877007E+02 -0.13093971375E+02 -0.81606501519E+02  0.90277288019E+02  0.00000000000E+00 0. -1.
</event>
<event>
 4    1  0.3927513E+003  0.2044611E+02  0.7546771E-02  0.1527322E+00
          2   -1    0    0  502    0  0.00000000000E+00  0.00000000000E+00  0.32155743342E+03  0.32155743342E+03  0.00000000000E+00 0.  1.
          1   -1    0    0  501    0 -0.00000000000E+00 -0.00000000000E+00 -0.59335078484E+03  0.59335078484E+03  0.00000000000E+00 0.  1.
          2    1    1    2  501    0  0.16803179279E+02 -0.11648895060E+02  0.32105600711E+03  0.32170639300E+03  0.00000000000E+00 0.  1.
          1    1    1    2  502    0 -0.16803179279E+02  0.11648895060E+02 -0.59284935854E+03  0.59320182527E+03  0.00000000000E+00 0.  1.
</event>
<event>
 4    1  0.3927513E+003  0.4174128E+02  0.7546771E-02  0.1338573E+00
          2   -1    0    0  502    0  0.00000000000E+00  0.00000000000E+00  0.30260045227E+03  0.30260045227E+03  0.00000000000E+00 0. -1.
          1   -1    0    0  501    0 -0.00000000000E+00 -0.00000000000E+00 -0.44036319091E+02  0.44036319091E+02  0.00000000000E+00 0.  1.
          2    1    1    2  501    0  0.15529502221E+01 -0.41712383446E+02  0.29087273865E+03  0.29385248795E+03  0.00000000000E+00 0. -1.
          1    1    1    2  502    0 -0.15529502221E+01  0.41712383446E+02 -0.32308605471E+02  0.52784283406E+02  0.00000000000E+00 0.  1.
</event>
<event>
 4    1  0.3927513E+003  0.3293919E+02  0.7546771E-02  0.1395660E+00
          2   -1    0    0  502    0  0.00000000000E+00  0.00000000000E+00  0.11544319355E+02  0.11544319355E+02  0.00000000000E+00 0.  1.
          1   -1    0    0  501    0 -0.00000000000E+00 -0.00000000000E+00 -0.16748168652E+03  0.16748168652E+03  0.00000000000E+00 0.  1.
          2    1    1    2  501    0  0.32921563939E+02  0.10775275296E+01 -0.18671104544E+02  0.37862918306E+02  0.00000000000E+00 0.  1.
          1    1    1    2  502    0 -0.32921563939E+02 -0.10775275296E+01 -0.13726626263E+03  0.14116308757E+03  0.00000000000E+00 0.  1.
</event>
<event>
 4    1  0.3927513E+003  0.3704176E+02  0.7546771E-02  0.1366751E+00
          2   -1    0    0  502    0  0.00000000000E+00  0.00000000000E+00  0.91174769937E+01  0.91174769937E+01  0.00000000000E+00 0. -1.
          1   -1    0    0  501    0 -0.00000000000E+00 -0.00000000000E+00 -0.35099931448E+03  0.35099931448E+03  0.00000000000E+00 0.  1.
          2    1    1    2  501    0  0.48704683614E+01  0.36720162020E+02 -0.34850608597E+02  0.50859184819E+02  0.00000000000E+00 0. -1.
          1    1    1    2  502    0 -0.48704683614E+01 -0.36720162020E+02 -0.30703122889E+03  0.30925760666E+03  0.00000000000E+00 0.  1.
</event>
<event>
 4    1  0.3927513E+003  0.2273004E+02  0.7546771E-02  0.1495916E+00
          2   -1    0    0  502    0  0.00000000000E+00  0.00000000000E+00  0.43415180921E+02  0.43415180921E+02  0.00000000000E+00 0. -1.
          1   -1    0    0  501    0 -0.00000000000E+00 -0.00000000000E+00 -0.17864954910E+03  0.17864954910E+03  0.00000000000E+00 0.  1.
          2    1    1    2  501    0 -0.31986413536E+01  0.22503857245E+02  0.39653372768E+02  0.45706070377E+02  0.00000000000E+00 0. -1.
          1    1    1    2  502    0  0.31986413536E+01 -0.22503857245E+02 -0.17488774095E+03  0.17635865964E+03  0.00000000000E+00 0.  1.
</event>
<event>
 4    1  0.3927513E+003  0.2195132E+02  0.7546771E-02  0.1506104E+00
          2   -1    0    0  502    0  0.00000000000E+00  0.00000000000E+00  0.34207180758E+03  0.34207180758E+03  0.00000000000E+00 0. -1.
          1   -1    0    0  501    0 -0.00000000000E+00 -0.00000000000E+00 -0.16146373773E+01  0.16146373773E+01  0.00000000000E+00 0.  1.
          2    1    1    2  501    0  0.18079340124E+01  0.21876737501E+02  0.23160657939E+03  0.23264450968E+03  0.00000000000E+00 0. -1.
          1    1    1    2  502    0 -0.18079340124E+01 -0.21876737501E+02  0.10885059081E+03  0.11104193527E+03  0.00000000000E+00 0.  1.
</event>
<event>
 4    1  0.3927513E+003  0.5353591E+02  0.7546771E-02  0.1283529E+00
          2   -1    0    0  502    0  0.00000000000E+00  0.00000000000E+00  0.11404955759E+04  0.11404955759E+04  0.00000000000E+00 0. -1.
          1   -1    0    0  501    0 -0.00000000000E+00 -0.00000000000E+00 -0.26495485141E+01  0.26495485141E+01  0.00000000000E+00 0.  1.
          2    1    1    2  501    0  0.50503944237E+02  0.17760782426E+02  0.69866762502E+03  0.70071573697E+03  0.00000000000E+00 0. -1.
          1    1    1    2  502    0 -0.50503944237E+02 -0.17760782426E+02  0.43917840235E+03  0.44242938744E+03  0.00000000000E+00 0.  1.
</event>
<event>
 4    1  0.3927513E+003  0.2289021E+02  0.7546771E-02  0.1493881E+00
          2   -1    0    0  502    0  0.00000000000E+00  0.00000000000E+00  0.10808172151E+04  0.10808172151E+04  0.00000000000E+00 0. -1.
          1   -1    0    0  501    0 -0.00000000000E+00 -0.00000000000E+00 -0.14414188379E+01  0.14414188379E+01  0.00000000000E+00 0.  1.
          2    1    1    2  501    0  0.61074804163E+01  0.22060384990E+02  0.98052614931E+03  0.98079329698E+03  0.00000000000E+00 0. -1.
          1    1    1    2  502    0 -0.61074804163E+01 -0.22060384990E+02  0.98849646900E+02  0.10146533691E+03  0.00000000000E+00 0.  1.
</event>
<event>
 4    1  0.3927513E+003  0.2211716E+02  0.7546771E-02  0.1503892E+00
          2   -1    0    0  502    0  0.00000000000E+00  0.00000000000E+00  0.34905598411E+01  0.34905598411E+01  0.00000000000E+00 0.  1.
          1   -1    0    0  501    0 -0.00000000000E+00 -0.00000000000E+00 -0.34527766359E+03  0.34527766359E+03  0.00000000000E+00 0.  1.
          2    1    1    2  501    0  0.28322393968E+01 -0.21935067400E+02 -0.36479443210E+02  0.42660503264E+02  0.00000000000E+00 0.  1.
          1    1    1    2  502    0 -0.28322393968E+01  0.21935067400E+02 -0.30530766054E+03  0.30610772017E+03  0.00000000000E+00 0.  1.
</event>
<event>
 4    1  0.3927513E+003  0.2650072E+02  0.7546771E-02  0.1452689E+00
          2   -1    0    0  502    0  0.00000000000E+00  0.00000000000E+00  0.14634432899E+03  0.14634432899E+03  0.00000000000E+00 0.  1.
          1   -1    0    0  501    0 -0.00000000000E+00 -0.00000000000E+00 -0.79994264917E+02  0.79994264917E+02  0.00000000000E+00 0. -1.
          2    1    1    2  501    0 -0.18088116447E+02  0.19367713218E+02  0.14289730538E+03  0.14533385069E+03  0.00000000000E+00 0.  1.
          1    1    1    2  502    0  0.18088116447E+02 -0.19367713218E+02 -0.76547241307E+02  0.81004743217E+02  0.00000000000E+00 0. -1.
</event>
<event>
 4    1  0.3927513E+003  0.2816802E+02  0.7546771E-02  0.1436215E+00
          2   -1    0    0  502    0  0.00000000000E+00  0.00000000000E+00  0.18685404151E+04  0.18685404151E+04  0.00000000000E+00 0. -1.
          1   -1    0    0  501    0 -0.00000000000E+00 -0.00000000000E+00 -0.12837519302E+01  0.12837519302E+01  0.00000000000E+00 0.  1.
          2    1    1    2  501    0  0.23759018074E+02  0.15130980379E+02  0.16984456795E+04  0.16986792409E+04  0.00000000000E+00 0. -1.
          1    1    1    2  502    0 -0.23759018074E+02 -0.15130980379E+02  0.16881098371E+03  0.17114492610E+03  0.00000000000E+00 0.  1.
</event>
<event>
 4    1  0.3927513E+003  0.2431173E+02  0.7546771E-02  0.1476652E+00
          2   -1    0    0  502    0  0.00000000000E+00  0.00000000000E+00  0.34522685850E+01  0.34522685850E+01  0.00000000000E+00 0. -1.
          1   -1    0    0  501    0 -0.00000000000E+00 -0.00000000000E+00 -0.23074152056E+03  0.23074152056E+03  0.00000000000E+00 0.  1.
          2    1    1    2  501    0 -0.23657652092E+02 -0.56014091694E+01 -0.54166297431E+02  0.59372115210E+02  0.00000000000E+00 0. -1.
          1    1    1    2  502    0  0.23657652092E+02  0.56014091694E+01 -0.17312295455E+03  0.17482167394E+03  0.00000000000E+00 0.  1.
</event>
<event>
 4    1  0.3927513E+003  0.2088136E+02  0.7546771E-02  0.1520966E+00
          2   -1    0    0  502    0  0.00000000000E+00  0.00000000000E+00  0.35592770376E+03  0.35592770376E+03  0.00000000000E+00 0. -1.
          1   -1    0    0  501    0 -0.00000000000E+00 -0.00000000000E+00 -0.48894080042E+02  0.48894080042E+02  0.00000000000E+00 0.  1.
          2    1    1    2  501    0 -0.14746393531E+02 -0.14784280788E+02  0.35337588678E+03  0.35399229997E+03  0.00000000000E+00 0. -1.
          1    1    1    2  502    0  0.14746393531E+02  0.14784280788E+02 -0.46342263063E+02  0.50829483830E+02  0.00000000000E+00 0.  1.
</event>
<event>
 4    1  0.3927513E+003  0.2565448E+02  0.7546771E-02  0.1461613E+00
          2   -1    0    0  502    0  0.00000000000E+00  0.00000000000E+00  0.19636711698E+03  0.19636711698E+03  0.00000000000E+00 0.  1.
          1   -1    0    0  501    0 -0.00000000000E+00 -0.00000000000E+00 -0.42233175812E+01  0.42233175812E+01  0.00000000000E+00 0.  1.
          2    1    1    2  501    0 -0.71715891394E+01 -0.24631683593E+02  0.50506860951E+02  0.56648870515E+02  0.00000000000E+00 0.  1.
          1    1    1    2  502    0  0.71715891394E+01  0.24631683593E+02  0.14163693845E+03  0.14394156405E+03  0.00000000000E+00 0.  1.
</event>
<event>
 4    1  0.3927513E+003  0.2573800E+02  0.7546771E-02  0.1460714E+00
          2   -1    0    0  502    0  0.00000000000E+00  0.00000000000E+00  0.92292913236E+03  0.92292913236E+03  0.00000000000E+00 0.  1.
          1   -1    0    0  501    0 -0.00000000000E+00 -0.00000000000E+00 -0.77583369234E+00  0.77583369234E+00  0.00000000000E+00 0.  1.
          2    1    1    2  501    0  0.14883497032E+02 -0.20998245568E+02  0.58743262140E+03  0.58799619853E+03  0.00000000000E+00 0.  1.
          1    1    1    2  502    0 -0.14883497032E+02  0.20998245568E+02  0.33472067727E+03  0.33570876752E+03  0.00000000000E+00 0.  1.
</event>
<event>
 4    1  0.3927513E+003  0.2955350E+02  0.7546771E-02  0.1423517E+00
          2   -1    0    0  502    0  0.00000000000E+00  0.00000000000E+00  0.14330309735E+02  0.14330309735E+02  0.00000000000E+00 0. -1.
          1   -1    0    0  501    0 -0.00000000000E+00 -0.00000000000E+00 -0.49165828764E+03  0.49165828764E+03  0.00000000000E+00 0. -1.
          2    1    1    2  501    0 -0.29010422051E+02 -0.56395937339E+01 -0.18695670445E+01  0.29612579861E+02  0.00000000000E+00 0. -1.
          1    1    1    2  502    0  0.29010422051E+02  0.56395937339E+01 -0.47545841086E+03  0.47637601751E+03  0.00000000000E+00 0. -1.
</event>
<event>
 4    1  0.4669553E+003  0.2220848E+02  0.7546771E-02  0.1502684E+00
          2   -1    0    0  502    0  0.00000000000E+00  0.00000000000E+00  0.83591672134E+03  0.83591672134E+03  0.00000000000E+00 0. -1.
          1   -1    0    0  501    0 -0.00000000000E+00 -0.00000000000E+00 -0.16328489356E+04  0.16328489356E+04  0.00000000000E+00 0.  1.
          2    1    1    2  501    0 -0.11983337682E+01  0.22176126198E+02  0.83569367877E+03  0.83598872081E+03  0.00000000000E+00 0. -1.
          1    1    1    2  502    0  0.11983337682E+01 -0.22176126198E+02 -0.16326258931E+04  0.16327769362E+04  0.00000000000E+00 0.  1.
</event>
<event>
 4    1  0.3927513E+003  0.2363905E+02  0.7546771E-02  0.1484626E+00
          2   -1    0    0  502    0  0.00000000000E+00  0.00000000000E+00  0.45578828773E+03  0.45578828773E+03  0.00000000000E+00 0.  1.
          1   -1    0    0  501    0 -0.00000000000E+00 -0.00000000000E+00 -0.53259996085E+01  0.53259996085E+01  0.00000000000E+00 0. -1.
          2    1    1    2  501    0 -0.19121439519E+02 -0.13898742393E+02  0.42751861762E+03  0.42817166289E+03  0.00000000000E+00 0.  1.
          1    1    1    2  502    0  0.19121439519E+02  0.13898742393E+02  0.22943670495E+02  0.32942624443E+02  0.00000000000E+00 0. -1.
</event>
<event>
 4    1  0.3927513E+003  0.2408458E+02  0.7546771E-02  0.1479310E+00
          2   -1    0    0  502    0  0.00000000000E+00  0.00000000000E+00  0.49184729131E+03  0.49184729131E+03  0.00000000000E+00 0.  1.
          1   -1    0    0  501    0 -0.00000000000E+00 -0.00000000000E+00 -0.14169662488E+01  0.14169662488E+01  0.00000000000E+00 0. -1.
          2    1    1    2  501    0 -0.18697243555E+02 -0.15181570563E+02  0.34620906382E+03  0.34704579363E+03  0.00000000000E+00 0.  1.
          1    1    1    2  502    0  0.18697243555E+02  0.15181570563E+02  0.14422126124E+03  0.14621846394E+03  0.00000000000E+00 0. -1.
</event>
<event>
 4    1  0.3927513E+003  0.2470657E+02  0.7546771E-02  0.1472113E+00
          2   -1    0    0  502    0  0.00000000000E+00  0.00000000000E+00  0.27116727235E+03  0.27116727235E+03  0.00000000000E+00 0. -1.
          1   -1    0    0  501    0 -0.00000000000E+00 -0.00000000000E+00 -0.83821670753E+01  0.83821670753E+01  0.00000000000E+00 0. -1.
          2    1    1    2  501    0  0.17333226300E+02  0.17606069423E+02  0.25093436716E+03  0.25214771670E+03  0.00000000000E+00 0. -1.
          1    1    1    2  502    0 -0.17333226300E+02 -0.17606069423E+02  0.11850738114E+02  0.27401722726E+02  0.00000000000E+00 0. -1.
</event>
<event>
 4    1  0.3927513E+003  0.2014557E+02  0.7546771E-02  0.1531822E+00
          2   -1    0    0  502    0  0.00000000000E+00  0.00000000000E+00  0.14570490766E+03  0.14570490766E+03  0.00000000000E+00 0.  1.
          1   -1    0    0  501    0 -0.00000000000E+00 -0.00000000000E+00 -0.93203299201E+02  0.93203299201E+02  0.00000000000E+00 0. -1.
          2    1    1    2  501    0  0.17992019229E+02  0.90626264173E+01  0.14390642441E+03  0.14530967944E+03  0.00000000000E+00 0.  1.
          1    1    1    2  502    0 -0.17992019229E+02 -0.90626264173E+01 -0.91404815956E+02  0.93598527411E+02  0.00000000000E+00 0. -1.
</event>
<event>
 4    1  0.3927513E+003  0.9184408E+02  0.7546771E-02  0.1178744E+00
          2   -1    0    0  502    0  0.00000000000E+00  0.00000000000E+00  0.17722988265E+02  0.17722988265E+02  0.00000000000E+00 0. -1.
          1   -1    0    0  501    0 -0.00000000000E+00 -0.00000000000E+00 -0.25871763672E+04  0.25871763672E+04  0.00000000000E+00 0. -1.
          2    1    1    2  501    0  0.84064078824E+02 -0.36994124310E+02 -0.10816451798E+03  0.14189748952E+03  0.00000000000E+00 0. -1.
          1    1    1    2  502    0 -0.84064078824E+02  0.36994124310E+02 -0.24612888609E+04  0.24630018659E+04  0.00000000000E+00 0. -1.
</event>
<event>
 4    1  0.3927513E+003  0.5465019E+02  0.7546771E-02  0.1279179E+00
          2   -1    0    0  502    0  0.00000000000E+00  0.00000000000E+00  0.18701260194E+02  0.18701260194E+02  0.00000000000E+00 0. -1.
          1   -1    0    0  501    0 -0.00000000000E+00 -0.00000000000E+00 -0.28332011422E+03  0.28332011422E+03  0.00000000000E+00 0.  1.
          2    1    1    2  501    0  0.45417582113E+02 -0.30395492422E+02 -0.32560389137E+02  0.63614634050E+02  0.00000000000E+00 0. -1.
          1    1    1    2  502    0 -0.45417582113E+02  0.30395492422E+02 -0.23205846489E+03  0.23840674037E+03  0.00000000000E+00 0.  1.
</event>
<event>
 4    1  0.3927513E+003  0.3044163E+02  0.7546771E-02  0.1415797E+00
          2   -1    0    0  502    0  0.00000000000E+00  0.00000000000E+00  0.11439364305E+04  0.11439364305E+04  0.00000000000E+00 0.  1.
          1   -1    0    0  501    0 -0.00000000000E+00 -0.00000000000E+00 -0.23020648201E+01  0.23020648201E+01  0.00000000000E+00 0.  1.
          2    1    1    2  501    0 -0.10332622193E+02  0.28634415693E+02  0.10322057100E+04  0.10326545020E+04  0.00000000000E+00 0.  1.
          1    1    1    2  502    0  0.10332622193E+02 -0.28634415693E+02  0.10942865565E+03  0.11358399324E+03  0.00000000000E+00 0.  1.
</event>
<event>
 4    1  0.3927513E+003  0.2277848E+02  0.7546771E-02  0.1495299E+00
          2   -1    0    0  502    0  0.00000000000E+00  0.00000000000E+00  0.16183307717E+03  0.16183307717E+03  0.00000000000E+00 0. -1.
          1   -1    0    0  501    0 -0.00000000000E+00 -0.00000000000E+00 -0.55049555924E+03  0.55049555924E+03  0.00000000000E+00 0.  1.
          2    1    1    2  501    0  0.22678947114E+02 -0.21270693652E+01  0.16079439557E+03  0.16239980515E+03  0.00000000000E+00 0. -1.
          1    1    1    2  502    0 -0.22678947114E+02  0.21270693652E+01 -0.54945687764E+03  0.54992883126E+03  0.00000000000E+00 0.  1.
</event>
<event>
 4    1  0.3927513E+003  0.6911308E+02  0.7546771E-02  0.1231662E+00
          2   -1    0    0  502    0  0.00000000000E+00  0.00000000000E+00  0.81021109367E+03  0.81021109367E+03  0.00000000000E+00 0. -1.
          1   -1    0    0  501    0 -0.00000000000E+00 -0.00000000000E+00 -0.75459313730E+02  0.75459313730E+02  0.00000000000E+00 0.  1.
          2    1    1    2  501    0  0.78066396015E+01 -0.68670764751E+02  0.79256030276E+03  0.79556800530E+03  0.00000000000E+00 0. -1.
          1    1    1    2  502    0 -0.78066396015E+01  0.68670764751E+02 -0.57808522818E+02  0.90102402097E+02  0.00000000000E+00 0.  1.
</event>
<event>
 4    1  0.3927513E+003  0.2725602E+02  0.7546771E-02  0.1445053E+00
          2   -1    0    0  502    0  0.00000000000E+00  0.00000000000E+00  0.18472123062E+03  0.18472123062E+03  0.00000000000E+00 0. -1.
          1   -1    0    0  501    0 -0.00000000000E+00 -0.00000000000E+00 -0.16547837780E+02  0.16547837780E+02  0.00000000000E+00 0.  1.
          2    1    1    2  501    0  0.77889906760E+01  0.26119387639E+02  0.17164256249E+03  0.17379315304E+03  0.00000000000E+00 0. -1.
          1    1    1    2  502    0 -0.77889906760E+01 -0.26119387639E+02 -0.34691696555E+01  0.27475915353E+02  0.00000000000E+00 0.  1.
</event>
<event>
 4    1  0.3927513E+003  0.2374748E+02  0.7546771E-02  0.1483319E+00
          2   -1    0    0  502    0  0.00000000000E+00  0.00000000000E+00  0.25034262952E+03  0.25034262952E+03  0.00000000000E+00 0.  1.
          1   -1    0    0  501    0 -0.00000000000E+00 -0.00000000000E+00 -0.12020086164E+02  0.12020086164E+02  0.00000000000E+00 0.  1.
          2    1    1    2  501    0 -0.13276719264E+01  0.23710333416E+02  0.23741310573E+03  0.23859783192E+03  0.00000000000E+00 0.  1.
          1    1    1    2  502    0  0.13276719264E+01 -0.23710333416E+02  0.90943762225E+00  0.23764883762E+02  0.00000000000E+00 0.  1.
</event>
<event>
 4    1  0.3927513E+003  0.2441500E+02  0.7546771E-02  0.1475455E+00
          2   -1    0    0  502    0  0.00000000000E+00  0.00000000000E+00  0.52775602038E+02  0.52775602038E+02  0.00000000000E+00 0.  1.
          1   -1    0    0  501    0 -0.00000000000E+00 -0.00000000000E+00 -0.14615646318E+03  0.14615646318E+03  0.00000000000E+00 0.  1.
          2    1    1    2  501    0 -0.12694812356E+02  0.20855071586E+02  0.48855009591E+02  0.54615970500E+02  0.00000000000E+00 0.  1.
          1    1    1    2  502    0  0.12694812356E+02 -0.20855071586E+02 -0.14223587073E+03  0.14431609472E+03  0.00000000000E+00 0.  1.
</event>
<event>
 4    1  0.3927513E+003  0.2323701E+02  0.7546771E-02  0.1489543E+00
          2   -1    0    0  502    0  0.00000000000E+00  0.00000000000E+00  0.16826240512E+04  0.16826240512E+04  0.00000000000E+00 0.  1.
          1   -1    0    0  501    0 -0.00000000000E+00 -0.00000000000E+00 -0.32426865806E+00  0.32426865806E+00  0.00000000000E+00 0.  1.
          2    1    1    2  501    0 -0.22900285752E+02  0.39414476510E+01  0.75541413774E+03  0.75577144534E+03  0.00000000000E+00 0.  1.
          1    1    1    2  502    0  0.22900285752E+02 -0.39414476510E+01  0.92688564477E+03  0.92717687448E+03  0.00000000000E+00 0.  1.
</event>
<event>
 4    1  0.3927513E+003  0.2410504E+02  0.7546771E-02  0.1479069E+00
          2   -1    0    0  502    0  0.00000000000E+00  0.00000000000E+00  0.13627065433E+04  0.13627065433E+04  0.00000000000E+00 0.  1.
          1   -1    0    0  501    0 -0.00000000000E+00 -0.00000000000E+00 -0.85533951185E+01  0.85533951185E+01  0.00000000000E+00 0. -1.
          2    1    1    2  501    0 -0.77992570421E+01  0.22808436527E+02  0.13453983631E+04  0.13456142868E+04  0.00000000000E+00 0.  1.
          1    1    1    2  502    0  0.77992570421E+01 -0.22808436527E+02  0.87547850193E+01  0.25645651638E+02  0.00000000000E+00 0. -1.
</event>
<event>
 4    1  0.3927513E+003  0.2134638E+02  0.7546771E-02  0.1514377E+00
          2   -1    0    0  502    0  0.00000000000E+00  0.00000000000E+00  0.22547818889E+02  0.22547818889E+02  0.00000000000E+00 0. -1.
          1   -1    0    0  501    0 -0.00000000000E+00 -0.00000000000E+00 -0.13383234535E+03  0.13383234535E+03  0.00000000000E+00 0.  1.
          2    1    1    2  501    0  0.20053369201E+02  0.73164344832E+01  0.16402928102E+02  0.26920696131E+02  0.00000000000E+00 0. -1.
          1    1    1    2  502    0 -0.20053369201E+02 -0.73164344832E+01 -0.12768745456E+03  0.12945946811E+03  0.00000000000E+00 0.  1.
</event>
<event>
 4    1  0.3927513E+003  0.5159570E+02  0.7546771E-02  0.1291398E+00
          2   -1    0    0  502    0  0.00000000000E+00  0.00000000000E+00  0.62466411896E+02  0.62466411896E+02  0.00000000000E+00 0.  1.
          1   -1    0    0  501    0 -0.00000000000E+00 -0.00000000000E+00 -0.31308861641E+03  0.31308861641E+03  0.00000000000E+00 0.  1.
          2    1    1    2  501    0 -0.25020369989E+02  0.45123130860E+02  0.49219260220E+02  0.71306741824E+02  0.00000000000E+00 0.  1.
          1    1    1    2  502    0  0.25020369989E+02 -0.45123130860E+02 -0.29984146473E+03  0.30424828648E+03  0.00000000000E+00 0.  1.
</event>
<event>
 4    1  0.3927513E+003  0.2775121E+02  0.7546771E-02  0.1440205E+00
          2   -1    0    0  502    0  0.00000000000E+00  0.00000000000E+00  0.21327790969E+03  0.21327790969E+03  0.00000000000E+00 0. -1.
          1   -1    0    0  501    0 -0.00000000000E+00 -0.00000000000E+00 -0.19254822780E+03  0.19254822780E+03  0.00000000000E+00 0. -1.
          2    1    1    2  501    0 -0.22642981790E+02  0.16044471184E+02  0.21136625666E+03  0.21318026207E+03  0.00000000000E+00 0. -1.
          1    1    1    2  502    0  0.22642981790E+02 -0.16044471184E+02 -0.19063657477E+03  0.19264587542E+03  0.00000000000E+00 0. -1.
</event>
<event>
 4    1  0.3927513E+003  0.3121561E+02  0.7546771E-02  0.1409319E+00
          2   -1    0    0  502    0  0.00000000000E+00  0.00000000000E+00  0.17899428947E+04  0.17899428947E+04  0.00000000000E+00 0.  1.
          1   -1    0    0  501    0 -0.00000000000E+00 -0.00000000000E+00 -0.18599493438E+01  0.18599493438E+01  0.00000000000E+00 0.  1.
          2    1    1    2  501    0  0.25836365807E+02 -0.17518460570E+02  0.16475116469E+04  0.16478073434E+04  0.00000000000E+00 0.  1.
          1    1    1    2  502    0 -0.25836365807E+02  0.17518460570E+02  0.14057129846E+03  0.14399550065E+03  0.00000000000E+00 0.  1.
</event>
<event>
 4    1  0.3927513E+003  0.6504852E+02  0.7546771E-02  0.1243581E+00
          2   -1    0    0  502    0  0.00000000000E+00  0.00000000000E+00  0.44164103019E+02  0.44164103019E+02  0.00000000000E+00 0.  1.
          1   -1    0    0  501    0 -0.00000000000E+00 -0.00000000000E+00 -0.31708535956E+03  0.31708535956E+03  0.00000000000E+00 0. -1.
          2    1    1    2  501    0  0.13874404746E+02  0.63551641510E+02  0.14428104868E+02  0.66629426350E+02  0.00000000000E+00 0.  1.
          1    1    1    2  502    0 -0.13874404746E+02 -0.63551641510E+02 -0.28734936141E+03  0.29462003623E+03  0.00000000000E+00 0. -1.
</event>
<event>
 4    1  0.3927513E+003  0.2285794E+02  0.7546771E-02  0.1494290E+00
          2   -1    0    0  502    0  0.00000000000E+00  0.00000000000E+00  0.94936467453E+03  0.94936467453E+03  0.00000000000E+00 0.  1.
          1   -1    0    0  501    0 -0.00000000000E+00 -0.00000000000E+00 -0.68922411895E+02  0.68922411895E+02  0.00000000000E+00 0.  1.
          2    1    1    2  501    0 -0.10839470825E+02 -0.20124399495E+02  0.94732781725E+03  0.94760354522E+03  0.00000000000E+00 0.  1.
          1    1    1    2  502    0  0.10839470825E+02  0.20124399495E+02 -0.66885554607E+02  0.70683541210E+02  0.00000000000E+00 0.  1.
</event>
<event>
 4    1  0.3927513E+003  0.2612466E+02  0.7546771E-02  0.1456605E+00
          2   -1    0    0  502    0  0.00000000000E+00  0.00000000000E+00  0.14798690973E+03  0.14798690973E+03  0.00000000000E+00 0.  1.
          1   -1    0    0  501    0 -0.00000000000E+00 -0.00000000000E+00 -0.87884832993E+01  0.87884832993E+01  0.00000000000E+00 0.  1.
          2    1    1    2  501    0  0.16832436797E+01 -0.26070376423E+02  0.12363762320E+03  0.12636755796E+03  0.00000000000E+00 0.  1.
          1    1    1    2  502    0 -0.16832436797E+01  0.26070376423E+02  0.15560803236E+02  0.30407835067E+02  0.00000000000E+00 0.  1.
</event>
<event>
 4    1  0.3927513E+003  0.2114229E+02  0.7546771E-02  0.1517243E+00
          2   -1    0    0  502    0  0.00000000000E+00  0.00000000000E+00  0.10109646158E+04  0.10109646158E+04  0.00000000000E+00 0. -1.
          1   -1    0    0  501    0 -0.00000000000E+00 -0.00000000000E+00 -0.18654142064E+02  0.18654142064E+02  0.00000000000E+00 0. -1.
          2    1    1    2  501    0  0.19006527207E+02  0.92600369313E+01  0.10048269131E+04  0.10050493131E+04  0.00000000000E+00 0. -1.
          1    1    1    2  502    0 -0.19006527207E+02 -0.92600369313E+01 -0.12516439417E+02  0.24569444766E+02  0.00000000000E+00 0. -1.
</event>
<event>
 4    1  0.3927513E+003  0.4158269E+02  0.7546771E-02  0.1339453E+00
          2   -1    0    0  502    0  0.00000000000E+00  0.00000000000E+00  0.14947409584E+04  0.14947409584E+04  0.00000000000E+00 0. -1.
          1   -1    0    0  501    0 -0.00000000000E+00 -0.00000000000E+00 -0.19634713919E+01  0.19634713919E+01  0.00000000000E+00 0. -1.
          2    1    1    2  501    0  0.41536096871E+02  0.19679921656E+01  0.12260574294E+04  0.12267623814E+04  0.00000000000E+00 0. -1.
          1    1    1    2  502    0 -0.41536096871E+02 -0.19679921656E+01  0.26672005762E+03  0.26994204836E+03  0.00000000000E+00 0. -1.
</event>
<event>
 4    1  0.3927513E+003  0.4407861E+02  0.7546771E-02  0.1326111E+00
          2   -1    0    0  502    0  0.00000000000E+00  0.00000000000E+00  0.21584485590E+03  0.21584485590E+03  0.00000000000E+00 0. -1.
          1   -1    0    0  501    0 -0.00000000000E+00 -0.00000000000E+00 -0.15747197371E+03  0.15747197371E+03  0.00000000000E+00 0.  1.
          2    1    1    2  501    0 -0.37348008832E+02 -0.23410465820E+02  0.21043143113E+03  0.21499839739E+03  0.00000000000E+00 0. -1.
          1    1    1    2  502    0  0.37348008832E+02  0.23410465820E+02 -0.15205854894E+03  0.15831843222E+03  0.00000000000E+00 0.  1.
</event>
<event>
 4    1  0.3927513E+003  0.4807655E+02  0.7546771E-02  0.1306734E+00
          2   -1    0    0  502    0  0.00000000000E+00  0.00000000000E+00  0.14392150718E+04  0.14392150718E+04  0.00000000000E+00 0.  1.
          1   -1    0    0  501    0 -0.00000000000E+00 -0.00000000000E+00 -0.57410720210E+03  0.57410720210E+03  0.00000000000E+00 0.  1.
          2    1    1    2  501    0  0.57269825560E+01  0.47734224346E+02  0.14378060905E+04  0.14386096442E+04  0.00000000000E+00 0.  1.
          1    1    1    2  502    0 -0.57269825560E+01 -0.47734224346E+02 -0.57269822086E+03  0.57471262965E+03  0.00000000000E+00 0.  1.
</event>
<event>
 4    1  0.3927513E+003  0.2043041E+02  0.7546771E-02  0.1527555E+00
          2   -1    0    0  502    0  0.00000000000E+00  0.00000000000E+00  0.10768014999E+02  0.10768014999E+02  0.00000000000E+00 0.  1.
          1   -1    0    0  501    0 -0.00000000000E+00 -0.00000000000E+00 -0.57447210779E+03  0.57447210779E+03  0.00000000000E+00 0. -1.
          2    1    1    2  501    0  0.14359019985E+02  0.14533412875E+02  0.72319129254E+00  0.20443203036E+02  0.00000000000E+00 0.  1.
          1    1    1    2  502    0 -0.14359019985E+02 -0.14533412875E+02 -0.56442728408E+03  0.56479691975E+03  0.00000000000E+00 0. -1.
</event>
<event>
 4    1  0.3927513E+003  0.4227922E+02  0.7546771E-02  0.1335623E+00
          2   -1    0    0  502    0  0.00000000000E+00  0.00000000000E+00  0.14060534686E+04  0.14060534686E+04  0.00000000000E+00 0. -1.
          1   -1    0    0  501    0 -0.00000000000E+00 -0.00000000000E+00 -0.69588137596E+03  0.69588137596E+03  0.00000000000E+00 0.  1.
          2    1    1    2  501    0 -0.25330023719E+02  0.33851470337E+02  0.14050930190E+04  0.14057289655E+04  0.00000000000E+00 0. -1.
          1    1    1    2  502    0  0.25330023719E+02 -0.33851470337E+02 -0.69492092640E+03  0.69620587910E+03  0.00000000000E+00 0.  1.
</event>
<event>
 4    1  0.3927513E+003  0.2092472E+02  0.7546771E-02  0.1520342E+00
          2   -1    0    0  502    0  0.00000000000E+00  0.00000000000E+00  0.60438303812E+03  0.60438303812E+03  0.00000000000E+00 0.  1.
          1   -1    0    0  501    0 -0.00000000000E+00 -0.00000000000E+00 -0.90559974865E+01  0.90559974865E+01  0.00000000000E+00 0.  1.
          2    1    1    2  501    0  0.94798349698E+01  0.18654128721E+02  0.59185911679E+03  0.59222888980E+03  0.00000000000E+00 0.  1.
          1    1    1    2  502    0 -0.94798349698E+01 -0.18654128721E+02  0.34679238475E+01  0.21210145808E+02  0.00000000000E+00 0.  1.
</event>
<event>
 4    1  0.3927513E+003  0.8334876E+02  0.7546771E-02  0.1196280E+00
          2   -1    0    0  502    0  0.00000000000E+00  0.00000000000E+00  0.86322649619E+03  0.86322649619E+03  0.00000000000E+00 0.  1.
          1   -1    0    0  501    0 -0.00000000000E+00 -0.00000000000E+00 -0.19136184462E+02  0.19136184462E+02  0.00000000000E+00 0.  1.
          2    1    1    2  501    0  0.79523476979E+02 -0.24960494227E+02  0.86210845768E+02  0.11991380067E+03  0.00000000000E+00 0.  1.
          1    1    1    2  502    0 -0.79523476979E+02  0.24960494227E+02  0.75787946596E+03  0.76244887999E+03  0.00000000000E+00 0.  1.
</event>
<event>
 4    1  0.3927513E+003  0.2445600E+02  0.7546771E-02  0.1474982E+00
          2   -1    0    0  502    0  0.00000000000E+00  0.00000000000E+00  0.50483465304E+01  0.50483465304E+01  0.00000000000E+00 0. -1.
          1   -1    0    0  501    0 -0.00000000000E+00 -0.00000000000E+00 -0.31757149122E+03  0.31757149122E+03  0.00000000000E+00 0. -1.
          2    1    1    2  501    0 -0.93764444912E+01 -0.22587119979E+02 -0.28537232246E+02  0.37582832842E+02  0.00000000000E+00 0. -1.
          1    1    1    2  502    0  0.93764444912E+01  0.22587119979E+02 -0.28398591245E+03  0.28503700491E+03  0.00000000000E+00 0. -1.
</event>
<event>
 4    1  0.3927513E+003  0.2186133E+02  0.7546771E-02  0.1507314E+00
          2   -1    0    0  502    0  0.00000000000E+00  0.00000000000E+00  0.48577990257E+02  0.48577990257E+02  0.00000000000E+00 0.  1.
          1   -1    0    0  501    0 -0.00000000000E+00 -0.00000000000E+00 -0.16960043749E+02  0.16960043749E+02  0.00000000000E+00 0. -1.
          2    1    1    2  501    0 -0.16055062507E+02  0.14837550373E+02  0.37043737184E+02  0.43013444384E+02  0.00000000000E+00 0.  1.
          1    1    1    2  502    0  0.16055062507E+02 -0.14837550373E+02 -0.54257906766E+01  0.22524589622E+02  0.00000000000E+00 0. -1.
</event>
<event>
 4    1  0.3927513E+003  0.2394258E+02  0.7546771E-02  0.1480990E+00
          2   -1    0    0  502    0  0.00000000000E+00  0.00000000000E+00  0.29488186205E+03  0.29488186205E+03  0.00000000000E+00 0.  1.
          1   -1    0    0  501    0 -0.00000000000E+00 -0.00000000000E+00 -0.19855255354E+01  0.19855255354E+01  0.00000000000E+00 0.  1.
          2    1    1    2  501    0 -0.14282455944E+02 -0.19216087131E+02  0.12497878690E+03  0.12725149794E+03  0.00000000000E+00 0.  1.
          1    1    1    2  502    0  0.14282455944E+02  0.19216087131E+02  0.16791754962E+03  0.16961588965E+03  0.00000000000E+00 0.  1.
</event>
<event>
 4    1  0.3927513E+003  0.3000471E+02  0.7546771E-02  0.1419556E+00
          2   -1    0    0  502    0  0.00000000000E+00  0.00000000000E+00  0.36152837389E+02  0.36152837389E+02  0.00000000000E+00 0. -1.
          1   -1    0    0  501    0 -0.00000000000E+00 -0.00000000000E+00 -0.16819147527E+04  0.16819147527E+04  0.00000000000E+00 0. -1.
          2    1    1    2  501    0 -0.12774840658E+02  0.27149329186E+02  0.29769772229E+02  0.42267268278E+02  0.00000000000E+00 0. -1.
          1    1    1    2  502    0  0.12774840658E+02 -0.27149329186E+02 -0.16755316876E+04  0.16758003218E+04  0.00000000000E+00 0. -1.
</event>
<event>
 4    1  0.3927513E+003  0.2491192E+02  0.7546771E-02  0.1469791E+00
          2   -1    0    0  502    0  0.00000000000E+00  0.00000000000E+00  0.12800898090E+04  0.12800898090E+04  0.00000000000E+00 0. -1.
          1   -1    0    0  501    0 -0.00000000000E+00 -0.00000000000E+00 -0.30872599048E+01  0.30872599048E+01  0.00000000000E+00 0.  1.
          2    1    1    2  501    0  0.19647779673E+02  0.15315634207E+02  0.12275632036E+04  0.12278159564E+04  0.00000000000E+00 0. -1.
          1    1    1    2  502    0 -0.19647779673E+02 -0.15315634207E+02  0.49439345473E+02  0.55361112507E+02  0.00000000000E+00 0.  1.
</event>
<event>
 4    1  0.3927513E+003  0.5165046E+02  0.7546771E-02  0.1291171E+00
          2   -1    0    0  502    0  0.00000000000E+00  0.00000000000E+00  0.64582937873E+03  0.64582937873E+03  0.00000000000E+00 0. -1.
          1   -1    0    0  501    0 -0.00000000000E+00 -0.00000000000E+00 -0.42756726943E+01  0.42756726943E+01  0.00000000000E+00 0. -1.
          2    1    1    2  501    0  0.48088010309E+02 -0.18849742452E+02  0.38061756262E+03  0.38410610318E+03  0.00000000000E+00 0. -1.
          1    1    1    2  502    0 -0.48088010309E+02  0.18849742452E+02  0.26093614341E+03  0.26599894824E+03  0.00000000000E+00 0. -1.
</event>
<event>
 4    1  0.3927513E+003  0.2627625E+02  0.7546771E-02  0.1455017E+00
          2   -1    0    0  502    0  0.00000000000E+00  0.00000000000E+00  0.47242650882E+03  0.47242650882E+03  0.00000000000E+00 0.  1.
          1   -1    0    0  501    0 -0.00000000000E+00 -0.00000000000E+00 -0.14952677967E+01  0.14952677967E+01  0.00000000000E+00 0.  1.
          2    1    1    2  501    0 -0.13182539766E+02 -0.22730198906E+02  0.27108654922E+03  0.27235704226E+03  0.00000000000E+00 0.  1.
          1    1    1    2  502    0  0.13182539766E+02  0.22730198906E+02  0.19984469180E+03  0.20156473436E+03  0.00000000000E+00 0.  1.
</event>
<event>
 4    1  0.3927513E+003  0.2313939E+02  0.7546771E-02  0.1490755E+00
          2   -1    0    0  502    0  0.00000000000E+00  0.00000000000E+00  0.38554707757E+03  0.38554707757E+03  0.00000000000E+00 0.  1.
          1   -1    0    0  501    0 -0.00000000000E+00 -0.00000000000E+00 -0.24487908109E+01  0.24487908109E+01  0.00000000000E+00 0. -1.
          2    1    1    2  501    0  0.35777325937E+01 -0.22861125217E+02  0.31918747339E+03  0.32002511525E+03  0.00000000000E+00 0.  1.
          1    1    1    2  502    0 -0.35777325937E+01  0.22861125217E+02  0.63910813366E+02  0.67970753136E+02  0.00000000000E+00 0. -1.
</event>
<event>
 4    1  0.3927513E+003  0.3189339E+02  0.7546771E-02  0.1403826E+00
          2   -1    0    0  502    0  0.00000000000E+00  0.00000000000E+00  0.61557252420E+02  0.61557252420E+02  0.00000000000E+00 0. -1.
          1   -1    0    0  501    0 -0.00000000000E+00 -0.00000000000E+00 -0.87151782125E+02  0.87151782125E+02  0.00000000000E+00 0. -1.
          2    1    1    2  501    0 -0.40142687401E+01  0.31639752377E+02  0.54138186350E+02  0.62834158746E+02  0.00000000000E+00 0. -1.
          1    1    1    2  502    0  0.40142687401E+01 -0.31639752377E+02 -0.79732716055E+02  0.85874875799E+02  0.00000000000E+00 0. -1.
</event>
<event>
 4    1  0.3927513E+003  0.2528515E+02  0.7546771E-02  0.1465639E+00
          2   -1    0    0  502    0  0.00000000000E+00  0.00000000000E+00  0.52644371744E+03  0.52644371744E+03  0.00000000000E+00 0. -1.
          1   -1    0    0  501    0 -0.00000000000E+00 -0.00000000000E+00 -0.13587581025E+02  0.13587581025E+02  0.00000000000E+00 0.  1.
          2    1    1    2  501    0  0.23737102646E+02  0.87114029164E+01  0.51409441539E+03  0.51471585027E+03  0.00000000000E+00 0. -1.
          1    1    1    2  502    0 -0.23737102646E+02 -0.87114029164E+01 -0.12382789710E+01  0.25315448201E+02  0.00000000000E+00 0.  1.
</event>
<event>
 4    1  0.3927513E+003  0.2861232E+02  0.7546771E-02  0.1432051E+00
          2   -1    0    0  502    0  0.00000000000E+00  0.00000000000E+00  0.15537747328E+03  0.15537747328E+03  0.00000000000E+00 0. -1.
          1   -1    0    0  501    0 -0.00000000000E+00 -0.00000000000E+00 -0.26216061551E+03  0.26216061551E+03  0.00000000000E+00 0.  1.
          2    1    1    2  501    0 -0.27068826132E+02  0.92705742610E+01  0.15326891550E+03  0.15591672570E+03  0.00000000000E+00 0. -1.
          1    1    1    2  502    0  0.27068826132E+02 -0.92705742610E+01 -0.26005205772E+03  0.26162136308E+03  0.00000000000E+00 0.  1.
</event>
<event>
 4    1  0.3927513E+003  0.2650555E+02  0.7546771E-02  0.1452639E+00
          2   -1    0    0  502    0  0.00000000000E+00  0.00000000000E+00  0.26504442835E+02  0.26504442835E+02  0.00000000000E+00 0.  1.
          1   -1    0    0  501    0 -0.00000000000E+00 -0.00000000000E+00 -0.32252342087E+03  0.32252342087E+03  0.00000000000E+00 0.  1.
          2    1    1    2  501    0  0.22996855068E+02  0.13179115195E+02  0.19179480553E+02  0.32716920617E+02  0.00000000000E+00 0.  1.
          1    1    1    2  502    0 -0.22996855068E+02 -0.13179115195E+02 -0.31519845859E+03  0.31631094309E+03  0.00000000000E+00 0.  1.
</event>
<event>
 4    1  0.3927513E+003  0.2780436E+02  0.7546771E-02  0.1439691E+00
          2   -1    0    0  502    0  0.00000000000E+00  0.00000000000E+00  0.49858291953E+02  0.49858291953E+02  0.00000000000E+00 0. -1.
          1   -1    0    0  501    0 -0.00000000000E+00 -0.00000000000E+00 -0.26172318828E+02  0.26172318828E+02  0.00000000000E+00 0. -1.
          2    1    1    2  501    0  0.26220654513E+02  0.92498453564E+01  0.36112046661E+02  0.45575895781E+02  0.00000000000E+00 0. -1.
          1    1    1    2  502    0 -0.26220654513E+02 -0.92498453564E+01 -0.12426073537E+02  0.30454715000E+02  0.00000000000E+00 0. -1.
</event>
<event>
 4    1  0.3927513E+003  0.2905074E+02  0.7546771E-02  0.1428029E+00
          2   -1    0    0  502    0  0.00000000000E+00  0.00000000000E+00  0.24876791286E+03  0.24876791286E+03  0.00000000000E+00 0.  1.
          1   -1    0    0  501    0 -0.00000000000E+00 -0.00000000000E+00 -0.44626414007E+01  0.44626414007E+01  0.00000000000E+00 0.  1.
          2    1    1    2  501    0  0.63660610042E+01 -0.28344646847E+02  0.18415528034E+03  0.18643259644E+03  0.00000000000E+00 0.  1.
          1    1    1    2  502    0 -0.63660610042E+01  0.28344646847E+02  0.60149991120E+02  0.66797957823E+02  0.00000000000E+00 0.  1.
</event>
<event>
 4    1  0.3927513E+003  0.2205361E+02  0.7546771E-02  0.1504737E+00
          2   -1    0    0  502    0  0.00000000000E+00  0.00000000000E+00  0.53083578035E+01  0.53083578035E+01  0.00000000000E+00 0.  1.
          1   -1    0    0  501    0 -0.00000000000E+00 -0.00000000000E+00 -0.12721874948E+03  0.12721874948E+03  0.00000000000E+00 0. -1.
          2    1    1    2  501    0  0.20549913596E+02  0.80039105073E+01 -0.25903802809E+02  0.34020119520E+02  0.00000000000E+00 0.  1.
          1    1    1    2  502    0 -0.20549913596E+02 -0.80039105073E+01 -0.96006588872E+02  0.98506987768E+02  0.00000000000E+00 0. -1.
</event>
<event>
 4    1  0.3927513E+003  0.2223050E+02  0.7546771E-02  0.1502394E+00
          2   -1    0    0  502    0  0.00000000000E+00  0.00000000000E+00  0.91921066643E+03  0.91921066643E+03  0.00000000000E+00 0. -1.
          1   -1    0    0  501    0 -0.00000000000E+00 -0.00000000000E+00 -0.10595290301E+01  0.10595290301E+01  0.00000000000E+00 0. -1.
          2    1    1    2  501    0  0.22136184096E+01 -0.22120014474E+02  0.78201584594E+03  0.78233175728E+03  0.00000000000E+00 0. -1.
          1    1    1    2  502    0 -0.22136184096E+01  0.22120014474E+02  0.13613529146E+03  0.13793843818E+03  0.00000000000E+00 0. -1.
</event>
<event>
 4    1  0.3927513E+003  0.3551539E+02  0.7546771E-02  0.1376976E+00
          2   -1    0    0  502    0  0.00000000000E+00  0.00000000000E+00  0.79304723518E+01  0.79304723518E+01  0.00000000000E+00 0.  1.
          1   -1    0    0  501    0 -0.00000000000E+00 -0.00000000000E+00 -0.24724284707E+03  0.24724284707E+03  0.00000000000E+00 0. -1.
          2    1    1    2  501    0 -0.15981354572E+02 -0.31716547518E+02 -0.43455369980E+02  0.56122297356E+02  0.00000000000E+00 0.  1.
          1    1    1    2  502    0  0.15981354572E+02  0.31716547518E+02 -0.19585700474E+03  0.19905102207E+03  0.00000000000E+00 0. -1.
</event>
<event>
 4    1  0.3927513E+003  0.2092676E+02  0.7546771E-02  0.1520313E+00
          2   -1    0    0  502    0  0.00000000000E+00  0.00000000000E+00  0.85793331630E+02  0.85793331630E+02  0.00000000000E+00 0. -1.
          1   -1    0    0  501    0 -0.00000000000E+00 -0.00000000000E+00 -0.55956920444E+01  0.55956920444E+01  0.00000000000E+00 0. -1.
          2    1    1    2  501    0 -0.15892762346E+02 -0.13614285611E+02  0.26560016211E+02  0.33813652994E+02  0.00000000000E+00 0. -1.
          1    1    1    2  502    0  0.15892762346E+02  0.13614285611E+02  0.53637623375E+02  0.57575370680E+02  0.00000000000E+00 0. -1.
</event>
<event>
 4    1  0.3927513E+003  0.2124315E+02  0.7546771E-02  0.1515821E+00
          2   -1    0    0  502    0  0.00000000000E+00  0.00000000000E+00  0.14011374992E+04  0.14011374992E+04  0.00000000000E+00 0.  1.
          1   -1    0    0  501    0 -0.00000000000E+00 -0.00000000000E+00 -0.28773175643E+01  0.28773175643E+01  0.00000000000E+00 0.  1.
          2    1    1    2  501    0 -0.92532827750E+01 -0.19121930657E+02  0.13606818925E+04  0.13608477079E+04  0.00000000000E+00 0.  1.
          1    1    1    2  502    0  0.92532827750E+01  0.19121930657E+02  0.37578289081E+02  0.43167108826E+02  0.00000000000E+00 0.  1.
</event>
<event>
 4    1  0.3927513E+003  0.3182426E+02  0.7546771E-02  0.1404379E+00
          2   -1    0    0  502    0  0.00000000000E+00  0.00000000000E+00  0.92555870552E+02  0.92555870552E+02  0.00000000000E+00 0. -1.
          1   -1    0    0  501    0 -0.00000000000E+00 -0.00000000000E+00 -0.12228023249E+02  0.12228023249E+02  0.00000000000E+00 0. -1.
          2    1    1    2  501    0 -0.69790552209E+01 -0.31049581000E+02  0.57151939534E+02  0.65415043259E+02  0.00000000000E+00 0. -1.
          1    1    1    2  502    0  0.69790552209E+01  0.31049581000E+02  0.23175907769E+02  0.39368850542E+02  0.00000000000E+00 0. -1.
</event>
<event>
 4    1  0.3927513E+003  0.5125388E+02  0.7546771E-02  0.1292826E+00
          2   -1    0    0  502    0  0.00000000000E+00  0.00000000000E+00  0.46115805684E+02  0.46115805684E+02  0.00000000000E+00 0. -1.
          1   -1    0    0  501    0 -0.00000000000E+00 -0.00000000000E+00 -0.72043998319E+02  0.72043998319E+02  0.00000000000E+00 0. -1.
          2    1    1    2  501    0  0.16803936029E+02  0.48420944260E+02  0.14065245202E+02  0.53148765100E+02  0.00000000000E+00 0. -1.
          1    1    1    2  502    0 -0.16803936029E+02 -0.48420944260E+02 -0.39993437837E+02  0.65011038902E+02  0.00000000000E+00 0. -1.
</event>
<event>
 4    1  0.3927513E+003  0.1027205E+03  0.7546771E-02  0.1159176E+00
          2   -1    0    0  502    0  0.00000000000E+00  0.00000000000E+00  0.12124814640E+03  0.12124814640E+03  0.00000000000E+00 0.  1.
          1   -1    0    0  501    0 -0.00000000000E+00 -0.00000000000E+00 -0.12085493101E+03  0.12085493101E+03  0.00000000000E+00 0.  1.
          2    1    1    2  501    0 -0.13245682617E+02  0.10186287563E+03  0.64243103691E+02  0.12115556080E+03  0.00000000000E+00 0.  1.
          1    1    1    2  502    0  0.13245682617E+02 -0.10186287563E+03 -0.63849888295E+02  0.12094751661E+03  0.00000000000E+00 0.  1.
</event>
<event>
 4    1  0.3927513E+003  0.3258627E+02  0.7546771E-02  0.1398376E+00
          2   -1    0    0  502    0  0.00000000000E+00  0.00000000000E+00  0.37322610076E+03  0.37322610076E+03  0.00000000000E+00 0. -1.
          1   -1    0    0  501    0 -0.00000000000E+00 -0.00000000000E+00 -0.18655373331E+03  0.18655373331E+03  0.00000000000E+00 0.  1.
          2    1    1    2  501    0 -0.32586239582E+02  0.43109295524E-01  0.37108362486E+03  0.37251163943E+03  0.00000000000E+00 0. -1.
          1    1    1    2  502    0  0.32586239582E+02 -0.43109295524E-01 -0.18441125741E+03  0.18726819465E+03  0.00000000000E+00 0.  1.
</event>
<event>
 4    1  0.3927513E+003  0.1219777E+03  0.7546771E-02  0.1130384E+00
          2   -1    0    0  502    0  0.00000000000E+00  0.00000000000E+00  0.19986972170E+04  0.19986972170E+04  0.00000000000E+00 0. -1.
          1   -1    0    0  501    0 -0.00000000000E+00 -0.00000000000E+00 -0.51236540958E+02  0.51236540958E+02  0.00000000000E+00 0.  1.
          2    1    1    2  501    0 -0.11363634919E+02 -0.12144722972E+03  0.19213179155E+04  0.19251859895E+04  0.00000000000E+00 0. -1.
          1    1    1    2  502    0  0.11363634919E+02  0.12144722972E+03  0.26142760550E+02  0.12474776845E+03  0.00000000000E+00 0.  1.
</event>
<event>
 4    1  0.3927513E+003  0.2097154E+02  0.7546771E-02  0.1519672E+00
          2   -1    0    0  502    0  0.00000000000E+00  0.00000000000E+00  0.33979507376E+03  0.33979507376E+03  0.00000000000E+00 0.  1.
          1   -1    0    0  501    0 -0.00000000000E+00 -0.00000000000E+00 -0.10522471184E+02  0.10522471184E+02  0.00000000000E+00 0.  1.
          2    1    1    2  501    0  0.11503967570E+02  0.17534654918E+02  0.32866892969E+03  0.32933732059E+03  0.00000000000E+00 0.  1.
          1    1    1    2  502    0 -0.11503967570E+02 -0.17534654918E+02  0.60367288951E+00  0.20980224353E+02  0.00000000000E+00 0.  1.
</event>
<event>
 4    1  0.3927513E+003  0.2334472E+02  0.7546771E-02  0.1488214E+00
          2   -1    0    0  502    0  0.00000000000E+00  0.00000000000E+00  0.19702739315E+02  0.19702739315E+02  0.00000000000E+00 0.  1.
          1   -1    0    0  501    0 -0.00000000000E+00 -0.00000000000E+00 -0.34314856812E+02  0.34314856812E+02  0.00000000000E+00 0. -1.
          2    1    1    2  501    0 -0.48236573051E+01  0.22840936241E+02  0.45881727565E+01  0.23791329669E+02  0.00000000000E+00 0.  1.
          1    1    1    2  502    0  0.48236573051E+01 -0.22840936241E+02 -0.19200290253E+02  0.30226266458E+02  0.00000000000E+00 0. -1.
</event>
<event>
 4    1  0.3927513E+003  0.2217810E+02  0.7546771E-02  0.1503085E+00
          2   -1    0    0  502    0  0.00000000000E+00  0.00000000000E+00  0.29522557900E+03  0.29522557900E+03  0.00000000000E+00 0.  1.
          1   -1    0    0  501    0 -0.00000000000E+00 -0.00000000000E+00 -0.13598091737E+03  0.13598091737E+03  0.00000000000E+00 0.  1.
          2    1    1    2  501    0 -0.22159252485E+02  0.91412416694E+00  0.29390069324E+03  0.29473629837E+03  0.00000000000E+00 0.  1.
          1    1    1    2  502    0  0.22159252485E+02 -0.91412416694E+00 -0.13465603160E+03  0.13647019799E+03  0.00000000000E+00 0.  1.
</event>
<event>
 4    1  0.3927513E+003  0.2063924E+02  0.7546771E-02  0.1524478E+00
          2   -1    0    0  502    0  0.00000000000E+00  0.00000000000E+00  0.18436856103E+03  0.18436856103E+03  0.00000000000E+00 0.  1.
          1   -1    0    0  501    0 -0.00000000000E+00 -0.00000000000E+00 -0.25746906502E+03  0.25746906502E+03  0.00000000000E+00 0.  1.
          2    1    1    2  501    0  0.17121983404E+02  0.11524572005E+02  0.18337508901E+03  0.18453292754E+03  0.00000000000E+00 0.  1.
          1    1    1    2  502    0 -0.17121983404E+02 -0.11524572005E+02 -0.25647559299E+03  0.25730469851E+03  0.00000000000E+00 0.  1.
</event>
<event>
 4    1  0.3927513E+003  0.2406913E+02  0.7546771E-02  0.1479492E+00
          2   -1    0    0  502    0  0.00000000000E+00  0.00000000000E+00  0.82184689371E+01  0.82184689371E+01  0.00000000000E+00 0. -1.
          1   -1    0    0  501    0 -0.00000000000E+00 -0.00000000000E+00 -0.24888213654E+03  0.24888213654E+03  0.00000000000E+00 0. -1.
          2    1    1    2  501    0  0.18482179736E+02 -0.15418565621E+02 -0.11498079319E+02  0.26674500214E+02  0.00000000000E+00 0. -1.
          1    1    1    2  502    0 -0.18482179736E+02  0.15418565621E+02 -0.22916558828E+03  0.23042610526E+03  0.00000000000E+00 0. -1.
</event>
<event>
 4    1  0.3927513E+003  0.2230796E+02  0.7546771E-02  0.1501376E+00
          2   -1    0    0  502    0  0.00000000000E+00  0.00000000000E+00  0.11002030755E+04  0.11002030755E+04  0.00000000000E+00 0. -1.
          1   -1    0    0  501    0 -0.00000000000E+00 -0.00000000000E+00 -0.19237799320E+01  0.19237799320E+01  0.00000000000E+00 0.  1.
          2    1    1    2  501    0  0.15419605589E+02  0.16120814084E+02  0.10310852001E+04  0.10313264928E+04  0.00000000000E+00 0. -1.
          1    1    1    2  502    0 -0.15419605589E+02 -0.16120814084E+02  0.67194095469E+02  0.70800362634E+02  0.00000000000E+00 0.  1.
</event>
<event>
 4    1  0.3927513E+003  0.3080842E+02  0.7546771E-02  0.1412699E+00
          2   -1    0    0  502    0  0.00000000000E+00  0.00000000000E+00  0.65983277959E+02  0.65983277959E+02  0.00000000000E+00 0.  1.
          1   -1    0    0  501    0 -0.00000000000E+00 -0.00000000000E+00 -0.39996865894E+02  0.39996865894E+02  0.00000000000E+00 0.  1.
          2    1    1    2  501    0  0.37363908798E+01  0.30581012950E+02  0.55396879810E+02  0.63387485062E+02  0.00000000000E+00 0.  1.
          1    1    1    2  502    0 -0.37363908798E+01 -0.30581012950E+02 -0.29410467745E+02  0.42592658790E+02  0.00000000000E+00 0.  1.
</event>
<event>
 4    1  0.3927513E+003  0.2255487E+02  0.7546771E-02  0.1498165E+00
          2   -1    0    0  502    0  0.00000000000E+00  0.00000000000E+00  0.16639083375E+02  0.16639083375E+02  0.00000000000E+00 0. -1.
          1   -1    0    0  501    0 -0.00000000000E+00 -0.00000000000E+00 -0.26427857158E+03  0.26427857158E+03  0.00000000000E+00 0.  1.
          2    1    1    2  501    0  0.22552465028E+02  0.32928405026E+00  0.82647191853E+01  0.24021400667E+02  0.00000000000E+00 0. -1.
          1    1    1    2  502    0 -0.22552465028E+02 -0.32928405026E+00 -0.25590420739E+03  0.25689625428E+03  0.00000000000E+00 0.  1.
</event>
<event>
 4    1  0.3927513E+003  0.2823436E+02  0.7546771E-02  0.1435588E+00
          2   -1    0    0  502    0  0.00000000000E+00  0.00000000000E+00  0.21319116609E+03  0.21319116609E+03  0.00000000000E+00 0. -1.
          1   -1    0    0  501    0 -0.00000000000E+00 -0.00000000000E+00 -0.46019047247E+02  0.46019047247E+02  0.00000000000E+00 0. -1.
          2    1    1    2  501    0  0.25671618526E+01  0.28117414657E+02  0.20781410356E+03  0.20972334388E+03  0.00000000000E+00 0. -1.
          1    1    1    2  502    0 -0.25671618526E+01 -0.28117414657E+02 -0.40641984720E+02  0.49486869460E+02  0.00000000000E+00 0. -1.
</event>
<event>
 4    1  0.3927513E+003  0.2427657E+02  0.7546771E-02  0.1477061E+00
          2   -1    0    0  502    0  0.00000000000E+00  0.00000000000E+00  0.27138166336E+03  0.27138166336E+03  0.00000000000E+00 0.  1.
          1   -1    0    0  501    0 -0.00000000000E+00 -0.00000000000E+00 -0.21485172124E+02  0.21485172124E+02  0.00000000000E+00 0.  1.
          2    1    1    2  501    0 -0.17820497062E+02  0.16485809396E+02  0.26378398286E+03  0.26489873847E+03  0.00000000000E+00 0.  1.
          1    1    1    2  502    0  0.17820497062E+02 -0.16485809396E+02 -0.13887491627E+02  0.27968097015E+02  0.00000000000E+00 0.  1.
</event>
<event>
 4    1  0.3927513E+003  0.3018501E+02  0.7546771E-02  0.1417995E+00
          2   -1    0    0  502    0  0.00000000000E+00  0.00000000000E+00  0.20684721328E+03  0.20684721328E+03  0.00000000000E+00 0.  1.
          1   -1    0    0  501    0 -0.00000000000E+00 -0.00000000000E+00 -0.50213505438E+01  0.50213505438E+01  0.00000000000E+00 0.  1.
          2    1    1    2  501    0 -0.12983496926E+01  0.30157078683E+02  0.13803104578E+03  0.14129297472E+03  0.00000000000E+00 0.  1.
          1    1    1    2  502    0  0.12983496926E+01 -0.30157078683E+02  0.63794816956E+02  0.70575589101E+02  0.00000000000E+00 0.  1.
</event>
<event>
 4    1  0.3927513E+003  0.2133299E+02  0.7546771E-02  0.1514563E+00
          2   -1    0    0  502    0  0.00000000000E+00  0.00000000000E+00  0.80538194087E+03  0.80538194087E+03  0.00000000000E+00 0.  1.
          1   -1    0    0  501    0 -0.00000000000E+00 -0.00000000000E+00 -0.91781285770E+01  0.91781285770E+01  0.00000000000E+00 0. -1.
          2    1    1    2  501    0 -0.87925109298E+01  0.19436771968E+02  0.79264530216E+03  0.79293232460E+03  0.00000000000E+00 0.  1.
          1    1    1    2  502    0  0.87925109298E+01 -0.19436771968E+02  0.35585101334E+01  0.21627744851E+02  0.00000000000E+00 0. -1.
</event>
<event>
 4    1  0.3927513E+003  0.2629160E+02  0.7546771E-02  0.1454857E+00
          2   -1    0    0  502    0  0.00000000000E+00  0.00000000000E+00  0.30482612694E+01  0.30482612694E+01  0.00000000000E+00 0.  1.
          1   -1    0    0  501    0 -0.00000000000E+00 -0.00000000000E+00 -0.19838286550E+04  0.19838286550E+04  0.00000000000E+00 0. -1.
          2    1    1    2  501    0 -0.13733714837E+02  0.22419480076E+02 -0.55453363191E+02  0.61370379657E+02  0.00000000000E+00 0.  1.
          1    1    1    2  502    0  0.13733714837E+02 -0.22419480076E+02 -0.19253270305E+04  0.19255065366E+04  0.00000000000E+00 0. -1.
</event>
<event>
 4    1  0.3927513E+003  0.2466234E+02  0.7546771E-02  0.1472616E+00
          2   -1    0    0  502    0  0.00000000000E+00  0.00000000000E+00  0.20147646926E+02  0.20147646926E+02  0.00000000000E+00 0.  1.
          1   -1    0    0  501    0 -0.00000000000E+00 -0.00000000000E+00 -0.94070364302E+02  0.94070364302E+02  0.00000000000E+00 0. -1.
          2    1    1    2  501    0  0.14005593729E+02 -0.20299615580E+02  0.10100202884E+02  0.26650424888E+02  0.00000000000E+00 0.  1.
          1    1    1    2  502    0 -0.14005593729E+02  0.20299615580E+02 -0.84022920260E+02  0.87567586340E+02  0.00000000000E+00 0. -1.
</event>
<event>
 4    1  0.3927513E+003  0.2538648E+02  0.7546771E-02  0.1464526E+00
          2   -1    0    0  502    0  0.00000000000E+00  0.00000000000E+00  0.15786875629E+01  0.15786875629E+01  0.00000000000E+00 0. -1.
          1   -1    0    0  501    0 -0.00000000000E+00 -0.00000000000E+00 -0.11692555255E+04  0.11692555255E+04  0.00000000000E+00 0.  1.
          2    1    1    2  501    0  0.22317640701E+02  0.12099438392E+02 -0.11154788206E+03  0.11440019007E+03  0.00000000000E+00 0. -1.
          1    1    1    2  502    0 -0.22317640701E+02 -0.12099438392E+02 -0.10561289559E+04  0.10564340230E+04  0.00000000000E+00 0.  1.
</event>
<event>
 4    1  0.3927513E+003  0.2537504E+02  0.7546771E-02  0.1464651E+00
          2   -1    0    0  502    0  0.00000000000E+00  0.00000000000E+00  0.87173223873E+03  0.87173223873E+03  0.00000000000E+00 0. -1.
          1   -1    0    0  501    0 -0.00000000000E+00 -0.00000000000E+00 -0.11589062079E+03  0.11589062079E+03  0.00000000000E+00 0.  1.
          2    1    1    2  501    0 -0.23654269775E+02 -0.91852038560E+01  0.87015605537E+03  0.87052596351E+03  0.00000000000E+00 0. -1.
          1    1    1    2  502    0  0.23654269775E+02  0.91852038560E+01 -0.11431443744E+03  0.11709689601E+03  0.00000000000E+00 0.  1.
</event>
<event>
 4    1  0.3927513E+003  0.2117303E+02  0.7546771E-02  0.1516809E+00
          2   -1    0    0  502    0  0.00000000000E+00  0.00000000000E+00  0.47497841969E+03  0.47497841969E+03  0.00000000000E+00 0.  1.
          1   -1    0    0  501    0 -0.00000000000E+00 -0.00000000000E+00 -0.34272348138E+01  0.34272348138E+01  0.00000000000E+00 0. -1.
          2    1    1    2  501    0  0.16276680682E+02 -0.13541306315E+02  0.43939465171E+03  0.43990448652E+03  0.00000000000E+00 0.  1.
          1    1    1    2  502    0 -0.16276680682E+02  0.13541306315E+02  0.32156533167E+02  0.38501167983E+02  0.00000000000E+00 0. -1.
</event>
<event>
 4    1  0.3927513E+003  0.2081533E+02  0.7546771E-02  0.1521918E+00
          2   -1    0    0  502    0  0.00000000000E+00  0.00000000000E+00  0.14424459949E+04  0.14424459949E+04  0.00000000000E+00 0. -1.
          1   -1    0    0  501    0 -0.00000000000E+00 -0.00000000000E+00 -0.79468464506E+01  0.79468464506E+01  0.00000000000E+00 0.  1.
          2    1    1    2  501    0 -0.18257807363E+02  0.99965143381E+01  0.14286083858E+04  0.14287600211E+04  0.00000000000E+00 0. -1.
          1    1    1    2  502    0  0.18257807363E+02 -0.99965143381E+01  0.58907626464E+01  0.21632820278E+02  0.00000000000E+00 0.  1.
</event>
<event>
 4    1  0.3927513E+003  0.2920196E+02  0.7546771E-02  0.1426660E+00
          2   -1    0    0  502    0  0.00000000000E+00  0.00000000000E+00  0.12579987426E+02  0.12579987426E+02  0.00000000000E+00 0.  1.
          1   -1    0    0  501    0 -0.00000000000E+00 -0.00000000000E+00 -0.66169421064E+03  0.66169421064E+03  0.00000000000E+00 0.  1.
          2    1    1    2  501    0  0.13240492555E+01 -0.29171927688E+02 -0.51553358009E+01  0.29653531977E+02  0.00000000000E+00 0.  1.
          1    1    1    2  502    0 -0.13240492555E+01  0.29171927688E+02 -0.64395888742E+03  0.64462066609E+03  0.00000000000E+00 0.  1.
</event>
<event>
 4    1  0.3927513E+003  0.2140609E+02  0.7546771E-02  0.1513545E+00
          2   -1    0    0  502    0  0.00000000000E+00  0.00000000000E+00  0.90123190431E+02  0.90123190431E+02  0.00000000000E+00 0. -1.
          1   -1    0    0  501    0 -0.00000000000E+00 -0.00000000000E+00 -0.15919051531E+03  0.15919051531E+03  0.00000000000E+00 0.  1.
          2    1    1    2  501    0 -0.14985579044E+02  0.15285709657E+02  0.88116331040E+02  0.90679150277E+02  0.00000000000E+00 0. -1.
          1    1    1    2  502    0  0.14985579044E+02 -0.15285709657E+02 -0.15718365592E+03  0.15863455547E+03  0.00000000000E+00 0.  1.
</event>
<event>
 4    1  0.3927513E+003  0.2340388E+02  0.7546771E-02  0.1487488E+00
          2   -1    0    0  502    0  0.00000000000E+00  0.00000000000E+00  0.55006303954E+03  0.55006303954E+03  0.00000000000E+00 0. -1.
          1   -1    0    0  501    0 -0.00000000000E+00 -0.00000000000E+00 -0.27205634882E+01  0.27205634882E+01  0.00000000000E+00 0. -1.
          2    1    1    2  501    0  0.37722554598E+01 -0.23097871367E+02  0.49374236267E+03  0.49429673503E+03  0.00000000000E+00 0. -1.
          1    1    1    2  502    0 -0.37722554598E+01  0.23097871367E+02  0.53600113385E+02  0.58486867995E+02  0.00000000000E+00 0. -1.
</event>
<event>
 4    1  0.3927513E+003  0.2993531E+02  0.7546771E-02  0.1420160E+00
          2   -1    0    0  502    0  0.00000000000E+00  0.00000000000E+00  0.44747215314E+03  0.44747215314E+03  0.00000000000E+00 0. -1.
          1   -1    0    0  501    0 -0.00000000000E+00 -0.00000000000E+00 -0.32837684452E+02  0.32837684452E+02  0.00000000000E+00 0.  1.
          2    1    1    2  501    0 -0.28425540686E+02  0.93867709455E+01  0.44003393821E+03  0.44105100567E+03  0.00000000000E+00 0. -1.
          1    1    1    2  502    0  0.28425540686E+02 -0.93867709455E+01 -0.25399469516E+02  0.39258831921E+02  0.00000000000E+00 0.  1.
</event>
<event>
 4    1  0.3927513E+003  0.2004808E+02  0.7546771E-02  0.1533302E+00
          2   -1    0    0  502    0  0.00000000000E+00  0.00000000000E+00  0.34700409448E+01  0.34700409448E+01  0.00000000000E+00 0. -1.
          1   -1    0    0  501    0 -0.00000000000E+00 -0.00000000000E+00 -0.11209201640E+04  0.11209201640E+04  0.00000000000E+00 0. -1.
          2    1    1    2  501    0 -0.14284574520E+02 -0.14066860361E+02 -0.26368266009E+02  0.33124176699E+02  0.00000000000E+00 0. -1.
          1    1    1    2  502    0  0.14284574520E+02  0.14066860361E+02 -0.10910818570E+04  0.10912660282E+04  0.00000000000E+00 0. -1.
</event>
<event>
 4    1  0.3927513E+003  0.3002269E+02  0.7546771E-02  0.1419399E+00
          2   -1    0    0  502    0  0.00000000000E+00  0.00000000000E+00  0.15641100729E+03  0.15641100729E+03  0.00000000000E+00 0.  1.
          1   -1    0    0  501    0 -0.00000000000E+00 -0.00000000000E+00 -0.34916310690E+03  0.34916310690E+03  0.00000000000E+00 0. -1.
          2    1    1    2  501    0  0.15015184852E+02 -0.25998189607E+02  0.15431626115E+03  0.15720963741E+03  0.00000000000E+00 0.  1.
          1    1    1    2  502    0 -0.15015184852E+02  0.25998189607E+02 -0.34706836076E+03  0.34836447678E+03  0.00000000000E+00 0. -1.
</event>
<event>
 4    1  0.3927513E+003  0.6318098E+02  0.7546771E-02  0.1249391E+00
          2   -1    0    0  502    0  0.00000000000E+00  0.00000000000E+00  0.10852959404E+03  0.10852959404E+03  0.00000000000E+00 0. -1.
          1   -1    0    0  501    0 -0.00000000000E+00 -0.00000000000E+00 -0.41276505566E+02  0.41276505566E+02  0.00000000000E+00 0. -1.
          2    1    1    2  501    0  0.28103513940E+02  0.56586439946E+02  0.89073232596E+01  0.63805744954E+02  0.00000000000E+00 0. -1.
          1    1    1    2  502    0 -0.28103513940E+02 -0.56586439946E+02  0.58345765210E+02  0.86000354647E+02  0.00000000000E+00 0. -1.
</event>
<event>
 4    1  0.3927513E+003  0.4254498E+02  0.7546771E-02  0.1334185E+00
          2   -1    0    0  502    0  0.00000000000E+00  0.00000000000E+00  0.63400442401E+02  0.63400442401E+02  0.00000000000E+00 0. -1.
          1   -1    0    0  501    0 -0.00000000000E+00 -0.00000000000E+00 -0.76165405004E+02  0.76165405004E+02  0.00000000000E+00 0.  1.
          2    1    1    2  501    0  0.13388657094E+02  0.40383397343E+02  0.48792802955E+02  0.64736485385E+02  0.00000000000E+00 0. -1.
          1    1    1    2  502    0 -0.13388657094E+02 -0.40383397343E+02 -0.61557765559E+02  0.74829362020E+02  0.00000000000E+00 0.  1.
</event>
<event>
 4    1  0.3927513E+003  0.2851221E+02  0.7546771E-02  0.1432982E+00
          2   -1    0    0  502    0  0.00000000000E+00  0.00000000000E+00  0.65577136312E+03  0.65577136312E+03  0.00000000000E+00 0. -1.
          1   -1    0    0  501    0 -0.00000000000E+00 -0.00000000000E+00 -0.20218934233E+01  0.20218934233E+01  0.00000000000E+00 0. -1.
          2    1    1    2  501    0  0.21316552301E+02  0.18935429501E+02  0.53144534554E+03  0.53220964026E+03  0.00000000000E+00 0. -1.
          1    1    1    2  502    0 -0.21316552301E+02 -0.18935429501E+02  0.12230412416E+03  0.12558361628E+03  0.00000000000E+00 0. -1.
</event>
<event>
 4    1  0.3927513E+003  0.2047100E+02  0.7546771E-02  0.1526953E+00
          2   -1    0    0  502    0  0.00000000000E+00  0.00000000000E+00  0.76476276771E+01  0.76476276771E+01  0.00000000000E+00 0. -1.
          1   -1    0    0  501    0 -0.00000000000E+00 -0.00000000000E+00 -0.23206211375E+03  0.23206211375E+03  0.00000000000E+00 0. -1.
          2    1    1    2  501    0 -0.39698668285E+01  0.20082383016E+02 -0.74543513958E+01  0.21785988731E+02  0.00000000000E+00 0. -1.
          1    1    1    2  502    0  0.39698668285E+01 -0.20082383016E+02 -0.21696013468E+03  0.21792375270E+03  0.00000000000E+00 0. -1.
</event>
<event>
 4    1  0.3927513E+003  0.3638293E+02  0.7546771E-02  0.1371093E+00
          2   -1    0    0  502    0  0.00000000000E+00  0.00000000000E+00  0.59257199742E+02  0.59257199742E+02  0.00000000000E+00 0. -1.
          1   -1    0    0  501    0 -0.00000000000E+00 -0.00000000000E+00 -0.75942952547E+02  0.75942952547E+02  0.00000000000E+00 0. -1.
          2    1    1    2  501    0 -0.28336771228E+02 -0.22819831082E+02  0.48451306484E+02  0.60590811138E+02  0.00000000000E+00 0. -1.
          1    1    1    2  502    0  0.28336771228E+02  0.22819831082E+02 -0.65137059289E+02  0.74609341152E+02  0.00000000000E+00 0. -1.
</event>
<event>
 4    1  0.3927513E+003  0.3860466E+02  0.7546771E-02  0.1356862E+00
          2   -1    0    0  502    0  0.00000000000E+00  0.00000000000E+00  0.56519436015E+01  0.56519436015E+01  0.00000000000E+00 0.  1.
          1   -1    0    0  501    0 -0.00000000000E+00 -0.00000000000E+00 -0.32702020105E+03  0.32702020105E+03  0.00000000000E+00 0. -1.
          2    1    1    2  501    0 -0.38600883034E+02 -0.53971775459E+00 -0.87480976027E+02  0.95620294043E+02  0.00000000000E+00 0.  1.
          1    1    1    2  502    0  0.38600883034E+02  0.53971775459E+00 -0.23388728142E+03  0.23705185061E+03  0.00000000000E+00 0. -1.
</event>
<event>
 4    1  0.3927513E+003  0.2017375E+02  0.7546771E-02  0.1531396E+00
          2   -1    0    0  502    0  0.00000000000E+00  0.00000000000E+00  0.70835065211E+01  0.70835065211E+01  0.00000000000E+00 0.  1.
          1   -1    0    0  501    0 -0.00000000000E+00 -0.00000000000E+00 -0.23996726498E+03  0.23996726498E+03  0.00000000000E+00 0.  1.
          2    1    1    2  501    0  0.16994001020E+02 -0.10871246554E+02 -0.87143461543E+01  0.21975438589E+02  0.00000000000E+00 0.  1.
          1    1    1    2  502    0 -0.16994001020E+02  0.10871246554E+02 -0.22416941230E+03  0.22507533291E+03  0.00000000000E+00 0.  1.
</event>
<event>
 4    1  0.3927513E+003  0.2285053E+02  0.7546771E-02  0.1494384E+00
          2   -1    0    0  502    0  0.00000000000E+00  0.00000000000E+00  0.13381242988E+04  0.13381242988E+04  0.00000000000E+00 0.  1.
          1   -1    0    0  501    0 -0.00000000000E+00 -0.00000000000E+00 -0.68801831274E+00  0.68801831274E+00  0.00000000000E+00 0.  1.
          2    1    1    2  501    0 -0.24473028625E+01 -0.22719095293E+02  0.11091306973E+04  0.11093660578E+04  0.00000000000E+00 0.  1.
          1    1    1    2  502    0  0.24473028625E+01  0.22719095293E+02  0.22830558317E+03  0.22944625926E+03  0.00000000000E+00 0.  1.
</event>
<event>
 4    1  0.3927513E+003  0.2012999E+02  0.7546771E-02  0.1532058E+00
          2   -1    0    0  502    0  0.00000000000E+00  0.00000000000E+00  0.10662368516E+04  0.10662368516E+04  0.00000000000E+00 0. -1.
          1   -1    0    0  501    0 -0.00000000000E+00 -0.00000000000E+00 -0.38004347787E+00  0.38004347787E+00  0.00000000000E+00 0. -1.
          2    1    1    2  501    0 -0.87756874451E+01 -0.18116391964E+02  0.53302546752E+03  0.53340544183E+03  0.00000000000E+00 0. -1.
          1    1    1    2  502    0  0.87756874451E+01  0.18116391964E+02  0.53283134065E+03  0.53321145329E+03  0.00000000000E+00 0. -1.
</event>
<event>
 4    1  0.3927513E+003  0.2774370E+02  0.7546771E-02  0.1440277E+00
          2   -1    0    0  502    0  0.00000000000E+00  0.00000000000E+00  0.18257144724E+03  0.18257144724E+03  0.00000000000E+00 0. -1.
          1   -1    0    0  501    0 -0.00000000000E+00 -0.00000000000E+00 -0.49652803281E+01  0.49652803281E+01  0.00000000000E+00 0. -1.
          2    1    1    2  501    0 -0.23805370737E+02 -0.14248408767E+02  0.12522979272E+03  0.12826618344E+03  0.00000000000E+00 0. -1.
          1    1    1    2  502    0  0.23805370737E+02  0.14248408767E+02  0.52376374193E+02  0.59270544134E+02  0.00000000000E+00 0. -1.
</event>
<event>
 4    1  0.3927513E+003  0.2539716E+02  0.7546771E-02  0.1464409E+00
          2   -1    0    0  502    0  0.00000000000E+00  0.00000000000E+00  0.96442350472E+02  0.96442350472E+02  0.00000000000E+00 0.  1.
          1   -1    0    0  501    0 -0.00000000000E+00 -0.00000000000E+00 -0.32319090163E+03  0.32319090163E+03  0.00000000000E+00 0.  1.
          2    1    1    2  501    0  0.53758860461E+01 -0.24821671989E+02  0.94260034497E+02  0.97621563471E+02  0.00000000000E+00 0.  1.
          1    1    1    2  502    0 -0.53758860461E+01  0.24821671989E+02 -0.32100858565E+03  0.32201168863E+03  0.00000000000E+00 0.  1.
</event>
<event>
 4    1  0.3927513E+003  0.4424170E+02  0.7546771E-02  0.1325275E+00
          2   -1    0    0  502    0  0.00000000000E+00  0.00000000000E+00  0.59003116217E+03  0.59003116217E+03  0.00000000000E+00 0.  1.
          1   -1    0    0  501    0 -0.00000000000E+00 -0.00000000000E+00 -0.13956297424E+02  0.13956297424E+02  0.00000000000E+00 0.  1.
          2    1    1    2  501    0 -0.22998817190E+02  0.37793950255E+02  0.55170854434E+03  0.55347958063E+03  0.00000000000E+00 0.  1.
          1    1    1    2  502    0  0.22998817190E+02 -0.37793950255E+02  0.24366320402E+02  0.50507878969E+02  0.00000000000E+00 0.  1.
</event>
<event>
 4    1  0.3927513E+003  0.2577299E+02  0.7546771E-02  0.1460339E+00
          2   -1    0    0  502    0  0.00000000000E+00  0.00000000000E+00  0.41480475271E+03  0.41480475271E+03  0.00000000000E+00 0. -1.
          1   -1    0    0  501    0 -0.00000000000E+00 -0.00000000000E+00 -0.10951954309E+02  0.10951954309E+02  0.00000000000E+00 0. -1.
          2    1    1    2  501    0  0.25461508800E+02  0.39947961811E+01  0.39862694877E+03  0.39945924837E+03  0.00000000000E+00 0. -1.
          1    1    1    2  502    0 -0.25461508800E+02 -0.39947961811E+01  0.52258496339E+01  0.26297458647E+02  0.00000000000E+00 0. -1.
</event>
<event>
 4    1  0.3927513E+003  0.2462734E+02  0.7546771E-02  0.1473016E+00
          2   -1    0    0  502    0  0.00000000000E+00  0.00000000000E+00  0.10853148044E+02  0.10853148044E+02  0.00000000000E+00 0. -1.
          1   -1    0    0  501    0 -0.00000000000E+00 -0.00000000000E+00 -0.87320551446E+02  0.87320551446E+02  0.00000000000E+00 0.  1.
          2    1    1    2  501    0  0.99158701453E+01  0.22542882981E+02 -0.87805652680E+01  0.26145829118E+02  0.00000000000E+00 0. -1.
          1    1    1    2  502    0 -0.99158701453E+01 -0.22542882981E+02 -0.67686838134E+02  0.72027870373E+02  0.00000000000E+00 0.  1.
</event>
<event>
 4    1  0.3927513E+003  0.3638052E+02  0.7546771E-02  0.1371109E+00
          2   -1    0    0  502    0  0.00000000000E+00  0.00000000000E+00  0.23736115740E+03  0.23736115740E+03  0.00000000000E+00 0.  1.
          1   -1    0    0  501    0 -0.00000000000E+00 -0.00000000000E+00 -0.27931950782E+02  0.27931950782E+02  0.00000000000E+00 0. -1.
          2    1    1    2  501    0 -0.35773495997E+02  0.66180779372E+01  0.22338468722E+03  0.22632777217E+03  0.00000000000E+00 0.  1.
          1    1    1    2  502    0  0.35773495997E+02 -0.66180779372E+01 -0.13955480604E+02  0.38965336009E+02  0.00000000000E+00 0. -1.
</event>
<event>
 4    1  0.3927513E+003  0.2207875E+02  0.7546771E-02  0.1504402E+00
          2   -1    0    0  502    0  0.00000000000E+00  0.00000000000E+00  0.71965400893E+01  0.71965400893E+01  0.00000000000E+00 0. -1.
          1   -1    0    0  501    0 -0.00000000000E+00 -0.00000000000E+00 -0.28020796333E+03  0.28020796333E+03  0.00000000000E+00 0.  1.
          2    1    1    2  501    0  0.12014359183E+02 -0.18523674072E+02 -0.11372315756E+02  0.24835476508E+02  0.00000000000E+00 0. -1.
          1    1    1    2  502    0 -0.12014359183E+02  0.18523674072E+02 -0.26163910748E+03  0.26256902691E+03  0.00000000000E+00 0.  1.
</event>
<event>
 4    1  0.3927513E+003  0.5211966E+02  0.7546771E-02  0.1289235E+00
          2   -1    0    0  502    0  0.00000000000E+00  0.00000000000E+00  0.13748862843E+03  0.13748862843E+03  0.00000000000E+00 0.  1.
          1   -1    0    0  501    0 -0.00000000000E+00 -0.00000000000E+00 -0.39077212132E+02  0.39077212132E+02  0.00000000000E+00 0.  1.
          2    1    1    2  501    0 -0.19254299817E+02  0.48432741058E+02  0.11128017977E+03  0.12288098664E+03  0.00000000000E+00 0.  1.
          1    1    1    2  502    0  0.19254299817E+02 -0.48432741058E+02 -0.12868763470E+02  0.53684853926E+02  0.00000000000E+00 0.  1.
</event>
<event>
 4    1  0.3927513E+003  0.5240866E+02  0.7546771E-02  0.1288054E+00
          2   -1    0    0  502    0  0.00000000000E+00  0.00000000000E+00  0.22506199038E+02  0.22506199038E+02  0.00000000000E+00 0.  1.
          1   -1    0    0  501    0 -0.00000000000E+00 -0.00000000000E+00 -0.21009606568E+03  0.21009606568E+03  0.00000000000E+00 0. -1.
          2    1    1    2  501    0 -0.51620446232E+02  0.90552577105E+01 -0.18502150727E+02  0.55578752621E+02  0.00000000000E+00 0.  1.
          1    1    1    2  502    0  0.51620446232E+02 -0.90552577105E+01 -0.16908771592E+03  0.17702351210E+03  0.00000000000E+00 0. -1.
</event>
<event>
 4    1  0.3927513E+003  0.2094729E+02  0.7546771E-02  0.1520019E+00
          2   -1    0    0  502    0  0.00000000000E+00  0.00000000000E+00  0.57238260458E+02  0.57238260458E+02  0.00000000000E+00 0. -1.
          1   -1    0    0  501    0 -0.00000000000E+00 -0.00000000000E+00 -0.11320073181E+02  0.11320073181E+02  0.00000000000E+00 0. -1.
          2    1    1    2  501    0  0.15091436694E+02  0.14527130587E+02  0.42434824416E+02  0.47323390705E+02  0.00000000000E+00 0. -1.
          1    1    1    2  502    0 -0.15091436694E+02 -0.14527130587E+02  0.34833628611E+01  0.21234942934E+02  0.00000000000E+00 0. -1.
</event>
<event>
 4    1  0.3927513E+003  0.2388015E+02  0.7546771E-02  0.1481732E+00
          2   -1    0    0  502    0  0.00000000000E+00  0.00000000000E+00  0.85223210273E+03  0.85223210273E+03  0.00000000000E+00 0. -1.
          1   -1    0    0  501    0 -0.00000000000E+00 -0.00000000000E+00 -0.34685148964E+02  0.34685148964E+02  0.00000000000E+00 0. -1.
          2    1    1    2  501    0  0.51319842674E+01  0.23322184964E+02  0.84793371425E+03  0.84826991302E+03  0.00000000000E+00 0. -1.
          1    1    1    2  502    0 -0.51319842674E+01 -0.23322184964E+02 -0.30386760482E+02  0.38647338674E+02  0.00000000000E+00 0. -1.
</event>
<event>
 4    1  0.3927513E+003  0.2353839E+02  0.7546771E-02  0.1485846E+00
          2   -1    0    0  502    0  0.00000000000E+00  0.00000000000E+00  0.55626888680E+03  0.55626888680E+03  0.00000000000E+00 0.  1.
          1   -1    0    0  501    0 -0.00000000000E+00 -0.00000000000E+00 -0.19055667867E+01  0.19055667867E+01  0.00000000000E+00 0. -1.
          2    1    1    2  501    0 -0.23240129670E+02 -0.37352740513E+01  0.46999628928E+03  0.47058534597E+03  0.00000000000E+00 0.  1.
          1    1    1    2  502    0  0.23240129670E+02  0.37352740513E+01  0.84367030729E+02  0.87589107618E+02  0.00000000000E+00 0. -1.
</event>
<event>
 4    1  0.3927513E+003  0.6103553E+02  0.7546771E-02  0.1256354E+00
          2   -1    0    0  502    0  0.00000000000E+00  0.00000000000E+00  0.34976842897E+03  0.34976842897E+03  0.00000000000E+00 0. -1.
          1   -1    0    0  501    0 -0.00000000000E+00 -0.00000000000E+00 -0.40759164269E+02  0.40759164269E+02  0.00000000000E+00 0. -1.
          2    1    1    2  501    0 -0.50687464417E+02  0.34001724579E+02  0.32232791278E+03  0.32805581794E+03  0.00000000000E+00 0. -1.
          1    1    1    2  502    0  0.50687464417E+02 -0.34001724579E+02 -0.13318648078E+02  0.62471775307E+02  0.00000000000E+00 0. -1.
</event>
<event>
 4    1  0.3927513E+003  0.2974942E+02  0.7546771E-02  0.1421787E+00
          2   -1    0    0  502    0  0.00000000000E+00  0.00000000000E+00  0.16654398829E+01  0.16654398829E+01  0.00000000000E+00 0. -1.
          1   -1    0    0  501    0 -0.00000000000E+00 -0.00000000000E+00 -0.10897794820E+04  0.10897794820E+04  0.00000000000E+00 0. -1.
          2    1    1    2  501    0 -0.25016599498E+02  0.16099619499E+02 -0.15342832090E+03  0.15628588436E+03  0.00000000000E+00 0. -1.
          1    1    1    2  502    0  0.25016599498E+02 -0.16099619499E+02 -0.93468572120E+03  0.93515903750E+03  0.00000000000E+00 0. -1.
</event>
<event>
 4    1  0.3927513E+003  0.3364953E+02  0.7546771E-02  0.1390314E+00
          2   -1    0    0  502    0  0.00000000000E+00  0.00000000000E+00  0.27899833385E+02  0.27899833385E+02  0.00000000000E+00 0.  1.
          1   -1    0    0  501    0 -0.00000000000E+00 -0.00000000000E+00 -0.27828766082E+03  0.27828766082E+03  0.00000000000E+00 0. -1.
          2    1    1    2  501    0 -0.10685640430E+02 -0.31907804369E+02  0.16296911715E+02  0.37388236419E+02  0.00000000000E+00 0.  1.
          1    1    1    2  502    0  0.10685640430E+02  0.31907804369E+02 -0.26668473915E+03  0.26879925779E+03  0.00000000000E+00 0. -1.
</event>
<event>
 4    1  0.3927513E+003  0.4295140E+02  0.7546771E-02  0.1332008E+00
          2   -1    0    0  502    0  0.00000000000E+00  0.00000000000E+00  0.88663011672E+01  0.88663011672E+01  0.00000000000E+00 0. -1.
          1   -1    0    0  501    0 -0.00000000000E+00 -0.00000000000E+00 -0.50028118650E+03  0.50028118650E+03  0.00000000000E+00 0.  1.
          2    1    1    2  501    0  0.23319903557E+01 -0.42888051500E+02 -0.51147267334E+02  0.66789715498E+02  0.00000000000E+00 0. -1.
          1    1    1    2  502    0 -0.23319903557E+01  0.42888051500E+02 -0.44026761799E+03  0.44235777217E+03  0.00000000000E+00 0.  1.
</event>
<event>
 4    1  0.3927513E+003  0.4257390E+02  0.7546771E-02  0.1334029E+00
          2   -1    0    0  502    0  0.00000000000E+00  0.00000000000E+00  0.35545888159E+03  0.35545888159E+03  0.00000000000E+00 0.  1.
          1   -1    0    0  501    0 -0.00000000000E+00 -0.00000000000E+00 -0.12087747371E+03  0.12087747371E+03  0.00000000000E+00 0. -1.
          2    1    1    2  501    0  0.41505742507E+02 -0.94768516064E+01  0.35038126059E+03  0.35295830512E+03  0.00000000000E+00 0.  1.
          1    1    1    2  502    0 -0.41505742507E+02  0.94768516064E+01 -0.11579985271E+03  0.12337805018E+03  0.00000000000E+00 0. -1.
</event>
<event>
 4    1  0.3927513E+003  0.2796154E+02  0.7546771E-02  0.1438181E+00
          2   -1    0    0  502    0  0.00000000000E+00  0.00000000000E+00  0.35891280841E+03  0.35891280841E+03  0.00000000000E+00 0. -1.
          1   -1    0    0  501    0 -0.00000000000E+00 -0.00000000000E+00 -0.91243945345E+01  0.91243945345E+01  0.00000000000E+00 0. -1.
          2    1    1    2  501    0 -0.17630919503E+02 -0.21702498817E+02  0.33545060009E+03  0.33661395230E+03  0.00000000000E+00 0. -1.
          1    1    1    2  502    0  0.17630919503E+02  0.21702498817E+02  0.14337813786E+02  0.31423250653E+02  0.00000000000E+00 0. -1.
</event>
<event>
 4    1  0.3927513E+003  0.2503388E+02  0.7546771E-02  0.1468425E+00
          2   -1    0    0  502    0  0.00000000000E+00  0.00000000000E+00  0.15001853243E+03  0.15001853243E+03  0.00000000000E+00 0.  1.
          1   -1    0    0  501    0 -0.00000000000E+00 -0.00000000000E+00 -0.48878972060E+02  0.48878972060E+02  0.00000000000E+00 0.  1.
          2    1    1    2  501    0 -0.12640047508E+02 -0.21608433675E+02  0.14567392673E+03  0.14780929652E+03  0.00000000000E+00 0.  1.
          1    1    1    2  502    0  0.12640047508E+02  0.21608433675E+02 -0.44534366361E+02  0.51088207975E+02  0.00000000000E+00 0.  1.
</event>
<event>
 4    1  0.3927513E+003  0.2027112E+02  0.7546771E-02  0.1529931E+00
          2   -1    0    0  502    0  0.00000000000E+00  0.00000000000E+00  0.17563994189E+02  0.17563994189E+02  0.00000000000E+00 0. -1.
          1   -1    0    0  501    0 -0.00000000000E+00 -0.00000000000E+00 -0.95336415385E+03  0.95336415385E+03  0.00000000000E+00 0. -1.
          2    1    1    2  501    0  0.18679258596E+02 -0.78742456337E+01  0.11570364827E+02  0.23340775227E+02  0.00000000000E+00 0. -1.
          1    1    1    2  502    0 -0.18679258596E+02  0.78742456337E+01 -0.94737052449E+03  0.94758737281E+03  0.00000000000E+00 0. -1.
</event>
<event>
 4    1  0.3927513E+003  0.3286692E+02  0.7546771E-02  0.1396213E+00
          2   -1    0    0  502    0  0.00000000000E+00  0.00000000000E+00  0.66435812695E+01  0.66435812695E+01  0.00000000000E+00 0.  1.
          1   -1    0    0  501    0 -0.00000000000E+00 -0.00000000000E+00 -0.16576467911E+03  0.16576467911E+03  0.00000000000E+00 0. -1.
          2    1    1    2  501    0 -0.22936327125E+02 -0.23540586372E+02 -0.67646184585E+02  0.75207982274E+02  0.00000000000E+00 0.  1.
          1    1    1    2  502    0  0.22936327125E+02  0.23540586372E+02 -0.91474913252E+02  0.97200278102E+02  0.00000000000E+00 0. -1.
</event>
<event>
 4    1  0.3927513E+003  0.2691247E+02  0.7546771E-02  0.1448489E+00
          2   -1    0    0  502    0  0.00000000000E+00  0.00000000000E+00  0.25951282325E+04  0.25951282325E+04  0.00000000000E+00 0.  1.
          1   -1    0    0  501    0 -0.00000000000E+00 -0.00000000000E+00 -0.29325846638E+00  0.29325846638E+00  0.00000000000E+00 0.  1.
          2    1    1    2  501    0  0.25700165469E+02  0.79863473567E+01  0.10121980406E+04  0.10125557533E+04  0.00000000000E+00 0.  1.
          1    1    1    2  502    0 -0.25700165469E+02 -0.79863473567E+01  0.15826369335E+04  0.15828657377E+04  0.00000000000E+00 0.  1.
</event>
<event>
 4    1  0.3927513E+003  0.2520240E+02  0.7546771E-02  0.1466552E+00
          2   -1    0    0  502    0  0.00000000000E+00  0.00000000000E+00  0.11089291729E+04  0.11089291729E+04  0.00000000000E+00 0. -1.
          1   -1    0    0  501    0 -0.00000000000E+00 -0.00000000000E+00 -0.16305185051E+01  0.16305185051E+01  0.00000000000E+00 0.  1.
          2    1    1    2  501    0  0.12528303187E+02 -0.21867838430E+02  0.10008890507E+04  0.10012062987E+04  0.00000000000E+00 0. -1.
          1    1    1    2  502    0 -0.12528303187E+02  0.21867838430E+02  0.10640960369E+03  0.10935339270E+03  0.00000000000E+00 0.  1.
</event>
<event>
 4    1  0.3927513E+003  0.2390669E+02  0.7546771E-02  0.1481416E+00
          2   -1    0    0  502    0  0.00000000000E+00  0.00000000000E+00  0.32057629028E+02  0.32057629028E+02  0.00000000000E+00 0. -1.
          1   -1    0    0  501    0 -0.00000000000E+00 -0.00000000000E+00 -0.27755115090E+02  0.27755115090E+02  0.00000000000E+00 0.  1.
          2    1    1    2  501    0  0.28607920653E+01  0.23734902732E+02  0.20036688615E+02  0.31192925955E+02  0.00000000000E+00 0. -1.
          1    1    1    2  502    0 -0.28607920653E+01 -0.23734902732E+02 -0.15734174677E+02  0.28619818164E+02  0.00000000000E+00 0.  1.
</event>
<event>
 4    1  0.3927513E+003  0.2247918E+02  0.7546771E-02  0.1499144E+00
          2   -1    0    0  502    0  0.00000000000E+00  0.00000000000E+00  0.17421057094E+01  0.17421057094E+01  0.00000000000E+00 0. -1.
          1   -1    0    0  501    0 -0.00000000000E+00 -0.00000000000E+00 -0.81393217583E+03  0.81393217583E+03  0.00000000000E+00 0.  1.
          2    1    1    2  501    0 -0.12397312959E+02 -0.18751541117E+02 -0.78900762669E+02  0.82040502269E+02  0.00000000000E+00 0. -1.
          1    1    1    2  502    0  0.12397312959E+02  0.18751541117E+02 -0.73328930745E+03  0.73363377927E+03  0.00000000000E+00 0.  1.
</event>
<event>
 4    1  0.3927513E+003  0.2934716E+02  0.7546771E-02  0.1425356E+00
          2   -1    0    0  502    0  0.00000000000E+00  0.00000000000E+00  0.80293672490E+00  0.80293672490E+00  0.00000000000E+00 0. -1.
          1   -1    0    0  501    0 -0.00000000000E+00 -0.00000000000E+00 -0.16257711680E+04  0.16257711680E+04  0.00000000000E+00 0.  1.
          2    1    1    2  501    0  0.13711611132E+02  0.25947015298E+02 -0.33809880812E+03  0.33937009287E+03  0.00000000000E+00 0. -1.
          1    1    1    2  502    0 -0.13711611132E+02 -0.25947015298E+02 -0.12868694232E+04  0.12872040119E+04  0.00000000000E+00 0.  1.
</event>
<event>
 4    1  0.3927513E+003  0.2573852E+02  0.7546771E-02  0.1460709E+00
          2   -1    0    0  502    0  0.00000000000E+00  0.00000000000E+00  0.27283718760E+03  0.27283718760E+03  0.00000000000E+00 0.  1.
          1   -1    0    0  501    0 -0.00000000000E+00 -0.00000000000E+00 -0.11522153743E+03  0.11522153743E+03  0.00000000000E+00 0. -1.
          2    1    1    2  501    0 -0.11979902341E+02 -0.22780547778E+02  0.27078189499E+03  0.27200240085E+03  0.00000000000E+00 0.  1.
          1    1    1    2  502    0  0.11979902341E+02  0.22780547778E+02 -0.11316624482E+03  0.11605632419E+03  0.00000000000E+00 0. -1.
</event>
<event>
 4    1  0.3927513E+003  0.2143973E+02  0.7546771E-02  0.1513078E+00
          2   -1    0    0  502    0  0.00000000000E+00  0.00000000000E+00  0.62086602608E+03  0.62086602608E+03  0.00000000000E+00 0.  1.
          1   -1    0    0  501    0 -0.00000000000E+00 -0.00000000000E+00 -0.10174277266E+03  0.10174277266E+03  0.00000000000E+00 0.  1.
          2    1    1    2  501    0 -0.21075538343E+02  0.39349219755E+01  0.61954906618E+03  0.61991992010E+03  0.00000000000E+00 0.  1.
          1    1    1    2  502    0  0.21075538343E+02 -0.39349219755E+01 -0.10042581276E+03  0.10268887864E+03  0.00000000000E+00 0.  1.
</event>
<event>
 4    1  0.3927513E+003  0.2897529E+02  0.7546771E-02  0.1428715E+00
          2   -1    0    0  502    0  0.00000000000E+00  0.00000000000E+00  0.27756101741E+03  0.27756101741E+03  0.00000000000E+00 0.  1.
          1   -1    0    0  501    0 -0.00000000000E+00 -0.00000000000E+00 -0.11473709051E+02  0.11473709051E+02  0.00000000000E+00 0.  1.
          2    1    1    2  501    0 -0.26762101804E+02  0.11106630622E+02  0.25705698118E+03  0.25868486410E+03  0.00000000000E+00 0.  1.
          1    1    1    2  502    0  0.26762101804E+02 -0.11106630622E+02  0.90303271766E+01  0.30349862366E+02  0.00000000000E+00 0.  1.
</event>
<event>
 4    1  0.4441758E+003  0.3294775E+02  0.7546771E-02  0.1395595E+00
          2   -1    0    0  502    0  0.00000000000E+00  0.00000000000E+00  0.87450826707E+03  0.87450826707E+03  0.00000000000E+00 0.  1.
          1   -1    0    0  501    0 -0.00000000000E+00 -0.00000000000E+00 -0.61163824951E+03  0.61163824951E+03  0.00000000000E+00 0.  1.
          2    1    1    2  501    0 -0.32750519984E+02  0.35997058503E+01  0.87375384357E+03  0.87437482443E+03  0.00000000000E+00 0.  1.
          1    1    1    2  502    0  0.32750519984E+02 -0.35997058503E+01 -0.61088382601E+03  0.61177169215E+03  0.00000000000E+00 0.  1.
</event>
<event>
 4    1  0.3927513E+003  0.2101032E+02  0.7546771E-02  0.1519117E+00
          2   -1    0    0  502    0  0.00000000000E+00  0.00000000000E+00  0.28197061019E+01  0.28197061019E+01  0.00000000000E+00 0. -1.
          1   -1    0    0  501    0 -0.00000000000E+00 -0.00000000000E+00 -0.14124783329E+04  0.14124783329E+04  0.00000000000E+00 0. -1.
          2    1    1    2  501    0  0.13173876680E+02  0.16367117966E+02 -0.37548074659E+02  0.43026636957E+02  0.00000000000E+00 0. -1.
          1    1    1    2  502    0 -0.13173876680E+02 -0.16367117966E+02 -0.13721105522E+04  0.13722714021E+04  0.00000000000E+00 0. -1.
</event>
<event>
 4    1  0.3927513E+003  0.2063504E+02  0.7546771E-02  0.1524540E+00
          2   -1    0    0  502    0  0.00000000000E+00  0.00000000000E+00  0.17919211506E+02  0.17919211506E+02  0.00000000000E+00 0. -1.
          1   -1    0    0  501    0 -0.00000000000E+00 -0.00000000000E+00 -0.50783504743E+03  0.50783504743E+03  0.00000000000E+00 0. -1.
          2    1    1    2  501    0 -0.65679005093E+01 -0.19561891915E+02  0.11695294200E+02  0.23718870943E+02  0.00000000000E+00 0. -1.
          1    1    1    2  502    0  0.65679005093E+01  0.19561891915E+02 -0.50161113012E+03  0.50203538799E+03  0.00000000000E+00 0. -1.
</event>
<event>
 4    1  0.3927513E+003  0.3947478E+02  0.7546771E-02  0.1351591E+00
          2   -1    0    0  502    0  0.00000000000E+00  0.00000000000E+00  0.84069858810E+03  0.84069858810E+03  0.00000000000E+00 0.  1.
          1   -1    0    0  501    0 -0.00000000000E+00 -0.00000000000E+00 -0.89615641477E+02  0.89615641477E+02  0.00000000000E+00 0.  1.
          2    1    1    2  501    0  0.12175343063E+02  0.37550228209E+02  0.83586301078E+03  0.83679461721E+03  0.00000000000E+00 0.  1.
          1    1    1    2  502    0 -0.12175343063E+02 -0.37550228209E+02 -0.84780064157E+02  0.93519612359E+02  0.00000000000E+00 0.  1.
</event>
<event>
 4    1  0.3927513E+003  0.2469874E+02  0.7546771E-02  0.1472202E+00
          2   -1    0    0  502    0  0.00000000000E+00  0.00000000000E+00  0.39080571181E+02  0.39080571181E+02  0.00000000000E+00 0. -1.
          1   -1    0    0  501    0 -0.00000000000E+00 -0.00000000000E+00 -0.20548568341E+03  0.20548568341E+03  0.00000000000E+00 0. -1.
          2    1    1    2  501    0 -0.11621402983E+02 -0.21793820727E+02  0.34344299225E+02  0.42303173857E+02  0.00000000000E+00 0. -1.
          1    1    1    2  502    0  0.11621402983E+02  0.21793820727E+02 -0.20074941145E+03  0.20226308073E+03  0.00000000000E+00 0. -1.
</event>
<event>
 4    1  0.3927513E+003  0.2899759E+02  0.7546771E-02  0.1428512E+00
          2   -1    0    0  502    0  0.00000000000E+00  0.00000000000E+00  0.11038290567E+03  0.11038290567E+03  0.00000000000E+00 0.  1.
          1   -1    0    0  501    0 -0.00000000000E+00 -0.00000000000E+00 -0.28662559447E+02  0.28662559447E+02  0.00000000000E+00 0. -1.
          2    1    1    2  501    0  0.28980183664E+02  0.10047116699E+01  0.10043224145E+03  0.10453466226E+03  0.00000000000E+00 0.  1.
          1    1    1    2  502    0 -0.28980183664E+02 -0.10047116699E+01 -0.18711895229E+02  0.34510802856E+02  0.00000000000E+00 0. -1.
</event>
<event>
 4    1  0.4330083E+003  0.3930638E+02  0.7546771E-02  0.1352599E+00
          2   -1    0    0  502    0  0.00000000000E+00  0.00000000000E+00  0.10129113708E+04  0.10129113708E+04  0.00000000000E+00 0.  1.
          1   -1    0    0  501    0 -0.00000000000E+00 -0.00000000000E+00 -0.80604110567E+03  0.80604110567E+03  0.00000000000E+00 0.  1.
          2    1    1    2  501    0 -0.25169548693E+02  0.30190811886E+02  0.10120504477E+04  0.10128134576E+04  0.00000000000E+00 0.  1.
          1    1    1    2  502    0  0.25169548693E+02 -0.30190811886E+02 -0.80518018256E+03  0.80613901884E+03  0.00000000000E+00 0.  1.
</event>
<event>
 4    1  0.3927513E+003  0.2226850E+02  0.7546771E-02  0.1501894E+00
          2   -1    0    0  502    0  0.00000000000E+00  0.00000000000E+00  0.12185136648E+04  0.12185136648E+04  0.00000000000E+00 0. -1.
          1   -1    0    0  501    0 -0.00000000000E+00 -0.00000000000E+00 -0.20702952608E+01  0.20702952608E+01  0.00000000000E+00 0. -1.
          2    1    1    2  501    0 -0.14398269633E+02 -0.16987526654E+02  0.11552520391E+04  0.11554666417E+04  0.00000000000E+00 0. -1.
          1    1    1    2  502    0  0.14398269633E+02  0.16987526654E+02  0.61191330475E+02  0.65117318399E+02  0.00000000000E+00 0. -1.
</event>
<event>
 4    1  0.3927513E+003  0.2572261E+02  0.7546771E-02  0.1460880E+00
          2   -1    0    0  502    0  0.00000000000E+00  0.00000000000E+00  0.10917935196E+04  0.10917935196E+04  0.00000000000E+00 0.  1.
          1   -1    0    0  501    0 -0.00000000000E+00 -0.00000000000E+00 -0.40895356583E+01  0.40895356583E+01  0.00000000000E+00 0. -1.
          2    1    1    2  501    0 -0.14295015778E+02  0.21384697908E+02  0.10495670294E+04  0.10498821848E+04  0.00000000000E+00 0.  1.
          1    1    1    2  502    0  0.14295015778E+02 -0.21384697908E+02  0.38136954576E+02  0.46000870481E+02  0.00000000000E+00 0. -1.
</event>
<event>
 4    1  0.3927513E+003  0.3000505E+02  0.7546771E-02  0.1419553E+00
          2   -1    0    0  502    0  0.00000000000E+00  0.00000000000E+00  0.22364970803E+04  0.22364970803E+04  0.00000000000E+00 0.  1.
          1   -1    0    0  501    0 -0.00000000000E+00 -0.00000000000E+00 -0.43817458095E+00  0.43817458095E+00  0.00000000000E+00 0.  1.
          2    1    1    2  501    0  0.29523915527E+02  0.53517712111E+01  0.14369419912E+04  0.14372552275E+04  0.00000000000E+00 0.  1.
          1    1    1    2  502    0 -0.29523915527E+02 -0.53517712111E+01  0.79911691451E+03  0.79968002732E+03  0.00000000000E+00 0.  1.
</event>
<event>
 4    1  0.3927513E+003  0.3698705E+02  0.7546771E-02  0.1367107E+00
          2   -1    0    0  502    0  0.00000000000E+00  0.00000000000E+00  0.22972181593E+02  0.22972181593E+02  0.00000000000E+00 0. -1.
          1   -1    0    0  501    0 -0.00000000000E+00 -0.00000000000E+00 -0.85241352032E+03  0.85241352032E+03  0.00000000000E+00 0. -1.
          2    1    1    2  501    0 -0.28185356069E+02 -0.23950529293E+02  0.74061306329E+01  0.37721252910E+02  0.00000000000E+00 0. -1.
          1    1    1    2  502    0  0.28185356069E+02  0.23950529293E+02 -0.83684746936E+03  0.83766444901E+03  0.00000000000E+00 0. -1.
</event>
<event>
 4    1  0.3927513E+003  0.2449472E+02  0.7546771E-02  0.1474536E+00
          2   -1    0    0  502    0  0.00000000000E+00  0.00000000000E+00  0.15735976694E+04  0.15735976694E+04  0.00000000000E+00 0.  1.
          1   -1    0    0  501    0 -0.00000000000E+00 -0.00000000000E+00 -0.45165186366E+02  0.45165186366E+02  0.00000000000E+00 0. -1.
          2    1    1    2  501    0  0.23225106039E+02 -0.77836940898E+01  0.15701740121E+04  0.15703650594E+04  0.00000000000E+00 0.  1.
          1    1    1    2  502    0 -0.23225106039E+02  0.77836940898E+01 -0.41741529078E+02  0.48397796375E+02  0.00000000000E+00 0. -1.
</event>
<event>
 4    1  0.3927513E+003  0.3449969E+02  0.7546771E-02  0.1384115E+00
          2   -1    0    0  502    0  0.00000000000E+00  0.00000000000E+00  0.42792167796E+01  0.42792167796E+01  0.00000000000E+00 0.  1.
          1   -1    0    0  501    0 -0.00000000000E+00 -0.00000000000E+00 -0.28021465203E+03  0.28021465203E+03  0.00000000000E+00 0.  1.
          2    1    1    2  501    0  0.96412798381E+01  0.33125112682E+02 -0.15020325442E+03  0.15411438936E+03  0.00000000000E+00 0.  1.
          1    1    1    2  502    0 -0.96412798381E+01 -0.33125112682E+02 -0.12573218083E+03  0.13037947946E+03  0.00000000000E+00 0.  1.
</event>
<event>
 4    1  0.3927513E+003  0.2763157E+02  0.7546771E-02  0.1441365E+00
          2   -1    0    0  502    0  0.00000000000E+00  0.00000000000E+00  0.18217231314E+04  0.18217231314E+04  0.00000000000E+00 0. -1.
          1   -1    0    0  501    0 -0.00000000000E+00 -0.00000000000E+00 -0.83192629662E+02  0.83192629662E+02  0.00000000000E+00 0. -1.
          2    1    1    2  501    0 -0.52824280099E+01  0.27121936700E+02  0.18193209400E+04  0.18195307599E+04  0.00000000000E+00 0. -1.
          1    1    1    2  502    0  0.52824280099E+01 -0.27121936700E+02 -0.80790438301E+02  0.85385001124E+02  0.00000000000E+00 0. -1.
</event>
<event>
 4    1  0.3927513E+003  0.2518356E+02  0.7546771E-02  0.1466760E+00
          2   -1    0    0  502    0  0.00000000000E+00  0.00000000000E+00  0.76585011254E+03  0.76585011254E+03  0.00000000000E+00 0. -1.
          1   -1    0    0  501    0 -0.00000000000E+00 -0.00000000000E+00 -0.23283053274E+01  0.23283053274E+01  0.00000000000E+00 0.  1.
          2    1    1    2  501    0  0.24297052555E+02 -0.66230519626E+01  0.69006932901E+03  0.69052870355E+03  0.00000000000E+00 0. -1.
          1    1    1    2  502    0 -0.24297052555E+02  0.66230519626E+01  0.73452478201E+02  0.77649714320E+02  0.00000000000E+00 0.  1.
</event>
<event>
 4    1  0.3927513E+003  0.2368217E+02  0.7546771E-02  0.1484105E+00
          2   -1    0    0  502    0  0.00000000000E+00  0.00000000000E+00  0.17538448836E+04  0.17538448836E+04  0.00000000000E+00 0.  1.
          1   -1    0    0  501    0 -0.00000000000E+00 -0.00000000000E+00 -0.11337328134E+02  0.11337328134E+02  0.00000000000E+00 0. -1.
          2    1    1    2  501    0  0.22243296339E+02  0.81290165715E+01  0.17413086825E+04  0.17414697163E+04  0.00000000000E+00 0.  1.
          1    1    1    2  502    0 -0.22243296339E+02 -0.81290165715E+01  0.11988729773E+01  0.23712495416E+02  0.00000000000E+00 0. -1.
</event>
<event>
 4    1  0.3927513E+003  0.2086572E+02  0.7546771E-02  0.1521191E+00
          2   -1    0    0  502    0  0.00000000000E+00  0.00000000000E+00  0.13990523528E+04  0.13990523528E+04  0.00000000000E+00 0. -1.
          1   -1    0    0  501    0 -0.00000000000E+00 -0.00000000000E+00 -0.22192617601E+01  0.22192617601E+01  0.00000000000E+00 0.  1.
          2    1    1    2  501    0  0.12352513587E+02 -0.16816473013E+02  0.13480745979E+04  0.13482360698E+04  0.00000000000E+00 0. -1.
          1    1    1    2  502    0 -0.12352513587E+02  0.16816473013E+02  0.48758493120E+02  0.53035544759E+02  0.00000000000E+00 0.  1.
</event>
<event>
 4    1  0.3927513E+003  0.2793759E+02  0.7546771E-02  0.1438411E+00
          2   -1    0    0  502    0  0.00000000000E+00  0.00000000000E+00  0.13241093960E+02  0.13241093960E+02  0.00000000000E+00 0. -1.
          1   -1    0    0  501    0 -0.00000000000E+00 -0.00000000000E+00 -0.60738161653E+02  0.60738161653E+02  0.00000000000E+00 0. -1.
          2    1    1    2  501    0  0.25974185025E+02 -0.10288343740E+02 -0.30102558463E+02  0.41069116507E+02  0.00000000000E+00 0. -1.
          1    1    1    2  502    0 -0.25974185025E+02  0.10288343740E+02 -0.17394509230E+02  0.32910139106E+02  0.00000000000E+00 0. -1.
</event>
<event>
 4    1  0.3927513E+003  0.2398334E+02  0.7546771E-02  0.1480506E+00
          2   -1    0    0  502    0  0.00000000000E+00  0.00000000000E+00  0.61085031198E+03  0.61085031198E+03  0.00000000000E+00 0. -1.
          1   -1    0    0  501    0 -0.00000000000E+00 -0.00000000000E+00 -0.10610017944E+01  0.10610017944E+01  0.00000000000E+00 0. -1.
          2    1    1    2  501    0  0.94445606069E+01  0.22045429109E+02  0.40751520628E+03  0.40822033759E+03  0.00000000000E+00 0. -1.
          1    1    1    2  502    0 -0.94445606069E+01 -0.22045429109E+02  0.20227410391E+03  0.20369097619E+03  0.00000000000E+00 0. -1.
</event>
<event>
 4    1  0.3927513E+003  0.2533728E+02  0.7546771E-02  0.1465065E+00
          2   -1    0    0  502    0  0.00000000000E+00  0.00000000000E+00  0.19608541338E+03  0.19608541338E+03  0.00000000000E+00 0.  1.
          1   -1    0    0  501    0 -0.00000000000E+00 -0.00000000000E+00 -0.82092394723E+02  0.82092394723E+02  0.00000000000E+00 0.  1.
          2    1    1    2  501    0 -0.44595766961E+01  0.24941728729E+02  0.19328365614E+03  0.19493729604E+03  0.00000000000E+00 0.  1.
          1    1    1    2  502    0  0.44595766961E+01 -0.24941728729E+02 -0.79290637483E+02  0.83240512064E+02  0.00000000000E+00 0.  1.
</event>
<event>
 4    1  0.3927513E+003  0.2818310E+02  0.7546771E-02  0.1436072E+00
          2   -1    0    0  502    0  0.00000000000E+00  0.00000000000E+00  0.10354812373E+03  0.10354812373E+03  0.00000000000E+00 0. -1.
          1   -1    0    0  501    0 -0.00000000000E+00 -0.00000000000E+00 -0.39762462220E+02  0.39762462220E+02  0.00000000000E+00 0. -1.
          2    1    1    2  501    0  0.27940690354E+02  0.36884619954E+01  0.96266520442E+02  0.10030717765E+03  0.00000000000E+00 0. -1.
          1    1    1    2  502    0 -0.27940690354E+02 -0.36884619954E+01 -0.32480858928E+02  0.43003408307E+02  0.00000000000E+00 0. -1.
</event>
<event>
 4    1  0.3927513E+003  0.5098415E+02  0.7546771E-02  0.1293961E+00
          2   -1    0    0  502    0  0.00000000000E+00  0.00000000000E+00  0.11739820702E+03  0.11739820702E+03  0.00000000000E+00 0. -1.
          1   -1    0    0  501    0 -0.00000000000E+00 -0.00000000000E+00 -0.10505510145E+03  0.10505510145E+03  0.00000000000E+00 0.  1.
          2    1    1    2  501    0 -0.22786253729E+02 -0.45608884281E+02  0.10498429195E+03  0.11670940511E+03  0.00000000000E+00 0. -1.
          1    1    1    2  502    0  0.22786253729E+02  0.45608884281E+02 -0.92641186382E+02  0.10574390336E+03  0.00000000000E+00 0.  1.
</event>
<event>
 4    1  0.3927513E+003  0.5047986E+02  0.7546771E-02  0.1296105E+00
          2   -1    0    0  502    0  0.00000000000E+00  0.00000000000E+00  0.40239244625E+02  0.40239244625E+02  0.00000000000E+00 0. -1.
          1   -1    0    0  501    0 -0.00000000000E+00 -0.00000000000E+00 -0.25156311931E+04  0.25156311931E+04  0.00000000000E+00 0. -1.
          2    1    1    2  501    0 -0.15129172263E+02 -0.48159367827E+02  0.24051821937E+02  0.55916962555E+02  0.00000000000E+00 0. -1.
          1    1    1    2  502    0  0.15129172263E+02  0.48159367827E+02 -0.24994437705E+04  0.24999534752E+04  0.00000000000E+00 0. -1.
</event>
<event>
 4    1  0.3927513E+003  0.3333788E+02  0.7546771E-02  0.1392641E+00
          2   -1    0    0  502    0  0.00000000000E+00  0.00000000000E+00  0.50004572016E+03  0.50004572016E+03  0.00000000000E+00 0.  1.
          1   -1    0    0  501    0 -0.00000000000E+00 -0.00000000000E+00 -0.45869119690E+02  0.45869119690E+02  0.00000000000E+00 0.  1.
          2    1    1    2  501    0  0.13192246700E+02 -0.30616646835E+02  0.49335041922E+03  0.49447553082E+03  0.00000000000E+00 0.  1.
          1    1    1    2  502    0 -0.13192246700E+02  0.30616646835E+02 -0.39173818759E+02  0.51439309021E+02  0.00000000000E+00 0.  1.
</event>
<event>
 4    1  0.3927513E+003  0.2226282E+02  0.7546771E-02  0.1501968E+00
          2   -1    0    0  502    0  0.00000000000E+00  0.00000000000E+00  0.20702411010E+03  0.20702411010E+03  0.00000000000E+00 0. -1.
          1   -1    0    0  501    0 -0.00000000000E+00 -0.00000000000E+00 -0.12635623368E+04  0.12635623368E+04  0.00000000000E+00 0. -1.
          2    1    1    2  501    0  0.35618448297E+01 -0.21976039159E+02  0.20632719628E+03  0.20752480565E+03  0.00000000000E+00 0. -1.
          1    1    1    2  502    0 -0.35618448297E+01  0.21976039159E+02 -0.12628654229E+04  0.12630616412E+04  0.00000000000E+00 0. -1.
</event>
<event>
 4    1  0.3927513E+003  0.2277645E+02  0.7546771E-02  0.1495325E+00
          2   -1    0    0  502    0  0.00000000000E+00  0.00000000000E+00  0.18869741007E+03  0.18869741007E+03  0.00000000000E+00 0.  1.
          1   -1    0    0  501    0 -0.00000000000E+00 -0.00000000000E+00 -0.55527579513E+03  0.55527579513E+03  0.00000000000E+00 0. -1.
          2    1    1    2  501    0  0.22161144518E+02  0.52583390910E+01  0.18777540553E+03  0.18915170995E+03  0.00000000000E+00 0.  1.
          1    1    1    2  502    0 -0.22161144518E+02 -0.52583390910E+01 -0.55435379059E+03  0.55482149525E+03  0.00000000000E+00 0. -1.
</event>
<event>
 4    1  0.3927513E+003  0.2490991E+02  0.7546771E-02  0.1469814E+00
          2   -1    0    0  502    0  0.00000000000E+00  0.00000000000E+00  0.28888637801E+04  0.28888637801E+04  0.00000000000E+00 0. -1.
          1   -1    0    0  501    0 -0.00000000000E+00 -0.00000000000E+00 -0.22869469553E+00  0.22869469553E+00  0.00000000000E+00 0. -1.
          2    1    1    2  501    0 -0.15701502826E+02 -0.19338216368E+02  0.18004884588E+04  0.18006607660E+04  0.00000000000E+00 0. -1.
          1    1    1    2  502    0  0.15701502826E+02  0.19338216368E+02  0.10881466266E+04  0.10884317088E+04  0.00000000000E+00 0. -1.
</event>
<event>
 4    1  0.3927513E+003  0.2301843E+02  0.7546771E-02  0.1492267E+00
          2   -1    0    0  502    0  0.00000000000E+00  0.00000000000E+00  0.22055634156E+03  0.22055634156E+03  0.00000000000E+00 0.  1.
          1   -1    0    0  501    0 -0.00000000000E+00 -0.00000000000E+00 -0.28064051447E+03  0.28064051447E+03  0.00000000000E+00 0.  1.
          2    1    1    2  501    0  0.95412990643E+01 -0.20947838589E+02  0.21948145557E+03  0.22068520038E+03  0.00000000000E+00 0.  1.
          1    1    1    2  502    0 -0.95412990643E+01  0.20947838589E+02 -0.27956562847E+03  0.28051165564E+03  0.00000000000E+00 0.  1.
</event>
<event>
 4    1  0.3927513E+003  0.2407509E+02  0.7546771E-02  0.1479422E+00
          2   -1    0    0  502    0  0.00000000000E+00  0.00000000000E+00  0.35905995650E+02  0.35905995650E+02  0.00000000000E+00 0.  1.
          1   -1    0    0  501    0 -0.00000000000E+00 -0.00000000000E+00 -0.10635487036E+03  0.10635487036E+03  0.00000000000E+00 0. -1.
          2    1    1    2  501    0  0.16323764695E+02 -0.17695887914E+02  0.30285924067E+02  0.38689106212E+02  0.00000000000E+00 0.  1.
          1    1    1    2  502    0 -0.16323764695E+02  0.17695887914E+02 -0.10073479878E+03  0.10357175980E+03  0.00000000000E+00 0. -1.
</event>
<event>
 4    1  0.3927513E+003  0.2261024E+02  0.7546771E-02  0.1497451E+00
          2   -1    0    0  502    0  0.00000000000E+00  0.00000000000E+00  0.11061473249E+03  0.11061473249E+03  0.00000000000E+00 0.  1.
          1   -1    0    0  501    0 -0.00000000000E+00 -0.00000000000E+00 -0.10689659485E+02  0.10689659485E+02  0.00000000000E+00 0.  1.
          2    1    1    2  501    0 -0.21761773860E+02  0.61358066311E+01  0.95659527873E+02  0.98295311167E+02  0.00000000000E+00 0.  1.
          1    1    1    2  502    0  0.21761773860E+02 -0.61358066311E+01  0.42655451371E+01  0.23009080813E+02  0.00000000000E+00 0.  1.
</event>
<event>
 4    1  0.3927513E+003  0.2170695E+02  0.7546771E-02  0.1509406E+00
          2   -1    0    0  502    0  0.00000000000E+00  0.00000000000E+00  0.79051252664E+03  0.79051252664E+03  0.00000000000E+00 0.  1.
          1   -1    0    0  501    0 -0.00000000000E+00 -0.00000000000E+00 -0.96678870653E+01  0.96678870653E+01  0.00000000000E+00 0. -1.
          2    1    1    2  501    0  0.13988382959E+02 -0.16598705402E+02  0.77798285682E+03  0.77828562713E+03  0.00000000000E+00 0.  1.
          1    1    1    2  502    0 -0.13988382959E+02  0.16598705402E+02  0.28617827500E+01  0.21894786579E+02  0.00000000000E+00 0. -1.
</event>
<event>
 4    1  0.3927513E+003  0.4910824E+02  0.7546771E-02  0.1302086E+00
          2   -1    0    0  502    0  0.00000000000E+00  0.00000000000E+00  0.18834440284E+03  0.18834440284E+03  0.00000000000E+00 0. -1.
          1   -1    0    0  501    0 -0.00000000000E+00 -0.00000000000E+00 -0.13331346190E+02  0.13331346190E+02  0.00000000000E+00 0. -1.
          2    1    1    2  501    0  0.26533413987E+02  0.41323084584E+02  0.10755625816E+03  0.11823691491E+03  0.00000000000E+00 0. -1.
          1    1    1    2  502    0 -0.26533413987E+02 -0.41323084584E+02  0.67456798490E+02  0.83438834124E+02  0.00000000000E+00 0. -1.
</event>
<event>
 4    1  0.3927513E+003  0.2179417E+02  0.7546771E-02  0.1508221E+00
          2   -1    0    0  502    0  0.00000000000E+00  0.00000000000E+00  0.32756940892E+02  0.32756940892E+02  0.00000000000E+00 0.  1.
          1   -1    0    0  501    0 -0.00000000000E+00 -0.00000000000E+00 -0.20272288969E+02  0.20272288969E+02  0.00000000000E+00 0. -1.
          2    1    1    2  501    0 -0.20113707565E+02 -0.83919157440E+01 -0.79057265412E+01  0.23183744176E+02  0.00000000000E+00 0.  1.
          1    1    1    2  502    0  0.20113707565E+02  0.83919157440E+01  0.20390378464E+02  0.29845485685E+02  0.00000000000E+00 0. -1.
</event>
<event>
 4    1  0.3927513E+003  0.3029732E+02  0.7546771E-02  0.1417030E+00
          2   -1    0    0  502    0  0.00000000000E+00  0.00000000000E+00  0.99887008927E+02  0.99887008927E+02  0.00000000000E+00 0. -1.
          1   -1    0    0  501    0 -0.00000000000E+00 -0.00000000000E+00 -0.20035991184E+04  0.20035991184E+04  0.00000000000E+00 0. -1.
          2    1    1    2  501    0 -0.17349425569E+02  0.24837973170E+02  0.97472287526E+02  0.10207239742E+03  0.00000000000E+00 0. -1.
          1    1    1    2  502    0  0.17349425569E+02 -0.24837973170E+02 -0.20011843970E+04  0.20014137299E+04  0.00000000000E+00 0. -1.
</event>
<event>
 4    1  0.3927513E+003  0.3019332E+02  0.7546771E-02  0.1417924E+00
          2   -1    0    0  502    0  0.00000000000E+00  0.00000000000E+00  0.72767249954E+02  0.72767249954E+02  0.00000000000E+00 0.  1.
          1   -1    0    0  501    0 -0.00000000000E+00 -0.00000000000E+00 -0.25141571163E+03  0.25141571163E+03  0.00000000000E+00 0.  1.
          2    1    1    2  501    0  0.30084182605E+02 -0.25648764184E+01  0.68677113163E+02  0.75021213710E+02  0.00000000000E+00 0.  1.
          1    1    1    2  502    0 -0.30084182605E+02  0.25648764184E+01 -0.24732557484E+03  0.24916174788E+03  0.00000000000E+00 0.  1.
</event>
<event>
 4    1  0.3927513E+003  0.2783073E+02  0.7546771E-02  0.1439437E+00
          2   -1    0    0  502    0  0.00000000000E+00  0.00000000000E+00  0.10661962549E+03  0.10661962549E+03  0.00000000000E+00 0. -1.
          1   -1    0    0  501    0 -0.00000000000E+00 -0.00000000000E+00 -0.17994733765E+03  0.17994733765E+03  0.00000000000E+00 0. -1.
          2    1    1    2  501    0 -0.23929554603E+02  0.14210061272E+02  0.10369760155E+03  0.10736732274E+03  0.00000000000E+00 0. -1.
          1    1    1    2  502    0  0.23929554603E+02 -0.14210061272E+02 -0.17702531371E+03  0.17919964040E+03  0.00000000000E+00 0. -1.
</event>
<event>
 4    1  0.3927513E+003  0.2273853E+02  0.7546771E-02  0.1495808E+00
          2   -1    0    0  502    0  0.00000000000E+00  0.00000000000E+00  0.72438584504E+02  0.72438584504E+02  0.00000000000E+00 0. -1.
          1   -1    0    0  501    0 -0.00000000000E+00 -0.00000000000E+00 -0.85716834708E+02  0.85716834708E+02  0.00000000000E+00 0. -1.
          2    1    1    2  501    0 -0.20579969925E+02 -0.96698315691E+01  0.69074631751E+02  0.72721011793E+02  0.00000000000E+00 0. -1.
          1    1    1    2  502    0  0.20579969925E+02  0.96698315691E+01 -0.82352881955E+02  0.85434407419E+02  0.00000000000E+00 0. -1.
</event>
<event>
 4    1  0.3927513E+003  0.3846149E+02  0.7546771E-02  0.1357745E+00
          2   -1    0    0  502    0  0.00000000000E+00  0.00000000000E+00  0.58098623169E+01  0.58098623169E+01  0.00000000000E+00 0.  1.
          1   -1    0    0  501    0 -0.00000000000E+00 -0.00000000000E+00 -0.33308392587E+03  0.33308392587E+03  0.00000000000E+00 0.  1.
          2    1    1    2  501    0  0.16006672842E+02 -0.34972435791E+02 -0.24588068924E+03  0.24887064548E+03  0.00000000000E+00 0.  1.
          1    1    1    2  502    0 -0.16006672842E+02  0.34972435791E+02 -0.81393374309E+02  0.90023142702E+02  0.00000000000E+00 0.  1.
</event>
<event>
 4    1  0.3927513E+003  0.2658196E+02  0.7546771E-02  0.1451853E+00
          2   -1    0    0  502    0  0.00000000000E+00  0.00000000000E+00  0.29768576108E+01  0.29768576108E+01  0.00000000000E+00 0.  1.
          1   -1    0    0  501    0 -0.00000000000E+00 -0.00000000000E+00 -0.29737758162E+03  0.29737758162E+03  0.00000000000E+00 0.  1.
          2    1    1    2  501    0  0.26129073356E+02 -0.48859285478E+01 -0.79736319768E+02  0.84050469733E+02  0.00000000000E+00 0.  1.
          1    1    1    2  502    0 -0.26129073356E+02  0.48859285478E+01 -0.21466440425E+03  0.21630396950E+03  0.00000000000E+00 0.  1.
</event>
<event>
 4    1  0.3927513E+003  0.3463534E+02  0.7546771E-02  0.1383145E+00
          2   -1    0    0  502    0  0.00000000000E+00  0.00000000000E+00  0.47754381571E+03  0.47754381571E+03  0.00000000000E+00 0.  1.
          1   -1    0    0  501    0 -0.00000000000E+00 -0.00000000000E+00 -0.68458888747E+01  0.68458888747E+01  0.00000000000E+00 0. -1.
          2    1    1    2  501    0  0.76333328600E+01  0.33783711296E+02  0.42805135425E+03  0.42945031004E+03  0.00000000000E+00 0.  1.
          1    1    1    2  502    0 -0.76333328600E+01 -0.33783711296E+02  0.42646572584E+02  0.54939394542E+02  0.00000000000E+00 0. -1.
</event>
<event>
 4    1  0.3927513E+003  0.3317569E+02  0.7546771E-02  0.1393863E+00
          2   -1    0    0  502    0  0.00000000000E+00  0.00000000000E+00  0.29958510784E+01  0.29958510784E+01  0.00000000000E+00 0. -1.
          1   -1    0    0  501    0 -0.00000000000E+00 -0.00000000000E+00 -0.68315298183E+03  0.68315298183E+03  0.00000000000E+00 0. -1.
          2    1    1    2  501    0 -0.69184356577E+01 -0.32446287138E+02 -0.10683245199E+03  0.11186509330E+03  0.00000000000E+00 0. -1.
          1    1    1    2  502    0  0.69184356577E+01  0.32446287138E+02 -0.57332467876E+03  0.57428373960E+03  0.00000000000E+00 0. -1.
</event>
<event>
 4    1  0.3927513E+003  0.2234049E+02  0.7546771E-02  0.1500950E+00
          2   -1    0    0  502    0  0.00000000000E+00  0.00000000000E+00  0.75063426538E+00  0.75063426538E+00  0.00000000000E+00 0. -1.
          1   -1    0    0  501    0 -0.00000000000E+00 -0.00000000000E+00 -0.85881023876E+03  0.85881023876E+03  0.00000000000E+00 0. -1.
          2    1    1    2  501    0 -0.21866501879E+02  0.45774770409E+01 -0.63324953062E+03  0.63364348433E+03  0.00000000000E+00 0. -1.
          1    1    1    2  502    0  0.21866501879E+02 -0.45774770409E+01 -0.22481007388E+03  0.22591738870E+03  0.00000000000E+00 0. -1.
</event>
<event>
 4    1  0.3927513E+003  0.2464373E+02  0.7546771E-02  0.1472829E+00
          2   -1    0    0  502    0  0.00000000000E+00  0.00000000000E+00  0.22253214280E+01  0.22253214280E+01  0.00000000000E+00 0. -1.
          1   -1    0    0  501    0 -0.00000000000E+00 -0.00000000000E+00 -0.27313795107E+03  0.27313795107E+03  0.00000000000E+00 0. -1.
          2    1    1    2  501    0 -0.41596533580E+00  0.24640205231E+02 -0.13943271564E+03  0.14159376727E+03  0.00000000000E+00 0. -1.
          1    1    1    2  502    0  0.41596533580E+00 -0.24640205231E+02 -0.13147991400E+03  0.13376950522E+03  0.00000000000E+00 0. -1.
</event>
<event>
 4    1  0.3927513E+003  0.6637744E+02  0.7546771E-02  0.1239579E+00
          2   -1    0    0  502    0  0.00000000000E+00  0.00000000000E+00  0.50718873098E+03  0.50718873098E+03  0.00000000000E+00 0. -1.
          1   -1    0    0  501    0 -0.00000000000E+00 -0.00000000000E+00 -0.95622277155E+01  0.95622277155E+01  0.00000000000E+00 0.  1.
          2    1    1    2  501    0 -0.41423607031E+02  0.51865687804E+02  0.32698040907E+03  0.33364974555E+03  0.00000000000E+00 0. -1.
          1    1    1    2  502    0  0.41423607031E+02 -0.51865687804E+02  0.17064609419E+03  0.18310121314E+03  0.00000000000E+00 0.  1.
</event>
<event>
 4    1  0.3927513E+003  0.2251595E+02  0.7546771E-02  0.1498667E+00
          2   -1    0    0  502    0  0.00000000000E+00  0.00000000000E+00  0.42769162088E+02  0.42769162088E+02  0.00000000000E+00 0.  1.
          1   -1    0    0  501    0 -0.00000000000E+00 -0.00000000000E+00 -0.47910990637E+03  0.47910990637E+03  0.00000000000E+00 0. -1.
          2    1    1    2  501    0  0.21616031139E+02 -0.63020069423E+01  0.39521011937E+02  0.45484925835E+02  0.00000000000E+00 0.  1.
          1    1    1    2  502    0 -0.21616031139E+02  0.63020069423E+01 -0.47586175622E+03  0.47639414263E+03  0.00000000000E+00 0. -1.
</event>
<event>
 4    1  0.3927513E+003  0.2565468E+02  0.7546771E-02  0.1461611E+00
          2   -1    0    0  502    0  0.00000000000E+00  0.00000000000E+00  0.15877938521E+03  0.15877938521E+03  0.00000000000E+00 0. -1.
          1   -1    0    0  501    0 -0.00000000000E+00 -0.00000000000E+00 -0.45687767378E+01  0.45687767378E+01  0.00000000000E+00 0. -1.
          2    1    1    2  501    0 -0.21302497014E+02  0.14295641507E+02  0.52234808654E+02  0.58194819188E+02  0.00000000000E+00 0. -1.
          1    1    1    2  502    0  0.21302497014E+02 -0.14295641507E+02  0.10197579982E+03  0.10515334276E+03  0.00000000000E+00 0. -1.
</event>
<event>
 4    1  0.3927513E+003  0.5074234E+02  0.7546771E-02  0.1294986E+00
          2   -1    0    0  502    0  0.00000000000E+00  0.00000000000E+00  0.10474811899E+04  0.10474811899E+04  0.00000000000E+00 0. -1.
          1   -1    0    0  501    0 -0.00000000000E+00 -0.00000000000E+00 -0.10400685028E+02  0.10400685028E+02  0.00000000000E+00 0. -1.
          2    1    1    2  501    0 -0.95298301205E+01 -0.49839413495E+02  0.98077000251E+03  0.98208175964E+03  0.00000000000E+00 0. -1.
          1    1    1    2  502    0  0.95298301205E+01  0.49839413495E+02  0.56310502330E+02  0.75800115253E+02  0.00000000000E+00 0. -1.
</event>
<event>
 4    1  0.3927513E+003  0.5960452E+02  0.7546771E-02  0.1261182E+00
          2   -1    0    0  502    0  0.00000000000E+00  0.00000000000E+00  0.26731186592E+01  0.26731186592E+01  0.00000000000E+00 0. -1.
          1   -1    0    0  501    0 -0.00000000000E+00 -0.00000000000E+00 -0.14660129997E+04  0.14660129997E+04  0.00000000000E+00 0.  1.
          2    1    1    2  501    0  0.98437300741E+01  0.58786046794E+02 -0.50721060922E+03  0.51070079344E+03  0.00000000000E+00 0. -1.
          1    1    1    2  502    0 -0.98437300741E+01 -0.58786046794E+02 -0.95612927180E+03  0.95798532490E+03  0.00000000000E+00 0.  1.
</event>
<event>
 4    1  0.3927513E+003  0.2762801E+02  0.7546771E-02  0.1441400E+00
          2   -1    0    0  502    0  0.00000000000E+00  0.00000000000E+00  0.28984862504E+03  0.28984862504E+03  0.00000000000E+00 0. -1.
          1   -1    0    0  501    0 -0.00000000000E+00 -0.00000000000E+00 -0.26476301352E+01  0.26476301352E+01  0.00000000000E+00 0. -1.
          2    1    1    2  501    0  0.98849087090E+01  0.25799141427E+02  0.15429655980E+03  0.15675055178E+03  0.00000000000E+00 0. -1.
          1    1    1    2  502    0 -0.98849087090E+01 -0.25799141427E+02  0.13290443511E+03  0.13574570339E+03  0.00000000000E+00 0. -1.
</event>
<event>
 4    1  0.3927513E+003  0.2500566E+02  0.7546771E-02  0.1468740E+00
          2   -1    0    0  502    0  0.00000000000E+00  0.00000000000E+00  0.68495298073E+03  0.68495298073E+03  0.00000000000E+00 0. -1.
          1   -1    0    0  501    0 -0.00000000000E+00 -0.00000000000E+00 -0.14325509381E+02  0.14325509381E+02  0.00000000000E+00 0.  1.
          2    1    1    2  501    0  0.17638169715E+02  0.17725064300E+02  0.67362933808E+03  0.67409329329E+03  0.00000000000E+00 0. -1.
          1    1    1    2  502    0 -0.17638169715E+02 -0.17725064300E+02 -0.30018667272E+01  0.25185196826E+02  0.00000000000E+00 0.  1.
</event>
<event>
 4    1  0.3927513E+003  0.2924718E+02  0.7546771E-02  0.1426253E+00
          2   -1    0    0  502    0  0.00000000000E+00  0.00000000000E+00  0.11198429316E+04  0.11198429316E+04  0.00000000000E+00 0.  1.
          1   -1    0    0  501    0 -0.00000000000E+00 -0.00000000000E+00 -0.28701618891E+03  0.28701618891E+03  0.00000000000E+00 0.  1.
          2    1    1    2  501    0 -0.29296047912E-02 -0.29247179634E+02  0.11189062665E+04  0.11192884484E+04  0.00000000000E+00 0.  1.
          1    1    1    2  502    0  0.29296047912E-02  0.29247179634E+02 -0.28607952380E+03  0.28757067212E+03  0.00000000000E+00 0.  1.
</event>
<event>
 4    1  0.3927513E+003  0.3756523E+02  0.7546771E-02  0.1363376E+00
          2   -1    0    0  502    0  0.00000000000E+00  0.00000000000E+00  0.25774202273E+01  0.25774202273E+01  0.00000000000E+00 0.  1.
          1   -1    0    0  501    0 -0.00000000000E+00 -0.00000000000E+00 -0.10089211065E+04  0.10089211065E+04  0.00000000000E+00 0. -1.
          2    1    1    2  501    0 -0.27218307646E+02 -0.25890352080E+02 -0.16115008512E+03  0.16547053072E+03  0.00000000000E+00 0.  1.
          1    1    1    2  502    0  0.27218307646E+02  0.25890352080E+02 -0.84519360117E+03  0.84602799602E+03  0.00000000000E+00 0. -1.
</event>
<event>
 4    1  0.3927513E+003  0.2304850E+02  0.7546771E-02  0.1491890E+00
          2   -1    0    0  502    0  0.00000000000E+00  0.00000000000E+00  0.46101700857E+01  0.46101700857E+01  0.00000000000E+00 0.  1.
          1   -1    0    0  501    0 -0.00000000000E+00 -0.00000000000E+00 -0.19270717079E+03  0.19270717079E+03  0.00000000000E+00 0. -1.
          2    1    1    2  501    0 -0.20387765934E+02 -0.10750458957E+02 -0.31492195315E+02  0.39025526688E+02  0.00000000000E+00 0.  1.
          1    1    1    2  502    0  0.20387765934E+02  0.10750458957E+02 -0.15660480539E+03  0.15829181419E+03  0.00000000000E+00 0. -1.
</event>
<event>
 4    1  0.3927513E+003  0.2101029E+02  0.7546771E-02  0.1519118E+00
          2   -1    0    0  502    0  0.00000000000E+00  0.00000000000E+00  0.52456180117E+03  0.52456180117E+03  0.00000000000E+00 0.  1.
          1   -1    0    0  501    0 -0.00000000000E+00 -0.00000000000E+00 -0.15452864013E+01  0.15452864013E+01  0.00000000000E+00 0.  1.
          2    1    1    2  501    0  0.67405872763E+01  0.19899665512E+02  0.43903026083E+03  0.43953270882E+03  0.00000000000E+00 0.  1.
          1    1    1    2  502    0 -0.67405872763E+01 -0.19899665512E+02  0.83986253946E+02  0.86574378752E+02  0.00000000000E+00 0.  1.
</event>
<event>
 4    1  0.3927513E+003  0.2410669E+02  0.7546771E-02  0.1479050E+00
          2   -1    0    0  502    0  0.00000000000E+00  0.00000000000E+00  0.14679447113E+03  0.14679447113E+03  0.00000000000E+00 0.  1.
          1   -1    0    0  501    0 -0.00000000000E+00 -0.00000000000E+00 -0.29010214005E+03  0.29010214005E+03  0.00000000000E+00 0.  1.
          2    1    1    2  501    0 -0.97313726132E+01 -0.22055228781E+02  0.14529884634E+03  0.14728505517E+03  0.00000000000E+00 0.  1.
          1    1    1    2  502    0  0.97313726132E+01  0.22055228781E+02 -0.28860651526E+03  0.28961155602E+03  0.00000000000E+00 0.  1.
</event>
<event>
 4    1  0.3927513E+003  0.2043656E+02  0.7546771E-02  0.1527463E+00
          2   -1    0    0  502    0  0.00000000000E+00  0.00000000000E+00  0.83857534493E+03  0.83857534493E+03  0.00000000000E+00 0.  1.
          1   -1    0    0  501    0 -0.00000000000E+00 -0.00000000000E+00 -0.11557913556E+03  0.11557913556E+03  0.00000000000E+00 0. -1.
          2    1    1    2  501    0 -0.20065339057E+02 -0.38775301912E+01  0.83754633048E+03  0.83779562471E+03  0.00000000000E+00 0.  1.
          1    1    1    2  502    0  0.20065339057E+02  0.38775301912E+01 -0.11455012111E+03  0.11635885578E+03  0.00000000000E+00 0. -1.
</event>
<event>
 4    1  0.3927513E+003  0.2370060E+02  0.7546771E-02  0.1483883E+00
          2   -1    0    0  502    0  0.00000000000E+00  0.00000000000E+00  0.14986897192E+04  0.14986897192E+04  0.00000000000E+00 0.  1.
          1   -1    0    0  501    0 -0.00000000000E+00 -0.00000000000E+00 -0.29237110217E+01  0.29237110217E+01  0.00000000000E+00 0. -1.
          2    1    1    2  501    0 -0.15128462812E+02 -0.18244119954E+02  0.14489148213E+04  0.14491086494E+04  0.00000000000E+00 0.  1.
          1    1    1    2  502    0  0.15128462812E+02  0.18244119954E+02  0.46851186855E+02  0.52504780827E+02  0.00000000000E+00 0. -1.
</event>
<event>
 4    1  0.3927513E+003  0.2371521E+02  0.7546771E-02  0.1483707E+00
          2   -1    0    0  502    0  0.00000000000E+00  0.00000000000E+00  0.13471359903E+01  0.13471359903E+01  0.00000000000E+00 0.  1.
          1   -1    0    0  501    0 -0.00000000000E+00 -0.00000000000E+00 -0.54057174983E+03  0.54057174983E+03  0.00000000000E+00 0.  1.
          2    1    1    2  501    0 -0.12294218642E+02 -0.20279610631E+02 -0.39890723871E+03  0.39961155578E+03  0.00000000000E+00 0.  1.
          1    1    1    2  502    0  0.12294218642E+02  0.20279610631E+02 -0.14031737513E+03  0.14230733004E+03  0.00000000000E+00 0.  1.
</event>
<event>
 4    1  0.3927513E+003  0.2827448E+02  0.7546771E-02  0.1435209E+00
          2   -1    0    0  502    0  0.00000000000E+00  0.00000000000E+00  0.43800622628E+01  0.43800622628E+01  0.00000000000E+00 0. -1.
          1   -1    0    0  501    0 -0.00000000000E+00 -0.00000000000E+00 -0.64218250681E+03  0.64218250681E+03  0.00000000000E+00 0.  1.
          2    1    1    2  501    0  0.32532724547E+01  0.28086694711E+02 -0.45392509183E+02  0.53478276818E+02  0.00000000000E+00 0. -1.
          1    1    1    2  502    0 -0.32532724547E+01 -0.28086694711E+02 -0.59240993537E+03  0.59308429226E+03  0.00000000000E+00 0.  1.
</event>
<event>
 4    1  0.3927513E+003  0.3563894E+02  0.7546771E-02  0.1376126E+00
          2   -1    0    0  502    0  0.00000000000E+00  0.00000000000E+00  0.17561749491E+04  0.17561749491E+04  0.00000000000E+00 0. -1.
          1   -1    0    0  501    0 -0.00000000000E+00 -0.00000000000E+00 -0.26589281590E+02  0.26589281590E+02  0.00000000000E+00 0. -1.
          2    1    1    2  501    0  0.19968607971E+02  0.29519296767E+02  0.17439683979E+04  0.17443325105E+04  0.00000000000E+00 0. -1.
          1    1    1    2  502    0 -0.19968607971E+02 -0.29519296767E+02 -0.14382730392E+02  0.38431720225E+02  0.00000000000E+00 0. -1.
</event>
<event>
 4    1  0.3927513E+003  0.2164171E+02  0.7546771E-02  0.1510297E+00
          2   -1    0    0  502    0  0.00000000000E+00  0.00000000000E+00  0.11535595226E+04  0.11535595226E+04  0.00000000000E+00 0.  1.
          1   -1    0    0  501    0 -0.00000000000E+00 -0.00000000000E+00 -0.92667890739E+00  0.92667890739E+00  0.00000000000E+00 0.  1.
          2    1    1    2  501    0 -0.17507598480E+02 -0.12721940130E+02  0.10090019603E+04  0.10092340262E+04  0.00000000000E+00 0.  1.
          1    1    1    2  502    0  0.17507598480E+02  0.12721940130E+02  0.14363088337E+03  0.14525217528E+03  0.00000000000E+00 0.  1.
</event>
<event>
 4    1  0.3927513E+003  0.3317518E+02  0.7546771E-02  0.1393867E+00
          2   -1    0    0  502    0  0.00000000000E+00  0.00000000000E+00  0.12660116088E+04  0.12660116088E+04  0.00000000000E+00 0. -1.
          1   -1    0    0  501    0 -0.00000000000E+00 -0.00000000000E+00 -0.22710424580E+02  0.22710424580E+02  0.00000000000E+00 0. -1.
          2    1    1    2  501    0 -0.31687468222E+02  0.98232900073E+01  0.12535584359E+04  0.12539973465E+04  0.00000000000E+00 0. -1.
          1    1    1    2  502    0  0.31687468222E+02 -0.98232900073E+01 -0.10257251702E+02  0.34724686915E+02  0.00000000000E+00 0. -1.
</event>
<event>
 4    1  0.3927513E+003  0.2091167E+02  0.7546771E-02  0.1520530E+00
          2   -1    0    0  502    0  0.00000000000E+00  0.00000000000E+00  0.94008307599E+01  0.94008307599E+01  0.00000000000E+00 0.  1.
          1   -1    0    0  501    0 -0.00000000000E+00 -0.00000000000E+00 -0.69705041654E+03  0.69705041654E+03  0.00000000000E+00 0. -1.
          2    1    1    2  501    0 -0.33906839975E+01  0.20634954350E+02 -0.25887294870E+01  0.21071297999E+02  0.00000000000E+00 0.  1.
          1    1    1    2  502    0  0.33906839975E+01 -0.20634954350E+02 -0.68506085629E+03  0.68537994930E+03  0.00000000000E+00 0. -1.
</event>
<event>
 4    1  0.3927513E+003  0.2012450E+02  0.7546771E-02  0.1532141E+00
          2   -1    0    0  502    0  0.00000000000E+00  0.00000000000E+00  0.12619234139E+02  0.12619234139E+02  0.00000000000E+00 0.  1.
          1   -1    0    0  501    0 -0.00000000000E+00 -0.00000000000E+00 -0.98239354042E+02  0.98239354042E+02  0.00000000000E+00 0. -1.
          2    1    1    2  501    0  0.20089351732E+02  0.11888504710E+01  0.26728147022E+01  0.20301215650E+02  0.00000000000E+00 0.  1.
          1    1    1    2  502    0 -0.20089351732E+02 -0.11888504710E+01 -0.88292934605E+02  0.90557372531E+02  0.00000000000E+00 0. -1.
</event>
<event>
 4    1  0.3927513E+003  0.2074112E+02  0.7546771E-02  0.1522993E+00
          2   -1    0    0  502    0  0.00000000000E+00  0.00000000000E+00  0.10419714302E+01  0.10419714302E+01  0.00000000000E+00 0.  1.
          1   -1    0    0  501    0 -0.00000000000E+00 -0.00000000000E+00 -0.11045622671E+04  0.11045622671E+04  0.00000000000E+00 0. -1.
          2    1    1    2  501    0  0.19772835707E+01  0.20646652739E+02 -0.11430602740E+03  0.11617255192E+03  0.00000000000E+00 0.  1.
          1    1    1    2  502    0 -0.19772835707E+01 -0.20646652739E+02 -0.98921426830E+03  0.98943168664E+03  0.00000000000E+00 0. -1.
</event>
<event>
 4    1  0.3927513E+003  0.3323133E+02  0.7546771E-02  0.1393443E+00
          2   -1    0    0  502    0  0.00000000000E+00  0.00000000000E+00  0.12050517907E+03  0.12050517907E+03  0.00000000000E+00 0. -1.
          1   -1    0    0  501    0 -0.00000000000E+00 -0.00000000000E+00 -0.46916223440E+03  0.46916223440E+03  0.00000000000E+00 0. -1.
          2    1    1    2  501    0  0.38335585018E+01  0.33009475124E+02  0.11761149965E+03  0.12221614651E+03  0.00000000000E+00 0. -1.
          1    1    1    2  502    0 -0.38335585018E+01 -0.33009475124E+02 -0.46626855498E+03  0.46745126696E+03  0.00000000000E+00 0. -1.
</event>
<event>
 4    1  0.4068990E+003  0.2511365E+02  0.7546771E-02  0.1467536E+00
          2   -1    0    0  502    0  0.00000000000E+00  0.00000000000E+00  0.10472524310E+04  0.10472524310E+04  0.00000000000E+00 0.  1.
          1   -1    0    0  501    0 -0.00000000000E+00 -0.00000000000E+00 -0.49364787327E+03  0.49364787327E+03  0.00000000000E+00 0. -1.
          2    1    1    2  501    0 -0.18003981074E+02  0.17508627129E+02  0.10467823226E+04  0.10470835335E+04  0.00000000000E+00 0.  1.
          1    1    1    2  502    0  0.18003981074E+02 -0.17508627129E+02 -0.49317776482E+03  0.49381677075E+03  0.00000000000E+00 0. -1.
</event>
<event>
 4    1  0.3927513E+003  0.2723538E+02  0.7546771E-02  0.1445258E+00
          2   -1    0    0  502    0  0.00000000000E+00  0.00000000000E+00  0.55787873876E+03  0.55787873876E+03  0.00000000000E+00 0.  1.
          1   -1    0    0  501    0 -0.00000000000E+00 -0.00000000000E+00 -0.34593943186E+02  0.34593943186E+02  0.00000000000E+00 0. -1.
          2    1    1    2  501    0  0.26766215774E+02  0.50334331404E+01  0.55213003761E+03  0.55280136052E+03  0.00000000000E+00 0.  1.
          1    1    1    2  502    0 -0.26766215774E+02 -0.50334331404E+01 -0.28845242035E+02  0.39671321431E+02  0.00000000000E+00 0. -1.
</event>
<event>
 4    1  0.3927513E+003  0.2270195E+02  0.7546771E-02  0.1496275E+00
          2   -1    0    0  502    0  0.00000000000E+00  0.00000000000E+00  0.14105375365E+04  0.14105375365E+04  0.00000000000E+00 0. -1.
          1   -1    0    0  501    0 -0.00000000000E+00 -0.00000000000E+00 -0.42357207683E+02  0.42357207683E+02  0.00000000000E+00 0. -1.
          2    1    1    2  501    0  0.21864471678E+02  0.61092880081E+01  0.14073975476E+04  0.14075806320E+04  0.00000000000E+00 0. -1.
          1    1    1    2  502    0 -0.21864471678E+02 -0.61092880081E+01 -0.39217218750E+02  0.45314112241E+02  0.00000000000E+00 0. -1.
</event>
<event>
 4    1  0.3927513E+003  0.2882805E+02  0.7546771E-02  0.1430061E+00
          2   -1    0    0  502    0  0.00000000000E+00  0.00000000000E+00  0.30493085244E+01  0.30493085244E+01  0.00000000000E+00 0.  1.
          1   -1    0    0  501    0 -0.00000000000E+00 -0.00000000000E+00 -0.70174164114E+03  0.70174164114E+03  0.00000000000E+00 0. -1.
          2    1    1    2  501    0  0.21501969812E+02 -0.19202124268E+02 -0.73750260648E+02  0.79184324382E+02  0.00000000000E+00 0.  1.
          1    1    1    2  502    0 -0.21501969812E+02  0.19202124268E+02 -0.62494207197E+03  0.62560662528E+03  0.00000000000E+00 0. -1.
</event>
<event>
 4    1  0.3927513E+003  0.2029426E+02  0.7546771E-02  0.1529584E+00
          2   -1    0    0  502    0  0.00000000000E+00  0.00000000000E+00  0.12526744740E+04  0.12526744740E+04  0.00000000000E+00 0.  1.
          1   -1    0    0  501    0 -0.00000000000E+00 -0.00000000000E+00 -0.46261258915E+00  0.46261258915E+00  0.00000000000E+00 0.  1.
          2    1    1    2  501    0  0.19840095218E+02  0.42693729777E+01  0.96311176764E+03  0.96332555965E+03  0.00000000000E+00 0.  1.
          1    1    1    2  502    0 -0.19840095218E+02 -0.42693729777E+01  0.28910009381E+03  0.28981152697E+03  0.00000000000E+00 0.  1.
</event>
<event>
 4    1  0.3927513E+003  0.3196181E+02  0.7546771E-02  0.1403281E+00
          2   -1    0    0  502    0  0.00000000000E+00  0.00000000000E+00  0.76452956373E+03  0.76452956373E+03  0.00000000000E+00 0.  1.
          1   -1    0    0  501    0 -0.00000000000E+00 -0.00000000000E+00 -0.53507997632E+02  0.53507997632E+02  0.00000000000E+00 0. -1.
          2    1    1    2  501    0  0.69829178718E+01 -0.31189682388E+02  0.75939030972E+03  0.76006262894E+03  0.00000000000E+00 0.  1.
          1    1    1    2  502    0 -0.69829178718E+01  0.31189682388E+02 -0.48368743618E+02  0.57974932416E+02  0.00000000000E+00 0. -1.
</event>
<event>
 4    1  0.3927513E+003  0.3535123E+02  0.7546771E-02  0.1378111E+00
          2   -1    0    0  502    0  0.00000000000E+00  0.00000000000E+00  0.10137513884E+04  0.10137513884E+04  0.00000000000E+00 0. -1.
          1   -1    0    0  501    0 -0.00000000000E+00 -0.00000000000E+00 -0.15759685648E+03  0.15759685648E+03  0.00000000000E+00 0.  1.
          2    1    1    2  501    0  0.34392798548E+02 -0.81758837814E+01  0.10114562549E+04  0.10120738438E+04  0.00000000000E+00 0. -1.
          1    1    1    2  502    0 -0.34392798548E+02  0.81758837814E+01 -0.15530172301E+03  0.15927440107E+03  0.00000000000E+00 0.  1.
</event>
<event>
 4    1  0.3927513E+003  0.3379054E+02  0.7546771E-02  0.1389271E+00
          2   -1    0    0  502    0  0.00000000000E+00  0.00000000000E+00  0.63942552203E+03  0.63942552203E+03  0.00000000000E+00 0.  1.
          1   -1    0    0  501    0 -0.00000000000E+00 -0.00000000000E+00 -0.23772807838E+02  0.23772807838E+02  0.00000000000E+00 0.  1.
          2    1    1    2  501    0  0.23757369877E+02 -0.24028894020E+02  0.62672860309E+03  0.62763886297E+03  0.00000000000E+00 0.  1.
          1    1    1    2  502    0 -0.23757369877E+02  0.24028894020E+02 -0.11075888901E+02  0.35559466900E+02  0.00000000000E+00 0.  1.
</event>
<event>
 4    1  0.3927513E+003  0.3017312E+02  0.7546771E-02  0.1418098E+00
          2   -1    0    0  502    0  0.00000000000E+00  0.00000000000E+00  0.10715282260E+03  0.10715282260E+03  0.00000000000E+00 0.  1.
          1   -1    0    0  501    0 -0.00000000000E+00 -0.00000000000E+00 -0.21538425842E+03  0.21538425842E+03  0.00000000000E+00 0.  1.
          2    1    1    2  501    0 -0.21846350987E+02  0.20812351410E+02  0.10393997424E+03  0.10823093489E+03  0.00000000000E+00 0.  1.
          1    1    1    2  502    0  0.21846350987E+02 -0.20812351410E+02 -0.21217141005E+03  0.21430614612E+03  0.00000000000E+00 0.  1.
</event>
<event>
 4    1  0.3927513E+003  0.2078393E+02  0.7546771E-02  0.1522372E+00
          2   -1    0    0  502    0  0.00000000000E+00  0.00000000000E+00  0.32944195238E+03  0.32944195238E+03  0.00000000000E+00 0.  1.
          1   -1    0    0  501    0 -0.00000000000E+00 -0.00000000000E+00 -0.38731035973E+01  0.38731035973E+01  0.00000000000E+00 0.  1.
          2    1    1    2  501    0  0.44082948098E+01  0.20311043842E+02  0.29832673922E+03  0.29904985353E+03  0.00000000000E+00 0.  1.
          1    1    1    2  502    0 -0.44082948098E+01 -0.20311043842E+02  0.27242109565E+02  0.34265202445E+02  0.00000000000E+00 0.  1.
</event>
<event>
 4    1  0.3927513E+003  0.2088560E+02  0.7546771E-02  0.1520905E+00
          2   -1    0    0  502    0  0.00000000000E+00  0.00000000000E+00  0.43195493313E+03  0.43195493313E+03  0.00000000000E+00 0.  1.
          1   -1    0    0  501    0 -0.00000000000E+00 -0.00000000000E+00 -0.63760167135E+02  0.63760167135E+02  0.00000000000E+00 0. -1.
          2    1    1    2  501    0  0.94299069219E+01 -0.18635585438E+02  0.42998428992E+03  0.43049122845E+03  0.00000000000E+00 0.  1.
          1    1    1    2  502    0 -0.94299069219E+01  0.18635585438E+02 -0.61789523922E+02  0.65223871824E+02  0.00000000000E+00 0. -1.
</event>
<event>
 4    1  0.3927513E+003  0.2890507E+02  0.7546771E-02  0.1429356E+00
          2   -1    0    0  502    0  0.00000000000E+00  0.00000000000E+00  0.18924504097E+03  0.18924504097E+03  0.00000000000E+00 0. -1.
          1   -1    0    0  501    0 -0.00000000000E+00 -0.00000000000E+00 -0.86339987163E+01  0.86339987163E+01  0.00000000000E+00 0. -1.
          2    1    1    2  501    0  0.28875075311E+02  0.13163737551E+01  0.15946828244E+03  0.16206676376E+03  0.00000000000E+00 0. -1.
          1    1    1    2  502    0 -0.28875075311E+02 -0.13163737551E+01  0.21142759820E+02  0.35812275924E+02  0.00000000000E+00 0. -1.
</event>
<event>
 4    1  0.3927513E+003  0.3040976E+02  0.7546771E-02  0.1416068E+00
          2   -1    0    0  502    0  0.00000000000E+00  0.00000000000E+00  0.13541571965E+03  0.13541571965E+03  0.00000000000E+00 0. -1.
          1   -1    0    0  501    0 -0.00000000000E+00 -0.00000000000E+00 -0.90761982796E+01  0.90761982796E+01  0.00000000000E+00 0. -1.
          2    1    1    2  501    0  0.11062867392E+02 -0.28326075200E+02  0.99118406857E+02  0.10367840734E+03  0.00000000000E+00 0. -1.
          1    1    1    2  502    0 -0.11062867392E+02  0.28326075200E+02  0.27221114516E+02  0.40813510590E+02  0.00000000000E+00 0. -1.
</event>
<event>
 4    1  0.3927513E+003  0.2038618E+02  0.7546771E-02  0.1528212E+00
          2   -1    0    0  502    0  0.00000000000E+00  0.00000000000E+00  0.16132293400E+02  0.16132293400E+02  0.00000000000E+00 0. -1.
          1   -1    0    0  501    0 -0.00000000000E+00 -0.00000000000E+00 -0.47388710708E+03  0.47388710708E+03  0.00000000000E+00 0. -1.
          2    1    1    2  501    0  0.82602451613E+01  0.18637717186E+02  0.93795501358E+01  0.22440412491E+02  0.00000000000E+00 0. -1.
          1    1    1    2  502    0 -0.82602451613E+01 -0.18637717186E+02 -0.46713436381E+03  0.46757898799E+03  0.00000000000E+00 0. -1.
</event>
<event>
 4    1  0.3927513E+003  0.2153998E+02  0.7546771E-02  0.1511693E+00
          2   -1    0    0  502    0  0.00000000000E+00  0.00000000000E+00  0.37535425117E+01  0.37535425117E+01  0.00000000000E+00 0.  1.
          1   -1    0    0  501    0 -0.00000000000E+00 -0.00000000000E+00 -0.49946387370E+03  0.49946387370E+03  0.00000000000E+00 0.  1.
          2    1    1    2  501    0  0.18674077480E+02 -0.10735439614E+02 -0.29590294179E+02  0.36599950042E+02  0.00000000000E+00 0.  1.
          1    1    1    2  502    0 -0.18674077480E+02  0.10735439614E+02 -0.46612003701E+03  0.46661746617E+03  0.00000000000E+00 0.  1.
</event>
<event>
 4    1  0.3927513E+003  0.2553272E+02  0.7546771E-02  0.1462931E+00
          2   -1    0    0  502    0  0.00000000000E+00  0.00000000000E+00  0.99062574607E+03  0.99062574607E+03  0.00000000000E+00 0. -1.
          1   -1    0    0  501    0 -0.00000000000E+00 -0.00000000000E+00 -0.11881641287E+01  0.11881641287E+01  0.00000000000E+00 0. -1.
          2    1    1    2  501    0 -0.13615057565E+02  0.21599770527E+02  0.82594958525E+03  0.82634413973E+03  0.00000000000E+00 0. -1.
          1    1    1    2  502    0  0.13615057565E+02 -0.21599770527E+02  0.16348799669E+03  0.16546977048E+03  0.00000000000E+00 0. -1.
</event>
<event>
 4    1  0.3927513E+003  0.2669379E+02  0.7546771E-02  0.1450709E+00
          2   -1    0    0  502    0  0.00000000000E+00  0.00000000000E+00  0.52978151407E+03  0.52978151407E+03  0.00000000000E+00 0. -1.
          1   -1    0    0  501    0 -0.00000000000E+00 -0.00000000000E+00 -0.56840381640E+01  0.56840381640E+01  0.00000000000E+00 0. -1.
          2    1    1    2  501    0 -0.11971643198E+02  0.23858714511E+02  0.49596992569E+03  0.49668775472E+03  0.00000000000E+00 0. -1.
          1    1    1    2  502    0  0.11971643198E+02 -0.23858714511E+02  0.28127550217E+02  0.38777797516E+02  0.00000000000E+00 0. -1.
</event>
<event>
 4    1  0.3927513E+003  0.2464331E+02  0.7546771E-02  0.1472833E+00
          2   -1    0    0  502    0  0.00000000000E+00  0.00000000000E+00  0.10172365689E+02  0.10172365689E+02  0.00000000000E+00 0. -1.
          1   -1    0    0  501    0 -0.00000000000E+00 -0.00000000000E+00 -0.16165902189E+03  0.16165902189E+03  0.00000000000E+00 0. -1.
          2    1    1    2  501    0  0.15111250270E+02  0.19466450342E+02 -0.75118360952E+01  0.25762768779E+02  0.00000000000E+00 0. -1.
          1    1    1    2  502    0 -0.15111250270E+02 -0.19466450342E+02 -0.14397482010E+03  0.14606861880E+03  0.00000000000E+00 0. -1.
</event>
<event>
 4    1  0.3927513E+003  0.2936399E+02  0.7546771E-02  0.1425205E+00
          2   -1    0    0  502    0  0.00000000000E+00  0.00000000000E+00  0.12441770204E+02  0.12441770204E+02  0.00000000000E+00 0. -1.
          1   -1    0    0  501    0 -0.00000000000E+00 -0.00000000000E+00 -0.10611308125E+03  0.10611308125E+03  0.00000000000E+00 0. -1.
          2    1    1    2  501    0  0.14082446926E+02 -0.25766810913E+02 -0.11922257313E+02  0.31692019113E+02  0.00000000000E+00 0. -1.
          1    1    1    2  502    0 -0.14082446926E+02  0.25766810913E+02 -0.81749053736E+02  0.86862832344E+02  0.00000000000E+00 0. -1.
</event>
<event>
 4    1  0.3927513E+003  0.2245783E+02  0.7546771E-02  0.1499421E+00
          2   -1    0    0  502    0  0.00000000000E+00  0.00000000000E+00  0.25830455310E+03  0.25830455310E+03  0.00000000000E+00 0. -1.
          1   -1    0    0  501    0 -0.00000000000E+00 -0.00000000000E+00 -0.65901814855E+01  0.65901814855E+01  0.00000000000E+00 0. -1.
          2    1    1    2  501    0 -0.22002721682E+02  0.44982404123E+01  0.23696446477E+03  0.23802628319E+03  0.00000000000E+00 0. -1.
          1    1    1    2  502    0  0.22002721682E+02 -0.44982404123E+01  0.14749906847E+02  0.26868451393E+02  0.00000000000E+00 0. -1.
</event>
<event>
 4    1  0.3927513E+003  0.2086485E+02  0.7546771E-02  0.1521203E+00
          2   -1    0    0  502    0  0.00000000000E+00  0.00000000000E+00  0.13930777670E+04  0.13930777670E+04  0.00000000000E+00 0. -1.
          1   -1    0    0  501    0 -0.00000000000E+00 -0.00000000000E+00 -0.14866217714E+03  0.14866217714E+03  0.00000000000E+00 0.  1.
          2    1    1    2  501    0  0.11306864825E+02 -0.17535587404E+02  0.13922671153E+04  0.13924234494E+04  0.00000000000E+00 0. -1.
          1    1    1    2  502    0 -0.11306864825E+02  0.17535587404E+02 -0.14785152547E+03  0.14931649474E+03  0.00000000000E+00 0.  1.
</event>
<event>
 4    1  0.3927513E+003  0.3717216E+02  0.7546771E-02  0.1365904E+00
          2   -1    0    0  502    0  0.00000000000E+00  0.00000000000E+00  0.25485325770E+03  0.25485325770E+03  0.00000000000E+00 0.  1.
          1   -1    0    0  501    0 -0.00000000000E+00 -0.00000000000E+00 -0.30190532836E+03  0.30190532836E+03  0.00000000000E+00 0. -1.
          2    1    1    2  501    0 -0.33913137316E+02  0.15220656138E+02  0.25234226995E+03  0.25506546309E+03  0.00000000000E+00 0.  1.
          1    1    1    2  502    0  0.33913137316E+02 -0.15220656138E+02 -0.29939434061E+03  0.30169312297E+03  0.00000000000E+00 0. -1.
</event>
<event>
 4    1  0.3927513E+003  0.3090369E+02  0.7546771E-02  0.1411902E+00
          2   -1    0    0  502    0  0.00000000000E+00  0.00000000000E+00  0.45417275459E+01  0.45417275459E+01  0.00000000000E+00 0. -1.
          1   -1    0    0  501    0 -0.00000000000E+00 -0.00000000000E+00 -0.72510720814E+03  0.72510720814E+03  0.00000000000E+00 0.  1.
          2    1    1    2  501    0  0.49640799587E+01  0.30502391908E+02 -0.52876086354E+02  0.61244742713E+02  0.00000000000E+00 0. -1.
          1    1    1    2  502    0 -0.49640799587E+01 -0.30502391908E+02 -0.66768939424E+03  0.66840419297E+03  0.00000000000E+00 0.  1.
</event>
<event>
 4    1  0.3927513E+003  0.2071801E+02  0.7546771E-02  0.1523329E+00
          2   -1    0    0  502    0  0.00000000000E+00  0.00000000000E+00  0.12767041802E+03  0.12767041802E+03  0.00000000000E+00 0. -1.
          1   -1    0    0  501    0 -0.00000000000E+00 -0.00000000000E+00 -0.36125895873E+02  0.36125895873E+02  0.00000000000E+00 0.  1.
          2    1    1    2  501    0 -0.20525467274E+02 -0.28179708746E+01  0.12376643776E+03  0.12548851295E+03  0.00000000000E+00 0. -1.
          1    1    1    2  502    0  0.20525467274E+02  0.28179708746E+01 -0.32221915617E+02  0.38307800938E+02  0.00000000000E+00 0.  1.
</event>
<event>
 4    1  0.3927513E+003  0.3469435E+02  0.7546771E-02  0.1382725E+00
          2   -1    0    0  502    0  0.00000000000E+00  0.00000000000E+00  0.28409029869E+01  0.28409029869E+01  0.00000000000E+00 0.  1.
          1   -1    0    0  501    0 -0.00000000000E+00 -0.00000000000E+00 -0.15049738744E+04  0.15049738744E+04  0.00000000000E+00 0.  1.
          2    1    1    2  501    0 -0.67301880515E+01  0.34035313602E+02 -0.11203706934E+03  0.11728598770E+03  0.00000000000E+00 0.  1.
          1    1    1    2  502    0  0.67301880515E+01 -0.34035313602E+02 -0.13900959021E+04  0.13905287897E+04  0.00000000000E+00 0.  1.
</event>
<event>
 4    1  0.3927513E+003  0.2896590E+02  0.7546771E-02  0.1428801E+00
          2   -1    0    0  502    0  0.00000000000E+00  0.00000000000E+00  0.58815758399E+02  0.58815758399E+02  0.00000000000E+00 0. -1.
          1   -1    0    0  501    0 -0.00000000000E+00 -0.00000000000E+00 -0.19749757881E+02  0.19749757881E+02  0.00000000000E+00 0. -1.
          2    1    1    2  501    0  0.18909674732E+02  0.21941909356E+02  0.40233879022E+02  0.49576085019E+02  0.00000000000E+00 0. -1.
          1    1    1    2  502    0 -0.18909674732E+02 -0.21941909356E+02 -0.11678785037E+01  0.28989431261E+02  0.00000000000E+00 0. -1.
</event>
<event>
 4    1  0.3927513E+003  0.5441773E+02  0.7546771E-02  0.1280077E+00
          2   -1    0    0  502    0  0.00000000000E+00  0.00000000000E+00  0.92550310300E+03  0.92550310300E+03  0.00000000000E+00 0.  1.
          1   -1    0    0  501    0 -0.00000000000E+00 -0.00000000000E+00 -0.12751605511E+04  0.12751605511E+04  0.00000000000E+00 0.  1.
          2    1    1    2  501    0  0.32553680671E+02  0.43606738073E+02  0.92412175048E+03  0.92572258233E+03  0.00000000000E+00 0.  1.
          1    1    1    2  502    0 -0.32553680671E+02 -0.43606738073E+02 -0.12737791986E+04  0.12749410717E+04  0.00000000000E+00 0.  1.
</event>
<event>
 4    1  0.3927513E+003  0.3058691E+02  0.7546771E-02  0.1414563E+00
          2   -1    0    0  502    0  0.00000000000E+00  0.00000000000E+00  0.19364698655E+02  0.19364698655E+02  0.00000000000E+00 0.  1.
          1   -1    0    0  501    0 -0.00000000000E+00 -0.00000000000E+00 -0.65475697908E+03  0.65475697908E+03  0.00000000000E+00 0. -1.
          2    1    1    2  501    0 -0.59836782824E+01  0.29995910279E+02  0.66910641466E+01  0.31310212051E+02  0.00000000000E+00 0.  1.
          1    1    1    2  502    0  0.59836782824E+01 -0.29995910279E+02 -0.64208334457E+03  0.64281146568E+03  0.00000000000E+00 0. -1.
</event>
<event>
 4    1  0.3927513E+003  0.4210764E+02  0.7546771E-02  0.1336559E+00
          2   -1    0    0  502    0  0.00000000000E+00  0.00000000000E+00  0.61218248347E+02  0.61218248347E+02  0.00000000000E+00 0.  1.
          1   -1    0    0  501    0 -0.00000000000E+00 -0.00000000000E+00 -0.12461545596E+04  0.12461545596E+04  0.00000000000E+00 0. -1.
          2    1    1    2  501    0  0.23456057500E+02 -0.34969515018E+02  0.53577177279E+02  0.68143727071E+02  0.00000000000E+00 0.  1.
          1    1    1    2  502    0 -0.23456057500E+02  0.34969515018E+02 -0.12385134885E+04  0.12392290809E+04  0.00000000000E+00 0. -1.
</event>
<event>
 4    1  0.3927513E+003  0.3047534E+02  0.7546771E-02  0.1415510E+00
          2   -1    0    0  502    0  0.00000000000E+00  0.00000000000E+00  0.59042876797E+03  0.59042876797E+03  0.00000000000E+00 0.  1.
          1   -1    0    0  501    0 -0.00000000000E+00 -0.00000000000E+00 -0.13081437261E+02  0.13081437261E+02  0.00000000000E+00 0. -1.
          2    1    1    2  501    0  0.34428281863E+01  0.30280243362E+02  0.57170532147E+03  0.57251700481E+03  0.00000000000E+00 0.  1.
          1    1    1    2  502    0 -0.34428281863E+01 -0.30280243362E+02  0.56420092434E+01  0.30993200421E+02  0.00000000000E+00 0. -1.
</event>
<event>
 4    1  0.3927513E+003  0.2914185E+02  0.7546771E-02  0.1427203E+00
          2   -1    0    0  502    0  0.00000000000E+00  0.00000000000E+00  0.13631152533E+03  0.13631152533E+03  0.00000000000E+00 0. -1.
          1   -1    0    0  501    0 -0.00000000000E+00 -0.00000000000E+00 -0.12618349697E+02  0.12618349697E+02  0.00000000000E+00 0.  1.
          2    1    1    2  501    0 -0.17986976519E+02 -0.22928497120E+02  0.11482979968E+03  0.11846995484E+03  0.00000000000E+00 0. -1.
          1    1    1    2  502    0  0.17986976519E+02  0.22928497120E+02  0.88633759477E+01  0.30459920185E+02  0.00000000000E+00 0.  1.
</event>
<event>
 4    1  0.3927513E+003  0.2211723E+02  0.7546771E-02  0.1503891E+00
          2   -1    0    0  502    0  0.00000000000E+00  0.00000000000E+00  0.91338386833E+03  0.91338386833E+03  0.00000000000E+00 0. -1.
          1   -1    0    0  501    0 -0.00000000000E+00 -0.00000000000E+00 -0.16202409005E+02  0.16202409005E+02  0.00000000000E+00 0. -1.
          2    1    1    2  501    0  0.90518992153E+01  0.20180066446E+02  0.90563760083E+03  0.90590763105E+03  0.00000000000E+00 0. -1.
          1    1    1    2  502    0 -0.90518992153E+01 -0.20180066446E+02 -0.84561414961E+01  0.23678646291E+02  0.00000000000E+00 0. -1.
</event>
<event>
 4    1  0.3927513E+003  0.2330929E+02  0.7546771E-02  0.1488650E+00
          2   -1    0    0  502    0  0.00000000000E+00  0.00000000000E+00  0.92016708514E+01  0.92016708514E+01  0.00000000000E+00 0. -1.
          1   -1    0    0  501    0 -0.00000000000E+00 -0.00000000000E+00 -0.73507235129E+03  0.73507235129E+03  0.00000000000E+00 0.  1.
          2    1    1    2  501    0 -0.73037200300E+00  0.23297842195E+02 -0.60574871657E+01  0.24083522271E+02  0.00000000000E+00 0. -1.
          1    1    1    2  502    0  0.73037200300E+00 -0.23297842195E+02 -0.71981319328E+03  0.72019049987E+03  0.00000000000E+00 0.  1.
</event>
<event>
 4    1  0.3927513E+003  0.2000637E+02  0.7546771E-02  0.1533938E+00
          2   -1    0    0  502    0  0.00000000000E+00  0.00000000000E+00  0.61968363737E+03  0.61968363737E+03  0.00000000000E+00 0. -1.
          1   -1    0    0  501    0 -0.00000000000E+00 -0.00000000000E+00 -0.23854396589E+01  0.23854396589E+01  0.00000000000E+00 0.  1.
          2    1    1    2  501    0  0.14329448476E+02 -0.13961443029E+02  0.57425718984E+03  0.57460558218E+03  0.00000000000E+00 0. -1.
          1    1    1    2  502    0 -0.14329448476E+02  0.13961443029E+02  0.43041007870E+02  0.47463494852E+02  0.00000000000E+00 0.  1.
</event>
<event>
 4    1  0.3927513E+003  0.3636946E+02  0.7546771E-02  0.1371183E+00
          2   -1    0    0  502    0  0.00000000000E+00  0.00000000000E+00  0.24163017601E+02  0.24163017601E+02  0.00000000000E+00 0.  1.
          1   -1    0    0  501    0 -0.00000000000E+00 -0.00000000000E+00 -0.10503315701E+04  0.10503315701E+04  0.00000000000E+00 0. -1.
          2    1    1    2  501    0 -0.15163810781E+02 -0.33057468686E+02  0.99752866303E+01  0.37712646907E+02  0.00000000000E+00 0.  1.
          1    1    1    2  502    0  0.15163810781E+02  0.33057468686E+02 -0.10361438392E+04  0.10367819408E+04  0.00000000000E+00 0. -1.
</event>
<event>
 4    1  0.3927513E+003  0.2941079E+02  0.7546771E-02  0.1424787E+00
          2   -1    0    0  502    0  0.00000000000E+00  0.00000000000E+00  0.73976660246E+02  0.73976660246E+02  0.00000000000E+00 0.  1.
          1   -1    0    0  501    0 -0.00000000000E+00 -0.00000000000E+00 -0.13197241625E+02  0.13197241625E+02  0.00000000000E+00 0.  1.
          2    1    1    2  501    0  0.14030274605E+01 -0.29377305348E+02  0.45106125573E+02  0.53847535874E+02  0.00000000000E+00 0.  1.
          1    1    1    2  502    0 -0.14030274605E+01  0.29377305348E+02  0.15673293048E+02  0.33326365997E+02  0.00000000000E+00 0.  1.
</event>
<event>
 4    1  0.3927513E+003  0.2194174E+02  0.7546771E-02  0.1506232E+00
          2   -1    0    0  502    0  0.00000000000E+00  0.00000000000E+00  0.14256297892E+03  0.14256297892E+03  0.00000000000E+00 0.  1.
          1   -1    0    0  501    0 -0.00000000000E+00 -0.00000000000E+00 -0.69708740244E+01  0.69708740244E+01  0.00000000000E+00 0. -1.
          2    1    1    2  501    0 -0.21665369053E+02  0.34715882784E+01  0.12148009758E+03  0.12344575428E+03  0.00000000000E+00 0.  1.
          1    1    1    2  502    0  0.21665369053E+02 -0.34715882784E+01  0.14112007309E+02  0.26088098659E+02  0.00000000000E+00 0. -1.
</event>
<event>
 4    1  0.3927513E+003  0.3271782E+02  0.7546771E-02  0.1397359E+00
          2   -1    0    0  502    0  0.00000000000E+00  0.00000000000E+00  0.52684226752E+03  0.52684226752E+03  0.00000000000E+00 0. -1.
          1   -1    0    0  501    0 -0.00000000000E+00 -0.00000000000E+00 -0.20318334867E+01  0.20318334867E+01  0.00000000000E+00 0.  1.
          2    1    1    2  501    0 -0.28310167430E+02  0.16400912886E+02  0.26252989514E+03  0.26456077065E+03  0.00000000000E+00 0. -1.
          1    1    1    2  502    0  0.28310167430E+02 -0.16400912886E+02  0.26228053889E+03  0.26431333035E+03  0.00000000000E+00 0.  1.
</event>
<event>
 4    1  0.3927513E+003  0.2712769E+02  0.7546771E-02  0.1446330E+00
          2   -1    0    0  502    0  0.00000000000E+00  0.00000000000E+00  0.14651557845E+04  0.14651557845E+04  0.00000000000E+00 0.  1.
          1   -1    0    0  501    0 -0.00000000000E+00 -0.00000000000E+00 -0.18951892199E+01  0.18951892199E+01  0.00000000000E+00 0.  1.
          2    1    1    2  501    0 -0.11063825225E+02  0.24769002669E+02  0.13604860556E+04  0.13607564878E+04  0.00000000000E+00 0.  1.
          1    1    1    2  502    0  0.11063825225E+02 -0.24769002669E+02  0.10277453971E+03  0.10629448591E+03  0.00000000000E+00 0.  1.
</event>
<event>
 4    1  0.3927513E+003  0.4854681E+02  0.7546771E-02  0.1304599E+00
          2   -1    0    0  502    0  0.00000000000E+00  0.00000000000E+00  0.23795205061E+02  0.23795205061E+02  0.00000000000E+00 0.  1.
          1   -1    0    0  501    0 -0.00000000000E+00 -0.00000000000E+00 -0.10134984127E+03  0.10134984127E+03  0.00000000000E+00 0. -1.
          2    1    1    2  501    0  0.48317687984E+02  0.47110135322E+01 -0.29340917723E+02  0.56724616115E+02  0.00000000000E+00 0.  1.
          1    1    1    2  502    0 -0.48317687984E+02 -0.47110135322E+01 -0.48213718487E+02  0.68420430216E+02  0.00000000000E+00 0. -1.
</event>
<event>
 4    1  0.3927513E+003  0.2343119E+02  0.7546771E-02  0.1487154E+00
          2   -1    0    0  502    0  0.00000000000E+00  0.00000000000E+00  0.25323956365E+01  0.25323956365E+01  0.00000000000E+00 0.  1.
          1   -1    0    0  501    0 -0.00000000000E+00 -0.00000000000E+00 -0.11920374852E+04  0.11920374852E+04  0.00000000000E+00 0.  1.
          2    1    1    2  501    0 -0.21522638109E+02  0.92626498383E+01 -0.54505944625E+02  0.59328902170E+02  0.00000000000E+00 0.  1.
          1    1    1    2  502    0  0.21522638109E+02 -0.92626498383E+01 -0.11349991449E+04  0.11352409787E+04  0.00000000000E+00 0.  1.
</event>
<event>
 4    1  0.3927513E+003  0.2666340E+02  0.7546771E-02  0.1451019E+00
          2   -1    0    0  502    0  0.00000000000E+00  0.00000000000E+00  0.10265117979E+04  0.10265117979E+04  0.00000000000E+00 0.  1.
          1   -1    0    0  501    0 -0.00000000000E+00 -0.00000000000E+00 -0.17433501378E+02  0.17433501378E+02  0.00000000000E+00 0. -1.
          2    1    1    2  501    0  0.26385215535E+02 -0.38415379289E+01  0.10160386003E+04  0.10163883974E+04  0.00000000000E+00 0.  1.
          1    1    1    2  502    0 -0.26385215535E+02  0.38415379289E+01 -0.69603038004E+01  0.27556901884E+02  0.00000000000E+00 0. -1.
</event>
<event>
 4    1  0.3927513E+003  0.3664045E+02  0.7546771E-02  0.1369383E+00
          2   -1    0    0  502    0  0.00000000000E+00  0.00000000000E+00  0.13113084519E+02  0.13113084519E+02  0.00000000000E+00 0.  1.
          1   -1    0    0  501    0 -0.00000000000E+00 -0.00000000000E+00 -0.33450049181E+03  0.33450049181E+03  0.00000000000E+00 0.  1.
          2    1    1    2  501    0  0.22697557678E+02  0.28763584384E+02 -0.15908321917E+02  0.39944932311E+02  0.00000000000E+00 0.  1.
          1    1    1    2  502    0 -0.22697557678E+02 -0.28763584384E+02 -0.30547908538E+03  0.30766864402E+03  0.00000000000E+00 0.  1.
</event>
<event>
 4    1  0.3927513E+003  0.2839470E+02  0.7546771E-02  0.1434080E+00
          2   -1    0    0  502    0  0.00000000000E+00  0.00000000000E+00  0.18105619192E+04  0.18105619192E+04  0.00000000000E+00 0.  1.
          1   -1    0    0  501    0 -0.00000000000E+00 -0.00000000000E+00 -0.17471711899E+01  0.17471711899E+01  0.00000000000E+00 0. -1.
          2    1    1    2  501    0  0.28390240293E+02 -0.50318150029E+00  0.16866060993E+04  0.16868451005E+04  0.00000000000E+00 0.  1.
          1    1    1    2  502    0 -0.28390240293E+02  0.50318150029E+00  0.12220864867E+03  0.12546398983E+03  0.00000000000E+00 0. -1.
</event>
<event>
 4    1  0.3927513E+003  0.2245756E+02  0.7546771E-02  0.1499424E+00
          2   -1    0    0  502    0  0.00000000000E+00  0.00000000000E+00  0.24940580652E+01  0.24940580652E+01  0.00000000000E+00 0. -1.
          1   -1    0    0  501    0 -0.00000000000E+00 -0.00000000000E+00 -0.11425871994E+04  0.11425871994E+04  0.00000000000E+00 0. -1.
          2    1    1    2  501    0 -0.78601591683E+01  0.21037112521E+02 -0.50635807061E+02  0.55392482902E+02  0.00000000000E+00 0. -1.
          1    1    1    2  502    0  0.78601591683E+01 -0.21037112521E+02 -0.10894573343E+04  0.10896887746E+04  0.00000000000E+00 0. -1.
</event>
<event>
 4    1  0.3927513E+003  0.2165931E+02  0.7546771E-02  0.1510056E+00
          2   -1    0    0  502    0  0.00000000000E+00  0.00000000000E+00  0.76250039845E+00  0.76250039845E+00  0.00000000000E+00 0.  1.
          1   -1    0    0  501    0 -0.00000000000E+00 -0.00000000000E+00 -0.10138834432E+04  0.10138834432E+04  0.00000000000E+00 0.  1.
          2    1    1    2  501    0 -0.77410322475E+01 -0.20228744076E+02 -0.18844901592E+03  0.18968963405E+03  0.00000000000E+00 0.  1.
          1    1    1    2  502    0  0.77410322475E+01  0.20228744076E+02 -0.82467192693E+03  0.82495630959E+03  0.00000000000E+00 0.  1.
</event>
<event>
 4    1  0.3927513E+003  0.2183775E+02  0.7546771E-02  0.1507632E+00
          2   -1    0    0  502    0  0.00000000000E+00  0.00000000000E+00  0.45116083994E+03  0.45116083994E+03  0.00000000000E+00 0.  1.
          1   -1    0    0  501    0 -0.00000000000E+00 -0.00000000000E+00 -0.21596104144E+01  0.21596104144E+01  0.00000000000E+00 0.  1.
          2    1    1    2  501    0  0.29740099742E+01  0.21634297014E+02  0.38645550114E+03  0.38707201126E+03  0.00000000000E+00 0.  1.
          1    1    1    2  502    0 -0.29740099742E+01 -0.21634297014E+02  0.62545728389E+02  0.66248439094E+02  0.00000000000E+00 0.  1.
</event>
<event>
 4    1  0.3927513E+003  0.3195699E+02  0.7546771E-02  0.1403319E+00
          2   -1    0    0  502    0  0.00000000000E+00  0.00000000000E+00  0.11991738388E+03  0.11991738388E+03  0.00000000000E+00 0. -1.
          1   -1    0    0  501    0 -0.00000000000E+00 -0.00000000000E+00 -0.21368672699E+02  0.21368672699E+02  0.00000000000E+00 0. -1.
          2    1    1    2  501    0  0.52311710539E+01  0.31525927703E+02  0.10406073914E+03  0.10885718487E+03  0.00000000000E+00 0. -1.
          1    1    1    2  502    0 -0.52311710539E+01 -0.31525927703E+02 -0.55120279552E+01  0.32428871709E+02  0.00000000000E+00 0. -1.
</event>
<event>
 4    1  0.3927513E+003  0.2550860E+02  0.7546771E-02  0.1463193E+00
          2   -1    0    0  502    0  0.00000000000E+00  0.00000000000E+00  0.34910195720E+03  0.34910195720E+03  0.00000000000E+00 0.  1.
          1   -1    0    0  501    0 -0.00000000000E+00 -0.00000000000E+00 -0.59422918460E+01  0.59422918460E+01  0.00000000000E+00 0. -1.
          2    1    1    2  501    0  0.16079572191E+01  0.25457867522E+02  0.31864857153E+03  0.31966795380E+03  0.00000000000E+00 0.  1.
          1    1    1    2  502    0 -0.16079572191E+01 -0.25457867522E+02  0.24511093820E+02  0.35376295248E+02  0.00000000000E+00 0. -1.
</event>
<event>
 4    1  0.3927513E+003  0.3583144E+02  0.7546771E-02  0.1374810E+00
          2   -1    0    0  502    0  0.00000000000E+00  0.00000000000E+00  0.22158644749E+02  0.22158644749E+02  0.00000000000E+00 0. -1.
          1   -1    0    0  501    0 -0.00000000000E+00 -0.00000000000E+00 -0.33833353910E+03  0.33833353910E+03  0.00000000000E+00 0. -1.
          2    1    1    2  501    0 -0.74989351311E+01 -0.35037956639E+02  0.60004743940E+01  0.36330402234E+02  0.00000000000E+00 0. -1.
          1    1    1    2  502    0  0.74989351311E+01  0.35037956639E+02 -0.32217536875E+03  0.32416178162E+03  0.00000000000E+00 0. -1.
</event>
<event>
 4    1  0.3927513E+003  0.2110237E+02  0.7546771E-02  0.1517808E+00
          2   -1    0    0  502    0  0.00000000000E+00  0.00000000000E+00  0.47611062120E+02  0.47611062120E+02  0.00000000000E+00 0. -1.
          1   -1    0    0  501    0 -0.00000000000E+00 -0.00000000000E+00 -0.55200874457E+02  0.55200874457E+02  0.00000000000E+00 0. -1.
          2    1    1    2  501    0 -0.18430718399E+02  0.10277090060E+02  0.43054037233E+02  0.47947472121E+02  0.00000000000E+00 0. -1.
          1    1    1    2  502    0  0.18430718399E+02 -0.10277090060E+02 -0.50643849570E+02  0.54864464456E+02  0.00000000000E+00 0. -1.
</event>
<event>
 4    1  0.3927513E+003  0.3562134E+02  0.7546771E-02  0.1376247E+00
          2   -1    0    0  502    0  0.00000000000E+00  0.00000000000E+00  0.11718585406E+04  0.11718585406E+04  0.00000000000E+00 0. -1.
          1   -1    0    0  501    0 -0.00000000000E+00 -0.00000000000E+00 -0.74289444027E+01  0.74289444027E+01  0.00000000000E+00 0. -1.
          2    1    1    2  501    0  0.27056143526E+02  0.23169911153E+02  0.11271958091E+04  0.11277585166E+04  0.00000000000E+00 0. -1.
          1    1    1    2  502    0 -0.27056143526E+02 -0.23169911153E+02  0.37233787136E+02  0.51528968453E+02  0.00000000000E+00 0. -1.
</event>
<event>
 4    1  0.3927513E+003  0.2046081E+02  0.7546771E-02  0.1527104E+00
          2   -1    0    0  502    0  0.00000000000E+00  0.00000000000E+00  0.37700580811E+03  0.37700580811E+03  0.00000000000E+00 0. -1.
          1   -1    0    0  501    0 -0.00000000000E+00 -0.00000000000E+00 -0.17556429718E+02  0.17556429718E+02  0.00000000000E+00 0. -1.
          2    1    1    2  501    0  0.20404163090E+02  0.15214310988E+01  0.37066487821E+03  0.37122916987E+03  0.00000000000E+00 0. -1.
          1    1    1    2  502    0 -0.20404163090E+02 -0.15214310988E+01 -0.11215499821E+02  0.23333067955E+02  0.00000000000E+00 0. -1.
</event>
<event>
 4    1  0.3927513E+003  0.2536242E+02  0.7546771E-02  0.1464790E+00
          2   -1    0    0  502    0  0.00000000000E+00  0.00000000000E+00  0.98891988024E+03  0.98891988024E+03  0.00000000000E+00 0. -1.
          1   -1    0    0  501    0 -0.00000000000E+00 -0.00000000000E+00 -0.22507212863E+01  0.22507212863E+01  0.00000000000E+00 0. -1.
          2    1    1    2  501    0 -0.25319239274E+02 -0.14794300015E+01  0.91121597758E+03  0.91156887309E+03  0.00000000000E+00 0. -1.
          1    1    1    2  502    0  0.25319239274E+02  0.14794300015E+01  0.75453181375E+02  0.79601728437E+02  0.00000000000E+00 0. -1.
</event>
<event>
 4    1  0.3927513E+003  0.3646079E+02  0.7546771E-02  0.1370574E+00
          2   -1    0    0  502    0  0.00000000000E+00  0.00000000000E+00  0.44698149034E+02  0.44698149034E+02  0.00000000000E+00 0.  1.
          1   -1    0    0  501    0 -0.00000000000E+00 -0.00000000000E+00 -0.17475885008E+03  0.17475885008E+03  0.00000000000E+00 0. -1.
          2    1    1    2  501    0 -0.15203708486E+02 -0.33139651902E+02  0.34925877253E+02  0.50489664109E+02  0.00000000000E+00 0.  1.
          1    1    1    2  502    0  0.15203708486E+02  0.33139651902E+02 -0.16498657830E+03  0.16896733500E+03  0.00000000000E+00 0. -1.
</event>
<event>
 4    1  0.3927513E+003  0.2173432E+02  0.7546771E-02  0.1509034E+00
          2   -1    0    0  502    0  0.00000000000E+00  0.00000000000E+00  0.34970671060E+03  0.34970671060E+03  0.00000000000E+00 0.  1.
          1   -1    0    0  501    0 -0.00000000000E+00 -0.00000000000E+00 -0.11641396287E+02  0.11641396287E+02  0.00000000000E+00 0.  1.
          2    1    1    2  501    0  0.11429216176E+02 -0.18486576041E+02  0.33890149821E+03  0.33959771195E+03  0.00000000000E+00 0.  1.
          1    1    1    2  502    0 -0.11429216176E+02  0.18486576041E+02 -0.83618389763E+00  0.21750394931E+02  0.00000000000E+00 0.  1.
</event>
<event>
 4    1  0.3927513E+003  0.2846038E+02  0.7546771E-02  0.1433465E+00
          2   -1    0    0  502    0  0.00000000000E+00  0.00000000000E+00  0.24611352069E+03  0.24611352069E+03  0.00000000000E+00 0.  1.
          1   -1    0    0  501    0 -0.00000000000E+00 -0.00000000000E+00 -0.53432256642E+01  0.53432256642E+01  0.00000000000E+00 0.  1.
          2    1    1    2  501    0  0.17508904589E+02  0.22437272813E+02  0.19830170471E+03  0.20033361936E+03  0.00000000000E+00 0.  1.
          1    1    1    2  502    0 -0.17508904589E+02 -0.22437272813E+02  0.42468590313E+02  0.51123127001E+02  0.00000000000E+00 0.  1.
</event>
<event>
 4    1  0.3927513E+003  0.2984206E+02  0.7546771E-02  0.1420974E+00
          2   -1    0    0  502    0  0.00000000000E+00  0.00000000000E+00  0.16265662968E+03  0.16265662968E+03  0.00000000000E+00 0. -1.
          1   -1    0    0  501    0 -0.00000000000E+00 -0.00000000000E+00 -0.20308315577E+02  0.20308315577E+02  0.00000000000E+00 0. -1.
          2    1    1    2  501    0  0.20741478056E+02  0.21455531042E+02  0.14935848906E+03  0.15231056095E+03  0.00000000000E+00 0. -1.
          1    1    1    2  502    0 -0.20741478056E+02 -0.21455531042E+02 -0.70101749543E+01  0.30654384305E+02  0.00000000000E+00 0. -1.
</event>
<event>
 4    1  0.3927513E+003  0.2446290E+02  0.7546771E-02  0.1474902E+00
          2   -1    0    0  502    0  0.00000000000E+00  0.00000000000E+00  0.83971261264E+03  0.83971261264E+03  0.00000000000E+00 0. -1.
          1   -1    0    0  501    0 -0.00000000000E+00 -0.00000000000E+00 -0.34617867850E+01  0.34617867850E+01  0.00000000000E+00 0. -1.
          2    1    1    2  501    0 -0.18912047381E+02 -0.15516700355E+02  0.79381942470E+03  0.79419626829E+03  0.00000000000E+00 0. -1.
          1    1    1    2  502    0  0.18912047381E+02  0.15516700355E+02  0.42431401156E+02  0.48978131141E+02  0.00000000000E+00 0. -1.
</event>
<event>
 4    1  0.3927513E+003  0.2967843E+02  0.7546771E-02  0.1422412E+00
          2   -1    0    0  502    0  0.00000000000E+00  0.00000000000E+00  0.10792217776E+01  0.10792217776E+01  0.00000000000E+00 0.  1.
          1   -1    0    0  501    0 -0.00000000000E+00 -0.00000000000E+00 -0.88959766835E+03  0.88959766835E+03  0.00000000000E+00 0.  1.
          2    1    1    2  501    0  0.20063875297E+02 -0.21868935461E+02 -0.31629890274E+03  0.31768822028E+03  0.00000000000E+00 0.  1.
          1    1    1    2  502    0 -0.20063875297E+02  0.21868935461E+02 -0.57221954383E+03  0.57298866984E+03  0.00000000000E+00 0.  1.
</event>
<event>
 4    1  0.3927513E+003  0.3462727E+02  0.7546771E-02  0.1383203E+00
          2   -1    0    0  502    0  0.00000000000E+00  0.00000000000E+00  0.13457644127E+02  0.13457644127E+02  0.00000000000E+00 0.  1.
          1   -1    0    0  501    0 -0.00000000000E+00 -0.00000000000E+00 -0.45572746936E+03  0.45572746936E+03  0.00000000000E+00 0. -1.
          2    1    1    2  501    0  0.26570055564E+02 -0.22205398167E+02 -0.10720549781E+02  0.36248830989E+02  0.00000000000E+00 0.  1.
          1    1    1    2  502    0 -0.26570055564E+02  0.22205398167E+02 -0.43154927545E+03  0.43293628250E+03  0.00000000000E+00 0. -1.
</event>
<event>
 4    1  0.3927513E+003  0.2163805E+02  0.7546771E-02  0.1510347E+00
          2   -1    0    0  502    0  0.00000000000E+00  0.00000000000E+00  0.52577873811E+02  0.52577873811E+02  0.00000000000E+00 0.  1.
          1   -1    0    0  501    0 -0.00000000000E+00 -0.00000000000E+00 -0.25491339718E+03  0.25491339718E+03  0.00000000000E+00 0. -1.
          2    1    1    2  501    0 -0.61904109599E+01  0.20733648908E+02  0.49868574155E+02  0.54360648204E+02  0.00000000000E+00 0.  1.
          1    1    1    2  502    0  0.61904109599E+01 -0.20733648908E+02 -0.25220409752E+03  0.25313062279E+03  0.00000000000E+00 0. -1.
</event>
<event>
 4    1  0.3927513E+003  0.2412120E+02  0.7546771E-02  0.1478879E+00
          2   -1    0    0  502    0  0.00000000000E+00  0.00000000000E+00  0.56355153475E+03  0.56355153475E+03  0.00000000000E+00 0.  1.
          1   -1    0    0  501    0 -0.00000000000E+00 -0.00000000000E+00 -0.21252015285E+03  0.21252015285E+03  0.00000000000E+00 0.  1.
          2    1    1    2  501    0  0.24078119979E+02  0.14410192666E+01  0.56260783375E+03  0.56312468157E+03  0.00000000000E+00 0.  1.
          1    1    1    2  502    0 -0.24078119979E+02 -0.14410192666E+01 -0.21157645186E+03  0.21294700603E+03  0.00000000000E+00 0.  1.
</event>
<event>
 4    1  0.3927513E+003  0.2793094E+02  0.7546771E-02  0.1438474E+00
          2   -1    0    0  502    0  0.00000000000E+00  0.00000000000E+00  0.14241250387E+04  0.14241250387E+04  0.00000000000E+00 0. -1.
          1   -1    0    0  501    0 -0.00000000000E+00 -0.00000000000E+00 -0.14499526917E+02  0.14499526917E+02  0.00000000000E+00 0.  1.
          2    1    1    2  501    0  0.23769052692E+02 -0.14668649160E+02  0.14104061851E+04  0.14106827227E+04  0.00000000000E+00 0. -1.
          1    1    1    2  502    0 -0.23769052692E+02  0.14668649160E+02 -0.78067333714E+00  0.27941842905E+02  0.00000000000E+00 0.  1.
</event>
<event>
 4    1  0.3927513E+003  0.2055183E+02  0.7546771E-02  0.1525761E+00
          2   -1    0    0  502    0  0.00000000000E+00  0.00000000000E+00  0.14190421037E+04  0.14190421037E+04  0.00000000000E+00 0. -1.
          1   -1    0    0  501    0 -0.00000000000E+00 -0.00000000000E+00 -0.12915079334E+02  0.12915079334E+02  0.00000000000E+00 0. -1.
          2    1    1    2  501    0 -0.25862191679E+01 -0.20388462167E+02  0.14107435376E+04  0.14108932301E+04  0.00000000000E+00 0. -1.
          1    1    1    2  502    0  0.25862191679E+01  0.20388462167E+02 -0.46165132113E+01  0.21063952937E+02  0.00000000000E+00 0. -1.
</event>
<event>
 4    1  0.3927513E+003  0.3525531E+02  0.7546771E-02  0.1378777E+00
          2   -1    0    0  502    0  0.00000000000E+00  0.00000000000E+00  0.16726575122E+03  0.16726575122E+03  0.00000000000E+00 0.  1.
          1   -1    0    0  501    0 -0.00000000000E+00 -0.00000000000E+00 -0.11455178464E+02  0.11455178464E+02  0.00000000000E+00 0. -1.
          2    1    1    2  501    0 -0.34264197562E+02 -0.83007187290E+01  0.13087014602E+03  0.13553572328E+03  0.00000000000E+00 0.  1.
          1    1    1    2  502    0  0.34264197562E+02  0.83007187290E+01  0.24940426729E+02  0.43185206396E+02  0.00000000000E+00 0. -1.
</event>
<event>
 4    1  0.3927513E+003  0.2354422E+02  0.7546771E-02  0.1485775E+00
          2   -1    0    0  502    0  0.00000000000E+00  0.00000000000E+00  0.84802120311E+03  0.84802120311E+03  0.00000000000E+00 0. -1.
          1   -1    0    0  501    0 -0.00000000000E+00 -0.00000000000E+00 -0.43189141232E+01  0.43189141232E+01  0.00000000000E+00 0.  1.
          2    1    1    2  501    0  0.11079116019E+02 -0.20774588682E+02  0.81444798543E+03  0.81478822483E+03  0.00000000000E+00 0. -1.
          1    1    1    2  502    0 -0.11079116019E+02  0.20774588682E+02  0.29254303558E+02  0.37551892407E+02  0.00000000000E+00 0.  1.
</event>
<event>
 4    1  0.3927513E+003  0.3304085E+02  0.7546771E-02  0.1394886E+00
          2   -1    0    0  502    0  0.00000000000E+00  0.00000000000E+00  0.13131345891E+04  0.13131345891E+04  0.00000000000E+00 0. -1.
          1   -1    0    0  501    0 -0.00000000000E+00 -0.00000000000E+00 -0.56078497732E+01  0.56078497732E+01  0.00000000000E+00 0.  1.
          2    1    1    2  501    0  0.31014235677E+02 -0.11393637322E+02  0.12622988070E+04  0.12627311575E+04  0.00000000000E+00 0. -1.
          1    1    1    2  502    0 -0.31014235677E+02  0.11393637322E+02  0.45227932305E+02  0.56011281423E+02  0.00000000000E+00 0.  1.
</event>
<event>
 4    1  0.3927513E+003  0.2614888E+02  0.7546771E-02  0.1456350E+00
          2   -1    0    0  502    0  0.00000000000E+00  0.00000000000E+00  0.17798330056E+02  0.17798330056E+02  0.00000000000E+00 0. -1.
          1   -1    0    0  501    0 -0.00000000000E+00 -0.00000000000E+00 -0.12182707281E+04  0.12182707281E+04  0.00000000000E+00 0.  1.
          2    1    1    2  501    0 -0.28769244670E+01  0.25990134385E+02  0.79756324679E+01  0.27338150870E+02  0.00000000000E+00 0. -1.
          1    1    1    2  502    0  0.28769244670E+01 -0.25990134385E+02 -0.12084480305E+04  0.12087309072E+04  0.00000000000E+00 0.  1.
</event>
<event>
 4    1  0.3927513E+003  0.2021570E+02  0.7546771E-02  0.1530763E+00
          2   -1    0    0  502    0  0.00000000000E+00  0.00000000000E+00  0.19542977959E+02  0.19542977959E+02  0.00000000000E+00 0.  1.
          1   -1    0    0  501    0 -0.00000000000E+00 -0.00000000000E+00 -0.11990259098E+03  0.11990259098E+03  0.00000000000E+00 0. -1.
          2    1    1    2  501    0  0.20089132951E+02 -0.22586312623E+01  0.13171897970E+02  0.24128273333E+02  0.00000000000E+00 0.  1.
          1    1    1    2  502    0 -0.20089132951E+02  0.22586312623E+01 -0.11353151099E+03  0.11531729561E+03  0.00000000000E+00 0. -1.
</event>
<event>
 4    1  0.3927513E+003  0.2787781E+02  0.7546771E-02  0.1438984E+00
          2   -1    0    0  502    0  0.00000000000E+00  0.00000000000E+00  0.72470424264E+02  0.72470424264E+02  0.00000000000E+00 0.  1.
          1   -1    0    0  501    0 -0.00000000000E+00 -0.00000000000E+00 -0.13840978655E+02  0.13840978655E+02  0.00000000000E+00 0.  1.
          2    1    1    2  501    0 -0.26383182937E+02  0.90055498158E+01  0.49794358813E+02  0.57067069655E+02  0.00000000000E+00 0.  1.
          1    1    1    2  502    0  0.26383182937E+02 -0.90055498158E+01  0.88350867953E+01  0.29244333264E+02  0.00000000000E+00 0.  1.
</event>
<event>
 4    1  0.3927513E+003  0.2015470E+02  0.7546771E-02  0.1531684E+00
          2   -1    0    0  502    0  0.00000000000E+00  0.00000000000E+00  0.28179302598E+03  0.28179302598E+03  0.00000000000E+00 0.  1.
          1   -1    0    0  501    0 -0.00000000000E+00 -0.00000000000E+00 -0.37080575314E+01  0.37080575314E+01  0.00000000000E+00 0. -1.
          2    1    1    2  501    0 -0.17975912073E+02 -0.91147503995E+01  0.25064792742E+03  0.25145694583E+03  0.00000000000E+00 0.  1.
          1    1    1    2  502    0  0.17975912073E+02  0.91147503995E+01  0.27437041036E+02  0.34044137682E+02  0.00000000000E+00 0. -1.
</event>
<event>
 4    1  0.3927513E+003  0.2059854E+02  0.7546771E-02  0.1525075E+00
          2   -1    0    0  502    0  0.00000000000E+00  0.00000000000E+00  0.11068755831E+03  0.11068755831E+03  0.00000000000E+00 0. -1.
          1   -1    0    0  501    0 -0.00000000000E+00 -0.00000000000E+00 -0.14387653780E+02  0.14387653780E+02  0.00000000000E+00 0. -1.
          2    1    1    2  501    0  0.14791065660E+02  0.14336111385E+02  0.10171258101E+03  0.10377740047E+03  0.00000000000E+00 0. -1.
          1    1    1    2  502    0 -0.14791065660E+02 -0.14336111385E+02 -0.54126764805E+01  0.21297811617E+02  0.00000000000E+00 0. -1.
</event>
<event>
 4    1  0.3927513E+003  0.2914124E+02  0.7546771E-02  0.1427209E+00
          2   -1    0    0  502    0  0.00000000000E+00  0.00000000000E+00  0.61413539906E+03  0.61413539906E+03  0.00000000000E+00 0. -1.
          1   -1    0    0  501    0 -0.00000000000E+00 -0.00000000000E+00 -0.32278790881E+01  0.32278790881E+01  0.00000000000E+00 0. -1.
          2    1    1    2  501    0 -0.72212877599E+01  0.28232338907E+02  0.53883311502E+03  0.53962054983E+03  0.00000000000E+00 0. -1.
          1    1    1    2  502    0  0.72212877599E+01 -0.28232338907E+02  0.72074404944E+02  0.77742728310E+02  0.00000000000E+00 0. -1.
</event>
<event>
 4    1  0.3927513E+003  0.2331573E+02  0.7546771E-02  0.1488571E+00
          2   -1    0    0  502    0  0.00000000000E+00  0.00000000000E+00  0.11670409501E+03  0.11670409501E+03  0.00000000000E+00 0.  1.
          1   -1    0    0  501    0 -0.00000000000E+00 -0.00000000000E+00 -0.17025309949E+02  0.17025309949E+02  0.00000000000E+00 0.  1.
          2    1    1    2  501    0 -0.61563200925E-01  0.23315645801E+02  0.10682756112E+03  0.10934235659E+03  0.00000000000E+00 0.  1.
          1    1    1    2  502    0  0.61563200925E-01 -0.23315645801E+02 -0.71487760592E+01  0.24387048372E+02  0.00000000000E+00 0.  1.
</event>
<event>
 4    1  0.3927513E+003  0.2982195E+02  0.7546771E-02  0.1421150E+00
          2   -1    0    0  502    0  0.00000000000E+00  0.00000000000E+00  0.12708403988E+04  0.12708403988E+04  0.00000000000E+00 0. -1.
          1   -1    0    0  501    0 -0.00000000000E+00 -0.00000000000E+00 -0.43378191143E+01  0.43378191143E+01  0.00000000000E+00 0.  1.
          2    1    1    2  501    0 -0.17045357965E+02 -0.24470480861E+02  0.12171492739E+04  0.12175145599E+04  0.00000000000E+00 0. -1.
          1    1    1    2  502    0  0.17045357965E+02  0.24470480861E+02  0.49353305810E+02  0.57663658019E+02  0.00000000000E+00 0.  1.
</event>
<event>
 4    1  0.3927513E+003  0.2059131E+02  0.7546771E-02  0.1525181E+00
          2   -1    0    0  502    0  0.00000000000E+00  0.00000000000E+00  0.63709673044E+02  0.63709673044E+02  0.00000000000E+00 0.  1.
          1   -1    0    0  501    0 -0.00000000000E+00 -0.00000000000E+00 -0.48325522395E+02  0.48325522395E+02  0.00000000000E+00 0. -1.
          2    1    1    2  501    0  0.20428067758E+02  0.25876835997E+01  0.59709579893E+02  0.63160398904E+02  0.00000000000E+00 0.  1.
          1    1    1    2  502    0 -0.20428067758E+02 -0.25876835997E+01 -0.44325429244E+02  0.48874796536E+02  0.00000000000E+00 0. -1.
</event>
<event>
 4    1  0.3927513E+003  0.3781842E+02  0.7546771E-02  0.1361767E+00
          2   -1    0    0  502    0  0.00000000000E+00  0.00000000000E+00  0.18416566309E+03  0.18416566309E+03  0.00000000000E+00 0. -1.
          1   -1    0    0  501    0 -0.00000000000E+00 -0.00000000000E+00 -0.13822966187E+02  0.13822966187E+02  0.00000000000E+00 0. -1.
          2    1    1    2  501    0 -0.29804190722E+02 -0.23279671274E+02  0.15070083266E+03  0.15537365879E+03  0.00000000000E+00 0. -1.
          1    1    1    2  502    0  0.29804190722E+02  0.23279671274E+02  0.19641864241E+02  0.42614970493E+02  0.00000000000E+00 0. -1.
</event>
<event>
 4    1  0.3927513E+003  0.3466473E+02  0.7546771E-02  0.1382936E+00
          2   -1    0    0  502    0  0.00000000000E+00  0.00000000000E+00  0.98975695582E+00  0.98975695582E+00  0.00000000000E+00 0.  1.
          1   -1    0    0  501    0 -0.00000000000E+00 -0.00000000000E+00 -0.15600661538E+04  0.15600661538E+04  0.00000000000E+00 0.  1.
          2    1    1    2  501    0  0.77994155083E+00 -0.34655954389E+02 -0.41196255917E+03  0.41341842441E+03  0.00000000000E+00 0.  1.
          1    1    1    2  502    0 -0.77994155083E+00  0.34655954389E+02 -0.11471138377E+04  0.11476374864E+04  0.00000000000E+00 0.  1.
</event>
<event>
 4    1  0.3927513E+003  0.2340143E+02  0.7546771E-02  0.1487518E+00
          2   -1    0    0  502    0  0.00000000000E+00  0.00000000000E+00  0.57267044444E+03  0.57267044444E+03  0.00000000000E+00 0.  1.
          1   -1    0    0  501    0 -0.00000000000E+00 -0.00000000000E+00 -0.80876150546E+01  0.80876150546E+01  0.00000000000E+00 0.  1.
          2    1    1    2  501    0 -0.20788867561E+02 -0.10744772180E+02  0.55496355150E+03  0.55545672256E+03  0.00000000000E+00 0.  1.
          1    1    1    2  502    0  0.20788867561E+02  0.10744772180E+02  0.96192778861E+01  0.25301336935E+02  0.00000000000E+00 0.  1.
</event>
<event>
 4    1  0.3927513E+003  0.2140024E+02  0.7546771E-02  0.1513627E+00
          2   -1    0    0  502    0  0.00000000000E+00  0.00000000000E+00  0.49303845854E+03  0.49303845854E+03  0.00000000000E+00 0.  1.
          1   -1    0    0  501    0 -0.00000000000E+00 -0.00000000000E+00 -0.11023292435E+02  0.11023292435E+02  0.00000000000E+00 0.  1.
          2    1    1    2  501    0  0.19050389515E+02 -0.97495136988E+01  0.48218616981E+03  0.48266082575E+03  0.00000000000E+00 0.  1.
          1    1    1    2  502    0 -0.19050389515E+02  0.97495136988E+01 -0.17100370753E+00  0.21400925221E+02  0.00000000000E+00 0.  1.
</event>
<event>
 4    1  0.3927513E+003  0.2009135E+02  0.7546771E-02  0.1532644E+00
          2   -1    0    0  502    0  0.00000000000E+00  0.00000000000E+00  0.10082233716E+04  0.10082233716E+04  0.00000000000E+00 0. -1.
          1   -1    0    0  501    0 -0.00000000000E+00 -0.00000000000E+00 -0.15306120183E+01  0.15306120183E+01  0.00000000000E+00 0.  1.
          2    1    1    2  501    0  0.13422695316E+02 -0.14949704083E+02  0.93719552127E+03  0.93741085309E+03  0.00000000000E+00 0. -1.
          1    1    1    2  502    0 -0.13422695316E+02  0.14949704083E+02  0.69497238307E+02  0.72343130524E+02  0.00000000000E+00 0.  1.
</event>
<event>
 4    1  0.3927513E+003  0.3157335E+02  0.7546771E-02  0.1406400E+00
          2   -1    0    0  502    0  0.00000000000E+00  0.00000000000E+00  0.13355387550E+03  0.13355387550E+03  0.00000000000E+00 0. -1.
          1   -1    0    0  501    0 -0.00000000000E+00 -0.00000000000E+00 -0.12929147594E+04  0.12929147594E+04  0.00000000000E+00 0. -1.
          2    1    1    2  501    0  0.27114372755E+02  0.16176750113E+02  0.13149208107E+03  0.13522959676E+03  0.00000000000E+00 0. -1.
          1    1    1    2  502    0 -0.27114372755E+02 -0.16176750113E+02 -0.12908529649E+04  0.12912390381E+04  0.00000000000E+00 0. -1.
</event>
<event>
 4    1  0.3927513E+003  0.2224007E+02  0.7546771E-02  0.1502268E+00
          2   -1    0    0  502    0  0.00000000000E+00  0.00000000000E+00  0.21754320129E+03  0.21754320129E+03  0.00000000000E+00 0.  1.
          1   -1    0    0  501    0 -0.00000000000E+00 -0.00000000000E+00 -0.19101995823E+02  0.19101995823E+02  0.00000000000E+00 0.  1.
          2    1    1    2  501    0  0.15929595857E+02  0.15519951489E+02  0.21027833818E+03  0.21145117740E+03  0.00000000000E+00 0.  1.
          1    1    1    2  502    0 -0.15929595857E+02 -0.15519951489E+02 -0.11837132710E+02  0.25194019711E+02  0.00000000000E+00 0.  1.
</event>
<event>
 4    1  0.3927513E+003  0.2496578E+02  0.7546771E-02  0.1469187E+00
          2   -1    0    0  502    0  0.00000000000E+00  0.00000000000E+00  0.57457424495E+02  0.57457424495E+02  0.00000000000E+00 0.  1.
          1   -1    0    0  501    0 -0.00000000000E+00 -0.00000000000E+00 -0.54533035962E+02  0.54533035962E+02  0.00000000000E+00 0.  1.
          2    1    1    2  501    0 -0.18553369126E+02  0.16705167455E+02  0.51579560354E+02  0.57303936793E+02  0.00000000000E+00 0.  1.
          1    1    1    2  502    0  0.18553369126E+02 -0.16705167455E+02 -0.48655171820E+02  0.54686523664E+02  0.00000000000E+00 0.  1.
</event>
<event>
 4    1  0.3927513E+003  0.4849782E+02  0.7546771E-02  0.1304820E+00
          2   -1    0    0  502    0  0.00000000000E+00  0.00000000000E+00  0.15815591476E+03  0.15815591476E+03  0.00000000000E+00 0.  1.
          1   -1    0    0  501    0 -0.00000000000E+00 -0.00000000000E+00 -0.53656758803E+02  0.53656758803E+02  0.00000000000E+00 0. -1.
          2    1    1    2  501    0  0.71373824433E+01 -0.47969745636E+02  0.14229098237E+03  0.15032884750E+03  0.00000000000E+00 0.  1.
          1    1    1    2  502    0 -0.71373824433E+01  0.47969745636E+02 -0.37791826413E+02  0.61483826070E+02  0.00000000000E+00 0. -1.
</event>
<event>
 4    1  0.3927513E+003  0.4155608E+02  0.7546771E-02  0.1339601E+00
          2   -1    0    0  502    0  0.00000000000E+00  0.00000000000E+00  0.13465000372E+04  0.13465000372E+04  0.00000000000E+00 0.  1.
          1   -1    0    0  501    0 -0.00000000000E+00 -0.00000000000E+00 -0.13214511237E+01  0.13214511237E+01  0.00000000000E+00 0.  1.
          2    1    1    2  501    0 -0.24603015293E+02  0.33490284233E+02  0.78826682787E+03  0.78936145043E+03  0.00000000000E+00 0.  1.
          1    1    1    2  502    0  0.24603015293E+02 -0.33490284233E+02  0.55691175822E+03  0.55846003791E+03  0.00000000000E+00 0.  1.
</event>
<event>
 4    1  0.3927513E+003  0.2116047E+02  0.7546771E-02  0.1516986E+00
          2   -1    0    0  502    0  0.00000000000E+00  0.00000000000E+00  0.17061899912E+04  0.17061899912E+04  0.00000000000E+00 0.  1.
          1   -1    0    0  501    0 -0.00000000000E+00 -0.00000000000E+00 -0.29246474337E+00  0.29246474337E+00  0.00000000000E+00 0.  1.
          2    1    1    2  501    0  0.18721144443E+02 -0.98632695006E+01  0.11263529124E+04  0.11265516627E+04  0.00000000000E+00 0.  1.
          1    1    1    2  502    0 -0.18721144443E+02  0.98632695006E+01  0.57954461402E+03  0.57993079326E+03  0.00000000000E+00 0.  1.
</event>
<event>
 4    1  0.3927513E+003  0.3706926E+02  0.7546771E-02  0.1366572E+00
          2   -1    0    0  502    0  0.00000000000E+00  0.00000000000E+00  0.16494984192E+04  0.16494984192E+04  0.00000000000E+00 0.  1.
          1   -1    0    0  501    0 -0.00000000000E+00 -0.00000000000E+00 -0.12300066702E+03  0.12300066702E+03  0.00000000000E+00 0. -1.
          2    1    1    2  501    0  0.11275192601E+02 -0.35312890803E+02  0.16464921230E+04  0.16469093603E+04  0.00000000000E+00 0.  1.
          1    1    1    2  502    0 -0.11275192601E+02  0.35312890803E+02 -0.11999437078E+03  0.12558972587E+03  0.00000000000E+00 0. -1.
</event>
<event>
 4    1  0.3927513E+003  0.2466190E+02  0.7546771E-02  0.1472621E+00
          2   -1    0    0  502    0  0.00000000000E+00  0.00000000000E+00  0.22626120868E+01  0.22626120868E+01  0.00000000000E+00 0. -1.
          1   -1    0    0  501    0 -0.00000000000E+00 -0.00000000000E+00 -0.81830887613E+03  0.81830887613E+03  0.00000000000E+00 0. -1.
          2    1    1    2  501    0  0.16694238590E+02  0.18152458104E+02 -0.71812225750E+02  0.75928947737E+02  0.00000000000E+00 0. -1.
          1    1    1    2  502    0 -0.16694238590E+02 -0.18152458104E+02 -0.74423403830E+03  0.74464254048E+03  0.00000000000E+00 0. -1.
</event>
<event>
 4    1  0.3927513E+003  0.2716422E+02  0.7546771E-02  0.1445965E+00
          2   -1    0    0  502    0  0.00000000000E+00  0.00000000000E+00  0.42221916731E+01  0.42221916731E+01  0.00000000000E+00 0.  1.
          1   -1    0    0  501    0 -0.00000000000E+00 -0.00000000000E+00 -0.51413912636E+03  0.51413912636E+03  0.00000000000E+00 0. -1.
          2    1    1    2  501    0  0.17882570415E+02  0.20447695855E+02 -0.44386219988E+02  0.52038746288E+02  0.00000000000E+00 0.  1.
          1    1    1    2  502    0 -0.17882570415E+02 -0.20447695855E+02 -0.46553071470E+03  0.46632257174E+03  0.00000000000E+00 0. -1.
</event>
<event>
 4    1  0.3927513E+003  0.2808836E+02  0.7546771E-02  0.1436971E+00
          2   -1    0    0  502    0  0.00000000000E+00  0.00000000000E+00  0.64848901963E+03  0.64848901963E+03  0.00000000000E+00 0.  1.
          1   -1    0    0  501    0 -0.00000000000E+00 -0.00000000000E+00 -0.58727163627E+01  0.58727163627E+01  0.00000000000E+00 0. -1.
          2    1    1    2  501    0  0.26989435881E+02 -0.77798549645E+01  0.61263466325E+03  0.61327822920E+03  0.00000000000E+00 0.  1.
          1    1    1    2  502    0 -0.26989435881E+02  0.77798549645E+01  0.29981640015E+02  0.41083506793E+02  0.00000000000E+00 0. -1.
</event>
<event>
 4    1  0.3927513E+003  0.2109400E+02  0.7546771E-02  0.1517927E+00
          2   -1    0    0  502    0  0.00000000000E+00  0.00000000000E+00  0.12897087046E+03  0.12897087046E+03  0.00000000000E+00 0.  1.
          1   -1    0    0  501    0 -0.00000000000E+00 -0.00000000000E+00 -0.51429594765E+01  0.51429594765E+01  0.00000000000E+00 0.  1.
          2    1    1    2  501    0  0.20772120408E+02  0.36709601129E+01  0.10038667699E+03  0.10257895423E+03  0.00000000000E+00 0.  1.
          1    1    1    2  502    0 -0.20772120408E+02 -0.36709601129E+01  0.23441233987E+02  0.31534875697E+02  0.00000000000E+00 0.  1.
</event>
<event>
 4    1  0.3927513E+003  0.3445530E+02  0.7546771E-02  0.1384433E+00
          2   -1    0    0  502    0  0.00000000000E+00  0.00000000000E+00  0.11055829519E+04  0.11055829519E+04  0.00000000000E+00 0. -1.
          1   -1    0    0  501    0 -0.00000000000E+00 -0.00000000000E+00 -0.15960509897E+01  0.15960509897E+01  0.00000000000E+00 0. -1.
          2    1    1    2  501    0 -0.29781393773E+02  0.17327331777E+02  0.86866334872E+03  0.86934641039E+03  0.00000000000E+00 0. -1.
          1    1    1    2  502    0  0.29781393773E+02 -0.17327331777E+02  0.23532355219E+03  0.23783259251E+03  0.00000000000E+00 0. -1.
</event>
<event>
 4    1  0.3927513E+003  0.2004900E+02  0.7546771E-02  0.1533288E+00
          2   -1    0    0  502    0  0.00000000000E+00  0.00000000000E+00  0.29279592010E+03  0.29279592010E+03  0.00000000000E+00 0. -1.
          1   -1    0    0  501    0 -0.00000000000E+00 -0.00000000000E+00 -0.15360123380E+01  0.15360123380E+01  0.00000000000E+00 0. -1.
          2    1    1    2  501    0  0.19274676708E+02 -0.55180548653E+01  0.97664046708E+02  0.99700692630E+02  0.00000000000E+00 0. -1.
          1    1    1    2  502    0 -0.19274676708E+02  0.55180548653E+01  0.19359586105E+03  0.19463123981E+03  0.00000000000E+00 0. -1.
</event>
<event>
 4    1  0.3927513E+003  0.2603617E+02  0.7546771E-02  0.1457538E+00
          2   -1    0    0  502    0  0.00000000000E+00  0.00000000000E+00  0.32357199269E+02  0.32357199269E+02  0.00000000000E+00 0. -1.
          1   -1    0    0  501    0 -0.00000000000E+00 -0.00000000000E+00 -0.36012290743E+03  0.36012290743E+03  0.00000000000E+00 0. -1.
          2    1    1    2  501    0 -0.22599642356E+02  0.12928192889E+02  0.26563596344E+02  0.37195519310E+02  0.00000000000E+00 0. -1.
          1    1    1    2  502    0  0.22599642356E+02 -0.12928192889E+02 -0.35432930450E+03  0.35528458739E+03  0.00000000000E+00 0. -1.
</event>
<event>
 4    1  0.3927513E+003  0.2497297E+02  0.7546771E-02  0.1469106E+00
          2   -1    0    0  502    0  0.00000000000E+00  0.00000000000E+00  0.35670225280E+01  0.35670225280E+01  0.00000000000E+00 0.  1.
          1   -1    0    0  501    0 -0.00000000000E+00 -0.00000000000E+00 -0.11586891738E+04  0.11586891738E+04  0.00000000000E+00 0. -1.
          2    1    1    2  501    0 -0.24600776542E+02  0.42954826349E+01 -0.42068801172E+02  0.48922728967E+02  0.00000000000E+00 0.  1.
          1    1    1    2  502    0  0.24600776542E+02 -0.42954826349E+01 -0.11130533501E+04  0.11133334673E+04  0.00000000000E+00 0. -1.
</event>
<event>
 4    1  0.3927513E+003  0.3424515E+02  0.7546771E-02  0.1385949E+00
          2   -1    0    0  502    0  0.00000000000E+00  0.00000000000E+00  0.68907083940E+03  0.68907083940E+03  0.00000000000E+00 0.  1.
          1   -1    0    0  501    0 -0.00000000000E+00 -0.00000000000E+00 -0.29281758430E+03  0.29281758430E+03  0.00000000000E+00 0. -1.
          2    1    1    2  501    0 -0.29246380087E+02 -0.17815148352E+02  0.68764203862E+03  0.68849422912E+03  0.00000000000E+00 0.  1.
          1    1    1    2  502    0  0.29246380087E+02  0.17815148352E+02 -0.29138878351E+03  0.29339419459E+03  0.00000000000E+00 0. -1.
</event>
<event>
 4    1  0.3927513E+003  0.2463492E+02  0.7546771E-02  0.1472929E+00
          2   -1    0    0  502    0  0.00000000000E+00  0.00000000000E+00  0.19127145108E+04  0.19127145108E+04  0.00000000000E+00 0.  1.
          1   -1    0    0  501    0 -0.00000000000E+00 -0.00000000000E+00 -0.18193219813E+01  0.18193219813E+01  0.00000000000E+00 0.  1.
          2    1    1    2  501    0 -0.24122715554E+02  0.49973779223E+01  0.18252454035E+04  0.18254116418E+04  0.00000000000E+00 0.  1.
          1    1    1    2  502    0  0.24122715554E+02 -0.49973779223E+01  0.85649785312E+02  0.89122190928E+02  0.00000000000E+00 0.  1.
</event>
<event>
 4    1  0.3927513E+003  0.2121743E+02  0.7546771E-02  0.1516183E+00
          2   -1    0    0  502    0  0.00000000000E+00  0.00000000000E+00  0.10559404107E+03  0.10559404107E+03  0.00000000000E+00 0. -1.
          1   -1    0    0  501    0 -0.00000000000E+00 -0.00000000000E+00 -0.71209490449E+02  0.71209490449E+02  0.00000000000E+00 0. -1.
          2    1    1    2  501    0 -0.39351845305E+01  0.20849312608E+02  0.10290689876E+03  0.10507144868E+03  0.00000000000E+00 0. -1.
          1    1    1    2  502    0  0.39351845305E+01 -0.20849312608E+02 -0.68522348145E+02  0.71732082842E+02  0.00000000000E+00 0. -1.
</event>
<event>
 4    1  0.3927513E+003  0.2460686E+02  0.7546771E-02  0.1473250E+00
          2   -1    0    0  502    0  0.00000000000E+00  0.00000000000E+00  0.26169990556E+03  0.26169990556E+03  0.00000000000E+00 0.  1.
          1   -1    0    0  501    0 -0.00000000000E+00 -0.00000000000E+00 -0.28448340897E+01  0.28448340897E+01  0.00000000000E+00 0.  1.
          2    1    1    2  501    0 -0.24141507593E+02  0.47628785974E+01  0.18658054620E+03  0.18819616792E+03  0.00000000000E+00 0.  1.
          1    1    1    2  502    0  0.24141507593E+02 -0.47628785974E+01  0.72274525275E+02  0.76348571730E+02  0.00000000000E+00 0.  1.
</event>
<event>
 4    1  0.3927513E+003  0.2791587E+02  0.7546771E-02  0.1438619E+00
          2   -1    0    0  502    0  0.00000000000E+00  0.00000000000E+00  0.21742692530E+03  0.21742692530E+03  0.00000000000E+00 0. -1.
          1   -1    0    0  501    0 -0.00000000000E+00 -0.00000000000E+00 -0.53149816262E+03  0.53149816262E+03  0.00000000000E+00 0. -1.
          2    1    1    2  501    0 -0.27873540983E+02  0.15367705232E+01  0.21616218970E+03  0.21795730822E+03  0.00000000000E+00 0. -1.
          1    1    1    2  502    0  0.27873540983E+02 -0.15367705232E+01 -0.53023342702E+03  0.53096777970E+03  0.00000000000E+00 0. -1.
</event>
<event>
 4    1  0.3927513E+003  0.2056663E+02  0.7546771E-02  0.1525543E+00
          2   -1    0    0  502    0  0.00000000000E+00  0.00000000000E+00  0.91338523325E+02  0.91338523325E+02  0.00000000000E+00 0. -1.
          1   -1    0    0  501    0 -0.00000000000E+00 -0.00000000000E+00 -0.46280818289E+02  0.46280818289E+02  0.00000000000E+00 0. -1.
          2    1    1    2  501    0  0.17500737571E+01  0.20492038322E+02  0.87805171031E+02  0.90181674705E+02  0.00000000000E+00 0. -1.
          1    1    1    2  502    0 -0.17500737571E+01 -0.20492038322E+02 -0.42747465995E+02  0.47437666909E+02  0.00000000000E+00 0. -1.
</event>
<event>
 4    1  0.3927513E+003  0.2091141E+02  0.7546771E-02  0.1520533E+00
          2   -1    0    0  502    0  0.00000000000E+00  0.00000000000E+00  0.10040658488E+04  0.10040658488E+04  0.00000000000E+00 0. -1.
          1   -1    0    0  501    0 -0.00000000000E+00 -0.00000000000E+00 -0.37320559300E+01  0.37320559300E+01  0.00000000000E+00 0. -1.
          2    1    1    2  501    0  0.14800967166E+02 -0.14772224672E+02  0.97375253123E+03  0.97397704251E+03  0.00000000000E+00 0. -1.
          1    1    1    2  502    0 -0.14800967166E+02  0.14772224672E+02  0.26581261610E+02  0.33820862195E+02  0.00000000000E+00 0. -1.
</event>
<event>
 4    1  0.3927513E+003  0.2083335E+02  0.7546771E-02  0.1521658E+00
          2   -1    0    0  502    0  0.00000000000E+00  0.00000000000E+00  0.33424168094E+03  0.33424168094E+03  0.00000000000E+00 0.  1.
          1   -1    0    0  501    0 -0.00000000000E+00 -0.00000000000E+00 -0.30445662346E+01  0.30445662346E+01  0.00000000000E+00 0. -1.
          2    1    1    2  501    0 -0.10771517831E+02  0.17832637298E+02  0.29331018200E+03  0.29404913095E+03  0.00000000000E+00 0.  1.
          1    1    1    2  502    0  0.10771517831E+02 -0.17832637298E+02  0.37886932712E+02  0.43237116228E+02  0.00000000000E+00 0. -1.
</event>
<event>
 4    1  0.3927513E+003  0.2735652E+02  0.7546771E-02  0.1444059E+00
          2   -1    0    0  502    0  0.00000000000E+00  0.00000000000E+00  0.54636811737E+03  0.54636811737E+03  0.00000000000E+00 0.  1.
          1   -1    0    0  501    0 -0.00000000000E+00 -0.00000000000E+00 -0.56676230857E+01  0.56676230857E+01  0.00000000000E+00 0.  1.
          2    1    1    2  501    0 -0.27090395159E+02  0.38065209588E+01  0.51071141775E+03  0.51144357591E+03  0.00000000000E+00 0.  1.
          1    1    1    2  502    0  0.27090395159E+02 -0.38065209588E+01  0.29989076532E+02  0.40592164551E+02  0.00000000000E+00 0.  1.
</event>
<event>
 4    1  0.3927513E+003  0.2936306E+02  0.7546771E-02  0.1425213E+00
          2   -1    0    0  502    0  0.00000000000E+00  0.00000000000E+00  0.22443372040E+03  0.22443372040E+03  0.00000000000E+00 0.  1.
          1   -1    0    0  501    0 -0.00000000000E+00 -0.00000000000E+00 -0.94333739792E+01  0.94333739792E+01  0.00000000000E+00 0.  1.
          2    1    1    2  501    0  0.14789258127E+02 -0.25366659515E+02  0.19752857471E+03  0.19969909213E+03  0.00000000000E+00 0.  1.
          1    1    1    2  502    0 -0.14789258127E+02  0.25366659515E+02  0.17471771710E+02  0.34168002248E+02  0.00000000000E+00 0.  1.
</event>
<event>
 4    1  0.3927513E+003  0.3044961E+02  0.7546771E-02  0.1415729E+00
          2   -1    0    0  502    0  0.00000000000E+00  0.00000000000E+00  0.10408709067E+02  0.10408709067E+02  0.00000000000E+00 0.  1.
          1   -1    0    0  501    0 -0.00000000000E+00 -0.00000000000E+00 -0.20511401322E+03  0.20511401322E+03  0.00000000000E+00 0. -1.
          2    1    1    2  501    0 -0.17472665105E+02 -0.24937611309E+02 -0.16300727720E+02  0.34538271640E+02  0.00000000000E+00 0.  1.
          1    1    1    2  502    0  0.17472665105E+02  0.24937611309E+02 -0.17840457643E+03  0.18098445065E+03  0.00000000000E+00 0. -1.
</event>
<event>
 4    1  0.3927513E+003  0.4843508E+02  0.7546771E-02  0.1305104E+00
          2   -1    0    0  502    0  0.00000000000E+00  0.00000000000E+00  0.47635224388E+03  0.47635224388E+03  0.00000000000E+00 0.  1.
          1   -1    0    0  501    0 -0.00000000000E+00 -0.00000000000E+00 -0.10534552163E+03  0.10534552163E+03  0.00000000000E+00 0. -1.
          2    1    1    2  501    0 -0.43103342040E+02 -0.22092049429E+02  0.46947237397E+03  0.47196426418E+03  0.00000000000E+00 0.  1.
          1    1    1    2  502    0  0.43103342040E+02  0.22092049429E+02 -0.98465651726E+02  0.10973350132E+03  0.00000000000E+00 0. -1.
</event>
<event>
 4    1  0.3927513E+003  0.1047323E+03  0.7546771E-02  0.1155851E+00
          2   -1    0    0  502    0  0.00000000000E+00  0.00000000000E+00  0.33429880918E+02  0.33429880918E+02  0.00000000000E+00 0. -1.
          1   -1    0    0  501    0 -0.00000000000E+00 -0.00000000000E+00 -0.36185131119E+03  0.36185131119E+03  0.00000000000E+00 0. -1.
          2    1    1    2  501    0 -0.10322546268E+03  0.17702049865E+02 -0.10386348951E+03  0.14750079040E+03  0.00000000000E+00 0. -1.
          1    1    1    2  502    0  0.10322546268E+03 -0.17702049865E+02 -0.22455794076E+03  0.24778040171E+03  0.00000000000E+00 0. -1.
</event>
<event>
 4    1  0.3927513E+003  0.3108793E+02  0.7546771E-02  0.1410372E+00
          2   -1    0    0  502    0  0.00000000000E+00  0.00000000000E+00  0.40170566212E+03  0.40170566212E+03  0.00000000000E+00 0.  1.
          1   -1    0    0  501    0 -0.00000000000E+00 -0.00000000000E+00 -0.84913416156E+01  0.84913416156E+01  0.00000000000E+00 0.  1.
          2    1    1    2  501    0 -0.29445172856E+02 -0.99720074958E+01  0.37023556796E+03  0.37153847031E+03  0.00000000000E+00 0.  1.
          1    1    1    2  502    0  0.29445172856E+02  0.99720074958E+01  0.22978752542E+02  0.38658533422E+02  0.00000000000E+00 0.  1.
</event>
<event>
 4    1  0.3927513E+003  0.2469459E+02  0.7546771E-02  0.1472249E+00
          2   -1    0    0  502    0  0.00000000000E+00  0.00000000000E+00  0.28402680490E+02  0.28402680490E+02  0.00000000000E+00 0.  1.
          1   -1    0    0  501    0 -0.00000000000E+00 -0.00000000000E+00 -0.14203838054E+03  0.14203838054E+03  0.00000000000E+00 0. -1.
          2    1    1    2  501    0  0.18537157682E+02 -0.16315525579E+02  0.21697941049E+02  0.32872834310E+02  0.00000000000E+00 0.  1.
          1    1    1    2  502    0 -0.18537157682E+02  0.16315525579E+02 -0.13533364110E+03  0.13756822672E+03  0.00000000000E+00 0. -1.
</event>
<event>
 4    1  0.3927513E+003  0.3197710E+02  0.7546771E-02  0.1403159E+00
          2   -1    0    0  502    0  0.00000000000E+00  0.00000000000E+00  0.43462485107E+02  0.43462485107E+02  0.00000000000E+00 0.  1.
          1   -1    0    0  501    0 -0.00000000000E+00 -0.00000000000E+00 -0.11008203472E+03  0.11008203472E+03  0.00000000000E+00 0. -1.
          2    1    1    2  501    0 -0.12916003537E+02 -0.29252548221E+02  0.34766013902E+02  0.47235690399E+02  0.00000000000E+00 0.  1.
          1    1    1    2  502    0  0.12916003537E+02  0.29252548221E+02 -0.10138556351E+03  0.10630882942E+03  0.00000000000E+00 0. -1.
</event>
<event>
 4    1  0.3927513E+003  0.2064580E+02  0.7546771E-02  0.1524383E+00
          2   -1    0    0  502    0  0.00000000000E+00  0.00000000000E+00  0.13364987561E+04  0.13364987561E+04  0.00000000000E+00 0.  1.
          1   -1    0    0  501    0 -0.00000000000E+00 -0.00000000000E+00 -0.66156654947E+00  0.66156654947E+00  0.00000000000E+00 0. -1.
          2    1    1    2  501    0 -0.12304675012E+02 -0.16578416610E+02  0.11490723243E+04  0.11492577846E+04  0.00000000000E+00 0.  1.
          1    1    1    2  502    0  0.12304675012E+02  0.16578416610E+02  0.18676486529E+03  0.18790253812E+03  0.00000000000E+00 0. -1.
</event>
<event>
 4    1  0.3927513E+003  0.2098388E+02  0.7546771E-02  0.1519495E+00
          2   -1    0    0  502    0  0.00000000000E+00  0.00000000000E+00  0.15313571444E+04  0.15313571444E+04  0.00000000000E+00 0. -1.
          1   -1    0    0  501    0 -0.00000000000E+00 -0.00000000000E+00 -0.29933392148E+01  0.29933392148E+01  0.00000000000E+00 0. -1.
          2    1    1    2  501    0  0.16895729547E+02 -0.12444170951E+02  0.14935799071E+04  0.14937273051E+04  0.00000000000E+00 0. -1.
          1    1    1    2  502    0 -0.16895729547E+02  0.12444170951E+02  0.34783898071E+02  0.40623178515E+02  0.00000000000E+00 0. -1.
</event>
<event>
 4    1  0.3927513E+003  0.2261531E+02  0.7546771E-02  0.1497386E+00
          2   -1    0    0  502    0  0.00000000000E+00  0.00000000000E+00  0.38339808078E+03  0.38339808078E+03  0.00000000000E+00 0. -1.
          1   -1    0    0  501    0 -0.00000000000E+00 -0.00000000000E+00 -0.36692549689E+01  0.36692549689E+01  0.00000000000E+00 0.  1.
          2    1    1    2  501    0  0.30038962908E+01 -0.22414926599E+02  0.34426000850E+03  0.34500203736E+03  0.00000000000E+00 0. -1.
          1    1    1    2  502    0 -0.30038962908E+01  0.22414926599E+02  0.35468817307E+02  0.42065298388E+02  0.00000000000E+00 0.  1.
</event>
<event>
 4    1  0.3927513E+003  0.2046092E+02  0.7546771E-02  0.1527103E+00
          2   -1    0    0  502    0  0.00000000000E+00  0.00000000000E+00  0.11185864334E+03  0.11185864334E+03  0.00000000000E+00 0.  1.
          1   -1    0    0  501    0 -0.00000000000E+00 -0.00000000000E+00 -0.55706487507E+01  0.55706487507E+01  0.00000000000E+00 0. -1.
          2    1    1    2  501    0 -0.39517262485E+01 -0.20075682754E+02  0.86778111256E+02  0.89157668046E+02  0.00000000000E+00 0.  1.
          1    1    1    2  502    0  0.39517262485E+01  0.20075682754E+02  0.19509883334E+02  0.28271624044E+02  0.00000000000E+00 0. -1.
</event>
<event>
 4    1  0.3927513E+003  0.7708929E+02  0.7546771E-02  0.1210771E+00
          2   -1    0    0  502    0  0.00000000000E+00  0.00000000000E+00  0.16791604803E+03  0.16791604803E+03  0.00000000000E+00 0.  1.
          1   -1    0    0  501    0 -0.00000000000E+00 -0.00000000000E+00 -0.33946685150E+03  0.33946685150E+03  0.00000000000E+00 0. -1.
          2    1    1    2  501    0  0.77037153150E+02  0.28348298041E+01  0.15432778804E+03  0.17251036313E+03  0.00000000000E+00 0.  1.
          1    1    1    2  502    0 -0.77037153150E+02 -0.28348298041E+01 -0.32587859151E+03  0.33487253640E+03  0.00000000000E+00 0. -1.
</event>
<event>
 4    1  0.3927513E+003  0.2770574E+02  0.7546771E-02  0.1440645E+00
          2   -1    0    0  502    0  0.00000000000E+00  0.00000000000E+00  0.88837686956E+03  0.88837686956E+03  0.00000000000E+00 0. -1.
          1   -1    0    0  501    0 -0.00000000000E+00 -0.00000000000E+00 -0.38017512190E+02  0.38017512190E+02  0.00000000000E+00 0. -1.
          2    1    1    2  501    0 -0.23957452754E+02  0.13915764183E+02  0.88308287557E+03  0.88351738701E+03  0.00000000000E+00 0. -1.
          1    1    1    2  502    0  0.23957452754E+02 -0.13915764183E+02 -0.32723518192E+02  0.42876994742E+02  0.00000000000E+00 0. -1.
</event>
<event>
 4    1  0.3927513E+003  0.2109288E+02  0.7546771E-02  0.1517943E+00
          2   -1    0    0  502    0  0.00000000000E+00  0.00000000000E+00  0.62577070246E+01  0.62577070246E+01  0.00000000000E+00 0.  1.
          1   -1    0    0  501    0 -0.00000000000E+00 -0.00000000000E+00 -0.35507175226E+03  0.35507175226E+03  0.00000000000E+00 0.  1.
          2    1    1    2  501    0 -0.13733740971E+01 -0.21048120950E+02 -0.12839329530E+02  0.24693277116E+02  0.00000000000E+00 0.  1.
          1    1    1    2  502    0  0.13733740971E+01  0.21048120950E+02 -0.33597471571E+03  0.33663618217E+03  0.00000000000E+00 0.  1.
</event>
<event>
 4    1  0.3927513E+003  0.2062749E+02  0.7546771E-02  0.1524650E+00
          2   -1    0    0  502    0  0.00000000000E+00  0.00000000000E+00  0.18195716614E+04  0.18195716614E+04  0.00000000000E+00 0.  1.
          1   -1    0    0  501    0 -0.00000000000E+00 -0.00000000000E+00 -0.24900776257E+00  0.24900776257E+00  0.00000000000E+00 0.  1.
          2    1    1    2  501    0  0.19067400231E+02  0.78693986789E+01  0.11342134234E+04  0.11344009798E+04  0.00000000000E+00 0.  1.
          1    1    1    2  502    0 -0.19067400231E+02 -0.78693986789E+01  0.68510923019E+03  0.68541968930E+03  0.00000000000E+00 0.  1.
</event>
<event>
 4    1  0.3927513E+003  0.2868793E+02  0.7546771E-02  0.1431352E+00
          2   -1    0    0  502    0  0.00000000000E+00  0.00000000000E+00  0.11522734268E+04  0.11522734268E+04  0.00000000000E+00 0.  1.
          1   -1    0    0  501    0 -0.00000000000E+00 -0.00000000000E+00 -0.12772163686E+01  0.12772163686E+01  0.00000000000E+00 0.  1.
          2    1    1    2  501    0  0.27523191079E+02  0.80914298992E+01  0.95842894791E+03  0.95885819884E+03  0.00000000000E+00 0.  1.
          1    1    1    2  502    0 -0.27523191079E+02 -0.80914298992E+01  0.19256726255E+03  0.19469244436E+03  0.00000000000E+00 0.  1.
</event>
<event>
 4    1  0.3927513E+003  0.2437760E+02  0.7546771E-02  0.1475888E+00
          2   -1    0    0  502    0  0.00000000000E+00  0.00000000000E+00  0.33199228890E+03  0.33199228890E+03  0.00000000000E+00 0. -1.
          1   -1    0    0  501    0 -0.00000000000E+00 -0.00000000000E+00 -0.10394631986E+02  0.10394631986E+02  0.00000000000E+00 0.  1.
          2    1    1    2  501    0 -0.21140450179E+02  0.12138733297E+02  0.31655621963E+03  0.31749347657E+03  0.00000000000E+00 0. -1.
          1    1    1    2  502    0  0.21140450179E+02 -0.12138733297E+02  0.50414372823E+01  0.24893444312E+02  0.00000000000E+00 0.  1.
</event>
<event>
 4    1  0.3927513E+003  0.2572774E+02  0.7546771E-02  0.1460824E+00
          2   -1    0    0  502    0  0.00000000000E+00  0.00000000000E+00  0.81374249772E+03  0.81374249772E+03  0.00000000000E+00 0.  1.
          1   -1    0    0  501    0 -0.00000000000E+00 -0.00000000000E+00 -0.97776542904E+00  0.97776542904E+00  0.00000000000E+00 0.  1.
          2    1    1    2  501    0  0.25593924061E+02 -0.26206241332E+01  0.57339004130E+03  0.57396694685E+03  0.00000000000E+00 0.  1.
          1    1    1    2  502    0 -0.25593924061E+02  0.26206241332E+01  0.23937469099E+03  0.24075331630E+03  0.00000000000E+00 0.  1.
</event>
<event>
 4    1  0.3927513E+003  0.2166944E+02  0.7546771E-02  0.1509918E+00
          2   -1    0    0  502    0  0.00000000000E+00  0.00000000000E+00  0.79760494047E+03  0.79760494047E+03  0.00000000000E+00 0. -1.
          1   -1    0    0  501    0 -0.00000000000E+00 -0.00000000000E+00 -0.40726696367E+01  0.40726696367E+01  0.00000000000E+00 0. -1.
          2    1    1    2  501    0  0.10630808632E+02 -0.18882549228E+02  0.76750336232E+03  0.76780920543E+03  0.00000000000E+00 0. -1.
          1    1    1    2  502    0 -0.10630808632E+02  0.18882549228E+02  0.26028908512E+02  0.33868404684E+02  0.00000000000E+00 0. -1.
</event>
<event>
 4    1  0.3927513E+003  0.2134225E+02  0.7546771E-02  0.1514434E+00
          2   -1    0    0  502    0  0.00000000000E+00  0.00000000000E+00  0.16114149356E+04  0.16114149356E+04  0.00000000000E+00 0.  1.
          1   -1    0    0  501    0 -0.00000000000E+00 -0.00000000000E+00 -0.10731682384E+01  0.10731682384E+01  0.00000000000E+00 0. -1.
          2    1    1    2  501    0  0.12630367358E+02 -0.17203652357E+02  0.14971360541E+04  0.14972881674E+04  0.00000000000E+00 0.  1.
          1    1    1    2  502    0 -0.12630367358E+02  0.17203652357E+02  0.11320571331E+03  0.11519993646E+03  0.00000000000E+00 0. -1.
</event>
<event>
 4    1  0.3927513E+003  0.2309229E+02  0.7546771E-02  0.1491342E+00
          2   -1    0    0  502    0  0.00000000000E+00  0.00000000000E+00  0.13150837923E+02  0.13150837923E+02  0.00000000000E+00 0. -1.
          1   -1    0    0  501    0 -0.00000000000E+00 -0.00000000000E+00 -0.12614544039E+03  0.12614544039E+03  0.00000000000E+00 0. -1.
          2    1    1    2  501    0  0.17421705556E+02 -0.15157117658E+02  0.87489214186E+00  0.23108861426E+02  0.00000000000E+00 0. -1.
          1    1    1    2  502    0 -0.17421705556E+02  0.15157117658E+02 -0.11386949461E+03  0.11618741689E+03  0.00000000000E+00 0. -1.
</event>
<event>
 4    1  0.3927513E+003  0.5898024E+02  0.7546771E-02  0.1263337E+00
          2   -1    0    0  502    0  0.00000000000E+00  0.00000000000E+00  0.10834306333E+04  0.10834306333E+04  0.00000000000E+00 0. -1.
          1   -1    0    0  501    0 -0.00000000000E+00 -0.00000000000E+00 -0.53158823432E+01  0.53158823432E+01  0.00000000000E+00 0.  1.
          2    1    1    2  501    0 -0.15412278260E+02  0.56930923214E+02  0.88162370084E+03  0.88359437425E+03  0.00000000000E+00 0. -1.
          1    1    1    2  502    0  0.15412278260E+02 -0.56930923214E+02  0.19649105015E+03  0.20515214142E+03  0.00000000000E+00 0.  1.
</event>
<event>
 4    1  0.3927513E+003  0.3058185E+02  0.7546771E-02  0.1414606E+00
          2   -1    0    0  502    0  0.00000000000E+00  0.00000000000E+00  0.47848776102E+02  0.47848776102E+02  0.00000000000E+00 0. -1.
          1   -1    0    0  501    0 -0.00000000000E+00 -0.00000000000E+00 -0.57822896651E+03  0.57822896651E+03  0.00000000000E+00 0. -1.
          2    1    1    2  501    0 -0.12725499665E+02 -0.27808469768E+02  0.42512447732E+02  0.52369433305E+02  0.00000000000E+00 0. -1.
          1    1    1    2  502    0  0.12725499665E+02  0.27808469768E+02 -0.57289263814E+03  0.57370830931E+03  0.00000000000E+00 0. -1.
</event>
<event>
 4    1  0.3927513E+003  0.3911617E+02  0.7546771E-02  0.1353744E+00
          2   -1    0    0  502    0  0.00000000000E+00  0.00000000000E+00  0.22218834479E+03  0.22218834479E+03  0.00000000000E+00 0.  1.
          1   -1    0    0  501    0 -0.00000000000E+00 -0.00000000000E+00 -0.24049814225E+03  0.24049814225E+03  0.00000000000E+00 0. -1.
          2    1    1    2  501    0 -0.31714765656E+02 -0.22896474774E+02  0.21885216594E+03  0.22232036671E+03  0.00000000000E+00 0.  1.
          1    1    1    2  502    0  0.31714765656E+02  0.22896474774E+02 -0.23716196340E+03  0.24036612033E+03  0.00000000000E+00 0. -1.
</event>
<event>
 4    1  0.3927513E+003  0.3589732E+02  0.7546771E-02  0.1374362E+00
          2   -1    0    0  502    0  0.00000000000E+00  0.00000000000E+00  0.23653279429E+04  0.23653279429E+04  0.00000000000E+00 0.  1.
          1   -1    0    0  501    0 -0.00000000000E+00 -0.00000000000E+00 -0.36167856718E+01  0.36167856718E+01  0.00000000000E+00 0.  1.
          2    1    1    2  501    0  0.35315239649E+02 -0.64382911214E+01  0.22724807077E+04  0.22727642167E+04  0.00000000000E+00 0.  1.
          1    1    1    2  502    0 -0.35315239649E+02  0.64382911214E+01  0.89230449447E+02  0.96180511813E+02  0.00000000000E+00 0.  1.
</event>
<event>
 4    1  0.3927513E+003  0.2010190E+02  0.7546771E-02  0.1532484E+00
          2   -1    0    0  502    0  0.00000000000E+00  0.00000000000E+00  0.97597840098E+01  0.97597840098E+01  0.00000000000E+00 0.  1.
          1   -1    0    0  501    0 -0.00000000000E+00 -0.00000000000E+00 -0.64491122357E+02  0.64491122357E+02  0.00000000000E+00 0.  1.
          2    1    1    2  501    0  0.14514602462E+02  0.13907287942E+02 -0.51523134474E+01  0.20751690928E+02  0.00000000000E+00 0.  1.
          1    1    1    2  502    0 -0.14514602462E+02 -0.13907287942E+02 -0.49579024899E+02  0.53499215438E+02  0.00000000000E+00 0.  1.
</event>
<event>
 4    1  0.3927513E+003  0.3564083E+02  0.7546771E-02  0.1376113E+00
          2   -1    0    0  502    0  0.00000000000E+00  0.00000000000E+00  0.61128921955E+03  0.61128921955E+03  0.00000000000E+00 0. -1.
          1   -1    0    0  501    0 -0.00000000000E+00 -0.00000000000E+00 -0.23703786005E+01  0.23703786005E+01  0.00000000000E+00 0. -1.
          2    1    1    2  501    0  0.51280357708E+01  0.35269991590E+02  0.41221735197E+03  0.41375525896E+03  0.00000000000E+00 0. -1.
          1    1    1    2  502    0 -0.51280357708E+01 -0.35269991590E+02  0.19670148898E+03  0.19990433918E+03  0.00000000000E+00 0. -1.
</event>
<event>
 4    1  0.3927513E+003  0.2798816E+02  0.7546771E-02  0.1437927E+00
          2   -1    0    0  502    0  0.00000000000E+00  0.00000000000E+00  0.24997028797E+01  0.24997028797E+01  0.00000000000E+00 0. -1.
          1   -1    0    0  501    0 -0.00000000000E+00 -0.00000000000E+00 -0.10148505849E+04  0.10148505849E+04  0.00000000000E+00 0. -1.
          2    1    1    2  501    0 -0.27974675915E+02  0.86859681886E+00 -0.83266697319E+02  0.87844634642E+02  0.00000000000E+00 0. -1.
          1    1    1    2  502    0  0.27974675915E+02 -0.86859681886E+00 -0.92908418466E+03  0.92950565309E+03  0.00000000000E+00 0. -1.
</event>
<event>
 4    1  0.3927513E+003  0.3711273E+02  0.7546771E-02  0.1366290E+00
          2   -1    0    0  502    0  0.00000000000E+00  0.00000000000E+00  0.24517033842E+02  0.24517033842E+02  0.00000000000E+00 0. -1.
          1   -1    0    0  501    0 -0.00000000000E+00 -0.00000000000E+00 -0.70786456659E+02  0.70786456659E+02  0.00000000000E+00 0. -1.
          2    1    1    2  501    0  0.37998471025E+00  0.37110787741E+02 -0.14884229341E+01  0.37142568004E+02  0.00000000000E+00 0. -1.
          1    1    1    2  502    0 -0.37998471025E+00 -0.37110787741E+02 -0.44780999882E+02  0.58160922496E+02  0.00000000000E+00 0. -1.
</event>
<event>
 4    1  0.3927513E+003  0.2073303E+02  0.7546771E-02  0.1523111E+00
          2   -1    0    0  502    0  0.00000000000E+00  0.00000000000E+00  0.11963918222E+04  0.11963918222E+04  0.00000000000E+00 0. -1.
          1   -1    0    0  501    0 -0.00000000000E+00 -0.00000000000E+00 -0.10391718557E+02  0.10391718557E+02  0.00000000000E+00 0.  1.
          2    1    1    2  501    0 -0.14354422289E+02  0.14960250921E+02  0.11858688669E+04  0.11860500951E+04  0.00000000000E+00 0. -1.
          1    1    1    2  502    0  0.14354422289E+02 -0.14960250921E+02  0.13123674612E+00  0.20733445684E+02  0.00000000000E+00 0.  1.
</event>
<event>
 4    1  0.3927513E+003  0.3211494E+02  0.7546771E-02  0.1402066E+00
          2   -1    0    0  502    0  0.00000000000E+00  0.00000000000E+00  0.96658616615E+03  0.96658616615E+03  0.00000000000E+00 0. -1.
          1   -1    0    0  501    0 -0.00000000000E+00 -0.00000000000E+00 -0.39453399132E+01  0.39453399132E+01  0.00000000000E+00 0. -1.
          2    1    1    2  501    0  0.18029217059E+02  0.26576624841E+02  0.89580342546E+03  0.89637890801E+03  0.00000000000E+00 0. -1.
          1    1    1    2  502    0 -0.18029217059E+02 -0.26576624841E+02  0.66837400775E+02  0.74152598054E+02  0.00000000000E+00 0. -1.
</event>
<event>
 4    1  0.3927513E+003  0.2688624E+02  0.7546771E-02  0.1448754E+00
          2   -1    0    0  502    0  0.00000000000E+00  0.00000000000E+00  0.64842913885E+02  0.64842913885E+02  0.00000000000E+00 0. -1.
          1   -1    0    0  501    0 -0.00000000000E+00 -0.00000000000E+00 -0.13758818184E+03  0.13758818184E+03  0.00000000000E+00 0. -1.
          2    1    1    2  501    0 -0.22077884615E+02  0.15343956571E+02  0.60655837258E+02  0.66347574076E+02  0.00000000000E+00 0. -1.
          1    1    1    2  502    0  0.22077884615E+02 -0.15343956571E+02 -0.13340110522E+03  0.13608352165E+03  0.00000000000E+00 0. -1.
</event>
<event>
 4    1  0.3927513E+003  0.2444815E+02  0.7546771E-02  0.1475072E+00
          2   -1    0    0  502    0  0.00000000000E+00  0.00000000000E+00  0.10853252047E+03  0.10853252047E+03  0.00000000000E+00 0.  1.
          1   -1    0    0  501    0 -0.00000000000E+00 -0.00000000000E+00 -0.64819451068E+03  0.64819451068E+03  0.00000000000E+00 0.  1.
          2    1    1    2  501    0 -0.52414649550E+01 -0.23879682555E+02  0.10692175780E+03  0.10968124035E+03  0.00000000000E+00 0.  1.
          1    1    1    2  502    0  0.52414649550E+01  0.23879682555E+02 -0.64658374801E+03  0.64704579080E+03  0.00000000000E+00 0.  1.
</event>
<event>
 4    1  0.3927513E+003  0.3418670E+02  0.7546771E-02  0.1386373E+00
          2   -1    0    0  502    0  0.00000000000E+00  0.00000000000E+00  0.57004747735E+03  0.57004747735E+03  0.00000000000E+00 0.  1.
          1   -1    0    0  501    0 -0.00000000000E+00 -0.00000000000E+00 -0.11861873431E+02  0.11861873431E+02  0.00000000000E+00 0. -1.
          2    1    1    2  501    0  0.33658690407E+02 -0.59852516496E+01  0.54371086677E+03  0.54478457882E+03  0.00000000000E+00 0.  1.
          1    1    1    2  502    0 -0.33658690407E+02  0.59852516496E+01  0.14474737141E+02  0.37124771953E+02  0.00000000000E+00 0. -1.
</event>
<event>
 4    1  0.3927513E+003  0.6311415E+02  0.7546771E-02  0.1249604E+00
          2   -1    0    0  502    0  0.00000000000E+00  0.00000000000E+00  0.16530085092E+02  0.16530085092E+02  0.00000000000E+00 0.  1.
          1   -1    0    0  501    0 -0.00000000000E+00 -0.00000000000E+00 -0.13852483661E+04  0.13852483661E+04  0.00000000000E+00 0. -1.
          2    1    1    2  501    0  0.30623495899E+02 -0.55186936285E+02 -0.47343968964E+02  0.78897704877E+02  0.00000000000E+00 0.  1.
          1    1    1    2  502    0 -0.30623495899E+02  0.55186936285E+02 -0.13213743121E+04  0.13228807463E+04  0.00000000000E+00 0. -1.
</event>
<event>
 4    1  0.3927513E+003  0.2093487E+02  0.7546771E-02  0.1520197E+00
          2   -1    0    0  502    0  0.00000000000E+00  0.00000000000E+00  0.47034377885E+03  0.47034377885E+03  0.00000000000E+00 0. -1.
          1   -1    0    0  501    0 -0.00000000000E+00 -0.00000000000E+00 -0.22392406948E+01  0.22392406948E+01  0.00000000000E+00 0.  1.
          2    1    1    2  501    0  0.20925740890E+02 -0.61803387713E+00  0.41460660727E+03  0.41513480629E+03  0.00000000000E+00 0. -1.
          1    1    1    2  502    0 -0.20925740890E+02  0.61803387713E+00  0.53497930881E+02  0.57448213256E+02  0.00000000000E+00 0.  1.
</event>
<event>
 4    1  0.3927513E+003  0.7844332E+02  0.7546771E-02  0.1207508E+00
          2   -1    0    0  502    0  0.00000000000E+00  0.00000000000E+00  0.13797240329E+03  0.13797240329E+03  0.00000000000E+00 0.  1.
          1   -1    0    0  501    0 -0.00000000000E+00 -0.00000000000E+00 -0.52611635682E+02  0.52611635682E+02  0.00000000000E+00 0. -1.
          2    1    1    2  501    0  0.88278521234E+01 -0.77945001271E+02  0.79869722402E+02  0.11194876843E+03  0.00000000000E+00 0.  1.
          1    1    1    2  502    0 -0.88278521234E+01  0.77945001271E+02  0.54910452097E+01  0.78635270546E+02  0.00000000000E+00 0. -1.
</event>
<event>
 4    1  0.3927513E+003  0.5446782E+02  0.7546771E-02  0.1279883E+00
          2   -1    0    0  502    0  0.00000000000E+00  0.00000000000E+00  0.12694292999E+03  0.12694292999E+03  0.00000000000E+00 0.  1.
          1   -1    0    0  501    0 -0.00000000000E+00 -0.00000000000E+00 -0.12051246771E+04  0.12051246771E+04  0.00000000000E+00 0. -1.
          2    1    1    2  501    0 -0.49420769960E+02  0.22898269379E+02  0.12045319801E+03  0.13219574938E+03  0.00000000000E+00 0.  1.
          1    1    1    2  502    0  0.49420769960E+02 -0.22898269379E+02 -0.11986349451E+04  0.11998718577E+04  0.00000000000E+00 0. -1.
</event>
<event>
 4    1  0.3927513E+003  0.2381443E+02  0.7546771E-02  0.1482517E+00
          2   -1    0    0  502    0  0.00000000000E+00  0.00000000000E+00  0.95566674615E+03  0.95566674615E+03  0.00000000000E+00 0. -1.
          1   -1    0    0  501    0 -0.00000000000E+00 -0.00000000000E+00 -0.10657495062E+01  0.10657495062E+01  0.00000000000E+00 0. -1.
          2    1    1    2  501    0  0.37368426980E+01  0.23519423424E+02  0.79575547173E+03  0.79611173717E+03  0.00000000000E+00 0. -1.
          1    1    1    2  502    0 -0.37368426980E+01 -0.23519423424E+02  0.15884552492E+03  0.16062075849E+03  0.00000000000E+00 0. -1.
</event>
<event>
 4    1  0.3927513E+003  0.2028922E+02  0.7546771E-02  0.1529659E+00
          2   -1    0    0  502    0  0.00000000000E+00  0.00000000000E+00  0.82681938352E+00  0.82681938352E+00  0.00000000000E+00 0. -1.
          1   -1    0    0  501    0 -0.00000000000E+00 -0.00000000000E+00 -0.52300975736E+03  0.52300975736E+03  0.00000000000E+00 0. -1.
          2    1    1    2  501    0 -0.12191326035E+02 -0.16217998861E+02 -0.31851057927E+03  0.31915613894E+03  0.00000000000E+00 0. -1.
          1    1    1    2  502    0  0.12191326035E+02  0.16217998861E+02 -0.20367235872E+03  0.20468043781E+03  0.00000000000E+00 0. -1.
</event>
<event>
 4    1  0.3927513E+003  0.3634233E+02  0.7546771E-02  0.1371364E+00
          2   -1    0    0  502    0  0.00000000000E+00  0.00000000000E+00  0.15917217590E+02  0.15917217590E+02  0.00000000000E+00 0. -1.
          1   -1    0    0  501    0 -0.00000000000E+00 -0.00000000000E+00 -0.20791853985E+04  0.20791853985E+04  0.00000000000E+00 0. -1.
          2    1    1    2  501    0 -0.30178915507E+01 -0.36216804925E+02 -0.51986873056E+01  0.36712272853E+02  0.00000000000E+00 0. -1.
          1    1    1    2  502    0  0.30178915507E+01  0.36216804925E+02 -0.20580694936E+04  0.20583903433E+04  0.00000000000E+00 0. -1.
</event>
<event>
 4    1  0.3927513E+003  0.2339337E+02  0.7546771E-02  0.1487617E+00
          2   -1    0    0  502    0  0.00000000000E+00  0.00000000000E+00  0.10454723864E+04  0.10454723864E+04  0.00000000000E+00 0. -1.
          1   -1    0    0  501    0 -0.00000000000E+00 -0.00000000000E+00 -0.66316969616E+01  0.66316969616E+01  0.00000000000E+00 0. -1.
          2    1    1    2  501    0 -0.12703153319E+02 -0.19643823305E+02  0.10242847554E+04  0.10245518582E+04  0.00000000000E+00 0. -1.
          1    1    1    2  502    0  0.12703153319E+02  0.19643823305E+02  0.14555934039E+02  0.27552225210E+02  0.00000000000E+00 0. -1.
</event>
<event>
 4    1  0.3927513E+003  0.3386722E+02  0.7546771E-02  0.1388707E+00
          2   -1    0    0  502    0  0.00000000000E+00  0.00000000000E+00  0.85407356778E+00  0.85407356778E+00  0.00000000000E+00 0.  1.
          1   -1    0    0  501    0 -0.00000000000E+00 -0.00000000000E+00 -0.14286859684E+04  0.14286859684E+04  0.00000000000E+00 0. -1.
          2    1    1    2  501    0  0.15854896001E+02  0.29926736070E+02 -0.88900230145E+03  0.88964716559E+03  0.00000000000E+00 0.  1.
          1    1    1    2  502    0 -0.15854896001E+02 -0.29926736070E+02 -0.53882959340E+03  0.53989287640E+03  0.00000000000E+00 0. -1.
</event>
<event>
 4    1  0.3927513E+003  0.2093892E+02  0.7546771E-02  0.1520139E+00
          2   -1    0    0  502    0  0.00000000000E+00  0.00000000000E+00  0.68550714514E+00  0.68550714514E+00  0.00000000000E+00 0. -1.
          1   -1    0    0  501    0 -0.00000000000E+00 -0.00000000000E+00 -0.82404351623E+03  0.82404351623E+03  0.00000000000E+00 0. -1.
          2    1    1    2  501    0  0.82703930971E+01  0.19236392604E+02 -0.21657831611E+03  0.21758815504E+03  0.00000000000E+00 0. -1.
          1    1    1    2  502    0 -0.82703930971E+01 -0.19236392604E+02 -0.60677969297E+03  0.60714086833E+03  0.00000000000E+00 0. -1.
</event>
<event>
 4    1  0.3927513E+003  0.2450279E+02  0.7546771E-02  0.1474443E+00
          2   -1    0    0  502    0  0.00000000000E+00  0.00000000000E+00  0.21595645398E+03  0.21595645398E+03  0.00000000000E+00 0. -1.
          1   -1    0    0  501    0 -0.00000000000E+00 -0.00000000000E+00 -0.57262468584E+03  0.57262468584E+03  0.00000000000E+00 0. -1.
          2    1    1    2  501    0  0.12526540612E+02  0.21058786625E+02  0.21499813673E+03  0.21638989235E+03  0.00000000000E+00 0. -1.
          1    1    1    2  502    0 -0.12526540612E+02 -0.21058786625E+02 -0.57166636858E+03  0.57219124747E+03  0.00000000000E+00 0. -1.
</event>
<event>
 4    1  0.3927513E+003  0.2266478E+02  0.7546771E-02  0.1496751E+00
          2   -1    0    0  502    0  0.00000000000E+00  0.00000000000E+00  0.71535083685E+03  0.71535083685E+03  0.00000000000E+00 0.  1.
          1   -1    0    0  501    0 -0.00000000000E+00 -0.00000000000E+00 -0.45895676635E+02  0.45895676635E+02  0.00000000000E+00 0.  1.
          2    1    1    2  501    0 -0.85954644353E+01 -0.20971649783E+02  0.71236142205E+03  0.71272188667E+03  0.00000000000E+00 0.  1.
          1    1    1    2  502    0  0.85954644353E+01  0.20971649783E+02 -0.42906261835E+02  0.48524626821E+02  0.00000000000E+00 0.  1.
</event>
<event>
 4    1  0.3927513E+003  0.2056800E+02  0.7546771E-02  0.1525523E+00
          2   -1    0    0  502    0  0.00000000000E+00  0.00000000000E+00  0.14356537139E+03  0.14356537139E+03  0.00000000000E+00 0.  1.
          1   -1    0    0  501    0 -0.00000000000E+00 -0.00000000000E+00 -0.20694469509E+03  0.20694469509E+03  0.00000000000E+00 0. -1.
          2    1    1    2  501    0 -0.18808221971E+02  0.83242700043E+01  0.14231316764E+03  0.14379179521E+03  0.00000000000E+00 0.  1.
          1    1    1    2  502    0  0.18808221971E+02 -0.83242700043E+01 -0.20569249134E+03  0.20671827128E+03  0.00000000000E+00 0. -1.
</event>
<event>
 4    1  0.3927513E+003  0.2158119E+02  0.7546771E-02  0.1511126E+00
          2   -1    0    0  502    0  0.00000000000E+00  0.00000000000E+00  0.57652544441E+03  0.57652544441E+03  0.00000000000E+00 0.  1.
          1   -1    0    0  501    0 -0.00000000000E+00 -0.00000000000E+00 -0.85355658960E+00  0.85355658960E+00  0.00000000000E+00 0.  1.
          2    1    1    2  501    0  0.52255100194E+01 -0.20938994221E+02  0.22103338747E+03  0.22208445648E+03  0.00000000000E+00 0.  1.
          1    1    1    2  502    0 -0.52255100194E+01  0.20938994221E+02  0.35463850035E+03  0.35529454452E+03  0.00000000000E+00 0.  1.
</event>
<event>
 4    1  0.3927513E+003  0.2566330E+02  0.7546771E-02  0.1461518E+00
          2   -1    0    0  502    0  0.00000000000E+00  0.00000000000E+00  0.14868889877E+02  0.14868889877E+02  0.00000000000E+00 0.  1.
          1   -1    0    0  501    0 -0.00000000000E+00 -0.00000000000E+00 -0.65834058736E+02  0.65834058736E+02  0.00000000000E+00 0.  1.
          2    1    1    2  501    0 -0.25250983111E+02 -0.45817804287E+01 -0.24015107893E+01  0.25775416854E+02  0.00000000000E+00 0.  1.
          1    1    1    2  502    0  0.25250983111E+02  0.45817804287E+01 -0.48563658070E+02  0.54927531759E+02  0.00000000000E+00 0.  1.
</event>
<event>
 4    1  0.3927513E+003  0.2085684E+02  0.7546771E-02  0.1521319E+00
          2   -1    0    0  502    0  0.00000000000E+00  0.00000000000E+00  0.13331816685E+02  0.13331816685E+02  0.00000000000E+00 0. -1.
          1   -1    0    0  501    0 -0.00000000000E+00 -0.00000000000E+00 -0.71106393151E+02  0.71106393151E+02  0.00000000000E+00 0. -1.
          2    1    1    2  501    0 -0.20311459095E+02 -0.47383817468E+01  0.21694552334E+01  0.20969362607E+02  0.00000000000E+00 0. -1.
          1    1    1    2  502    0  0.20311459095E+02  0.47383817468E+01 -0.59944031700E+02  0.63468847229E+02  0.00000000000E+00 0. -1.
</event>
<event>
 4    1  0.3927513E+003  0.3078199E+02  0.7546771E-02  0.1412920E+00
          2   -1    0    0  502    0  0.00000000000E+00  0.00000000000E+00  0.18928014540E+01  0.18928014540E+01  0.00000000000E+00 0.  1.
          1   -1    0    0  501    0 -0.00000000000E+00 -0.00000000000E+00 -0.99216022909E+03  0.99216022909E+03  0.00000000000E+00 0. -1.
          2    1    1    2  501    0 -0.15222152084E+02  0.26754750751E+02 -0.14528653597E+03  0.14851164310E+03  0.00000000000E+00 0.  1.
          1    1    1    2  502    0  0.15222152084E+02 -0.26754750751E+02 -0.84498089167E+03  0.84554138745E+03  0.00000000000E+00 0. -1.
</event>
<event>
 4    1  0.3927513E+003  0.2768450E+02  0.7546771E-02  0.1440851E+00
          2   -1    0    0  502    0  0.00000000000E+00  0.00000000000E+00  0.58711102131E+03  0.58711102131E+03  0.00000000000E+00 0. -1.
          1   -1    0    0  501    0 -0.00000000000E+00 -0.00000000000E+00 -0.49543602832E+01  0.49543602832E+01  0.00000000000E+00 0.  1.
          2    1    1    2  501    0 -0.20122336526E+02  0.19013766622E+02  0.54513390163E+03  0.54583642463E+03  0.00000000000E+00 0. -1.
          1    1    1    2  502    0  0.20122336526E+02 -0.19013766622E+02  0.37022759397E+02  0.46228956962E+02  0.00000000000E+00 0.  1.
</event>
<event>
 4    1  0.3927513E+003  0.2854204E+02  0.7546771E-02  0.1432704E+00
          2   -1    0    0  502    0  0.00000000000E+00  0.00000000000E+00  0.11208344873E+04  0.11208344873E+04  0.00000000000E+00 0.  1.
          1   -1    0    0  501    0 -0.00000000000E+00 -0.00000000000E+00 -0.17353238777E+02  0.17353238777E+02  0.00000000000E+00 0. -1.
          2    1    1    2  501    0 -0.12213234695E+02  0.25796992985E+02  0.11087890526E+04  0.11091563511E+04  0.00000000000E+00 0.  1.
          1    1    1    2  502    0  0.12213234695E+02 -0.25796992985E+02 -0.53078041068E+01  0.29031374980E+02  0.00000000000E+00 0. -1.
</event>
<event>
 4    1  0.3927513E+003  0.3678905E+02  0.7546771E-02  0.1368404E+00
          2   -1    0    0  502    0  0.00000000000E+00  0.00000000000E+00  0.89159306329E+03  0.89159306329E+03  0.00000000000E+00 0. -1.
          1   -1    0    0  501    0 -0.00000000000E+00 -0.00000000000E+00 -0.30991527945E+02  0.30991527945E+02  0.00000000000E+00 0. -1.
          2    1    1    2  501    0 -0.29432105980E+01  0.36671132327E+02  0.88015395348E+03  0.88092248028E+03  0.00000000000E+00 0. -1.
          1    1    1    2  502    0  0.29432105980E+01 -0.36671132327E+02 -0.19552418132E+02  0.41662110959E+02  0.00000000000E+00 0. -1.
</event>
<event>
 4    1  0.3927513E+003  0.2469608E+02  0.7546771E-02  0.1472232E+00
          2   -1    0    0  502    0  0.00000000000E+00  0.00000000000E+00  0.14061832249E+04  0.14061832249E+04  0.00000000000E+00 0.  1.
          1   -1    0    0  501    0 -0.00000000000E+00 -0.00000000000E+00 -0.49615211483E+00  0.49615211483E+00  0.00000000000E+00 0.  1.
          2    1    1    2  501    0 -0.18940600539E+02  0.15847700745E+02  0.45335738734E+03  0.45402953277E+03  0.00000000000E+00 0.  1.
          1    1    1    2  502    0  0.18940600539E+02 -0.15847700745E+02  0.95232968540E+03  0.95264984420E+03  0.00000000000E+00 0.  1.
</event>
<event>
 4    1  0.3927513E+003  0.2081745E+02  0.7546771E-02  0.1521887E+00
          2   -1    0    0  502    0  0.00000000000E+00  0.00000000000E+00  0.86876989531E+02  0.86876989531E+02  0.00000000000E+00 0. -1.
          1   -1    0    0  501    0 -0.00000000000E+00 -0.00000000000E+00 -0.18763004515E+02  0.18763004515E+02  0.00000000000E+00 0.  1.
          2    1    1    2  501    0  0.18414928679E+02  0.97085942077E+01  0.79314299223E+02  0.82000758905E+02  0.00000000000E+00 0. -1.
          1    1    1    2  502    0 -0.18414928679E+02 -0.97085942077E+01 -0.11200314207E+02  0.23639235142E+02  0.00000000000E+00 0.  1.
</event>
<event>
 4    1  0.3927513E+003  0.2428490E+02  0.7546771E-02  0.1476965E+00
          2   -1    0    0  502    0  0.00000000000E+00  0.00000000000E+00  0.11969384943E+01  0.11969384943E+01  0.00000000000E+00 0.  1.
          1   -1    0    0  501    0 -0.00000000000E+00 -0.00000000000E+00 -0.49429555672E+03  0.49429555672E+03  0.00000000000E+00 0.  1.
          2    1    1    2  501    0 -0.13873184481E+02  0.19932143550E+02 -0.26053628836E+03  0.26166565145E+03  0.00000000000E+00 0.  1.
          1    1    1    2  502    0  0.13873184481E+02 -0.19932143550E+02 -0.23256232987E+03  0.23382684377E+03  0.00000000000E+00 0.  1.
</event>
<event>
 4    1  0.3927513E+003  0.2281382E+02  0.7546771E-02  0.1494849E+00
          2   -1    0    0  502    0  0.00000000000E+00  0.00000000000E+00  0.99692284210E+02  0.99692284210E+02  0.00000000000E+00 0. -1.
          1   -1    0    0  501    0 -0.00000000000E+00 -0.00000000000E+00 -0.19894096055E+03  0.19894096055E+03  0.00000000000E+00 0.  1.
          2    1    1    2  501    0  0.59970590523E+01  0.22011486310E+02  0.97720015687E+02  0.10034775390E+03  0.00000000000E+00 0. -1.
          1    1    1    2  502    0 -0.59970590523E+01 -0.22011486310E+02 -0.19696869203E+03  0.19828549086E+03  0.00000000000E+00 0.  1.
</event>
<event>
 4    1  0.3927513E+003  0.2192792E+02  0.7546771E-02  0.1506418E+00
          2   -1    0    0  502    0  0.00000000000E+00  0.00000000000E+00  0.97359702598E+00  0.97359702598E+00  0.00000000000E+00 0.  1.
          1   -1    0    0  501    0 -0.00000000000E+00 -0.00000000000E+00 -0.56802075981E+03  0.56802075981E+03  0.00000000000E+00 0.  1.
          2    1    1    2  501    0  0.21918470595E+02 -0.64373892410E+00 -0.18073533292E+03  0.18206068856E+03  0.00000000000E+00 0.  1.
          1    1    1    2  502    0 -0.21918470595E+02  0.64373892410E+00 -0.38631182986E+03  0.38693366827E+03  0.00000000000E+00 0.  1.
</event>
<event>
 4    1  0.3927513E+003  0.2193893E+02  0.7546771E-02  0.1506270E+00
          2   -1    0    0  502    0  0.00000000000E+00  0.00000000000E+00  0.42715128362E+02  0.42715128362E+02  0.00000000000E+00 0.  1.
          1   -1    0    0  501    0 -0.00000000000E+00 -0.00000000000E+00 -0.34647836384E+03  0.34647836384E+03  0.00000000000E+00 0.  1.
          2    1    1    2  501    0  0.17380580140E+02  0.13387763833E+02  0.39524666136E+02  0.45205265397E+02  0.00000000000E+00 0.  1.
          1    1    1    2  502    0 -0.17380580140E+02 -0.13387763833E+02 -0.34328790161E+03  0.34398822680E+03  0.00000000000E+00 0.  1.
</event>
<event>
 4    1  0.3927513E+003  0.2086542E+02  0.7546771E-02  0.1521195E+00
          2   -1    0    0  502    0  0.00000000000E+00  0.00000000000E+00  0.89326969926E+01  0.89326969926E+01  0.00000000000E+00 0. -1.
          1   -1    0    0  501    0 -0.00000000000E+00 -0.00000000000E+00 -0.10450307571E+03  0.10450307571E+03  0.00000000000E+00 0. -1.
          2    1    1    2  501    0  0.30678630014E+01  0.20638657127E+02 -0.63532908659E+01  0.21811241511E+02  0.00000000000E+00 0. -1.
          1    1    1    2  502    0 -0.30678630014E+01 -0.20638657127E+02 -0.89217087851E+02  0.91624531192E+02  0.00000000000E+00 0. -1.
</event>
<event>
 4    1  0.3927513E+003  0.2432603E+02  0.7546771E-02  0.1476486E+00
          2   -1    0    0  502    0  0.00000000000E+00  0.00000000000E+00  0.12108453313E+02  0.12108453313E+02  0.00000000000E+00 0. -1.
          1   -1    0    0  501    0 -0.00000000000E+00 -0.00000000000E+00 -0.79071806286E+03  0.79071806286E+03  0.00000000000E+00 0. -1.
          2    1    1    2  501    0 -0.15841426971E+02  0.18460908531E+02 -0.49430613413E+00  0.24331056097E+02  0.00000000000E+00 0. -1.
          1    1    1    2  502    0  0.15841426971E+02 -0.18460908531E+02 -0.77811530342E+03  0.77849546008E+03  0.00000000000E+00 0. -1.
</event>
<event>
 4    1  0.3927513E+003  0.2175536E+02  0.7546771E-02  0.1508748E+00
          2   -1    0    0  502    0  0.00000000000E+00  0.00000000000E+00  0.54323127951E+03  0.54323127951E+03  0.00000000000E+00 0. -1.
          1   -1    0    0  501    0 -0.00000000000E+00 -0.00000000000E+00 -0.31868846797E+01  0.31868846797E+01  0.00000000000E+00 0. -1.
          2    1    1    2  501    0 -0.11085932353E+02  0.18718911678E+02  0.50290963685E+03  0.50337997416E+03  0.00000000000E+00 0. -1.
          1    1    1    2  502    0  0.11085932353E+02 -0.18718911678E+02  0.37134757975E+02  0.43038190023E+02  0.00000000000E+00 0. -1.
</event>
<event>
 4    1  0.3927513E+003  0.2400154E+02  0.7546771E-02  0.1480291E+00
          2   -1    0    0  502    0  0.00000000000E+00  0.00000000000E+00  0.32525908480E+01  0.32525908480E+01  0.00000000000E+00 0. -1.
          1   -1    0    0  501    0 -0.00000000000E+00 -0.00000000000E+00 -0.18732363932E+03  0.18732363932E+03  0.00000000000E+00 0. -1.
          2    1    1    2  501    0 -0.23050051404E+02 -0.66909663815E+01 -0.69787910349E+02  0.73799907396E+02  0.00000000000E+00 0. -1.
          1    1    1    2  502    0  0.23050051404E+02  0.66909663815E+01 -0.11428313812E+03  0.11677632277E+03  0.00000000000E+00 0. -1.
</event>
<event>
 4    1  0.3927513E+003  0.2406324E+02  0.7546771E-02  0.1479562E+00
          2   -1    0    0  502    0  0.00000000000E+00  0.00000000000E+00  0.71862016751E+01  0.71862016751E+01  0.00000000000E+00 0.  1.
          1   -1    0    0  501    0 -0.00000000000E+00 -0.00000000000E+00 -0.15688351885E+03  0.15688351885E+03  0.00000000000E+00 0. -1.
          2    1    1    2  501    0 -0.23882406992E+02 -0.29445495675E+01 -0.17636053180E+02  0.29834042764E+02  0.00000000000E+00 0.  1.
          1    1    1    2  502    0  0.23882406992E+02  0.29445495675E+01 -0.13206126399E+03  0.13423567776E+03  0.00000000000E+00 0. -1.
</event>
<event>
 4    1  0.3927513E+003  0.3451152E+02  0.7546771E-02  0.1384030E+00
          2   -1    0    0  502    0  0.00000000000E+00  0.00000000000E+00  0.25836576424E+03  0.25836576424E+03  0.00000000000E+00 0. -1.
          1   -1    0    0  501    0 -0.00000000000E+00 -0.00000000000E+00 -0.25330675958E+02  0.25330675958E+02  0.00000000000E+00 0. -1.
          2    1    1    2  501    0  0.34480270266E+02  0.14682470732E+01  0.24481065263E+03  0.24723126911E+03  0.00000000000E+00 0. -1.
          1    1    1    2  502    0 -0.34480270266E+02 -0.14682470732E+01 -0.11775564341E+02  0.36465171090E+02  0.00000000000E+00 0. -1.
</event>
<event>
 4    1  0.3927513E+003  0.2655910E+02  0.7546771E-02  0.1452088E+00
          2   -1    0    0  502    0  0.00000000000E+00  0.00000000000E+00  0.11216227179E+04  0.11216227179E+04  0.00000000000E+00 0.  1.
          1   -1    0    0  501    0 -0.00000000000E+00 -0.00000000000E+00 -0.37768252083E+01  0.37768252083E+01  0.00000000000E+00 0. -1.
          2    1    1    2  501    0  0.14756146140E+02  0.22082613144E+02  0.10726420017E+04  0.10729707589E+04  0.00000000000E+00 0.  1.
          1    1    1    2  502    0 -0.14756146140E+02 -0.22082613144E+02  0.45203890980E+02  0.52428784193E+02  0.00000000000E+00 0. -1.
</event>
<event>
 4    1  0.3927513E+003  0.2964807E+02  0.7546771E-02  0.1422680E+00
          2   -1    0    0  502    0  0.00000000000E+00  0.00000000000E+00  0.35312792858E+00  0.35312792858E+00  0.00000000000E+00 0. -1.
          1   -1    0    0  501    0 -0.00000000000E+00 -0.00000000000E+00 -0.28186443843E+04  0.28186443843E+04  0.00000000000E+00 0. -1.
          2    1    1    2  501    0 -0.88094275508E+01  0.28309027455E+02 -0.18910198835E+04  0.18912522853E+04  0.00000000000E+00 0. -1.
          1    1    1    2  502    0  0.88094275508E+01 -0.28309027455E+02 -0.92727137291E+03  0.92774522692E+03  0.00000000000E+00 0. -1.
</event>
<event>
 4    1  0.3927513E+003  0.2684083E+02  0.7546771E-02  0.1449214E+00
          2   -1    0    0  502    0  0.00000000000E+00  0.00000000000E+00  0.47150307646E+02  0.47150307646E+02  0.00000000000E+00 0. -1.
          1   -1    0    0  501    0 -0.00000000000E+00 -0.00000000000E+00 -0.17963572380E+02  0.17963572380E+02  0.00000000000E+00 0.  1.
          2    1    1    2  501    0  0.15881064007E+01  0.26793806308E+02  0.27178258747E+02  0.38198008940E+02  0.00000000000E+00 0. -1.
          1    1    1    2  502    0 -0.15881064007E+01 -0.26793806308E+02  0.20084765182E+01  0.26915871086E+02  0.00000000000E+00 0.  1.
</event>
<event>
 4    1  0.3927513E+003  0.2410787E+02  0.7546771E-02  0.1479036E+00
          2   -1    0    0  502    0  0.00000000000E+00  0.00000000000E+00  0.17888216843E+03  0.17888216843E+03  0.00000000000E+00 0.  1.
          1   -1    0    0  501    0 -0.00000000000E+00 -0.00000000000E+00 -0.19125671681E+02  0.19125671681E+02  0.00000000000E+00 0. -1.
          2    1    1    2  501    0 -0.22925332431E+02  0.74577817151E+01  0.17008180926E+03  0.17178187104E+03  0.00000000000E+00 0.  1.
          1    1    1    2  502    0  0.22925332431E+02 -0.74577817151E+01 -0.10325312515E+02  0.26225969071E+02  0.00000000000E+00 0. -1.
</event>
<event>
 4    1  0.3927513E+003  0.2402717E+02  0.7546771E-02  0.1479988E+00
          2   -1    0    0  502    0  0.00000000000E+00  0.00000000000E+00  0.62808334282E+03  0.62808334282E+03  0.00000000000E+00 0.  1.
          1   -1    0    0  501    0 -0.00000000000E+00 -0.00000000000E+00 -0.17498172963E+04  0.17498172963E+04  0.00000000000E+00 0. -1.
          2    1    1    2  501    0  0.16134657312E+01 -0.23972930682E+02  0.62777103285E+03  0.62823066971E+03  0.00000000000E+00 0.  1.
          1    1    1    2  502    0 -0.16134657312E+01  0.23972930682E+02 -0.17495049863E+04  0.17496699694E+04  0.00000000000E+00 0. -1.
</event>
<event>
 4    1  0.3927513E+003  0.3855286E+02  0.7546771E-02  0.1357181E+00
          2   -1    0    0  502    0  0.00000000000E+00  0.00000000000E+00  0.22271004598E+02  0.22271004598E+02  0.00000000000E+00 0.  1.
          1   -1    0    0  501    0 -0.00000000000E+00 -0.00000000000E+00 -0.96396466086E+02  0.96396466086E+02  0.00000000000E+00 0. -1.
          2    1    1    2  501    0  0.16883765371E+02  0.34659215345E+02 -0.41514083305E+01  0.38775726074E+02  0.00000000000E+00 0.  1.
          1    1    1    2  502    0 -0.16883765371E+02 -0.34659215345E+02 -0.69974053158E+02  0.79891744609E+02  0.00000000000E+00 0. -1.
</event>
<event>
 4    1  0.3927513E+003  0.2090297E+02  0.7546771E-02  0.1520655E+00
          2   -1    0    0  502    0  0.00000000000E+00  0.00000000000E+00  0.20566829694E+02  0.20566829694E+02  0.00000000000E+00 0.  1.
          1   -1    0    0  501    0 -0.00000000000E+00 -0.00000000000E+00 -0.46095036525E+03  0.46095036525E+03  0.00000000000E+00 0. -1.
          2    1    1    2  501    0 -0.18411155173E+01 -0.20821727998E+02  0.14953261758E+02  0.25700857970E+02  0.00000000000E+00 0.  1.
          1    1    1    2  502    0  0.18411155173E+01  0.20821727998E+02 -0.45533679731E+03  0.45581633697E+03  0.00000000000E+00 0. -1.
</event>
<event>
 4    1  0.3927513E+003  0.2713039E+02  0.7546771E-02  0.1446303E+00
          2   -1    0    0  502    0  0.00000000000E+00  0.00000000000E+00  0.87767441721E+01  0.87767441721E+01  0.00000000000E+00 0. -1.
          1   -1    0    0  501    0 -0.00000000000E+00 -0.00000000000E+00 -0.18927481133E+03  0.18927481133E+03  0.00000000000E+00 0.  1.
          2    1    1    2  501    0 -0.17898674341E+02  0.20388606481E+02 -0.16349232625E+02  0.31675782940E+02  0.00000000000E+00 0. -1.
          1    1    1    2  502    0  0.17898674341E+02 -0.20388606481E+02 -0.16414883454E+03  0.16637577257E+03  0.00000000000E+00 0.  1.
</event>
<event>
 4    1  0.3927513E+003  0.3302567E+02  0.7546771E-02  0.1395001E+00
          2   -1    0    0  502    0  0.00000000000E+00  0.00000000000E+00  0.66986453887E+03  0.66986453887E+03  0.00000000000E+00 0.  1.
          1   -1    0    0  501    0 -0.00000000000E+00 -0.00000000000E+00 -0.17196071845E+01  0.17196071845E+01  0.00000000000E+00 0. -1.
          2    1    1    2  501    0 -0.20077180124E+02  0.26222163083E+02  0.41147755581E+03  0.41280076784E+03  0.00000000000E+00 0.  1.
          1    1    1    2  502    0  0.20077180124E+02 -0.26222163083E+02  0.25666737588E+03  0.25878337821E+03  0.00000000000E+00 0. -1.
</event>
<event>
 4    1  0.3927513E+003  0.2833602E+02  0.7546771E-02  0.1434630E+00
          2   -1    0    0  502    0  0.00000000000E+00  0.00000000000E+00  0.63524430639E+03  0.63524430639E+03  0.00000000000E+00 0.  1.
          1   -1    0    0  501    0 -0.00000000000E+00 -0.00000000000E+00 -0.29845382496E+02  0.29845382496E+02  0.00000000000E+00 0.  1.
          2    1    1    2  501    0 -0.80069621164E+01 -0.27181214665E+02  0.62812639034E+03  0.62876521224E+03  0.00000000000E+00 0.  1.
          1    1    1    2  502    0  0.80069621164E+01  0.27181214665E+02 -0.22727466447E+02  0.36324476653E+02  0.00000000000E+00 0.  1.
</event>
<event>
 4    1  0.3927513E+003  0.2315882E+02  0.7546771E-02  0.1490513E+00
          2   -1    0    0  502    0  0.00000000000E+00  0.00000000000E+00  0.11635286978E+04  0.11635286978E+04  0.00000000000E+00 0. -1.
          1   -1    0    0  501    0 -0.00000000000E+00 -0.00000000000E+00 -0.83138858684E+01  0.83138858684E+01  0.00000000000E+00 0.  1.
          2    1    1    2  501    0 -0.62427489875E+01  0.22301549169E+02  0.11470542862E+04  0.11472880486E+04  0.00000000000E+00 0. -1.
          1    1    1    2  502    0  0.62427489875E+01 -0.22301549169E+02  0.81605256980E+01  0.24554535018E+02  0.00000000000E+00 0.  1.
</event>
<event>
 4    1  0.3927513E+003  0.5023717E+02  0.7546771E-02  0.1297147E+00
          2   -1    0    0  502    0  0.00000000000E+00  0.00000000000E+00  0.11218273491E+04  0.11218273491E+04  0.00000000000E+00 0.  1.
          1   -1    0    0  501    0 -0.00000000000E+00 -0.00000000000E+00 -0.59967599709E+03  0.59967599709E+03  0.00000000000E+00 0.  1.
          2    1    1    2  501    0 -0.46295823922E+02  0.19505641801E+02  0.11202112670E+04  0.11213371732E+04  0.00000000000E+00 0.  1.
          1    1    1    2  502    0  0.46295823922E+02 -0.19505641801E+02 -0.59805991493E+03  0.60016617300E+03  0.00000000000E+00 0.  1.
</event>
<event>
 4    1  0.3927513E+003  0.2251110E+02  0.7546771E-02  0.1498730E+00
          2   -1    0    0  502    0  0.00000000000E+00  0.00000000000E+00  0.14548466440E+03  0.14548466440E+03  0.00000000000E+00 0.  1.
          1   -1    0    0  501    0 -0.00000000000E+00 -0.00000000000E+00 -0.83010261895E+01  0.83010261895E+01  0.00000000000E+00 0.  1.
          2    1    1    2  501    0 -0.42456262087E+01  0.22107110505E+02  0.12717141616E+03  0.12914843694E+03  0.00000000000E+00 0.  1.
          1    1    1    2  502    0  0.42456262087E+01 -0.22107110505E+02  0.10012222048E+02  0.24637253644E+02  0.00000000000E+00 0.  1.
</event>
<event>
 4    1  0.3927513E+003  0.2489559E+02  0.7546771E-02  0.1469975E+00
          2   -1    0    0  502    0  0.00000000000E+00  0.00000000000E+00  0.13003972996E+03  0.13003972996E+03  0.00000000000E+00 0. -1.
          1   -1    0    0  501    0 -0.00000000000E+00 -0.00000000000E+00 -0.51939481054E+01  0.51939481054E+01  0.00000000000E+00 0. -1.
          2    1    1    2  501    0 -0.24894652867E+02 -0.21652476481E+00  0.81828112181E+02  0.85531459519E+02  0.00000000000E+00 0. -1.
          1    1    1    2  502    0  0.24894652867E+02  0.21652476481E+00  0.43017669678E+02  0.49702218550E+02  0.00000000000E+00 0. -1.
</event>
<event>
 4    1  0.3927513E+003  0.3004968E+02  0.7546771E-02  0.1419165E+00
          2   -1    0    0  502    0  0.00000000000E+00  0.00000000000E+00  0.50296860791E+03  0.50296860791E+03  0.00000000000E+00 0.  1.
          1   -1    0    0  501    0 -0.00000000000E+00 -0.00000000000E+00 -0.47271793658E+01  0.47271793658E+01  0.00000000000E+00 0. -1.
          2    1    1    2  501    0  0.12184156145E+02  0.27468707385E+02  0.44903553060E+03  0.45003987744E+03  0.00000000000E+00 0.  1.
          1    1    1    2  502    0 -0.12184156145E+02 -0.27468707385E+02  0.49205897946E+02  0.57655909837E+02  0.00000000000E+00 0. -1.
</event>
<event>
 4    1  0.3927513E+003  0.2075549E+02  0.7546771E-02  0.1522785E+00
          2   -1    0    0  502    0  0.00000000000E+00  0.00000000000E+00  0.22204722378E+02  0.22204722378E+02  0.00000000000E+00 0. -1.
          1   -1    0    0  501    0 -0.00000000000E+00 -0.00000000000E+00 -0.26114255158E+02  0.26114255158E+02  0.00000000000E+00 0. -1.
          2    1    1    2  501    0 -0.19807598993E+02  0.62007430591E+01  0.10294801763E+02  0.23168364976E+02  0.00000000000E+00 0. -1.
          1    1    1    2  502    0  0.19807598993E+02 -0.62007430591E+01 -0.14204334543E+02  0.25150612560E+02  0.00000000000E+00 0. -1.
</event>
<event>
 4    1  0.3927513E+003  0.7742301E+02  0.7546771E-02  0.1209960E+00
          2   -1    0    0  502    0  0.00000000000E+00  0.00000000000E+00  0.26073369020E+03  0.26073369020E+03  0.00000000000E+00 0.  1.
          1   -1    0    0  501    0 -0.00000000000E+00 -0.00000000000E+00 -0.17344734691E+03  0.17344734691E+03  0.00000000000E+00 0. -1.
          2    1    1    2  501    0  0.74877137617E+02  0.19691020407E+02  0.24583491810E+03  0.25773848952E+03  0.00000000000E+00 0.  1.
          1    1    1    2  502    0 -0.74877137617E+02 -0.19691020407E+02 -0.15854857482E+03  0.17644254759E+03  0.00000000000E+00 0. -1.
</event>
<event>
 4    1  0.3927513E+003  0.6727898E+02  0.7546771E-02  0.1236923E+00
          2   -1    0    0  502    0  0.00000000000E+00  0.00000000000E+00  0.54690234042E+03  0.54690234042E+03  0.00000000000E+00 0. -1.
          1   -1    0    0  501    0 -0.00000000000E+00 -0.00000000000E+00 -0.84407308700E+03  0.84407308700E+03  0.00000000000E+00 0.  1.
          2    1    1    2  501    0  0.31870635401E+02 -0.59251356706E+02  0.54348414462E+03  0.54763261054E+03  0.00000000000E+00 0. -1.
          1    1    1    2  502    0 -0.31870635401E+02  0.59251356706E+02 -0.84065489120E+03  0.84334281687E+03  0.00000000000E+00 0.  1.
</event>
<event>
 4    1  0.3927513E+003  0.2524400E+02  0.7546771E-02  0.1466092E+00
          2   -1    0    0  502    0  0.00000000000E+00  0.00000000000E+00  0.34524415071E+03  0.34524415071E+03  0.00000000000E+00 0. -1.
          1   -1    0    0  501    0 -0.00000000000E+00 -0.00000000000E+00 -0.50663636914E+03  0.50663636914E+03  0.00000000000E+00 0. -1.
          2    1    1    2  501    0 -0.10523586120E+02 -0.22945887610E+02  0.34446753081E+03  0.34539128450E+03  0.00000000000E+00 0. -1.
          1    1    1    2  502    0  0.10523586120E+02  0.22945887610E+02 -0.50585974924E+03  0.50648923535E+03  0.00000000000E+00 0. -1.
</event>
<event>
 4    1  0.3927513E+003  0.2114109E+02  0.7546771E-02  0.1517260E+00
          2   -1    0    0  502    0  0.00000000000E+00  0.00000000000E+00  0.12184200538E+04  0.12184200538E+04  0.00000000000E+00 0. -1.
          1   -1    0    0  501    0 -0.00000000000E+00 -0.00000000000E+00 -0.20020347276E+02  0.20020347276E+02  0.00000000000E+00 0.  1.
          2    1    1    2  501    0 -0.11101951516E+02 -0.17991455343E+02  0.12127209773E+04  0.12129052373E+04  0.00000000000E+00 0. -1.
          1    1    1    2  502    0  0.11101951516E+02  0.17991455343E+02 -0.14321270796E+02  0.25535163794E+02  0.00000000000E+00 0.  1.
</event>
<event>
 4    1  0.4099243E+003  0.3304607E+02  0.7546771E-02  0.1394846E+00
          2   -1    0    0  502    0  0.00000000000E+00  0.00000000000E+00  0.93274050446E+03  0.93274050446E+03  0.00000000000E+00 0. -1.
          1   -1    0    0  501    0 -0.00000000000E+00 -0.00000000000E+00 -0.60278291149E+03  0.60278291149E+03  0.00000000000E+00 0. -1.
          2    1    1    2  501    0 -0.32834747139E+02 -0.37312361120E+01  0.93199452760E+03  0.93258020685E+03  0.00000000000E+00 0. -1.
          1    1    1    2  502    0  0.32834747139E+02  0.37312361120E+01 -0.60203693462E+03  0.60294320909E+03  0.00000000000E+00 0. -1.
</event>
<event>
 4    1  0.3927513E+003  0.4276855E+02  0.7546771E-02  0.1332984E+00
          2   -1    0    0  502    0  0.00000000000E+00  0.00000000000E+00  0.23227025530E+03  0.23227025530E+03  0.00000000000E+00 0.  1.
          1   -1    0    0  501    0 -0.00000000000E+00 -0.00000000000E+00 -0.80497449683E+01  0.80497449683E+01  0.00000000000E+00 0. -1.
          2    1    1    2  501    0  0.13784231827E+01 -0.42746333484E+02  0.12980970646E+03  0.13667373182E+03  0.00000000000E+00 0.  1.
          1    1    1    2  502    0 -0.13784231827E+01  0.42746333484E+02  0.94410803872E+02  0.10364626845E+03  0.00000000000E+00 0. -1.
</event>
<event>
 4    1  0.3927513E+003  0.3330007E+02  0.7546771E-02  0.1392925E+00
          2   -1    0    0  502    0  0.00000000000E+00  0.00000000000E+00  0.82476327278E+02  0.82476327278E+02  0.00000000000E+00 0.  1.
          1   -1    0    0  501    0 -0.00000000000E+00 -0.00000000000E+00 -0.24986391001E+02  0.24986391001E+02  0.00000000000E+00 0. -1.
          2    1    1    2  501    0  0.17222361205E+02 -0.28500615485E+02  0.65262801569E+02  0.73267510379E+02  0.00000000000E+00 0.  1.
          1    1    1    2  502    0 -0.17222361205E+02  0.28500615485E+02 -0.77728652921E+01  0.34195207900E+02  0.00000000000E+00 0. -1.
</event>
<event>
 4    1  0.3927513E+003  0.2513930E+02  0.7546771E-02  0.1467251E+00
          2   -1    0    0  502    0  0.00000000000E+00  0.00000000000E+00  0.60600049708E+03  0.60600049708E+03  0.00000000000E+00 0.  1.
          1   -1    0    0  501    0 -0.00000000000E+00 -0.00000000000E+00 -0.20424794093E+02  0.20424794093E+02  0.00000000000E+00 0.  1.
          2    1    1    2  501    0  0.15786718637E+02 -0.19564351598E+02  0.59789951061E+03  0.59842778105E+03  0.00000000000E+00 0.  1.
          1    1    1    2  502    0 -0.15786718637E+02  0.19564351598E+02 -0.12323807627E+02  0.27997510125E+02  0.00000000000E+00 0.  1.
</event>
<event>
 4    1  0.3927513E+003  0.2274073E+02  0.7546771E-02  0.1495780E+00
          2   -1    0    0  502    0  0.00000000000E+00  0.00000000000E+00  0.30115770260E+03  0.30115770260E+03  0.00000000000E+00 0.  1.
          1   -1    0    0  501    0 -0.00000000000E+00 -0.00000000000E+00 -0.52816427628E+01  0.52816427628E+01  0.00000000000E+00 0. -1.
          2    1    1    2  501    0 -0.40849459499E+01 -0.22370828651E+02  0.27380950092E+03  0.27475222210E+03  0.00000000000E+00 0.  1.
          1    1    1    2  502    0  0.40849459499E+01  0.22370828651E+02  0.22066558922E+02  0.31687123262E+02  0.00000000000E+00 0. -1.
</event>
<event>
 4    1  0.3927513E+003  0.2305647E+02  0.7546771E-02  0.1491790E+00
          2   -1    0    0  502    0  0.00000000000E+00  0.00000000000E+00  0.84433103500E+03  0.84433103500E+03  0.00000000000E+00 0.  1.
          1   -1    0    0  501    0 -0.00000000000E+00 -0.00000000000E+00 -0.17796517739E+03  0.17796517739E+03  0.00000000000E+00 0. -1.
          2    1    1    2  501    0  0.10951193774E+02 -0.20289705181E+02  0.84342605452E+03  0.84374113935E+03  0.00000000000E+00 0.  1.
          1    1    1    2  502    0 -0.10951193774E+02  0.20289705181E+02 -0.17706019691E+03  0.17855507305E+03  0.00000000000E+00 0. -1.
</event>
<event>
 4    1  0.3927513E+003  0.2821310E+02  0.7546771E-02  0.1435789E+00
          2   -1    0    0  502    0  0.00000000000E+00  0.00000000000E+00  0.53602774723E+03  0.53602774723E+03  0.00000000000E+00 0.  1.
          1   -1    0    0  501    0 -0.00000000000E+00 -0.00000000000E+00 -0.18452483383E+02  0.18452483383E+02  0.00000000000E+00 0. -1.
          2    1    1    2  501    0 -0.24499007286E+02 -0.13992060648E+02  0.52463838992E+03  0.52539644013E+03  0.00000000000E+00 0.  1.
          1    1    1    2  502    0  0.24499007286E+02  0.13992060648E+02 -0.70631260731E+01  0.29083790487E+02  0.00000000000E+00 0. -1.
</event>
<event>
 4    1  0.3927513E+003  0.2226856E+02  0.7546771E-02  0.1501893E+00
          2   -1    0    0  502    0  0.00000000000E+00  0.00000000000E+00  0.11049046196E+04  0.11049046196E+04  0.00000000000E+00 0.  1.
          1   -1    0    0  501    0 -0.00000000000E+00 -0.00000000000E+00 -0.10255981110E+03  0.10255981110E+03  0.00000000000E+00 0.  1.
          2    1    1    2  501    0  0.16797337252E+02 -0.14619782805E+02  0.11035821906E+04  0.11038068400E+04  0.00000000000E+00 0.  1.
          1    1    1    2  502    0 -0.16797337252E+02  0.14619782805E+02 -0.10123738208E+03  0.10365759074E+03  0.00000000000E+00 0.  1.
</event>
<event>
 4    1  0.3927513E+003  0.2171289E+02  0.7546771E-02  0.1509325E+00
          2   -1    0    0  502    0  0.00000000000E+00  0.00000000000E+00  0.25942764501E+03  0.25942764501E+03  0.00000000000E+00 0. -1.
          1   -1    0    0  501    0 -0.00000000000E+00 -0.00000000000E+00 -0.88883945329E+01  0.88883945329E+01  0.00000000000E+00 0. -1.
          2    1    1    2  501    0 -0.16297655425E+02  0.14346987800E+02  0.24492970090E+03  0.24589023570E+03  0.00000000000E+00 0. -1.
          1    1    1    2  502    0  0.16297655425E+02 -0.14346987800E+02  0.56095495743E+01  0.22425803837E+02  0.00000000000E+00 0. -1.
</event>
<event>
 4    1  0.3927513E+003  0.2702179E+02  0.7546771E-02  0.1447389E+00
          2   -1    0    0  502    0  0.00000000000E+00  0.00000000000E+00  0.83463308158E+03  0.83463308158E+03  0.00000000000E+00 0.  1.
          1   -1    0    0  501    0 -0.00000000000E+00 -0.00000000000E+00 -0.24115153033E+02  0.24115153033E+02  0.00000000000E+00 0. -1.
          2    1    1    2  501    0  0.14329139189E+02  0.22909672666E+02  0.82677272741E+03  0.82721419241E+03  0.00000000000E+00 0.  1.
          1    1    1    2  502    0 -0.14329139189E+02 -0.22909672666E+02 -0.16254798865E+02  0.31534042204E+02  0.00000000000E+00 0. -1.
</event>
<event>
 4    1  0.3927513E+003  0.5589995E+02  0.7546771E-02  0.1274438E+00
          2   -1    0    0  502    0  0.00000000000E+00  0.00000000000E+00  0.42363792861E+03  0.42363792861E+03  0.00000000000E+00 0.  1.
          1   -1    0    0  501    0 -0.00000000000E+00 -0.00000000000E+00 -0.12987265293E+02  0.12987265293E+02  0.00000000000E+00 0.  1.
          2    1    1    2  501    0  0.35999622564E+02 -0.42764841253E+02  0.34882327344E+03  0.35327394549E+03  0.00000000000E+00 0.  1.
          1    1    1    2  502    0 -0.35999622564E+02  0.42764841253E+02  0.61827389877E+02  0.83351248409E+02  0.00000000000E+00 0.  1.
</event>
<event>
 4    1  0.3927513E+003  0.2115238E+02  0.7546771E-02  0.1517100E+00
          2   -1    0    0  502    0  0.00000000000E+00  0.00000000000E+00  0.64480462010E+02  0.64480462010E+02  0.00000000000E+00 0. -1.
          1   -1    0    0  501    0 -0.00000000000E+00 -0.00000000000E+00 -0.13551559917E+02  0.13551559917E+02  0.00000000000E+00 0. -1.
          2    1    1    2  501    0  0.30751385979E+01  0.20927656597E+02  0.52718837545E+02  0.56804041407E+02  0.00000000000E+00 0. -1.
          1    1    1    2  502    0 -0.30751385979E+01 -0.20927656597E+02 -0.17899354525E+01  0.21227980520E+02  0.00000000000E+00 0. -1.
</event>
<event>
 4    1  0.3927513E+003  0.3230021E+02  0.7546771E-02  0.1400607E+00
          2   -1    0    0  502    0  0.00000000000E+00  0.00000000000E+00  0.10547146196E+02  0.10547146196E+02  0.00000000000E+00 0.  1.
          1   -1    0    0  501    0 -0.00000000000E+00 -0.00000000000E+00 -0.14602430836E+04  0.14602430836E+04  0.00000000000E+00 0. -1.
          2    1    1    2  501    0  0.20349516087E+02 -0.25083868533E+02 -0.14797734313E+02  0.35528526656E+02  0.00000000000E+00 0.  1.
          1    1    1    2  502    0 -0.20349516087E+02  0.25083868533E+02 -0.14348982031E+04  0.14352617031E+04  0.00000000000E+00 0. -1.
</event>
<event>
 4    1  0.3927513E+003  0.2110774E+02  0.7546771E-02  0.1517732E+00
          2   -1    0    0  502    0  0.00000000000E+00  0.00000000000E+00  0.13308889928E+03  0.13308889928E+03  0.00000000000E+00 0. -1.
          1   -1    0    0  501    0 -0.00000000000E+00 -0.00000000000E+00 -0.44019024952E+01  0.44019024952E+01  0.00000000000E+00 0.  1.
          2    1    1    2  501    0  0.20984264251E+02 -0.22797809696E+01  0.97986376117E+02  0.10023405934E+03  0.00000000000E+00 0. -1.
          1    1    1    2  502    0 -0.20984264251E+02  0.22797809696E+01  0.30700620667E+02  0.37256742434E+02  0.00000000000E+00 0.  1.
</event>
<event>
 4    1  0.3927513E+003  0.2084359E+02  0.7546771E-02  0.1521510E+00
          2   -1    0    0  502    0  0.00000000000E+00  0.00000000000E+00  0.34274863680E+02  0.34274863680E+02  0.00000000000E+00 0.  1.
          1   -1    0    0  501    0 -0.00000000000E+00 -0.00000000000E+00 -0.27062489604E+02  0.27062489604E+02  0.00000000000E+00 0. -1.
          2    1    1    2  501    0 -0.10607787530E+01 -0.20816578684E+02  0.25967345221E+02  0.33298021225E+02  0.00000000000E+00 0.  1.
          1    1    1    2  502    0  0.10607787530E+01  0.20816578684E+02 -0.18754971145E+02  0.28039332059E+02  0.00000000000E+00 0. -1.
</event>
<event>
 4    1  0.3927513E+003  0.3091542E+02  0.7546771E-02  0.1411805E+00
          2   -1    0    0  502    0  0.00000000000E+00  0.00000000000E+00  0.16835354065E+04  0.16835354065E+04  0.00000000000E+00 0. -1.
          1   -1    0    0  501    0 -0.00000000000E+00 -0.00000000000E+00 -0.58055953242E+00  0.58055953242E+00  0.00000000000E+00 0. -1.
          2    1    1    2  501    0  0.20466821864E+02  0.23170480367E+02  0.71620903812E+03  0.71687596433E+03  0.00000000000E+00 0. -1.
          1    1    1    2  502    0 -0.20466821864E+02 -0.23170480367E+02  0.96674580880E+03  0.96724000165E+03  0.00000000000E+00 0. -1.
</event>
<event>
 4    1  0.3927513E+003  0.2862780E+02  0.7546771E-02  0.1431908E+00
          2   -1    0    0  502    0  0.00000000000E+00  0.00000000000E+00  0.12088440057E+04  0.12088440057E+04  0.00000000000E+00 0. -1.
          1   -1    0    0  501    0 -0.00000000000E+00 -0.00000000000E+00 -0.69193155299E+00  0.69193155299E+00  0.00000000000E+00 0. -1.
          2    1    1    2  501    0  0.26884189701E+02  0.98382266530E+01  0.51814546569E+03  0.51893571276E+03  0.00000000000E+00 0. -1.
          1    1    1    2  502    0 -0.26884189701E+02 -0.98382266530E+01  0.69000660849E+03  0.69060022453E+03  0.00000000000E+00 0. -1.
</event>
<event>
 4    1  0.3927513E+003  0.3089921E+02  0.7546771E-02  0.1411940E+00
          2   -1    0    0  502    0  0.00000000000E+00  0.00000000000E+00  0.82395498095E+02  0.82395498095E+02  0.00000000000E+00 0. -1.
          1   -1    0    0  501    0 -0.00000000000E+00 -0.00000000000E+00 -0.55552028911E+03  0.55552028911E+03  0.00000000000E+00 0. -1.
          2    1    1    2  501    0 -0.13983611654E+02  0.27553940136E+02  0.79051413348E+02  0.84875714808E+02  0.00000000000E+00 0. -1.
          1    1    1    2  502    0  0.13983611654E+02 -0.27553940136E+02 -0.55217620436E+03  0.55304007240E+03  0.00000000000E+00 0. -1.
</event>
<event>
 4    1  0.3927513E+003  0.2952940E+02  0.7546771E-02  0.1423731E+00
          2   -1    0    0  502    0  0.00000000000E+00  0.00000000000E+00  0.12931715369E+04  0.12931715369E+04  0.00000000000E+00 0. -1.
          1   -1    0    0  501    0 -0.00000000000E+00 -0.00000000000E+00 -0.21462611951E+02  0.21462611951E+02  0.00000000000E+00 0. -1.
          2    1    1    2  501    0  0.15329493958E+02  0.25238698677E+02  0.12827635347E+04  0.12831033751E+04  0.00000000000E+00 0. -1.
          1    1    1    2  502    0 -0.15329493958E+02 -0.25238698677E+02 -0.11054609742E+02  0.31530773737E+02  0.00000000000E+00 0. -1.
</event>
<event>
 4    1  0.3927513E+003  0.2283551E+02  0.7546771E-02  0.1494574E+00
          2   -1    0    0  502    0  0.00000000000E+00  0.00000000000E+00  0.59270565707E+03  0.59270565707E+03  0.00000000000E+00 0.  1.
          1   -1    0    0  501    0 -0.00000000000E+00 -0.00000000000E+00 -0.38340778909E+01  0.38340778909E+01  0.00000000000E+00 0.  1.
          2    1    1    2  501    0 -0.22794981588E+02  0.13599339311E+01  0.55625699305E+03  0.55672551848E+03  0.00000000000E+00 0.  1.
          1    1    1    2  502    0  0.22794981588E+02 -0.13599339311E+01  0.32614586129E+02  0.39814216484E+02  0.00000000000E+00 0.  1.
</event>
<event>
 4    1  0.3927513E+003  0.2476429E+02  0.7546771E-02  0.1471458E+00
          2   -1    0    0  502    0  0.00000000000E+00  0.00000000000E+00  0.10264648366E+03  0.10264648366E+03  0.00000000000E+00 0.  1.
          1   -1    0    0  501    0 -0.00000000000E+00 -0.00000000000E+00 -0.15029493065E+02  0.15029493065E+02  0.00000000000E+00 0.  1.
          2    1    1    2  501    0  0.77765551001E+01 -0.23511595107E+02  0.89478149761E+02  0.92841850468E+02  0.00000000000E+00 0.  1.
          1    1    1    2  502    0 -0.77765551001E+01  0.23511595107E+02 -0.18611591619E+01  0.24834126260E+02  0.00000000000E+00 0.  1.
</event>
<event>
 4    1  0.3927513E+003  0.2615458E+02  0.7546771E-02  0.1456290E+00
          2   -1    0    0  502    0  0.00000000000E+00  0.00000000000E+00  0.12888521628E+04  0.12888521628E+04  0.00000000000E+00 0. -1.
          1   -1    0    0  501    0 -0.00000000000E+00 -0.00000000000E+00 -0.55506263238E+01  0.55506263238E+01  0.00000000000E+00 0.  1.
          2    1    1    2  501    0  0.15689677075E+02  0.20925964069E+02  0.12571320294E+04  0.12574040724E+04  0.00000000000E+00 0. -1.
          1    1    1    2  502    0 -0.15689677075E+02 -0.20925964069E+02  0.26169507084E+02  0.36998716734E+02  0.00000000000E+00 0.  1.
</event>
<event>
 4    1  0.3927513E+003  0.2522176E+02  0.7546771E-02  0.1466338E+00
          2   -1    0    0  502    0  0.00000000000E+00  0.00000000000E+00  0.15260878862E+03  0.15260878862E+03  0.00000000000E+00 0. -1.
          1   -1    0    0  501    0 -0.00000000000E+00 -0.00000000000E+00 -0.15456336330E+02  0.15456336330E+02  0.00000000000E+00 0. -1.
          2    1    1    2  501    0 -0.22375076781E+02  0.11640158716E+02  0.14038892352E+03  0.14263655634E+03  0.00000000000E+00 0. -1.
          1    1    1    2  502    0  0.22375076781E+02 -0.11640158716E+02 -0.32364712278E+01  0.25428568617E+02  0.00000000000E+00 0. -1.
</event>
<event>
 4    1  0.3927513E+003  0.2260991E+02  0.7546771E-02  0.1497456E+00
          2   -1    0    0  502    0  0.00000000000E+00  0.00000000000E+00  0.85426072508E+03  0.85426072508E+03  0.00000000000E+00 0.  1.
          1   -1    0    0  501    0 -0.00000000000E+00 -0.00000000000E+00 -0.15205995949E+01  0.15205995949E+01  0.00000000000E+00 0.  1.
          2    1    1    2  501    0 -0.30022483154E+01 -0.22409692636E+02  0.75959141351E+03  0.75992784085E+03  0.00000000000E+00 0.  1.
          1    1    1    2  502    0  0.30022483154E+01  0.22409692636E+02  0.93148711978E+02  0.95853483829E+02  0.00000000000E+00 0.  1.
</event>
<event>
 4    1  0.3927513E+003  0.2170608E+02  0.7546771E-02  0.1509418E+00
          2   -1    0    0  502    0  0.00000000000E+00  0.00000000000E+00  0.43242856751E+03  0.43242856751E+03  0.00000000000E+00 0.  1.
          1   -1    0    0  501    0 -0.00000000000E+00 -0.00000000000E+00 -0.10452983864E+03  0.10452983864E+03  0.00000000000E+00 0. -1.
          2    1    1    2  501    0  0.15139816234E+02 -0.15554413305E+02  0.43102567352E+03  0.43157187702E+03  0.00000000000E+00 0.  1.
          1    1    1    2  502    0 -0.15139816234E+02  0.15554413305E+02 -0.10312694465E+03  0.10538652913E+03  0.00000000000E+00 0. -1.
</event>
<event>
 4    1  0.3927513E+003  0.2041256E+02  0.7546771E-02  0.1527820E+00
          2   -1    0    0  502    0  0.00000000000E+00  0.00000000000E+00  0.95036310901E+02  0.95036310901E+02  0.00000000000E+00 0. -1.
          1   -1    0    0  501    0 -0.00000000000E+00 -0.00000000000E+00 -0.52383387891E+01  0.52383387891E+01  0.00000000000E+00 0. -1.
          2    1    1    2  501    0 -0.42502958087E+00 -0.20408137752E+02  0.65142676295E+02  0.68265957925E+02  0.00000000000E+00 0. -1.
          1    1    1    2  502    0  0.42502958087E+00  0.20408137752E+02  0.24655295818E+02  0.32008691765E+02  0.00000000000E+00 0. -1.
</event>
<event>
 4    1  0.3927513E+003  0.2176668E+02  0.7546771E-02  0.1508594E+00
          2   -1    0    0  502    0  0.00000000000E+00  0.00000000000E+00  0.10656715573E+03  0.10656715573E+03  0.00000000000E+00 0.  1.
          1   -1    0    0  501    0 -0.00000000000E+00 -0.00000000000E+00 -0.42150215556E+03  0.42150215556E+03  0.00000000000E+00 0. -1.
          2    1    1    2  501    0  0.48760068000E+01 -0.21213503894E+02  0.10517097461E+03  0.10739982351E+03  0.00000000000E+00 0.  1.
          1    1    1    2  502    0 -0.48760068000E+01  0.21213503894E+02 -0.42010597444E+03  0.42066948778E+03  0.00000000000E+00 0. -1.
</event>
<event>
 4    1  0.3927513E+003  0.2312604E+02  0.7546771E-02  0.1490922E+00
          2   -1    0    0  502    0  0.00000000000E+00  0.00000000000E+00  0.19022000410E+03  0.19022000410E+03  0.00000000000E+00 0. -1.
          1   -1    0    0  501    0 -0.00000000000E+00 -0.00000000000E+00 -0.17762339684E+03  0.17762339684E+03  0.00000000000E+00 0.  1.
          2    1    1    2  501    0  0.31024807164E+01  0.22916983162E+02  0.18875857464E+03  0.19016995820E+03  0.00000000000E+00 0. -1.
          1    1    1    2  502    0 -0.31024807164E+01 -0.22916983162E+02 -0.17616196738E+03  0.17767344274E+03  0.00000000000E+00 0.  1.
</event>
<event>
 4    1  0.3927513E+003  0.2279362E+02  0.7546771E-02  0.1495106E+00
          2   -1    0    0  502    0  0.00000000000E+00  0.00000000000E+00  0.54651065349E+02  0.54651065349E+02  0.00000000000E+00 0.  1.
          1   -1    0    0  501    0 -0.00000000000E+00 -0.00000000000E+00 -0.42367785037E+02  0.42367785037E+02  0.00000000000E+00 0.  1.
          2    1    1    2  501    0 -0.22275385242E+02  0.48328217782E+01  0.48863433981E+02  0.53918309826E+02  0.00000000000E+00 0.  1.
          1    1    1    2  502    0  0.22275385242E+02 -0.48328217782E+01 -0.36580153670E+02  0.43100540560E+02  0.00000000000E+00 0.  1.
</event>
<event>
 4    1  0.3927513E+003  0.2273748E+02  0.7546771E-02  0.1495821E+00
          2   -1    0    0  502    0  0.00000000000E+00  0.00000000000E+00  0.16543752663E+04  0.16543752663E+04  0.00000000000E+00 0. -1.
          1   -1    0    0  501    0 -0.00000000000E+00 -0.00000000000E+00 -0.59486526938E+00  0.59486526938E+00  0.00000000000E+00 0. -1.
          2    1    1    2  501    0 -0.14041435676E+02  0.17883815645E+02  0.13969970526E+04  0.13971820776E+04  0.00000000000E+00 0. -1.
          1    1    1    2  502    0  0.14041435676E+02 -0.17883815645E+02  0.25678334843E+03  0.25778805405E+03  0.00000000000E+00 0. -1.
</event>
<event>
 4    1  0.3927513E+003  0.3938329E+02  0.7546771E-02  0.1352138E+00
          2   -1    0    0  502    0  0.00000000000E+00  0.00000000000E+00  0.80690384612E+02  0.80690384612E+02  0.00000000000E+00 0.  1.
          1   -1    0    0  501    0 -0.00000000000E+00 -0.00000000000E+00 -0.56631303650E+02  0.56631303650E+02  0.00000000000E+00 0.  1.
          2    1    1    2  501    0  0.32862121789E+02 -0.21705399920E+02  0.67834107870E+02  0.78437934857E+02  0.00000000000E+00 0.  1.
          1    1    1    2  502    0 -0.32862121789E+02  0.21705399920E+02 -0.43775026908E+02  0.58883753405E+02  0.00000000000E+00 0.  1.
</event>
<event>
 4    1  0.3927513E+003  0.2149764E+02  0.7546771E-02  0.1512277E+00
          2   -1    0    0  502    0  0.00000000000E+00  0.00000000000E+00  0.19458884325E+03  0.19458884325E+03  0.00000000000E+00 0. -1.
          1   -1    0    0  501    0 -0.00000000000E+00 -0.00000000000E+00 -0.48754115402E+02  0.48754115402E+02  0.00000000000E+00 0. -1.
          2    1    1    2  501    0  0.90318247454E+01 -0.19508326140E+02  0.19158830187E+03  0.19279062752E+03  0.00000000000E+00 0. -1.
          1    1    1    2  502    0 -0.90318247454E+01  0.19508326140E+02 -0.45753574022E+02  0.50552331131E+02  0.00000000000E+00 0. -1.
</event>
<event>
 4    1  0.3927513E+003  0.2321258E+02  0.7546771E-02  0.1489846E+00
          2   -1    0    0  502    0  0.00000000000E+00  0.00000000000E+00  0.10637635408E+04  0.10637635408E+04  0.00000000000E+00 0. -1.
          1   -1    0    0  501    0 -0.00000000000E+00 -0.00000000000E+00 -0.12027402197E+02  0.12027402197E+02  0.00000000000E+00 0.  1.
          2    1    1    2  501    0 -0.15768944347E+02 -0.17034203650E+02  0.10523151591E+04  0.10525711462E+04  0.00000000000E+00 0. -1.
          1    1    1    2  502    0  0.15768944347E+02  0.17034203650E+02 -0.57902049061E+00  0.23219796824E+02  0.00000000000E+00 0.  1.
</event>
<event>
 4    1  0.3927513E+003  0.2267858E+02  0.7546771E-02  0.1496574E+00
          2   -1    0    0  502    0  0.00000000000E+00  0.00000000000E+00  0.50713017687E+00  0.50713017687E+00  0.00000000000E+00 0. -1.
          1   -1    0    0  501    0 -0.00000000000E+00 -0.00000000000E+00 -0.11297430040E+04  0.11297430040E+04  0.00000000000E+00 0. -1.
          2    1    1    2  501    0  0.19898311964E+02 -0.10880032771E+02 -0.38386866055E+03  0.38453799095E+03  0.00000000000E+00 0. -1.
          1    1    1    2  502    0 -0.19898311964E+02  0.10880032771E+02 -0.74536721327E+03  0.74571214322E+03  0.00000000000E+00 0. -1.
</event>
<event>
 4    1  0.3927513E+003  0.5338798E+02  0.7546771E-02  0.1284116E+00
          2   -1    0    0  502    0  0.00000000000E+00  0.00000000000E+00  0.13770964375E+04  0.13770964375E+04  0.00000000000E+00 0.  1.
          1   -1    0    0  501    0 -0.00000000000E+00 -0.00000000000E+00 -0.22219285883E+01  0.22219285883E+01  0.00000000000E+00 0. -1.
          2    1    1    2  501    0  0.48778545418E+01  0.53164678955E+02  0.86791095245E+03  0.86955143490E+03  0.00000000000E+00 0.  1.
          1    1    1    2  502    0 -0.48778545418E+01 -0.53164678955E+02  0.50696355647E+03  0.50976693120E+03  0.00000000000E+00 0. -1.
</event>
<event>
 4    1  0.3927513E+003  0.2596108E+02  0.7546771E-02  0.1458333E+00
          2   -1    0    0  502    0  0.00000000000E+00  0.00000000000E+00  0.79999569826E+03  0.79999569826E+03  0.00000000000E+00 0. -1.
          1   -1    0    0  501    0 -0.00000000000E+00 -0.00000000000E+00 -0.15691150923E+03  0.15691150923E+03  0.00000000000E+00 0.  1.
          2    1    1    2  501    0 -0.25611797517E+02 -0.42442283873E+01  0.79870953234E+03  0.79913133758E+03  0.00000000000E+00 0. -1.
          1    1    1    2  502    0  0.25611797517E+02  0.42442283873E+01 -0.15562534331E+03  0.15777586991E+03  0.00000000000E+00 0.  1.
</event>
<event>
 4    1  0.3927513E+003  0.2217123E+02  0.7546771E-02  0.1503176E+00
          2   -1    0    0  502    0  0.00000000000E+00  0.00000000000E+00  0.92641420149E+00  0.92641420149E+00  0.00000000000E+00 0. -1.
          1   -1    0    0  501    0 -0.00000000000E+00 -0.00000000000E+00 -0.10427394318E+04  0.10427394318E+04  0.00000000000E+00 0. -1.
          2    1    1    2  501    0 -0.16295267946E+02 -0.15034223195E+02 -0.15519897312E+03  0.15677463086E+03  0.00000000000E+00 0. -1.
          1    1    1    2  502    0  0.16295267946E+02  0.15034223195E+02 -0.88661404450E+03  0.88689121516E+03  0.00000000000E+00 0. -1.
</event>
<event>
 4    1  0.3927513E+003  0.2020295E+02  0.7546771E-02  0.1530956E+00
          2   -1    0    0  502    0  0.00000000000E+00  0.00000000000E+00  0.10636078440E+04  0.10636078440E+04  0.00000000000E+00 0. -1.
          1   -1    0    0  501    0 -0.00000000000E+00 -0.00000000000E+00 -0.17273766121E+01  0.17273766121E+01  0.00000000000E+00 0.  1.
          2    1    1    2  501    0  0.26749594137E+01  0.20025075392E+02  0.10007284727E+04  0.10009323829E+04  0.00000000000E+00 0. -1.
          1    1    1    2  502    0 -0.26749594137E+01 -0.20025075392E+02  0.61151994755E+02  0.64402837786E+02  0.00000000000E+00 0.  1.
</event>
<event>
 4    1  0.3927513E+003  0.2374171E+02  0.7546771E-02  0.1483389E+00
          2   -1    0    0  502    0  0.00000000000E+00  0.00000000000E+00  0.18676081792E+02  0.18676081792E+02  0.00000000000E+00 0. -1.
          1   -1    0    0  501    0 -0.00000000000E+00 -0.00000000000E+00 -0.16321947875E+03  0.16321947875E+03  0.00000000000E+00 0. -1.
          2    1    1    2  501    0  0.17692542719E+02  0.15831696894E+02  0.98379575286E+01  0.25699301601E+02  0.00000000000E+00 0. -1.
          1    1    1    2  502    0 -0.17692542719E+02 -0.15831696894E+02 -0.15438135449E+03  0.15619625894E+03  0.00000000000E+00 0. -1.
</event>
<event>
 4    1  0.3927513E+003  0.2648330E+02  0.7546771E-02  0.1452869E+00
          2   -1    0    0  502    0  0.00000000000E+00  0.00000000000E+00  0.22490788559E+01  0.22490788559E+01  0.00000000000E+00 0. -1.
          1   -1    0    0  501    0 -0.00000000000E+00 -0.00000000000E+00 -0.16634486057E+04  0.16634486057E+04  0.00000000000E+00 0.  1.
          2    1    1    2  501    0  0.11047082780E+02 -0.24069214282E+02 -0.79865765879E+02  0.84142175356E+02  0.00000000000E+00 0. -1.
          1    1    1    2  502    0 -0.11047082780E+02  0.24069214282E+02 -0.15813337610E+04  0.15815555092E+04  0.00000000000E+00 0.  1.
</event>
<event>
 4    1  0.3927513E+003  0.4353840E+02  0.7546771E-02  0.1328912E+00
          2   -1    0    0  502    0  0.00000000000E+00  0.00000000000E+00  0.20819137336E+04  0.20819137336E+04  0.00000000000E+00 0. -1.
          1   -1    0    0  501    0 -0.00000000000E+00 -0.00000000000E+00 -0.22216903594E+01  0.22216903594E+01  0.00000000000E+00 0.  1.
          2    1    1    2  501    0  0.38389589121E+02 -0.20538541258E+02  0.18403919823E+04  0.18409069071E+04  0.00000000000E+00 0. -1.
          1    1    1    2  502    0 -0.38389589121E+02  0.20538541258E+02  0.23930006099E+03  0.24322851687E+03  0.00000000000E+00 0.  1.
</event>
<event>
 4    1  0.3927513E+003  0.3004981E+02  0.7546771E-02  0.1419164E+00
          2   -1    0    0  502    0  0.00000000000E+00  0.00000000000E+00  0.22568698032E+03  0.22568698032E+03  0.00000000000E+00 0. -1.
          1   -1    0    0  501    0 -0.00000000000E+00 -0.00000000000E+00 -0.41282808560E+02  0.41282808560E+02  0.00000000000E+00 0. -1.
          2    1    1    2  501    0  0.44327796321E+01 -0.29721065256E+02  0.21905356488E+03  0.22110507806E+03  0.00000000000E+00 0. -1.
          1    1    1    2  502    0 -0.44327796321E+01  0.29721065256E+02 -0.34649393121E+02  0.45864710823E+02  0.00000000000E+00 0. -1.
</event>
<event>
 4    1  0.3927513E+003  0.4032041E+02  0.7546771E-02  0.1346618E+00
          2   -1    0    0  502    0  0.00000000000E+00  0.00000000000E+00  0.16422137430E+04  0.16422137430E+04  0.00000000000E+00 0. -1.
          1   -1    0    0  501    0 -0.00000000000E+00 -0.00000000000E+00 -0.94084879482E+03  0.94084879482E+03  0.00000000000E+00 0.  1.
          2    1    1    2  501    0 -0.21996298849E+02  0.33791991414E+02  0.16415340862E+04  0.16420291995E+04  0.00000000000E+00 0. -1.
          1    1    1    2  502    0  0.21996298849E+02 -0.33791991414E+02 -0.94016913799E+03  0.94103333835E+03  0.00000000000E+00 0.  1.
</event>
<event>
 4    1  0.3927513E+003  0.3173977E+02  0.7546771E-02  0.1405057E+00
          2   -1    0    0  502    0  0.00000000000E+00  0.00000000000E+00  0.73033268114E+03  0.73033268114E+03  0.00000000000E+00 0. -1.
          1   -1    0    0  501    0 -0.00000000000E+00 -0.00000000000E+00 -0.49410733757E+01  0.49410733757E+01  0.00000000000E+00 0.  1.
          2    1    1    2  501    0  0.31671526439E+02  0.20801847445E+01  0.67482625621E+03  0.67557226766E+03  0.00000000000E+00 0. -1.
          1    1    1    2  502    0 -0.31671526439E+02 -0.20801847445E+01  0.50565351559E+02  0.59701486864E+02  0.00000000000E+00 0.  1.
</event>
<event>
 4    1  0.3927513E+003  0.2710804E+02  0.7546771E-02  0.1446526E+00
          2   -1    0    0  502    0  0.00000000000E+00  0.00000000000E+00  0.68731638760E+01  0.68731638760E+01  0.00000000000E+00 0. -1.
          1   -1    0    0  501    0 -0.00000000000E+00 -0.00000000000E+00 -0.10813476577E+03  0.10813476577E+03  0.00000000000E+00 0. -1.
          2    1    1    2  501    0  0.10703092756E+02 -0.24905614568E+02 -0.44523995628E+02  0.52127075673E+02  0.00000000000E+00 0. -1.
          1    1    1    2  502    0 -0.10703092756E+02  0.24905614568E+02 -0.56737606265E+02  0.62880853972E+02  0.00000000000E+00 0. -1.
</event>
<event>
 4    1  0.3927513E+003  0.2474068E+02  0.7546771E-02  0.1471725E+00
          2   -1    0    0  502    0  0.00000000000E+00  0.00000000000E+00  0.19855599355E+01  0.19855599355E+01  0.00000000000E+00 0. -1.
          1   -1    0    0  501    0 -0.00000000000E+00 -0.00000000000E+00 -0.31098794824E+03  0.31098794824E+03  0.00000000000E+00 0. -1.
          2    1    1    2  501    0 -0.21612116598E+02 -0.12042329359E+02 -0.13988904785E+03  0.14206001193E+03  0.00000000000E+00 0. -1.
          1    1    1    2  502    0  0.21612116598E+02  0.12042329359E+02 -0.16911334045E+03  0.17091349624E+03  0.00000000000E+00 0. -1.
</event>
<event>
 4    1  0.3927513E+003  0.2616565E+02  0.7546771E-02  0.1456174E+00
          2   -1    0    0  502    0  0.00000000000E+00  0.00000000000E+00  0.87335426565E+02  0.87335426565E+02  0.00000000000E+00 0.  1.
          1   -1    0    0  501    0 -0.00000000000E+00 -0.00000000000E+00 -0.79338774156E+01  0.79338774156E+01  0.00000000000E+00 0.  1.
          2    1    1    2  501    0 -0.71776013390E+01 -0.25161938313E+02  0.44903983754E+02  0.51971231057E+02  0.00000000000E+00 0.  1.
          1    1    1    2  502    0  0.71776013390E+01  0.25161938313E+02  0.34497565395E+02  0.43298072923E+02  0.00000000000E+00 0.  1.
</event>
<event>
 4    1  0.3927513E+003  0.2430830E+02  0.7546771E-02  0.1476692E+00
          2   -1    0    0  502    0  0.00000000000E+00  0.00000000000E+00  0.79992660615E+03  0.79992660615E+03  0.00000000000E+00 0. -1.
          1   -1    0    0  501    0 -0.00000000000E+00 -0.00000000000E+00 -0.29812577413E+01  0.29812577413E+01  0.00000000000E+00 0.  1.
          2    1    1    2  501    0 -0.22294221154E+02  0.96882032089E+01  0.74665702543E+03  0.74705261341E+03  0.00000000000E+00 0. -1.
          1    1    1    2  502    0  0.22294221154E+02 -0.96882032089E+01  0.50288322971E+02  0.55855250474E+02  0.00000000000E+00 0.  1.
</event>
<event>
 4    1  0.3927513E+003  0.3592818E+02  0.7546771E-02  0.1374153E+00
          2   -1    0    0  502    0  0.00000000000E+00  0.00000000000E+00  0.79301213011E+01  0.79301213011E+01  0.00000000000E+00 0.  1.
          1   -1    0    0  501    0 -0.00000000000E+00 -0.00000000000E+00 -0.38718690627E+03  0.38718690627E+03  0.00000000000E+00 0.  1.
          2    1    1    2  501    0 -0.35453242733E+02  0.58224925964E+01 -0.39225098303E+02  0.53192501137E+02  0.00000000000E+00 0.  1.
          1    1    1    2  502    0  0.35453242733E+02 -0.58224925964E+01 -0.34003168666E+03  0.34192452643E+03  0.00000000000E+00 0.  1.
</event>
<event>
 4    1  0.3927513E+003  0.2025551E+02  0.7546771E-02  0.1530165E+00
          2   -1    0    0  502    0  0.00000000000E+00  0.00000000000E+00  0.75837673553E+02  0.75837673553E+02  0.00000000000E+00 0. -1.
          1   -1    0    0  501    0 -0.00000000000E+00 -0.00000000000E+00 -0.35635382737E+02  0.35635382737E+02  0.00000000000E+00 0.  1.
          2    1    1    2  501    0  0.14144819290E+02 -0.14498607671E+02  0.71432739424E+02  0.74249052511E+02  0.00000000000E+00 0. -1.
          1    1    1    2  502    0 -0.14144819290E+02  0.14498607671E+02 -0.31230448608E+02  0.37224003780E+02  0.00000000000E+00 0.  1.
</event>
<event>
 4    1  0.3927513E+003  0.2126436E+02  0.7546771E-02  0.1515524E+00
          2   -1    0    0  502    0  0.00000000000E+00  0.00000000000E+00  0.11772231384E+03  0.11772231384E+03  0.00000000000E+00 0.  1.
          1   -1    0    0  501    0 -0.00000000000E+00 -0.00000000000E+00 -0.34550763876E+02  0.34550763876E+02  0.00000000000E+00 0.  1.
          2    1    1    2  501    0 -0.18957941306E+02  0.96316948277E+01  0.11336560759E+03  0.11534268103E+03  0.00000000000E+00 0.  1.
          1    1    1    2  502    0  0.18957941306E+02 -0.96316948277E+01 -0.30194057621E+02  0.36930396686E+02  0.00000000000E+00 0.  1.
</event>
<event>
 4    1  0.3927513E+003  0.2150528E+02  0.7546771E-02  0.1512172E+00
          2   -1    0    0  502    0  0.00000000000E+00  0.00000000000E+00  0.13276793168E+04  0.13276793168E+04  0.00000000000E+00 0.  1.
          1   -1    0    0  501    0 -0.00000000000E+00 -0.00000000000E+00 -0.56120738103E+01  0.56120738103E+01  0.00000000000E+00 0.  1.
          2    1    1    2  501    0  0.17386526576E+02 -0.12656452559E+02  0.13066589502E+04  0.13068359076E+04  0.00000000000E+00 0.  1.
          1    1    1    2  502    0 -0.17386526576E+02  0.12656452559E+02  0.15408292787E+02  0.26455483068E+02  0.00000000000E+00 0.  1.
</event>
<event>
 4    1  0.3927513E+003  0.2489220E+02  0.7546771E-02  0.1470013E+00
          2   -1    0    0  502    0  0.00000000000E+00  0.00000000000E+00  0.39666907110E+02  0.39666907110E+02  0.00000000000E+00 0.  1.
          1   -1    0    0  501    0 -0.00000000000E+00 -0.00000000000E+00 -0.15708519729E+02  0.15708519729E+02  0.00000000000E+00 0.  1.
          2    1    1    2  501    0 -0.61469756953E+01 -0.24121285509E+02  0.14050339125E+02  0.28583802307E+02  0.00000000000E+00 0.  1.
          1    1    1    2  502    0  0.61469756953E+01  0.24121285509E+02  0.99080482560E+01  0.26791624532E+02  0.00000000000E+00 0.  1.
</event>
<event>
 4    1  0.3927513E+003  0.2914632E+02  0.7546771E-02  0.1427163E+00
          2   -1    0    0  502    0  0.00000000000E+00  0.00000000000E+00  0.11525447999E+03  0.11525447999E+03  0.00000000000E+00 0.  1.
          1   -1    0    0  501    0 -0.00000000000E+00 -0.00000000000E+00 -0.79194753580E+02  0.79194753580E+02  0.00000000000E+00 0.  1.
          2    1    1    2  501    0  0.28601291805E+02 -0.56101720101E+01  0.11061962032E+03  0.11439496633E+03  0.00000000000E+00 0.  1.
          1    1    1    2  502    0 -0.28601291805E+02  0.56101720101E+01 -0.74559893910E+02  0.80054267236E+02  0.00000000000E+00 0.  1.
</event>
<event>
 4    1  0.3927513E+003  0.2627486E+02  0.7546771E-02  0.1455031E+00
          2   -1    0    0  502    0  0.00000000000E+00  0.00000000000E+00  0.61324437279E+03  0.61324437279E+03  0.00000000000E+00 0. -1.
          1   -1    0    0  501    0 -0.00000000000E+00 -0.00000000000E+00 -0.12893814932E+01  0.12893814932E+01  0.00000000000E+00 0.  1.
          2    1    1    2  501    0 -0.72061304190E+01 -0.25267365372E+02  0.41543377906E+03  0.41626385004E+03  0.00000000000E+00 0. -1.
          1    1    1    2  502    0  0.72061304190E+01  0.25267365372E+02  0.19652121224E+03  0.19826990424E+03  0.00000000000E+00 0.  1.
</event>
<event>
 4    1  0.3927513E+003  0.2261474E+02  0.7546771E-02  0.1497393E+00
          2   -1    0    0  502    0  0.00000000000E+00  0.00000000000E+00  0.21868403343E+03  0.21868403343E+03  0.00000000000E+00 0.  1.
          1   -1    0    0  501    0 -0.00000000000E+00 -0.00000000000E+00 -0.77146640111E+02  0.77146640111E+02  0.00000000000E+00 0. -1.
          2    1    1    2  501    0 -0.48252938095E+01 -0.22093959350E+02  0.21642479665E+03  0.21760312292E+03  0.00000000000E+00 0.  1.
          1    1    1    2  502    0  0.48252938095E+01  0.22093959350E+02 -0.74887403325E+02  0.78227550626E+02  0.00000000000E+00 0. -1.
</event>
<event>
 4    1  0.3927513E+003  0.2308917E+02  0.7546771E-02  0.1491381E+00
          2   -1    0    0  502    0  0.00000000000E+00  0.00000000000E+00  0.64143286115E+02  0.64143286115E+02  0.00000000000E+00 0.  1.
          1   -1    0    0  501    0 -0.00000000000E+00 -0.00000000000E+00 -0.11433775658E+02  0.11433775658E+02  0.00000000000E+00 0.  1.
          2    1    1    2  501    0  0.18758077476E+02  0.13462704068E+02  0.46102580835E+02  0.51561204710E+02  0.00000000000E+00 0.  1.
          1    1    1    2  502    0 -0.18758077476E+02 -0.13462704068E+02  0.66069296221E+01  0.24015857063E+02  0.00000000000E+00 0.  1.
</event>
<event>
 4    1  0.3927513E+003  0.3610549E+02  0.7546771E-02  0.1372954E+00
          2   -1    0    0  502    0  0.00000000000E+00  0.00000000000E+00  0.17800541932E+03  0.17800541932E+03  0.00000000000E+00 0.  1.
          1   -1    0    0  501    0 -0.00000000000E+00 -0.00000000000E+00 -0.87242094869E+01  0.87242094869E+01  0.00000000000E+00 0.  1.
          2    1    1    2  501    0 -0.28429169687E+02 -0.22257327486E+02  0.12205239502E+03  0.12728076620E+03  0.00000000000E+00 0.  1.
          1    1    1    2  502    0  0.28429169687E+02  0.22257327486E+02  0.47228814814E+02  0.59448862601E+02  0.00000000000E+00 0.  1.
</event>
<event>
 4    1  0.3927513E+003  0.3195757E+02  0.7546771E-02  0.1403315E+00
          2   -1    0    0  502    0  0.00000000000E+00  0.00000000000E+00  0.20829421804E+03  0.20829421804E+03  0.00000000000E+00 0. -1.
          1   -1    0    0  501    0 -0.00000000000E+00 -0.00000000000E+00 -0.52623643866E+02  0.52623643866E+02  0.00000000000E+00 0. -1.
          2    1    1    2  501    0 -0.27167269265E+02  0.16829317400E+02  0.20206802874E+03  0.20457950700E+03  0.00000000000E+00 0. -1.
          1    1    1    2  502    0  0.27167269265E+02 -0.16829317400E+02 -0.46397454568E+02  0.56338354909E+02  0.00000000000E+00 0. -1.
</event>
<event>
 4    1  0.3927513E+003  0.2456898E+02  0.7546771E-02  0.1473683E+00
          2   -1    0    0  502    0  0.00000000000E+00  0.00000000000E+00  0.46558754879E+03  0.46558754879E+03  0.00000000000E+00 0. -1.
          1   -1    0    0  501    0 -0.00000000000E+00 -0.00000000000E+00 -0.19899703264E+02  0.19899703264E+02  0.00000000000E+00 0.  1.
          2    1    1    2  501    0  0.13521726178E+02  0.20513356637E+02  0.45754678442E+03  0.45820595240E+03  0.00000000000E+00 0. -1.
          1    1    1    2  502    0 -0.13521726178E+02 -0.20513356637E+02 -0.11858938893E+02  0.27281299657E+02  0.00000000000E+00 0.  1.
</event>
<event>
 4    1  0.3927513E+003  0.3774963E+02  0.7546771E-02  0.1362203E+00
          2   -1    0    0  502    0  0.00000000000E+00  0.00000000000E+00  0.10259282727E+03  0.10259282727E+03  0.00000000000E+00 0. -1.
          1   -1    0    0  501    0 -0.00000000000E+00 -0.00000000000E+00 -0.78890223471E+03  0.78890223471E+03  0.00000000000E+00 0.  1.
          2    1    1    2  501    0  0.15490907878E+02 -0.34424788908E+02  0.98651264099E+02  0.10562720401E+03  0.00000000000E+00 0. -1.
          1    1    1    2  502    0 -0.15490907878E+02  0.34424788908E+02 -0.78496067154E+03  0.78586785796E+03  0.00000000000E+00 0.  1.
</event>
<event>
 4    1  0.3927513E+003  0.2535005E+02  0.7546771E-02  0.1464925E+00
          2   -1    0    0  502    0  0.00000000000E+00  0.00000000000E+00  0.43919007584E+01  0.43919007584E+01  0.00000000000E+00 0. -1.
          1   -1    0    0  501    0 -0.00000000000E+00 -0.00000000000E+00 -0.24728911739E+03  0.24728911739E+03  0.00000000000E+00 0. -1.
          2    1    1    2  501    0 -0.65495083641E+01  0.24489368317E+02 -0.41038412955E+02  0.48236672338E+02  0.00000000000E+00 0. -1.
          1    1    1    2  502    0  0.65495083641E+01 -0.24489368317E+02 -0.20185880368E+03  0.20344434581E+03  0.00000000000E+00 0. -1.
</event>
<event>
 4    1  0.3927513E+003  0.2121456E+02  0.7546771E-02  0.1516223E+00
          2   -1    0    0  502    0  0.00000000000E+00  0.00000000000E+00  0.11558409047E+03  0.11558409047E+03  0.00000000000E+00 0.  1.
          1   -1    0    0  501    0 -0.00000000000E+00 -0.00000000000E+00 -0.41293367714E+01  0.41293367714E+01  0.00000000000E+00 0.  1.
          2    1    1    2  501    0 -0.62647818354E+01  0.20268454955E+02  0.70023904842E+02  0.73166966638E+02  0.00000000000E+00 0.  1.
          1    1    1    2  502    0  0.62647818354E+01 -0.20268454955E+02  0.41430848855E+02  0.46546460602E+02  0.00000000000E+00 0.  1.
</event>
<event>
 4    1  0.3927513E+003  0.2083969E+02  0.7546771E-02  0.1521566E+00
          2   -1    0    0  502    0  0.00000000000E+00  0.00000000000E+00  0.11695510136E+04  0.11695510136E+04  0.00000000000E+00 0.  1.
          1   -1    0    0  501    0 -0.00000000000E+00 -0.00000000000E+00 -0.37882179491E+00  0.37882179491E+00  0.00000000000E+00 0.  1.
          2    1    1    2  501    0  0.11059015741E+02  0.17663264108E+02  0.66683350739E+03  0.66715906597E+03  0.00000000000E+00 0.  1.
          1    1    1    2  502    0 -0.11059015741E+02 -0.17663264108E+02  0.50233868444E+03  0.50277076945E+03  0.00000000000E+00 0.  1.
</event>
<event>
 4    1  0.3927513E+003  0.2091556E+02  0.7546771E-02  0.1520474E+00
          2   -1    0    0  502    0  0.00000000000E+00  0.00000000000E+00  0.71971751495E+03  0.71971751495E+03  0.00000000000E+00 0. -1.
          1   -1    0    0  501    0 -0.00000000000E+00 -0.00000000000E+00 -0.70928066982E+01  0.70928066982E+01  0.00000000000E+00 0.  1.
          2    1    1    2  501    0 -0.90960045711E+01 -0.18834095466E+02  0.70379769805E+03  0.70410841511E+03  0.00000000000E+00 0. -1.
          1    1    1    2  502    0  0.90960045711E+01  0.18834095466E+02  0.88270101983E+01  0.22701906533E+02  0.00000000000E+00 0.  1.
</event>
<event>
 4    1  0.3927513E+003  0.3808577E+02  0.7546771E-02  0.1360084E+00
          2   -1    0    0  502    0  0.00000000000E+00  0.00000000000E+00  0.13404136880E+03  0.13404136880E+03  0.00000000000E+00 0.  1.
          1   -1    0    0  501    0 -0.00000000000E+00 -0.00000000000E+00 -0.30092658857E+02  0.30092658857E+02  0.00000000000E+00 0. -1.
          2    1    1    2  501    0  0.71209746109E+01 -0.37414132573E+02  0.11764821220E+03  0.12365932002E+03  0.00000000000E+00 0.  1.
          1    1    1    2  502    0 -0.71209746109E+01  0.37414132573E+02 -0.13699502258E+02  0.40474707630E+02  0.00000000000E+00 0. -1.
</event>
<event>
 4    1  0.3927513E+003  0.3969627E+02  0.7546771E-02  0.1350275E+00
          2   -1    0    0  502    0  0.00000000000E+00  0.00000000000E+00  0.15556082956E+04  0.15556082956E+04  0.00000000000E+00 0. -1.
          1   -1    0    0  501    0 -0.00000000000E+00 -0.00000000000E+00 -0.45454797958E+01  0.45454797958E+01  0.00000000000E+00 0.  1.
          2    1    1    2  501    0 -0.11835557467E+02 -0.37890813163E+02  0.14632153013E+04  0.14637536720E+04  0.00000000000E+00 0. -1.
          1    1    1    2  502    0  0.11835557467E+02  0.37890813163E+02  0.87847514497E+02  0.96400103454E+02  0.00000000000E+00 0.  1.
</event>
<event>
 4    1  0.3927513E+003  0.3558514E+02  0.7546771E-02  0.1376496E+00
          2   -1    0    0  502    0  0.00000000000E+00  0.00000000000E+00  0.68821702832E+01  0.68821702832E+01  0.00000000000E+00 0.  1.
          1   -1    0    0  501    0 -0.00000000000E+00 -0.00000000000E+00 -0.29917926868E+03  0.29917926868E+03  0.00000000000E+00 0. -1.
          2    1    1    2  501    0 -0.31149135847E+02  0.17205618320E+02 -0.51196402545E+02  0.62348805918E+02  0.00000000000E+00 0.  1.
          1    1    1    2  502    0  0.31149135847E+02 -0.17205618320E+02 -0.24110069585E+03  0.24371263304E+03  0.00000000000E+00 0. -1.
</event>
<event>
 4    1  0.3927513E+003  0.3411119E+02  0.7546771E-02  0.1386922E+00
          2   -1    0    0  502    0  0.00000000000E+00  0.00000000000E+00  0.19232446137E+03  0.19232446137E+03  0.00000000000E+00 0.  1.
          1   -1    0    0  501    0 -0.00000000000E+00 -0.00000000000E+00 -0.23405936510E+03  0.23405936510E+03  0.00000000000E+00 0. -1.
          2    1    1    2  501    0  0.17887566453E+02  0.29044938162E+02  0.18955108989E+03  0.19259592193E+03  0.00000000000E+00 0.  1.
          1    1    1    2  502    0 -0.17887566453E+02 -0.29044938162E+02 -0.23128599362E+03  0.23378790454E+03  0.00000000000E+00 0. -1.
</event>
<event>
 4    1  0.3927513E+003  0.2007408E+02  0.7546771E-02  0.1532906E+00
          2   -1    0    0  502    0  0.00000000000E+00  0.00000000000E+00  0.17759086555E+03  0.17759086555E+03  0.00000000000E+00 0.  1.
          1   -1    0    0  501    0 -0.00000000000E+00 -0.00000000000E+00 -0.54733280408E+01  0.54733280408E+01  0.00000000000E+00 0.  1.
          2    1    1    2  501    0 -0.10875530214E+02 -0.16872801954E+02  0.15609301524E+03  0.15737851826E+03  0.00000000000E+00 0.  1.
          1    1    1    2  502    0  0.10875530214E+02  0.16872801954E+02  0.16024522270E+02  0.25685675331E+02  0.00000000000E+00 0.  1.
</event>
<event>
 4    1  0.3927513E+003  0.3494494E+02  0.7546771E-02  0.1380951E+00
          2   -1    0    0  502    0  0.00000000000E+00  0.00000000000E+00  0.34640331850E+03  0.34640331850E+03  0.00000000000E+00 0.  1.
          1   -1    0    0  501    0 -0.00000000000E+00 -0.00000000000E+00 -0.41699288071E+01  0.41699288071E+01  0.00000000000E+00 0.  1.
          2    1    1    2  501    0 -0.34738884688E+02 -0.37893251348E+01  0.24003984235E+03  0.24257014451E+03  0.00000000000E+00 0.  1.
          1    1    1    2  502    0  0.34738884688E+02  0.37893251348E+01  0.10219354735E+03  0.10800310280E+03  0.00000000000E+00 0.  1.
</event>
<event>
 4    1  0.3927513E+003  0.5156982E+02  0.7546771E-02  0.1291506E+00
          2   -1    0    0  502    0  0.00000000000E+00  0.00000000000E+00  0.14775233581E+03  0.14775233581E+03  0.00000000000E+00 0.  1.
          1   -1    0    0  501    0 -0.00000000000E+00 -0.00000000000E+00 -0.18326421928E+02  0.18326421928E+02  0.00000000000E+00 0.  1.
          2    1    1    2  501    0  0.37628237989E+02 -0.35264141986E+02  0.53619270678E+02  0.74394019869E+02  0.00000000000E+00 0.  1.
          1    1    1    2  502    0 -0.37628237989E+02  0.35264141986E+02  0.75806643199E+02  0.91684737865E+02  0.00000000000E+00 0.  1.
</event>
<event>
 4    1  0.3927513E+003  0.2162210E+02  0.7546771E-02  0.1510565E+00
          2   -1    0    0  502    0  0.00000000000E+00  0.00000000000E+00  0.11369147588E+03  0.11369147588E+03  0.00000000000E+00 0.  1.
          1   -1    0    0  501    0 -0.00000000000E+00 -0.00000000000E+00 -0.13710507214E+02  0.13710507214E+02  0.00000000000E+00 0. -1.
          2    1    1    2  501    0  0.17482008395E+02  0.12723784810E+02  0.10328936664E+03  0.10552823593E+03  0.00000000000E+00 0.  1.
          1    1    1    2  502    0 -0.17482008395E+02 -0.12723784810E+02 -0.33083979841E+01  0.21873747156E+02  0.00000000000E+00 0. -1.
</event>
<event>
 4    1  0.3927513E+003  0.2210135E+02  0.7546771E-02  0.1504102E+00
          2   -1    0    0  502    0  0.00000000000E+00  0.00000000000E+00  0.14642219781E+04  0.14642219781E+04  0.00000000000E+00 0.  1.
          1   -1    0    0  501    0 -0.00000000000E+00 -0.00000000000E+00 -0.45019602144E+01  0.45019602144E+01  0.00000000000E+00 0. -1.
          2    1    1    2  501    0 -0.74195953350E+01 -0.20818723960E+02  0.14364895461E+04  0.14366595581E+04  0.00000000000E+00 0.  1.
          1    1    1    2  502    0  0.74195953350E+01  0.20818723960E+02  0.23230471755E+02  0.32064380241E+02  0.00000000000E+00 0. -1.
</event>
<event>
 4    1  0.3927513E+003  0.3952282E+02  0.7546771E-02  0.1351305E+00
          2   -1    0    0  502    0  0.00000000000E+00  0.00000000000E+00  0.17878936302E+04  0.17878936302E+04  0.00000000000E+00 0. -1.
          1   -1    0    0  501    0 -0.00000000000E+00 -0.00000000000E+00 -0.11232990849E+02  0.11232990849E+02  0.00000000000E+00 0.  1.
          2    1    1    2  501    0 -0.38682759326E+02  0.81054002132E+01  0.17522023004E+04  0.17526479838E+04  0.00000000000E+00 0. -1.
          1    1    1    2  502    0  0.38682759326E+02 -0.81054002132E+01  0.24458338948E+02  0.46478637306E+02  0.00000000000E+00 0.  1.
</event>
<event>
 4    1  0.3927513E+003  0.3256334E+02  0.7546771E-02  0.1398554E+00
          2   -1    0    0  502    0  0.00000000000E+00  0.00000000000E+00  0.29747130577E+01  0.29747130577E+01  0.00000000000E+00 0. -1.
          1   -1    0    0  501    0 -0.00000000000E+00 -0.00000000000E+00 -0.53179582213E+03  0.53179582213E+03  0.00000000000E+00 0. -1.
          2    1    1    2  501    0 -0.19255566122E+01 -0.32506360884E+02 -0.11087879083E+03  0.11556157460E+03  0.00000000000E+00 0. -1.
          1    1    1    2  502    0  0.19255566122E+01  0.32506360884E+02 -0.41794231824E+03  0.41920896060E+03  0.00000000000E+00 0. -1.
</event>
<event>
 4    1  0.3927513E+003  0.3104769E+02  0.7546771E-02  0.1410705E+00
          2   -1    0    0  502    0  0.00000000000E+00  0.00000000000E+00  0.12022345929E+04  0.12022345929E+04  0.00000000000E+00 0.  1.
          1   -1    0    0  501    0 -0.00000000000E+00 -0.00000000000E+00 -0.83955573297E+00  0.83955573297E+00  0.00000000000E+00 0.  1.
          2    1    1    2  501    0  0.28576860190E+02 -0.12137634547E+02  0.72825138134E+03  0.72891291218E+03  0.00000000000E+00 0.  1.
          1    1    1    2  502    0 -0.28576860190E+02  0.12137634547E+02  0.47314365584E+03  0.47416123647E+03  0.00000000000E+00 0.  1.
</event>
<event>
 4    1  0.3927513E+003  0.2719164E+02  0.7546771E-02  0.1445692E+00
          2   -1    0    0  502    0  0.00000000000E+00  0.00000000000E+00  0.74226852844E+03  0.74226852844E+03  0.00000000000E+00 0. -1.
          1   -1    0    0  501    0 -0.00000000000E+00 -0.00000000000E+00 -0.21169470497E+02  0.21169470497E+02  0.00000000000E+00 0.  1.
          2    1    1    2  501    0  0.21110288661E+02 -0.17138875066E+02  0.73317955139E+03  0.73368361022E+03  0.00000000000E+00 0. -1.
          1    1    1    2  502    0 -0.21110288661E+02  0.17138875066E+02 -0.12080493450E+02  0.29754388716E+02  0.00000000000E+00 0.  1.
</event>
<event>
 4    1  0.3927513E+003  0.2101508E+02  0.7546771E-02  0.1519050E+00
          2   -1    0    0  502    0  0.00000000000E+00  0.00000000000E+00  0.11336457984E+03  0.11336457984E+03  0.00000000000E+00 0. -1.
          1   -1    0    0  501    0 -0.00000000000E+00 -0.00000000000E+00 -0.22395184048E+02  0.22395184048E+02  0.00000000000E+00 0. -1.
          2    1    1    2  501    0  0.20997882104E+02  0.85009328639E+00  0.10717879874E+03  0.10921963473E+03  0.00000000000E+00 0. -1.
          1    1    1    2  502    0 -0.20997882104E+02 -0.85009328639E+00 -0.16209402952E+02  0.26540129153E+02  0.00000000000E+00 0. -1.
</event>
<event>
 4    1  0.3927513E+003  0.3048966E+02  0.7546771E-02  0.1415388E+00
          2   -1    0    0  502    0  0.00000000000E+00  0.00000000000E+00  0.59230858930E+00  0.59230858930E+00  0.00000000000E+00 0.  1.
          1   -1    0    0  501    0 -0.00000000000E+00 -0.00000000000E+00 -0.20266177499E+04  0.20266177499E+04  0.00000000000E+00 0. -1.
          2    1    1    2  501    0 -0.10594276414E+02 -0.28589865465E+02 -0.53161472084E+03  0.53248833838E+03  0.00000000000E+00 0.  1.
          1    1    1    2  502    0  0.10594276414E+02  0.28589865465E+02 -0.14944107205E+04  0.14947217201E+04  0.00000000000E+00 0. -1.
</event>
<event>
 4    1  0.3927513E+003  0.2051039E+02  0.7546771E-02  0.1526371E+00
          2   -1    0    0  502    0  0.00000000000E+00  0.00000000000E+00  0.63244639994E+02  0.63244639994E+02  0.00000000000E+00 0.  1.
          1   -1    0    0  501    0 -0.00000000000E+00 -0.00000000000E+00 -0.47925010965E+02  0.47925010965E+02  0.00000000000E+00 0. -1.
          2    1    1    2  501    0  0.14563259282E+02 -0.14442562204E+02  0.59243275404E+02  0.62693235716E+02  0.00000000000E+00 0.  1.
          1    1    1    2  502    0 -0.14563259282E+02  0.14442562204E+02 -0.43923646376E+02  0.48476415243E+02  0.00000000000E+00 0. -1.
</event>
<event>
 4    1  0.3927513E+003  0.2267591E+02  0.7546771E-02  0.1496608E+00
          2   -1    0    0  502    0  0.00000000000E+00  0.00000000000E+00  0.11255854211E+02  0.11255854211E+02  0.00000000000E+00 0. -1.
          1   -1    0    0  501    0 -0.00000000000E+00 -0.00000000000E+00 -0.10400097811E+04  0.10400097811E+04  0.00000000000E+00 0. -1.
          2    1    1    2  501    0  0.70235230314E+01  0.21560779961E+02 -0.41804319501E+00  0.22679767821E+02  0.00000000000E+00 0. -1.
          1    1    1    2  502    0 -0.70235230314E+01 -0.21560779961E+02 -0.10283358837E+04  0.10285858675E+04  0.00000000000E+00 0. -1.
</event>
<event>
 4    1  0.3927513E+003  0.2533982E+02  0.7546771E-02  0.1465038E+00
          2   -1    0    0  502    0  0.00000000000E+00  0.00000000000E+00  0.23885891960E+03  0.23885891960E+03  0.00000000000E+00 0.  1.
          1   -1    0    0  501    0 -0.00000000000E+00 -0.00000000000E+00 -0.72290818466E+02  0.72290818466E+02  0.00000000000E+00 0.  1.
          2    1    1    2  501    0 -0.18332438111E+02  0.17493654332E+02  0.23593889396E+03  0.23729573935E+03  0.00000000000E+00 0.  1.
          1    1    1    2  502    0  0.18332438111E+02 -0.17493654332E+02 -0.69370792828E+02  0.73853998718E+02  0.00000000000E+00 0.  1.
</event>
<event>
 4    1  0.3927513E+003  0.2108817E+02  0.7546771E-02  0.1518010E+00
          2   -1    0    0  502    0  0.00000000000E+00  0.00000000000E+00  0.91828179882E+03  0.91828179882E+03  0.00000000000E+00 0.  1.
          1   -1    0    0  501    0 -0.00000000000E+00 -0.00000000000E+00 -0.14576374574E+02  0.14576374574E+02  0.00000000000E+00 0.  1.
          2    1    1    2  501    0  0.54943742673E+01  0.20359828162E+02  0.91046802556E+03  0.91071221377E+03  0.00000000000E+00 0.  1.
          1    1    1    2  502    0 -0.54943742673E+01 -0.20359828162E+02 -0.67626013058E+01  0.22145959627E+02  0.00000000000E+00 0.  1.
</event>
<event>
 4    1  0.3927513E+003  0.2934889E+02  0.7546771E-02  0.1425340E+00
          2   -1    0    0  502    0  0.00000000000E+00  0.00000000000E+00  0.32104589904E+01  0.32104589904E+01  0.00000000000E+00 0. -1.
          1   -1    0    0  501    0 -0.00000000000E+00 -0.00000000000E+00 -0.16315474338E+04  0.16315474338E+04  0.00000000000E+00 0. -1.
          2    1    1    2  501    0 -0.11143388494E+02 -0.27151095609E+02 -0.67012315611E+02  0.73157416189E+02  0.00000000000E+00 0. -1.
          1    1    1    2  502    0  0.11143388494E+02  0.27151095609E+02 -0.15613246592E+04  0.15616004766E+04  0.00000000000E+00 0. -1.
</event>
<event>
 4    1  0.3927513E+003  0.3051515E+02  0.7546771E-02  0.1415172E+00
          2   -1    0    0  502    0  0.00000000000E+00  0.00000000000E+00  0.49694869291E+03  0.49694869291E+03  0.00000000000E+00 0. -1.
          1   -1    0    0  501    0 -0.00000000000E+00 -0.00000000000E+00 -0.23521114821E+01  0.23521114821E+01  0.00000000000E+00 0.  1.
          2    1    1    2  501    0 -0.17707943428E+01  0.30463724604E+02  0.35987958624E+03  0.36117099942E+03  0.00000000000E+00 0. -1.
          1    1    1    2  502    0  0.17707943428E+01 -0.30463724604E+02  0.13471699519E+03  0.13812980497E+03  0.00000000000E+00 0.  1.
</event>
<event>
 4    1  0.3927513E+003  0.2412571E+02  0.7546771E-02  0.1478827E+00
          2   -1    0    0  502    0  0.00000000000E+00  0.00000000000E+00  0.35509888972E+03  0.35509888972E+03  0.00000000000E+00 0.  1.
          1   -1    0    0  501    0 -0.00000000000E+00 -0.00000000000E+00 -0.17308614525E+02  0.17308614525E+02  0.00000000000E+00 0.  1.
          2    1    1    2  501    0  0.20274751104E+02  0.13076091338E+02  0.34606292782E+03  0.34690286783E+03  0.00000000000E+00 0.  1.
          1    1    1    2  502    0 -0.20274751104E+02 -0.13076091338E+02 -0.82726526280E+01  0.25504636412E+02  0.00000000000E+00 0.  1.
</event>
<event>
 4    1  0.3927513E+003  0.3053234E+02  0.7546771E-02  0.1415026E+00
          2   -1    0    0  502    0  0.00000000000E+00  0.00000000000E+00  0.19759395363E+04  0.19759395363E+04  0.00000000000E+00 0.  1.
          1   -1    0    0  501    0 -0.00000000000E+00 -0.00000000000E+00 -0.11454283193E+03  0.11454283193E+03  0.00000000000E+00 0.  1.
          2    1    1    2  501    0  0.20369535186E+02 -0.22744363996E+02  0.19737847056E+04  0.19740208429E+04  0.00000000000E+00 0.  1.
          1    1    1    2  502    0 -0.20369535186E+02  0.22744363996E+02 -0.11238800125E+03  0.11646152533E+03  0.00000000000E+00 0.  1.
</event>
<event>
 4    1  0.3927513E+003  0.4203429E+02  0.7546771E-02  0.1336960E+00
          2   -1    0    0  502    0  0.00000000000E+00  0.00000000000E+00  0.13494960857E+03  0.13494960857E+03  0.00000000000E+00 0. -1.
          1   -1    0    0  501    0 -0.00000000000E+00 -0.00000000000E+00 -0.27768186866E+02  0.27768186866E+02  0.00000000000E+00 0.  1.
          2    1    1    2  501    0 -0.42017260337E+02  0.11965191186E+01  0.11273660255E+03  0.12031800937E+03  0.00000000000E+00 0. -1.
          1    1    1    2  502    0  0.42017260337E+02 -0.11965191186E+01 -0.55551808460E+01  0.42399786067E+02  0.00000000000E+00 0.  1.
</event>
<event>
 4    1  0.3927513E+003  0.2713023E+02  0.7546771E-02  0.1446304E+00
          2   -1    0    0  502    0  0.00000000000E+00  0.00000000000E+00  0.58206272172E+03  0.58206272172E+03  0.00000000000E+00 0.  1.
          1   -1    0    0  501    0 -0.00000000000E+00 -0.00000000000E+00 -0.12645740323E+01  0.12645740323E+01  0.00000000000E+00 0.  1.
          2    1    1    2  501    0  0.26375237524E+02 -0.63558069145E+01  0.29157510514E+03  0.29283458022E+03  0.00000000000E+00 0.  1.
          1    1    1    2  502    0 -0.26375237524E+02  0.63558069145E+01  0.28922304255E+03  0.29049271553E+03  0.00000000000E+00 0.  1.
</event>
<event>
 4    1  0.3927513E+003  0.2043440E+02  0.7546771E-02  0.1527495E+00
          2   -1    0    0  502    0  0.00000000000E+00  0.00000000000E+00  0.40736502490E+02  0.40736502490E+02  0.00000000000E+00 0.  1.
          1   -1    0    0  501    0 -0.00000000000E+00 -0.00000000000E+00 -0.11393624324E+02  0.11393624324E+02  0.00000000000E+00 0. -1.
          2    1    1    2  501    0  0.11397440594E+01 -0.20402589668E+02  0.22927960763E+02  0.30712474118E+02  0.00000000000E+00 0.  1.
          1    1    1    2  502    0 -0.11397440594E+01  0.20402589668E+02  0.64149174034E+01  0.21417652696E+02  0.00000000000E+00 0. -1.
</event>
<event>
 4    1  0.3927513E+003  0.2188433E+02  0.7546771E-02  0.1507004E+00
          2   -1    0    0  502    0  0.00000000000E+00  0.00000000000E+00  0.12074967096E+02  0.12074967096E+02  0.00000000000E+00 0. -1.
          1   -1    0    0  501    0 -0.00000000000E+00 -0.00000000000E+00 -0.28948365680E+03  0.28948365680E+03  0.00000000000E+00 0. -1.
          2    1    1    2  501    0 -0.74166759263E+01  0.20589243459E+02  0.13653856891E+01  0.21926885462E+02  0.00000000000E+00 0. -1.
          1    1    1    2  502    0  0.74166759263E+01 -0.20589243459E+02 -0.27877407539E+03  0.27963173843E+03  0.00000000000E+00 0. -1.
</event>
<event>
 4    1  0.3927513E+003  0.2287082E+02  0.7546771E-02  0.1494127E+00
          2   -1    0    0  502    0  0.00000000000E+00  0.00000000000E+00  0.74863094258E+03  0.74863094258E+03  0.00000000000E+00 0.  1.
          1   -1    0    0  501    0 -0.00000000000E+00 -0.00000000000E+00 -0.70487668844E+00  0.70487668844E+00  0.00000000000E+00 0.  1.
          2    1    1    2  501    0  0.20355553364E+02  0.10427145968E+02  0.33891126040E+03  0.33968208129E+03  0.00000000000E+00 0.  1.
          1    1    1    2  502    0 -0.20355553364E+02 -0.10427145968E+02  0.40901480550E+03  0.40965373798E+03  0.00000000000E+00 0.  1.
</event>
<event>
 4    1  0.3927513E+003  0.3711470E+02  0.7546771E-02  0.1366277E+00
          2   -1    0    0  502    0  0.00000000000E+00  0.00000000000E+00  0.60244259587E+03  0.60244259587E+03  0.00000000000E+00 0. -1.
          1   -1    0    0  501    0 -0.00000000000E+00 -0.00000000000E+00 -0.32435689297E+01  0.32435689297E+01  0.00000000000E+00 0.  1.
          2    1    1    2  501    0 -0.11091476622E+02  0.35418642898E+02  0.46410168248E+03  0.46558336826E+03  0.00000000000E+00 0. -1.
          1    1    1    2  502    0  0.11091476622E+02 -0.35418642898E+02  0.13509734446E+03  0.14010279654E+03  0.00000000000E+00 0.  1.
</event>
<event>
 4    1  0.3927513E+003  0.2352013E+02  0.7546771E-02  0.1486068E+00
          2   -1    0    0  502    0  0.00000000000E+00  0.00000000000E+00  0.27802461909E+02  0.27802461909E+02  0.00000000000E+00 0. -1.
          1   -1    0    0  501    0 -0.00000000000E+00 -0.00000000000E+00 -0.21537118334E+02  0.21537118334E+02  0.00000000000E+00 0. -1.
          2    1    1    2  501    0  0.20775304133E+02  0.11026473539E+02  0.99397044131E+01  0.25534175224E+02  0.00000000000E+00 0. -1.
          1    1    1    2  502    0 -0.20775304133E+02 -0.11026473539E+02 -0.36743608376E+01  0.23805405019E+02  0.00000000000E+00 0. -1.
</event>
<event>
 4    1  0.3927513E+003  0.3795322E+02  0.7546771E-02  0.1360916E+00
          2   -1    0    0  502    0  0.00000000000E+00  0.00000000000E+00  0.95568795801E+03  0.95568795801E+03  0.00000000000E+00 0. -1.
          1   -1    0    0  501    0 -0.00000000000E+00 -0.00000000000E+00 -0.35757688882E+01  0.35757688882E+01  0.00000000000E+00 0. -1.
          2    1    1    2  501    0  0.94715595745E+01 -0.36752362624E+02  0.84085589981E+03  0.84171199994E+03  0.00000000000E+00 0. -1.
          1    1    1    2  502    0 -0.94715595745E+01  0.36752362624E+02  0.11125628931E+03  0.11755172695E+03  0.00000000000E+00 0. -1.
</event>
<event>
 4    1  0.3927513E+003  0.3044289E+02  0.7546771E-02  0.1415786E+00
          2   -1    0    0  502    0  0.00000000000E+00  0.00000000000E+00  0.40414001649E+03  0.40414001649E+03  0.00000000000E+00 0. -1.
          1   -1    0    0  501    0 -0.00000000000E+00 -0.00000000000E+00 -0.22970887373E+01  0.22970887373E+01  0.00000000000E+00 0. -1.
          2    1    1    2  501    0  0.28553506651E+02  0.10557741670E+02  0.19254615498E+03  0.19493791435E+03  0.00000000000E+00 0. -1.
          1    1    1    2  502    0 -0.28553506651E+02 -0.10557741670E+02  0.20929677277E+03  0.21149919088E+03  0.00000000000E+00 0. -1.
</event>
<event>
 4    1  0.3927513E+003  0.2198816E+02  0.7546771E-02  0.1505610E+00
          2   -1    0    0  502    0  0.00000000000E+00  0.00000000000E+00  0.15287833410E+04  0.15287833410E+04  0.00000000000E+00 0. -1.
          1   -1    0    0  501    0 -0.00000000000E+00 -0.00000000000E+00 -0.19602146252E+03  0.19602146252E+03  0.00000000000E+00 0. -1.
          2    1    1    2  501    0  0.17273080787E+02 -0.13605874176E+02  0.15280873824E+04  0.15282455717E+04  0.00000000000E+00 0. -1.
          1    1    1    2  502    0 -0.17273080787E+02  0.13605874176E+02 -0.19532550393E+03  0.19655923183E+03  0.00000000000E+00 0. -1.
</event>
<event>
 4    1  0.3927513E+003  0.2058738E+02  0.7546771E-02  0.1525238E+00
          2   -1    0    0  502    0  0.00000000000E+00  0.00000000000E+00  0.66765796369E+03  0.66765796369E+03  0.00000000000E+00 0.  1.
          1   -1    0    0  501    0 -0.00000000000E+00 -0.00000000000E+00 -0.21889740918E+02  0.21889740918E+02  0.00000000000E+00 0.  1.
          2    1    1    2  501    0  0.92175836293E+01 -0.18408598116E+02  0.66262185073E+03  0.66294159426E+03  0.00000000000E+00 0.  1.
          1    1    1    2  502    0 -0.92175836293E+01  0.18408598116E+02 -0.16853627959E+02  0.26606110350E+02  0.00000000000E+00 0.  1.
</event>
<event>
 4    1  0.3927513E+003  0.2413824E+02  0.7546771E-02  0.1478679E+00
          2   -1    0    0  502    0  0.00000000000E+00  0.00000000000E+00  0.62211687595E+03  0.62211687595E+03  0.00000000000E+00 0.  1.
          1   -1    0    0  501    0 -0.00000000000E+00 -0.00000000000E+00 -0.10209179555E+03  0.10209179555E+03  0.00000000000E+00 0. -1.
          2    1    1    2  501    0 -0.50136606577E+01 -0.23611812398E+02  0.62045211658E+03  0.62092147929E+03  0.00000000000E+00 0.  1.
          1    1    1    2  502    0  0.50136606577E+01  0.23611812398E+02 -0.10042703618E+03  0.10328719221E+03  0.00000000000E+00 0. -1.
</event>
<event>
 4    1  0.3927513E+003  0.2216168E+02  0.7546771E-02  0.1503302E+00
          2   -1    0    0  502    0  0.00000000000E+00  0.00000000000E+00  0.13352932693E+01  0.13352932693E+01  0.00000000000E+00 0. -1.
          1   -1    0    0  501    0 -0.00000000000E+00 -0.00000000000E+00 -0.70876157722E+03  0.70876157722E+03  0.00000000000E+00 0. -1.
          2    1    1    2  501    0  0.19391407200E+02 -0.10729094054E+02 -0.10746041380E+03  0.10972183313E+03  0.00000000000E+00 0. -1.
          1    1    1    2  502    0 -0.19391407200E+02  0.10729094054E+02 -0.59996587016E+03  0.60037503736E+03  0.00000000000E+00 0. -1.
</event>
<event>
 4    1  0.3927513E+003  0.7577660E+02  0.7546771E-02  0.1214007E+00
          2   -1    0    0  502    0  0.00000000000E+00  0.00000000000E+00  0.19825439793E+04  0.19825439793E+04  0.00000000000E+00 0.  1.
          1   -1    0    0  501    0 -0.00000000000E+00 -0.00000000000E+00 -0.22411352558E+02  0.22411352558E+02  0.00000000000E+00 0.  1.
          2    1    1    2  501    0 -0.47531396814E+02 -0.59015757686E+02  0.19155263678E+04  0.19170246109E+04  0.00000000000E+00 0.  1.
          1    1    1    2  502    0  0.47531396814E+02  0.59015757686E+02  0.44606258941E+02  0.87930720883E+02  0.00000000000E+00 0.  1.
</event>
<event>
 4    1  0.3927513E+003  0.2100037E+02  0.7546771E-02  0.1519260E+00
          2   -1    0    0  502    0  0.00000000000E+00  0.00000000000E+00  0.11178597540E+01  0.11178597540E+01  0.00000000000E+00 0.  1.
          1   -1    0    0  501    0 -0.00000000000E+00 -0.00000000000E+00 -0.81057959948E+03  0.81057959948E+03  0.00000000000E+00 0. -1.
          2    1    1    2  501    0 -0.43765511107E+01 -0.20539259539E+02 -0.11396370228E+03  0.11588244396E+03  0.00000000000E+00 0.  1.
          1    1    1    2  502    0  0.43765511107E+01  0.20539259539E+02 -0.69549803744E+03  0.69581501527E+03  0.00000000000E+00 0. -1.
</event>
<event>
 4    1  0.3927513E+003  0.3296958E+02  0.7546771E-02  0.1395428E+00
          2   -1    0    0  502    0  0.00000000000E+00  0.00000000000E+00  0.47947952490E+03  0.47947952490E+03  0.00000000000E+00 0.  1.
          1   -1    0    0  501    0 -0.00000000000E+00 -0.00000000000E+00 -0.16921979519E+02  0.16921979519E+02  0.00000000000E+00 0. -1.
          2    1    1    2  501    0  0.53643034387E+01  0.32530256577E+02  0.46225628998E+03  0.46343054600E+03  0.00000000000E+00 0.  1.
          1    1    1    2  502    0 -0.53643034387E+01 -0.32530256577E+02  0.30125540752E+00  0.32970958420E+02  0.00000000000E+00 0. -1.
</event>
<event>
 4    1  0.3927513E+003  0.2769123E+02  0.7546771E-02  0.1440785E+00
          2   -1    0    0  502    0  0.00000000000E+00  0.00000000000E+00  0.80803940600E+03  0.80803940600E+03  0.00000000000E+00 0.  1.
          1   -1    0    0  501    0 -0.00000000000E+00 -0.00000000000E+00 -0.86973666889E+02  0.86973666889E+02  0.00000000000E+00 0. -1.
          2    1    1    2  501    0  0.15403577523E+02 -0.23011610874E+02  0.80559133953E+03  0.80606712547E+03  0.00000000000E+00 0.  1.
          1    1    1    2  502    0 -0.15403577523E+02  0.23011610874E+02 -0.84525600421E+02  0.88945947418E+02  0.00000000000E+00 0. -1.
</event>
<event>
 4    1  0.3927513E+003  0.3044095E+02  0.7546771E-02  0.1415803E+00
          2   -1    0    0  502    0  0.00000000000E+00  0.00000000000E+00  0.40188517192E+02  0.40188517192E+02  0.00000000000E+00 0. -1.
          1   -1    0    0  501    0 -0.00000000000E+00 -0.00000000000E+00 -0.62200137138E+03  0.62200137138E+03  0.00000000000E+00 0. -1.
          2    1    1    2  501    0  0.23015329658E+02  0.19923505611E+02  0.33993712619E+02  0.45631392403E+02  0.00000000000E+00 0. -1.
          1    1    1    2  502    0 -0.23015329658E+02 -0.19923505611E+02 -0.61580656681E+03  0.61655849617E+03  0.00000000000E+00 0. -1.
</event>
<event>
 4    1  0.3927513E+003  0.9716608E+02  0.7546771E-02  0.1168811E+00
          2   -1    0    0  502    0  0.00000000000E+00  0.00000000000E+00  0.10504633764E+04  0.10504633764E+04  0.00000000000E+00 0.  1.
          1   -1    0    0  501    0 -0.00000000000E+00 -0.00000000000E+00 -0.32763099287E+02  0.32763099287E+02  0.00000000000E+00 0. -1.
          2    1    1    2  501    0  0.55320291502E+02  0.79880616673E+02  0.97023220480E+03  0.97508552384E+03  0.00000000000E+00 0.  1.
          1    1    1    2  502    0 -0.55320291502E+02 -0.79880616673E+02  0.47468072268E+02  0.10814095180E+03  0.00000000000E+00 0. -1.
</event>
<event>
 4    1  0.3927513E+003  0.2094174E+02  0.7546771E-02  0.1520098E+00
          2   -1    0    0  502    0  0.00000000000E+00  0.00000000000E+00  0.13776872351E+04  0.13776872351E+04  0.00000000000E+00 0. -1.
          1   -1    0    0  501    0 -0.00000000000E+00 -0.00000000000E+00 -0.10630608947E+01  0.10630608947E+01  0.00000000000E+00 0. -1.
          2    1    1    2  501    0 -0.20739169201E+02  0.29057518648E+01  0.12653133939E+04  0.12654866816E+04  0.00000000000E+00 0. -1.
          1    1    1    2  502    0  0.20739169201E+02 -0.29057518648E+01  0.11131078038E+03  0.11326361446E+03  0.00000000000E+00 0. -1.
</event>
<event>
 4    1  0.3927513E+003  0.2441463E+02  0.7546771E-02  0.1475460E+00
          2   -1    0    0  502    0  0.00000000000E+00  0.00000000000E+00  0.40924654364E+01  0.40924654364E+01  0.00000000000E+00 0. -1.
          1   -1    0    0  501    0 -0.00000000000E+00 -0.00000000000E+00 -0.13453284707E+04  0.13453284707E+04  0.00000000000E+00 0. -1.
          2    1    1    2  501    0 -0.16606046959E+02  0.17897304772E+02 -0.33477202022E+02  0.41434253571E+02  0.00000000000E+00 0. -1.
          1    1    1    2  502    0  0.16606046959E+02 -0.17897304772E+02 -0.13077588032E+04  0.13079866826E+04  0.00000000000E+00 0. -1.
</event>
<event>
 4    1  0.3927513E+003  0.2003649E+02  0.7546771E-02  0.1533479E+00
          2   -1    0    0  502    0  0.00000000000E+00  0.00000000000E+00  0.39606548722E+03  0.39606548722E+03  0.00000000000E+00 0. -1.
          1   -1    0    0  501    0 -0.00000000000E+00 -0.00000000000E+00 -0.12242389521E+02  0.12242389521E+02  0.00000000000E+00 0. -1.
          2    1    1    2  501    0 -0.10560524097E+02  0.17027512352E+02  0.38743133036E+03  0.38794909020E+03  0.00000000000E+00 0. -1.
          1    1    1    2  502    0  0.10560524097E+02 -0.17027512352E+02 -0.36082326647E+01  0.20358786532E+02  0.00000000000E+00 0. -1.
</event>
<event>
 4    1  0.3927513E+003  0.2057885E+02  0.7546771E-02  0.1525364E+00
          2   -1    0    0  502    0  0.00000000000E+00  0.00000000000E+00  0.19109642100E+02  0.19109642100E+02  0.00000000000E+00 0. -1.
          1   -1    0    0  501    0 -0.00000000000E+00 -0.00000000000E+00 -0.30751120159E+02  0.30751120159E+02  0.00000000000E+00 0. -1.
          2    1    1    2  501    0  0.98862607412E+01 -0.18048571618E+02  0.73556878624E+01  0.21853952338E+02  0.00000000000E+00 0. -1.
          1    1    1    2  502    0 -0.98862607412E+01  0.18048571618E+02 -0.18997165922E+02  0.28006809921E+02  0.00000000000E+00 0. -1.
</event>
<event>
 4    1  0.3927513E+003  0.2132170E+02  0.7546771E-02  0.1514721E+00
          2   -1    0    0  502    0  0.00000000000E+00  0.00000000000E+00  0.53103893972E+03  0.53103893972E+03  0.00000000000E+00 0. -1.
          1   -1    0    0  501    0 -0.00000000000E+00 -0.00000000000E+00 -0.23049603770E+03  0.23049603770E+03  0.00000000000E+00 0.  1.
          2    1    1    2  501    0 -0.20502781486E+02 -0.58524297839E+01  0.53033117714E+03  0.53075961831E+03  0.00000000000E+00 0. -1.
          1    1    1    2  502    0  0.20502781486E+02  0.58524297839E+01 -0.22978827513E+03  0.23077535910E+03  0.00000000000E+00 0.  1.
</event>
<event>
 4    1  0.3927513E+003  0.2034927E+02  0.7546771E-02  0.1528762E+00
          2   -1    0    0  502    0  0.00000000000E+00  0.00000000000E+00  0.46818424766E+03  0.46818424766E+03  0.00000000000E+00 0.  1.
          1   -1    0    0  501    0 -0.00000000000E+00 -0.00000000000E+00 -0.39899606699E+01  0.39899606699E+01  0.00000000000E+00 0. -1.
          2    1    1    2  501    0 -0.14372809255E+02 -0.14405384708E+02  0.44037993796E+03  0.44084984123E+03  0.00000000000E+00 0.  1.
          1    1    1    2  502    0  0.14372809255E+02  0.14405384708E+02  0.23814349026E+02  0.31324367096E+02  0.00000000000E+00 0. -1.
</event>
<event>
 4    1  0.3927513E+003  0.4649076E+02  0.7546771E-02  0.1314149E+00
          2   -1    0    0  502    0  0.00000000000E+00  0.00000000000E+00  0.17837746625E+04  0.17837746625E+04  0.00000000000E+00 0.  1.
          1   -1    0    0  501    0 -0.00000000000E+00 -0.00000000000E+00 -0.16032789992E+01  0.16032789992E+01  0.00000000000E+00 0.  1.
          2    1    1    2  501    0 -0.43264349539E+02 -0.17017240472E+02  0.13322579731E+04  0.13330689019E+04  0.00000000000E+00 0.  1.
          1    1    1    2  502    0  0.43264349539E+02  0.17017240472E+02  0.44991341044E+03  0.45230903960E+03  0.00000000000E+00 0.  1.
</event>
<event>
 4    1  0.3927513E+003  0.2657173E+02  0.7546771E-02  0.1451958E+00
          2   -1    0    0  502    0  0.00000000000E+00  0.00000000000E+00  0.15811746208E+02  0.15811746208E+02  0.00000000000E+00 0.  1.
          1   -1    0    0  501    0 -0.00000000000E+00 -0.00000000000E+00 -0.20648887164E+03  0.20648887164E+03  0.00000000000E+00 0.  1.
          2    1    1    2  501    0 -0.26472486526E+02 -0.22943889353E+01  0.30622041791E+01  0.26747595367E+02  0.00000000000E+00 0.  1.
          1    1    1    2  502    0  0.26472486526E+02  0.22943889353E+01 -0.19373932961E+03  0.19555302248E+03  0.00000000000E+00 0.  1.
</event>
<event>
 4    1  0.3927513E+003  0.2336415E+02  0.7546771E-02  0.1487975E+00
          2   -1    0    0  502    0  0.00000000000E+00  0.00000000000E+00  0.10629615680E+03  0.10629615680E+03  0.00000000000E+00 0.  1.
          1   -1    0    0  501    0 -0.00000000000E+00 -0.00000000000E+00 -0.16844860716E+02  0.16844860716E+02  0.00000000000E+00 0. -1.
          2    1    1    2  501    0  0.23264607562E+02  0.21543988208E+01  0.96059719664E+02  0.98860270793E+02  0.00000000000E+00 0.  1.
          1    1    1    2  502    0 -0.23264607562E+02 -0.21543988208E+01 -0.66084235791E+01  0.24280746724E+02  0.00000000000E+00 0. -1.
</event>
<event>
 4    1  0.3927513E+003  0.2376239E+02  0.7546771E-02  0.1483140E+00
          2   -1    0    0  502    0  0.00000000000E+00  0.00000000000E+00  0.11142075100E+03  0.11142075100E+03  0.00000000000E+00 0. -1.
          1   -1    0    0  501    0 -0.00000000000E+00 -0.00000000000E+00 -0.78256966467E+03  0.78256966467E+03  0.00000000000E+00 0. -1.
          2    1    1    2  501    0  0.17629505520E+02 -0.15932727671E+02  0.10997108182E+03  0.11250906680E+03  0.00000000000E+00 0. -1.
          1    1    1    2  502    0 -0.17629505520E+02  0.15932727671E+02 -0.78111999549E+03  0.78148134887E+03  0.00000000000E+00 0. -1.
</event>
<event>
 4    1  0.3927513E+003  0.3110421E+02  0.7546771E-02  0.1410237E+00
          2   -1    0    0  502    0  0.00000000000E+00  0.00000000000E+00  0.92235844157E+02  0.92235844157E+02  0.00000000000E+00 0.  1.
          1   -1    0    0  501    0 -0.00000000000E+00 -0.00000000000E+00 -0.14394912125E+04  0.14394912125E+04  0.00000000000E+00 0.  1.
          2    1    1    2  501    0  0.11472383278E+02  0.28911177162E+02  0.89440442304E+02  0.94694585181E+02  0.00000000000E+00 0.  1.
          1    1    1    2  502    0 -0.11472383278E+02 -0.28911177162E+02 -0.14366958107E+04  0.14370324715E+04  0.00000000000E+00 0.  1.
</event>
<event>
 4    1  0.3927513E+003  0.3005469E+02  0.7546771E-02  0.1419122E+00
          2   -1    0    0  502    0  0.00000000000E+00  0.00000000000E+00  0.39874566705E+01  0.39874566705E+01  0.00000000000E+00 0.  1.
          1   -1    0    0  501    0 -0.00000000000E+00 -0.00000000000E+00 -0.77918574611E+03  0.77918574611E+03  0.00000000000E+00 0.  1.
          2    1    1    2  501    0 -0.15464132241E+02 -0.25771010008E+02 -0.57811714249E+02  0.65157337632E+02  0.00000000000E+00 0.  1.
          1    1    1    2  502    0  0.15464132241E+02  0.25771010008E+02 -0.71738657519E+03  0.71801586515E+03  0.00000000000E+00 0.  1.
</event>
<event>
 4    1  0.3927513E+003  0.2704951E+02  0.7546771E-02  0.1447111E+00
          2   -1    0    0  502    0  0.00000000000E+00  0.00000000000E+00  0.69012381736E+02  0.69012381736E+02  0.00000000000E+00 0. -1.
          1   -1    0    0  501    0 -0.00000000000E+00 -0.00000000000E+00 -0.11863503662E+02  0.11863503662E+02  0.00000000000E+00 0. -1.
          2    1    1    2  501    0  0.26459465765E+02 -0.56189487216E+01  0.41760353622E+02  0.49755432346E+02  0.00000000000E+00 0. -1.
          1    1    1    2  502    0 -0.26459465765E+02  0.56189487216E+01  0.15388524452E+02  0.31120453051E+02  0.00000000000E+00 0. -1.
</event>
<event>
 4    1  0.3927513E+003  0.2292206E+02  0.7546771E-02  0.1493479E+00
          2   -1    0    0  502    0  0.00000000000E+00  0.00000000000E+00  0.45260790639E+03  0.45260790639E+03  0.00000000000E+00 0. -1.
          1   -1    0    0  501    0 -0.00000000000E+00 -0.00000000000E+00 -0.17676123707E+02  0.17676123707E+02  0.00000000000E+00 0.  1.
          2    1    1    2  501    0 -0.83009037498E+01  0.21366226580E+02  0.44475535029E+03  0.44534564358E+03  0.00000000000E+00 0. -1.
          1    1    1    2  502    0  0.83009037498E+01 -0.21366226580E+02 -0.98235676125E+01  0.24938386515E+02  0.00000000000E+00 0.  1.
</event>
<event>
 4    1  0.3927513E+003  0.3914949E+02  0.7546771E-02  0.1353543E+00
          2   -1    0    0  502    0  0.00000000000E+00  0.00000000000E+00  0.16442522260E+03  0.16442522260E+03  0.00000000000E+00 0. -1.
          1   -1    0    0  501    0 -0.00000000000E+00 -0.00000000000E+00 -0.10444227415E+04  0.10444227415E+04  0.00000000000E+00 0.  1.
          2    1    1    2  501    0 -0.85091053962E+01 -0.38213583325E+02  0.16172193967E+03  0.16639311463E+03  0.00000000000E+00 0. -1.
          1    1    1    2  502    0  0.85091053962E+01  0.38213583325E+02 -0.10417194586E+04  0.10424548495E+04  0.00000000000E+00 0.  1.
</event>
<event>
 4    1  0.3927513E+003  0.3023421E+02  0.7546771E-02  0.1417572E+00
          2   -1    0    0  502    0  0.00000000000E+00  0.00000000000E+00  0.11361884119E+02  0.11361884119E+02  0.00000000000E+00 0. -1.
          1   -1    0    0  501    0 -0.00000000000E+00 -0.00000000000E+00 -0.10201131899E+04  0.10201131899E+04  0.00000000000E+00 0.  1.
          2    1    1    2  501    0  0.13932184619E+02 -0.26832847682E+02 -0.93932329991E+01  0.31659758514E+02  0.00000000000E+00 0. -1.
          1    1    1    2  502    0 -0.13932184619E+02  0.26832847682E+02 -0.99935807283E+03  0.99981531555E+03  0.00000000000E+00 0.  1.
</event>
<event>
 4    1  0.3927513E+003  0.5538179E+02  0.7546771E-02  0.1276386E+00
          2   -1    0    0  502    0  0.00000000000E+00  0.00000000000E+00  0.30830136243E+03  0.30830136243E+03  0.00000000000E+00 0. -1.
          1   -1    0    0  501    0 -0.00000000000E+00 -0.00000000000E+00 -0.64144507376E+03  0.64144507376E+03  0.00000000000E+00 0. -1.
          2    1    1    2  501    0  0.46563370702E+02 -0.29983253020E+02  0.30460443788E+03  0.30959813715E+03  0.00000000000E+00 0. -1.
          1    1    1    2  502    0 -0.46563370702E+02  0.29983253020E+02 -0.63774814920E+03  0.64014829904E+03  0.00000000000E+00 0. -1.
</event>
<event>
 4    1  0.3927513E+003  0.4762509E+02  0.7546771E-02  0.1308811E+00
          2   -1    0    0  502    0  0.00000000000E+00  0.00000000000E+00  0.13194470874E+03  0.13194470874E+03  0.00000000000E+00 0.  1.
          1   -1    0    0  501    0 -0.00000000000E+00 -0.00000000000E+00 -0.19577889522E+02  0.19577889522E+02  0.00000000000E+00 0.  1.
          2    1    1    2  501    0  0.36474549060E+02  0.30622809114E+02  0.82641473822E+02  0.95382191014E+02  0.00000000000E+00 0.  1.
          1    1    1    2  502    0 -0.36474549060E+02 -0.30622809114E+02  0.29725345399E+02  0.56140407250E+02  0.00000000000E+00 0.  1.
</event>
<event>
 4    1  0.3927513E+003  0.2007111E+02  0.7546771E-02  0.1532951E+00
          2   -1    0    0  502    0  0.00000000000E+00  0.00000000000E+00  0.15604168231E+04  0.15604168231E+04  0.00000000000E+00 0.  1.
          1   -1    0    0  501    0 -0.00000000000E+00 -0.00000000000E+00 -0.11743772359E+01  0.11743772359E+01  0.00000000000E+00 0.  1.
          2    1    1    2  501    0 -0.16859268223E+02  0.10891022801E+02  0.14692747106E+04  0.14694117954E+04  0.00000000000E+00 0.  1.
          1    1    1    2  502    0  0.16859268223E+02 -0.10891022801E+02  0.89967735287E+02  0.92179404942E+02  0.00000000000E+00 0.  1.
</event>
<event>
 4    1  0.3927513E+003  0.2701337E+02  0.7546771E-02  0.1447474E+00
          2   -1    0    0  502    0  0.00000000000E+00  0.00000000000E+00  0.12521856298E+01  0.12521856298E+01  0.00000000000E+00 0. -1.
          1   -1    0    0  501    0 -0.00000000000E+00 -0.00000000000E+00 -0.61206311158E+03  0.61206311158E+03  0.00000000000E+00 0.  1.
          2    1    1    2  501    0  0.71595853325E+01  0.26047312536E+02 -0.23830558790E+03  0.23983176473E+03  0.00000000000E+00 0. -1.
          1    1    1    2  502    0 -0.71595853325E+01 -0.26047312536E+02 -0.37250533805E+03  0.37348353248E+03  0.00000000000E+00 0.  1.
</event>
<event>
 4    1  0.3927513E+003  0.2577180E+02  0.7546771E-02  0.1460352E+00
          2   -1    0    0  502    0  0.00000000000E+00  0.00000000000E+00  0.13713090993E+03  0.13713090993E+03  0.00000000000E+00 0.  1.
          1   -1    0    0  501    0 -0.00000000000E+00 -0.00000000000E+00 -0.32213395786E+03  0.32213395786E+03  0.00000000000E+00 0.  1.
          2    1    1    2  501    0  0.18150160483E+02 -0.18296374409E+02  0.13539805347E+03  0.13782894662E+03  0.00000000000E+00 0.  1.
          1    1    1    2  502    0 -0.18150160483E+02  0.18296374409E+02 -0.32040110140E+03  0.32143592118E+03  0.00000000000E+00 0.  1.
</event>
<event>
 4    1  0.3927513E+003  0.2055852E+02  0.7546771E-02  0.1525662E+00
          2   -1    0    0  502    0  0.00000000000E+00  0.00000000000E+00  0.58931830361E+03  0.58931830361E+03  0.00000000000E+00 0. -1.
          1   -1    0    0  501    0 -0.00000000000E+00 -0.00000000000E+00 -0.14081552327E+01  0.14081552327E+01  0.00000000000E+00 0.  1.
          2    1    1    2  501    0 -0.54667599270E+00 -0.20551249481E+02  0.50085461041E+03  0.50127636437E+03  0.00000000000E+00 0. -1.
          1    1    1    2  502    0  0.54667599270E+00  0.20551249481E+02  0.87055537966E+02  0.89450094469E+02  0.00000000000E+00 0.  1.
</event>
<event>
 4    1  0.3927513E+003  0.2685850E+02  0.7546771E-02  0.1449035E+00
          2   -1    0    0  502    0  0.00000000000E+00  0.00000000000E+00  0.73659786447E+03  0.73659786447E+03  0.00000000000E+00 0.  1.
          1   -1    0    0  501    0 -0.00000000000E+00 -0.00000000000E+00 -0.52910545875E+01  0.52910545875E+01  0.00000000000E+00 0. -1.
          2    1    1    2  501    0 -0.24940909718E+02 -0.99664338385E+01  0.70051306863E+03  0.70102777271E+03  0.00000000000E+00 0.  1.
          1    1    1    2  502    0  0.24940909718E+02  0.99664338385E+01  0.30793741253E+02  0.40861146354E+02  0.00000000000E+00 0. -1.
</event>
<event>
 4    1  0.3927513E+003  0.2205898E+02  0.7546771E-02  0.1504665E+00
          2   -1    0    0  502    0  0.00000000000E+00  0.00000000000E+00  0.22253670434E+03  0.22253670434E+03  0.00000000000E+00 0. -1.
          1   -1    0    0  501    0 -0.00000000000E+00 -0.00000000000E+00 -0.23042481131E+03  0.23042481131E+03  0.00000000000E+00 0.  1.
          2    1    1    2  501    0 -0.12412916006E+02 -0.18235079142E+02  0.22145955664E+03  0.22255546235E+03  0.00000000000E+00 0. -1.
          1    1    1    2  502    0  0.12412916006E+02  0.18235079142E+02 -0.22934766360E+03  0.23040605330E+03  0.00000000000E+00 0.  1.
</event>
<event>
 4    1  0.3927513E+003  0.2064522E+02  0.7546771E-02  0.1524391E+00
          2   -1    0    0  502    0  0.00000000000E+00  0.00000000000E+00  0.13313055796E+03  0.13313055796E+03  0.00000000000E+00 0.  1.
          1   -1    0    0  501    0 -0.00000000000E+00 -0.00000000000E+00 -0.91507810425E+02  0.91507810425E+02  0.00000000000E+00 0. -1.
          2    1    1    2  501    0  0.20419806742E+02  0.30424453118E+01  0.13114822596E+03  0.13276325604E+03  0.00000000000E+00 0.  1.
          1    1    1    2  502    0 -0.20419806742E+02 -0.30424453118E+01 -0.89525478428E+02  0.91875112346E+02  0.00000000000E+00 0. -1.
</event>
<event>
 4    1  0.3927513E+003  0.2172108E+02  0.7546771E-02  0.1509214E+00
          2   -1    0    0  502    0  0.00000000000E+00  0.00000000000E+00  0.20782714637E+03  0.20782714637E+03  0.00000000000E+00 0.  1.
          1   -1    0    0  501    0 -0.00000000000E+00 -0.00000000000E+00 -0.13370694904E+02  0.13370694904E+02  0.00000000000E+00 0. -1.
          2    1    1    2  501    0 -0.21242217385E+02 -0.45358076200E+01  0.19800151427E+03  0.19918936971E+03  0.00000000000E+00 0.  1.
          1    1    1    2  502    0  0.21242217385E+02  0.45358076200E+01 -0.35450628106E+01  0.22008471563E+02  0.00000000000E+00 0. -1.
</event>
<event>
 4    1  0.3927513E+003  0.2328024E+02  0.7546771E-02  0.1489009E+00
          2   -1    0    0  502    0  0.00000000000E+00  0.00000000000E+00  0.51591759075E+02  0.51591759075E+02  0.00000000000E+00 0. -1.
          1   -1    0    0  501    0 -0.00000000000E+00 -0.00000000000E+00 -0.46276965345E+02  0.46276965345E+02  0.00000000000E+00 0.  1.
          2    1    1    2  501    0  0.21857949180E+02  0.80124602350E+01  0.45680638381E+02  0.51270753693E+02  0.00000000000E+00 0. -1.
          1    1    1    2  502    0 -0.21857949180E+02 -0.80124602350E+01 -0.40365844651E+02  0.46597970726E+02  0.00000000000E+00 0.  1.
</event>
<event>
 4    1  0.3927513E+003  0.2360833E+02  0.7546771E-02  0.1484997E+00
          2   -1    0    0  502    0  0.00000000000E+00  0.00000000000E+00  0.42910584051E+02  0.42910584051E+02  0.00000000000E+00 0.  1.
          1   -1    0    0  501    0 -0.00000000000E+00 -0.00000000000E+00 -0.36647373152E+03  0.36647373152E+03  0.00000000000E+00 0. -1.
          2    1    1    2  501    0 -0.20873010170E+02  0.11030444992E+02  0.39250468696E+02  0.45803412134E+02  0.00000000000E+00 0.  1.
          1    1    1    2  502    0  0.20873010170E+02 -0.11030444992E+02 -0.36281361617E+03  0.36358090344E+03  0.00000000000E+00 0. -1.
</event>
<event>
 4    1  0.3927513E+003  0.2381037E+02  0.7546771E-02  0.1482565E+00
          2   -1    0    0  502    0  0.00000000000E+00  0.00000000000E+00  0.28965815191E+02  0.28965815191E+02  0.00000000000E+00 0. -1.
          1   -1    0    0  501    0 -0.00000000000E+00 -0.00000000000E+00 -0.10519424643E+04  0.10519424643E+04  0.00000000000E+00 0.  1.
          2    1    1    2  501    0  0.23124833997E+02 -0.56723795553E+01  0.23914344249E+02  0.33746550906E+02  0.00000000000E+00 0. -1.
          1    1    1    2  502    0 -0.23124833997E+02  0.56723795553E+01 -0.10468909934E+04  0.10471617286E+04  0.00000000000E+00 0.  1.
</event>
<event>
 4    1  0.3927513E+003  0.2058056E+02  0.7546771E-02  0.1525338E+00
          2   -1    0    0  502    0  0.00000000000E+00  0.00000000000E+00  0.62857059589E+03  0.62857059589E+03  0.00000000000E+00 0. -1.
          1   -1    0    0  501    0 -0.00000000000E+00 -0.00000000000E+00 -0.12441175745E+01  0.12441175745E+01  0.00000000000E+00 0.  1.
          2    1    1    2  501    0 -0.19875906482E+02  0.53392670472E+01  0.52686616912E+03  0.52726797702E+03  0.00000000000E+00 0. -1.
          1    1    1    2  502    0  0.19875906482E+02 -0.53392670472E+01  0.10046030919E+03  0.10254673644E+03  0.00000000000E+00 0.  1.
</event>
<event>
 4    1  0.3927513E+003  0.3822385E+02  0.7546771E-02  0.1359220E+00
          2   -1    0    0  502    0  0.00000000000E+00  0.00000000000E+00  0.85712680083E+02  0.85712680083E+02  0.00000000000E+00 0. -1.
          1   -1    0    0  501    0 -0.00000000000E+00 -0.00000000000E+00 -0.35234521631E+02  0.35234521631E+02  0.00000000000E+00 0. -1.
          2    1    1    2  501    0  0.37367943806E+02 -0.80435970299E+01  0.68688074313E+02  0.78607342089E+02  0.00000000000E+00 0. -1.
          1    1    1    2  502    0 -0.37367943806E+02  0.80435970299E+01 -0.18209915861E+02  0.42339859625E+02  0.00000000000E+00 0. -1.
</event>
<event>
 4    1  0.3927513E+003  0.4205569E+02  0.7546771E-02  0.1336843E+00
          2   -1    0    0  502    0  0.00000000000E+00  0.00000000000E+00  0.42060716066E+03  0.42060716066E+03  0.00000000000E+00 0.  1.
          1   -1    0    0  501    0 -0.00000000000E+00 -0.00000000000E+00 -0.56786895106E+01  0.56786895106E+01  0.00000000000E+00 0.  1.
          2    1    1    2  501    0  0.38063288984E+01  0.41883086316E+02  0.31604179227E+03  0.31882768939E+03  0.00000000000E+00 0.  1.
          1    1    1    2  502    0 -0.38063288984E+01 -0.41883086316E+02  0.98886678875E+02  0.10745816078E+03  0.00000000000E+00 0.  1.
</event>
<event>
 4    1  0.3927513E+003  0.2152484E+02  0.7546771E-02  0.1511902E+00
          2   -1    0    0  502    0  0.00000000000E+00  0.00000000000E+00  0.75973043076E+02  0.75973043076E+02  0.00000000000E+00 0.  1.
          1   -1    0    0  501    0 -0.00000000000E+00 -0.00000000000E+00 -0.30737525378E+02  0.30737525378E+02  0.00000000000E+00 0.  1.
          2    1    1    2  501    0  0.13525812446E+02 -0.16744289298E+02  0.70387740246E+02  0.73605385695E+02  0.00000000000E+00 0.  1.
          1    1    1    2  502    0 -0.13525812446E+02  0.16744289298E+02 -0.25152222548E+02  0.33105182759E+02  0.00000000000E+00 0.  1.
</event>
<event>
 4    1  0.3927513E+003  0.6126903E+02  0.7546771E-02  0.1255581E+00
          2   -1    0    0  502    0  0.00000000000E+00  0.00000000000E+00  0.83490559979E+02  0.83490559979E+02  0.00000000000E+00 0.  1.
          1   -1    0    0  501    0 -0.00000000000E+00 -0.00000000000E+00 -0.27503453455E+04  0.27503453455E+04  0.00000000000E+00 0. -1.
          2    1    1    2  501    0  0.18943689471E+02  0.58266891311E+02  0.71861140888E+02  0.94434726470E+02  0.00000000000E+00 0.  1.
          1    1    1    2  502    0 -0.18943689471E+02 -0.58266891311E+02 -0.27387159264E+04  0.27394011790E+04  0.00000000000E+00 0. -1.
</event>
<event>
 4    1  0.3927513E+003  0.3469226E+02  0.7546771E-02  0.1382740E+00
          2   -1    0    0  502    0  0.00000000000E+00  0.00000000000E+00  0.13567900897E+04  0.13567900897E+04  0.00000000000E+00 0. -1.
          1   -1    0    0  501    0 -0.00000000000E+00 -0.00000000000E+00 -0.90940104496E+00  0.90940104496E+00  0.00000000000E+00 0. -1.
          2    1    1    2  501    0  0.13140512536E+02 -0.32107321102E+02  0.78434371963E+03  0.78511058053E+03  0.00000000000E+00 0. -1.
          1    1    1    2  502    0 -0.13140512536E+02  0.32107321102E+02  0.57153696900E+03  0.57258891018E+03  0.00000000000E+00 0. -1.
</event>
<event>
 4    1  0.3927513E+003  0.3196803E+02  0.7546771E-02  0.1403231E+00
          2   -1    0    0  502    0  0.00000000000E+00  0.00000000000E+00  0.12351989325E+02  0.12351989325E+02  0.00000000000E+00 0.  1.
          1   -1    0    0  501    0 -0.00000000000E+00 -0.00000000000E+00 -0.59441259412E+03  0.59441259412E+03  0.00000000000E+00 0.  1.
          2    1    1    2  501    0  0.22126930757E+02 -0.23072797193E+02 -0.95526158236E+01  0.33364764409E+02  0.00000000000E+00 0.  1.
          1    1    1    2  502    0 -0.22126930757E+02  0.23072797193E+02 -0.57250798897E+03  0.57339981904E+03  0.00000000000E+00 0.  1.
</event>
<event>
 4    1  0.3927513E+003  0.2652515E+02  0.7546771E-02  0.1452437E+00
          2   -1    0    0  502    0  0.00000000000E+00  0.00000000000E+00  0.93313074291E+01  0.93313074291E+01  0.00000000000E+00 0. -1.
          1   -1    0    0  501    0 -0.00000000000E+00 -0.00000000000E+00 -0.75456619826E+02  0.75456619826E+02  0.00000000000E+00 0. -1.
          2    1    1    2  501    0  0.25871017497E+02  0.58543236474E+01 -0.34221664445E+02  0.43297863332E+02  0.00000000000E+00 0. -1.
          1    1    1    2  502    0 -0.25871017497E+02 -0.58543236474E+01 -0.31903647952E+02  0.41490063923E+02  0.00000000000E+00 0. -1.
</event>
<event>
 4    1  0.3927513E+003  0.3682065E+02  0.7546771E-02  0.1368196E+00
          2   -1    0    0  502    0  0.00000000000E+00  0.00000000000E+00  0.15979735963E+02  0.15979735963E+02  0.00000000000E+00 0.  1.
          1   -1    0    0  501    0 -0.00000000000E+00 -0.00000000000E+00 -0.25747607897E+03  0.25747607897E+03  0.00000000000E+00 0. -1.
          2    1    1    2  501    0  0.20527361443E+02 -0.30567759292E+02 -0.87911380307E+01  0.37855575333E+02  0.00000000000E+00 0.  1.
          1    1    1    2  502    0 -0.20527361443E+02  0.30567759292E+02 -0.23270520498E+03  0.23560023960E+03  0.00000000000E+00 0. -1.
</event>
<event>
 4    1  0.3927513E+003  0.2955682E+02  0.7546771E-02  0.1423487E+00
          2   -1    0    0  502    0  0.00000000000E+00  0.00000000000E+00  0.12455113621E+03  0.12455113621E+03  0.00000000000E+00 0.  1.
          1   -1    0    0  501    0 -0.00000000000E+00 -0.00000000000E+00 -0.25038572538E+02  0.25038572538E+02  0.00000000000E+00 0.  1.
          2    1    1    2  501    0 -0.11959116274E+02  0.27029343399E+02  0.11321612859E+03  0.11701067319E+03  0.00000000000E+00 0.  1.
          1    1    1    2  502    0  0.11959116274E+02 -0.27029343399E+02 -0.13703564918E+02  0.32579035562E+02  0.00000000000E+00 0.  1.
</event>
<event>
 4    1  0.3927513E+003  0.4582722E+02  0.7546771E-02  0.1317354E+00
          2   -1    0    0  502    0  0.00000000000E+00  0.00000000000E+00  0.28592357349E+03  0.28592357349E+03  0.00000000000E+00 0.  1.
          1   -1    0    0  501    0 -0.00000000000E+00 -0.00000000000E+00 -0.17166187476E+02  0.17166187476E+02  0.00000000000E+00 0.  1.
          2    1    1    2  501    0  0.28832859601E+02 -0.35620218479E+02  0.24900502698E+03  0.25318696100E+03  0.00000000000E+00 0.  1.
          1    1    1    2  502    0 -0.28832859601E+02  0.35620218479E+02  0.19752359031E+02  0.49902799967E+02  0.00000000000E+00 0.  1.
</event>
<event>
 4    1  0.3927513E+003  0.2165791E+02  0.7546771E-02  0.1510075E+00
          2   -1    0    0  502    0  0.00000000000E+00  0.00000000000E+00  0.84142912915E+02  0.84142912915E+02  0.00000000000E+00 0. -1.
          1   -1    0    0  501    0 -0.00000000000E+00 -0.00000000000E+00 -0.35221395580E+02  0.35221395580E+02  0.00000000000E+00 0.  1.
          2    1    1    2  501    0 -0.14190468436E+02  0.16361411983E+02  0.79216530625E+02  0.82123832843E+02  0.00000000000E+00 0. -1.
          1    1    1    2  502    0  0.14190468436E+02 -0.16361411983E+02 -0.30295013290E+02  0.37240475652E+02  0.00000000000E+00 0.  1.
</event>
<event>
 4    1  0.3927513E+003  0.2232372E+02  0.7546771E-02  0.1501169E+00
          2   -1    0    0  502    0  0.00000000000E+00  0.00000000000E+00  0.36738826885E+02  0.36738826885E+02  0.00000000000E+00 0.  1.
          1   -1    0    0  501    0 -0.00000000000E+00 -0.00000000000E+00 -0.16880852733E+02  0.16880852733E+02  0.00000000000E+00 0.  1.
          2    1    1    2  501    0  0.15956389349E+02 -0.15612238922E+02  0.21811800580E+02  0.31210623348E+02  0.00000000000E+00 0.  1.
          1    1    1    2  502    0 -0.15956389349E+02  0.15612238922E+02 -0.19538264284E+01  0.22409056271E+02  0.00000000000E+00 0.  1.
</event>
<event>
 4    1  0.3927513E+003  0.3560545E+02  0.7546771E-02  0.1376356E+00
          2   -1    0    0  502    0  0.00000000000E+00  0.00000000000E+00  0.16994075257E+04  0.16994075257E+04  0.00000000000E+00 0.  1.
          1   -1    0    0  501    0 -0.00000000000E+00 -0.00000000000E+00 -0.64297456902E+01  0.64297456902E+01  0.00000000000E+00 0. -1.
          2    1    1    2  501    0 -0.24066910313E+02  0.26239897398E+02  0.16484037124E+04  0.16487882057E+04  0.00000000000E+00 0.  1.
          1    1    1    2  502    0  0.24066910313E+02 -0.26239897398E+02  0.44574067654E+02  0.57049065678E+02  0.00000000000E+00 0. -1.
</event>
<event>
 4    1  0.3927513E+003  0.2301208E+02  0.7546771E-02  0.1492346E+00
          2   -1    0    0  502    0  0.00000000000E+00  0.00000000000E+00  0.14048341573E+04  0.14048341573E+04  0.00000000000E+00 0. -1.
          1   -1    0    0  501    0 -0.00000000000E+00 -0.00000000000E+00 -0.27547006985E+01  0.27547006985E+01  0.00000000000E+00 0.  1.
          2    1    1    2  501    0  0.14608860647E+02 -0.17780246366E+02  0.13549099079E+04  0.13551053150E+04  0.00000000000E+00 0. -1.
          1    1    1    2  502    0 -0.14608860647E+02  0.17780246366E+02  0.47169548678E+02  0.52483543065E+02  0.00000000000E+00 0.  1.
</event>
<event>
 4    1  0.3927513E+003  0.3588318E+02  0.7546771E-02  0.1374458E+00
          2   -1    0    0  502    0  0.00000000000E+00  0.00000000000E+00  0.24278138716E+04  0.24278138716E+04  0.00000000000E+00 0. -1.
          1   -1    0    0  501    0 -0.00000000000E+00 -0.00000000000E+00 -0.43771405888E+02  0.43771405888E+02  0.00000000000E+00 0. -1.
          2    1    1    2  501    0  0.10634013118E+02 -0.34271279359E+02  0.24203043341E+04  0.24205703196E+04  0.00000000000E+00 0. -1.
          1    1    1    2  502    0 -0.10634013118E+02  0.34271279359E+02 -0.36261868375E+02  0.51014957826E+02  0.00000000000E+00 0. -1.
</event>
<event>
 4    1  0.3927513E+003  0.2637438E+02  0.7546771E-02  0.1453996E+00
          2   -1    0    0  502    0  0.00000000000E+00  0.00000000000E+00  0.54312612138E+01  0.54312612138E+01  0.00000000000E+00 0.  1.
          1   -1    0    0  501    0 -0.00000000000E+00 -0.00000000000E+00 -0.15854569829E+03  0.15854569829E+03  0.00000000000E+00 0.  1.
          2    1    1    2  501    0 -0.94487928343E+01 -0.24623731543E+02 -0.40613911109E+02  0.48426207953E+02  0.00000000000E+00 0.  1.
          1    1    1    2  502    0  0.94487928343E+01  0.24623731543E+02 -0.11250052597E+03  0.11555075155E+03  0.00000000000E+00 0.  1.
</event>
<event>
 4    1  0.3927513E+003  0.2278319E+02  0.7546771E-02  0.1495239E+00
          2   -1    0    0  502    0  0.00000000000E+00  0.00000000000E+00  0.48988595189E+01  0.48988595189E+01  0.00000000000E+00 0.  1.
          1   -1    0    0  501    0 -0.00000000000E+00 -0.00000000000E+00 -0.49862439453E+03  0.49862439453E+03  0.00000000000E+00 0.  1.
          2    1    1    2  501    0 -0.22778422579E+02  0.46606626422E+00 -0.23446599678E+02  0.32692763563E+02  0.00000000000E+00 0.  1.
          1    1    1    2  502    0  0.22778422579E+02 -0.46606626422E+00 -0.47027893534E+03  0.47083049049E+03  0.00000000000E+00 0.  1.
</event>
<event>
 4    1  0.3927513E+003  0.3255436E+02  0.7546771E-02  0.1398623E+00
          2   -1    0    0  502    0  0.00000000000E+00  0.00000000000E+00  0.13415211587E+04  0.13415211587E+04  0.00000000000E+00 0. -1.
          1   -1    0    0  501    0 -0.00000000000E+00 -0.00000000000E+00 -0.43499995370E+02  0.43499995370E+02  0.00000000000E+00 0.  1.
          2    1    1    2  501    0  0.25729059229E+02 -0.19944972381E+02  0.13352041226E+04  0.13356009267E+04  0.00000000000E+00 0. -1.
          1    1    1    2  502    0 -0.25729059229E+02  0.19944972381E+02 -0.37182959273E+02  0.49420227361E+02  0.00000000000E+00 0.  1.
</event>
<event>
 4    1  0.3927513E+003  0.2857041E+02  0.7546771E-02  0.1432440E+00
          2   -1    0    0  502    0  0.00000000000E+00  0.00000000000E+00  0.11240761653E+04  0.11240761653E+04  0.00000000000E+00 0.  1.
          1   -1    0    0  501    0 -0.00000000000E+00 -0.00000000000E+00 -0.49314060072E+01  0.49314060072E+01  0.00000000000E+00 0. -1.
          2    1    1    2  501    0 -0.19776169405E+02  0.20619692811E+02  0.10808592036E+04  0.10812367394E+04  0.00000000000E+00 0.  1.
          1    1    1    2  502    0  0.19776169405E+02 -0.20619692811E+02  0.38285555742E+02  0.47770831963E+02  0.00000000000E+00 0. -1.
</event>
<event>
 4    1  0.3927513E+003  0.3429907E+02  0.7546771E-02  0.1385559E+00
          2   -1    0    0  502    0  0.00000000000E+00  0.00000000000E+00  0.12220910365E+03  0.12220910365E+03  0.00000000000E+00 0.  1.
          1   -1    0    0  501    0 -0.00000000000E+00 -0.00000000000E+00 -0.18308826579E+02  0.18308826579E+02  0.00000000000E+00 0.  1.
          2    1    1    2  501    0 -0.31768824695E+02  0.12929335809E+02  0.10033323313E+03  0.10603387958E+03  0.00000000000E+00 0.  1.
          1    1    1    2  502    0  0.31768824695E+02 -0.12929335809E+02  0.35670439366E+01  0.34484050652E+02  0.00000000000E+00 0.  1.
</event>
<event>
 4    1  0.3927513E+003  0.2146108E+02  0.7546771E-02  0.1512783E+00
          2   -1    0    0  502    0  0.00000000000E+00  0.00000000000E+00  0.12703330725E+03  0.12703330725E+03  0.00000000000E+00 0.  1.
          1   -1    0    0  501    0 -0.00000000000E+00 -0.00000000000E+00 -0.33874952459E+02  0.33874952459E+02  0.00000000000E+00 0. -1.
          2    1    1    2  501    0  0.46810384996E+01  0.20944349195E+02  0.12260597564E+03  0.12447008937E+03  0.00000000000E+00 0.  1.
          1    1    1    2  502    0 -0.46810384996E+01 -0.20944349195E+02 -0.29447620845E+02  0.36438170345E+02  0.00000000000E+00 0. -1.
</event>
<event>
 4    1  0.3927513E+003  0.2546627E+02  0.7546771E-02  0.1463654E+00
          2   -1    0    0  502    0  0.00000000000E+00  0.00000000000E+00  0.13851378405E+03  0.13851378405E+03  0.00000000000E+00 0. -1.
          1   -1    0    0  501    0 -0.00000000000E+00 -0.00000000000E+00 -0.15080380825E+04  0.15080380825E+04  0.00000000000E+00 0. -1.
          2    1    1    2  501    0 -0.22610061578E+02 -0.11718193973E+02  0.13723476115E+03  0.13957761505E+03  0.00000000000E+00 0. -1.
          1    1    1    2  502    0  0.22610061578E+02  0.11718193973E+02 -0.15067590597E+04  0.15069742515E+04  0.00000000000E+00 0. -1.
</event>
<event>
 4    1  0.3927513E+003  0.2509236E+02  0.7546771E-02  0.1467773E+00
          2   -1    0    0  502    0  0.00000000000E+00  0.00000000000E+00  0.70721460636E+03  0.70721460636E+03  0.00000000000E+00 0. -1.
          1   -1    0    0  501    0 -0.00000000000E+00 -0.00000000000E+00 -0.46972728655E+03  0.46972728655E+03  0.00000000000E+00 0. -1.
          2    1    1    2  501    0 -0.23112938036E+02  0.97682540781E+01  0.70665666690E+03  0.70710202345E+03  0.00000000000E+00 0. -1.
          1    1    1    2  502    0  0.23112938036E+02 -0.97682540781E+01 -0.46916934709E+03  0.46983986947E+03  0.00000000000E+00 0. -1.
</event>
<event>
 4    1  0.3927513E+003  0.2309876E+02  0.7546771E-02  0.1491262E+00
          2   -1    0    0  502    0  0.00000000000E+00  0.00000000000E+00  0.33847391599E+02  0.33847391599E+02  0.00000000000E+00 0.  1.
          1   -1    0    0  501    0 -0.00000000000E+00 -0.00000000000E+00 -0.60961003466E+02  0.60961003466E+02  0.00000000000E+00 0.  1.
          2    1    1    2  501    0  0.21657716782E+02  0.80308962475E+01 -0.54374471489E+02  0.59077365720E+02  0.00000000000E+00 0.  1.
          1    1    1    2  502    0 -0.21657716782E+02 -0.80308962475E+01  0.27260859622E+02  0.35731029345E+02  0.00000000000E+00 0.  1.
</event>
<event>
 4    1  0.3927513E+003  0.2303995E+02  0.7546771E-02  0.1491997E+00
          2   -1    0    0  502    0  0.00000000000E+00  0.00000000000E+00  0.87656849856E+03  0.87656849856E+03  0.00000000000E+00 0. -1.
          1   -1    0    0  501    0 -0.00000000000E+00 -0.00000000000E+00 -0.23200189478E+03  0.23200189478E+03  0.00000000000E+00 0.  1.
          2    1    1    2  501    0  0.11152538178E+02  0.20160853016E+02  0.87584460871E+03  0.87614760042E+03  0.00000000000E+00 0. -1.
          1    1    1    2  502    0 -0.11152538178E+02 -0.20160853016E+02 -0.23127800494E+03  0.23242279292E+03  0.00000000000E+00 0.  1.
</event>
<event>
 4    1  0.3927513E+003  0.2224601E+02  0.7546771E-02  0.1502189E+00
          2   -1    0    0  502    0  0.00000000000E+00  0.00000000000E+00  0.12122212208E+04  0.12122212208E+04  0.00000000000E+00 0.  1.
          1   -1    0    0  501    0 -0.00000000000E+00 -0.00000000000E+00 -0.71763465646E+00  0.71763465646E+00  0.00000000000E+00 0.  1.
          2    1    1    2  501    0  0.22078517141E+02  0.27246943255E+01  0.10039590448E+04  0.10042054812E+04  0.00000000000E+00 0.  1.
          1    1    1    2  502    0 -0.22078517141E+02 -0.27246943255E+01  0.20754454136E+03  0.20873337425E+03  0.00000000000E+00 0.  1.
</event>
<event>
 4    1  0.3927513E+003  0.3203019E+02  0.7546771E-02  0.1402737E+00
          2   -1    0    0  502    0  0.00000000000E+00  0.00000000000E+00  0.26418738337E+02  0.26418738337E+02  0.00000000000E+00 0. -1.
          1   -1    0    0  501    0 -0.00000000000E+00 -0.00000000000E+00 -0.31578706478E+03  0.31578706478E+03  0.00000000000E+00 0.  1.
          2    1    1    2  501    0 -0.31776500028E+02  0.40233244523E+01  0.15553150479E+02  0.35606650833E+02  0.00000000000E+00 0. -1.
          1    1    1    2  502    0  0.31776500028E+02 -0.40233244523E+01 -0.30492147692E+03  0.30659915229E+03  0.00000000000E+00 0.  1.
</event>
<event>
 4    1  0.3927513E+003  0.2888557E+02  0.7546771E-02  0.1429534E+00
          2   -1    0    0  502    0  0.00000000000E+00  0.00000000000E+00  0.46936079219E+03  0.46936079219E+03  0.00000000000E+00 0. -1.
          1   -1    0    0  501    0 -0.00000000000E+00 -0.00000000000E+00 -0.19753275037E+01  0.19753275037E+01  0.00000000000E+00 0.  1.
          2    1    1    2  501    0  0.10924667737E+02 -0.26740005347E+02  0.30823797173E+03  0.30958847438E+03  0.00000000000E+00 0. -1.
          1    1    1    2  502    0 -0.10924667737E+02  0.26740005347E+02  0.15914749296E+03  0.16174764532E+03  0.00000000000E+00 0.  1.
</event>
<event>
 4    1  0.3927513E+003  0.4793735E+02  0.7546771E-02  0.1307372E+00
          2   -1    0    0  502    0  0.00000000000E+00  0.00000000000E+00  0.69426362870E+03  0.69426362870E+03  0.00000000000E+00 0.  1.
          1   -1    0    0  501    0 -0.00000000000E+00 -0.00000000000E+00 -0.10142724785E+02  0.10142724785E+02  0.00000000000E+00 0.  1.
          2    1    1    2  501    0 -0.47326972610E+02  0.76254308422E+01  0.63113773794E+03  0.63295563334E+03  0.00000000000E+00 0.  1.
          1    1    1    2  502    0  0.47326972610E+02 -0.76254308422E+01  0.52983165979E+02  0.71450720144E+02  0.00000000000E+00 0.  1.
</event>
<event>
 4    1  0.3927513E+003  0.2800399E+02  0.7546771E-02  0.1437775E+00
          2   -1    0    0  502    0  0.00000000000E+00  0.00000000000E+00  0.99033733735E+03  0.99033733735E+03  0.00000000000E+00 0.  1.
          1   -1    0    0  501    0 -0.00000000000E+00 -0.00000000000E+00 -0.10150616593E+01  0.10150616593E+01  0.00000000000E+00 0.  1.
          2    1    1    2  501    0  0.16987231836E+02  0.22263364210E+02  0.72708778563E+03  0.72762687653E+03  0.00000000000E+00 0.  1.
          1    1    1    2  502    0 -0.16987231836E+02 -0.22263364210E+02  0.26223449006E+03  0.26372552248E+03  0.00000000000E+00 0.  1.
</event>
<event>
 4    1  0.3927513E+003  0.2114980E+02  0.7546771E-02  0.1517137E+00
          2   -1    0    0  502    0  0.00000000000E+00  0.00000000000E+00  0.19159813626E+02  0.19159813626E+02  0.00000000000E+00 0.  1.
          1   -1    0    0  501    0 -0.00000000000E+00 -0.00000000000E+00 -0.70272032356E+02  0.70272032356E+02  0.00000000000E+00 0.  1.
          2    1    1    2  501    0 -0.11593468469E+02  0.17689140534E+02  0.10984487720E+02  0.23832187782E+02  0.00000000000E+00 0.  1.
          1    1    1    2  502    0  0.11593468469E+02 -0.17689140534E+02 -0.62096706451E+02  0.65599658201E+02  0.00000000000E+00 0.  1.
</event>
<event>
 4    1  0.3927513E+003  0.2015981E+02  0.7546771E-02  0.1531607E+00
          2   -1    0    0  502    0  0.00000000000E+00  0.00000000000E+00  0.41420688389E+01  0.41420688389E+01  0.00000000000E+00 0.  1.
          1   -1    0    0  501    0 -0.00000000000E+00 -0.00000000000E+00 -0.67573632905E+03  0.67573632905E+03  0.00000000000E+00 0.  1.
          2    1    1    2  501    0  0.18866164307E+02  0.71053353068E+01 -0.21505720011E+02  0.29477346195E+02  0.00000000000E+00 0.  1.
          1    1    1    2  502    0 -0.18866164307E+02 -0.71053353068E+01 -0.65008854020E+03  0.65040105170E+03  0.00000000000E+00 0.  1.
</event>
<event>
 4    1  0.3927513E+003  0.2576836E+02  0.7546771E-02  0.1460388E+00
          2   -1    0    0  502    0  0.00000000000E+00  0.00000000000E+00  0.81277542241E+02  0.81277542241E+02  0.00000000000E+00 0. -1.
          1   -1    0    0  501    0 -0.00000000000E+00 -0.00000000000E+00 -0.75585876738E+02  0.75585876738E+02  0.00000000000E+00 0.  1.
          2    1    1    2  501    0  0.16112251885E+02 -0.20109789993E+02  0.76917753143E+02  0.81119350731E+02  0.00000000000E+00 0. -1.
          1    1    1    2  502    0 -0.16112251885E+02  0.20109789993E+02 -0.71226087640E+02  0.75744068249E+02  0.00000000000E+00 0.  1.
</event>
<event>
 4    1  0.3927513E+003  0.3087771E+02  0.7546771E-02  0.1412119E+00
          2   -1    0    0  502    0  0.00000000000E+00  0.00000000000E+00  0.12932330335E+02  0.12932330335E+02  0.00000000000E+00 0. -1.
          1   -1    0    0  501    0 -0.00000000000E+00 -0.00000000000E+00 -0.52411696405E+03  0.52411696405E+03  0.00000000000E+00 0. -1.
          2    1    1    2  501    0  0.15696999622E+02  0.26590170926E+02 -0.66690584749E+01  0.31589702878E+02  0.00000000000E+00 0. -1.
          1    1    1    2  502    0 -0.15696999622E+02 -0.26590170926E+02 -0.50451557524E+03  0.50545959150E+03  0.00000000000E+00 0. -1.
</event>
<event>
 4    1  0.3927513E+003  0.4880424E+02  0.7546771E-02  0.1303442E+00
          2   -1    0    0  502    0  0.00000000000E+00  0.00000000000E+00  0.12398377749E+04  0.12398377749E+04  0.00000000000E+00 0. -1.
          1   -1    0    0  501    0 -0.00000000000E+00 -0.00000000000E+00 -0.36937355064E+03  0.36937355064E+03  0.00000000000E+00 0.  1.
          2    1    1    2  501    0 -0.16943427416E+02  0.45768703182E+02  0.12377426817E+04  0.12387044845E+04  0.00000000000E+00 0. -1.
          1    1    1    2  502    0  0.16943427416E+02 -0.45768703182E+02 -0.36727845744E+03  0.37050684100E+03  0.00000000000E+00 0.  1.
</event>
<event>
 4    1  0.3927513E+003  0.2576120E+02  0.7546771E-02  0.1460465E+00
          2   -1    0    0  502    0  0.00000000000E+00  0.00000000000E+00  0.16946440368E+04  0.16946440368E+04  0.00000000000E+00 0. -1.
          1   -1    0    0  501    0 -0.00000000000E+00 -0.00000000000E+00 -0.36146433879E+01  0.36146433879E+01  0.00000000000E+00 0. -1.
          2    1    1    2  501    0  0.15766897217E+02 -0.20372642895E+02  0.16473284808E+04  0.16475298975E+04  0.00000000000E+00 0. -1.
          1    1    1    2  502    0 -0.15766897217E+02  0.20372642895E+02  0.43700912639E+02  0.50728782677E+02  0.00000000000E+00 0. -1.
</event>
<event>
 4    1  0.3927513E+003  0.1041129E+03  0.7546771E-02  0.1156866E+00
          2   -1    0    0  502    0  0.00000000000E+00  0.00000000000E+00  0.71826125303E+03  0.71826125303E+03  0.00000000000E+00 0.  1.
          1   -1    0    0  501    0 -0.00000000000E+00 -0.00000000000E+00 -0.29848183765E+03  0.29848183765E+03  0.00000000000E+00 0.  1.
          2    1    1    2  501    0 -0.45589164884E+02 -0.93600861213E+02  0.70524288714E+03  0.71288640262E+03  0.00000000000E+00 0.  1.
          1    1    1    2  502    0  0.45589164884E+02  0.93600861213E+02 -0.28546347176E+03  0.30385668807E+03  0.00000000000E+00 0.  1.
</event>
<event>
 4    1  0.3927513E+003  0.2518624E+02  0.7546771E-02  0.1466731E+00
          2   -1    0    0  502    0  0.00000000000E+00  0.00000000000E+00  0.63512014413E+03  0.63512014413E+03  0.00000000000E+00 0.  1.
          1   -1    0    0  501    0 -0.00000000000E+00 -0.00000000000E+00 -0.10107111779E+01  0.10107111779E+01  0.00000000000E+00 0.  1.
          2    1    1    2  501    0 -0.17994723094E+02  0.17622052309E+02  0.35160900152E+03  0.35250991012E+03  0.00000000000E+00 0.  1.
          1    1    1    2  502    0  0.17994723094E+02 -0.17622052309E+02  0.28250043144E+03  0.28362094519E+03  0.00000000000E+00 0.  1.
</event>
<event>
 4    1  0.3927513E+003  0.2971659E+02  0.7546771E-02  0.1422075E+00
          2   -1    0    0  502    0  0.00000000000E+00  0.00000000000E+00  0.21909028149E+04  0.21909028149E+04  0.00000000000E+00 0. -1.
          1   -1    0    0  501    0 -0.00000000000E+00 -0.00000000000E+00 -0.43488665081E+02  0.43488665081E+02  0.00000000000E+00 0. -1.
          2    1    1    2  501    0 -0.15529555213E+02  0.25335920015E+02  0.21857135250E+04  0.21859155266E+04  0.00000000000E+00 0. -1.
          1    1    1    2  502    0  0.15529555213E+02 -0.25335920015E+02 -0.38299375134E+02  0.48475953459E+02  0.00000000000E+00 0. -1.
</event>
<event>
 4    1  0.3927513E+003  0.2347834E+02  0.7546771E-02  0.1486577E+00
          2   -1    0    0  502    0  0.00000000000E+00  0.00000000000E+00  0.44596339751E+03  0.44596339751E+03  0.00000000000E+00 0. -1.
          1   -1    0    0  501    0 -0.00000000000E+00 -0.00000000000E+00 -0.79152858518E+01  0.79152858518E+01  0.00000000000E+00 0.  1.
          2    1    1    2  501    0  0.57089627312E+01 -0.22773677901E+02  0.42749229947E+03  0.42813654220E+03  0.00000000000E+00 0. -1.
          1    1    1    2  502    0 -0.57089627312E+01  0.22773677901E+02  0.10555812186E+02  0.25742141160E+02  0.00000000000E+00 0.  1.
</event>
<event>
 4    1  0.3927513E+003  0.4362594E+02  0.7546771E-02  0.1328455E+00
          2   -1    0    0  502    0  0.00000000000E+00  0.00000000000E+00  0.15124486129E+03  0.15124486129E+03  0.00000000000E+00 0. -1.
          1   -1    0    0  501    0 -0.00000000000E+00 -0.00000000000E+00 -0.48139408707E+02  0.48139408707E+02  0.00000000000E+00 0.  1.
          2    1    1    2  501    0  0.37914268531E+02  0.21580806453E+02  0.13722988775E+03  0.14399744809E+03  0.00000000000E+00 0. -1.
          1    1    1    2  502    0 -0.37914268531E+02 -0.21580806453E+02 -0.34124435166E+02  0.55386821906E+02  0.00000000000E+00 0.  1.
</event>
<event>
 4    1  0.3927513E+003  0.4019073E+02  0.7546771E-02  0.1347372E+00
          2   -1    0    0  502    0  0.00000000000E+00  0.00000000000E+00  0.47128324076E+03  0.47128324076E+03  0.00000000000E+00 0.  1.
          1   -1    0    0  501    0 -0.00000000000E+00 -0.00000000000E+00 -0.85848406417E+02  0.85848406417E+02  0.00000000000E+00 0.  1.
          2    1    1    2  501    0  0.23755494303E+02 -0.32418682703E+02  0.46566582691E+03  0.46739700133E+03  0.00000000000E+00 0.  1.
          1    1    1    2  502    0 -0.23755494303E+02  0.32418682703E+02 -0.80230992567E+02  0.89734645851E+02  0.00000000000E+00 0.  1.
</event>
<event>
 4    1  0.3927513E+003  0.2607531E+02  0.7546771E-02  0.1457125E+00
          2   -1    0    0  502    0  0.00000000000E+00  0.00000000000E+00  0.23211843414E+02  0.23211843414E+02  0.00000000000E+00 0. -1.
          1   -1    0    0  501    0 -0.00000000000E+00 -0.00000000000E+00 -0.11888038385E+04  0.11888038385E+04  0.00000000000E+00 0.  1.
          2    1    1    2  501    0  0.18192301624E+02  0.18680523321E+02  0.15699288081E+02  0.30436646270E+02  0.00000000000E+00 0. -1.
          1    1    1    2  502    0 -0.18192301624E+02 -0.18680523321E+02 -0.11812912832E+04  0.11815790357E+04  0.00000000000E+00 0.  1.
</event>
<event>
 4    1  0.3927513E+003  0.3316500E+02  0.7546771E-02  0.1393944E+00
          2   -1    0    0  502    0  0.00000000000E+00  0.00000000000E+00  0.39485995041E+03  0.39485995041E+03  0.00000000000E+00 0.  1.
          1   -1    0    0  501    0 -0.00000000000E+00 -0.00000000000E+00 -0.21484124471E+04  0.21484124471E+04  0.00000000000E+00 0. -1.
          2    1    1    2  501    0 -0.16091232546E+02  0.28999818324E+02  0.39403529410E+03  0.39542853997E+03  0.00000000000E+00 0.  1.
          1    1    1    2  502    0  0.16091232546E+02 -0.28999818324E+02 -0.21475877908E+04  0.21478438576E+04  0.00000000000E+00 0. -1.
</event>
<event>
 4    1  0.3927513E+003  0.6582809E+02  0.7546771E-02  0.1241220E+00
          2   -1    0    0  502    0  0.00000000000E+00  0.00000000000E+00  0.18050698605E+03  0.18050698605E+03  0.00000000000E+00 0. -1.
          1   -1    0    0  501    0 -0.00000000000E+00 -0.00000000000E+00 -0.47704705332E+02  0.47704705332E+02  0.00000000000E+00 0. -1.
          2    1    1    2  501    0 -0.37550505524E+02 -0.54067526900E+02  0.14682504751E+03  0.16090659559E+03  0.00000000000E+00 0. -1.
          1    1    1    2  502    0  0.37550505524E+02  0.54067526900E+02 -0.14022766791E+02  0.67305095785E+02  0.00000000000E+00 0. -1.
</event>
<event>
 4    1  0.3927513E+003  0.3654818E+02  0.7546771E-02  0.1369994E+00
          2   -1    0    0  502    0  0.00000000000E+00  0.00000000000E+00  0.13000369137E+02  0.13000369137E+02  0.00000000000E+00 0.  1.
          1   -1    0    0  501    0 -0.00000000000E+00 -0.00000000000E+00 -0.55067550383E+03  0.55067550383E+03  0.00000000000E+00 0. -1.
          2    1    1    2  501    0 -0.35776060007E+02  0.74728145861E+01 -0.14649501300E+02  0.39374830993E+02  0.00000000000E+00 0.  1.
          1    1    1    2  502    0  0.35776060007E+02 -0.74728145861E+01 -0.52302563339E+03  0.52430104197E+03  0.00000000000E+00 0. -1.
</event>
<event>
 4    1  0.3927513E+003  0.2405942E+02  0.7546771E-02  0.1479607E+00
          2   -1    0    0  502    0  0.00000000000E+00  0.00000000000E+00  0.68029881775E+02  0.68029881775E+02  0.00000000000E+00 0.  1.
          1   -1    0    0  501    0 -0.00000000000E+00 -0.00000000000E+00 -0.10426339131E+02  0.10426339131E+02  0.00000000000E+00 0.  1.
          2    1    1    2  501    0  0.18105125351E+01  0.23991204185E+02  0.45624571915E+02  0.51579621909E+02  0.00000000000E+00 0.  1.
          1    1    1    2  502    0 -0.18105125351E+01 -0.23991204185E+02  0.11978970729E+02  0.26876598997E+02  0.00000000000E+00 0.  1.
</event>
<event>
 4    1  0.3927513E+003  0.2322352E+02  0.7546771E-02  0.1489710E+00
          2   -1    0    0  502    0  0.00000000000E+00  0.00000000000E+00  0.62612285708E+02  0.62612285708E+02  0.00000000000E+00 0.  1.
          1   -1    0    0  501    0 -0.00000000000E+00 -0.00000000000E+00 -0.54408684100E+03  0.54408684100E+03  0.00000000000E+00 0.  1.
          2    1    1    2  501    0  0.21214577004E+02  0.94484780561E+01  0.60201431195E+02  0.64525532411E+02  0.00000000000E+00 0.  1.
          1    1    1    2  502    0 -0.21214577004E+02 -0.94484780561E+01 -0.54167598649E+03  0.54217359430E+03  0.00000000000E+00 0.  1.
</event>
<event>
 4    1  0.3927513E+003  0.2114955E+02  0.7546771E-02  0.1517140E+00
          2   -1    0    0  502    0  0.00000000000E+00  0.00000000000E+00  0.21554704363E+01  0.21554704363E+01  0.00000000000E+00 0. -1.
          1   -1    0    0  501    0 -0.00000000000E+00 -0.00000000000E+00 -0.88460309218E+03  0.88460309218E+03  0.00000000000E+00 0.  1.
          2    1    1    2  501    0 -0.21140605035E+02  0.61505630437E+00 -0.53321724329E+02  0.57362965064E+02  0.00000000000E+00 0. -1.
          1    1    1    2  502    0  0.21140605035E+02 -0.61505630437E+00 -0.82912589741E+03  0.82939559755E+03  0.00000000000E+00 0.  1.
</event>
<event>
 4    1  0.3927513E+003  0.2995525E+02  0.7546771E-02  0.1419986E+00
          2   -1    0    0  502    0  0.00000000000E+00  0.00000000000E+00  0.13717660064E+04  0.13717660064E+04  0.00000000000E+00 0. -1.
          1   -1    0    0  501    0 -0.00000000000E+00 -0.00000000000E+00 -0.35387287051E+02  0.35387287051E+02  0.00000000000E+00 0.  1.
          2    1    1    2  501    0 -0.17870180069E+02 -0.24041079423E+02  0.13652328814E+04  0.13655614733E+04  0.00000000000E+00 0. -1.
          1    1    1    2  502    0  0.17870180069E+02  0.24041079423E+02 -0.28854162068E+02  0.41591820159E+02  0.00000000000E+00 0.  1.
</event>
<event>
 4    1  0.3927513E+003  0.2157526E+02  0.7546771E-02  0.1511208E+00
          2   -1    0    0  502    0  0.00000000000E+00  0.00000000000E+00  0.13866832694E+04  0.13866832694E+04  0.00000000000E+00 0. -1.
          1   -1    0    0  501    0 -0.00000000000E+00 -0.00000000000E+00 -0.54168116510E+02  0.54168116510E+02  0.00000000000E+00 0.  1.
          2    1    1    2  501    0 -0.70630607211E+01 -0.20386394019E+02  0.13844475118E+04  0.13846156162E+04  0.00000000000E+00 0. -1.
          1    1    1    2  502    0  0.70630607211E+01  0.20386394019E+02 -0.51932358897E+02  0.56235769653E+02  0.00000000000E+00 0.  1.
</event>
<event>
 4    1  0.3927513E+003  0.4491541E+02  0.7546771E-02  0.1321863E+00
          2   -1    0    0  502    0  0.00000000000E+00  0.00000000000E+00  0.18735342610E+02  0.18735342610E+02  0.00000000000E+00 0. -1.
          1   -1    0    0  501    0 -0.00000000000E+00 -0.00000000000E+00 -0.11992174665E+03  0.11992174665E+03  0.00000000000E+00 0. -1.
          2    1    1    2  501    0 -0.25007206209E+02 -0.37309968522E+02 -0.28441305509E+02  0.53162975580E+02  0.00000000000E+00 0. -1.
          1    1    1    2  502    0  0.25007206209E+02  0.37309968522E+02 -0.72745098527E+02  0.85494113676E+02  0.00000000000E+00 0. -1.
</event>
<event>
 4    1  0.3927513E+003  0.2168896E+02  0.7546771E-02  0.1509651E+00
          2   -1    0    0  502    0  0.00000000000E+00  0.00000000000E+00  0.22767917415E+03  0.22767917415E+03  0.00000000000E+00 0.  1.
          1   -1    0    0  501    0 -0.00000000000E+00 -0.00000000000E+00 -0.98737795078E+01  0.98737795078E+01  0.00000000000E+00 0.  1.
          2    1    1    2  501    0  0.17433634533E+02 -0.12902694686E+02  0.21452346618E+03  0.21561708811E+03  0.00000000000E+00 0.  1.
          1    1    1    2  502    0 -0.17433634533E+02  0.12902694686E+02  0.32819284703E+01  0.21935865556E+02  0.00000000000E+00 0.  1.
</event>
<event>
 4    1  0.3927513E+003  0.3712520E+02  0.7546771E-02  0.1366209E+00
          2   -1    0    0  502    0  0.00000000000E+00  0.00000000000E+00  0.49032176611E+02  0.49032176611E+02  0.00000000000E+00 0.  1.
          1   -1    0    0  501    0 -0.00000000000E+00 -0.00000000000E+00 -0.52513414797E+02  0.52513414797E+02  0.00000000000E+00 0.  1.
          2    1    1    2  501    0  0.28473838454E+02 -0.23822703094E+02  0.32871146796E+02  0.49586217346E+02  0.00000000000E+00 0.  1.
          1    1    1    2  502    0 -0.28473838454E+02  0.23822703094E+02 -0.36352384983E+02  0.51959374062E+02  0.00000000000E+00 0.  1.
</event>
<event>
 4    1  0.3927513E+003  0.2915841E+02  0.7546771E-02  0.1427053E+00
          2   -1    0    0  502    0  0.00000000000E+00  0.00000000000E+00  0.30339419128E+03  0.30339419128E+03  0.00000000000E+00 0.  1.
          1   -1    0    0  501    0 -0.00000000000E+00 -0.00000000000E+00 -0.13852162150E+02  0.13852162150E+02  0.00000000000E+00 0.  1.
          2    1    1    2  501    0  0.28212961220E+02  0.73649150244E+01  0.28644350807E+03  0.28792376850E+03  0.00000000000E+00 0.  1.
          1    1    1    2  502    0 -0.28212961220E+02 -0.73649150244E+01  0.30985210619E+01  0.29322584928E+02  0.00000000000E+00 0.  1.
</event>
<event>
 4    1  0.3927513E+003  0.2067775E+02  0.7546771E-02  0.1523916E+00
          2   -1    0    0  502    0  0.00000000000E+00  0.00000000000E+00  0.87919162311E+02  0.87919162311E+02  0.00000000000E+00 0.  1.
          1   -1    0    0  501    0 -0.00000000000E+00 -0.00000000000E+00 -0.10464003252E+02  0.10464003252E+02  0.00000000000E+00 0.  1.
          2    1    1    2  501    0 -0.20659065950E+02 -0.87889312962E+00  0.74716314893E+02  0.77524816480E+02  0.00000000000E+00 0.  1.
          1    1    1    2  502    0  0.20659065950E+02  0.87889312962E+00  0.27388441661E+01  0.20858349082E+02  0.00000000000E+00 0.  1.
</event>
<event>
 4    1  0.3927513E+003  0.2251520E+02  0.7546771E-02  0.1498677E+00
          2   -1    0    0  502    0  0.00000000000E+00  0.00000000000E+00  0.22863957909E+02  0.22863957909E+02  0.00000000000E+00 0.  1.
          1   -1    0    0  501    0 -0.00000000000E+00 -0.00000000000E+00 -0.15126886447E+03  0.15126886447E+03  0.00000000000E+00 0.  1.
          2    1    1    2  501    0  0.22104983300E+02  0.42783192581E+01  0.16230518030E+02  0.27755432223E+02  0.00000000000E+00 0.  1.
          1    1    1    2  502    0 -0.22104983300E+02 -0.42783192581E+01 -0.14463542459E+03  0.14637739016E+03  0.00000000000E+00 0.  1.
</event>
<event>
 4    1  0.3927513E+003  0.2413480E+02  0.7546771E-02  0.1478720E+00
          2   -1    0    0  502    0  0.00000000000E+00  0.00000000000E+00  0.14246166949E+03  0.14246166949E+03  0.00000000000E+00 0. -1.
          1   -1    0    0  501    0 -0.00000000000E+00 -0.00000000000E+00 -0.98700251173E+02  0.98700251173E+02  0.00000000000E+00 0. -1.
          2    1    1    2  501    0 -0.19953871506E+02 -0.13576878812E+02  0.13993767047E+03  0.14200366278E+03  0.00000000000E+00 0. -1.
          1    1    1    2  502    0  0.19953871506E+02  0.13576878812E+02 -0.96176252157E+02  0.99158257878E+02  0.00000000000E+00 0. -1.
</event>
<event>
 4    1  0.3927513E+003  0.5743851E+02  0.7546771E-02  0.1268793E+00
          2   -1    0    0  502    0  0.00000000000E+00  0.00000000000E+00  0.74400554970E+01  0.74400554970E+01  0.00000000000E+00 0. -1.
          1   -1    0    0  501    0 -0.00000000000E+00 -0.00000000000E+00 -0.44564963495E+03  0.44564963495E+03  0.00000000000E+00 0. -1.
          2    1    1    2  501    0 -0.56468410748E+02 -0.10511961971E+02 -0.20313550556E+03  0.21110001510E+03  0.00000000000E+00 0. -1.
          1    1    1    2  502    0  0.56468410748E+02  0.10511961971E+02 -0.23507407390E+03  0.24198967535E+03  0.00000000000E+00 0. -1.
</event>
<event>
 4    1  0.3927513E+003  0.2062121E+02  0.7546771E-02  0.1524742E+00
          2   -1    0    0  502    0  0.00000000000E+00  0.00000000000E+00  0.20925758054E+01  0.20925758054E+01  0.00000000000E+00 0.  1.
          1   -1    0    0  501    0 -0.00000000000E+00 -0.00000000000E+00 -0.23683125997E+03  0.23683125997E+03  0.00000000000E+00 0.  1.
          2    1    1    2  501    0  0.19770352039E+02 -0.58623360750E+01 -0.16237969428E+03  0.16368383829E+03  0.00000000000E+00 0.  1.
          1    1    1    2  502    0 -0.19770352039E+02  0.58623360750E+01 -0.72358989884E+02  0.75239997481E+02  0.00000000000E+00 0.  1.
</event>
<event>
 4    1  0.3927513E+003  0.2098558E+02  0.7546771E-02  0.1519471E+00
          2   -1    0    0  502    0  0.00000000000E+00  0.00000000000E+00  0.11574656512E+04  0.11574656512E+04  0.00000000000E+00 0.  1.
          1   -1    0    0  501    0 -0.00000000000E+00 -0.00000000000E+00 -0.29023804575E+01  0.29023804575E+01  0.00000000000E+00 0. -1.
          2    1    1    2  501    0 -0.20207455585E+02  0.56615577657E+01  0.11181012235E+04  0.11182981447E+04  0.00000000000E+00 0.  1.
          1    1    1    2  502    0  0.20207455585E+02 -0.56615577657E+01  0.36462047236E+02  0.42069886929E+02  0.00000000000E+00 0. -1.
</event>
<event>
 4    1  0.3927513E+003  0.3256596E+02  0.7546771E-02  0.1398533E+00
          2   -1    0    0  502    0  0.00000000000E+00  0.00000000000E+00  0.11511095471E+04  0.11511095471E+04  0.00000000000E+00 0.  1.
          1   -1    0    0  501    0 -0.00000000000E+00 -0.00000000000E+00 -0.11530373898E+02  0.11530373898E+02  0.00000000000E+00 0.  1.
          2    1    1    2  501    0  0.27230157398E+02  0.17862250333E+02  0.11274012465E+04  0.11278714962E+04  0.00000000000E+00 0.  1.
          1    1    1    2  502    0 -0.27230157398E+02 -0.17862250333E+02  0.12177926673E+02  0.34768424712E+02  0.00000000000E+00 0.  1.
</event>
<event>
 4    1  0.3927513E+003  0.2728659E+02  0.7546771E-02  0.1444750E+00
          2   -1    0    0  502    0  0.00000000000E+00  0.00000000000E+00  0.17644650338E+04  0.17644650338E+04  0.00000000000E+00 0. -1.
          1   -1    0    0  501    0 -0.00000000000E+00 -0.00000000000E+00 -0.22687462976E+01  0.22687462976E+01  0.00000000000E+00 0. -1.
          2    1    1    2  501    0 -0.27180051243E+02  0.24089111657E+01  0.16780917695E+04  0.16783136015E+04  0.00000000000E+00 0. -1.
          1    1    1    2  502    0  0.27180051243E+02 -0.24089111657E+01  0.84104517960E+02  0.88420178578E+02  0.00000000000E+00 0. -1.
</event>
<event>
 4    1  0.3927513E+003  0.2394816E+02  0.7546771E-02  0.1480923E+00
          2   -1    0    0  502    0  0.00000000000E+00  0.00000000000E+00  0.66521812734E+03  0.66521812734E+03  0.00000000000E+00 0. -1.
          1   -1    0    0  501    0 -0.00000000000E+00 -0.00000000000E+00 -0.27539467403E+01  0.27539467403E+01  0.00000000000E+00 0.  1.
          2    1    1    2  501    0  0.86027255753E+01 -0.22349666965E+02  0.60804628042E+03  0.60851770199E+03  0.00000000000E+00 0. -1.
          1    1    1    2  502    0 -0.86027255753E+01  0.22349666965E+02  0.54417900171E+02  0.59454372083E+02  0.00000000000E+00 0.  1.
</event>
<event>
 4    1  0.3927513E+003  0.2061917E+02  0.7546771E-02  0.1524772E+00
          2   -1    0    0  502    0  0.00000000000E+00  0.00000000000E+00  0.41088404434E+00  0.41088404434E+00  0.00000000000E+00 0. -1.
          1   -1    0    0  501    0 -0.00000000000E+00 -0.00000000000E+00 -0.10524629490E+04  0.10524629490E+04  0.00000000000E+00 0. -1.
          2    1    1    2  501    0  0.10099406567E+02  0.17976434710E+02 -0.45767461829E+03  0.45813885061E+03  0.00000000000E+00 0. -1.
          1    1    1    2  502    0 -0.10099406567E+02 -0.17976434710E+02 -0.59437744664E+03  0.59473498240E+03  0.00000000000E+00 0. -1.
</event>
<event>
 4    1  0.3927513E+003  0.3924718E+02  0.7546771E-02  0.1352955E+00
          2   -1    0    0  502    0  0.00000000000E+00  0.00000000000E+00  0.10016247059E+02  0.10016247059E+02  0.00000000000E+00 0.  1.
          1   -1    0    0  501    0 -0.00000000000E+00 -0.00000000000E+00 -0.72597377693E+03  0.72597377693E+03  0.00000000000E+00 0.  1.
          2    1    1    2  501    0 -0.23621798464E+02 -0.31342490211E+02 -0.31277047976E+02  0.50185603368E+02  0.00000000000E+00 0.  1.
          1    1    1    2  502    0  0.23621798464E+02  0.31342490211E+02 -0.68468048189E+03  0.68580442062E+03  0.00000000000E+00 0.  1.
</event>
<event>
 4    1  0.3927513E+003  0.2019502E+02  0.7546771E-02  0.1531075E+00
          2   -1    0    0  502    0  0.00000000000E+00  0.00000000000E+00  0.23760391321E+01  0.23760391321E+01  0.00000000000E+00 0.  1.
          1   -1    0    0  501    0 -0.00000000000E+00 -0.00000000000E+00 -0.81542422170E+03  0.81542422170E+03  0.00000000000E+00 0.  1.
          2    1    1    2  501    0 -0.15260676314E+02  0.13226889405E+02 -0.43200656944E+02  0.47687897891E+02  0.00000000000E+00 0.  1.
          1    1    1    2  502    0  0.15260676314E+02 -0.13226889405E+02 -0.76984752563E+03  0.77011236294E+03  0.00000000000E+00 0.  1.
</event>
<event>
 4    1  0.3927513E+003  0.4294102E+02  0.7546771E-02  0.1332063E+00
          2   -1    0    0  502    0  0.00000000000E+00  0.00000000000E+00  0.77221350483E+03  0.77221350483E+03  0.00000000000E+00 0.  1.
          1   -1    0    0  501    0 -0.00000000000E+00 -0.00000000000E+00 -0.26102576273E+01  0.26102576273E+01  0.00000000000E+00 0.  1.
          2    1    1    2  501    0 -0.29519514088E+02  0.31185399177E+02  0.49788663738E+03  0.49973496427E+03  0.00000000000E+00 0.  1.
          1    1    1    2  502    0  0.29519514088E+02 -0.31185399177E+02  0.27171660983E+03  0.27508879819E+03  0.00000000000E+00 0.  1.
</event>
<event>
 4    1  0.3927513E+003  0.2322285E+02  0.7546771E-02  0.1489719E+00
          2   -1    0    0  502    0  0.00000000000E+00  0.00000000000E+00  0.65160413265E+01  0.65160413265E+01  0.00000000000E+00 0. -1.
          1   -1    0    0  501    0 -0.00000000000E+00 -0.00000000000E+00 -0.36533993279E+03  0.36533993279E+03  0.00000000000E+00 0.  1.
          2    1    1    2  501    0 -0.19296880006E+02  0.12920190367E+02 -0.15894940411E+02  0.28141606702E+02  0.00000000000E+00 0. -1.
          1    1    1    2  502    0  0.19296880006E+02 -0.12920190367E+02 -0.34292895106E+03  0.34371436742E+03  0.00000000000E+00 0.  1.
</event>
<event>
 4    1  0.3927513E+003  0.4190721E+02  0.7546771E-02  0.1337658E+00
          2   -1    0    0  502    0  0.00000000000E+00  0.00000000000E+00  0.15747824780E+03  0.15747824780E+03  0.00000000000E+00 0.  1.
          1   -1    0    0  501    0 -0.00000000000E+00 -0.00000000000E+00 -0.25474808047E+02  0.25474808047E+02  0.00000000000E+00 0.  1.
          2    1    1    2  501    0 -0.28351569184E+02  0.30861028771E+02  0.13459264279E+03  0.14096593229E+03  0.00000000000E+00 0.  1.
          1    1    1    2  502    0  0.28351569184E+02 -0.30861028771E+02 -0.25892030446E+01  0.41987123554E+02  0.00000000000E+00 0.  1.
</event>
<event>
 4    1  0.3927513E+003  0.3016932E+02  0.7546771E-02  0.1418131E+00
          2   -1    0    0  502    0  0.00000000000E+00  0.00000000000E+00  0.42104290326E+01  0.42104290326E+01  0.00000000000E+00 0. -1.
          1   -1    0    0  501    0 -0.00000000000E+00 -0.00000000000E+00 -0.65800233737E+03  0.65800233737E+03  0.00000000000E+00 0. -1.
          2    1    1    2  501    0  0.15344141558E+02  0.25975860030E+02 -0.55576894362E+02  0.63237482330E+02  0.00000000000E+00 0. -1.
          1    1    1    2  502    0 -0.15344141558E+02 -0.25975860030E+02 -0.59821501398E+03  0.59897528408E+03  0.00000000000E+00 0. -1.
</event>
<event>
 4    1  0.3927513E+003  0.2291287E+02  0.7546771E-02  0.1493595E+00
          2   -1    0    0  502    0  0.00000000000E+00  0.00000000000E+00  0.99215167982E+03  0.99215167982E+03  0.00000000000E+00 0. -1.
          1   -1    0    0  501    0 -0.00000000000E+00 -0.00000000000E+00 -0.68371221521E+00  0.68371221521E+00  0.00000000000E+00 0. -1.
          2    1    1    2  501    0  0.18354248108E+02  0.13715710732E+02  0.25970827961E+03  0.26071706818E+03  0.00000000000E+00 0. -1.
          1    1    1    2  502    0 -0.18354248108E+02 -0.13715710732E+02  0.73175968800E+03  0.73211832386E+03  0.00000000000E+00 0. -1.
</event>
<event>
 4    1  0.3927513E+003  0.2238186E+02  0.7546771E-02  0.1500410E+00
          2   -1    0    0  502    0  0.00000000000E+00  0.00000000000E+00  0.13939470517E+02  0.13939470517E+02  0.00000000000E+00 0.  1.
          1   -1    0    0  501    0 -0.00000000000E+00 -0.00000000000E+00 -0.53446899842E+03  0.53446899842E+03  0.00000000000E+00 0.  1.
          2    1    1    2  501    0 -0.17744458898E+02 -0.13641175549E+02  0.45604116288E+01  0.22841734745E+02  0.00000000000E+00 0.  1.
          1    1    1    2  502    0  0.17744458898E+02  0.13641175549E+02 -0.52508993953E+03  0.52556673419E+03  0.00000000000E+00 0.  1.
</event>
<event>
 4    1  0.3927513E+003  0.2680989E+02  0.7546771E-02  0.1449527E+00
          2   -1    0    0  502    0  0.00000000000E+00  0.00000000000E+00  0.92453657820E+01  0.92453657820E+01  0.00000000000E+00 0. -1.
          1   -1    0    0  501    0 -0.00000000000E+00 -0.00000000000E+00 -0.65200337664E+03  0.65200337664E+03  0.00000000000E+00 0.  1.
          2    1    1    2  501    0  0.26627045378E+02  0.31258185847E+01 -0.11091672060E+02  0.29013711870E+02  0.00000000000E+00 0. -1.
          1    1    1    2  502    0 -0.26627045378E+02 -0.31258185847E+01 -0.63166633880E+03  0.63223503055E+03  0.00000000000E+00 0.  1.
</event>
<event>
 4    1  0.3927513E+003  0.3073674E+02  0.7546771E-02  0.1413300E+00
          2   -1    0    0  502    0  0.00000000000E+00  0.00000000000E+00  0.48316174978E+03  0.48316174978E+03  0.00000000000E+00 0. -1.
          1   -1    0    0  501    0 -0.00000000000E+00 -0.00000000000E+00 -0.19593648415E+01  0.19593648415E+01  0.00000000000E+00 0. -1.
          2    1    1    2  501    0  0.24131969460E+02 -0.19036684752E+02  0.25158956902E+03  0.25346017154E+03  0.00000000000E+00 0. -1.
          1    1    1    2  502    0 -0.24131969460E+02  0.19036684752E+02  0.22961281592E+03  0.23166094309E+03  0.00000000000E+00 0. -1.
</event>
<event>
 4    1  0.3927513E+003  0.2209464E+02  0.7546771E-02  0.1504191E+00
          2   -1    0    0  502    0  0.00000000000E+00  0.00000000000E+00  0.27223080941E+01  0.27223080941E+01  0.00000000000E+00 0.  1.
          1   -1    0    0  501    0 -0.00000000000E+00 -0.00000000000E+00 -0.25210696396E+03  0.25210696396E+03  0.00000000000E+00 0. -1.
          2    1    1    2  501    0 -0.19576770684E+02  0.10243209698E+02 -0.56231235113E+02  0.60416265175E+02  0.00000000000E+00 0.  1.
          1    1    1    2  502    0  0.19576770684E+02 -0.10243209698E+02 -0.19315342075E+03  0.19441300688E+03  0.00000000000E+00 0. -1.
</event>
<event>
 4    1  0.3927513E+003  0.2025421E+02  0.7546771E-02  0.1530184E+00
          2   -1    0    0  502    0  0.00000000000E+00  0.00000000000E+00  0.10977313022E+04  0.10977313022E+04  0.00000000000E+00 0.  1.
          1   -1    0    0  501    0 -0.00000000000E+00 -0.00000000000E+00 -0.65653783941E+02  0.65653783941E+02  0.00000000000E+00 0. -1.
          2    1    1    2  501    0 -0.19419279890E+02 -0.57554046916E+01  0.10960734045E+04  0.10962605261E+04  0.00000000000E+00 0.  1.
          1    1    1    2  502    0  0.19419279890E+02  0.57554046916E+01 -0.63995886185E+02  0.67124560060E+02  0.00000000000E+00 0. -1.
</event>
<event>
 4    1  0.3927513E+003  0.2841555E+02  0.7546771E-02  0.1433884E+00
          2   -1    0    0  502    0  0.00000000000E+00  0.00000000000E+00  0.73929566965E+02  0.73929566965E+02  0.00000000000E+00 0. -1.
          1   -1    0    0  501    0 -0.00000000000E+00 -0.00000000000E+00 -0.26310819532E+02  0.26310819532E+02  0.00000000000E+00 0.  1.
          2    1    1    2  501    0  0.22174082244E+02 -0.17769458541E+02  0.62140457071E+02  0.68329203019E+02  0.00000000000E+00 0. -1.
          1    1    1    2  502    0 -0.22174082244E+02  0.17769458541E+02 -0.14521709638E+02  0.31911183479E+02  0.00000000000E+00 0.  1.
</event>
<event>
 4    1  0.3927513E+003  0.2449907E+02  0.7546771E-02  0.1474486E+00
          2   -1    0    0  502    0  0.00000000000E+00  0.00000000000E+00  0.31512682476E+02  0.31512682476E+02  0.00000000000E+00 0.  1.
          1   -1    0    0  501    0 -0.00000000000E+00 -0.00000000000E+00 -0.48002439649E+03  0.48002439649E+03  0.00000000000E+00 0.  1.
          2    1    1    2  501    0 -0.24478001298E+02  0.10156963807E+01  0.26387126216E+02  0.36006730157E+02  0.00000000000E+00 0.  1.
          1    1    1    2  502    0  0.24478001298E+02 -0.10156963807E+01 -0.47489884023E+03  0.47553034881E+03  0.00000000000E+00 0.  1.
</event>
<event>
 4    1  0.3927513E+003  0.2675891E+02  0.7546771E-02  0.1450045E+00
          2   -1    0    0  502    0  0.00000000000E+00  0.00000000000E+00  0.35703986776E+03  0.35703986776E+03  0.00000000000E+00 0.  1.
          1   -1    0    0  501    0 -0.00000000000E+00 -0.00000000000E+00 -0.44278285723E+01  0.44278285723E+01  0.00000000000E+00 0.  1.
          2    1    1    2  501    0  0.14433034215E+02  0.22532794823E+02  0.30998454945E+03  0.31113736552E+03  0.00000000000E+00 0.  1.
          1    1    1    2  502    0 -0.14433034215E+02 -0.22532794823E+02  0.42627489733E+02  0.50330330817E+02  0.00000000000E+00 0.  1.
</event>
<event>
 4    1  0.3927513E+003  0.2107283E+02  0.7546771E-02  0.1518228E+00
          2   -1    0    0  502    0  0.00000000000E+00  0.00000000000E+00  0.66019766700E+01  0.66019766700E+01  0.00000000000E+00 0. -1.
          1   -1    0    0  501    0 -0.00000000000E+00 -0.00000000000E+00 -0.11393576176E+03  0.11393576176E+03  0.00000000000E+00 0.  1.
          2    1    1    2  501    0 -0.11137486438E+02  0.17889112996E+02 -0.15092585079E+02  0.25920071225E+02  0.00000000000E+00 0. -1.
          1    1    1    2  502    0  0.11137486438E+02 -0.17889112996E+02 -0.92241200009E+02  0.94617667203E+02  0.00000000000E+00 0.  1.
</event>
<event>
 4    1  0.3927513E+003  0.2779346E+02  0.7546771E-02  0.1439796E+00
          2   -1    0    0  502    0  0.00000000000E+00  0.00000000000E+00  0.35342105700E+02  0.35342105700E+02  0.00000000000E+00 0. -1.
          1   -1    0    0  501    0 -0.00000000000E+00 -0.00000000000E+00 -0.27700773035E+02  0.27700773035E+02  0.00000000000E+00 0. -1.
          2    1    1    2  501    0 -0.16642318716E+02 -0.22260044145E+02  0.18298468257E+02  0.33276271999E+02  0.00000000000E+00 0. -1.
          1    1    1    2  502    0  0.16642318716E+02  0.22260044145E+02 -0.10657135592E+02  0.29766606736E+02  0.00000000000E+00 0. -1.
</event>
<event>
 4    1  0.3927513E+003  0.2559569E+02  0.7546771E-02  0.1462248E+00
          2   -1    0    0  502    0  0.00000000000E+00  0.00000000000E+00  0.73390589896E+02  0.73390589896E+02  0.00000000000E+00 0. -1.
          1   -1    0    0  501    0 -0.00000000000E+00 -0.00000000000E+00 -0.12543029942E+02  0.12543029942E+02  0.00000000000E+00 0. -1.
          2    1    1    2  501    0 -0.56281093920E+01 -0.24969260774E+02  0.53494586609E+02  0.59302701418E+02  0.00000000000E+00 0. -1.
          1    1    1    2  502    0  0.56281093920E+01  0.24969260774E+02  0.73529733449E+01  0.26630918421E+02  0.00000000000E+00 0. -1.
</event>
<event>
 4    1  0.3927513E+003  0.2481083E+02  0.7546771E-02  0.1470931E+00
          2   -1    0    0  502    0  0.00000000000E+00  0.00000000000E+00  0.44070143900E+02  0.44070143900E+02  0.00000000000E+00 0.  1.
          1   -1    0    0  501    0 -0.00000000000E+00 -0.00000000000E+00 -0.35662026497E+03  0.35662026497E+03  0.00000000000E+00 0.  1.
          2    1    1    2  501    0  0.57979879415E+01  0.24123857704E+02  0.40107386806E+02  0.47161209177E+02  0.00000000000E+00 0.  1.
          1    1    1    2  502    0 -0.57979879415E+01 -0.24123857704E+02 -0.35265750788E+03  0.35352919970E+03  0.00000000000E+00 0.  1.
</event>
<event>
 4    1  0.3927513E+003  0.2288897E+02  0.7546771E-02  0.1493897E+00
          2   -1    0    0  502    0  0.00000000000E+00  0.00000000000E+00  0.65574180224E+03  0.65574180224E+03  0.00000000000E+00 0.  1.
          1   -1    0    0  501    0 -0.00000000000E+00 -0.00000000000E+00 -0.90526844433E+00  0.90526844433E+00  0.00000000000E+00 0.  1.
          2    1    1    2  501    0  0.17618997892E+02  0.14610811328E+02  0.43993514893E+03  0.44053018076E+03  0.00000000000E+00 0.  1.
          1    1    1    2  502    0 -0.17618997892E+02 -0.14610811328E+02  0.21490138487E+03  0.21611688993E+03  0.00000000000E+00 0.  1.
</event>
<event>
 4    1  0.3927513E+003  0.2059235E+02  0.7546771E-02  0.1525165E+00
          2   -1    0    0  502    0  0.00000000000E+00  0.00000000000E+00  0.77807165579E+03  0.77807165579E+03  0.00000000000E+00 0. -1.
          1   -1    0    0  501    0 -0.00000000000E+00 -0.00000000000E+00 -0.48932640478E+03  0.48932640478E+03  0.00000000000E+00 0. -1.
          2    1    1    2  501    0 -0.18400121608E+02 -0.92455563447E+01  0.77771866164E+03  0.77799123481E+03  0.00000000000E+00 0. -1.
          1    1    1    2  502    0  0.18400121608E+02  0.92455563447E+01 -0.48897341063E+03  0.48940682575E+03  0.00000000000E+00 0. -1.
</event>
<event>
 4    1  0.3927513E+003  0.2923352E+02  0.7546771E-02  0.1426376E+00
          2   -1    0    0  502    0  0.00000000000E+00  0.00000000000E+00  0.11641675297E+02  0.11641675297E+02  0.00000000000E+00 0.  1.
          1   -1    0    0  501    0 -0.00000000000E+00 -0.00000000000E+00 -0.79928675774E+02  0.79928675774E+02  0.00000000000E+00 0.  1.
          2    1    1    2  501    0  0.25570531426E+02 -0.14168501743E+02 -0.21066699210E+02  0.36033378063E+02  0.00000000000E+00 0.  1.
          1    1    1    2  502    0 -0.25570531426E+02  0.14168501743E+02 -0.47220301267E+02  0.55536973007E+02  0.00000000000E+00 0.  1.
</event>
<event>
 4    1  0.3927513E+003  0.3762253E+02  0.7546771E-02  0.1363011E+00
          2   -1    0    0  502    0  0.00000000000E+00  0.00000000000E+00  0.61839785043E+02  0.61839785043E+02  0.00000000000E+00 0. -1.
          1   -1    0    0  501    0 -0.00000000000E+00 -0.00000000000E+00 -0.19298084878E+03  0.19298084878E+03  0.00000000000E+00 0.  1.
          2    1    1    2  501    0 -0.36659693128E+02 -0.84570283058E+01  0.54045438173E+02  0.65851073000E+02  0.00000000000E+00 0. -1.
          1    1    1    2  502    0  0.36659693128E+02  0.84570283058E+01 -0.18518650191E+03  0.18896956083E+03  0.00000000000E+00 0.  1.
</event>
<event>
 4    1  0.3927513E+003  0.2140485E+02  0.7546771E-02  0.1513562E+00
          2   -1    0    0  502    0  0.00000000000E+00  0.00000000000E+00  0.16799779835E+04  0.16799779835E+04  0.00000000000E+00 0.  1.
          1   -1    0    0  501    0 -0.00000000000E+00 -0.00000000000E+00 -0.69774131178E+00  0.69774131178E+00  0.00000000000E+00 0.  1.
          2    1    1    2  501    0  0.74676862373E+01 -0.20059941913E+02  0.14954996709E+04  0.14956528452E+04  0.00000000000E+00 0.  1.
          1    1    1    2  502    0 -0.74676862373E+01  0.20059941913E+02  0.18378057124E+03  0.18502287959E+03  0.00000000000E+00 0.  1.
</event>
<event>
 4    1  0.3927513E+003  0.3322444E+02  0.7546771E-02  0.1393495E+00
          2   -1    0    0  502    0  0.00000000000E+00  0.00000000000E+00  0.28072655956E+03  0.28072655956E+03  0.00000000000E+00 0.  1.
          1   -1    0    0  501    0 -0.00000000000E+00 -0.00000000000E+00 -0.59425061428E+01  0.59425061428E+01  0.00000000000E+00 0.  1.
          2    1    1    2  501    0 -0.19130246669E+02 -0.27164256315E+02  0.22076031669E+03  0.22324645705E+03  0.00000000000E+00 0.  1.
          1    1    1    2  502    0  0.19130246669E+02  0.27164256315E+02  0.54023736724E+02  0.63422608654E+02  0.00000000000E+00 0.  1.
</event>
<event>
 4    1  0.3927513E+003  0.2245322E+02  0.7546771E-02  0.1499481E+00
          2   -1    0    0  502    0  0.00000000000E+00  0.00000000000E+00  0.30080610483E+01  0.30080610483E+01  0.00000000000E+00 0. -1.
          1   -1    0    0  501    0 -0.00000000000E+00 -0.00000000000E+00 -0.40026453574E+03  0.40026453574E+03  0.00000000000E+00 0. -1.
          2    1    1    2  501    0 -0.17743684605E+02 -0.13758948125E+02 -0.44897217972E+02  0.50198677059E+02  0.00000000000E+00 0. -1.
          1    1    1    2  502    0  0.17743684605E+02  0.13758948125E+02 -0.35235925672E+03  0.35307391973E+03  0.00000000000E+00 0. -1.
</event>
<event>
 4    1  0.3927513E+003  0.3579397E+02  0.7546771E-02  0.1375066E+00
          2   -1    0    0  502    0  0.00000000000E+00  0.00000000000E+00  0.33004717157E+02  0.33004717157E+02  0.00000000000E+00 0. -1.
          1   -1    0    0  501    0 -0.00000000000E+00 -0.00000000000E+00 -0.40745566849E+02  0.40745566849E+02  0.00000000000E+00 0. -1.
          2    1    1    2  501    0  0.18921903905E+02  0.30383693186E+02 -0.11888965122E+02  0.37716770152E+02  0.00000000000E+00 0. -1.
          1    1    1    2  502    0 -0.18921903905E+02 -0.30383693186E+02  0.41481154305E+01  0.36033513854E+02  0.00000000000E+00 0. -1.
</event>
<event>
 4    1  0.3927513E+003  0.3116306E+02  0.7546771E-02  0.1409752E+00
          2   -1    0    0  502    0  0.00000000000E+00  0.00000000000E+00  0.28372915847E+03  0.28372915847E+03  0.00000000000E+00 0. -1.
          1   -1    0    0  501    0 -0.00000000000E+00 -0.00000000000E+00 -0.40754777264E+03  0.40754777264E+03  0.00000000000E+00 0.  1.
          2    1    1    2  501    0 -0.17667181900E+02 -0.25671126175E+02  0.28227468977E+03  0.28398967679E+03  0.00000000000E+00 0. -1.
          1    1    1    2  502    0  0.17667181900E+02  0.25671126175E+02 -0.40609330394E+03  0.40728725433E+03  0.00000000000E+00 0.  1.
</event>
<event>
 4    1  0.3927513E+003  0.2049504E+02  0.7546771E-02  0.1526598E+00
          2   -1    0    0  502    0  0.00000000000E+00  0.00000000000E+00  0.14394422302E+04  0.14394422302E+04  0.00000000000E+00 0. -1.
          1   -1    0    0  501    0 -0.00000000000E+00 -0.00000000000E+00 -0.12825073306E+01  0.12825073306E+01  0.00000000000E+00 0.  1.
          2    1    1    2  501    0  0.18717874520E+02 -0.83479344335E+01  0.13522072466E+04  0.13523625566E+04  0.00000000000E+00 0. -1.
          1    1    1    2  502    0 -0.18717874520E+02  0.83479344335E+01  0.85952476356E+02  0.88362180980E+02  0.00000000000E+00 0.  1.
</event>
<event>
 4    1  0.3927513E+003  0.2296059E+02  0.7546771E-02  0.1492994E+00
          2   -1    0    0  502    0  0.00000000000E+00  0.00000000000E+00  0.28827298570E+03  0.28827298570E+03  0.00000000000E+00 0.  1.
          1   -1    0    0  501    0 -0.00000000000E+00 -0.00000000000E+00 -0.56995937561E+01  0.56995937561E+01  0.00000000000E+00 0.  1.
          2    1    1    2  501    0  0.40335355631E+01  0.22603527568E+02  0.26241784038E+03  0.26342040889E+03  0.00000000000E+00 0.  1.
          1    1    1    2  502    0 -0.40335355631E+01 -0.22603527568E+02  0.20155551559E+02  0.30552170566E+02  0.00000000000E+00 0.  1.
</event>
<event>
 4    1  0.3927513E+003  0.2905271E+02  0.7546771E-02  0.1428011E+00
          2   -1    0    0  502    0  0.00000000000E+00  0.00000000000E+00  0.26509038365E+03  0.26509038365E+03  0.00000000000E+00 0. -1.
          1   -1    0    0  501    0 -0.00000000000E+00 -0.00000000000E+00 -0.18594349941E+03  0.18594349941E+03  0.00000000000E+00 0. -1.
          2    1    1    2  501    0  0.28199367938E+02  0.69896976097E+01  0.26315120028E+03  0.26475009808E+03  0.00000000000E+00 0. -1.
          1    1    1    2  502    0 -0.28199367938E+02 -0.69896976097E+01 -0.18400431604E+03  0.18628378498E+03  0.00000000000E+00 0. -1.
</event>
<event>
 4    1  0.3927513E+003  0.2719059E+02  0.7546771E-02  0.1445703E+00
          2   -1    0    0  502    0  0.00000000000E+00  0.00000000000E+00  0.50380878222E+03  0.50380878222E+03  0.00000000000E+00 0. -1.
          1   -1    0    0  501    0 -0.00000000000E+00 -0.00000000000E+00 -0.48744133129E+01  0.48744133129E+01  0.00000000000E+00 0. -1.
          2    1    1    2  501    0  0.26338979471E+02 -0.67517837714E+01  0.46210384756E+03  0.46290311552E+03  0.00000000000E+00 0. -1.
          1    1    1    2  502    0 -0.26338979471E+02  0.67517837714E+01  0.36830521341E+02  0.45780080012E+02  0.00000000000E+00 0. -1.
</event>
<event>
 4    1  0.3927513E+003  0.2541704E+02  0.7546771E-02  0.1464192E+00
          2   -1    0    0  502    0  0.00000000000E+00  0.00000000000E+00  0.44163668352E+02  0.44163668352E+02  0.00000000000E+00 0.  1.
          1   -1    0    0  501    0 -0.00000000000E+00 -0.00000000000E+00 -0.19060026254E+03  0.19060026254E+03  0.00000000000E+00 0.  1.
          2    1    1    2  501    0  0.14489527285E+02  0.20882518742E+02  0.39569403560E+02  0.47029391746E+02  0.00000000000E+00 0.  1.
          1    1    1    2  502    0 -0.14489527285E+02 -0.20882518742E+02 -0.18600599775E+03  0.18773453914E+03  0.00000000000E+00 0.  1.
</event>
<event>
 4    1  0.3927513E+003  0.5752033E+02  0.7546771E-02  0.1268499E+00
          2   -1    0    0  502    0  0.00000000000E+00  0.00000000000E+00  0.24590314328E+04  0.24590314328E+04  0.00000000000E+00 0. -1.
          1   -1    0    0  501    0 -0.00000000000E+00 -0.00000000000E+00 -0.30253759733E+02  0.30253759733E+02  0.00000000000E+00 0. -1.
          2    1    1    2  501    0 -0.23607669560E+02 -0.52452515807E+02  0.24310399962E+04  0.24317203892E+04  0.00000000000E+00 0. -1.
          1    1    1    2  502    0  0.23607669560E+02  0.52452515807E+02 -0.22623230664E+01  0.57564803328E+02  0.00000000000E+00 0. -1.
</event>
<event>
 4    1  0.3927513E+003  0.3508731E+02  0.7546771E-02  0.1379950E+00
          2   -1    0    0  502    0  0.00000000000E+00  0.00000000000E+00  0.40590649100E+02  0.40590649100E+02  0.00000000000E+00 0. -1.
          1   -1    0    0  501    0 -0.00000000000E+00 -0.00000000000E+00 -0.36702008791E+02  0.36702008791E+02  0.00000000000E+00 0.  1.
          2    1    1    2  501    0 -0.29384262368E+02  0.19175101105E+02  0.18046969001E+02  0.39456462936E+02  0.00000000000E+00 0. -1.
          1    1    1    2  502    0  0.29384262368E+02 -0.19175101105E+02 -0.14158328693E+02  0.37836194955E+02  0.00000000000E+00 0.  1.
</event>
<event>
 4    1  0.3927513E+003  0.2601065E+02  0.7546771E-02  0.1457808E+00
          2   -1    0    0  502    0  0.00000000000E+00  0.00000000000E+00  0.25787808604E+03  0.25787808604E+03  0.00000000000E+00 0. -1.
          1   -1    0    0  501    0 -0.00000000000E+00 -0.00000000000E+00 -0.32730536445E+01  0.32730536445E+01  0.00000000000E+00 0. -1.
          2    1    1    2  501    0 -0.68339632151E+01  0.25096834717E+02  0.18546977667E+03  0.18728478909E+03  0.00000000000E+00 0. -1.
          1    1    1    2  502    0  0.68339632151E+01 -0.25096834717E+02  0.69135255723E+02  0.73866350593E+02  0.00000000000E+00 0. -1.
</event>
<event>
 4    1  0.3927513E+003  0.2379166E+02  0.7546771E-02  0.1482789E+00
          2   -1    0    0  502    0  0.00000000000E+00  0.00000000000E+00  0.55223455862E+01  0.55223455862E+01  0.00000000000E+00 0.  1.
          1   -1    0    0  501    0 -0.00000000000E+00 -0.00000000000E+00 -0.26675363844E+03  0.26675363844E+03  0.00000000000E+00 0. -1.
          2    1    1    2  501    0  0.42100511718E+01  0.23416203239E+02 -0.23788649014E+02  0.33644359511E+02  0.00000000000E+00 0.  1.
          1    1    1    2  502    0 -0.42100511718E+01 -0.23416203239E+02 -0.23744264384E+03  0.23863162452E+03  0.00000000000E+00 0. -1.
</event>
<event>
 4    1  0.3927513E+003  0.2029872E+02  0.7546771E-02  0.1529517E+00
          2   -1    0    0  502    0  0.00000000000E+00  0.00000000000E+00  0.39096227030E+01  0.39096227030E+01  0.00000000000E+00 0. -1.
          1   -1    0    0  501    0 -0.00000000000E+00 -0.00000000000E+00 -0.11280244442E+03  0.11280244442E+03  0.00000000000E+00 0. -1.
          2    1    1    2  501    0 -0.17656993576E+02 -0.10013427574E+02 -0.39488028672E+02  0.44399803629E+02  0.00000000000E+00 0. -1.
          1    1    1    2  502    0  0.17656993576E+02  0.10013427574E+02 -0.69404793047E+02  0.72312263496E+02  0.00000000000E+00 0. -1.
</event>
<event>
 4    1  0.3927513E+003  0.2928087E+02  0.7546771E-02  0.1425950E+00
          2   -1    0    0  502    0  0.00000000000E+00  0.00000000000E+00  0.43076156169E+03  0.43076156169E+03  0.00000000000E+00 0. -1.
          1   -1    0    0  501    0 -0.00000000000E+00 -0.00000000000E+00 -0.72711517331E+02  0.72711517331E+02  0.00000000000E+00 0.  1.
          2    1    1    2  501    0  0.28665231530E+02  0.59727559752E+01  0.42729222021E+03  0.42829430391E+03  0.00000000000E+00 0. -1.
          1    1    1    2  502    0 -0.28665231530E+02 -0.59727559752E+01 -0.69242175843E+02  0.75178775117E+02  0.00000000000E+00 0.  1.
</event>
<event>
 4    1  0.3927513E+003  0.3784662E+02  0.7546771E-02  0.1361588E+00
          2   -1    0    0  502    0  0.00000000000E+00  0.00000000000E+00  0.24911417832E+03  0.24911417832E+03  0.00000000000E+00 0. -1.
          1   -1    0    0  501    0 -0.00000000000E+00 -0.00000000000E+00 -0.66251671111E+01  0.66251671111E+01  0.00000000000E+00 0.  1.
          2    1    1    2  501    0  0.99474157874E+01  0.36515964647E+02  0.16772323396E+03  0.17194025114E+03  0.00000000000E+00 0. -1.
          1    1    1    2  502    0 -0.99474157874E+01 -0.36515964647E+02  0.74765777249E+02  0.83799094283E+02  0.00000000000E+00 0.  1.
</event>
<event>
 4    1  0.3927513E+003  0.2612686E+02  0.7546771E-02  0.1456582E+00
          2   -1    0    0  502    0  0.00000000000E+00  0.00000000000E+00  0.13299288740E+03  0.13299288740E+03  0.00000000000E+00 0. -1.
          1   -1    0    0  501    0 -0.00000000000E+00 -0.00000000000E+00 -0.71492106743E+02  0.71492106743E+02  0.00000000000E+00 0. -1.
          2    1    1    2  501    0 -0.10288354939E+02  0.24015878626E+02  0.12925434023E+03  0.13186848426E+03  0.00000000000E+00 0. -1.
          1    1    1    2  502    0  0.10288354939E+02 -0.24015878626E+02 -0.67753559568E+02  0.72616509884E+02  0.00000000000E+00 0. -1.
</event>
<event>
 4    1  0.3927513E+003  0.8291827E+02  0.7546771E-02  0.1197230E+00
          2   -1    0    0  502    0  0.00000000000E+00  0.00000000000E+00  0.12594127707E+04  0.12594127707E+04  0.00000000000E+00 0. -1.
          1   -1    0    0  501    0 -0.00000000000E+00 -0.00000000000E+00 -0.12807948909E+02  0.12807948909E+02  0.00000000000E+00 0.  1.
          2    1    1    2  501    0 -0.11902674141E+02 -0.82059529366E+02  0.11051371597E+04  0.11082434668E+04  0.00000000000E+00 0. -1.
          1    1    1    2  502    0  0.11902674141E+02  0.82059529366E+02  0.14146766206E+03  0.16397725275E+03  0.00000000000E+00 0.  1.
</event>
<event>
 4    1  0.3927513E+003  0.2020970E+02  0.7546771E-02  0.1530854E+00
          2   -1    0    0  502    0  0.00000000000E+00  0.00000000000E+00  0.28804015210E+03  0.28804015210E+03  0.00000000000E+00 0.  1.
          1   -1    0    0  501    0 -0.00000000000E+00 -0.00000000000E+00 -0.12044620753E+03  0.12044620753E+03  0.00000000000E+00 0. -1.
          2    1    1    2  501    0 -0.19071619867E+02  0.66862000146E+01  0.28683435288E+03  0.28754543632E+03  0.00000000000E+00 0.  1.
          1    1    1    2  502    0  0.19071619867E+02 -0.66862000146E+01 -0.11924040832E+03  0.12094092331E+03  0.00000000000E+00 0. -1.
</event>
<event>
 4    1  0.3927513E+003  0.2509397E+02  0.7546771E-02  0.1467755E+00
          2   -1    0    0  502    0  0.00000000000E+00  0.00000000000E+00  0.18986912824E+04  0.18986912824E+04  0.00000000000E+00 0. -1.
          1   -1    0    0  501    0 -0.00000000000E+00 -0.00000000000E+00 -0.36655238269E+01  0.36655238269E+01  0.00000000000E+00 0. -1.
          2    1    1    2  501    0 -0.21192961049E+02 -0.13437470917E+02  0.18546403575E+04  0.18548101150E+04  0.00000000000E+00 0. -1.
          1    1    1    2  502    0  0.21192961049E+02  0.13437470917E+02  0.40385401114E+02  0.47546691218E+02  0.00000000000E+00 0. -1.
</event>
<event>
 4    1  0.3927513E+003  0.2021940E+02  0.7546771E-02  0.1530708E+00
          2   -1    0    0  502    0  0.00000000000E+00  0.00000000000E+00  0.52000218143E+03  0.52000218143E+03  0.00000000000E+00 0.  1.
          1   -1    0    0  501    0 -0.00000000000E+00 -0.00000000000E+00 -0.95876364193E+02  0.95876364193E+02  0.00000000000E+00 0. -1.
          2    1    1    2  501    0 -0.17892311615E+02  0.94175030399E+01  0.51873701401E+03  0.51913092171E+03  0.00000000000E+00 0.  1.
          1    1    1    2  502    0  0.17892311615E+02 -0.94175030399E+01 -0.94611196768E+02  0.96747623911E+02  0.00000000000E+00 0. -1.
</event>
<event>
 4    1  0.3927513E+003  0.6336197E+02  0.7546771E-02  0.1248819E+00
          2   -1    0    0  502    0  0.00000000000E+00  0.00000000000E+00  0.30441607296E+02  0.30441607296E+02  0.00000000000E+00 0.  1.
          1   -1    0    0  501    0 -0.00000000000E+00 -0.00000000000E+00 -0.93284043284E+03  0.93284043284E+03  0.00000000000E+00 0. -1.
          2    1    1    2  501    0  0.48743368491E+02 -0.40482384926E+02 -0.49019429151E+01  0.63551306088E+02  0.00000000000E+00 0.  1.
          1    1    1    2  502    0 -0.48743368491E+02  0.40482384926E+02 -0.89749688263E+03  0.89973073405E+03  0.00000000000E+00 0. -1.
</event>
<event>
 4    1  0.3927513E+003  0.2504719E+02  0.7546771E-02  0.1468276E+00
          2   -1    0    0  502    0  0.00000000000E+00  0.00000000000E+00  0.11385202351E+02  0.11385202351E+02  0.00000000000E+00 0.  1.
          1   -1    0    0  501    0 -0.00000000000E+00 -0.00000000000E+00 -0.15467993470E+03  0.15467993470E+03  0.00000000000E+00 0. -1.
          2    1    1    2  501    0 -0.97278492627E+01  0.23080961756E+02 -0.50264997504E+01  0.25546576025E+02  0.00000000000E+00 0.  1.
          1    1    1    2  502    0  0.97278492627E+01 -0.23080961756E+02 -0.13826823260E+03  0.14051856102E+03  0.00000000000E+00 0. -1.
</event>
<event>
 4    1  0.3927513E+003  0.2398468E+02  0.7546771E-02  0.1480490E+00
          2   -1    0    0  502    0  0.00000000000E+00  0.00000000000E+00  0.46275303109E+03  0.46275303109E+03  0.00000000000E+00 0.  1.
          1   -1    0    0  501    0 -0.00000000000E+00 -0.00000000000E+00 -0.30893073825E+01  0.30893073825E+01  0.00000000000E+00 0.  1.
          2    1    1    2  501    0  0.17199965063E+02  0.16716041406E+02  0.40989069716E+03  0.41059182707E+03  0.00000000000E+00 0.  1.
          1    1    1    2  502    0 -0.17199965063E+02 -0.16716041406E+02  0.49773026541E+02  0.55250511396E+02  0.00000000000E+00 0.  1.
</event>
<event>
 4    1  0.3927513E+003  0.2093959E+02  0.7546771E-02  0.1520129E+00
          2   -1    0    0  502    0  0.00000000000E+00  0.00000000000E+00  0.23875355157E+01  0.23875355157E+01  0.00000000000E+00 0. -1.
          1   -1    0    0  501    0 -0.00000000000E+00 -0.00000000000E+00 -0.35628693144E+03  0.35628693144E+03  0.00000000000E+00 0.  1.
          2    1    1    2  501    0 -0.16223549370E+02 -0.13238687079E+02 -0.52113725630E+02  0.56163215620E+02  0.00000000000E+00 0. -1.
          1    1    1    2  502    0  0.16223549370E+02  0.13238687079E+02 -0.30178567029E+03  0.30251125134E+03  0.00000000000E+00 0.  1.
</event>
<event>
 4    1  0.3927513E+003  0.2213014E+02  0.7546771E-02  0.1503720E+00
          2   -1    0    0  502    0  0.00000000000E+00  0.00000000000E+00  0.30232290546E+02  0.30232290546E+02  0.00000000000E+00 0.  1.
          1   -1    0    0  501    0 -0.00000000000E+00 -0.00000000000E+00 -0.40265686174E+03  0.40265686174E+03  0.00000000000E+00 0.  1.
          2    1    1    2  501    0  0.19248609634E+02  0.10919428467E+02  0.25833693845E+02  0.34016505237E+02  0.00000000000E+00 0.  1.
          1    1    1    2  502    0 -0.19248609634E+02 -0.10919428467E+02 -0.39825826504E+03  0.39887264705E+03  0.00000000000E+00 0.  1.
</event>
<event>
 4    1  0.3927513E+003  0.2799702E+02  0.7546771E-02  0.1437842E+00
          2   -1    0    0  502    0  0.00000000000E+00  0.00000000000E+00  0.13793899399E+03  0.13793899399E+03  0.00000000000E+00 0.  1.
          1   -1    0    0  501    0 -0.00000000000E+00 -0.00000000000E+00 -0.15147991920E+03  0.15147991920E+03  0.00000000000E+00 0.  1.
          2    1    1    2  501    0 -0.25302801696E+01 -0.27882450790E+02  0.13519880831E+03  0.13806719795E+03  0.00000000000E+00 0.  1.
          1    1    1    2  502    0  0.25302801696E+01  0.27882450790E+02 -0.14873973352E+03  0.15135171525E+03  0.00000000000E+00 0.  1.
</event>
<event>
 4    1  0.3927513E+003  0.2221393E+02  0.7546771E-02  0.1502612E+00
          2   -1    0    0  502    0  0.00000000000E+00  0.00000000000E+00  0.55941834825E+03  0.55941834825E+03  0.00000000000E+00 0. -1.
          1   -1    0    0  501    0 -0.00000000000E+00 -0.00000000000E+00 -0.59847079839E+02  0.59847079839E+02  0.00000000000E+00 0.  1.
          2    1    1    2  501    0  0.20120410712E+02  0.94142290424E+01  0.55712802320E+03  0.55757070661E+03  0.00000000000E+00 0. -1.
          1    1    1    2  502    0 -0.20120410712E+02 -0.94142290424E+01 -0.57556754792E+02  0.61694721475E+02  0.00000000000E+00 0.  1.
</event>
<event>
 4    1  0.3927513E+003  0.2466093E+02  0.7546771E-02  0.1472632E+00
          2   -1    0    0  502    0  0.00000000000E+00  0.00000000000E+00  0.18680988745E+02  0.18680988745E+02  0.00000000000E+00 0.  1.
          1   -1    0    0  501    0 -0.00000000000E+00 -0.00000000000E+00 -0.73664171901E+03  0.73664171901E+03  0.00000000000E+00 0. -1.
          2    1    1    2  501    0  0.21783306941E+02  0.11560675021E+02  0.10241517198E+02  0.26703002505E+02  0.00000000000E+00 0.  1.
          1    1    1    2  502    0 -0.21783306941E+02 -0.11560675021E+02 -0.72820224746E+03  0.72861970525E+03  0.00000000000E+00 0. -1.
</event>
<event>
 4    1  0.3927513E+003  0.2467253E+02  0.7546771E-02  0.1472500E+00
          2   -1    0    0  502    0  0.00000000000E+00  0.00000000000E+00  0.20886866861E+03  0.20886866861E+03  0.00000000000E+00 0. -1.
          1   -1    0    0  501    0 -0.00000000000E+00 -0.00000000000E+00 -0.47277109687E+01  0.47277109687E+01  0.00000000000E+00 0.  1.
          2    1    1    2  501    0 -0.20115732850E+02  0.14286042648E+02  0.16821146032E+03  0.17001126170E+03  0.00000000000E+00 0. -1.
          1    1    1    2  502    0  0.20115732850E+02 -0.14286042648E+02  0.35929497328E+02  0.43585117883E+02  0.00000000000E+00 0.  1.
</event>
<event>
 4    1  0.3927513E+003  0.2797240E+02  0.7546771E-02  0.1438077E+00
          2   -1    0    0  502    0  0.00000000000E+00  0.00000000000E+00  0.10003393785E+03  0.10003393785E+03  0.00000000000E+00 0.  1.
          1   -1    0    0  501    0 -0.00000000000E+00 -0.00000000000E+00 -0.50226014983E+02  0.50226014983E+02  0.00000000000E+00 0. -1.
          2    1    1    2  501    0 -0.12173273823E+02  0.25184649586E+02  0.93936351204E+02  0.98012719826E+02  0.00000000000E+00 0.  1.
          1    1    1    2  502    0  0.12173273823E+02 -0.25184649586E+02 -0.44128428332E+02  0.52247233012E+02  0.00000000000E+00 0. -1.
</event>
<event>
 4    1  0.3927513E+003  0.2562247E+02  0.7546771E-02  0.1461959E+00
          2   -1    0    0  502    0  0.00000000000E+00  0.00000000000E+00  0.83597680924E+03  0.83597680924E+03  0.00000000000E+00 0.  1.
          1   -1    0    0  501    0 -0.00000000000E+00 -0.00000000000E+00 -0.21037617863E+01  0.21037617863E+01  0.00000000000E+00 0. -1.
          2    1    1    2  501    0  0.11250232958E+01  0.25597759348E+02  0.74866873962E+03  0.74910706354E+03  0.00000000000E+00 0.  1.
          1    1    1    2  502    0 -0.11250232958E+01 -0.25597759348E+02  0.85204307837E+02  0.88973507490E+02  0.00000000000E+00 0. -1.
</event>
<event>
 4    1  0.3927513E+003  0.4569515E+02  0.7546771E-02  0.1318000E+00
          2   -1    0    0  502    0  0.00000000000E+00  0.00000000000E+00  0.17634160804E+02  0.17634160804E+02  0.00000000000E+00 0. -1.
          1   -1    0    0  501    0 -0.00000000000E+00 -0.00000000000E+00 -0.16338595444E+03  0.16338595444E+03  0.00000000000E+00 0.  1.
          2    1    1    2  501    0 -0.16708182221E+02  0.42530964516E+02 -0.25387916810E+02  0.52274206027E+02  0.00000000000E+00 0. -1.
          1    1    1    2  502    0  0.16708182221E+02 -0.42530964516E+02 -0.12036387683E+03  0.12874590922E+03  0.00000000000E+00 0.  1.
</event>
<event>
 4    1  0.3927513E+003  0.2633116E+02  0.7546771E-02  0.1454445E+00
          2   -1    0    0  502    0  0.00000000000E+00  0.00000000000E+00  0.11652069701E+03  0.11652069701E+03  0.00000000000E+00 0. -1.
          1   -1    0    0  501    0 -0.00000000000E+00 -0.00000000000E+00 -0.26014525492E+03  0.26014525492E+03  0.00000000000E+00 0. -1.
          2    1    1    2  501    0 -0.82941443320E+01 -0.24990737433E+02  0.11435437897E+03  0.11734672461E+03  0.00000000000E+00 0. -1.
          1    1    1    2  502    0  0.82941443320E+01  0.24990737433E+02 -0.25797893687E+03  0.25931922732E+03  0.00000000000E+00 0. -1.
</event>
<event>
 4    1  0.3927513E+003  0.6831145E+02  0.7546771E-02  0.1233939E+00
          2   -1    0    0  502    0  0.00000000000E+00  0.00000000000E+00  0.24635319045E+03  0.24635319045E+03  0.00000000000E+00 0. -1.
          1   -1    0    0  501    0 -0.00000000000E+00 -0.00000000000E+00 -0.24375270053E+03  0.24375270053E+03  0.00000000000E+00 0. -1.
          2    1    1    2  501    0 -0.54295890625E+01  0.68095330813E+02  0.23663906496E+03  0.24630164754E+03  0.00000000000E+00 0. -1.
          1    1    1    2  502    0  0.54295890625E+01 -0.68095330813E+02 -0.23403857504E+03  0.24380424345E+03  0.00000000000E+00 0. -1.
</event>
<event>
 4    1  0.3927513E+003  0.2324430E+02  0.7546771E-02  0.1489453E+00
          2   -1    0    0  502    0  0.00000000000E+00  0.00000000000E+00  0.24195246843E+03  0.24195246843E+03  0.00000000000E+00 0.  1.
          1   -1    0    0  501    0 -0.00000000000E+00 -0.00000000000E+00 -0.61683524137E+01  0.61683524137E+01  0.00000000000E+00 0. -1.
          2    1    1    2  501    0  0.63104615686E+01  0.22371314815E+02  0.21698355339E+03  0.21822502169E+03  0.00000000000E+00 0.  1.
          1    1    1    2  502    0 -0.63104615686E+01 -0.22371314815E+02  0.18800562630E+02  0.29895799153E+02  0.00000000000E+00 0. -1.
</event>
<event>
 4    1  0.3927513E+003  0.2908421E+02  0.7546771E-02  0.1427725E+00
          2   -1    0    0  502    0  0.00000000000E+00  0.00000000000E+00  0.86087602654E+02  0.86087602654E+02  0.00000000000E+00 0.  1.
          1   -1    0    0  501    0 -0.00000000000E+00 -0.00000000000E+00 -0.66838905173E+02  0.66838905173E+02  0.00000000000E+00 0.  1.
          2    1    1    2  501    0 -0.12580305921E+01 -0.29056994136E+02  0.80243896045E+02  0.85352061496E+02  0.00000000000E+00 0.  1.
          1    1    1    2  502    0  0.12580305921E+01  0.29056994136E+02 -0.60995198564E+02  0.67574446332E+02  0.00000000000E+00 0.  1.
</event>
<event>
 4    1  0.3927513E+003  0.2313587E+02  0.7546771E-02  0.1490799E+00
          2   -1    0    0  502    0  0.00000000000E+00  0.00000000000E+00  0.28338706156E+03  0.28338706156E+03  0.00000000000E+00 0. -1.
          1   -1    0    0  501    0 -0.00000000000E+00 -0.00000000000E+00 -0.19268317998E+01  0.19268317998E+01  0.00000000000E+00 0.  1.
          2    1    1    2  501    0 -0.20459263366E+02 -0.10802151555E+02  0.12069395948E+03  0.12289141463E+03  0.00000000000E+00 0. -1.
          1    1    1    2  502    0  0.20459263366E+02  0.10802151555E+02  0.16076627028E+03  0.16242247873E+03  0.00000000000E+00 0.  1.
</event>
<event>
 4    1  0.3927513E+003  0.2667448E+02  0.7546771E-02  0.1450906E+00
          2   -1    0    0  502    0  0.00000000000E+00  0.00000000000E+00  0.28054864788E+03  0.28054864788E+03  0.00000000000E+00 0. -1.
          1   -1    0    0  501    0 -0.00000000000E+00 -0.00000000000E+00 -0.80648090326E+02  0.80648090326E+02  0.00000000000E+00 0.  1.
          2    1    1    2  501    0 -0.26510463336E+02  0.29535517583E+01  0.27768625648E+03  0.27896448729E+03  0.00000000000E+00 0. -1.
          1    1    1    2  502    0  0.26510463336E+02 -0.29535517583E+01 -0.77785698920E+02  0.82232250916E+02  0.00000000000E+00 0.  1.
</event>
<event>
 4    1  0.3927513E+003  0.2933087E+02  0.7546771E-02  0.1425502E+00
          2   -1    0    0  502    0  0.00000000000E+00  0.00000000000E+00  0.16036229687E+03  0.16036229687E+03  0.00000000000E+00 0. -1.
          1   -1    0    0  501    0 -0.00000000000E+00 -0.00000000000E+00 -0.92598716775E+01  0.92598716775E+01  0.00000000000E+00 0. -1.
          2    1    1    2  501    0 -0.25407071057E+02 -0.14655393938E+02  0.13055745358E+03  0.13381161578E+03  0.00000000000E+00 0. -1.
          1    1    1    2  502    0  0.25407071057E+02  0.14655393938E+02  0.20544971609E+02  0.35810552768E+02  0.00000000000E+00 0. -1.
</event>
<event>
 4    1  0.3927513E+003  0.3029070E+02  0.7546771E-02  0.1417087E+00
          2   -1    0    0  502    0  0.00000000000E+00  0.00000000000E+00  0.26810364175E+02  0.26810364175E+02  0.00000000000E+00 0. -1.
          1   -1    0    0  501    0 -0.00000000000E+00 -0.00000000000E+00 -0.10095114991E+03  0.10095114991E+03  0.00000000000E+00 0.  1.
          2    1    1    2  501    0  0.29087317052E+02 -0.84530765586E+01  0.14865728922E+02  0.33741908852E+02  0.00000000000E+00 0. -1.
          1    1    1    2  502    0 -0.29087317052E+02  0.84530765586E+01 -0.89006514656E+02  0.94019605231E+02  0.00000000000E+00 0.  1.
</event>
<event>
 4    1  0.3927513E+003  0.2588954E+02  0.7546771E-02  0.1459093E+00
          2   -1    0    0  502    0  0.00000000000E+00  0.00000000000E+00  0.23732565087E+03  0.23732565087E+03  0.00000000000E+00 0.  1.
          1   -1    0    0  501    0 -0.00000000000E+00 -0.00000000000E+00 -0.82579547106E+01  0.82579547106E+01  0.00000000000E+00 0. -1.
          2    1    1    2  501    0 -0.18455264425E+02  0.18156862180E+02  0.21413879265E+03  0.21569814776E+03  0.00000000000E+00 0.  1.
          1    1    1    2  502    0  0.18455264425E+02 -0.18156862180E+02  0.14928903510E+02  0.29885457822E+02  0.00000000000E+00 0. -1.
</event>
<event>
 4    1  0.3927513E+003  0.2398976E+02  0.7546771E-02  0.1480430E+00
          2   -1    0    0  502    0  0.00000000000E+00  0.00000000000E+00  0.53278781124E+01  0.53278781124E+01  0.00000000000E+00 0. -1.
          1   -1    0    0  501    0 -0.00000000000E+00 -0.00000000000E+00 -0.17485260589E+04  0.17485260589E+04  0.00000000000E+00 0. -1.
          2    1    1    2  501    0 -0.12431444833E+02 -0.20517498940E+02 -0.22190771605E+02  0.32679334874E+02  0.00000000000E+00 0. -1.
          1    1    1    2  502    0  0.12431444833E+02  0.20517498940E+02 -0.17210074092E+04  0.17211746021E+04  0.00000000000E+00 0. -1.
</event>
<event>
 4    1  0.3927513E+003  0.3220388E+02  0.7546771E-02  0.1401364E+00
          2   -1    0    0  502    0  0.00000000000E+00  0.00000000000E+00  0.35294414273E+03  0.35294414273E+03  0.00000000000E+00 0.  1.
          1   -1    0    0  501    0 -0.00000000000E+00 -0.00000000000E+00 -0.30201860691E+02  0.30201860691E+02  0.00000000000E+00 0. -1.
          2    1    1    2  501    0 -0.69228290872E+00  0.32196442471E+02  0.34338647031E+03  0.34489325617E+03  0.00000000000E+00 0.  1.
          1    1    1    2  502    0  0.69228290872E+00 -0.32196442471E+02 -0.20644188262E+02  0.38252747254E+02  0.00000000000E+00 0. -1.
</event>
<event>
 4    1  0.3927513E+003  0.2582413E+02  0.7546771E-02  0.1459791E+00
          2   -1    0    0  502    0  0.00000000000E+00  0.00000000000E+00  0.26772387293E+02  0.26772387293E+02  0.00000000000E+00 0.  1.
          1   -1    0    0  501    0 -0.00000000000E+00 -0.00000000000E+00 -0.11241394273E+03  0.11241394273E+03  0.00000000000E+00 0. -1.
          2    1    1    2  501    0 -0.94619105892E+01 -0.24028277284E+02  0.18579683719E+02  0.31813369962E+02  0.00000000000E+00 0.  1.
          1    1    1    2  502    0  0.94619105892E+01  0.24028277284E+02 -0.10422123915E+03  0.10737296006E+03  0.00000000000E+00 0. -1.
</event>
<event>
 4    1  0.3927513E+003  0.4795007E+02  0.7546771E-02  0.1307313E+00
          2   -1    0    0  502    0  0.00000000000E+00  0.00000000000E+00  0.98904473100E+01  0.98904473100E+01  0.00000000000E+00 0. -1.
          1   -1    0    0  501    0 -0.00000000000E+00 -0.00000000000E+00 -0.14802495480E+04  0.14802495480E+04  0.00000000000E+00 0.  1.
          2    1    1    2  501    0 -0.44376332158E+02 -0.18164546094E+02 -0.51112081392E+02  0.70083196665E+02  0.00000000000E+00 0. -1.
          1    1    1    2  502    0  0.44376332158E+02  0.18164546094E+02 -0.14192470193E+04  0.14200567987E+04  0.00000000000E+00 0.  1.
</event>
<event>
 4    1  0.3927513E+003  0.2318538E+02  0.7546771E-02  0.1490183E+00
          2   -1    0    0  502    0  0.00000000000E+00  0.00000000000E+00  0.56247526809E+03  0.56247526809E+03  0.00000000000E+00 0. -1.
          1   -1    0    0  501    0 -0.00000000000E+00 -0.00000000000E+00 -0.11454846928E+01  0.11454846928E+01  0.00000000000E+00 0. -1.
          2    1    1    2  501    0  0.17523856639E+01  0.23119065766E+02  0.39537029761E+03  0.39604953514E+03  0.00000000000E+00 0. -1.
          1    1    1    2  502    0 -0.17523856639E+01 -0.23119065766E+02  0.16595948579E+03  0.16757121764E+03  0.00000000000E+00 0. -1.
</event>
<event>
 4    1  0.3927513E+003  0.2549654E+02  0.7546771E-02  0.1463325E+00
          2   -1    0    0  502    0  0.00000000000E+00  0.00000000000E+00  0.27762443696E+03  0.27762443696E+03  0.00000000000E+00 0.  1.
          1   -1    0    0  501    0 -0.00000000000E+00 -0.00000000000E+00 -0.83089661815E+01  0.83089661815E+01  0.00000000000E+00 0.  1.
          2    1    1    2  501    0 -0.25476553155E+02 -0.10093561436E+01  0.25581634914E+03  0.25708379577E+03  0.00000000000E+00 0.  1.
          1    1    1    2  502    0  0.25476553155E+02  0.10093561436E+01  0.13499121640E+02  0.28849607373E+02  0.00000000000E+00 0.  1.
</event>
<event>
 4    1  0.3927513E+003  0.2767720E+02  0.7546771E-02  0.1440922E+00
          2   -1    0    0  502    0  0.00000000000E+00  0.00000000000E+00  0.18192966152E+01  0.18192966152E+01  0.00000000000E+00 0.  1.
          1   -1    0    0  501    0 -0.00000000000E+00 -0.00000000000E+00 -0.99495582142E+03  0.99495582142E+03  0.00000000000E+00 0. -1.
          2    1    1    2  501    0 -0.27610087984E+02 -0.19262020626E+01 -0.11805331372E+03  0.12125432814E+03  0.00000000000E+00 0.  1.
          1    1    1    2  502    0  0.27610087984E+02  0.19262020626E+01 -0.87508321109E+03  0.87552078989E+03  0.00000000000E+00 0. -1.
</event>
<event>
 4    1  0.3927513E+003  0.4406385E+02  0.7546771E-02  0.1326187E+00
          2   -1    0    0  502    0  0.00000000000E+00  0.00000000000E+00  0.11443140263E+03  0.11443140263E+03  0.00000000000E+00 0.  1.
          1   -1    0    0  501    0 -0.00000000000E+00 -0.00000000000E+00 -0.10267479885E+04  0.10267479885E+04  0.00000000000E+00 0.  1.
          2    1    1    2  501    0 -0.41325392228E+02  0.15291658312E+02  0.10969710908E+03  0.11821623661E+03  0.00000000000E+00 0.  1.
          1    1    1    2  502    0  0.41325392228E+02 -0.15291658312E+02 -0.10220136950E+04  0.10229631545E+04  0.00000000000E+00 0.  1.
</event>
<event>
 4    1  0.3927513E+003  0.3358413E+02  0.7546771E-02  0.1390800E+00
          2   -1    0    0  502    0  0.00000000000E+00  0.00000000000E+00  0.70978192225E+03  0.70978192225E+03  0.00000000000E+00 0.  1.
          1   -1    0    0  501    0 -0.00000000000E+00 -0.00000000000E+00 -0.15925923421E+01  0.15925923421E+01  0.00000000000E+00 0.  1.
          2    1    1    2  501    0  0.30981960205E+02  0.12961931276E+02  0.37082098389E+03  0.37233868402E+03  0.00000000000E+00 0.  1.
          1    1    1    2  502    0 -0.30981960205E+02 -0.12961931276E+02  0.33736834602E+03  0.33903583058E+03  0.00000000000E+00 0.  1.
</event>
<event>
 4    1  0.3927513E+003  0.2655461E+02  0.7546771E-02  0.1452134E+00
          2   -1    0    0  502    0  0.00000000000E+00  0.00000000000E+00  0.62727262303E+03  0.62727262303E+03  0.00000000000E+00 0.  1.
          1   -1    0    0  501    0 -0.00000000000E+00 -0.00000000000E+00 -0.17509651838E+01  0.17509651838E+01  0.00000000000E+00 0.  1.
          2    1    1    2  501    0 -0.74958871421E+01  0.25474674205E+02  0.50093871284E+03  0.50164204506E+03  0.00000000000E+00 0.  1.
          1    1    1    2  502    0  0.74958871421E+01 -0.25474674205E+02  0.12458294500E+03  0.12738154315E+03  0.00000000000E+00 0.  1.
</event>
<event>
 4    1  0.3927513E+003  0.2116212E+02  0.7546771E-02  0.1516963E+00
          2   -1    0    0  502    0  0.00000000000E+00  0.00000000000E+00  0.97613203118E+03  0.97613203118E+03  0.00000000000E+00 0.  1.
          1   -1    0    0  501    0 -0.00000000000E+00 -0.00000000000E+00 -0.14107887821E+01  0.14107887821E+01  0.00000000000E+00 0. -1.
          2    1    1    2  501    0  0.18234415084E+02  0.10739718298E+02  0.88886840298E+03  0.88912028053E+03  0.00000000000E+00 0.  1.
          1    1    1    2  502    0 -0.18234415084E+02 -0.10739718298E+02  0.85852839415E+02  0.88422539424E+02  0.00000000000E+00 0. -1.
</event>
<event>
 4    1  0.3927513E+003  0.2203833E+02  0.7546771E-02  0.1504940E+00
          2   -1    0    0  502    0  0.00000000000E+00  0.00000000000E+00  0.73655731667E+02  0.73655731667E+02  0.00000000000E+00 0.  1.
          1   -1    0    0  501    0 -0.00000000000E+00 -0.00000000000E+00 -0.14230741331E+02  0.14230741331E+02  0.00000000000E+00 0. -1.
          2    1    1    2  501    0  0.21595117069E+02 -0.43975952969E+01  0.61903277705E+02  0.65709236157E+02  0.00000000000E+00 0.  1.
          1    1    1    2  502    0 -0.21595117069E+02  0.43975952969E+01 -0.24782873699E+01  0.22177236841E+02  0.00000000000E+00 0. -1.
</event>
<event>
 4    1  0.3927513E+003  0.2985329E+02  0.7546771E-02  0.1420876E+00
          2   -1    0    0  502    0  0.00000000000E+00  0.00000000000E+00  0.31542733257E+03  0.31542733257E+03  0.00000000000E+00 0.  1.
          1   -1    0    0  501    0 -0.00000000000E+00 -0.00000000000E+00 -0.45062670660E+01  0.45062670660E+01  0.00000000000E+00 0.  1.
          2    1    1    2  501    0 -0.29458825919E+02 -0.48368904879E+01  0.57762871720E+02  0.65021283311E+02  0.00000000000E+00 0.  1.
          1    1    1    2  502    0  0.29458825919E+02  0.48368904879E+01  0.25315819378E+03  0.25491231632E+03  0.00000000000E+00 0.  1.
</event>
<event>
 4    1  0.3927513E+003  0.3003180E+02  0.7546771E-02  0.1419320E+00
          2   -1    0    0  502    0  0.00000000000E+00  0.00000000000E+00  0.11032749829E+03  0.11032749829E+03  0.00000000000E+00 0. -1.
          1   -1    0    0  501    0 -0.00000000000E+00 -0.00000000000E+00 -0.10050955300E+02  0.10050955300E+02  0.00000000000E+00 0.  1.
          2    1    1    2  501    0  0.14202182983E+02  0.26461429609E+02  0.76142577193E+02  0.81851092357E+02  0.00000000000E+00 0. -1.
          1    1    1    2  502    0 -0.14202182983E+02 -0.26461429609E+02  0.24133965795E+02  0.38527361231E+02  0.00000000000E+00 0.  1.
</event>
<event>
 4    1  0.3927513E+003  0.2156443E+02  0.7546771E-02  0.1511357E+00
          2   -1    0    0  502    0  0.00000000000E+00  0.00000000000E+00  0.10882129745E+04  0.10882129745E+04  0.00000000000E+00 0.  1.
          1   -1    0    0  501    0 -0.00000000000E+00 -0.00000000000E+00 -0.41802346105E+02  0.41802346105E+02  0.00000000000E+00 0.  1.
          2    1    1    2  501    0  0.44914457717E+01  0.21091508913E+02  0.10853176309E+04  0.10855318442E+04  0.00000000000E+00 0.  1.
          1    1    1    2  502    0 -0.44914457717E+01 -0.21091508913E+02 -0.38907002479E+02  0.44483476430E+02  0.00000000000E+00 0.  1.
</event>
<event>
 4    1  0.3927513E+003  0.2605786E+02  0.7546771E-02  0.1457309E+00
          2   -1    0    0  502    0  0.00000000000E+00  0.00000000000E+00  0.19519342626E+02  0.19519342626E+02  0.00000000000E+00 0. -1.
          1   -1    0    0  501    0 -0.00000000000E+00 -0.00000000000E+00 -0.43348550829E+02  0.43348550829E+02  0.00000000000E+00 0.  1.
          2    1    1    2  501    0  0.63626790613E+01  0.25269115351E+02  0.20554337040E+01  0.26138796514E+02  0.00000000000E+00 0. -1.
          1    1    1    2  502    0 -0.63626790613E+01 -0.25269115351E+02 -0.25884641907E+02  0.36729096941E+02  0.00000000000E+00 0.  1.
</event>
<event>
 4    1  0.3927513E+003  0.3076488E+02  0.7546771E-02  0.1413064E+00
          2   -1    0    0  502    0  0.00000000000E+00  0.00000000000E+00  0.18928670298E+03  0.18928670298E+03  0.00000000000E+00 0.  1.
          1   -1    0    0  501    0 -0.00000000000E+00 -0.00000000000E+00 -0.53682880646E+01  0.53682880646E+01  0.00000000000E+00 0.  1.
          2    1    1    2  501    0 -0.30619399010E+02 -0.29882009193E+01  0.66474705241E+02  0.73248640789E+02  0.00000000000E+00 0.  1.
          1    1    1    2  502    0  0.30619399010E+02  0.29882009193E+01  0.11744370967E+03  0.12140635025E+03  0.00000000000E+00 0.  1.
</event>
<event>
 4    1  0.3927513E+003  0.6023448E+02  0.7546771E-02  0.1259038E+00
          2   -1    0    0  502    0  0.00000000000E+00  0.00000000000E+00  0.10858396373E+04  0.10858396373E+04  0.00000000000E+00 0. -1.
          1   -1    0    0  501    0 -0.00000000000E+00 -0.00000000000E+00 -0.34762062218E+02  0.34762062218E+02  0.00000000000E+00 0. -1.
          2    1    1    2  501    0  0.60202513454E+02  0.19620430630E+01  0.10582310487E+04  0.10599439347E+04  0.00000000000E+00 0. -1.
          1    1    1    2  502    0 -0.60202513454E+02 -0.19620430630E+01 -0.71534736985E+01  0.60657764755E+02  0.00000000000E+00 0. -1.
</event>
<event>
 4    1  0.3927513E+003  0.2072153E+02  0.7546771E-02  0.1523278E+00
          2   -1    0    0  502    0  0.00000000000E+00  0.00000000000E+00  0.15034866255E+02  0.15034866255E+02  0.00000000000E+00 0.  1.
          1   -1    0    0  501    0 -0.00000000000E+00 -0.00000000000E+00 -0.11351233531E+04  0.11351233531E+04  0.00000000000E+00 0. -1.
          2    1    1    2  501    0 -0.76854977334E+01 -0.19243568021E+02  0.77544472197E+01  0.22124946040E+02  0.00000000000E+00 0.  1.
          1    1    1    2  502    0  0.76854977334E+01  0.19243568021E+02 -0.11278429340E+04  0.11280332733E+04  0.00000000000E+00 0. -1.
</event>
<event>
 4    1  0.3927513E+003  0.2270300E+02  0.7546771E-02  0.1496262E+00
          2   -1    0    0  502    0  0.00000000000E+00  0.00000000000E+00  0.98110395582E+02  0.98110395582E+02  0.00000000000E+00 0.  1.
          1   -1    0    0  501    0 -0.00000000000E+00 -0.00000000000E+00 -0.21243351671E+02  0.21243351671E+02  0.00000000000E+00 0. -1.
          2    1    1    2  501    0  0.20170322061E+02 -0.10420377713E+02  0.90208070212E+02  0.93021084143E+02  0.00000000000E+00 0.  1.
          1    1    1    2  502    0 -0.20170322061E+02  0.10420377713E+02 -0.13341026301E+02  0.26332663110E+02  0.00000000000E+00 0. -1.
</event>
<event>
 4    1  0.3927513E+003  0.2077168E+02  0.7546771E-02  0.1522550E+00
          2   -1    0    0  502    0  0.00000000000E+00  0.00000000000E+00  0.48864128561E+01  0.48864128561E+01  0.00000000000E+00 0.  1.
          1   -1    0    0  501    0 -0.00000000000E+00 -0.00000000000E+00 -0.26595983202E+03  0.26595983202E+03  0.00000000000E+00 0. -1.
          2    1    1    2  501    0 -0.11037314335E+02  0.17596606358E+02 -0.19853620703E+02  0.28733762686E+02  0.00000000000E+00 0.  1.
          1    1    1    2  502    0  0.11037314335E+02 -0.17596606358E+02 -0.24121979846E+03  0.24211248219E+03  0.00000000000E+00 0. -1.
</event>
<event>
 4    1  0.3927513E+003  0.2370373E+02  0.7546771E-02  0.1483846E+00
          2   -1    0    0  502    0  0.00000000000E+00  0.00000000000E+00  0.35378392756E+03  0.35378392756E+03  0.00000000000E+00 0.  1.
          1   -1    0    0  501    0 -0.00000000000E+00 -0.00000000000E+00 -0.59612096576E+01  0.59612096576E+01  0.00000000000E+00 0.  1.
          2    1    1    2  501    0  0.20808693355E+02  0.11351871460E+02  0.32797131556E+03  0.32882677892E+03  0.00000000000E+00 0.  1.
          1    1    1    2  502    0 -0.20808693355E+02 -0.11351871460E+02  0.19851402339E+02  0.30918358294E+02  0.00000000000E+00 0.  1.
</event>
<event>
 4    1  0.3927513E+003  0.2220396E+02  0.7546771E-02  0.1502743E+00
          2   -1    0    0  502    0  0.00000000000E+00  0.00000000000E+00  0.26074270792E+03  0.26074270792E+03  0.00000000000E+00 0.  1.
          1   -1    0    0  501    0 -0.00000000000E+00 -0.00000000000E+00 -0.18957375427E+01  0.18957375427E+01  0.00000000000E+00 0.  1.
          2    1    1    2  501    0  0.97557292651E+01 -0.19945967914E+02  0.13611601636E+03  0.13791513984E+03  0.00000000000E+00 0.  1.
          1    1    1    2  502    0 -0.97557292651E+01  0.19945967914E+02  0.12273095403E+03  0.12472330562E+03  0.00000000000E+00 0.  1.
</event>
<event>
 4    1  0.3927513E+003  0.3326226E+02  0.7546771E-02  0.1393209E+00
          2   -1    0    0  502    0  0.00000000000E+00  0.00000000000E+00  0.63034560150E+03  0.63034560150E+03  0.00000000000E+00 0. -1.
          1   -1    0    0  501    0 -0.00000000000E+00 -0.00000000000E+00 -0.65270901560E+02  0.65270901560E+02  0.00000000000E+00 0.  1.
          2    1    1    2  501    0 -0.33092834041E+02  0.33529693909E+01  0.62563729598E+03  0.62652087290E+03  0.00000000000E+00 0. -1.
          1    1    1    2  502    0  0.33092834041E+02 -0.33529693909E+01 -0.60562596033E+02  0.69095630158E+02  0.00000000000E+00 0.  1.
</event>
<event>
 4    1  0.3927513E+003  0.2656127E+02  0.7546771E-02  0.1452066E+00
          2   -1    0    0  502    0  0.00000000000E+00  0.00000000000E+00  0.72841420594E+00  0.72841420594E+00  0.00000000000E+00 0. -1.
          1   -1    0    0  501    0 -0.00000000000E+00 -0.00000000000E+00 -0.13984140275E+04  0.13984140275E+04  0.00000000000E+00 0.  1.
          2    1    1    2  501    0 -0.21763306779E+02 -0.15226938128E+02 -0.31097595865E+03  0.31210823127E+03  0.00000000000E+00 0. -1.
          1    1    1    2  502    0  0.21763306779E+02  0.15226938128E+02 -0.10867096547E+04  0.10870342105E+04  0.00000000000E+00 0.  1.
</event>
<event>
 4    1  0.3927513E+003  0.2131276E+02  0.7546771E-02  0.1514846E+00
          2   -1    0    0  502    0  0.00000000000E+00  0.00000000000E+00  0.91602709634E+03  0.91602709634E+03  0.00000000000E+00 0.  1.
          1   -1    0    0  501    0 -0.00000000000E+00 -0.00000000000E+00 -0.18768395022E+01  0.18768395022E+01  0.00000000000E+00 0. -1.
          2    1    1    2  501    0  0.10701629542E+02  0.18431187597E+02  0.85075677093E+03  0.85102368759E+03  0.00000000000E+00 0.  1.
          1    1    1    2  502    0 -0.10701629542E+02 -0.18431187597E+02  0.63393485903E+02  0.66880248251E+02  0.00000000000E+00 0. -1.
</event>
<event>
 4    1  0.3927513E+003  0.2299362E+02  0.7546771E-02  0.1492578E+00
          2   -1    0    0  502    0  0.00000000000E+00  0.00000000000E+00  0.25578476664E+03  0.25578476664E+03  0.00000000000E+00 0. -1.
          1   -1    0    0  501    0 -0.00000000000E+00 -0.00000000000E+00 -0.10628261432E+02  0.10628261432E+02  0.00000000000E+00 0. -1.
          2    1    1    2  501    0  0.21825352190E+02 -0.72360723721E+01  0.24213201972E+03  0.24322134305E+03  0.00000000000E+00 0. -1.
          1    1    1    2  502    0 -0.21825352190E+02  0.72360723721E+01  0.30244854863E+01  0.23191685020E+02  0.00000000000E+00 0. -1.
</event>
<event>
 4    1  0.3927513E+003  0.5244568E+02  0.7546771E-02  0.1287903E+00
          2   -1    0    0  502    0  0.00000000000E+00  0.00000000000E+00  0.37719355308E+04  0.37719355308E+04  0.00000000000E+00 0. -1.
          1   -1    0    0  501    0 -0.00000000000E+00 -0.00000000000E+00 -0.16543744947E+01  0.16543744947E+01  0.00000000000E+00 0. -1.
          2    1    1    2  501    0  0.46324762151E+02  0.24587928622E+02  0.32961055474E+04  0.32965227634E+04  0.00000000000E+00 0. -1.
          1    1    1    2  502    0 -0.46324762151E+02 -0.24587928622E+02  0.47417560887E+03  0.47706714189E+03  0.00000000000E+00 0. -1.
</event>
<event>
 4    1  0.3927513E+003  0.2464130E+02  0.7546771E-02  0.1472856E+00
          2   -1    0    0  502    0  0.00000000000E+00  0.00000000000E+00  0.24748261765E+03  0.24748261765E+03  0.00000000000E+00 0.  1.
          1   -1    0    0  501    0 -0.00000000000E+00 -0.00000000000E+00 -0.49688674657E+01  0.49688674657E+01  0.00000000000E+00 0. -1.
          2    1    1    2  501    0  0.19127212645E+02  0.15535226537E+02  0.21106625914E+03  0.21249978652E+03  0.00000000000E+00 0.  1.
          1    1    1    2  502    0 -0.19127212645E+02 -0.15535226537E+02  0.31447491048E+02  0.39951698592E+02  0.00000000000E+00 0. -1.
</event>
<event>
 4    1  0.3927513E+003  0.2090355E+02  0.7546771E-02  0.1520646E+00
          2   -1    0    0  502    0  0.00000000000E+00  0.00000000000E+00  0.93180341902E+00  0.93180341902E+00  0.00000000000E+00 0. -1.
          1   -1    0    0  501    0 -0.00000000000E+00 -0.00000000000E+00 -0.11666474091E+04  0.11666474091E+04  0.00000000000E+00 0. -1.
          2    1    1    2  501    0  0.20689737548E+02 -0.29821590003E+01 -0.13139322857E+03  0.13304562761E+03  0.00000000000E+00 0. -1.
          1    1    1    2  502    0 -0.20689737548E+02  0.29821590003E+01 -0.10343223771E+04  0.10345335849E+04  0.00000000000E+00 0. -1.
</event>
<event>
 4    1  0.3927513E+003  0.3066877E+02  0.7546771E-02  0.1413872E+00
          2   -1    0    0  502    0  0.00000000000E+00  0.00000000000E+00  0.38490034817E+01  0.38490034817E+01  0.00000000000E+00 0.  1.
          1   -1    0    0  501    0 -0.00000000000E+00 -0.00000000000E+00 -0.27473618299E+03  0.27473618299E+03  0.00000000000E+00 0.  1.
          2    1    1    2  501    0 -0.28196047613E+01 -0.30538885809E+02 -0.89133172906E+02  0.94261849280E+02  0.00000000000E+00 0.  1.
          1    1    1    2  502    0  0.28196047613E+01  0.30538885809E+02 -0.18175400661E+03  0.18432333720E+03  0.00000000000E+00 0.  1.
</event>
<event>
 4    1  0.3927513E+003  0.3221381E+02  0.7546771E-02  0.1401286E+00
          2   -1    0    0  502    0  0.00000000000E+00  0.00000000000E+00  0.48283055479E+03  0.48283055479E+03  0.00000000000E+00 0. -1.
          1   -1    0    0  501    0 -0.00000000000E+00 -0.00000000000E+00 -0.25711518502E+02  0.25711518502E+02  0.00000000000E+00 0.  1.
          2    1    1    2  501    0 -0.31612144620E+02  0.61969392224E+01  0.47197122565E+03  0.47306930526E+03  0.00000000000E+00 0. -1.
          1    1    1    2  502    0  0.31612144620E+02 -0.61969392224E+01 -0.14852189356E+02  0.35472768032E+02  0.00000000000E+00 0.  1.
</event>
<event>
 4    1  0.3927513E+003  0.3331534E+02  0.7546771E-02  0.1392810E+00
          2   -1    0    0  502    0  0.00000000000E+00  0.00000000000E+00  0.66112368980E+03  0.66112368980E+03  0.00000000000E+00 0.  1.
          1   -1    0    0  501    0 -0.00000000000E+00 -0.00000000000E+00 -0.14124824580E+02  0.14124824580E+02  0.00000000000E+00 0.  1.
          2    1    1    2  501    0 -0.31311522130E+02 -0.11379840342E+02  0.64042477590E+03  0.64129073420E+03  0.00000000000E+00 0.  1.
          1    1    1    2  502    0  0.31311522130E+02  0.11379840342E+02  0.65740893186E+01  0.33957780179E+02  0.00000000000E+00 0.  1.
</event>
<event>
 4    1  0.3927513E+003  0.2136804E+02  0.7546771E-02  0.1514075E+00
          2   -1    0    0  502    0  0.00000000000E+00  0.00000000000E+00  0.49064492786E+03  0.49064492786E+03  0.00000000000E+00 0. -1.
          1   -1    0    0  501    0 -0.00000000000E+00 -0.00000000000E+00 -0.10247119154E+02  0.10247119154E+02  0.00000000000E+00 0.  1.
          2    1    1    2  501    0 -0.14707567923E+02 -0.15500979516E+02  0.47900210723E+03  0.47947847882E+03  0.00000000000E+00 0. -1.
          1    1    1    2  502    0  0.14707567923E+02  0.15500979516E+02  0.13957014735E+01  0.21413568193E+02  0.00000000000E+00 0.  1.
</event>
<event>
 4    1  0.3927513E+003  0.2629797E+02  0.7546771E-02  0.1454790E+00
          2   -1    0    0  502    0  0.00000000000E+00  0.00000000000E+00  0.77931560930E+02  0.77931560930E+02  0.00000000000E+00 0.  1.
          1   -1    0    0  501    0 -0.00000000000E+00 -0.00000000000E+00 -0.51929742128E+02  0.51929742128E+02  0.00000000000E+00 0.  1.
          2    1    1    2  501    0 -0.20824931828E+02  0.16059435930E+02  0.72123848292E+02  0.76768696488E+02  0.00000000000E+00 0.  1.
          1    1    1    2  502    0  0.20824931828E+02 -0.16059435930E+02 -0.46122029490E+02  0.53092606569E+02  0.00000000000E+00 0.  1.
</event>
<event>
 4    1  0.3927513E+003  0.2040847E+02  0.7546771E-02  0.1527880E+00
          2   -1    0    0  502    0  0.00000000000E+00  0.00000000000E+00  0.12669006165E+02  0.12669006165E+02  0.00000000000E+00 0.  1.
          1   -1    0    0  501    0 -0.00000000000E+00 -0.00000000000E+00 -0.73610639539E+02  0.73610639539E+02  0.00000000000E+00 0.  1.
          2    1    1    2  501    0  0.10939933522E+02  0.17228565625E+02  0.16207016225E+01  0.20472720696E+02  0.00000000000E+00 0.  1.
          1    1    1    2  502    0 -0.10939933522E+02 -0.17228565625E+02 -0.62562334996E+02  0.65806925008E+02  0.00000000000E+00 0.  1.
</event>
<event>
 4    1  0.3927513E+003  0.2885407E+02  0.7546771E-02  0.1429823E+00
          2   -1    0    0  502    0  0.00000000000E+00  0.00000000000E+00  0.10680756125E+03  0.10680756125E+03  0.00000000000E+00 0.  1.
          1   -1    0    0  501    0 -0.00000000000E+00 -0.00000000000E+00 -0.10854512063E+03  0.10854512063E+03  0.00000000000E+00 0.  1.
          2    1    1    2  501    0 -0.23038278357E+02 -0.17372245184E+02  0.10286927033E+03  0.10683933710E+03  0.00000000000E+00 0.  1.
          1    1    1    2  502    0  0.23038278357E+02  0.17372245184E+02 -0.10460682972E+03  0.10851334478E+03  0.00000000000E+00 0.  1.
</event>
<event>
 4    1  0.3927513E+003  0.2420509E+02  0.7546771E-02  0.1477896E+00
          2   -1    0    0  502    0  0.00000000000E+00  0.00000000000E+00  0.19915559997E+02  0.19915559997E+02  0.00000000000E+00 0.  1.
          1   -1    0    0  501    0 -0.00000000000E+00 -0.00000000000E+00 -0.16371184648E+03  0.16371184648E+03  0.00000000000E+00 0. -1.
          2    1    1    2  501    0  0.23821702284E+02  0.42910264139E+01  0.11258061204E+02  0.26695137188E+02  0.00000000000E+00 0.  1.
          1    1    1    2  502    0 -0.23821702284E+02 -0.42910264139E+01 -0.15505434768E+03  0.15693226928E+03  0.00000000000E+00 0. -1.
</event>
<event>
 4    1  0.3927513E+003  0.2022542E+02  0.7546771E-02  0.1530617E+00
          2   -1    0    0  502    0  0.00000000000E+00  0.00000000000E+00  0.45538274612E+03  0.45538274612E+03  0.00000000000E+00 0. -1.
          1   -1    0    0  501    0 -0.00000000000E+00 -0.00000000000E+00 -0.42845358059E+01  0.42845358059E+01  0.00000000000E+00 0.  1.
          2    1    1    2  501    0  0.15204007275E+02 -0.13338135215E+02  0.42987371501E+03  0.43034925182E+03  0.00000000000E+00 0. -1.
          1    1    1    2  502    0 -0.15204007275E+02  0.13338135215E+02  0.21224495306E+02  0.29318030105E+02  0.00000000000E+00 0.  1.
</event>
<event>
 4    1  0.3927513E+003  0.1141730E+03  0.7546771E-02  0.1141286E+00
          2   -1    0    0  502    0  0.00000000000E+00  0.00000000000E+00  0.73834646786E+03  0.73834646786E+03  0.00000000000E+00 0.  1.
          1   -1    0    0  501    0 -0.00000000000E+00 -0.00000000000E+00 -0.27512976488E+02  0.27512976488E+02  0.00000000000E+00 0.  1.
          2    1    1    2  501    0 -0.10087507866E+03 -0.53475974431E+02  0.12620042548E+03  0.17018228089E+03  0.00000000000E+00 0.  1.
          1    1    1    2  502    0  0.10087507866E+03  0.53475974431E+02  0.58463306589E+03  0.59567716346E+03  0.00000000000E+00 0.  1.
</event>
<event>
 4    1  0.3927513E+003  0.2436804E+02  0.7546771E-02  0.1475999E+00
          2   -1    0    0  502    0  0.00000000000E+00  0.00000000000E+00  0.11264572856E+02  0.11264572856E+02  0.00000000000E+00 0.  1.
          1   -1    0    0  501    0 -0.00000000000E+00 -0.00000000000E+00 -0.96696819596E+02  0.96696819596E+02  0.00000000000E+00 0. -1.
          2    1    1    2  501    0  0.17368439176E+01  0.24306065699E+02 -0.63100713172E+01  0.25171778972E+02  0.00000000000E+00 0.  1.
          1    1    1    2  502    0 -0.17368439176E+01 -0.24306065699E+02 -0.79122175423E+02  0.82789613481E+02  0.00000000000E+00 0. -1.
</event>
<event>
 4    1  0.3927513E+003  0.5930337E+02  0.7546771E-02  0.1262218E+00
          2   -1    0    0  502    0  0.00000000000E+00  0.00000000000E+00  0.25191651038E+04  0.25191651038E+04  0.00000000000E+00 0.  1.
          1   -1    0    0  501    0 -0.00000000000E+00 -0.00000000000E+00 -0.28667640375E+01  0.28667640375E+01  0.00000000000E+00 0. -1.
          2    1    1    2  501    0  0.51884542163E+02  0.28720802342E+02  0.21613579426E+04  0.21621713730E+04  0.00000000000E+00 0.  1.
          1    1    1    2  502    0 -0.51884542163E+02 -0.28720802342E+02  0.35494039711E+03  0.35986049478E+03  0.00000000000E+00 0. -1.
</event>
<event>
 4    1  0.3927513E+003  0.2050835E+02  0.7546771E-02  0.1526401E+00
          2   -1    0    0  502    0  0.00000000000E+00  0.00000000000E+00  0.69012262697E+03  0.69012262697E+03  0.00000000000E+00 0. -1.
          1   -1    0    0  501    0 -0.00000000000E+00 -0.00000000000E+00 -0.24214882539E+03  0.24214882539E+03  0.00000000000E+00 0.  1.
          2    1    1    2  501    0 -0.17534912236E+02  0.10635753268E+02  0.68953566671E+03  0.68984058163E+03  0.00000000000E+00 0. -1.
          1    1    1    2  502    0  0.17534912236E+02 -0.10635753268E+02 -0.24156186513E+03  0.24243087073E+03  0.00000000000E+00 0.  1.
</event>
<event>
 4    1  0.3927513E+003  0.2576594E+02  0.7546771E-02  0.1460414E+00
          2   -1    0    0  502    0  0.00000000000E+00  0.00000000000E+00  0.28946618955E+02  0.28946618955E+02  0.00000000000E+00 0. -1.
          1   -1    0    0  501    0 -0.00000000000E+00 -0.00000000000E+00 -0.48673512713E+03  0.48673512713E+03  0.00000000000E+00 0. -1.
          2    1    1    2  501    0  0.16353602588E+02 -0.19910888091E+02  0.22798644170E+02  0.34404388647E+02  0.00000000000E+00 0. -1.
          1    1    1    2  502    0 -0.16353602588E+02  0.19910888091E+02 -0.48058715235E+03  0.48127735744E+03  0.00000000000E+00 0. -1.
</event>
<event>
 4    1  0.3927513E+003  0.2775154E+02  0.7546771E-02  0.1440201E+00
          2   -1    0    0  502    0  0.00000000000E+00  0.00000000000E+00  0.42913157689E+03  0.42913157689E+03  0.00000000000E+00 0.  1.
          1   -1    0    0  501    0 -0.00000000000E+00 -0.00000000000E+00 -0.54473287773E+02  0.54473287773E+02  0.00000000000E+00 0.  1.
          2    1    1    2  501    0 -0.14563205641E+02 -0.23623317853E+02  0.42511502922E+03  0.42601987767E+03  0.00000000000E+00 0.  1.
          1    1    1    2  502    0  0.14563205641E+02  0.23623317853E+02 -0.50456740102E+02  0.57584986990E+02  0.00000000000E+00 0.  1.
</event>
<event>
 4    1  0.3927513E+003  0.2583152E+02  0.7546771E-02  0.1459712E+00
          2   -1    0    0  502    0  0.00000000000E+00  0.00000000000E+00  0.16526416602E+04  0.16526416602E+04  0.00000000000E+00 0.  1.
          1   -1    0    0  501    0 -0.00000000000E+00 -0.00000000000E+00 -0.15550171815E+02  0.15550171815E+02  0.00000000000E+00 0.  1.
          2    1    1    2  501    0  0.12897901620E+02  0.22381049376E+02  0.16417418519E+04  0.16419450586E+04  0.00000000000E+00 0.  1.
          1    1    1    2  502    0 -0.12897901620E+02 -0.22381049376E+02 -0.46503634443E+01  0.26246773469E+02  0.00000000000E+00 0.  1.
</event>
<event>
 4    1  0.3927513E+003  0.2220241E+02  0.7546771E-02  0.1502764E+00
          2   -1    0    0  502    0  0.00000000000E+00  0.00000000000E+00  0.13390127273E+04  0.13390127273E+04  0.00000000000E+00 0.  1.
          1   -1    0    0  501    0 -0.00000000000E+00 -0.00000000000E+00 -0.19165182704E+01  0.19165182704E+01  0.00000000000E+00 0.  1.
          2    1    1    2  501    0 -0.19559318533E+02  0.10506186227E+02  0.12711876567E+04  0.12713815342E+04  0.00000000000E+00 0.  1.
          1    1    1    2  502    0  0.19559318533E+02 -0.10506186227E+02  0.65908552344E+02  0.69547711411E+02  0.00000000000E+00 0.  1.
</event>
<event>
 4    1  0.3927513E+003  0.2969452E+02  0.7546771E-02  0.1422270E+00
          2   -1    0    0  502    0  0.00000000000E+00  0.00000000000E+00  0.62610740970E+01  0.62610740970E+01  0.00000000000E+00 0.  1.
          1   -1    0    0  501    0 -0.00000000000E+00 -0.00000000000E+00 -0.29327670818E+03  0.29327670818E+03  0.00000000000E+00 0. -1.
          2    1    1    2  501    0  0.20297425147E+01 -0.29625068833E+02 -0.35529171964E+02  0.46304282939E+02  0.00000000000E+00 0.  1.
          1    1    1    2  502    0 -0.20297425147E+01  0.29625068833E+02 -0.25148646212E+03  0.25323349934E+03  0.00000000000E+00 0. -1.
</event>
<event>
 4    1  0.3927513E+003  0.2784623E+02  0.7546771E-02  0.1439288E+00
          2   -1    0    0  502    0  0.00000000000E+00  0.00000000000E+00  0.14186829484E+04  0.14186829484E+04  0.00000000000E+00 0. -1.
          1   -1    0    0  501    0 -0.00000000000E+00 -0.00000000000E+00 -0.27321277690E+01  0.27321277690E+01  0.00000000000E+00 0. -1.
          2    1    1    2  501    0 -0.82830355635E+01  0.26585782948E+02  0.13436302451E+04  0.13439187654E+04  0.00000000000E+00 0. -1.
          1    1    1    2  502    0  0.82830355635E+01 -0.26585782948E+02  0.72320575569E+02  0.77496310775E+02  0.00000000000E+00 0. -1.
</event>
<event>
 4    1  0.3927513E+003  0.5476615E+02  0.7546771E-02  0.1278733E+00
          2   -1    0    0  502    0  0.00000000000E+00  0.00000000000E+00  0.41657964741E+02  0.41657964741E+02  0.00000000000E+00 0.  1.
          1   -1    0    0  501    0 -0.00000000000E+00 -0.00000000000E+00 -0.88357549364E+02  0.88357549364E+02  0.00000000000E+00 0.  1.
          2    1    1    2  501    0  0.17064463604E+02 -0.52039751274E+02  0.46217105165E+01  0.54960820944E+02  0.00000000000E+00 0.  1.
          1    1    1    2  502    0 -0.17064463604E+02  0.52039751274E+02 -0.51321295139E+02  0.75054693161E+02  0.00000000000E+00 0.  1.
</event>
<event>
 4    1  0.3927513E+003  0.2339169E+02  0.7546771E-02  0.1487637E+00
          2   -1    0    0  502    0  0.00000000000E+00  0.00000000000E+00  0.30786373124E+03  0.30786373124E+03  0.00000000000E+00 0. -1.
          1   -1    0    0  501    0 -0.00000000000E+00 -0.00000000000E+00 -0.20540181239E+02  0.20540181239E+02  0.00000000000E+00 0. -1.
          2    1    1    2  501    0  0.42809041481E-01  0.23391653699E+02  0.30059892620E+03  0.30150768768E+03  0.00000000000E+00 0. -1.
          1    1    1    2  502    0 -0.42809041481E-01 -0.23391653699E+02 -0.13275376199E+02  0.26896224802E+02  0.00000000000E+00 0. -1.
</event>
<event>
 4    1  0.3927513E+003  0.2752382E+02  0.7546771E-02  0.1442416E+00
          2   -1    0    0  502    0  0.00000000000E+00  0.00000000000E+00  0.24123874331E+02  0.24123874331E+02  0.00000000000E+00 0.  1.
          1   -1    0    0  501    0 -0.00000000000E+00 -0.00000000000E+00 -0.20524148654E+03  0.20524148654E+03  0.00000000000E+00 0. -1.
          2    1    1    2  501    0 -0.14022476247E+02  0.23683982317E+02  0.14986344957E+02  0.31339294722E+02  0.00000000000E+00 0.  1.
          1    1    1    2  502    0  0.14022476247E+02 -0.23683982317E+02 -0.19610395717E+03  0.19802606615E+03  0.00000000000E+00 0. -1.
</event>
<event>
 4    1  0.3927513E+003  0.2481449E+02  0.7546771E-02  0.1470889E+00
          2   -1    0    0  502    0  0.00000000000E+00  0.00000000000E+00  0.63864259380E+02  0.63864259380E+02  0.00000000000E+00 0. -1.
          1   -1    0    0  501    0 -0.00000000000E+00 -0.00000000000E+00 -0.13769684204E+02  0.13769684204E+02  0.00000000000E+00 0. -1.
          2    1    1    2  501    0  0.24803271281E+02  0.74611307249E+00  0.46300743762E+02  0.52531112913E+02  0.00000000000E+00 0. -1.
          1    1    1    2  502    0 -0.24803271281E+02 -0.74611307249E+00  0.37938314144E+01  0.25102830672E+02  0.00000000000E+00 0. -1.
</event>
<event>
 4    1  0.3927513E+003  0.5399007E+02  0.7546771E-02  0.1281742E+00
          2   -1    0    0  502    0  0.00000000000E+00  0.00000000000E+00  0.20983899497E+04  0.20983899497E+04  0.00000000000E+00 0.  1.
          1   -1    0    0  501    0 -0.00000000000E+00 -0.00000000000E+00 -0.19728378638E+02  0.19728378638E+02  0.00000000000E+00 0. -1.
          2    1    1    2  501    0 -0.31904785121E+02 -0.43554705959E+02  0.20604238908E+04  0.20611311306E+04  0.00000000000E+00 0.  1.
          1    1    1    2  502    0  0.31904785121E+02  0.43554705959E+02  0.18237680254E+02  0.56987197736E+02  0.00000000000E+00 0. -1.
</event>
<event>
 4    1  0.3927513E+003  0.2254626E+02  0.7546771E-02  0.1498276E+00
          2   -1    0    0  502    0  0.00000000000E+00  0.00000000000E+00  0.24883462274E+03  0.24883462274E+03  0.00000000000E+00 0. -1.
          1   -1    0    0  501    0 -0.00000000000E+00 -0.00000000000E+00 -0.60268146934E+01  0.60268146934E+01  0.00000000000E+00 0.  1.
          2    1    1    2  501    0  0.17169104940E+02  0.14613541906E+02  0.22501052837E+03  0.22613728496E+03  0.00000000000E+00 0. -1.
          1    1    1    2  502    0 -0.17169104940E+02 -0.14613541906E+02  0.17797279679E+02  0.28724152476E+02  0.00000000000E+00 0.  1.
</event>
<event>
 4    1  0.3927513E+003  0.2135736E+02  0.7546771E-02  0.1514223E+00
          2   -1    0    0  502    0  0.00000000000E+00  0.00000000000E+00  0.38207591063E+03  0.38207591063E+03  0.00000000000E+00 0. -1.
          1   -1    0    0  501    0 -0.00000000000E+00 -0.00000000000E+00 -0.13485630505E+04  0.13485630505E+04  0.00000000000E+00 0. -1.
          2    1    1    2  501    0  0.16968270668E+02 -0.12969753116E+02  0.38169280658E+03  0.38228985770E+03  0.00000000000E+00 0. -1.
          1    1    1    2  502    0 -0.16968270668E+02  0.12969753116E+02 -0.13481799465E+04  0.13483491034E+04  0.00000000000E+00 0. -1.
</event>
<event>
 4    1  0.3927513E+003  0.3111081E+02  0.7546771E-02  0.1410183E+00
          2   -1    0    0  502    0  0.00000000000E+00  0.00000000000E+00  0.86561644463E+03  0.86561644463E+03  0.00000000000E+00 0. -1.
          1   -1    0    0  501    0 -0.00000000000E+00 -0.00000000000E+00 -0.10181587216E+03  0.10181587216E+03  0.00000000000E+00 0.  1.
          2    1    1    2  501    0  0.31036007639E+02  0.21560753402E+01  0.86295302547E+03  0.86351364008E+03  0.00000000000E+00 0. -1.
          1    1    1    2  502    0 -0.31036007639E+02 -0.21560753402E+01 -0.99152453003E+02  0.10391867670E+03  0.00000000000E+00 0.  1.
</event>
<event>
 4    1  0.3927513E+003  0.2098243E+02  0.7546771E-02  0.1519516E+00
          2   -1    0    0  502    0  0.00000000000E+00  0.00000000000E+00  0.43044778254E+02  0.43044778254E+02  0.00000000000E+00 0. -1.
          1   -1    0    0  501    0 -0.00000000000E+00 -0.00000000000E+00 -0.24607672258E+03  0.24607672258E+03  0.00000000000E+00 0.  1.
          2    1    1    2  501    0 -0.20981684995E+02  0.17644074493E+00  0.40008611502E+02  0.45176888239E+02  0.00000000000E+00 0. -1.
          1    1    1    2  502    0  0.20981684995E+02 -0.17644074493E+00 -0.24304055583E+03  0.24394461260E+03  0.00000000000E+00 0.  1.
</event>
<event>
 4    1  0.3927513E+003  0.2333295E+02  0.7546771E-02  0.1488359E+00
          2   -1    0    0  502    0  0.00000000000E+00  0.00000000000E+00  0.34768958291E+03  0.34768958291E+03  0.00000000000E+00 0. -1.
          1   -1    0    0  501    0 -0.00000000000E+00 -0.00000000000E+00 -0.25512174099E+01  0.25512174099E+01  0.00000000000E+00 0. -1.
          2    1    1    2  501    0 -0.20442302082E+02 -0.11248956339E+02  0.28140303579E+03  0.28236872221E+03  0.00000000000E+00 0. -1.
          1    1    1    2  502    0  0.20442302082E+02  0.11248956339E+02  0.63735329716E+02  0.67872078112E+02  0.00000000000E+00 0. -1.
</event>
<event>
 4    1  0.3927513E+003  0.2154661E+02  0.7546771E-02  0.1511602E+00
          2   -1    0    0  502    0  0.00000000000E+00  0.00000000000E+00  0.54277432362E+01  0.54277432362E+01  0.00000000000E+00 0. -1.
          1   -1    0    0  501    0 -0.00000000000E+00 -0.00000000000E+00 -0.49612216358E+03  0.49612216358E+03  0.00000000000E+00 0.  1.
          2    1    1    2  501    0 -0.42978691536E+01  0.21113618270E+02 -0.17211610811E+02  0.27577093800E+02  0.00000000000E+00 0. -1.
          1    1    1    2  502    0  0.42978691536E+01 -0.21113618270E+02 -0.47348280954E+03  0.47397281302E+03  0.00000000000E+00 0.  1.
</event>
<event>
 4    1  0.3927513E+003  0.2544845E+02  0.7546771E-02  0.1463849E+00
          2   -1    0    0  502    0  0.00000000000E+00  0.00000000000E+00  0.68871269145E+03  0.68871269145E+03  0.00000000000E+00 0. -1.
          1   -1    0    0  501    0 -0.00000000000E+00 -0.00000000000E+00 -0.25265976013E+03  0.25265976013E+03  0.00000000000E+00 0. -1.
          2    1    1    2  501    0 -0.25365669087E+02  0.20509843726E+01  0.68783598396E+03  0.68830659196E+03  0.00000000000E+00 0. -1.
          1    1    1    2  502    0  0.25365669087E+02 -0.20509843726E+01 -0.25178305265E+03  0.25306585962E+03  0.00000000000E+00 0. -1.
</event>
<event>
 4    1  0.3927513E+003  0.2009671E+02  0.7546771E-02  0.1532562E+00
          2   -1    0    0  502    0  0.00000000000E+00  0.00000000000E+00  0.22918396925E+03  0.22918396925E+03  0.00000000000E+00 0. -1.
          1   -1    0    0  501    0 -0.00000000000E+00 -0.00000000000E+00 -0.28547351593E+03  0.28547351593E+03  0.00000000000E+00 0.  1.
          2    1    1    2  501    0 -0.19507500600E+02 -0.48306673557E+01  0.22838848763E+03  0.22927097333E+03  0.00000000000E+00 0. -1.
          1    1    1    2  502    0  0.19507500600E+02  0.48306673557E+01 -0.28467803431E+03  0.28538651185E+03  0.00000000000E+00 0.  1.
</event>
<event>
 4    1  0.3927513E+003  0.2685876E+02  0.7546771E-02  0.1449032E+00
          2   -1    0    0  502    0  0.00000000000E+00  0.00000000000E+00  0.13620828492E+03  0.13620828492E+03  0.00000000000E+00 0.  1.
          1   -1    0    0  501    0 -0.00000000000E+00 -0.00000000000E+00 -0.48238933274E+03  0.48238933274E+03  0.00000000000E+00 0. -1.
          2    1    1    2  501    0 -0.25701866947E+02  0.77978817299E+01  0.13450567210E+03  0.13716110510E+03  0.00000000000E+00 0.  1.
          1    1    1    2  502    0  0.25701866947E+02 -0.77978817299E+01 -0.48068671992E+03  0.48143651256E+03  0.00000000000E+00 0. -1.
</event>
<event>
 4    1  0.3927513E+003  0.4356068E+02  0.7546771E-02  0.1328795E+00
          2   -1    0    0  502    0  0.00000000000E+00  0.00000000000E+00  0.22860282124E+03  0.22860282124E+03  0.00000000000E+00 0.  1.
          1   -1    0    0  501    0 -0.00000000000E+00 -0.00000000000E+00 -0.16094136383E+03  0.16094136383E+03  0.00000000000E+00 0. -1.
          2    1    1    2  501    0 -0.43560424260E+02  0.14847097137E+00  0.22351363989E+03  0.22771886137E+03  0.00000000000E+00 0.  1.
          1    1    1    2  502    0  0.43560424260E+02 -0.14847097137E+00 -0.15585218249E+03  0.16182532370E+03  0.00000000000E+00 0. -1.
</event>
<event>
 4    1  0.3927513E+003  0.3737406E+02  0.7546771E-02  0.1364601E+00
          2   -1    0    0  502    0  0.00000000000E+00  0.00000000000E+00  0.62261340535E+03  0.62261340535E+03  0.00000000000E+00 0. -1.
          1   -1    0    0  501    0 -0.00000000000E+00 -0.00000000000E+00 -0.10047261866E+02  0.10047261866E+02  0.00000000000E+00 0.  1.
          2    1    1    2  501    0 -0.34158972778E+02 -0.15165258189E+02  0.58506816631E+03  0.58626067556E+03  0.00000000000E+00 0. -1.
          1    1    1    2  502    0  0.34158972778E+02  0.15165258189E+02  0.27497977176E+02  0.46399991659E+02  0.00000000000E+00 0.  1.
</event>
<event>
 4    1  0.3927513E+003  0.2219957E+02  0.7546771E-02  0.1502801E+00
          2   -1    0    0  502    0  0.00000000000E+00  0.00000000000E+00  0.61549241992E+01  0.61549241992E+01  0.00000000000E+00 0. -1.
          1   -1    0    0  501    0 -0.00000000000E+00 -0.00000000000E+00 -0.45648808864E+03  0.45648808864E+03  0.00000000000E+00 0. -1.
          2    1    1    2  501    0 -0.21686401959E+02 -0.47456260160E+01 -0.15109714952E+02  0.26853761043E+02  0.00000000000E+00 0. -1.
          1    1    1    2  502    0  0.21686401959E+02  0.47456260160E+01 -0.43522344948E+03  0.43578925179E+03  0.00000000000E+00 0. -1.
</event>
<event>
 4    1  0.3927513E+003  0.2752507E+02  0.7546771E-02  0.1442404E+00
          2   -1    0    0  502    0  0.00000000000E+00  0.00000000000E+00  0.51471973915E+01  0.51471973915E+01  0.00000000000E+00 0. -1.
          1   -1    0    0  501    0 -0.00000000000E+00 -0.00000000000E+00 -0.35996140302E+03  0.35996140302E+03  0.00000000000E+00 0.  1.
          2    1    1    2  501    0 -0.26366011556E+02 -0.79033479018E+01 -0.37055281216E+02  0.46159758876E+02  0.00000000000E+00 0. -1.
          1    1    1    2  502    0  0.26366011556E+02  0.79033479018E+01 -0.31775892441E+03  0.31894884154E+03  0.00000000000E+00 0.  1.
</event>
<event>
 4    1  0.3927513E+003  0.2256702E+02  0.7546771E-02  0.1498008E+00
          2   -1    0    0  502    0  0.00000000000E+00  0.00000000000E+00  0.10691505445E+04  0.10691505445E+04  0.00000000000E+00 0.  1.
          1   -1    0    0  501    0 -0.00000000000E+00 -0.00000000000E+00 -0.92470299778E+01  0.92470299778E+01  0.00000000000E+00 0. -1.
          2    1    1    2  501    0 -0.19862234556E+02 -0.10712712306E+02  0.10550793674E+04  0.10553206821E+04  0.00000000000E+00 0.  1.
          1    1    1    2  502    0  0.19862234556E+02  0.10712712306E+02  0.48241471334E+01  0.23076892383E+02  0.00000000000E+00 0. -1.
</event>
<event>
 4    1  0.3927513E+003  0.2325342E+02  0.7546771E-02  0.1489340E+00
          2   -1    0    0  502    0  0.00000000000E+00  0.00000000000E+00  0.14553480929E+04  0.14553480929E+04  0.00000000000E+00 0. -1.
          1   -1    0    0  501    0 -0.00000000000E+00 -0.00000000000E+00 -0.43515411327E+01  0.43515411327E+01  0.00000000000E+00 0.  1.
          2    1    1    2  501    0  0.21557023411E+02 -0.87187246575E+01  0.14234951903E+04  0.14236851050E+04  0.00000000000E+00 0. -1.
          1    1    1    2  502    0 -0.21557023411E+02  0.87187246575E+01  0.27501361453E+02  0.36014529009E+02  0.00000000000E+00 0.  1.
</event>
<event>
 4    1  0.3927513E+003  0.3974330E+02  0.7546771E-02  0.1349997E+00
          2   -1    0    0  502    0  0.00000000000E+00  0.00000000000E+00  0.14286822154E+03  0.14286822154E+03  0.00000000000E+00 0. -1.
          1   -1    0    0  501    0 -0.00000000000E+00 -0.00000000000E+00 -0.43318868159E+02  0.43318868159E+02  0.00000000000E+00 0.  1.
          2    1    1    2  501    0 -0.34411843497E+02  0.19883527291E+02  0.13011498862E+03  0.13604940240E+03  0.00000000000E+00 0. -1.
          1    1    1    2  502    0  0.34411843497E+02 -0.19883527291E+02 -0.30565635237E+02  0.50137687300E+02  0.00000000000E+00 0.  1.
</event>
<event>
 4    1  0.3927513E+003  0.2255622E+02  0.7546771E-02  0.1498147E+00
          2   -1    0    0  502    0  0.00000000000E+00  0.00000000000E+00  0.32270039002E+03  0.32270039002E+03  0.00000000000E+00 0. -1.
          1   -1    0    0  501    0 -0.00000000000E+00 -0.00000000000E+00 -0.71813047064E+01  0.71813047064E+01  0.00000000000E+00 0.  1.
          2    1    1    2  501    0 -0.19146281899E+02 -0.11924894517E+02  0.30347353490E+03  0.30431064655E+03  0.00000000000E+00 0. -1.
          1    1    1    2  502    0  0.19146281899E+02  0.11924894517E+02  0.12045550406E+02  0.25571048168E+02  0.00000000000E+00 0.  1.
</event>
<event>
 4    1  0.3927513E+003  0.2667743E+02  0.7546771E-02  0.1450876E+00
          2   -1    0    0  502    0  0.00000000000E+00  0.00000000000E+00  0.33686259510E+01  0.33686259510E+01  0.00000000000E+00 0. -1.
          1   -1    0    0  501    0 -0.00000000000E+00 -0.00000000000E+00 -0.23069873822E+03  0.23069873822E+03  0.00000000000E+00 0. -1.
          2    1    1    2  501    0 -0.23790110537E+02  0.12071283377E+02 -0.79700571223E+02  0.84046810142E+02  0.00000000000E+00 0. -1.
          1    1    1    2  502    0  0.23790110537E+02 -0.12071283377E+02 -0.14762954104E+03  0.15002055402E+03  0.00000000000E+00 0. -1.
</event>
<event>
 4    1  0.3927513E+003  0.3251391E+02  0.7546771E-02  0.1398937E+00
          2   -1    0    0  502    0  0.00000000000E+00  0.00000000000E+00  0.78799303779E+03  0.78799303779E+03  0.00000000000E+00 0.  1.
          1   -1    0    0  501    0 -0.00000000000E+00 -0.00000000000E+00 -0.26143805377E+02  0.26143805377E+02  0.00000000000E+00 0.  1.
          2    1    1    2  501    0  0.13598245278E+02 -0.29533748757E+02  0.77741106584E+03  0.77809068873E+03  0.00000000000E+00 0.  1.
          1    1    1    2  502    0 -0.13598245278E+02  0.29533748757E+02 -0.15561833428E+02  0.36046154440E+02  0.00000000000E+00 0.  1.
</event>
<event>
 4    1  0.3927513E+003  0.2310455E+02  0.7546771E-02  0.1491189E+00
          2   -1    0    0  502    0  0.00000000000E+00  0.00000000000E+00  0.14648604463E+02  0.14648604463E+02  0.00000000000E+00 0. -1.
          1   -1    0    0  501    0 -0.00000000000E+00 -0.00000000000E+00 -0.15598202641E+03  0.15598202641E+03  0.00000000000E+00 0.  1.
          2    1    1    2  501    0 -0.79768293335E+01 -0.21683878308E+02  0.40206129673E+01  0.23451774204E+02  0.00000000000E+00 0. -1.
          1    1    1    2  502    0  0.79768293335E+01  0.21683878308E+02 -0.14535403491E+03  0.14717885667E+03  0.00000000000E+00 0.  1.
</event>
<event>
 4    1  0.3927513E+003  0.2377315E+02  0.7546771E-02  0.1483011E+00
          2   -1    0    0  502    0  0.00000000000E+00  0.00000000000E+00  0.15972486366E+03  0.15972486366E+03  0.00000000000E+00 0.  1.
          1   -1    0    0  501    0 -0.00000000000E+00 -0.00000000000E+00 -0.69867506822E+01  0.69867506822E+01  0.00000000000E+00 0.  1.
          2    1    1    2  501    0 -0.14473975403E+01  0.23729050672E+02  0.13492985201E+03  0.13700813030E+03  0.00000000000E+00 0.  1.
          1    1    1    2  502    0  0.14473975403E+01 -0.23729050672E+02  0.17808260968E+02  0.29703484040E+02  0.00000000000E+00 0.  1.
</event>
<event>
 4    1  0.3927513E+003  0.2188821E+02  0.7546771E-02  0.1506952E+00
          2   -1    0    0  502    0  0.00000000000E+00  0.00000000000E+00  0.67315833957E+03  0.67315833957E+03  0.00000000000E+00 0.  1.
          1   -1    0    0  501    0 -0.00000000000E+00 -0.00000000000E+00 -0.80619518402E+00  0.80619518402E+00  0.00000000000E+00 0. -1.
          2    1    1    2  501    0  0.16164899329E+02 -0.14757702837E+02  0.45153945450E+03  0.45206965473E+03  0.00000000000E+00 0.  1.
          1    1    1    2  502    0 -0.16164899329E+02  0.14757702837E+02  0.22081268989E+03  0.22189488002E+03  0.00000000000E+00 0. -1.
</event>
<event>
 4    1  0.3927513E+003  0.2123598E+02  0.7546771E-02  0.1515922E+00
          2   -1    0    0  502    0  0.00000000000E+00  0.00000000000E+00  0.44744161664E+01  0.44744161664E+01  0.00000000000E+00 0. -1.
          1   -1    0    0  501    0 -0.00000000000E+00 -0.00000000000E+00 -0.53820751158E+03  0.53820751158E+03  0.00000000000E+00 0.  1.
          2    1    1    2  501    0  0.80484797714E+01 -0.19651683091E+02 -0.22247850771E+02  0.30756032560E+02  0.00000000000E+00 0. -1.
          1    1    1    2  502    0 -0.80484797714E+01  0.19651683091E+02 -0.51148524464E+03  0.51192589518E+03  0.00000000000E+00 0.  1.
</event>
<event>
 4    1  0.3927513E+003  0.6366852E+02  0.7546771E-02  0.1247853E+00
          2   -1    0    0  502    0  0.00000000000E+00  0.00000000000E+00  0.77798673135E+02  0.77798673135E+02  0.00000000000E+00 0.  1.
          1   -1    0    0  501    0 -0.00000000000E+00 -0.00000000000E+00 -0.15587822553E+03  0.15587822553E+03  0.00000000000E+00 0.  1.
          2    1    1    2  501    0 -0.21139094808E+02  0.60056801821E+02  0.56291680486E+02  0.84984904932E+02  0.00000000000E+00 0.  1.
          1    1    1    2  502    0  0.21139094808E+02 -0.60056801821E+02 -0.13437123288E+03  0.14869199373E+03  0.00000000000E+00 0.  1.
</event>
<event>
 4    1  0.3927513E+003  0.2105138E+02  0.7546771E-02  0.1518533E+00
          2   -1    0    0  502    0  0.00000000000E+00  0.00000000000E+00  0.68838677480E+01  0.68838677480E+01  0.00000000000E+00 0. -1.
          1   -1    0    0  501    0 -0.00000000000E+00 -0.00000000000E+00 -0.68301826422E+02  0.68301826422E+02  0.00000000000E+00 0.  1.
          2    1    1    2  501    0  0.17336989124E+02 -0.11941072940E+02 -0.21697043594E+02  0.30231144793E+02  0.00000000000E+00 0. -1.
          1    1    1    2  502    0 -0.17336989124E+02  0.11941072940E+02 -0.39720915081E+02  0.44954549377E+02  0.00000000000E+00 0.  1.
</event>
<event>
 4    1  0.3927513E+003  0.2398109E+02  0.7546771E-02  0.1480533E+00
          2   -1    0    0  502    0  0.00000000000E+00  0.00000000000E+00  0.52218963707E+03  0.52218963707E+03  0.00000000000E+00 0.  1.
          1   -1    0    0  501    0 -0.00000000000E+00 -0.00000000000E+00 -0.28195715275E+02  0.28195715275E+02  0.00000000000E+00 0.  1.
          2    1    1    2  501    0 -0.19958402358E+02  0.13294909466E+02  0.51676166631E+03  0.51731780582E+03  0.00000000000E+00 0.  1.
          1    1    1    2  502    0  0.19958402358E+02 -0.13294909466E+02 -0.22767744525E+02  0.33067546524E+02  0.00000000000E+00 0.  1.
</event>
<event>
 4    1  0.3927513E+003  0.2751784E+02  0.7546771E-02  0.1442475E+00
          2   -1    0    0  502    0  0.00000000000E+00  0.00000000000E+00  0.18812089292E+03  0.18812089292E+03  0.00000000000E+00 0. -1.
          1   -1    0    0  501    0 -0.00000000000E+00 -0.00000000000E+00 -0.10774065746E+02  0.10774065746E+02  0.00000000000E+00 0. -1.
          2    1    1    2  501    0 -0.18333750709E+02 -0.20520845671E+02  0.16738127534E+03  0.16962819004E+03  0.00000000000E+00 0. -1.
          1    1    1    2  502    0  0.18333750709E+02  0.20520845671E+02  0.99655518273E+01  0.29266768618E+02  0.00000000000E+00 0. -1.
</event>
<event>
 4    1  0.3927513E+003  0.2808398E+02  0.7546771E-02  0.1437013E+00
          2   -1    0    0  502    0  0.00000000000E+00  0.00000000000E+00  0.10680766135E+03  0.10680766135E+03  0.00000000000E+00 0. -1.
          1   -1    0    0  501    0 -0.00000000000E+00 -0.00000000000E+00 -0.20892794376E+02  0.20892794376E+02  0.00000000000E+00 0. -1.
          2    1    1    2  501    0  0.27874125134E+02  0.34268102435E+01  0.94298648768E+02  0.98391793560E+02  0.00000000000E+00 0. -1.
          1    1    1    2  502    0 -0.27874125134E+02 -0.34268102435E+01 -0.83837817980E+01  0.29308662161E+02  0.00000000000E+00 0. -1.
</event>
<event>
 4    1  0.3927513E+003  0.2148548E+02  0.7546771E-02  0.1512445E+00
          2   -1    0    0  502    0  0.00000000000E+00  0.00000000000E+00  0.21800768473E+01  0.21800768473E+01  0.00000000000E+00 0. -1.
          1   -1    0    0  501    0 -0.00000000000E+00 -0.00000000000E+00 -0.35438879931E+03  0.35438879931E+03  0.00000000000E+00 0. -1.
          2    1    1    2  501    0  0.18290750264E+02 -0.11272723705E+02 -0.62995645814E+02  0.66558825384E+02  0.00000000000E+00 0. -1.
          1    1    1    2  502    0 -0.18290750264E+02  0.11272723705E+02 -0.28921307665E+03  0.29001005077E+03  0.00000000000E+00 0. -1.
</event>
<event>
 4    1  0.3927513E+003  0.2588922E+02  0.7546771E-02  0.1459097E+00
          2   -1    0    0  502    0  0.00000000000E+00  0.00000000000E+00  0.16274071085E+04  0.16274071085E+04  0.00000000000E+00 0. -1.
          1   -1    0    0  501    0 -0.00000000000E+00 -0.00000000000E+00 -0.42260706874E+00  0.42260706874E+00  0.00000000000E+00 0.  1.
          2    1    1    2  501    0 -0.12584038980E+02  0.22625071766E+02  0.94333100115E+03  0.94368619235E+03  0.00000000000E+00 0. -1.
          1    1    1    2  502    0  0.12584038980E+02 -0.22625071766E+02  0.68365350032E+03  0.68414352325E+03  0.00000000000E+00 0.  1.
</event>
<event>
 4    1  0.3927513E+003  0.4785073E+02  0.7546771E-02  0.1307770E+00
          2   -1    0    0  502    0  0.00000000000E+00  0.00000000000E+00  0.22149192218E+02  0.22149192218E+02  0.00000000000E+00 0.  1.
          1   -1    0    0  501    0 -0.00000000000E+00 -0.00000000000E+00 -0.69234136862E+03  0.69234136862E+03  0.00000000000E+00 0.  1.
          2    1    1    2  501    0  0.22062857711E+02 -0.42460833631E+02 -0.55992245069E+01  0.48177208285E+02  0.00000000000E+00 0.  1.
          1    1    1    2  502    0 -0.22062857711E+02  0.42460833631E+02 -0.66459295189E+03  0.66631335255E+03  0.00000000000E+00 0.  1.
</event>
<event>
 4    1  0.3927513E+003  0.3215050E+02  0.7546771E-02  0.1401785E+00
          2   -1    0    0  502    0  0.00000000000E+00  0.00000000000E+00  0.10741608492E+01  0.10741608492E+01  0.00000000000E+00 0.  1.
          1   -1    0    0  501    0 -0.00000000000E+00 -0.00000000000E+00 -0.12051037047E+04  0.12051037047E+04  0.00000000000E+00 0.  1.
          2    1    1    2  501    0  0.13026733529E+02 -0.29393172897E+02 -0.33130395095E+03  0.33286027446E+03  0.00000000000E+00 0.  1.
          1    1    1    2  502    0 -0.13026733529E+02  0.29393172897E+02 -0.87272559286E+03  0.87331759104E+03  0.00000000000E+00 0.  1.
</event>
<event>
 4    1  0.3927513E+003  0.4327692E+02  0.7546771E-02  0.1330284E+00
          2   -1    0    0  502    0  0.00000000000E+00  0.00000000000E+00  0.30248282926E+04  0.30248282926E+04  0.00000000000E+00 0. -1.
          1   -1    0    0  501    0 -0.00000000000E+00 -0.00000000000E+00 -0.99662795655E+00  0.99662795655E+00  0.00000000000E+00 0.  1.
          2    1    1    2  501    0 -0.81491143326E+01 -0.42502747344E+02  0.24429806405E+04  0.24433639314E+04  0.00000000000E+00 0. -1.
          1    1    1    2  502    0  0.81491143326E+01  0.42502747344E+02  0.58085102419E+03  0.58246098917E+03  0.00000000000E+00 0.  1.
</event>
<event>
 4    1  0.3927513E+003  0.2687260E+02  0.7546771E-02  0.1448892E+00
          2   -1    0    0  502    0  0.00000000000E+00  0.00000000000E+00  0.45589220350E+03  0.45589220350E+03  0.00000000000E+00 0. -1.
          1   -1    0    0  501    0 -0.00000000000E+00 -0.00000000000E+00 -0.13395932567E+02  0.13395932567E+02  0.00000000000E+00 0.  1.
          2    1    1    2  501    0 -0.56996621856E+01 -0.26261201750E+02  0.44158310850E+03  0.44240002099E+03  0.00000000000E+00 0. -1.
          1    1    1    2  502    0  0.56996621856E+01  0.26261201750E+02  0.91316243253E+00  0.26888115069E+02  0.00000000000E+00 0.  1.
</event>
<event>
 4    1  0.3927513E+003  0.2023542E+02  0.7546771E-02  0.1530467E+00
          2   -1    0    0  502    0  0.00000000000E+00  0.00000000000E+00  0.77568120802E+03  0.77568120802E+03  0.00000000000E+00 0. -1.
          1   -1    0    0  501    0 -0.00000000000E+00 -0.00000000000E+00 -0.89920412632E+00  0.89920412632E+00  0.00000000000E+00 0. -1.
          2    1    1    2  501    0 -0.13543140269E+02  0.15035139971E+02  0.63690777124E+03  0.63722914336E+03  0.00000000000E+00 0. -1.
          1    1    1    2  502    0  0.13543140269E+02 -0.15035139971E+02  0.13787423265E+03  0.13935126878E+03  0.00000000000E+00 0. -1.
</event>
<event>
 4    1  0.3927513E+003  0.2910394E+02  0.7546771E-02  0.1427546E+00
          2   -1    0    0  502    0  0.00000000000E+00  0.00000000000E+00  0.34461878267E+02  0.34461878267E+02  0.00000000000E+00 0. -1.
          1   -1    0    0  501    0 -0.00000000000E+00 -0.00000000000E+00 -0.77030241934E+03  0.77030241934E+03  0.00000000000E+00 0. -1.
          2    1    1    2  501    0  0.26736474504E+02 -0.11497826579E+02  0.27990175617E+02  0.40379314209E+02  0.00000000000E+00 0. -1.
          1    1    1    2  502    0 -0.26736474504E+02  0.11497826579E+02 -0.76383071669E+03  0.76438498340E+03  0.00000000000E+00 0. -1.
</event>
<event>
 4    1  0.3927513E+003  0.2516145E+02  0.7546771E-02  0.1467005E+00
          2   -1    0    0  502    0  0.00000000000E+00  0.00000000000E+00  0.43528763248E+03  0.43528763248E+03  0.00000000000E+00 0. -1.
          1   -1    0    0  501    0 -0.00000000000E+00 -0.00000000000E+00 -0.55432704897E+03  0.55432704897E+03  0.00000000000E+00 0. -1.
          2    1    1    2  501    0  0.20898696702E+02  0.14012253042E+02  0.43463807086E+03  0.43536576737E+03  0.00000000000E+00 0. -1.
          1    1    1    2  502    0 -0.20898696702E+02 -0.14012253042E+02 -0.55367748735E+03  0.55424891408E+03  0.00000000000E+00 0. -1.
</event>
<event>
 4    1  0.3927513E+003  0.2314506E+02  0.7546771E-02  0.1490685E+00
          2   -1    0    0  502    0  0.00000000000E+00  0.00000000000E+00  0.10699673613E+03  0.10699673613E+03  0.00000000000E+00 0. -1.
          1   -1    0    0  501    0 -0.00000000000E+00 -0.00000000000E+00 -0.61664282163E+01  0.61664282163E+01  0.00000000000E+00 0.  1.
          2    1    1    2  501    0  0.20948071748E+01 -0.23050066846E+02  0.74953663968E+02  0.78445812769E+02  0.00000000000E+00 0. -1.
          1    1    1    2  502    0 -0.20948071748E+01  0.23050066846E+02  0.25876643949E+02  0.34717351581E+02  0.00000000000E+00 0.  1.
</event>
<event>
 4    1  0.3927513E+003  0.2236572E+02  0.7546771E-02  0.1500620E+00
          2   -1    0    0  502    0  0.00000000000E+00  0.00000000000E+00  0.13415707972E+04  0.13415707972E+04  0.00000000000E+00 0.  1.
          1   -1    0    0  501    0 -0.00000000000E+00 -0.00000000000E+00 -0.71410897984E+01  0.71410897984E+01  0.00000000000E+00 0.  1.
          2    1    1    2  501    0  0.22161892958E+02 -0.30125943256E+01  0.13237293493E+04  0.13239182812E+04  0.00000000000E+00 0.  1.
          1    1    1    2  502    0 -0.22161892958E+02  0.30125943256E+01  0.10700358153E+02  0.24793605802E+02  0.00000000000E+00 0.  1.
</event>
<event>
 4    1  0.3927513E+003  0.2537463E+02  0.7546771E-02  0.1464656E+00
          2   -1    0    0  502    0  0.00000000000E+00  0.00000000000E+00  0.41926632962E+03  0.41926632962E+03  0.00000000000E+00 0.  1.
          1   -1    0    0  501    0 -0.00000000000E+00 -0.00000000000E+00 -0.43894872109E+01  0.43894872109E+01  0.00000000000E+00 0.  1.
          2    1    1    2  501    0  0.21592510200E+02  0.13327990286E+02  0.37823778847E+03  0.37908797982E+03  0.00000000000E+00 0.  1.
          1    1    1    2  502    0 -0.21592510200E+02 -0.13327990286E+02  0.36639053941E+02  0.44567837007E+02  0.00000000000E+00 0.  1.
</event>
<event>
 4    1  0.3927513E+003  0.2809576E+02  0.7546771E-02  0.1436901E+00
          2   -1    0    0  502    0  0.00000000000E+00  0.00000000000E+00  0.80028792953E+00  0.80028792953E+00  0.00000000000E+00 0. -1.
          1   -1    0    0  501    0 -0.00000000000E+00 -0.00000000000E+00 -0.99793751414E+03  0.99793751414E+03  0.00000000000E+00 0.  1.
          2    1    1    2  501    0 -0.27072927389E+02 -0.75118974115E+01 -0.44478158787E+03  0.44566807481E+03  0.00000000000E+00 0. -1.
          1    1    1    2  502    0  0.27072927389E+02  0.75118974115E+01 -0.55235563834E+03  0.55306972725E+03  0.00000000000E+00 0.  1.
</event>
<event>
 4    1  0.3927513E+003  0.3177897E+02  0.7546771E-02  0.1404742E+00
          2   -1    0    0  502    0  0.00000000000E+00  0.00000000000E+00  0.41494113601E+03  0.41494113601E+03  0.00000000000E+00 0. -1.
          1   -1    0    0  501    0 -0.00000000000E+00 -0.00000000000E+00 -0.66913963385E+02  0.66913963385E+02  0.00000000000E+00 0.  1.
          2    1    1    2  501    0  0.14724752486E+02 -0.28161755629E+02  0.41051895100E+03  0.41174714564E+03  0.00000000000E+00 0. -1.
          1    1    1    2  502    0 -0.14724752486E+02  0.28161755629E+02 -0.62491778370E+02  0.70107953755E+02  0.00000000000E+00 0.  1.
</event>
<event>
 4    1  0.3927513E+003  0.3992837E+02  0.7546771E-02  0.1348906E+00
          2   -1    0    0  502    0  0.00000000000E+00  0.00000000000E+00  0.13969988144E+03  0.13969988144E+03  0.00000000000E+00 0.  1.
          1   -1    0    0  501    0 -0.00000000000E+00 -0.00000000000E+00 -0.14297009202E+03  0.14297009202E+03  0.00000000000E+00 0.  1.
          2    1    1    2  501    0 -0.39475028812E+02  0.59997209858E+01  0.13394177516E+03  0.13976649701E+03  0.00000000000E+00 0.  1.
          1    1    1    2  502    0  0.39475028812E+02 -0.59997209858E+01 -0.13721198574E+03  0.14290347645E+03  0.00000000000E+00 0.  1.
</event>
<event>
 4    1  0.3927513E+003  0.2088613E+02  0.7546771E-02  0.1520897E+00
          2   -1    0    0  502    0  0.00000000000E+00  0.00000000000E+00  0.14176300779E+01  0.14176300779E+01  0.00000000000E+00 0. -1.
          1   -1    0    0  501    0 -0.00000000000E+00 -0.00000000000E+00 -0.74973172005E+03  0.74973172005E+03  0.00000000000E+00 0. -1.
          2    1    1    2  501    0  0.19804235623E+02  0.66349508098E+01 -0.85779644617E+02  0.88285773212E+02  0.00000000000E+00 0. -1.
          1    1    1    2  502    0 -0.19804235623E+02 -0.66349508098E+01 -0.66253444535E+03  0.66286357691E+03  0.00000000000E+00 0. -1.
</event>
<event>
 4    1  0.3927513E+003  0.2586094E+02  0.7546771E-02  0.1459398E+00
          2   -1    0    0  502    0  0.00000000000E+00  0.00000000000E+00  0.14579323407E+03  0.14579323407E+03  0.00000000000E+00 0. -1.
          1   -1    0    0  501    0 -0.00000000000E+00 -0.00000000000E+00 -0.79848468860E+02  0.79848468860E+02  0.00000000000E+00 0.  1.
          2    1    1    2  501    0 -0.21675467342E+02 -0.14105409935E+02  0.14250456246E+03  0.14483210555E+03  0.00000000000E+00 0. -1.
          1    1    1    2  502    0  0.21675467342E+02  0.14105409935E+02 -0.76559797254E+02  0.80809597385E+02  0.00000000000E+00 0.  1.
</event>
<event>
 4    1  0.3927513E+003  0.2582218E+02  0.7546771E-02  0.1459812E+00
          2   -1    0    0  502    0  0.00000000000E+00  0.00000000000E+00  0.18774088397E+04  0.18774088397E+04  0.00000000000E+00 0.  1.
          1   -1    0    0  501    0 -0.00000000000E+00 -0.00000000000E+00 -0.56660655654E+00  0.56660655654E+00  0.00000000000E+00 0. -1.
          2    1    1    2  501    0  0.16416083328E+02 -0.19932310119E+02  0.15120316227E+04  0.15122520996E+04  0.00000000000E+00 0.  1.
          1    1    1    2  502    0 -0.16416083328E+02  0.19932310119E+02  0.36481061047E+03  0.36572334666E+03  0.00000000000E+00 0. -1.
</event>
<event>
 4    1  0.3927513E+003  0.4635217E+02  0.7546771E-02  0.1314813E+00
          2   -1    0    0  502    0  0.00000000000E+00  0.00000000000E+00  0.20853865073E+04  0.20853865073E+04  0.00000000000E+00 0.  1.
          1   -1    0    0  501    0 -0.00000000000E+00 -0.00000000000E+00 -0.18882833255E+02  0.18882833255E+02  0.00000000000E+00 0. -1.
          2    1    1    2  501    0  0.32239427411E+02 -0.33303799287E+02  0.20562808955E+04  0.20568032587E+04  0.00000000000E+00 0.  1.
          1    1    1    2  502    0 -0.32239427411E+02  0.33303799287E+02  0.10222778540E+02  0.47466081867E+02  0.00000000000E+00 0. -1.
</event>
<event>
 4    1  0.3927513E+003  0.4086293E+02  0.7546771E-02  0.1343502E+00
          2   -1    0    0  502    0  0.00000000000E+00  0.00000000000E+00  0.33502340811E+01  0.33502340811E+01  0.00000000000E+00 0. -1.
          1   -1    0    0  501    0 -0.00000000000E+00 -0.00000000000E+00 -0.56228341136E+03  0.56228341136E+03  0.00000000000E+00 0. -1.
          2    1    1    2  501    0 -0.14485711899E+02  0.38209202255E+02 -0.18414330241E+03  0.18862273142E+03  0.00000000000E+00 0. -1.
          1    1    1    2  502    0  0.14485711899E+02 -0.38209202255E+02 -0.37478987486E+03  0.37701091401E+03  0.00000000000E+00 0. -1.
</event>
<event>
 4    1  0.3927513E+003  0.2067323E+02  0.7546771E-02  0.1523982E+00
          2   -1    0    0  502    0  0.00000000000E+00  0.00000000000E+00  0.66074083915E+03  0.66074083915E+03  0.00000000000E+00 0. -1.
          1   -1    0    0  501    0 -0.00000000000E+00 -0.00000000000E+00 -0.37430684622E+01  0.37430684622E+01  0.00000000000E+00 0. -1.
          2    1    1    2  501    0  0.13295644162E+02 -0.15830614452E+02  0.63067369964E+03  0.63101243881E+03  0.00000000000E+00 0. -1.
          1    1    1    2  502    0 -0.13295644162E+02  0.15830614452E+02  0.26324071045E+02  0.33471468806E+02  0.00000000000E+00 0. -1.
</event>
<event>
 4    1  0.3927513E+003  0.2220386E+02  0.7546771E-02  0.1502745E+00
          2   -1    0    0  502    0  0.00000000000E+00  0.00000000000E+00  0.45215038323E+01  0.45215038323E+01  0.00000000000E+00 0.  1.
          1   -1    0    0  501    0 -0.00000000000E+00 -0.00000000000E+00 -0.14424091796E+04  0.14424091796E+04  0.00000000000E+00 0.  1.
          2    1    1    2  501    0 -0.84586315685E+01 -0.20529568245E+02 -0.23360497363E+02  0.32229248477E+02  0.00000000000E+00 0.  1.
          1    1    1    2  502    0  0.84586315685E+01  0.20529568245E+02 -0.14145271784E+04  0.14147014349E+04  0.00000000000E+00 0.  1.
</event>
<event>
 4    1  0.3927513E+003  0.2051781E+02  0.7546771E-02  0.1526262E+00
          2   -1    0    0  502    0  0.00000000000E+00  0.00000000000E+00  0.11701962717E+04  0.11701962717E+04  0.00000000000E+00 0.  1.
          1   -1    0    0  501    0 -0.00000000000E+00 -0.00000000000E+00 -0.46798936491E+00  0.46798936491E+00  0.00000000000E+00 0.  1.
          2    1    1    2  501    0  0.14776794232E+02  0.14234707914E+02  0.86636050713E+03  0.86660343230E+03  0.00000000000E+00 0.  1.
          1    1    1    2  502    0 -0.14776794232E+02 -0.14234707914E+02  0.30336777520E+03  0.30406082876E+03  0.00000000000E+00 0.  1.
</event>
<event>
 4    1  0.3927513E+003  0.3504036E+02  0.7546771E-02  0.1380280E+00
          2   -1    0    0  502    0  0.00000000000E+00  0.00000000000E+00  0.51467922401E+02  0.51467922401E+02  0.00000000000E+00 0.  1.
          1   -1    0    0  501    0 -0.00000000000E+00 -0.00000000000E+00 -0.25464207145E+03  0.25464207145E+03  0.00000000000E+00 0. -1.
          2    1    1    2  501    0  0.21547629948E+02 -0.27631977700E+02  0.44122163978E+02  0.56343516948E+02  0.00000000000E+00 0.  1.
          1    1    1    2  502    0 -0.21547629948E+02  0.27631977700E+02 -0.24729631303E+03  0.24976647690E+03  0.00000000000E+00 0. -1.
</event>
<event>
 4    1  0.3927513E+003  0.2513924E+02  0.7546771E-02  0.1467252E+00
          2   -1    0    0  502    0  0.00000000000E+00  0.00000000000E+00  0.35706013066E+01  0.35706013066E+01  0.00000000000E+00 0.  1.
          1   -1    0    0  501    0 -0.00000000000E+00 -0.00000000000E+00 -0.10539705439E+04  0.10539705439E+04  0.00000000000E+00 0. -1.
          2    1    1    2  501    0 -0.14935573235E+00 -0.25138793157E+02 -0.42867391115E+02  0.49695014333E+02  0.00000000000E+00 0.  1.
          1    1    1    2  502    0  0.14935573235E+00  0.25138793157E+02 -0.10075325514E+04  0.10078461308E+04  0.00000000000E+00 0. -1.
</event>
<event>
 4    1  0.3927513E+003  0.2554626E+02  0.7546771E-02  0.1462784E+00
          2   -1    0    0  502    0  0.00000000000E+00  0.00000000000E+00  0.66144620817E+03  0.66144620817E+03  0.00000000000E+00 0.  1.
          1   -1    0    0  501    0 -0.00000000000E+00 -0.00000000000E+00 -0.12713248709E+03  0.12713248709E+03  0.00000000000E+00 0.  1.
          2    1    1    2  501    0 -0.24226802916E+02 -0.81039284140E+01  0.65991323744E+03  0.66040752008E+03  0.00000000000E+00 0.  1.
          1    1    1    2  502    0  0.24226802916E+02  0.81039284140E+01 -0.12559951636E+03  0.12817117518E+03  0.00000000000E+00 0.  1.
</event>
<event>
 4    1  0.3927513E+003  0.2101812E+02  0.7546771E-02  0.1519006E+00
          2   -1    0    0  502    0  0.00000000000E+00  0.00000000000E+00  0.56579698597E+02  0.56579698597E+02  0.00000000000E+00 0. -1.
          1   -1    0    0  501    0 -0.00000000000E+00 -0.00000000000E+00 -0.12941037391E+03  0.12941037391E+03  0.00000000000E+00 0.  1.
          2    1    1    2  501    0 -0.92579234691E+01 -0.18869349961E+02  0.53730701991E+02  0.57695319146E+02  0.00000000000E+00 0. -1.
          1    1    1    2  502    0  0.92579234691E+01  0.18869349961E+02 -0.12656137731E+03  0.12829475336E+03  0.00000000000E+00 0.  1.
</event>
<event>
 4    1  0.3927513E+003  0.2095197E+02  0.7546771E-02  0.1519952E+00
          2   -1    0    0  502    0  0.00000000000E+00  0.00000000000E+00  0.62881734448E+02  0.62881734448E+02  0.00000000000E+00 0.  1.
          1   -1    0    0  501    0 -0.00000000000E+00 -0.00000000000E+00 -0.10774084457E+04  0.10774084457E+04  0.00000000000E+00 0. -1.
          2    1    1    2  501    0  0.12940328251E+02  0.16478259031E+02  0.61031590478E+02  0.64527824636E+02  0.00000000000E+00 0.  1.
          1    1    1    2  502    0 -0.12940328251E+02 -0.16478259031E+02 -0.10755583017E+04  0.10757623555E+04  0.00000000000E+00 0. -1.
</event>
<event>
 4    1  0.3927513E+003  0.2920083E+02  0.7546771E-02  0.1426671E+00
          2   -1    0    0  502    0  0.00000000000E+00  0.00000000000E+00  0.65023422656E+03  0.65023422656E+03  0.00000000000E+00 0. -1.
          1   -1    0    0  501    0 -0.00000000000E+00 -0.00000000000E+00 -0.16097352356E+02  0.16097352356E+02  0.00000000000E+00 0.  1.
          2    1    1    2  501    0  0.11704591522E+02  0.26752396862E+02  0.63637546724E+03  0.63704507180E+03  0.00000000000E+00 0. -1.
          1    1    1    2  502    0 -0.11704591522E+02 -0.26752396862E+02 -0.22385930312E+01  0.29286507120E+02  0.00000000000E+00 0.  1.
</event>
<event>
 4    1  0.3927513E+003  0.2703392E+02  0.7546771E-02  0.1447268E+00
          2   -1    0    0  502    0  0.00000000000E+00  0.00000000000E+00  0.13344095931E+04  0.13344095931E+04  0.00000000000E+00 0. -1.
          1   -1    0    0  501    0 -0.00000000000E+00 -0.00000000000E+00 -0.34379630486E+01  0.34379630486E+01  0.00000000000E+00 0.  1.
          2    1    1    2  501    0 -0.26923623490E+02  0.24395151354E+01  0.12788183943E+04  0.12791041077E+04  0.00000000000E+00 0. -1.
          1    1    1    2  502    0  0.26923623490E+02 -0.24395151354E+01  0.52153235726E+02  0.58743448423E+02  0.00000000000E+00 0.  1.
</event>
<event>
 4    1  0.3927513E+003  0.3834159E+02  0.7546771E-02  0.1358488E+00
          2   -1    0    0  502    0  0.00000000000E+00  0.00000000000E+00  0.55459212528E+01  0.55459212528E+01  0.00000000000E+00 0.  1.
          1   -1    0    0  501    0 -0.00000000000E+00 -0.00000000000E+00 -0.74941998312E+03  0.74941998312E+03  0.00000000000E+00 0.  1.
          2    1    1    2  501    0 -0.37276682650E+02  0.89736710705E+01 -0.68469175297E+02  0.78473599431E+02  0.00000000000E+00 0.  1.
          1    1    1    2  502    0  0.37276682650E+02 -0.89736710705E+01 -0.67540488657E+03  0.67649230494E+03  0.00000000000E+00 0.  1.
</event>
<event>
 4    1  0.3927513E+003  0.2100882E+02  0.7546771E-02  0.1519139E+00
          2   -1    0    0  502    0  0.00000000000E+00  0.00000000000E+00  0.15746267110E+02  0.15746267110E+02  0.00000000000E+00 0.  1.
          1   -1    0    0  501    0 -0.00000000000E+00 -0.00000000000E+00 -0.79737540405E+02  0.79737540405E+02  0.00000000000E+00 0.  1.
          2    1    1    2  501    0 -0.14719579623E+02 -0.14990148893E+02  0.64497762600E+01  0.21976583036E+02  0.00000000000E+00 0.  1.
          1    1    1    2  502    0  0.14719579623E+02  0.14990148893E+02 -0.70441049555E+02  0.73507224479E+02  0.00000000000E+00 0.  1.
</event>
<event>
 4    1  0.3927513E+003  0.2082930E+02  0.7546771E-02  0.1521716E+00
          2   -1    0    0  502    0  0.00000000000E+00  0.00000000000E+00  0.13387738962E+04  0.13387738962E+04  0.00000000000E+00 0.  1.
          1   -1    0    0  501    0 -0.00000000000E+00 -0.00000000000E+00 -0.55188763060E+01  0.55188763060E+01  0.00000000000E+00 0. -1.
          2    1    1    2  501    0 -0.16667255845E+02  0.12492492558E+02  0.13187408933E+04  0.13189053808E+04  0.00000000000E+00 0.  1.
          1    1    1    2  502    0  0.16667255845E+02 -0.12492492558E+02  0.14514126587E+02  0.25387391719E+02  0.00000000000E+00 0. -1.
</event>
<event>
 4    1  0.3927513E+003  0.4492451E+02  0.7546771E-02  0.1321817E+00
          2   -1    0    0  502    0  0.00000000000E+00  0.00000000000E+00  0.69127780733E+03  0.69127780733E+03  0.00000000000E+00 0.  1.
          1   -1    0    0  501    0 -0.00000000000E+00 -0.00000000000E+00 -0.32293972585E+01  0.32293972585E+01  0.00000000000E+00 0.  1.
          2    1    1    2  501    0  0.12040732821E+02 -0.43280849223E+02  0.45158869992E+03  0.45381776635E+03  0.00000000000E+00 0.  1.
          1    1    1    2  502    0 -0.12040732821E+02  0.43280849223E+02  0.23645971015E+03  0.24068943824E+03  0.00000000000E+00 0.  1.
</event>
<event>
 4    1  0.3927513E+003  0.2040423E+02  0.7546771E-02  0.1527943E+00
          2   -1    0    0  502    0  0.00000000000E+00  0.00000000000E+00  0.53145879814E+02  0.53145879814E+02  0.00000000000E+00 0.  1.
          1   -1    0    0  501    0 -0.00000000000E+00 -0.00000000000E+00 -0.20067396562E+03  0.20067396562E+03  0.00000000000E+00 0.  1.
          2    1    1    2  501    0 -0.12351140610E+02  0.16241359355E+02  0.50644111799E+02  0.54599986154E+02  0.00000000000E+00 0.  1.
          1    1    1    2  502    0  0.12351140610E+02 -0.16241359355E+02 -0.19817219760E+03  0.19921985928E+03  0.00000000000E+00 0.  1.
</event>
<event>
 4    1  0.3927513E+003  0.2789724E+02  0.7546771E-02  0.1438798E+00
          2   -1    0    0  502    0  0.00000000000E+00  0.00000000000E+00  0.21285293626E+03  0.21285293626E+03  0.00000000000E+00 0. -1.
          1   -1    0    0  501    0 -0.00000000000E+00 -0.00000000000E+00 -0.43964858512E+01  0.43964858512E+01  0.00000000000E+00 0. -1.
          2    1    1    2  501    0  0.19371800779E+02 -0.20074596502E+02  0.14879832087E+03  0.15139087285E+03  0.00000000000E+00 0. -1.
          1    1    1    2  502    0 -0.19371800779E+02  0.20074596502E+02  0.59658129546E+02  0.65858549263E+02  0.00000000000E+00 0. -1.
</event>
<event>
 4    1  0.3927513E+003  0.3936956E+02  0.7546771E-02  0.1352220E+00
          2   -1    0    0  502    0  0.00000000000E+00  0.00000000000E+00  0.16178063170E+02  0.16178063170E+02  0.00000000000E+00 0. -1.
          1   -1    0    0  501    0 -0.00000000000E+00 -0.00000000000E+00 -0.14635617229E+04  0.14635617229E+04  0.00000000000E+00 0.  1.
          2    1    1    2  501    0 -0.13738521112E+02 -0.36894653174E+02 -0.84481370964E+01  0.40265784676E+02  0.00000000000E+00 0. -1.
          1    1    1    2  502    0  0.13738521112E+02  0.36894653174E+02 -0.14389355227E+04  0.14394740014E+04  0.00000000000E+00 0.  1.
</event>
<event>
 4    1  0.3927513E+003  0.2167252E+02  0.7546771E-02  0.1509876E+00
          2   -1    0    0  502    0  0.00000000000E+00  0.00000000000E+00  0.12446650554E+04  0.12446650554E+04  0.00000000000E+00 0. -1.
          1   -1    0    0  501    0 -0.00000000000E+00 -0.00000000000E+00 -0.54167890920E+01  0.54167890920E+01  0.00000000000E+00 0.  1.
          2    1    1    2  501    0 -0.11619710331E+02  0.18294277764E+02  0.12224998087E+04  0.12226918993E+04  0.00000000000E+00 0. -1.
          1    1    1    2  502    0  0.11619710331E+02 -0.18294277764E+02  0.16748457609E+02  0.27389945224E+02  0.00000000000E+00 0.  1.
</event>
<event>
 4    1  0.3927513E+003  0.3071795E+02  0.7546771E-02  0.1413458E+00
          2   -1    0    0  502    0  0.00000000000E+00  0.00000000000E+00  0.28919696760E+03  0.28919696760E+03  0.00000000000E+00 0.  1.
          1   -1    0    0  501    0 -0.00000000000E+00 -0.00000000000E+00 -0.10832607212E+03  0.10832607212E+03  0.00000000000E+00 0. -1.
          2    1    1    2  501    0 -0.23983870647E+02  0.19192880672E+02  0.28618071304E+03  0.28782458761E+03  0.00000000000E+00 0.  1.
          1    1    1    2  502    0  0.23983870647E+02 -0.19192880672E+02 -0.10530981756E+03  0.10969845211E+03  0.00000000000E+00 0. -1.
</event>
<event>
 4    1  0.3927513E+003  0.2047961E+02  0.7546771E-02  0.1526826E+00
          2   -1    0    0  502    0  0.00000000000E+00  0.00000000000E+00  0.78460960650E+00  0.78460960650E+00  0.00000000000E+00 0. -1.
          1   -1    0    0  501    0 -0.00000000000E+00 -0.00000000000E+00 -0.12386920022E+04  0.12386920022E+04  0.00000000000E+00 0. -1.
          2    1    1    2  501    0  0.19588348021E+02  0.59758869077E+01 -0.15169628879E+03  0.15307246204E+03  0.00000000000E+00 0. -1.
          1    1    1    2  502    0 -0.19588348021E+02 -0.59758869077E+01 -0.10862111038E+04  0.10864041498E+04  0.00000000000E+00 0. -1.
</event>
<event>
 4    1  0.3927513E+003  0.2057307E+02  0.7546771E-02  0.1525448E+00
          2   -1    0    0  502    0  0.00000000000E+00  0.00000000000E+00  0.20501918769E+01  0.20501918769E+01  0.00000000000E+00 0. -1.
          1   -1    0    0  501    0 -0.00000000000E+00 -0.00000000000E+00 -0.33623886353E+03  0.33623886353E+03  0.00000000000E+00 0. -1.
          2    1    1    2  501    0  0.64720342897E+01 -0.19528542647E+02 -0.62004282417E+02  0.65328265274E+02  0.00000000000E+00 0. -1.
          1    1    1    2  502    0 -0.64720342897E+01  0.19528542647E+02 -0.27218438923E+03  0.27296079013E+03  0.00000000000E+00 0. -1.
</event>
<event>
 4    1  0.3927513E+003  0.2136346E+02  0.7546771E-02  0.1514138E+00
          2   -1    0    0  502    0  0.00000000000E+00  0.00000000000E+00  0.13176134115E+04  0.13176134115E+04  0.00000000000E+00 0.  1.
          1   -1    0    0  501    0 -0.00000000000E+00 -0.00000000000E+00 -0.26863426012E+01  0.26863426012E+01  0.00000000000E+00 0.  1.
          2    1    1    2  501    0  0.81084688044E+01 -0.19764870689E+02  0.12735847065E+04  0.12737638721E+04  0.00000000000E+00 0.  1.
          1    1    1    2  502    0 -0.81084688044E+01  0.19764870689E+02  0.41342362399E+02  0.46535881945E+02  0.00000000000E+00 0.  1.
</event>
<event>
 4    1  0.3927513E+003  0.4672645E+02  0.7546771E-02  0.1313025E+00
          2   -1    0    0  502    0  0.00000000000E+00  0.00000000000E+00  0.18688937498E+03  0.18688937498E+03  0.00000000000E+00 0.  1.
          1   -1    0    0  501    0 -0.00000000000E+00 -0.00000000000E+00 -0.54482811419E+02  0.54482811419E+02  0.00000000000E+00 0.  1.
          2    1    1    2  501    0  0.26761982649E+02  0.38303495916E+02  0.17317038179E+03  0.17936371608E+03  0.00000000000E+00 0.  1.
          1    1    1    2  502    0 -0.26761982649E+02 -0.38303495916E+02 -0.40763818233E+02  0.62008470322E+02  0.00000000000E+00 0.  1.
</event>
<event>
 4    1  0.3927513E+003  0.2783409E+02  0.7546771E-02  0.1439405E+00
          2   -1    0    0  502    0  0.00000000000E+00  0.00000000000E+00  0.21526878306E+02  0.21526878306E+02  0.00000000000E+00 0.  1.
          1   -1    0    0  501    0 -0.00000000000E+00 -0.00000000000E+00 -0.48912726787E+03  0.48912726787E+03  0.00000000000E+00 0. -1.
          2    1    1    2  501    0 -0.81001235700E+01  0.26629395535E+02  0.11954129622E+02  0.30292539072E+02  0.00000000000E+00 0.  1.
          1    1    1    2  502    0  0.81001235700E+01 -0.26629395535E+02 -0.47955451919E+03  0.48036160711E+03  0.00000000000E+00 0. -1.
</event>
<event>
 4    1  0.3927513E+003  0.2731124E+02  0.7546771E-02  0.1444506E+00
          2   -1    0    0  502    0  0.00000000000E+00  0.00000000000E+00  0.88416612766E+01  0.88416612766E+01  0.00000000000E+00 0.  1.
          1   -1    0    0  501    0 -0.00000000000E+00 -0.00000000000E+00 -0.11961779049E+04  0.11961779049E+04  0.00000000000E+00 0. -1.
          2    1    1    2  501    0  0.14522587130E+02  0.23130027281E+02 -0.12793263486E+02  0.30159099615E+02  0.00000000000E+00 0.  1.
          1    1    1    2  502    0 -0.14522587130E+02 -0.23130027281E+02 -0.11745429801E+04  0.11748604665E+04  0.00000000000E+00 0. -1.
</event>
<event>
 4    1  0.3927513E+003  0.2135419E+02  0.7546771E-02  0.1514268E+00
          2   -1    0    0  502    0  0.00000000000E+00  0.00000000000E+00  0.33029483986E+03  0.33029483986E+03  0.00000000000E+00 0. -1.
          1   -1    0    0  501    0 -0.00000000000E+00 -0.00000000000E+00 -0.18415183509E+01  0.18415183509E+01  0.00000000000E+00 0. -1.
          2    1    1    2  501    0 -0.17909395339E+02  0.11629926865E+02  0.24731025379E+03  0.24823046403E+03  0.00000000000E+00 0. -1.
          1    1    1    2  502    0  0.17909395339E+02 -0.11629926865E+02  0.81143067714E+02  0.83905894181E+02  0.00000000000E+00 0. -1.
</event>
<event>
 4    1  0.3927513E+003  0.2365282E+02  0.7546771E-02  0.1484459E+00
          2   -1    0    0  502    0  0.00000000000E+00  0.00000000000E+00  0.67077968668E+03  0.67077968668E+03  0.00000000000E+00 0.  1.
          1   -1    0    0  501    0 -0.00000000000E+00 -0.00000000000E+00 -0.50358920555E+03  0.50358920555E+03  0.00000000000E+00 0.  1.
          2    1    1    2  501    0 -0.23001141363E+02  0.55139222720E+01  0.67029324142E+03  0.67071043330E+03  0.00000000000E+00 0.  1.
          1    1    1    2  502    0  0.23001141363E+02 -0.55139222720E+01 -0.50310276029E+03  0.50365845893E+03  0.00000000000E+00 0.  1.
</event>
<event>
 4    1  0.3927513E+003  0.2067925E+02  0.7546771E-02  0.1523894E+00
          2   -1    0    0  502    0  0.00000000000E+00  0.00000000000E+00  0.10380457008E+02  0.10380457008E+02  0.00000000000E+00 0. -1.
          1   -1    0    0  501    0 -0.00000000000E+00 -0.00000000000E+00 -0.50995193508E+03  0.50995193508E+03  0.00000000000E+00 0. -1.
          2    1    1    2  501    0 -0.18725037491E+02 -0.87752095208E+01 -0.34940047534E+00  0.20682200363E+02  0.00000000000E+00 0. -1.
          1    1    1    2  502    0  0.18725037491E+02  0.87752095208E+01 -0.49922207760E+03  0.49965019173E+03  0.00000000000E+00 0. -1.
</event>
<event>
 4    1  0.3927513E+003  0.2632039E+02  0.7546771E-02  0.1454557E+00
          2   -1    0    0  502    0  0.00000000000E+00  0.00000000000E+00  0.62565864156E+03  0.62565864156E+03  0.00000000000E+00 0.  1.
          1   -1    0    0  501    0 -0.00000000000E+00 -0.00000000000E+00 -0.23129702120E+01  0.23129702120E+01  0.00000000000E+00 0.  1.
          2    1    1    2  501    0  0.24007818673E+02 -0.10788302038E+02  0.53837079359E+03  0.53901379779E+03  0.00000000000E+00 0.  1.
          1    1    1    2  502    0 -0.24007818673E+02  0.10788302038E+02  0.84974877757E+02  0.88957813980E+02  0.00000000000E+00 0.  1.
</event>
<event>
 4    1  0.3927513E+003  0.2734970E+02  0.7546771E-02  0.1444127E+00
          2   -1    0    0  502    0  0.00000000000E+00  0.00000000000E+00  0.21943468923E+03  0.21943468923E+03  0.00000000000E+00 0. -1.
          1   -1    0    0  501    0 -0.00000000000E+00 -0.00000000000E+00 -0.14494013155E+03  0.14494013155E+03  0.00000000000E+00 0.  1.
          2    1    1    2  501    0 -0.79251772242E+01  0.26176277999E+02  0.21727954763E+03  0.21899408162E+03  0.00000000000E+00 0. -1.
          1    1    1    2  502    0  0.79251772242E+01 -0.26176277999E+02 -0.14278498995E+03  0.14538073916E+03  0.00000000000E+00 0.  1.
</event>
<event>
 4    1  0.3927513E+003  0.3232164E+02  0.7546771E-02  0.1400439E+00
          2   -1    0    0  502    0  0.00000000000E+00  0.00000000000E+00  0.48434357178E+01  0.48434357178E+01  0.00000000000E+00 0. -1.
          1   -1    0    0  501    0 -0.00000000000E+00 -0.00000000000E+00 -0.38294737672E+03  0.38294737672E+03  0.00000000000E+00 0. -1.
          2    1    1    2  501    0 -0.22318230802E+01 -0.32244490580E+02 -0.60910829936E+02  0.68955184073E+02  0.00000000000E+00 0. -1.
          1    1    1    2  502    0  0.22318230802E+01  0.32244490580E+02 -0.31719311107E+03  0.31883562837E+03  0.00000000000E+00 0. -1.
</event>
<event>
 4    1  0.3927513E+003  0.2185475E+02  0.7546771E-02  0.1507403E+00
          2   -1    0    0  502    0  0.00000000000E+00  0.00000000000E+00  0.91733305456E+03  0.91733305456E+03  0.00000000000E+00 0.  1.
          1   -1    0    0  501    0 -0.00000000000E+00 -0.00000000000E+00 -0.70280599964E+00  0.70280599964E+00  0.00000000000E+00 0.  1.
          2    1    1    2  501    0 -0.14106524477E+02 -0.16692394009E+02  0.69198724176E+03  0.69233227052E+03  0.00000000000E+00 0.  1.
          1    1    1    2  502    0  0.14106524477E+02  0.16692394009E+02  0.22464300680E+03  0.22570359004E+03  0.00000000000E+00 0.  1.
</event>
<event>
 4    1  0.3927513E+003  0.2077306E+02  0.7546771E-02  0.1522530E+00
          2   -1    0    0  502    0  0.00000000000E+00  0.00000000000E+00  0.26720222401E+03  0.26720222401E+03  0.00000000000E+00 0.  1.
          1   -1    0    0  501    0 -0.00000000000E+00 -0.00000000000E+00 -0.26564581488E+02  0.26564581488E+02  0.00000000000E+00 0.  1.
          2    1    1    2  501    0  0.14040962085E+02  0.15309188355E+02  0.26266743771E+03  0.26348757598E+03  0.00000000000E+00 0.  1.
          1    1    1    2  502    0 -0.14040962085E+02 -0.15309188355E+02 -0.22029795184E+02  0.30279229518E+02  0.00000000000E+00 0.  1.
</event>
<event>
 4    1  0.3927513E+003  0.2387034E+02  0.7546771E-02  0.1481849E+00
          2   -1    0    0  502    0  0.00000000000E+00  0.00000000000E+00  0.39524814554E+02  0.39524814554E+02  0.00000000000E+00 0.  1.
          1   -1    0    0  501    0 -0.00000000000E+00 -0.00000000000E+00 -0.14550530893E+02  0.14550530893E+02  0.00000000000E+00 0.  1.
          2    1    1    2  501    0  0.52027079788E+01  0.23296447671E+02  0.98880494789E+01  0.25837301850E+02  0.00000000000E+00 0.  1.
          1    1    1    2  502    0 -0.52027079788E+01 -0.23296447671E+02  0.15086234183E+02  0.28238043597E+02  0.00000000000E+00 0.  1.
</event>
<event>
 4    1  0.3927513E+003  0.3258376E+02  0.7546771E-02  0.1398395E+00
          2   -1    0    0  502    0  0.00000000000E+00  0.00000000000E+00  0.52893222381E+03  0.52893222381E+03  0.00000000000E+00 0. -1.
          1   -1    0    0  501    0 -0.00000000000E+00 -0.00000000000E+00 -0.29347268441E+01  0.29347268441E+01  0.00000000000E+00 0. -1.
          2    1    1    2  501    0 -0.18767445603E+02 -0.26636146589E+02  0.41249825848E+03  0.41378317338E+03  0.00000000000E+00 0. -1.
          1    1    1    2  502    0  0.18767445603E+02  0.26636146589E+02  0.11349923849E+03  0.11808377728E+03  0.00000000000E+00 0. -1.
</event>
<event>
 4    1  0.3927513E+003  0.2029067E+02  0.7546771E-02  0.1529638E+00
          2   -1    0    0  502    0  0.00000000000E+00  0.00000000000E+00  0.40815383088E+02  0.40815383088E+02  0.00000000000E+00 0.  1.
          1   -1    0    0  501    0 -0.00000000000E+00 -0.00000000000E+00 -0.61439764638E+03  0.61439764638E+03  0.00000000000E+00 0.  1.
          2    1    1    2  501    0  0.17890646231E+02 -0.95726721177E+01  0.38114937028E+02  0.43179389744E+02  0.00000000000E+00 0.  1.
          1    1    1    2  502    0 -0.17890646231E+02  0.95726721177E+01 -0.61169720032E+03  0.61203363972E+03  0.00000000000E+00 0.  1.
</event>
<event>
 4    1  0.3927513E+003  0.3904333E+02  0.7546771E-02  0.1354185E+00
          2   -1    0    0  502    0  0.00000000000E+00  0.00000000000E+00  0.42317264557E+03  0.42317264557E+03  0.00000000000E+00 0.  1.
          1   -1    0    0  501    0 -0.00000000000E+00 -0.00000000000E+00 -0.39876902911E+01  0.39876902911E+01  0.00000000000E+00 0. -1.
          2    1    1    2  501    0 -0.23698274056E+02  0.31028587502E+02  0.27599252970E+03  0.27874048483E+03  0.00000000000E+00 0.  1.
          1    1    1    2  502    0  0.23698274056E+02 -0.31028587502E+02  0.14319242558E+03  0.14841985103E+03  0.00000000000E+00 0. -1.
</event>
<event>
 4    1  0.3927513E+003  0.3611328E+02  0.7546771E-02  0.1372901E+00
          2   -1    0    0  502    0  0.00000000000E+00  0.00000000000E+00  0.40146367838E+03  0.40146367838E+03  0.00000000000E+00 0.  1.
          1   -1    0    0  501    0 -0.00000000000E+00 -0.00000000000E+00 -0.37121709928E+01  0.37121709928E+01  0.00000000000E+00 0. -1.
          2    1    1    2  501    0  0.17055089750E+02 -0.31832265867E+02  0.27047156977E+03  0.27287183675E+03  0.00000000000E+00 0.  1.
          1    1    1    2  502    0 -0.17055089750E+02  0.31832265867E+02  0.12727993762E+03  0.13230401262E+03  0.00000000000E+00 0. -1.
</event>
<event>
 4    1  0.3927513E+003  0.2409842E+02  0.7546771E-02  0.1479147E+00
          2   -1    0    0  502    0  0.00000000000E+00  0.00000000000E+00  0.34112209114E+03  0.34112209114E+03  0.00000000000E+00 0. -1.
          1   -1    0    0  501    0 -0.00000000000E+00 -0.00000000000E+00 -0.17934390409E+01  0.17934390409E+01  0.00000000000E+00 0. -1.
          2    1    1    2  501    0 -0.23542885675E+02 -0.51444821171E+01  0.13103836180E+03  0.13323582636E+03  0.00000000000E+00 0. -1.
          1    1    1    2  502    0  0.23542885675E+02  0.51444821171E+01  0.20829029030E+03  0.20967970382E+03  0.00000000000E+00 0. -1.
</event>
<event>
 4    1  0.3927513E+003  0.2745475E+02  0.7546771E-02  0.1443093E+00
          2   -1    0    0  502    0  0.00000000000E+00  0.00000000000E+00  0.17010912672E+01  0.17010912672E+01  0.00000000000E+00 0. -1.
          1   -1    0    0  501    0 -0.00000000000E+00 -0.00000000000E+00 -0.46533807376E+03  0.46533807376E+03  0.00000000000E+00 0. -1.
          2    1    1    2  501    0 -0.34638247498E+01  0.27235370455E+02 -0.18077616025E+03  0.18284907329E+03  0.00000000000E+00 0. -1.
          1    1    1    2  502    0  0.34638247498E+01 -0.27235370455E+02 -0.28286082224E+03  0.28419009174E+03  0.00000000000E+00 0. -1.
</event>
<event>
 4    1  0.3927513E+003  0.2288528E+02  0.7546771E-02  0.1493944E+00
          2   -1    0    0  502    0  0.00000000000E+00  0.00000000000E+00  0.14203915758E+02  0.14203915758E+02  0.00000000000E+00 0. -1.
          1   -1    0    0  501    0 -0.00000000000E+00 -0.00000000000E+00 -0.53441735581E+02  0.53441735581E+02  0.00000000000E+00 0. -1.
          2    1    1    2  501    0  0.87175688382E+01 -0.21159870322E+02 -0.78594120770E+00  0.22898773375E+02  0.00000000000E+00 0. -1.
          1    1    1    2  502    0 -0.87175688382E+01  0.21159870322E+02 -0.38451878615E+02  0.44746877964E+02  0.00000000000E+00 0. -1.
</event>
<event>
 4    1  0.3927513E+003  0.2040814E+02  0.7546771E-02  0.1527885E+00
          2   -1    0    0  502    0  0.00000000000E+00  0.00000000000E+00  0.67010266694E+03  0.67010266694E+03  0.00000000000E+00 0. -1.
          1   -1    0    0  501    0 -0.00000000000E+00 -0.00000000000E+00 -0.97202815594E+02  0.97202815594E+02  0.00000000000E+00 0. -1.
          2    1    1    2  501    0 -0.48134632864E+01 -0.19832367953E+02  0.66887412227E+03  0.66918538813E+03  0.00000000000E+00 0. -1.
          1    1    1    2  502    0  0.48134632864E+01  0.19832367953E+02 -0.95974270921E+02  0.98120094406E+02  0.00000000000E+00 0. -1.
</event>
<event>
 4    1  0.3927513E+003  0.3121418E+02  0.7546771E-02  0.1409331E+00
          2   -1    0    0  502    0  0.00000000000E+00  0.00000000000E+00  0.18097851939E+03  0.18097851939E+03  0.00000000000E+00 0.  1.
          1   -1    0    0  501    0 -0.00000000000E+00 -0.00000000000E+00 -0.12687025704E+03  0.12687025704E+03  0.00000000000E+00 0. -1.
          2    1    1    2  501    0  0.24782284472E+02 -0.18977970960E+02  0.17767728184E+03  0.18039828572E+03  0.00000000000E+00 0.  1.
          1    1    1    2  502    0 -0.24782284472E+02  0.18977970960E+02 -0.12356901949E+03  0.12745049071E+03  0.00000000000E+00 0. -1.
</event>
<event>
 4    1  0.5190499E+003  0.2461783E+02  0.7546771E-02  0.1473124E+00
          2   -1    0    0  502    0  0.00000000000E+00  0.00000000000E+00  0.12359417196E+04  0.12359417196E+04  0.00000000000E+00 0. -1.
          1   -1    0    0  501    0 -0.00000000000E+00 -0.00000000000E+00 -0.15763766528E+04  0.15763766528E+04  0.00000000000E+00 0. -1.
          2    1    1    2  501    0 -0.22245276544E+02  0.10544440551E+02  0.12357230040E+04  0.12359681955E+04  0.00000000000E+00 0. -1.
          1    1    1    2  502    0  0.22245276544E+02 -0.10544440551E+02 -0.15761579371E+04  0.15763501769E+04  0.00000000000E+00 0. -1.
</event>
<event>
 4    1  0.3927513E+003  0.4285672E+02  0.7546771E-02  0.1332512E+00
          2   -1    0    0  502    0  0.00000000000E+00  0.00000000000E+00  0.21581893373E+03  0.21581893373E+03  0.00000000000E+00 0. -1.
          1   -1    0    0  501    0 -0.00000000000E+00 -0.00000000000E+00 -0.91382016994E+01  0.91382016994E+01  0.00000000000E+00 0.  1.
          2    1    1    2  501    0 -0.28771872469E+01 -0.42760035288E+02  0.13282266021E+03  0.13956560425E+03  0.00000000000E+00 0. -1.
          1    1    1    2  502    0  0.28771872469E+01  0.42760035288E+02  0.73858071825E+02  0.85391531184E+02  0.00000000000E+00 0.  1.
</event>
<event>
 4    1  0.3927513E+003  0.2315256E+02  0.7546771E-02  0.1490591E+00
          2   -1    0    0  502    0  0.00000000000E+00  0.00000000000E+00  0.80302888333E+02  0.80302888333E+02  0.00000000000E+00 0.  1.
          1   -1    0    0  501    0 -0.00000000000E+00 -0.00000000000E+00 -0.10021386296E+02  0.10021386296E+02  0.00000000000E+00 0.  1.
          2    1    1    2  501    0  0.13691385219E+02 -0.18670483638E+02  0.61237301160E+02  0.65467916126E+02  0.00000000000E+00 0.  1.
          1    1    1    2  502    0 -0.13691385219E+02  0.18670483638E+02  0.90442008774E+01  0.24856358503E+02  0.00000000000E+00 0.  1.
</event>
<event>
 4    1  0.3927513E+003  0.3004932E+02  0.7546771E-02  0.1419168E+00
          2   -1    0    0  502    0  0.00000000000E+00  0.00000000000E+00  0.71588904244E+01  0.71588904244E+01  0.00000000000E+00 0. -1.
          1   -1    0    0  501    0 -0.00000000000E+00 -0.00000000000E+00 -0.32032762972E+03  0.32032762972E+03  0.00000000000E+00 0.  1.
          2    1    1    2  501    0  0.29379067877E+02  0.63112467644E+01 -0.29091311965E+02  0.41824226196E+02  0.00000000000E+00 0. -1.
          1    1    1    2  502    0 -0.29379067877E+02 -0.63112467644E+01 -0.28407742733E+03  0.28566229395E+03  0.00000000000E+00 0.  1.
</event>
<event>
 4    1  0.3927513E+003  0.2759619E+02  0.7546771E-02  0.1441709E+00
          2   -1    0    0  502    0  0.00000000000E+00  0.00000000000E+00  0.47439862036E+03  0.47439862036E+03  0.00000000000E+00 0.  1.
          1   -1    0    0  501    0 -0.00000000000E+00 -0.00000000000E+00 -0.16238079731E+01  0.16238079731E+01  0.00000000000E+00 0.  1.
          2    1    1    2  501    0  0.63849092286E+01 -0.26847379908E+02  0.21097244682E+03  0.21276964584E+03  0.00000000000E+00 0.  1.
          1    1    1    2  502    0 -0.63849092286E+01  0.26847379908E+02  0.26180236556E+03  0.26325278249E+03  0.00000000000E+00 0.  1.
</event>
<event>
 4    1  0.3927513E+003  0.2254685E+02  0.7546771E-02  0.1498268E+00
          2   -1    0    0  502    0  0.00000000000E+00  0.00000000000E+00  0.38170492234E+02  0.38170492234E+02  0.00000000000E+00 0.  1.
          1   -1    0    0  501    0 -0.00000000000E+00 -0.00000000000E+00 -0.46864800202E+02  0.46864800202E+02  0.00000000000E+00 0. -1.
          2    1    1    2  501    0  0.68044302911E+01  0.21495588772E+02  0.31625324692E+02  0.38839693229E+02  0.00000000000E+00 0.  1.
          1    1    1    2  502    0 -0.68044302911E+01 -0.21495588772E+02 -0.40319632660E+02  0.46195599207E+02  0.00000000000E+00 0. -1.
</event>
<event>
 4    1  0.3927513E+003  0.2545034E+02  0.7546771E-02  0.1463828E+00
          2   -1    0    0  502    0  0.00000000000E+00  0.00000000000E+00  0.12009011842E+04  0.12009011842E+04  0.00000000000E+00 0.  1.
          1   -1    0    0  501    0 -0.00000000000E+00 -0.00000000000E+00 -0.28301227296E+01  0.28301227296E+01  0.00000000000E+00 0. -1.
          2    1    1    2  501    0  0.19712921381E+02 -0.16097228461E+02  0.11405210218E+04  0.11408049444E+04  0.00000000000E+00 0.  1.
          1    1    1    2  502    0 -0.19712921381E+02  0.16097228461E+02  0.57550039687E+02  0.62926362532E+02  0.00000000000E+00 0. -1.
</event>
<event>
 4    1  0.3927513E+003  0.2208820E+02  0.7546771E-02  0.1504276E+00
          2   -1    0    0  502    0  0.00000000000E+00  0.00000000000E+00  0.84410565124E+02  0.84410565124E+02  0.00000000000E+00 0.  1.
          1   -1    0    0  501    0 -0.00000000000E+00 -0.00000000000E+00 -0.77723973229E+02  0.77723973229E+02  0.00000000000E+00 0.  1.
          2    1    1    2  501    0  0.13607962819E+02  0.17398619083E+02  0.81338054161E+02  0.84283851672E+02  0.00000000000E+00 0.  1.
          1    1    1    2  502    0 -0.13607962819E+02 -0.17398619083E+02 -0.74651462266E+02  0.77850686680E+02  0.00000000000E+00 0.  1.
</event>
<event>
 4    1  0.3927513E+003  0.2618785E+02  0.7546771E-02  0.1455941E+00
          2   -1    0    0  502    0  0.00000000000E+00  0.00000000000E+00  0.10722342756E+03  0.10722342756E+03  0.00000000000E+00 0. -1.
          1   -1    0    0  501    0 -0.00000000000E+00 -0.00000000000E+00 -0.35946636402E+02  0.35946636402E+02  0.00000000000E+00 0. -1.
          2    1    1    2  501    0  0.21411947907E+02 -0.15077532328E+02  0.10054312519E+03  0.10389765886E+03  0.00000000000E+00 0. -1.
          1    1    1    2  502    0 -0.21411947907E+02  0.15077532328E+02 -0.29266334034E+02  0.39272405096E+02  0.00000000000E+00 0. -1.
</event>
<event>
 4    1  0.3927513E+003  0.2079384E+02  0.7546771E-02  0.1522229E+00
          2   -1    0    0  502    0  0.00000000000E+00  0.00000000000E+00  0.38558324663E+03  0.38558324663E+03  0.00000000000E+00 0. -1.
          1   -1    0    0  501    0 -0.00000000000E+00 -0.00000000000E+00 -0.81629467752E+01  0.81629467752E+01  0.00000000000E+00 0.  1.
          2    1    1    2  501    0  0.12006931631E+02 -0.16976966793E+02  0.37156128631E+03  0.37214267868E+03  0.00000000000E+00 0. -1.
          1    1    1    2  502    0 -0.12006931631E+02  0.16976966793E+02  0.58590135378E+01  0.21603514721E+02  0.00000000000E+00 0.  1.
</event>
<event>
 4    1  0.3927513E+003  0.2556693E+02  0.7546771E-02  0.1462560E+00
          2   -1    0    0  502    0  0.00000000000E+00  0.00000000000E+00  0.97632374213E+01  0.97632374213E+01  0.00000000000E+00 0. -1.
          1   -1    0    0  501    0 -0.00000000000E+00 -0.00000000000E+00 -0.15824447082E+03  0.15824447082E+03  0.00000000000E+00 0.  1.
          2    1    1    2  501    0 -0.20565196618E+02 -0.15190143909E+02 -0.10435936032E+02  0.27614788516E+02  0.00000000000E+00 0. -1.
          1    1    1    2  502    0  0.20565196618E+02  0.15190143909E+02 -0.13804529737E+03  0.14039291972E+03  0.00000000000E+00 0.  1.
</event>
<event>
 4    1  0.3927513E+003  0.2040519E+02  0.7546771E-02  0.1527929E+00
          2   -1    0    0  502    0  0.00000000000E+00  0.00000000000E+00  0.18920172955E+03  0.18920172955E+03  0.00000000000E+00 0. -1.
          1   -1    0    0  501    0 -0.00000000000E+00 -0.00000000000E+00 -0.38143454099E+01  0.38143454099E+01  0.00000000000E+00 0. -1.
          2    1    1    2  501    0 -0.82053777217E+01  0.18682706571E+02  0.15546493492E+03  0.15679833461E+03  0.00000000000E+00 0. -1.
          1    1    1    2  502    0  0.82053777217E+01 -0.18682706571E+02  0.29922449221E+02  0.36217740345E+02  0.00000000000E+00 0. -1.
</event>
<event>
 4    1  0.3927513E+003  0.2005709E+02  0.7546771E-02  0.1533165E+00
          2   -1    0    0  502    0  0.00000000000E+00  0.00000000000E+00  0.71342321404E+02  0.71342321404E+02  0.00000000000E+00 0. -1.
          1   -1    0    0  501    0 -0.00000000000E+00 -0.00000000000E+00 -0.95649080900E+01  0.95649080900E+01  0.00000000000E+00 0. -1.
          2    1    1    2  501    0 -0.13355923211E+02  0.14963499859E+02  0.56806412870E+02  0.60243302997E+02  0.00000000000E+00 0. -1.
          1    1    1    2  502    0  0.13355923211E+02 -0.14963499859E+02  0.49710004443E+01  0.20663926497E+02  0.00000000000E+00 0. -1.
</event>
<event>
 4    1  0.3927513E+003  0.2204497E+02  0.7546771E-02  0.1504852E+00
          2   -1    0    0  502    0  0.00000000000E+00  0.00000000000E+00  0.62767189014E+03  0.62767189014E+03  0.00000000000E+00 0.  1.
          1   -1    0    0  501    0 -0.00000000000E+00 -0.00000000000E+00 -0.75814523659E+02  0.75814523659E+02  0.00000000000E+00 0.  1.
          2    1    1    2  501    0 -0.29876496874E+01  0.21841577723E+02  0.62587118493E+03  0.62625930787E+03  0.00000000000E+00 0.  1.
          1    1    1    2  502    0  0.29876496874E+01 -0.21841577723E+02 -0.74013818451E+02  0.77227105926E+02  0.00000000000E+00 0.  1.
</event>
<event>
 4    1  0.3927513E+003  0.2124388E+02  0.7546771E-02  0.1515811E+00
          2   -1    0    0  502    0  0.00000000000E+00  0.00000000000E+00  0.79169604557E+03  0.79169604557E+03  0.00000000000E+00 0. -1.
          1   -1    0    0  501    0 -0.00000000000E+00 -0.00000000000E+00 -0.11551298312E+01  0.11551298312E+01  0.00000000000E+00 0. -1.
          2    1    1    2  501    0 -0.14957389159E+02  0.15085720332E+02  0.67740461148E+03  0.67773764105E+03  0.00000000000E+00 0. -1.
          1    1    1    2  502    0  0.14957389159E+02 -0.15085720332E+02  0.11313630426E+03  0.11511353435E+03  0.00000000000E+00 0. -1.
</event>
<event>
 4    1  0.3927513E+003  0.2315405E+02  0.7546771E-02  0.1490573E+00
          2   -1    0    0  502    0  0.00000000000E+00  0.00000000000E+00  0.11945574582E+02  0.11945574582E+02  0.00000000000E+00 0.  1.
          1   -1    0    0  501    0 -0.00000000000E+00 -0.00000000000E+00 -0.77907109039E+02  0.77907109039E+02  0.00000000000E+00 0.  1.
          2    1    1    2  501    0 -0.22384125816E+02 -0.59212405190E+01 -0.37290234510E+01  0.23452415520E+02  0.00000000000E+00 0.  1.
          1    1    1    2  502    0  0.22384125816E+02  0.59212405190E+01 -0.62232511006E+02  0.66400268101E+02  0.00000000000E+00 0.  1.
</event>
<event>
 4    1  0.3927513E+003  0.4124408E+02  0.7546771E-02  0.1341346E+00
          2   -1    0    0  502    0  0.00000000000E+00  0.00000000000E+00  0.51909678762E+02  0.51909678762E+02  0.00000000000E+00 0.  1.
          1   -1    0    0  501    0 -0.00000000000E+00 -0.00000000000E+00 -0.34386140313E+03  0.34386140313E+03  0.00000000000E+00 0.  1.
          2    1    1    2  501    0  0.11107868754E+02  0.39720138966E+02  0.42244425250E+02  0.59039526187E+02  0.00000000000E+00 0.  1.
          1    1    1    2  502    0 -0.11107868754E+02 -0.39720138966E+02 -0.33419614961E+03  0.33673155570E+03  0.00000000000E+00 0.  1.
</event>
<event>
 4    1  0.3927513E+003  0.2011939E+02  0.7546771E-02  0.1532218E+00
          2   -1    0    0  502    0  0.00000000000E+00  0.00000000000E+00  0.87366787420E+03  0.87366787420E+03  0.00000000000E+00 0. -1.
          1   -1    0    0  501    0 -0.00000000000E+00 -0.00000000000E+00 -0.89973083687E+01  0.89973083687E+01  0.00000000000E+00 0. -1.
          2    1    1    2  501    0 -0.20062011491E+02 -0.15184044307E+01  0.86215433376E+03  0.86238905668E+03  0.00000000000E+00 0. -1.
          1    1    1    2  502    0  0.20062011491E+02  0.15184044307E+01  0.25162320656E+01  0.20276125885E+02  0.00000000000E+00 0. -1.
</event>
<event>
 4    1  0.3927513E+003  0.2021013E+02  0.7546771E-02  0.1530847E+00
          2   -1    0    0  502    0  0.00000000000E+00  0.00000000000E+00  0.45190463591E+03  0.45190463591E+03  0.00000000000E+00 0. -1.
          1   -1    0    0  501    0 -0.00000000000E+00 -0.00000000000E+00 -0.12749721429E+01  0.12749721429E+01  0.00000000000E+00 0. -1.
          2    1    1    2  501    0  0.20201880414E+02 -0.57740954615E+00  0.34756640198E+03  0.34815349081E+03  0.00000000000E+00 0. -1.
          1    1    1    2  502    0 -0.20201880414E+02  0.57740954615E+00  0.10306326178E+03  0.10502611724E+03  0.00000000000E+00 0. -1.
</event>
<event>
 4    1  0.3927513E+003  0.2699896E+02  0.7546771E-02  0.1447619E+00
          2   -1    0    0  502    0  0.00000000000E+00  0.00000000000E+00  0.49484713199E+03  0.49484713199E+03  0.00000000000E+00 0. -1.
          1   -1    0    0  501    0 -0.00000000000E+00 -0.00000000000E+00 -0.15742678638E+01  0.15742678638E+01  0.00000000000E+00 0. -1.
          2    1    1    2  501    0 -0.14316925055E+02 -0.22890378747E+02  0.30956818314E+03  0.31074330852E+03  0.00000000000E+00 0. -1.
          1    1    1    2  502    0  0.14316925055E+02  0.22890378747E+02  0.18370468099E+03  0.18567809133E+03  0.00000000000E+00 0. -1.
</event>
<event>
 4    1  0.3927513E+003  0.2878786E+02  0.7546771E-02  0.1430431E+00
          2   -1    0    0  502    0  0.00000000000E+00  0.00000000000E+00  0.10238096941E+03  0.10238096941E+03  0.00000000000E+00 0.  1.
          1   -1    0    0  501    0 -0.00000000000E+00 -0.00000000000E+00 -0.32094128795E+03  0.32094128795E+03  0.00000000000E+00 0. -1.
          2    1    1    2  501    0  0.16313621264E+02  0.23719329965E+02  0.99694699117E+02  0.10376788465E+03  0.00000000000E+00 0.  1.
          1    1    1    2  502    0 -0.16313621264E+02 -0.23719329965E+02 -0.31825501765E+03  0.31955437270E+03  0.00000000000E+00 0. -1.
</event>
<event>
 4    1  0.3927513E+003  0.3639014E+02  0.7546771E-02  0.1371045E+00
          2   -1    0    0  502    0  0.00000000000E+00  0.00000000000E+00  0.70352436723E+03  0.70352436723E+03  0.00000000000E+00 0.  1.
          1   -1    0    0  501    0 -0.00000000000E+00 -0.00000000000E+00 -0.19429127277E+01  0.19429127277E+01  0.00000000000E+00 0. -1.
          2    1    1    2  501    0  0.94728802626E+01  0.35135534393E+02  0.28848674752E+03  0.29077284044E+03  0.00000000000E+00 0.  1.
          1    1    1    2  502    0 -0.94728802626E+01 -0.35135534393E+02  0.41309470697E+03  0.41469443952E+03  0.00000000000E+00 0. -1.
</event>
<event>
 4    1  0.3927513E+003  0.2052226E+02  0.7546771E-02  0.1526196E+00
          2   -1    0    0  502    0  0.00000000000E+00  0.00000000000E+00  0.10534311808E+03  0.10534311808E+03  0.00000000000E+00 0. -1.
          1   -1    0    0  501    0 -0.00000000000E+00 -0.00000000000E+00 -0.30405011626E+02  0.30405011626E+02  0.00000000000E+00 0.  1.
          2    1    1    2  501    0 -0.12657178967E+02  0.16154222927E+02  0.10072346161E+03  0.10279289283E+03  0.00000000000E+00 0. -1.
          1    1    1    2  502    0  0.12657178967E+02 -0.16154222927E+02 -0.25785355149E+02  0.32955236882E+02  0.00000000000E+00 0.  1.
</event>
<event>
 4    1  0.3927513E+003  0.2447576E+02  0.7546771E-02  0.1474754E+00
          2   -1    0    0  502    0  0.00000000000E+00  0.00000000000E+00  0.24730424409E+03  0.24730424409E+03  0.00000000000E+00 0.  1.
          1   -1    0    0  501    0 -0.00000000000E+00 -0.00000000000E+00 -0.46853182648E+03  0.46853182648E+03  0.00000000000E+00 0.  1.
          2    1    1    2  501    0 -0.15902908981E+02  0.18605387873E+02  0.24637780296E+03  0.24759055871E+03  0.00000000000E+00 0.  1.
          1    1    1    2  502    0  0.15902908981E+02 -0.18605387873E+02 -0.46760538534E+03  0.46824551186E+03  0.00000000000E+00 0.  1.
</event>
<event>
 4    1  0.3927513E+003  0.3807087E+02  0.7546771E-02  0.1360177E+00
          2   -1    0    0  502    0  0.00000000000E+00  0.00000000000E+00  0.22911172510E+04  0.22911172510E+04  0.00000000000E+00 0.  1.
          1   -1    0    0  501    0 -0.00000000000E+00 -0.00000000000E+00 -0.17721870343E+02  0.17721870343E+02  0.00000000000E+00 0. -1.
          2    1    1    2  501    0  0.35949787099E+02  0.12530127497E+02  0.22703254974E+04  0.22706446784E+04  0.00000000000E+00 0.  1.
          1    1    1    2  502    0 -0.35949787099E+02 -0.12530127497E+02  0.30698832172E+01  0.38194442927E+02  0.00000000000E+00 0. -1.
</event>
<event>
 4    1  0.3927513E+003  0.2273400E+02  0.7546771E-02  0.1495866E+00
          2   -1    0    0  502    0  0.00000000000E+00  0.00000000000E+00  0.25569132323E+02  0.25569132323E+02  0.00000000000E+00 0. -1.
          1   -1    0    0  501    0 -0.00000000000E+00 -0.00000000000E+00 -0.30140995519E+02  0.30140995519E+02  0.00000000000E+00 0. -1.
          2    1    1    2  501    0 -0.12280172238E+01  0.22700807852E+02  0.13700486270E+02  0.26543135223E+02  0.00000000000E+00 0. -1.
          1    1    1    2  502    0  0.12280172238E+01 -0.22700807852E+02 -0.18272349466E+02  0.29166992619E+02  0.00000000000E+00 0. -1.
</event>
<event>
 4    1  0.3927513E+003  0.2009992E+02  0.7546771E-02  0.1532514E+00
          2   -1    0    0  502    0  0.00000000000E+00  0.00000000000E+00  0.12331322765E+04  0.12331322765E+04  0.00000000000E+00 0. -1.
          1   -1    0    0  501    0 -0.00000000000E+00 -0.00000000000E+00 -0.52839687146E+01  0.52839687146E+01  0.00000000000E+00 0. -1.
          2    1    1    2  501    0 -0.17277319750E+02 -0.10271367927E+02  0.12136284632E+04  0.12137948976E+04  0.00000000000E+00 0. -1.
          1    1    1    2  502    0  0.17277319750E+02  0.10271367927E+02  0.14219844539E+02  0.24621347557E+02  0.00000000000E+00 0. -1.
</event>
<event>
 4    1  0.3927513E+003  0.3055089E+02  0.7546771E-02  0.1414868E+00
          2   -1    0    0  502    0  0.00000000000E+00  0.00000000000E+00  0.59945625413E+03  0.59945625413E+03  0.00000000000E+00 0.  1.
          1   -1    0    0  501    0 -0.00000000000E+00 -0.00000000000E+00 -0.71271377989E+01  0.71271377989E+01  0.00000000000E+00 0. -1.
          2    1    1    2  501    0 -0.27698559414E+02 -0.12889796768E+02  0.56428854778E+03  0.56511496371E+03  0.00000000000E+00 0.  1.
          1    1    1    2  502    0  0.27698559414E+02  0.12889796768E+02  0.28040568557E+02  0.41468428224E+02  0.00000000000E+00 0. -1.
</event>
<event>
 4    1  0.3927513E+003  0.2012766E+02  0.7546771E-02  0.1532093E+00
          2   -1    0    0  502    0  0.00000000000E+00  0.00000000000E+00  0.10001322668E+03  0.10001322668E+03  0.00000000000E+00 0.  1.
          1   -1    0    0  501    0 -0.00000000000E+00 -0.00000000000E+00 -0.53907933125E+03  0.53907933125E+03  0.00000000000E+00 0.  1.
          2    1    1    2  501    0  0.80710175074E+01  0.18438579361E+02  0.98810413478E+02  0.10083957727E+03  0.00000000000E+00 0.  1.
          1    1    1    2  502    0 -0.80710175074E+01 -0.18438579361E+02 -0.53787651804E+03  0.53825298067E+03  0.00000000000E+00 0.  1.
</event>
<event>
 4    1  0.3927513E+003  0.3257250E+02  0.7546771E-02  0.1398483E+00
          2   -1    0    0  502    0  0.00000000000E+00  0.00000000000E+00  0.22358725144E+01  0.22358725144E+01  0.00000000000E+00 0. -1.
          1   -1    0    0  501    0 -0.00000000000E+00 -0.00000000000E+00 -0.15413451754E+04  0.15413451754E+04  0.00000000000E+00 0. -1.
          2    1    1    2  501    0 -0.15126414369E+02  0.28847170597E+02 -0.12746453443E+03  0.13156053816E+03  0.00000000000E+00 0. -1.
          1    1    1    2  502    0  0.15126414369E+02 -0.28847170597E+02 -0.14116447685E+04  0.14120205098E+04  0.00000000000E+00 0. -1.
</event>
<event>
 4    1  0.3927513E+003  0.2645434E+02  0.7546771E-02  0.1453168E+00
          2   -1    0    0  502    0  0.00000000000E+00  0.00000000000E+00  0.97011353104E+00  0.97011353104E+00  0.00000000000E+00 0. -1.
          1   -1    0    0  501    0 -0.00000000000E+00 -0.00000000000E+00 -0.12333349134E+04  0.12333349134E+04  0.00000000000E+00 0.  1.
          2    1    1    2  501    0  0.10745466205E+02  0.24173687440E+02 -0.21856742968E+03  0.22016256159E+03  0.00000000000E+00 0. -1.
          1    1    1    2  502    0 -0.10745466205E+02 -0.24173687440E+02 -0.10137973702E+04  0.10141424654E+04  0.00000000000E+00 0.  1.
</event>
<event>
 4    1  0.3927513E+003  0.2564129E+02  0.7546771E-02  0.1461756E+00
          2   -1    0    0  502    0  0.00000000000E+00  0.00000000000E+00  0.13618194217E+02  0.13618194217E+02  0.00000000000E+00 0.  1.
          1   -1    0    0  501    0 -0.00000000000E+00 -0.00000000000E+00 -0.97974479085E+02  0.97974479085E+02  0.00000000000E+00 0. -1.
          2    1    1    2  501    0  0.26017123306E+01  0.25508954857E+02 -0.24400771265E+01  0.25757128359E+02  0.00000000000E+00 0.  1.
          1    1    1    2  502    0 -0.26017123306E+01 -0.25508954857E+02 -0.81916207741E+02  0.85835544943E+02  0.00000000000E+00 0. -1.
</event>
<event>
 4    1  0.3927513E+003  0.2447747E+02  0.7546771E-02  0.1474735E+00
          2   -1    0    0  502    0  0.00000000000E+00  0.00000000000E+00  0.16721891768E+01  0.16721891768E+01  0.00000000000E+00 0.  1.
          1   -1    0    0  501    0 -0.00000000000E+00 -0.00000000000E+00 -0.40795729087E+03  0.40795729087E+03  0.00000000000E+00 0. -1.
          2    1    1    2  501    0 -0.79513618545E+01 -0.23149992798E+02 -0.13168585799E+03  0.13394144809E+03  0.00000000000E+00 0.  1.
          1    1    1    2  502    0  0.79513618545E+01  0.23149992798E+02 -0.27459924369E+03  0.27568803195E+03  0.00000000000E+00 0. -1.
</event>
<event>
 4    1  0.3927513E+003  0.2587926E+02  0.7546771E-02  0.1459203E+00
          2   -1    0    0  502    0  0.00000000000E+00  0.00000000000E+00  0.17772605472E+02  0.17772605472E+02  0.00000000000E+00 0. -1.
          1   -1    0    0  501    0 -0.00000000000E+00 -0.00000000000E+00 -0.73277480847E+02  0.73277480847E+02  0.00000000000E+00 0.  1.
          2    1    1    2  501    0  0.24122944145E+02 -0.93712216630E+01  0.39762864860E+01  0.26182954071E+02  0.00000000000E+00 0. -1.
          1    1    1    2  502    0 -0.24122944145E+02  0.93712216630E+01 -0.59481161861E+02  0.64867132247E+02  0.00000000000E+00 0.  1.
</event>
<event>
 4    1  0.3927513E+003  0.2602533E+02  0.7546771E-02  0.1457652E+00
          2   -1    0    0  502    0  0.00000000000E+00  0.00000000000E+00  0.13586112712E+03  0.13586112712E+03  0.00000000000E+00 0. -1.
          1   -1    0    0  501    0 -0.00000000000E+00 -0.00000000000E+00 -0.35028149217E+03  0.35028149217E+03  0.00000000000E+00 0. -1.
          2    1    1    2  501    0  0.57537762546E+01 -0.25381330286E+02  0.13412517630E+03  0.13662679381E+03  0.00000000000E+00 0. -1.
          1    1    1    2  502    0 -0.57537762546E+01  0.25381330286E+02 -0.34854554135E+03  0.34951582548E+03  0.00000000000E+00 0. -1.
</event>
<event>
 4    1  0.3927513E+003  0.5098544E+02  0.7546771E-02  0.1293956E+00
          2   -1    0    0  502    0  0.00000000000E+00  0.00000000000E+00  0.36645303437E+03  0.36645303437E+03  0.00000000000E+00 0.  1.
          1   -1    0    0  501    0 -0.00000000000E+00 -0.00000000000E+00 -0.80759687116E+01  0.80759687116E+01  0.00000000000E+00 0.  1.
          2    1    1    2  501    0 -0.49745905144E+02  0.11173978111E+02  0.11387994414E+03  0.12477241098E+03  0.00000000000E+00 0.  1.
          1    1    1    2  502    0  0.49745905144E+02 -0.11173978111E+02  0.24449712152E+03  0.24975659209E+03  0.00000000000E+00 0.  1.
</event>
<event>
 4    1  0.5759972E+003  0.2715343E+02  0.7546771E-02  0.1446073E+00
          2   -1    0    0  502    0  0.00000000000E+00  0.00000000000E+00  0.16771996963E+04  0.16771996963E+04  0.00000000000E+00 0. -1.
          1   -1    0    0  501    0 -0.00000000000E+00 -0.00000000000E+00 -0.11496539255E+04  0.11496539255E+04  0.00000000000E+00 0. -1.
          2    1    1    2  501    0 -0.79334017801E+01 -0.25968634970E+02  0.16769294359E+04  0.16771492605E+04  0.00000000000E+00 0. -1.
          1    1    1    2  502    0  0.79334017801E+01  0.25968634970E+02 -0.11493836651E+04  0.11497043614E+04  0.00000000000E+00 0. -1.
</event>
<event>
 4    1  0.3927513E+003  0.2182802E+02  0.7546771E-02  0.1507763E+00
          2   -1    0    0  502    0  0.00000000000E+00  0.00000000000E+00  0.17640642334E+03  0.17640642334E+03  0.00000000000E+00 0. -1.
          1   -1    0    0  501    0 -0.00000000000E+00 -0.00000000000E+00 -0.29341244071E+02  0.29341244071E+02  0.00000000000E+00 0.  1.
          2    1    1    2  501    0 -0.12074734248E+02 -0.18184153518E+02  0.17155723399E+03  0.17294029947E+03  0.00000000000E+00 0. -1.
          1    1    1    2  502    0  0.12074734248E+02  0.18184153518E+02 -0.24492054725E+02  0.32807367937E+02  0.00000000000E+00 0.  1.
</event>
<event>
 4    1  0.3927513E+003  0.2321612E+02  0.7546771E-02  0.1489802E+00
          2   -1    0    0  502    0  0.00000000000E+00  0.00000000000E+00  0.24089627403E+02  0.24089627403E+02  0.00000000000E+00 0. -1.
          1   -1    0    0  501    0 -0.00000000000E+00 -0.00000000000E+00 -0.54424376151E+03  0.54424376151E+03  0.00000000000E+00 0. -1.
          2    1    1    2  501    0 -0.22771046388E+02  0.45241071200E+01  0.18187171021E+02  0.29491715592E+02  0.00000000000E+00 0. -1.
          1    1    1    2  502    0  0.22771046388E+02 -0.45241071200E+01 -0.53834130513E+03  0.53884167332E+03  0.00000000000E+00 0. -1.
</event>
<event>
 4    1  0.3927513E+003  0.5809395E+02  0.7546771E-02  0.1266450E+00
          2   -1    0    0  502    0  0.00000000000E+00  0.00000000000E+00  0.19191534980E+03  0.19191534980E+03  0.00000000000E+00 0. -1.
          1   -1    0    0  501    0 -0.00000000000E+00 -0.00000000000E+00 -0.61307958502E+02  0.61307958502E+02  0.00000000000E+00 0.  1.
          2    1    1    2  501    0 -0.55243440601E+02 -0.17974118941E+02  0.17222594296E+03  0.18175995739E+03  0.00000000000E+00 0. -1.
          1    1    1    2  502    0  0.55243440601E+02  0.17974118941E+02 -0.41618551664E+02  0.71463350913E+02  0.00000000000E+00 0.  1.
</event>
<event>
 4    1  0.3927513E+003  0.2967429E+02  0.7546771E-02  0.1422448E+00
          2   -1    0    0  502    0  0.00000000000E+00  0.00000000000E+00  0.78208009782E+03  0.78208009782E+03  0.00000000000E+00 0.  1.
          1   -1    0    0  501    0 -0.00000000000E+00 -0.00000000000E+00 -0.13726755788E+01  0.13726755788E+01  0.00000000000E+00 0.  1.
          2    1    1    2  501    0 -0.24264139239E+02  0.17082601526E+02  0.55643769165E+03  0.55722838084E+03  0.00000000000E+00 0.  1.
          1    1    1    2  502    0  0.24264139239E+02 -0.17082601526E+02  0.22426973060E+03  0.22622439256E+03  0.00000000000E+00 0.  1.
</event>
<event>
 4    1  0.3927513E+003  0.2554559E+02  0.7546771E-02  0.1462791E+00
          2   -1    0    0  502    0  0.00000000000E+00  0.00000000000E+00  0.35539143780E+01  0.35539143780E+01  0.00000000000E+00 0.  1.
          1   -1    0    0  501    0 -0.00000000000E+00 -0.00000000000E+00 -0.20961292360E+03  0.20961292360E+03  0.00000000000E+00 0.  1.
          2    1    1    2  501    0  0.22284162207E+02 -0.12489734102E+02 -0.65498485787E+02  0.70303833349E+02  0.00000000000E+00 0.  1.
          1    1    1    2  502    0 -0.22284162207E+02  0.12489734102E+02 -0.14056052343E+03  0.14286300463E+03  0.00000000000E+00 0.  1.
</event>
<event>
 4    1  0.3927513E+003  0.2160762E+02  0.7546771E-02  0.1510764E+00
          2   -1    0    0  502    0  0.00000000000E+00  0.00000000000E+00  0.82193620648E+02  0.82193620648E+02  0.00000000000E+00 0.  1.
          1   -1    0    0  501    0 -0.00000000000E+00 -0.00000000000E+00 -0.60184272556E+01  0.60184272556E+01  0.00000000000E+00 0. -1.
          2    1    1    2  501    0 -0.20208168240E+02 -0.76497884643E+01  0.48541011224E+02  0.53133032078E+02  0.00000000000E+00 0.  1.
          1    1    1    2  502    0  0.20208168240E+02  0.76497884643E+01  0.27634182168E+02  0.35079015825E+02  0.00000000000E+00 0. -1.
</event>
<event>
 4    1  0.3927513E+003  0.2012679E+02  0.7546771E-02  0.1532106E+00
          2   -1    0    0  502    0  0.00000000000E+00  0.00000000000E+00  0.34835819317E+02  0.34835819317E+02  0.00000000000E+00 0.  1.
          1   -1    0    0  501    0 -0.00000000000E+00 -0.00000000000E+00 -0.48997756623E+02  0.48997756623E+02  0.00000000000E+00 0. -1.
          2    1    1    2  501    0 -0.90407121744E+01 -0.17982022515E+02  0.29525450336E+02  0.35732895599E+02  0.00000000000E+00 0.  1.
          1    1    1    2  502    0  0.90407121744E+01  0.17982022515E+02 -0.43687387641E+02  0.48100680341E+02  0.00000000000E+00 0. -1.
</event>
<event>
 4    1  0.3927513E+003  0.2249195E+02  0.7546771E-02  0.1498978E+00
          2   -1    0    0  502    0  0.00000000000E+00  0.00000000000E+00  0.59394543576E+01  0.59394543576E+01  0.00000000000E+00 0. -1.
          1   -1    0    0  501    0 -0.00000000000E+00 -0.00000000000E+00 -0.11018583107E+04  0.11018583107E+04  0.00000000000E+00 0.  1.
          2    1    1    2  501    0 -0.22274039341E+02  0.31233142759E+01 -0.15899386729E+02  0.27544117684E+02  0.00000000000E+00 0. -1.
          1    1    1    2  502    0  0.22274039341E+02 -0.31233142759E+01 -0.10800194696E+04  0.10802536474E+04  0.00000000000E+00 0.  1.
</event>
<event>
 4    1  0.3927513E+003  0.2235803E+02  0.7546771E-02  0.1500721E+00
          2   -1    0    0  502    0  0.00000000000E+00  0.00000000000E+00  0.55097938553E+03  0.55097938553E+03  0.00000000000E+00 0.  1.
          1   -1    0    0  501    0 -0.00000000000E+00 -0.00000000000E+00 -0.68397781604E+01  0.68397781604E+01  0.00000000000E+00 0. -1.
          2    1    1    2  501    0  0.21763788387E+02  0.51204542713E+01  0.53182363739E+03  0.53229339919E+03  0.00000000000E+00 0.  1.
          1    1    1    2  502    0 -0.21763788387E+02 -0.51204542713E+01  0.12315969988E+02  0.25525764506E+02  0.00000000000E+00 0. -1.
</event>
<event>
 4    1  0.3927513E+003  0.3454721E+02  0.7546771E-02  0.1383775E+00
          2   -1    0    0  502    0  0.00000000000E+00  0.00000000000E+00  0.21902034357E+02  0.21902034357E+02  0.00000000000E+00 0. -1.
          1   -1    0    0  501    0 -0.00000000000E+00 -0.00000000000E+00 -0.26553417638E+03  0.26553417638E+03  0.00000000000E+00 0. -1.
          2    1    1    2  501    0 -0.14426593250E+02  0.31390817819E+02  0.63091870972E+01  0.35118597323E+02  0.00000000000E+00 0. -1.
          1    1    1    2  502    0  0.14426593250E+02 -0.31390817819E+02 -0.24994132912E+03  0.25231761342E+03  0.00000000000E+00 0. -1.
</event>
<event>
 4    1  0.3927513E+003  0.2478167E+02  0.7546771E-02  0.1471261E+00
          2   -1    0    0  502    0  0.00000000000E+00  0.00000000000E+00  0.42819658825E+02  0.42819658825E+02  0.00000000000E+00 0. -1.
          1   -1    0    0  501    0 -0.00000000000E+00 -0.00000000000E+00 -0.23170851667E+03  0.23170851667E+03  0.00000000000E+00 0.  1.
          2    1    1    2  501    0  0.13925328502E+02  0.20499176616E+02  0.38503625114E+02  0.45789301838E+02  0.00000000000E+00 0. -1.
          1    1    1    2  502    0 -0.13925328502E+02 -0.20499176616E+02 -0.22739248296E+03  0.22873887366E+03  0.00000000000E+00 0.  1.
</event>
<event>
 4    1  0.3927513E+003  0.2094818E+02  0.7546771E-02  0.1520006E+00
          2   -1    0    0  502    0  0.00000000000E+00  0.00000000000E+00  0.94358746040E+01  0.94358746040E+01  0.00000000000E+00 0.  1.
          1   -1    0    0  501    0 -0.00000000000E+00 -0.00000000000E+00 -0.91860855291E+02  0.91860855291E+02  0.00000000000E+00 0. -1.
          2    1    1    2  501    0 -0.15759585706E+02 -0.13800793830E+02 -0.56238632789E+01  0.21689958279E+02  0.00000000000E+00 0.  1.
          1    1    1    2  502    0  0.15759585706E+02  0.13800793830E+02 -0.76801117408E+02  0.79606771616E+02  0.00000000000E+00 0. -1.
</event>
<event>
 4    1  0.3927513E+003  0.2341888E+02  0.7546771E-02  0.1487304E+00
          2   -1    0    0  502    0  0.00000000000E+00  0.00000000000E+00  0.24229045886E+03  0.24229045886E+03  0.00000000000E+00 0.  1.
          1   -1    0    0  501    0 -0.00000000000E+00 -0.00000000000E+00 -0.81294797603E+01  0.81294797603E+01  0.00000000000E+00 0.  1.
          2    1    1    2  501    0  0.78540112673E-01 -0.23418745028E+02  0.22343963964E+03  0.22466356257E+03  0.00000000000E+00 0.  1.
          1    1    1    2  502    0 -0.78540112673E-01  0.23418745028E+02  0.10721339465E+02  0.25756376049E+02  0.00000000000E+00 0.  1.
</event>
<event>
 4    1  0.3927513E+003  0.3711597E+02  0.7546771E-02  0.1366268E+00
          2   -1    0    0  502    0  0.00000000000E+00  0.00000000000E+00  0.98209207250E+02  0.98209207250E+02  0.00000000000E+00 0.  1.
          1   -1    0    0  501    0 -0.00000000000E+00 -0.00000000000E+00 -0.66403404032E+02  0.66403404032E+02  0.00000000000E+00 0.  1.
          2    1    1    2  501    0  0.30857789387E+02 -0.20625043131E+02  0.89000842264E+02  0.96430003079E+02  0.00000000000E+00 0.  1.
          1    1    1    2  502    0 -0.30857789387E+02  0.20625043131E+02 -0.57195039046E+02  0.68182608204E+02  0.00000000000E+00 0.  1.
</event>
<event>
 4    1  0.3927513E+003  0.3281034E+02  0.7546771E-02  0.1396647E+00
          2   -1    0    0  502    0  0.00000000000E+00  0.00000000000E+00  0.27062837174E+01  0.27062837174E+01  0.00000000000E+00 0. -1.
          1   -1    0    0  501    0 -0.00000000000E+00 -0.00000000000E+00 -0.57566537291E+03  0.57566537291E+03  0.00000000000E+00 0.  1.
          2    1    1    2  501    0  0.17948177783E+02  0.27466002093E+02 -0.12572757987E+03  0.12993822646E+03  0.00000000000E+00 0. -1.
          1    1    1    2  502    0 -0.17948177783E+02 -0.27466002093E+02 -0.44723150933E+03  0.44843343017E+03  0.00000000000E+00 0.  1.
</event>
<event>
 4    1  0.3927513E+003  0.2757460E+02  0.7546771E-02  0.1441920E+00
          2   -1    0    0  502    0  0.00000000000E+00  0.00000000000E+00  0.58134411913E+03  0.58134411913E+03  0.00000000000E+00 0. -1.
          1   -1    0    0  501    0 -0.00000000000E+00 -0.00000000000E+00 -0.22435888075E+01  0.22435888075E+01  0.00000000000E+00 0. -1.
          2    1    1    2  501    0  0.26373160749E+02 -0.80507811864E+01  0.47798577846E+03  0.47878049573E+03  0.00000000000E+00 0. -1.
          1    1    1    2  502    0 -0.26373160749E+02  0.80507811864E+01  0.10111475187E+03  0.10480721221E+03  0.00000000000E+00 0. -1.
</event>
<event>
 4    1  0.3927513E+003  0.6237529E+02  0.7546771E-02  0.1251969E+00
          2   -1    0    0  502    0  0.00000000000E+00  0.00000000000E+00  0.10590134077E+04  0.10590134077E+04  0.00000000000E+00 0. -1.
          1   -1    0    0  501    0 -0.00000000000E+00 -0.00000000000E+00 -0.36755347498E+01  0.36755347498E+01  0.00000000000E+00 0. -1.
          2    1    1    2  501    0  0.61615065869E+02 -0.97086104020E+01  0.51634757889E+03  0.52010142826E+03  0.00000000000E+00 0. -1.
          1    1    1    2  502    0 -0.61615065869E+02  0.97086104020E+01  0.53899029408E+03  0.54258751420E+03  0.00000000000E+00 0. -1.
</event>
<event>
 4    1  0.3927513E+003  0.3035411E+02  0.7546771E-02  0.1416544E+00
          2   -1    0    0  502    0  0.00000000000E+00  0.00000000000E+00  0.47660371719E+03  0.47660371719E+03  0.00000000000E+00 0. -1.
          1   -1    0    0  501    0 -0.00000000000E+00 -0.00000000000E+00 -0.17891128301E+03  0.17891128301E+03  0.00000000000E+00 0. -1.
          2    1    1    2  501    0 -0.93543822357E+01  0.28876766529E+02  0.47482813610E+03  0.47579736332E+03  0.00000000000E+00 0. -1.
          1    1    1    2  502    0  0.93543822357E+01 -0.28876766529E+02 -0.17713570191E+03  0.17971763688E+03  0.00000000000E+00 0. -1.
</event>
<event>
 4    1  0.3927513E+003  0.2737393E+02  0.7546771E-02  0.1443888E+00
          2   -1    0    0  502    0  0.00000000000E+00  0.00000000000E+00  0.84287521659E+02  0.84287521659E+02  0.00000000000E+00 0.  1.
          1   -1    0    0  501    0 -0.00000000000E+00 -0.00000000000E+00 -0.27135162386E+02  0.27135162386E+02  0.00000000000E+00 0. -1.
          2    1    1    2  501    0  0.25874561350E+02  0.89352843581E+01  0.74258588018E+02  0.79143351749E+02  0.00000000000E+00 0.  1.
          1    1    1    2  502    0 -0.25874561350E+02 -0.89352843581E+01 -0.17106228745E+02  0.32279332296E+02  0.00000000000E+00 0. -1.
</event>
<event>
 4    1  0.3927513E+003  0.2412541E+02  0.7546771E-02  0.1478830E+00
          2   -1    0    0  502    0  0.00000000000E+00  0.00000000000E+00  0.49407844993E+03  0.49407844993E+03  0.00000000000E+00 0. -1.
          1   -1    0    0  501    0 -0.00000000000E+00 -0.00000000000E+00 -0.24892166552E+01  0.24892166552E+01  0.00000000000E+00 0. -1.
          2    1    1    2  501    0 -0.23657399734E+02 -0.47289456911E+01  0.42599288322E+03  0.42667548798E+03  0.00000000000E+00 0. -1.
          1    1    1    2  502    0  0.23657399734E+02  0.47289456911E+01  0.65596350052E+02  0.69892178602E+02  0.00000000000E+00 0. -1.
</event>
<event>
 4    1  0.3927513E+003  0.2013563E+02  0.7546771E-02  0.1531972E+00
          2   -1    0    0  502    0  0.00000000000E+00  0.00000000000E+00  0.41091457568E+03  0.41091457568E+03  0.00000000000E+00 0. -1.
          1   -1    0    0  501    0 -0.00000000000E+00 -0.00000000000E+00 -0.10069588781E+02  0.10069588781E+02  0.00000000000E+00 0. -1.
          2    1    1    2  501    0 -0.90241709047E+01  0.18000218690E+02  0.40033604598E+03  0.40084210513E+03  0.00000000000E+00 0. -1.
          1    1    1    2  502    0  0.90241709047E+01 -0.18000218690E+02  0.50894092279E+00  0.20142059335E+02  0.00000000000E+00 0. -1.
</event>
<event>
 4    1  0.3927513E+003  0.2325229E+02  0.7546771E-02  0.1489354E+00
          2   -1    0    0  502    0  0.00000000000E+00  0.00000000000E+00  0.43586447464E+03  0.43586447464E+03  0.00000000000E+00 0. -1.
          1   -1    0    0  501    0 -0.00000000000E+00 -0.00000000000E+00 -0.50339192831E+02  0.50339192831E+02  0.00000000000E+00 0. -1.
          2    1    1    2  501    0 -0.36982912298E+01  0.22956300478E+02  0.43285054864E+03  0.43347464349E+03  0.00000000000E+00 0. -1.
          1    1    1    2  502    0  0.36982912298E+01 -0.22956300478E+02 -0.47325266830E+02  0.52729023983E+02  0.00000000000E+00 0. -1.
</event>
<event>
 4    1  0.3927513E+003  0.2014963E+02  0.7546771E-02  0.1531761E+00
          2   -1    0    0  502    0  0.00000000000E+00  0.00000000000E+00  0.33167285721E+01  0.33167285721E+01  0.00000000000E+00 0.  1.
          1   -1    0    0  501    0 -0.00000000000E+00 -0.00000000000E+00 -0.12579728726E+04  0.12579728726E+04  0.00000000000E+00 0. -1.
          2    1    1    2  501    0  0.12532610394E+02  0.15777868049E+02 -0.28152101921E+02  0.34620056124E+02  0.00000000000E+00 0.  1.
          1    1    1    2  502    0 -0.12532610394E+02 -0.15777868049E+02 -0.12265040421E+04  0.12266695450E+04  0.00000000000E+00 0. -1.
</event>
<event>
 4    1  0.3927513E+003  0.3943506E+02  0.7546771E-02  0.1351828E+00
          2   -1    0    0  502    0  0.00000000000E+00  0.00000000000E+00  0.18261738607E+04  0.18261738607E+04  0.00000000000E+00 0. -1.
          1   -1    0    0  501    0 -0.00000000000E+00 -0.00000000000E+00 -0.90427269609E+00  0.90427269609E+00  0.00000000000E+00 0. -1.
          2    1    1    2  501    0 -0.65340243547E+01 -0.38889984099E+02  0.11331672328E+04  0.11338532100E+04  0.00000000000E+00 0. -1.
          1    1    1    2  502    0  0.65340243547E+01  0.38889984099E+02  0.69210235516E+03  0.69322492335E+03  0.00000000000E+00 0. -1.
</event>
<event>
 4    1  0.3927513E+003  0.4052038E+02  0.7546771E-02  0.1345463E+00
          2   -1    0    0  502    0  0.00000000000E+00  0.00000000000E+00  0.67357081206E+03  0.67357081206E+03  0.00000000000E+00 0. -1.
          1   -1    0    0  501    0 -0.00000000000E+00 -0.00000000000E+00 -0.69992434199E+02  0.69992434199E+02  0.00000000000E+00 0.  1.
          2    1    1    2  501    0 -0.38230170274E+02  0.13429636854E+02  0.66703947382E+03  0.66826907806E+03  0.00000000000E+00 0. -1.
          1    1    1    2  502    0  0.38230170274E+02 -0.13429636854E+02 -0.63461095953E+02  0.75294168199E+02  0.00000000000E+00 0.  1.
</event>
<event>
 4    1  0.3927513E+003  0.3075418E+02  0.7546771E-02  0.1413154E+00
          2   -1    0    0  502    0  0.00000000000E+00  0.00000000000E+00  0.54642065509E+03  0.54642065509E+03  0.00000000000E+00 0. -1.
          1   -1    0    0  501    0 -0.00000000000E+00 -0.00000000000E+00 -0.19198403868E+02  0.19198403868E+02  0.00000000000E+00 0.  1.
          2    1    1    2  501    0  0.23881230124E+02  0.19377992639E+02  0.53337043500E+03  0.53425634360E+03  0.00000000000E+00 0. -1.
          1    1    1    2  502    0 -0.23881230124E+02 -0.19377992639E+02 -0.61481837710E+01  0.31362715358E+02  0.00000000000E+00 0.  1.
</event>
<event>
 4    1  0.3927513E+003  0.2333381E+02  0.7546771E-02  0.1488349E+00
          2   -1    0    0  502    0  0.00000000000E+00  0.00000000000E+00  0.14046233256E+01  0.14046233256E+01  0.00000000000E+00 0. -1.
          1   -1    0    0  501    0 -0.00000000000E+00 -0.00000000000E+00 -0.12523620275E+04  0.12523620275E+04  0.00000000000E+00 0. -1.
          2    1    1    2  501    0 -0.20013355450E+02 -0.11997174563E+02 -0.10456726383E+03  0.10713906504E+03  0.00000000000E+00 0. -1.
          1    1    1    2  502    0  0.20013355450E+02  0.11997174563E+02 -0.11463901404E+04  0.11466275858E+04  0.00000000000E+00 0. -1.
</event>
<event>
 4    1  0.3927513E+003  0.2009846E+02  0.7546771E-02  0.1532536E+00
          2   -1    0    0  502    0  0.00000000000E+00  0.00000000000E+00  0.72299643860E+02  0.72299643860E+02  0.00000000000E+00 0. -1.
          1   -1    0    0  501    0 -0.00000000000E+00 -0.00000000000E+00 -0.11395689916E+02  0.11395689916E+02  0.00000000000E+00 0. -1.
          2    1    1    2  501    0 -0.16066033531E+02  0.12076040581E+02  0.60328828117E+02  0.63588644360E+02  0.00000000000E+00 0. -1.
          1    1    1    2  502    0  0.16066033531E+02 -0.12076040581E+02  0.57512582602E+00  0.20106689416E+02  0.00000000000E+00 0. -1.
</event>
<event>
 4    1  0.3927513E+003  0.2058776E+02  0.7546771E-02  0.1525233E+00
          2   -1    0    0  502    0  0.00000000000E+00  0.00000000000E+00  0.20433246342E+01  0.20433246342E+01  0.00000000000E+00 0.  1.
          1   -1    0    0  501    0 -0.00000000000E+00 -0.00000000000E+00 -0.40169143260E+03  0.40169143260E+03  0.00000000000E+00 0.  1.
          2    1    1    2  501    0 -0.77411895411E+01 -0.19076950365E+02 -0.59443126449E+02  0.62907402845E+02  0.00000000000E+00 0.  1.
          1    1    1    2  502    0  0.77411895411E+01  0.19076950365E+02 -0.34020498152E+03  0.34082735439E+03  0.00000000000E+00 0.  1.
</event>
<event>
 4    1  0.3927513E+003  0.2199253E+02  0.7546771E-02  0.1505552E+00
          2   -1    0    0  502    0  0.00000000000E+00  0.00000000000E+00  0.18148606335E+03  0.18148606335E+03  0.00000000000E+00 0.  1.
          1   -1    0    0  501    0 -0.00000000000E+00 -0.00000000000E+00 -0.70416933100E+02  0.70416933100E+02  0.00000000000E+00 0. -1.
          2    1    1    2  501    0  0.17736885701E+02 -0.13002861636E+02  0.17907963893E+03  0.18042502211E+03  0.00000000000E+00 0.  1.
          1    1    1    2  502    0 -0.17736885701E+02  0.13002861636E+02 -0.68010508678E+02  0.71477974339E+02  0.00000000000E+00 0. -1.
</event>
<event>
 4    1  0.3927513E+003  0.2291561E+02  0.7546771E-02  0.1493561E+00
          2   -1    0    0  502    0  0.00000000000E+00  0.00000000000E+00  0.62554971625E+03  0.62554971625E+03  0.00000000000E+00 0.  1.
          1   -1    0    0  501    0 -0.00000000000E+00 -0.00000000000E+00 -0.12348360091E+01  0.12348360091E+01  0.00000000000E+00 0.  1.
          2    1    1    2  501    0 -0.21105760762E+02 -0.89259229582E+01  0.48948967390E+03  0.49002578105E+03  0.00000000000E+00 0.  1.
          1    1    1    2  502    0  0.21105760762E+02  0.89259229582E+01  0.13482520634E+03  0.13675877121E+03  0.00000000000E+00 0.  1.
</event>
<event>
 4    1  0.3927513E+003  0.3267486E+02  0.7546771E-02  0.1397690E+00
          2   -1    0    0  502    0  0.00000000000E+00  0.00000000000E+00  0.90041438625E+02  0.90041438625E+02  0.00000000000E+00 0. -1.
          1   -1    0    0  501    0 -0.00000000000E+00 -0.00000000000E+00 -0.51900484160E+03  0.51900484160E+03  0.00000000000E+00 0. -1.
          2    1    1    2  501    0  0.30947565331E+01  0.32527971385E+02  0.86542744761E+02  0.92505638267E+02  0.00000000000E+00 0. -1.
          1    1    1    2  502    0 -0.30947565331E+01 -0.32527971385E+02 -0.51550614774E+03  0.51654064196E+03  0.00000000000E+00 0. -1.
</event>
<event>
 4    1  0.3927513E+003  0.6040916E+02  0.7546771E-02  0.1258449E+00
          2   -1    0    0  502    0  0.00000000000E+00  0.00000000000E+00  0.17487216595E+02  0.17487216595E+02  0.00000000000E+00 0.  1.
          1   -1    0    0  501    0 -0.00000000000E+00 -0.00000000000E+00 -0.22056744562E+04  0.22056744562E+04  0.00000000000E+00 0.  1.
          2    1    1    2  501    0 -0.32548434225E+02 -0.50890728969E+02 -0.36403228031E+02  0.70529865139E+02  0.00000000000E+00 0.  1.
          1    1    1    2  502    0  0.32548434225E+02  0.50890728969E+02 -0.21517840116E+04  0.21526318077E+04  0.00000000000E+00 0.  1.
</event>
<event>
 4    1  0.3927513E+003  0.2046209E+02  0.7546771E-02  0.1527085E+00
          2   -1    0    0  502    0  0.00000000000E+00  0.00000000000E+00  0.61426645062E+01  0.61426645062E+01  0.00000000000E+00 0. -1.
          1   -1    0    0  501    0 -0.00000000000E+00 -0.00000000000E+00 -0.34503093407E+03  0.34503093407E+03  0.00000000000E+00 0. -1.
          2    1    1    2  501    0  0.54181362203E+01 -0.19731727168E+02 -0.12154596619E+02  0.23799820925E+02  0.00000000000E+00 0. -1.
          1    1    1    2  502    0 -0.54181362203E+01  0.19731727168E+02 -0.32673367294E+03  0.32737377765E+03  0.00000000000E+00 0. -1.
</event>
<event>
 4    1  0.3927513E+003  0.2220126E+02  0.7546771E-02  0.1502779E+00
          2   -1    0    0  502    0  0.00000000000E+00  0.00000000000E+00  0.51528673575E+02  0.51528673575E+02  0.00000000000E+00 0. -1.
          1   -1    0    0  501    0 -0.00000000000E+00 -0.00000000000E+00 -0.16264383263E+03  0.16264383263E+03  0.00000000000E+00 0. -1.
          2    1    1    2  501    0  0.11353471917E+02 -0.19078641205E+02  0.48331962136E+02  0.53187164229E+02  0.00000000000E+00 0. -1.
          1    1    1    2  502    0 -0.11353471917E+02  0.19078641205E+02 -0.15944712119E+03  0.16098534197E+03  0.00000000000E+00 0. -1.
</event>
<event>
 4    1  0.3927513E+003  0.2607762E+02  0.7546771E-02  0.1457100E+00
          2   -1    0    0  502    0  0.00000000000E+00  0.00000000000E+00  0.17737291979E+02  0.17737291979E+02  0.00000000000E+00 0.  1.
          1   -1    0    0  501    0 -0.00000000000E+00 -0.00000000000E+00 -0.80406602765E+02  0.80406602765E+02  0.00000000000E+00 0.  1.
          2    1    1    2  501    0  0.20124197772E+02  0.16584907233E+02  0.41595694563E+01  0.26407281230E+02  0.00000000000E+00 0.  1.
          1    1    1    2  502    0 -0.20124197772E+02 -0.16584907233E+02 -0.66828880242E+02  0.71736613513E+02  0.00000000000E+00 0.  1.
</event>
<event>
 4    1  0.3927513E+003  0.7853661E+02  0.7546771E-02  0.1207286E+00
          2   -1    0    0  502    0  0.00000000000E+00  0.00000000000E+00  0.28529663953E+04  0.28529663953E+04  0.00000000000E+00 0. -1.
          1   -1    0    0  501    0 -0.00000000000E+00 -0.00000000000E+00 -0.81233754621E+01  0.81233754621E+01  0.00000000000E+00 0. -1.
          2    1    1    2  501    0  0.17579255174E+02  0.76543900937E+02  0.26479062946E+04  0.26490707322E+04  0.00000000000E+00 0. -1.
          1    1    1    2  502    0 -0.17579255174E+02 -0.76543900937E+02  0.19693672521E+03  0.21201903858E+03  0.00000000000E+00 0. -1.
</event>
<event>
 4    1  0.3927513E+003  0.8882113E+02  0.7546771E-02  0.1184730E+00
          2   -1    0    0  502    0  0.00000000000E+00  0.00000000000E+00  0.17045935277E+02  0.17045935277E+02  0.00000000000E+00 0.  1.
          1   -1    0    0  501    0 -0.00000000000E+00 -0.00000000000E+00 -0.59087696343E+03  0.59087696343E+03  0.00000000000E+00 0. -1.
          2    1    1    2  501    0  0.83219848206E+02  0.31042721909E+02 -0.14541038607E+03  0.17039182520E+03  0.00000000000E+00 0.  1.
          1    1    1    2  502    0 -0.83219848206E+02 -0.31042721909E+02 -0.42842064208E+03  0.43753107350E+03  0.00000000000E+00 0. -1.
</event>
<event>
 4    1  0.3927513E+003  0.2732389E+02  0.7546771E-02  0.1444381E+00
          2   -1    0    0  502    0  0.00000000000E+00  0.00000000000E+00  0.40215293021E+02  0.40215293021E+02  0.00000000000E+00 0.  1.
          1   -1    0    0  501    0 -0.00000000000E+00 -0.00000000000E+00 -0.64221179264E+03  0.64221179264E+03  0.00000000000E+00 0.  1.
          2    1    1    2  501    0 -0.12134404383E+02 -0.24481649774E+02  0.35247253919E+02  0.44597801002E+02  0.00000000000E+00 0.  1.
          1    1    1    2  502    0  0.12134404383E+02  0.24481649774E+02 -0.63724375354E+03  0.63782928466E+03  0.00000000000E+00 0.  1.
</event>
<event>
 4    1  0.3927513E+003  0.2256871E+02  0.7546771E-02  0.1497986E+00
          2   -1    0    0  502    0  0.00000000000E+00  0.00000000000E+00  0.48292020262E+02  0.48292020262E+02  0.00000000000E+00 0.  1.
          1   -1    0    0  501    0 -0.00000000000E+00 -0.00000000000E+00 -0.88246362870E+03  0.88246362870E+03  0.00000000000E+00 0. -1.
          2    1    1    2  501    0  0.56206325263E+01 -0.21857615749E+02  0.45502556800E+02  0.50792022519E+02  0.00000000000E+00 0.  1.
          1    1    1    2  502    0 -0.56206325263E+01  0.21857615749E+02 -0.87967416524E+03  0.87996362644E+03  0.00000000000E+00 0. -1.
</event>
<event>
 4    1  0.3927513E+003  0.2425823E+02  0.7546771E-02  0.1477275E+00
          2   -1    0    0  502    0  0.00000000000E+00  0.00000000000E+00  0.13027795207E+03  0.13027795207E+03  0.00000000000E+00 0. -1.
          1   -1    0    0  501    0 -0.00000000000E+00 -0.00000000000E+00 -0.35597625188E+03  0.35597625188E+03  0.00000000000E+00 0.  1.
          2    1    1    2  501    0  0.18139274852E+02  0.16106787110E+02  0.12873051123E+03  0.13099620760E+03  0.00000000000E+00 0. -1.
          1    1    1    2  502    0 -0.18139274852E+02 -0.16106787110E+02 -0.35442881103E+03  0.35525799636E+03  0.00000000000E+00 0.  1.
</event>
<event>
 4    1  0.3927513E+003  0.2259372E+02  0.7546771E-02  0.1497664E+00
          2   -1    0    0  502    0  0.00000000000E+00  0.00000000000E+00  0.25185343611E+02  0.25185343611E+02  0.00000000000E+00 0. -1.
          1   -1    0    0  501    0 -0.00000000000E+00 -0.00000000000E+00 -0.51641183352E+03  0.51641183352E+03  0.00000000000E+00 0. -1.
          2    1    1    2  501    0 -0.19745753466E+02  0.10980954320E+02  0.19817827712E+02  0.30053659227E+02  0.00000000000E+00 0. -1.
          1    1    1    2  502    0  0.19745753466E+02 -0.10980954320E+02 -0.51104431762E+03  0.51154351790E+03  0.00000000000E+00 0. -1.
</event>
<event>
 4    1  0.3927513E+003  0.2190910E+02  0.7546771E-02  0.1506671E+00
          2   -1    0    0  502    0  0.00000000000E+00  0.00000000000E+00  0.73240651576E+02  0.73240651576E+02  0.00000000000E+00 0. -1.
          1   -1    0    0  501    0 -0.00000000000E+00 -0.00000000000E+00 -0.14863404913E+02  0.14863404913E+02  0.00000000000E+00 0. -1.
          2    1    1    2  501    0  0.20908860535E+02 -0.65443241086E+01  0.62126492413E+02  0.65876472936E+02  0.00000000000E+00 0. -1.
          1    1    1    2  502    0 -0.20908860535E+02  0.65443241086E+01 -0.37492457514E+01  0.22227583553E+02  0.00000000000E+00 0. -1.
</event>
<event>
 4    1  0.3927513E+003  0.2131894E+02  0.7546771E-02  0.1514760E+00
          2   -1    0    0  502    0  0.00000000000E+00  0.00000000000E+00  0.15558387091E+02  0.15558387091E+02  0.00000000000E+00 0.  1.
          1   -1    0    0  501    0 -0.00000000000E+00 -0.00000000000E+00 -0.78628121265E+03  0.78628121265E+03  0.00000000000E+00 0.  1.
          2    1    1    2  501    0  0.12515047108E+02 -0.17258932634E+02  0.80402993873E+01  0.22784722382E+02  0.00000000000E+00 0.  1.
          1    1    1    2  502    0 -0.12515047108E+02  0.17258932634E+02 -0.77876312494E+03  0.77905487735E+03  0.00000000000E+00 0.  1.
</event>
<event>
 4    1  0.3927513E+003  0.2188684E+02  0.7546771E-02  0.1506970E+00
          2   -1    0    0  502    0  0.00000000000E+00  0.00000000000E+00  0.14563325283E+02  0.14563325283E+02  0.00000000000E+00 0. -1.
          1   -1    0    0  501    0 -0.00000000000E+00 -0.00000000000E+00 -0.10947285565E+03  0.10947285565E+03  0.00000000000E+00 0.  1.
          2    1    1    2  501    0  0.21881815267E+02 -0.46916130164E+00  0.44159161929E+01  0.22327880946E+02  0.00000000000E+00 0. -1.
          1    1    1    2  502    0 -0.21881815267E+02  0.46916130164E+00 -0.99325446557E+02  0.10170829998E+03  0.00000000000E+00 0.  1.
</event>
<event>
 4    1  0.3927513E+003  0.5625516E+02  0.7546771E-02  0.1273116E+00
          2   -1    0    0  502    0  0.00000000000E+00  0.00000000000E+00  0.94856238821E+03  0.94856238821E+03  0.00000000000E+00 0. -1.
          1   -1    0    0  501    0 -0.00000000000E+00 -0.00000000000E+00 -0.76098320444E+01  0.76098320444E+01  0.00000000000E+00 0. -1.
          2    1    1    2  501    0  0.53727772716E+02 -0.16672422212E+02  0.82874963149E+03  0.83065672508E+03  0.00000000000E+00 0. -1.
          1    1    1    2  502    0 -0.53727772716E+02  0.16672422212E+02  0.11220292467E+03  0.12551549517E+03  0.00000000000E+00 0. -1.
</event>
<event>
 4    1  0.3927513E+003  0.2343614E+02  0.7546771E-02  0.1487093E+00
          2   -1    0    0  502    0  0.00000000000E+00  0.00000000000E+00  0.15755157160E+03  0.15755157160E+03  0.00000000000E+00 0.  1.
          1   -1    0    0  501    0 -0.00000000000E+00 -0.00000000000E+00 -0.21050784823E+02  0.21050784823E+02  0.00000000000E+00 0. -1.
          2    1    1    2  501    0  0.23609857056E+01 -0.23316909709E+02  0.14982261342E+03  0.15164454499E+03  0.00000000000E+00 0.  1.
          1    1    1    2  502    0 -0.23609857056E+01  0.23316909709E+02 -0.13321826649E+02  0.26957811431E+02  0.00000000000E+00 0. -1.
</event>
<event>
 4    1  0.3927513E+003  0.3944373E+02  0.7546771E-02  0.1351777E+00
          2   -1    0    0  502    0  0.00000000000E+00  0.00000000000E+00  0.57238149539E+03  0.57238149539E+03  0.00000000000E+00 0. -1.
          1   -1    0    0  501    0 -0.00000000000E+00 -0.00000000000E+00 -0.89215222192E+01  0.89215222192E+01  0.00000000000E+00 0. -1.
          2    1    1    2  501    0 -0.14382603347E+02 -0.36728033318E+02  0.52409375543E+03  0.52557594331E+03  0.00000000000E+00 0. -1.
          1    1    1    2  502    0  0.14382603347E+02  0.36728033318E+02  0.39366217749E+02  0.55727074303E+02  0.00000000000E+00 0. -1.
</event>
<event>
 4    1  0.3927513E+003  0.2838301E+02  0.7546771E-02  0.1434189E+00
          2   -1    0    0  502    0  0.00000000000E+00  0.00000000000E+00  0.14233951862E+03  0.14233951862E+03  0.00000000000E+00 0. -1.
          1   -1    0    0  501    0 -0.00000000000E+00 -0.00000000000E+00 -0.75685738429E+02  0.75685738429E+02  0.00000000000E+00 0.  1.
          2    1    1    2  501    0  0.26390397809E+02 -0.10447115045E+02  0.13818442508E+03  0.14106924060E+03  0.00000000000E+00 0. -1.
          1    1    1    2  502    0 -0.26390397809E+02  0.10447115045E+02 -0.71530644889E+02  0.76956016448E+02  0.00000000000E+00 0.  1.
</event>
<event>
 4    1  0.3927513E+003  0.2453789E+02  0.7546771E-02  0.1474040E+00
          2   -1    0    0  502    0  0.00000000000E+00  0.00000000000E+00  0.15289411540E+03  0.15289411540E+03  0.00000000000E+00 0.  1.
          1   -1    0    0  501    0 -0.00000000000E+00 -0.00000000000E+00 -0.46877146435E+03  0.46877146435E+03  0.00000000000E+00 0. -1.
          2    1    1    2  501    0  0.15552149906E+02  0.18979954917E+02  0.15158573410E+03  0.15355892302E+03  0.00000000000E+00 0.  1.
          1    1    1    2  502    0 -0.15552149906E+02 -0.18979954917E+02 -0.46746308306E+03  0.46810665673E+03  0.00000000000E+00 0. -1.
</event>
<event>
 4    1  0.3927513E+003  0.2077851E+02  0.7546771E-02  0.1522451E+00
          2   -1    0    0  502    0  0.00000000000E+00  0.00000000000E+00  0.38113771464E+02  0.38113771464E+02  0.00000000000E+00 0. -1.
          1   -1    0    0  501    0 -0.00000000000E+00 -0.00000000000E+00 -0.47695844851E+02  0.47695844851E+02  0.00000000000E+00 0.  1.
          2    1    1    2  501    0 -0.18144823089E+02 -0.10124807577E+02  0.32673941814E+02  0.38721219080E+02  0.00000000000E+00 0. -1.
          1    1    1    2  502    0  0.18144823089E+02  0.10124807577E+02 -0.42256015201E+02  0.47088397234E+02  0.00000000000E+00 0.  1.
</event>
<event>
 4    1  0.3927513E+003  0.2135360E+02  0.7546771E-02  0.1514276E+00
          2   -1    0    0  502    0  0.00000000000E+00  0.00000000000E+00  0.17625382185E+03  0.17625382185E+03  0.00000000000E+00 0. -1.
          1   -1    0    0  501    0 -0.00000000000E+00 -0.00000000000E+00 -0.41719253148E+01  0.41719253148E+01  0.00000000000E+00 0. -1.
          2    1    1    2  501    0 -0.91341560280E+01 -0.19301382564E+02  0.14164402143E+03  0.14324456353E+03  0.00000000000E+00 0. -1.
          1    1    1    2  502    0  0.91341560280E+01  0.19301382564E+02  0.30437875103E+02  0.37181183628E+02  0.00000000000E+00 0. -1.
</event>
<event>
 4    1  0.3927513E+003  0.2223028E+02  0.7546771E-02  0.1502397E+00
          2   -1    0    0  502    0  0.00000000000E+00  0.00000000000E+00  0.10954757532E+03  0.10954757532E+03  0.00000000000E+00 0. -1.
          1   -1    0    0  501    0 -0.00000000000E+00 -0.00000000000E+00 -0.25653966034E+02  0.25653966034E+02  0.00000000000E+00 0.  1.
          2    1    1    2  501    0 -0.11847978971E+02  0.18809853007E+02  0.10331676453E+03  0.10568130870E+03  0.00000000000E+00 0. -1.
          1    1    1    2  502    0  0.11847978971E+02 -0.18809853007E+02 -0.19423155248E+02  0.29520232649E+02  0.00000000000E+00 0.  1.
</event>
<event>
 4    1  0.3927513E+003  0.2000309E+02  0.7546771E-02  0.1533988E+00
          2   -1    0    0  502    0  0.00000000000E+00  0.00000000000E+00  0.80109277757E+03  0.80109277757E+03  0.00000000000E+00 0.  1.
          1   -1    0    0  501    0 -0.00000000000E+00 -0.00000000000E+00 -0.70307006794E+01  0.70307006794E+01  0.00000000000E+00 0. -1.
          2    1    1    2  501    0 -0.10133450821E+02  0.17246357977E+02  0.78647579221E+03  0.78673012871E+03  0.00000000000E+00 0.  1.
          1    1    1    2  502    0  0.10133450821E+02 -0.17246357977E+02  0.75862846729E+01  0.21393349531E+02  0.00000000000E+00 0. -1.
</event>
<event>
 4    1  0.4411457E+003  0.3041420E+02  0.7546771E-02  0.1416031E+00
          2   -1    0    0  502    0  0.00000000000E+00  0.00000000000E+00  0.18408001991E+04  0.18408001991E+04  0.00000000000E+00 0. -1.
          1   -1    0    0  501    0 -0.00000000000E+00 -0.00000000000E+00 -0.10896279416E+04  0.10896279416E+04  0.00000000000E+00 0. -1.
          2    1    1    2  501    0 -0.12794525120E+02 -0.27592092103E+02  0.18404622984E+04  0.18407135832E+04  0.00000000000E+00 0. -1.
          1    1    1    2  502    0  0.12794525120E+02  0.27592092103E+02 -0.10892900410E+04  0.10897145575E+04  0.00000000000E+00 0. -1.
</event>
<event>
 4    1  0.3927513E+003  0.2004369E+02  0.7546771E-02  0.1533369E+00
          2   -1    0    0  502    0  0.00000000000E+00  0.00000000000E+00  0.12030657194E+02  0.12030657194E+02  0.00000000000E+00 0.  1.
          1   -1    0    0  501    0 -0.00000000000E+00 -0.00000000000E+00 -0.15144645861E+03  0.15144645861E+03  0.00000000000E+00 0. -1.
          2    1    1    2  501    0  0.13791786414E+02 -0.14544283656E+02  0.24585365933E+01  0.20193909025E+02  0.00000000000E+00 0.  1.
          1    1    1    2  502    0 -0.13791786414E+02  0.14544283656E+02 -0.14187433801E+03  0.14328320678E+03  0.00000000000E+00 0. -1.
</event>
<event>
 4    1  0.3927513E+003  0.2802584E+02  0.7546771E-02  0.1437567E+00
          2   -1    0    0  502    0  0.00000000000E+00  0.00000000000E+00  0.24123984097E+04  0.24123984097E+04  0.00000000000E+00 0.  1.
          1   -1    0    0  501    0 -0.00000000000E+00 -0.00000000000E+00 -0.34509915834E+00  0.34509915834E+00  0.00000000000E+00 0.  1.
          2    1    1    2  501    0 -0.18366019073E+02 -0.21169234544E+02  0.91917685886E+03  0.91960401533E+03  0.00000000000E+00 0.  1.
          1    1    1    2  502    0  0.18366019073E+02  0.21169234544E+02  0.14928764517E+04  0.14931394935E+04  0.00000000000E+00 0.  1.
</event>
<event>
 4    1  0.3927513E+003  0.2129809E+02  0.7546771E-02  0.1515051E+00
          2   -1    0    0  502    0  0.00000000000E+00  0.00000000000E+00  0.15038852132E+02  0.15038852132E+02  0.00000000000E+00 0.  1.
          1   -1    0    0  501    0 -0.00000000000E+00 -0.00000000000E+00 -0.90994509023E+02  0.90994509023E+02  0.00000000000E+00 0.  1.
          2    1    1    2  501    0  0.21291113152E+02  0.54492865317E+00  0.53703887203E+01  0.21964733586E+02  0.00000000000E+00 0.  1.
          1    1    1    2  502    0 -0.21291113152E+02 -0.54492865317E+00 -0.81326045612E+02  0.84068627569E+02  0.00000000000E+00 0.  1.
</event>
<event>
 4    1  0.3927513E+003  0.2455470E+02  0.7546771E-02  0.1473847E+00
          2   -1    0    0  502    0  0.00000000000E+00  0.00000000000E+00  0.15860696754E+01  0.15860696754E+01  0.00000000000E+00 0.  1.
          1   -1    0    0  501    0 -0.00000000000E+00 -0.00000000000E+00 -0.40329065027E+03  0.40329065027E+03  0.00000000000E+00 0.  1.
          2    1    1    2  501    0  0.21984069861E+02 -0.10937734899E+02 -0.15235285631E+03  0.15431891069E+03  0.00000000000E+00 0.  1.
          1    1    1    2  502    0 -0.21984069861E+02  0.10937734899E+02 -0.24935172429E+03  0.25055780925E+03  0.00000000000E+00 0.  1.
</event>
<event>
 4    1  0.3927513E+003  0.2972836E+02  0.7546771E-02  0.1421972E+00
          2   -1    0    0  502    0  0.00000000000E+00  0.00000000000E+00  0.22806424661E+03  0.22806424661E+03  0.00000000000E+00 0. -1.
          1   -1    0    0  501    0 -0.00000000000E+00 -0.00000000000E+00 -0.66591397155E+02  0.66591397155E+02  0.00000000000E+00 0. -1.
          2    1    1    2  501    0 -0.29568224387E+02  0.30814350623E+01  0.22371331866E+03  0.22567991511E+03  0.00000000000E+00 0. -1.
          1    1    1    2  502    0  0.29568224387E+02 -0.30814350623E+01 -0.62240469212E+02  0.68975728653E+02  0.00000000000E+00 0. -1.
</event>
<event>
 4    1  0.3927513E+003  0.3277229E+02  0.7546771E-02  0.1396940E+00
          2   -1    0    0  502    0  0.00000000000E+00  0.00000000000E+00  0.65682513133E+03  0.65682513133E+03  0.00000000000E+00 0. -1.
          1   -1    0    0  501    0 -0.00000000000E+00 -0.00000000000E+00 -0.23238884156E+03  0.23238884156E+03  0.00000000000E+00 0.  1.
          2    1    1    2  501    0  0.17943170120E+02  0.27423815633E+02  0.65525816079E+03  0.65607719081E+03  0.00000000000E+00 0. -1.
          1    1    1    2  502    0 -0.17943170120E+02 -0.27423815633E+02 -0.23082187102E+03  0.23313678208E+03  0.00000000000E+00 0.  1.
</event>
<event>
 4    1  0.3927513E+003  0.2372218E+02  0.7546771E-02  0.1483623E+00
          2   -1    0    0  502    0  0.00000000000E+00  0.00000000000E+00  0.76575978909E+03  0.76575978909E+03  0.00000000000E+00 0.  1.
          1   -1    0    0  501    0 -0.00000000000E+00 -0.00000000000E+00 -0.13905217727E+01  0.13905217727E+01  0.00000000000E+00 0.  1.
          2    1    1    2  501    0 -0.20402373590E+02 -0.12103102951E+02  0.64557186064E+03  0.64600756126E+03  0.00000000000E+00 0.  1.
          1    1    1    2  502    0  0.20402373590E+02  0.12103102951E+02  0.11879740668E+03  0.12114274961E+03  0.00000000000E+00 0.  1.
</event>
<event>
 4    1  0.3927513E+003  0.3581433E+02  0.7546771E-02  0.1374927E+00
          2   -1    0    0  502    0  0.00000000000E+00  0.00000000000E+00  0.15207746303E+02  0.15207746303E+02  0.00000000000E+00 0. -1.
          1   -1    0    0  501    0 -0.00000000000E+00 -0.00000000000E+00 -0.15107151780E+04  0.15107151780E+04  0.00000000000E+00 0.  1.
          2    1    1    2  501    0  0.33866516026E+02  0.11650121107E+02 -0.63961187099E+01  0.36380991796E+02  0.00000000000E+00 0. -1.
          1    1    1    2  502    0 -0.33866516026E+02 -0.11650121107E+02 -0.14891113130E+04  0.14895419325E+04  0.00000000000E+00 0.  1.
</event>
<event>
 4    1  0.3927513E+003  0.6604644E+02  0.7546771E-02  0.1240566E+00
          2   -1    0    0  502    0  0.00000000000E+00  0.00000000000E+00  0.99010752865E+02  0.99010752865E+02  0.00000000000E+00 0.  1.
          1   -1    0    0  501    0 -0.00000000000E+00 -0.00000000000E+00 -0.16886402736E+03  0.16886402736E+03  0.00000000000E+00 0. -1.
          2    1    1    2  501    0  0.68838353343E+01 -0.65686722017E+02  0.80220329194E+02  0.10391070135E+03  0.00000000000E+00 0.  1.
          1    1    1    2  502    0 -0.68838353343E+01  0.65686722017E+02 -0.15007360369E+03  0.16396407888E+03  0.00000000000E+00 0. -1.
</event>
<event>
 4    1  0.3927513E+003  0.2275359E+02  0.7546771E-02  0.1495616E+00
          2   -1    0    0  502    0  0.00000000000E+00  0.00000000000E+00  0.16817849073E+02  0.16817849073E+02  0.00000000000E+00 0.  1.
          1   -1    0    0  501    0 -0.00000000000E+00 -0.00000000000E+00 -0.94120780544E+02  0.94120780544E+02  0.00000000000E+00 0.  1.
          2    1    1    2  501    0 -0.22591292683E+02  0.27128234151E+01  0.68512128621E+01  0.23762681533E+02  0.00000000000E+00 0.  1.
          1    1    1    2  502    0  0.22591292683E+02 -0.27128234151E+01 -0.84154144333E+02  0.87175948084E+02  0.00000000000E+00 0.  1.
</event>
<event>
 4    1  0.3927513E+003  0.2501975E+02  0.7546771E-02  0.1468583E+00
          2   -1    0    0  502    0  0.00000000000E+00  0.00000000000E+00  0.67391544260E+03  0.67391544260E+03  0.00000000000E+00 0. -1.
          1   -1    0    0  501    0 -0.00000000000E+00 -0.00000000000E+00 -0.68939623057E+01  0.68939623057E+01  0.00000000000E+00 0. -1.
          2    1    1    2  501    0  0.18299866989E+02 -0.17061728391E+02  0.65015327806E+03  0.65063451544E+03  0.00000000000E+00 0. -1.
          1    1    1    2  502    0 -0.18299866989E+02  0.17061728391E+02  0.16868202225E+02  0.30174889458E+02  0.00000000000E+00 0. -1.
</event>
<event>
 4    1  0.3927513E+003  0.2627941E+02  0.7546771E-02  0.1454984E+00
          2   -1    0    0  502    0  0.00000000000E+00  0.00000000000E+00  0.39173670730E+03  0.39173670730E+03  0.00000000000E+00 0. -1.
          1   -1    0    0  501    0 -0.00000000000E+00 -0.00000000000E+00 -0.24879262425E+02  0.24879262425E+02  0.00000000000E+00 0. -1.
          2    1    1    2  501    0 -0.96090249730E+01 -0.24459636178E+02  0.38422079677E+03  0.38511845948E+03  0.00000000000E+00 0. -1.
          1    1    1    2  502    0  0.96090249730E+01  0.24459636178E+02 -0.17363351891E+02  0.31497510247E+02  0.00000000000E+00 0. -1.
</event>
<event>
 4    1  0.3927513E+003  0.2919575E+02  0.7546771E-02  0.1426716E+00
          2   -1    0    0  502    0  0.00000000000E+00  0.00000000000E+00  0.49531993570E+03  0.49531993570E+03  0.00000000000E+00 0.  1.
          1   -1    0    0  501    0 -0.00000000000E+00 -0.00000000000E+00 -0.29855518889E+02  0.29855518889E+02  0.00000000000E+00 0.  1.
          2    1    1    2  501    0 -0.10733326999E+02 -0.27151196928E+02  0.48763975759E+03  0.48851297320E+03  0.00000000000E+00 0.  1.
          1    1    1    2  502    0  0.10733326999E+02  0.27151196928E+02 -0.22175340778E+02  0.36662481390E+02  0.00000000000E+00 0.  1.
</event>
<event>
 4    1  0.3927513E+003  0.2696115E+02  0.7546771E-02  0.1447999E+00
          2   -1    0    0  502    0  0.00000000000E+00  0.00000000000E+00  0.25092789767E+01  0.25092789767E+01  0.00000000000E+00 0. -1.
          1   -1    0    0  501    0 -0.00000000000E+00 -0.00000000000E+00 -0.39520461428E+03  0.39520461428E+03  0.00000000000E+00 0. -1.
          2    1    1    2  501    0  0.16658735188E+01 -0.26909620615E+02 -0.29910065221E+03  0.30031334131E+03  0.00000000000E+00 0. -1.
          1    1    1    2  502    0 -0.16658735188E+01  0.26909620615E+02 -0.93594683094E+02  0.97400551947E+02  0.00000000000E+00 0. -1.
</event>
<event>
 4    1  0.3927513E+003  0.2242375E+02  0.7546771E-02  0.1499864E+00
          2   -1    0    0  502    0  0.00000000000E+00  0.00000000000E+00  0.49811113890E+01  0.49811113890E+01  0.00000000000E+00 0. -1.
          1   -1    0    0  501    0 -0.00000000000E+00 -0.00000000000E+00 -0.20353603874E+03  0.20353603874E+03  0.00000000000E+00 0.  1.
          2    1    1    2  501    0  0.21758962606E+02 -0.54196143577E+01 -0.25258478469E+02  0.33775959025E+02  0.00000000000E+00 0. -1.
          1    1    1    2  502    0 -0.21758962606E+02  0.54196143577E+01 -0.17329644888E+03  0.17474119110E+03  0.00000000000E+00 0.  1.
</event>
<event>
 4    1  0.3927513E+003  0.2686546E+02  0.7546771E-02  0.1448964E+00
          2   -1    0    0  502    0  0.00000000000E+00  0.00000000000E+00  0.49921225971E+02  0.49921225971E+02  0.00000000000E+00 0. -1.
          1   -1    0    0  501    0 -0.00000000000E+00 -0.00000000000E+00 -0.59277876994E+03  0.59277876994E+03  0.00000000000E+00 0. -1.
          2    1    1    2  501    0  0.19584355926E+02 -0.18390371777E+02  0.45978182736E+02  0.53251723529E+02  0.00000000000E+00 0. -1.
          1    1    1    2  502    0 -0.19584355926E+02  0.18390371777E+02 -0.58883572670E+03  0.58944827238E+03  0.00000000000E+00 0. -1.
</event>
<event>
 4    1  0.3927513E+003  0.2197176E+02  0.7546771E-02  0.1505830E+00
          2   -1    0    0  502    0  0.00000000000E+00  0.00000000000E+00  0.14139241715E+03  0.14139241715E+03  0.00000000000E+00 0.  1.
          1   -1    0    0  501    0 -0.00000000000E+00 -0.00000000000E+00 -0.84292384464E+01  0.84292384464E+01  0.00000000000E+00 0. -1.
          2    1    1    2  501    0 -0.69707687835E+01 -0.20836663184E+02  0.12426226440E+03  0.12618981141E+03  0.00000000000E+00 0.  1.
          1    1    1    2  502    0  0.69707687835E+01  0.20836663184E+02  0.87009143089E+01  0.23631844191E+02  0.00000000000E+00 0. -1.
</event>
<event>
 4    1  0.3927513E+003  0.2368292E+02  0.7546771E-02  0.1484096E+00
          2   -1    0    0  502    0  0.00000000000E+00  0.00000000000E+00  0.14330204743E+03  0.14330204743E+03  0.00000000000E+00 0.  1.
          1   -1    0    0  501    0 -0.00000000000E+00 -0.00000000000E+00 -0.33469113132E+02  0.33469113132E+02  0.00000000000E+00 0. -1.
          2    1    1    2  501    0  0.16197164016E+02  0.17278098481E+02  0.13797338347E+03  0.13999119742E+03  0.00000000000E+00 0.  1.
          1    1    1    2  502    0 -0.16197164016E+02 -0.17278098481E+02 -0.28140449170E+02  0.36779963142E+02  0.00000000000E+00 0. -1.
</event>
<event>
 4    1  0.3927513E+003  0.2581307E+02  0.7546771E-02  0.1459910E+00
          2   -1    0    0  502    0  0.00000000000E+00  0.00000000000E+00  0.16407952069E+04  0.16407952069E+04  0.00000000000E+00 0.  1.
          1   -1    0    0  501    0 -0.00000000000E+00 -0.00000000000E+00 -0.47687167822E+00  0.47687167822E+00  0.00000000000E+00 0. -1.
          2    1    1    2  501    0  0.24231968923E+02  0.88952971515E+01  0.11363160026E+04  0.11366091555E+04  0.00000000000E+00 0.  1.
          1    1    1    2  502    0 -0.24231968923E+02 -0.88952971515E+01  0.50400233258E+03  0.50466292302E+03  0.00000000000E+00 0. -1.
</event>
<event>
 4    1  0.3927513E+003  0.2474463E+02  0.7546771E-02  0.1471681E+00
          2   -1    0    0  502    0  0.00000000000E+00  0.00000000000E+00  0.80119794501E+01  0.80119794501E+01  0.00000000000E+00 0. -1.
          1   -1    0    0  501    0 -0.00000000000E+00 -0.00000000000E+00 -0.31598426861E+03  0.31598426861E+03  0.00000000000E+00 0.  1.
          2    1    1    2  501    0 -0.20915167544E+02  0.13223185271E+02 -0.12931998633E+02  0.27920126267E+02  0.00000000000E+00 0. -1.
          1    1    1    2  502    0  0.20915167544E+02 -0.13223185271E+02 -0.29504029052E+03  0.29607612179E+03  0.00000000000E+00 0.  1.
</event>
<event>
 4    1  0.3927513E+003  0.2125764E+02  0.7546771E-02  0.1515618E+00
          2   -1    0    0  502    0  0.00000000000E+00  0.00000000000E+00  0.10988409917E+04  0.10988409917E+04  0.00000000000E+00 0. -1.
          1   -1    0    0  501    0 -0.00000000000E+00 -0.00000000000E+00 -0.51421896360E+01  0.51421896360E+01  0.00000000000E+00 0.  1.
          2    1    1    2  501    0 -0.21256595761E+02  0.21100633444E+00  0.10763086981E+04  0.10765186023E+04  0.00000000000E+00 0. -1.
          1    1    1    2  502    0  0.21256595761E+02 -0.21100633444E+00  0.17390103893E+02  0.27464579014E+02  0.00000000000E+00 0.  1.
</event>
<event>
 4    1  0.3927513E+003  0.2076303E+02  0.7546771E-02  0.1522675E+00
          2   -1    0    0  502    0  0.00000000000E+00  0.00000000000E+00  0.59582189337E+01  0.59582189337E+01  0.00000000000E+00 0.  1.
          1   -1    0    0  501    0 -0.00000000000E+00 -0.00000000000E+00 -0.83075236298E+02  0.83075236298E+02  0.00000000000E+00 0.  1.
          2    1    1    2  501    0 -0.16860056011E+02  0.12117838258E+02 -0.22566562958E+02  0.30665179871E+02  0.00000000000E+00 0.  1.
          1    1    1    2  502    0  0.16860056011E+02 -0.12117838258E+02 -0.54550454406E+02  0.58368275361E+02  0.00000000000E+00 0.  1.
</event>
<event>
 4    1  0.3927513E+003  0.4024981E+02  0.7546771E-02  0.1347028E+00
          2   -1    0    0  502    0  0.00000000000E+00  0.00000000000E+00  0.50101282262E+03  0.50101282262E+03  0.00000000000E+00 0. -1.
          1   -1    0    0  501    0 -0.00000000000E+00 -0.00000000000E+00 -0.16828869804E+02  0.16828869804E+02  0.00000000000E+00 0.  1.
          2    1    1    2  501    0  0.39772062988E+02 -0.61830794578E+01  0.47481231368E+03  0.47651524706E+03  0.00000000000E+00 0. -1.
          1    1    1    2  502    0 -0.39772062988E+02  0.61830794578E+01  0.93716391392E+01  0.41326445359E+02  0.00000000000E+00 0.  1.
</event>
<event>
 4    1  0.3927513E+003  0.2127489E+02  0.7546771E-02  0.1515376E+00
          2   -1    0    0  502    0  0.00000000000E+00  0.00000000000E+00  0.26122128457E+01  0.26122128457E+01  0.00000000000E+00 0. -1.
          1   -1    0    0  501    0 -0.00000000000E+00 -0.00000000000E+00 -0.11652503722E+04  0.11652503722E+04  0.00000000000E+00 0.  1.
          2    1    1    2  501    0 -0.15273151296E+02  0.14810531413E+02 -0.42549057309E+02  0.47571454352E+02  0.00000000000E+00 0. -1.
          1    1    1    2  502    0  0.15273151296E+02 -0.14810531413E+02 -0.11200891021E+04  0.11202911307E+04  0.00000000000E+00 0.  1.
</event>
<event>
 4    1  0.3927513E+003  0.3321696E+02  0.7546771E-02  0.1393551E+00
          2   -1    0    0  502    0  0.00000000000E+00  0.00000000000E+00  0.12624956806E+04  0.12624956806E+04  0.00000000000E+00 0. -1.
          1   -1    0    0  501    0 -0.00000000000E+00 -0.00000000000E+00 -0.56221344368E+01  0.56221344368E+01  0.00000000000E+00 0. -1.
          2    1    1    2  501    0  0.29151294356E+02  0.15923825610E+02  0.12111333841E+04  0.12115888082E+04  0.00000000000E+00 0. -1.
          1    1    1    2  502    0 -0.29151294356E+02 -0.15923825610E+02  0.45740162131E+02  0.56529006859E+02  0.00000000000E+00 0. -1.
</event>
<event>
 4    1  0.3927513E+003  0.2160505E+02  0.7546771E-02  0.1510799E+00
          2   -1    0    0  502    0  0.00000000000E+00  0.00000000000E+00  0.11123981756E+04  0.11123981756E+04  0.00000000000E+00 0.  1.
          1   -1    0    0  501    0 -0.00000000000E+00 -0.00000000000E+00 -0.76504055737E+01  0.76504055737E+01  0.00000000000E+00 0.  1.
          2    1    1    2  501    0  0.18636668194E+02  0.10929449423E+02  0.10968233124E+04  0.10970360782E+04  0.00000000000E+00 0.  1.
          1    1    1    2  502    0 -0.18636668194E+02 -0.10929449423E+02  0.79244576927E+01  0.23012503032E+02  0.00000000000E+00 0.  1.
</event>
<event>
 4    1  0.3927513E+003  0.4112274E+02  0.7546771E-02  0.1342029E+00
          2   -1    0    0  502    0  0.00000000000E+00  0.00000000000E+00  0.78163906946E+03  0.78163906946E+03  0.00000000000E+00 0.  1.
          1   -1    0    0  501    0 -0.00000000000E+00 -0.00000000000E+00 -0.84353186455E+01  0.84353186455E+01  0.00000000000E+00 0.  1.
          2    1    1    2  501    0 -0.51413529890E+01  0.40800072829E+02  0.72723261697E+03  0.72839437027E+03  0.00000000000E+00 0.  1.
          1    1    1    2  502    0  0.51413529890E+01 -0.40800072829E+02  0.45971133844E+02  0.61680017837E+02  0.00000000000E+00 0.  1.
</event>
<event>
 4    1  0.3927513E+003  0.2199999E+02  0.7546771E-02  0.1505452E+00
          2   -1    0    0  502    0  0.00000000000E+00  0.00000000000E+00  0.65173395223E+03  0.65173395223E+03  0.00000000000E+00 0. -1.
          1   -1    0    0  501    0 -0.00000000000E+00 -0.00000000000E+00 -0.75255388475E+00  0.75255388475E+00  0.00000000000E+00 0.  1.
          2    1    1    2  501    0 -0.15123091505E+02  0.15977852564E+02  0.36294745591E+03  0.36361360731E+03  0.00000000000E+00 0. -1.
          1    1    1    2  502    0  0.15123091505E+02 -0.15977852564E+02  0.28803394243E+03  0.28887289880E+03  0.00000000000E+00 0.  1.
</event>
<event>
 4    1  0.3927513E+003  0.2036999E+02  0.7546771E-02  0.1528453E+00
          2   -1    0    0  502    0  0.00000000000E+00  0.00000000000E+00  0.21589091308E+01  0.21589091308E+01  0.00000000000E+00 0. -1.
          1   -1    0    0  501    0 -0.00000000000E+00 -0.00000000000E+00 -0.65743920667E+03  0.65743920667E+03  0.00000000000E+00 0.  1.
          2    1    1    2  501    0 -0.16098608083E+02  0.12480834819E+02 -0.50205280436E+02  0.54180315648E+02  0.00000000000E+00 0. -1.
          1    1    1    2  502    0  0.16098608083E+02 -0.12480834819E+02 -0.60507501711E+03  0.60541780016E+03  0.00000000000E+00 0.  1.
</event>
<event>
 4    1  0.3927513E+003  0.2346751E+02  0.7546771E-02  0.1486710E+00
          2   -1    0    0  502    0  0.00000000000E+00  0.00000000000E+00  0.51357004065E+03  0.51357004065E+03  0.00000000000E+00 0.  1.
          1   -1    0    0  501    0 -0.00000000000E+00 -0.00000000000E+00 -0.22053647769E+03  0.22053647769E+03  0.00000000000E+00 0. -1.
          2    1    1    2  501    0 -0.22524284194E+02 -0.65863827737E+01  0.51267656704E+03  0.51321339246E+03  0.00000000000E+00 0.  1.
          1    1    1    2  502    0  0.22524284194E+02  0.65863827737E+01 -0.21964300408E+03  0.22089312587E+03  0.00000000000E+00 0. -1.
</event>
<event>
 4    1  0.3927513E+003  0.2459351E+02  0.7546771E-02  0.1473402E+00
          2   -1    0    0  502    0  0.00000000000E+00  0.00000000000E+00  0.32993361894E+02  0.32993361894E+02  0.00000000000E+00 0. -1.
          1   -1    0    0  501    0 -0.00000000000E+00 -0.00000000000E+00 -0.22864785475E+02  0.22864785475E+02  0.00000000000E+00 0.  1.
          2    1    1    2  501    0 -0.21612236236E+02  0.11736778449E+02  0.17499301017E+02  0.30183874164E+02  0.00000000000E+00 0. -1.
          1    1    1    2  502    0  0.21612236236E+02 -0.11736778449E+02 -0.73707245971E+01  0.25674273204E+02  0.00000000000E+00 0.  1.
</event>
<event>
 4    1  0.3927513E+003  0.3568662E+02  0.7546771E-02  0.1375799E+00
          2   -1    0    0  502    0  0.00000000000E+00  0.00000000000E+00  0.19816830737E+02  0.19816830737E+02  0.00000000000E+00 0. -1.
          1   -1    0    0  501    0 -0.00000000000E+00 -0.00000000000E+00 -0.19380794979E+03  0.19380794979E+03  0.00000000000E+00 0.  1.
          2    1    1    2  501    0 -0.21110032519E+02 -0.28773272660E+02  0.33016913937E+00  0.35688145149E+02  0.00000000000E+00 0. -1.
          1    1    1    2  502    0  0.21110032519E+02  0.28773272660E+02 -0.17432128819E+03  0.17793663538E+03  0.00000000000E+00 0.  1.
</event>
<event>
 4    1  0.3927513E+003  0.3490790E+02  0.7546771E-02  0.1381212E+00
          2   -1    0    0  502    0  0.00000000000E+00  0.00000000000E+00  0.43052771264E+01  0.43052771264E+01  0.00000000000E+00 0. -1.
          1   -1    0    0  501    0 -0.00000000000E+00 -0.00000000000E+00 -0.12001651234E+04  0.12001651234E+04  0.00000000000E+00 0. -1.
          2    1    1    2  501    0 -0.30635915150E+01 -0.34773204107E+02 -0.71476240494E+02  0.79545045552E+02  0.00000000000E+00 0. -1.
          1    1    1    2  502    0  0.30635915150E+01  0.34773204107E+02 -0.11243836057E+04  0.11249253549E+04  0.00000000000E+00 0. -1.
</event>
<event>
 4    1  0.3927513E+003  0.4735166E+02  0.7546771E-02  0.1310082E+00
          2   -1    0    0  502    0  0.00000000000E+00  0.00000000000E+00  0.16563853719E+01  0.16563853719E+01  0.00000000000E+00 0. -1.
          1   -1    0    0  501    0 -0.00000000000E+00 -0.00000000000E+00 -0.17869407809E+04  0.17869407809E+04  0.00000000000E+00 0. -1.
          2    1    1    2  501    0 -0.44967112565E+02 -0.14837072348E+02 -0.45227699874E+03  0.45474901156E+03  0.00000000000E+00 0. -1.
          1    1    1    2  502    0  0.44967112565E+02  0.14837072348E+02 -0.13330073968E+04  0.13338481547E+04  0.00000000000E+00 0. -1.
</event>
<event>
 4    1  0.3927513E+003  0.2058582E+02  0.7546771E-02  0.1525261E+00
          2   -1    0    0  502    0  0.00000000000E+00  0.00000000000E+00  0.11372294796E+04  0.11372294796E+04  0.00000000000E+00 0.  1.
          1   -1    0    0  501    0 -0.00000000000E+00 -0.00000000000E+00 -0.51507877605E+00  0.51507877605E+00  0.00000000000E+00 0.  1.
          2    1    1    2  501    0  0.12428092479E+02 -0.16410925879E+02  0.86751043235E+03  0.86775464632E+03  0.00000000000E+00 0.  1.
          1    1    1    2  502    0 -0.12428092479E+02  0.16410925879E+02  0.26920396850E+03  0.26998991209E+03  0.00000000000E+00 0.  1.
</event>
<event>
 4    1  0.3927513E+003  0.2597302E+02  0.7546771E-02  0.1458206E+00
          2   -1    0    0  502    0  0.00000000000E+00  0.00000000000E+00  0.25886331537E+04  0.25886331537E+04  0.00000000000E+00 0.  1.
          1   -1    0    0  501    0 -0.00000000000E+00 -0.00000000000E+00 -0.26723488598E+00  0.26723488598E+00  0.00000000000E+00 0.  1.
          2    1    1    2  501    0 -0.23000776974E+02 -0.12064891570E+02  0.10902153583E+04  0.10905247016E+04  0.00000000000E+00 0.  1.
          1    1    1    2  502    0  0.23000776974E+02  0.12064891570E+02  0.14981505604E+04  0.14983756869E+04  0.00000000000E+00 0.  1.
</event>
<event>
 4    1  0.3927513E+003  0.2747208E+02  0.7546771E-02  0.1442923E+00
          2   -1    0    0  502    0  0.00000000000E+00  0.00000000000E+00  0.37673173918E+01  0.37673173918E+01  0.00000000000E+00 0.  1.
          1   -1    0    0  501    0 -0.00000000000E+00 -0.00000000000E+00 -0.92056818185E+03  0.92056818185E+03  0.00000000000E+00 0. -1.
          2    1    1    2  501    0  0.19445357905E+02 -0.19406004946E+02 -0.49602147695E+02  0.56701746252E+02  0.00000000000E+00 0.  1.
          1    1    1    2  502    0 -0.19445357905E+02  0.19406004946E+02 -0.86719871676E+03  0.86763375299E+03  0.00000000000E+00 0. -1.
</event>
<event>
 4    1  0.3927513E+003  0.2400997E+02  0.7546771E-02  0.1480191E+00
          2   -1    0    0  502    0  0.00000000000E+00  0.00000000000E+00  0.10509330433E+04  0.10509330433E+04  0.00000000000E+00 0.  1.
          1   -1    0    0  501    0 -0.00000000000E+00 -0.00000000000E+00 -0.60013225750E+00  0.60013225750E+00  0.00000000000E+00 0. -1.
          2    1    1    2  501    0  0.23119566613E+02 -0.64779929591E+01  0.67932301098E+03  0.67974718242E+03  0.00000000000E+00 0.  1.
          1    1    1    2  502    0 -0.23119566613E+02  0.64779929591E+01  0.37100990007E+03  0.37178599315E+03  0.00000000000E+00 0. -1.
</event>
<event>
 4    1  0.3927513E+003  0.2639598E+02  0.7546771E-02  0.1453772E+00
          2   -1    0    0  502    0  0.00000000000E+00  0.00000000000E+00  0.56976920960E+02  0.56976920960E+02  0.00000000000E+00 0.  1.
          1   -1    0    0  501    0 -0.00000000000E+00 -0.00000000000E+00 -0.13382227502E+02  0.13382227502E+02  0.00000000000E+00 0.  1.
          2    1    1    2  501    0  0.41618645772E+01 -0.26065809155E+02  0.32126403591E+02  0.41579482096E+02  0.00000000000E+00 0.  1.
          1    1    1    2  502    0 -0.41618645772E+01  0.26065809155E+02  0.11468289867E+02  0.28779666366E+02  0.00000000000E+00 0.  1.
</event>
<event>
 4    1  0.3927513E+003  0.2824090E+02  0.7546771E-02  0.1435526E+00
          2   -1    0    0  502    0  0.00000000000E+00  0.00000000000E+00  0.15287376951E+04  0.15287376951E+04  0.00000000000E+00 0. -1.
          1   -1    0    0  501    0 -0.00000000000E+00 -0.00000000000E+00 -0.10462542761E+01  0.10462542761E+01  0.00000000000E+00 0.  1.
          2    1    1    2  501    0 -0.27771669513E+02  0.51266835387E+01  0.13054412329E+04  0.13057466680E+04  0.00000000000E+00 0. -1.
          1    1    1    2  502    0  0.27771669513E+02 -0.51266835387E+01  0.22225020798E+03  0.22403728140E+03  0.00000000000E+00 0.  1.
</event>
<event>
 4    1  0.3927513E+003  0.2193778E+02  0.7546771E-02  0.1506285E+00
          2   -1    0    0  502    0  0.00000000000E+00  0.00000000000E+00  0.60082050270E+01  0.60082050270E+01  0.00000000000E+00 0.  1.
          1   -1    0    0  501    0 -0.00000000000E+00 -0.00000000000E+00 -0.10832956866E+03  0.10832956866E+03  0.00000000000E+00 0.  1.
          2    1    1    2  501    0  0.19552058741E+02 -0.99490265230E+01 -0.21977882656E+02  0.31053074820E+02  0.00000000000E+00 0.  1.
          1    1    1    2  502    0 -0.19552058741E+02  0.99490265230E+01 -0.80343480975E+02  0.83284698864E+02  0.00000000000E+00 0.  1.
</event>
<event>
 4    1  0.3927513E+003  0.2744980E+02  0.7546771E-02  0.1443141E+00
          2   -1    0    0  502    0  0.00000000000E+00  0.00000000000E+00  0.35932827487E+03  0.35932827487E+03  0.00000000000E+00 0.  1.
          1   -1    0    0  501    0 -0.00000000000E+00 -0.00000000000E+00 -0.75624141617E+02  0.75624141617E+02  0.00000000000E+00 0. -1.
          2    1    1    2  501    0 -0.10362652745E+02 -0.25418629126E+02  0.35629193407E+03  0.35734777677E+03  0.00000000000E+00 0.  1.
          1    1    1    2  502    0  0.10362652745E+02  0.25418629126E+02 -0.72587800816E+02  0.77604639718E+02  0.00000000000E+00 0. -1.
</event>
<event>
 4    1  0.3927513E+003  0.2247165E+02  0.7546771E-02  0.1499241E+00
          2   -1    0    0  502    0  0.00000000000E+00  0.00000000000E+00  0.24912390100E+03  0.24912390100E+03  0.00000000000E+00 0.  1.
          1   -1    0    0  501    0 -0.00000000000E+00 -0.00000000000E+00 -0.45962699721E+03  0.45962699721E+03  0.00000000000E+00 0. -1.
          2    1    1    2  501    0 -0.20348532325E+02  0.95348001791E+01  0.24834162077E+03  0.24935624273E+03  0.00000000000E+00 0.  1.
          1    1    1    2  502    0  0.20348532325E+02 -0.95348001791E+01 -0.45884471698E+03  0.45939465548E+03  0.00000000000E+00 0. -1.
</event>
<event>
 4    1  0.3927513E+003  0.2193404E+02  0.7546771E-02  0.1506335E+00
          2   -1    0    0  502    0  0.00000000000E+00  0.00000000000E+00  0.26560534618E+01  0.26560534618E+01  0.00000000000E+00 0. -1.
          1   -1    0    0  501    0 -0.00000000000E+00 -0.00000000000E+00 -0.44612390848E+03  0.44612390848E+03  0.00000000000E+00 0.  1.
          2    1    1    2  501    0 -0.21828227266E+02  0.21519327234E+01 -0.48796038175E+02  0.53499118326E+02  0.00000000000E+00 0. -1.
          1    1    1    2  502    0  0.21828227266E+02 -0.21519327234E+01 -0.39467181685E+03  0.39528084362E+03  0.00000000000E+00 0.  1.
</event>
<event>
 4    1  0.3927513E+003  0.2322586E+02  0.7546771E-02  0.1489681E+00
          2   -1    0    0  502    0  0.00000000000E+00  0.00000000000E+00  0.32041645835E+01  0.32041645835E+01  0.00000000000E+00 0.  1.
          1   -1    0    0  501    0 -0.00000000000E+00 -0.00000000000E+00 -0.27185801070E+03  0.27185801070E+03  0.00000000000E+00 0.  1.
          2    1    1    2  501    0  0.19327336828E+02 -0.12880012513E+02 -0.49466736555E+02  0.54647952355E+02  0.00000000000E+00 0.  1.
          1    1    1    2  502    0 -0.19327336828E+02  0.12880012513E+02 -0.21918710956E+03  0.22041422293E+03  0.00000000000E+00 0.  1.
</event>
<event>
 4    1  0.3927513E+003  0.4411005E+02  0.7546771E-02  0.1325950E+00
          2   -1    0    0  502    0  0.00000000000E+00  0.00000000000E+00  0.22355835627E+02  0.22355835627E+02  0.00000000000E+00 0.  1.
          1   -1    0    0  501    0 -0.00000000000E+00 -0.00000000000E+00 -0.38784638572E+03  0.38784638572E+03  0.00000000000E+00 0.  1.
          2    1    1    2  501    0  0.39058926214E+02  0.20496273122E+02 -0.21166114632E+01  0.44160808110E+02  0.00000000000E+00 0.  1.
          1    1    1    2  502    0 -0.39058926214E+02 -0.20496273122E+02 -0.36337393863E+03  0.36604141324E+03  0.00000000000E+00 0.  1.
</event>
<event>
 4    1  0.3927513E+003  0.2138016E+02  0.7546771E-02  0.1513906E+00
          2   -1    0    0  502    0  0.00000000000E+00  0.00000000000E+00  0.36571280894E+01  0.36571280894E+01  0.00000000000E+00 0.  1.
          1   -1    0    0  501    0 -0.00000000000E+00 -0.00000000000E+00 -0.18549983278E+03  0.18549983278E+03  0.00000000000E+00 0.  1.
          2    1    1    2  501    0 -0.20505854520E+02 -0.60515466672E+01 -0.36904804096E+02  0.42650625459E+02  0.00000000000E+00 0.  1.
          1    1    1    2  502    0  0.20505854520E+02  0.60515466672E+01 -0.14493790059E+03  0.14650633541E+03  0.00000000000E+00 0.  1.
</event>
<event>
 4    1  0.3927513E+003  0.2242860E+02  0.7546771E-02  0.1499801E+00
          2   -1    0    0  502    0  0.00000000000E+00  0.00000000000E+00  0.15293949642E+03  0.15293949642E+03  0.00000000000E+00 0.  1.
          1   -1    0    0  501    0 -0.00000000000E+00 -0.00000000000E+00 -0.13524421558E+02  0.13524421558E+02  0.00000000000E+00 0.  1.
          2    1    1    2  501    0  0.12321268985E+02 -0.18741084622E+02  0.14211449777E+03  0.14387345967E+03  0.00000000000E+00 0.  1.
          1    1    1    2  502    0 -0.12321268985E+02  0.18741084622E+02 -0.26994229113E+01  0.22590458301E+02  0.00000000000E+00 0.  1.
</event>
<event>
 4    1  0.3927513E+003  0.2009739E+02  0.7546771E-02  0.1532552E+00
          2   -1    0    0  502    0  0.00000000000E+00  0.00000000000E+00  0.69407340043E+02  0.69407340043E+02  0.00000000000E+00 0.  1.
          1   -1    0    0  501    0 -0.00000000000E+00 -0.00000000000E+00 -0.15257252978E+03  0.15257252978E+03  0.00000000000E+00 0.  1.
          2    1    1    2  501    0  0.97178805984E+01  0.17591693625E+02  0.67270103274E+02  0.70208059953E+02  0.00000000000E+00 0.  1.
          1    1    1    2  502    0 -0.97178805984E+01 -0.17591693625E+02 -0.15043529301E+03  0.15177180987E+03  0.00000000000E+00 0.  1.
</event>
<event>
 4    1  0.3927513E+003  0.2161421E+02  0.7546771E-02  0.1510673E+00
          2   -1    0    0  502    0  0.00000000000E+00  0.00000000000E+00  0.26326104096E+02  0.26326104096E+02  0.00000000000E+00 0. -1.
          1   -1    0    0  501    0 -0.00000000000E+00 -0.00000000000E+00 -0.10360159820E+04  0.10360159820E+04  0.00000000000E+00 0.  1.
          2    1    1    2  501    0 -0.45921403305E+01 -0.21120758251E+02  0.21757305943E+02  0.30668461713E+02  0.00000000000E+00 0. -1.
          1    1    1    2  502    0  0.45921403305E+01  0.21120758251E+02 -0.10314471838E+04  0.10316736244E+04  0.00000000000E+00 0.  1.
</event>
<event>
 4    1  0.3927513E+003  0.2787500E+02  0.7546771E-02  0.1439011E+00
          2   -1    0    0  502    0  0.00000000000E+00  0.00000000000E+00  0.62262110120E+01  0.62262110120E+01  0.00000000000E+00 0.  1.
          1   -1    0    0  501    0 -0.00000000000E+00 -0.00000000000E+00 -0.21238954141E+03  0.21238954141E+03  0.00000000000E+00 0.  1.
          2    1    1    2  501    0  0.27823179779E+02  0.16989439986E+01 -0.32884892307E+02  0.43109533583E+02  0.00000000000E+00 0.  1.
          1    1    1    2  502    0 -0.27823179779E+02 -0.16989439986E+01 -0.17327843809E+03  0.17550621884E+03  0.00000000000E+00 0.  1.
</event>
<event>
 4    1  0.3927513E+003  0.2252309E+02  0.7546771E-02  0.1498575E+00
          2   -1    0    0  502    0  0.00000000000E+00  0.00000000000E+00  0.15673723845E+02  0.15673723845E+02  0.00000000000E+00 0.  1.
          1   -1    0    0  501    0 -0.00000000000E+00 -0.00000000000E+00 -0.17522870929E+03  0.17522870929E+03  0.00000000000E+00 0. -1.
          2    1    1    2  501    0  0.75667080286E+01  0.21214011887E+02  0.64089381587E+01  0.23417170176E+02  0.00000000000E+00 0.  1.
          1    1    1    2  502    0 -0.75667080286E+01 -0.21214011887E+02 -0.16596392360E+03  0.16748526296E+03  0.00000000000E+00 0. -1.
</event>
<event>
 4    1  0.3927513E+003  0.2212634E+02  0.7546771E-02  0.1503770E+00
          2   -1    0    0  502    0  0.00000000000E+00  0.00000000000E+00  0.27345368593E+01  0.27345368593E+01  0.00000000000E+00 0.  1.
          1   -1    0    0  501    0 -0.00000000000E+00 -0.00000000000E+00 -0.74454657006E+03  0.74454657006E+03  0.00000000000E+00 0.  1.
          2    1    1    2  501    0  0.21567487886E+02  0.49415051571E+01 -0.45272414308E+02  0.50390142927E+02  0.00000000000E+00 0.  1.
          1    1    1    2  502    0 -0.21567487886E+02 -0.49415051571E+01 -0.69653961889E+03  0.69689096399E+03  0.00000000000E+00 0.  1.
</event>
<event>
 4    1  0.3927513E+003  0.2447190E+02  0.7546771E-02  0.1474799E+00
          2   -1    0    0  502    0  0.00000000000E+00  0.00000000000E+00  0.17188031945E+03  0.17188031945E+03  0.00000000000E+00 0.  1.
          1   -1    0    0  501    0 -0.00000000000E+00 -0.00000000000E+00 -0.36135110654E+01  0.36135110654E+01  0.00000000000E+00 0.  1.
          2    1    1    2  501    0 -0.24196637072E+02  0.36601377149E+01  0.10072936836E+03  0.10365944002E+03  0.00000000000E+00 0.  1.
          1    1    1    2  502    0  0.24196637072E+02 -0.36601377149E+01  0.67537440020E+02  0.71834390498E+02  0.00000000000E+00 0.  1.
</event>
<event>
 4    1  0.3927513E+003  0.2995260E+02  0.7546771E-02  0.1420009E+00
          2   -1    0    0  502    0  0.00000000000E+00  0.00000000000E+00  0.20847676645E+03  0.20847676645E+03  0.00000000000E+00 0.  1.
          1   -1    0    0  501    0 -0.00000000000E+00 -0.00000000000E+00 -0.97190464434E+01  0.97190464434E+01  0.00000000000E+00 0. -1.
          2    1    1    2  501    0  0.72563055745E+01 -0.29060355005E+02  0.18081738087E+03  0.18328143230E+03  0.00000000000E+00 0.  1.
          1    1    1    2  502    0 -0.72563055745E+01  0.29060355005E+02  0.17940339143E+02  0.34914380593E+02  0.00000000000E+00 0. -1.
</event>
<event>
 4    1  0.3927513E+003  0.2046301E+02  0.7546771E-02  0.1527072E+00
          2   -1    0    0  502    0  0.00000000000E+00  0.00000000000E+00  0.44800416857E+01  0.44800416857E+01  0.00000000000E+00 0.  1.
          1   -1    0    0  501    0 -0.00000000000E+00 -0.00000000000E+00 -0.94257649783E+02  0.94257649783E+02  0.00000000000E+00 0.  1.
          2    1    1    2  501    0  0.54792815881E+01  0.19715784156E+02 -0.40366376531E+02  0.45256811927E+02  0.00000000000E+00 0.  1.
          1    1    1    2  502    0 -0.54792815881E+01 -0.19715784156E+02 -0.49411231566E+02  0.53480879541E+02  0.00000000000E+00 0.  1.
</event>
<event>
 4    1  0.3927513E+003  0.2008320E+02  0.7546771E-02  0.1532768E+00
          2   -1    0    0  502    0  0.00000000000E+00  0.00000000000E+00  0.10577152985E+04  0.10577152985E+04  0.00000000000E+00 0. -1.
          1   -1    0    0  501    0 -0.00000000000E+00 -0.00000000000E+00 -0.10847136979E+01  0.10847136979E+01  0.00000000000E+00 0. -1.
          2    1    1    2  501    0  0.16728907376E+02  0.11112089415E+02  0.95462341685E+03  0.95483464687E+03  0.00000000000E+00 0. -1.
          1    1    1    2  502    0 -0.16728907376E+02 -0.11112089415E+02  0.10200716792E+03  0.10396536529E+03  0.00000000000E+00 0. -1.
</event>
<event>
 4    1  0.3927513E+003  0.2559541E+02  0.7546771E-02  0.1462251E+00
          2   -1    0    0  502    0  0.00000000000E+00  0.00000000000E+00  0.24373183314E+03  0.24373183314E+03  0.00000000000E+00 0.  1.
          1   -1    0    0  501    0 -0.00000000000E+00 -0.00000000000E+00 -0.13619328590E+04  0.13619328590E+04  0.00000000000E+00 0. -1.
          2    1    1    2  501    0  0.17193192588E+02  0.18960995097E+02  0.24293921198E+03  0.24428382248E+03  0.00000000000E+00 0.  1.
          1    1    1    2  502    0 -0.17193192588E+02 -0.18960995097E+02 -0.13611402378E+04  0.13613808697E+04  0.00000000000E+00 0. -1.
</event>
<event>
 4    1  0.3927513E+003  0.2008351E+02  0.7546771E-02  0.1532763E+00
          2   -1    0    0  502    0  0.00000000000E+00  0.00000000000E+00  0.12555025966E+04  0.12555025966E+04  0.00000000000E+00 0. -1.
          1   -1    0    0  501    0 -0.00000000000E+00 -0.00000000000E+00 -0.71888498037E+01  0.71888498037E+01  0.00000000000E+00 0.  1.
          2    1    1    2  501    0  0.19420870601E+02  0.51163807595E+01  0.12412342016E+04  0.12413966694E+04  0.00000000000E+00 0. -1.
          1    1    1    2  502    0 -0.19420870601E+02 -0.51163807595E+01  0.70795451735E+01  0.21294776985E+02  0.00000000000E+00 0.  1.
</event>
<event>
 4    1  0.3927513E+003  0.2234435E+02  0.7546771E-02  0.1500900E+00
          2   -1    0    0  502    0  0.00000000000E+00  0.00000000000E+00  0.10236624414E+01  0.10236624414E+01  0.00000000000E+00 0.  1.
          1   -1    0    0  501    0 -0.00000000000E+00 -0.00000000000E+00 -0.12670785021E+04  0.12670785021E+04  0.00000000000E+00 0.  1.
          2    1    1    2  501    0  0.11226798204E+02  0.19319129890E+02 -0.13576156372E+03  0.13758805166E+03  0.00000000000E+00 0.  1.
          1    1    1    2  502    0 -0.11226798204E+02 -0.19319129890E+02 -0.11302932759E+04  0.11305141128E+04  0.00000000000E+00 0.  1.
</event>
<event>
 4    1  0.3927513E+003  0.2577309E+02  0.7546771E-02  0.1460338E+00
          2   -1    0    0  502    0  0.00000000000E+00  0.00000000000E+00  0.76236491544E+03  0.76236491544E+03  0.00000000000E+00 0. -1.
          1   -1    0    0  501    0 -0.00000000000E+00 -0.00000000000E+00 -0.33430159864E+01  0.33430159864E+01  0.00000000000E+00 0.  1.
          2    1    1    2  501    0  0.20585209608E+02  0.15508109296E+02  0.70871318357E+03  0.70918166140E+03  0.00000000000E+00 0. -1.
          1    1    1    2  502    0 -0.20585209608E+02 -0.15508109296E+02  0.50308715881E+02  0.56526270018E+02  0.00000000000E+00 0.  1.
</event>
<event>
 4    1  0.3927513E+003  0.4513209E+02  0.7546771E-02  0.1320780E+00
          2   -1    0    0  502    0  0.00000000000E+00  0.00000000000E+00  0.21645540436E+04  0.21645540436E+04  0.00000000000E+00 0.  1.
          1   -1    0    0  501    0 -0.00000000000E+00 -0.00000000000E+00 -0.10641793795E+01  0.10641793795E+01  0.00000000000E+00 0.  1.
          2    1    1    2  501    0 -0.43184299979E+02 -0.13115711280E+02  0.14500980747E+04  0.14508002384E+04  0.00000000000E+00 0.  1.
          1    1    1    2  502    0  0.43184299979E+02  0.13115711280E+02  0.71339178955E+03  0.71481798455E+03  0.00000000000E+00 0.  1.
</event>
<event>
 4    1  0.3927513E+003  0.2134218E+02  0.7546771E-02  0.1514435E+00
          2   -1    0    0  502    0  0.00000000000E+00  0.00000000000E+00  0.29714072697E+02  0.29714072697E+02  0.00000000000E+00 0. -1.
          1   -1    0    0  501    0 -0.00000000000E+00 -0.00000000000E+00 -0.15841603713E+03  0.15841603713E+03  0.00000000000E+00 0. -1.
          2    1    1    2  501    0  0.67212778808E+01 -0.20256185904E+02  0.25047223737E+02  0.32906717562E+02  0.00000000000E+00 0. -1.
          1    1    1    2  502    0 -0.67212778808E+01  0.20256185904E+02 -0.15374918817E+03  0.15522339227E+03  0.00000000000E+00 0. -1.
</event>
<event>
 4    1  0.3927513E+003  0.4316523E+02  0.7546771E-02  0.1330873E+00
          2   -1    0    0  502    0  0.00000000000E+00  0.00000000000E+00  0.68518465750E+02  0.68518465750E+02  0.00000000000E+00 0.  1.
          1   -1    0    0  501    0 -0.00000000000E+00 -0.00000000000E+00 -0.46008176075E+03  0.46008176075E+03  0.00000000000E+00 0. -1.
          2    1    1    2  501    0 -0.16402141246E+02  0.39927522255E+02  0.60588757158E+02  0.74392437551E+02  0.00000000000E+00 0.  1.
          1    1    1    2  502    0  0.16402141246E+02 -0.39927522255E+02 -0.45215205216E+03  0.45420778895E+03  0.00000000000E+00 0. -1.
</event>
<event>
 4    1  0.3927513E+003  0.2095618E+02  0.7546771E-02  0.1519891E+00
          2   -1    0    0  502    0  0.00000000000E+00  0.00000000000E+00  0.18259096354E+03  0.18259096354E+03  0.00000000000E+00 0. -1.
          1   -1    0    0  501    0 -0.00000000000E+00 -0.00000000000E+00 -0.25187329410E+01  0.25187329410E+01  0.00000000000E+00 0.  1.
          2    1    1    2  501    0  0.17855564577E+02 -0.10969965697E+02  0.10968946706E+03  0.11167336530E+03  0.00000000000E+00 0. -1.
          1    1    1    2  502    0 -0.17855564577E+02  0.10969965697E+02  0.70382763539E+02  0.73436331180E+02  0.00000000000E+00 0.  1.
</event>
<event>
 4    1  0.3927513E+003  0.2010342E+02  0.7546771E-02  0.1532461E+00
          2   -1    0    0  502    0  0.00000000000E+00  0.00000000000E+00  0.48452771482E+03  0.48452771482E+03  0.00000000000E+00 0. -1.
          1   -1    0    0  501    0 -0.00000000000E+00 -0.00000000000E+00 -0.26380911474E+01  0.26380911474E+01  0.00000000000E+00 0.  1.
          2    1    1    2  501    0 -0.20103193453E+02 -0.95765681599E-01  0.44237212590E+03  0.44282868621E+03  0.00000000000E+00 0. -1.
          1    1    1    2  502    0  0.20103193453E+02  0.95765681599E-01  0.39517497773E+02  0.44337119756E+02  0.00000000000E+00 0.  1.
</event>
<event>
 4    1  0.3927513E+003  0.2529753E+02  0.7546771E-02  0.1465502E+00
          2   -1    0    0  502    0  0.00000000000E+00  0.00000000000E+00  0.17854067305E+02  0.17854067305E+02  0.00000000000E+00 0.  1.
          1   -1    0    0  501    0 -0.00000000000E+00 -0.00000000000E+00 -0.52696555464E+03  0.52696555464E+03  0.00000000000E+00 0.  1.
          2    1    1    2  501    0  0.52586218929E+01 -0.24744942007E+02  0.84262584984E+01  0.26663966161E+02  0.00000000000E+00 0.  1.
          1    1    1    2  502    0 -0.52586218929E+01  0.24744942007E+02 -0.51753774583E+03  0.51815565579E+03  0.00000000000E+00 0.  1.
</event>
<event>
 4    1  0.3927513E+003  0.2056295E+02  0.7546771E-02  0.1525597E+00
          2   -1    0    0  502    0  0.00000000000E+00  0.00000000000E+00  0.25926049016E+03  0.25926049016E+03  0.00000000000E+00 0.  1.
          1   -1    0    0  501    0 -0.00000000000E+00 -0.00000000000E+00 -0.18690315129E+02  0.18690315129E+02  0.00000000000E+00 0. -1.
          2    1    1    2  501    0  0.12398408765E+02 -0.16404702509E+02  0.25305857429E+03  0.25389264824E+03  0.00000000000E+00 0.  1.
          1    1    1    2  502    0 -0.12398408765E+02  0.16404702509E+02 -0.12488399268E+02  0.24058157049E+02  0.00000000000E+00 0. -1.
</event>
<event>
 4    1  0.3927513E+003  0.2366320E+02  0.7546771E-02  0.1484334E+00
          2   -1    0    0  502    0  0.00000000000E+00  0.00000000000E+00  0.44495572708E+03  0.44495572708E+03  0.00000000000E+00 0. -1.
          1   -1    0    0  501    0 -0.00000000000E+00 -0.00000000000E+00 -0.45240646762E+01  0.45240646762E+01  0.00000000000E+00 0.  1.
          2    1    1    2  501    0 -0.15239869857E+01  0.23614078369E+02  0.41115689309E+03  0.41183727123E+03  0.00000000000E+00 0. -1.
          1    1    1    2  502    0  0.15239869857E+01 -0.23614078369E+02  0.29274769308E+02  0.37642520526E+02  0.00000000000E+00 0.  1.
</event>
<event>
 4    1  0.3927513E+003  0.2265750E+02  0.7546771E-02  0.1496844E+00
          2   -1    0    0  502    0  0.00000000000E+00  0.00000000000E+00  0.21514222975E+03  0.21514222975E+03  0.00000000000E+00 0.  1.
          1   -1    0    0  501    0 -0.00000000000E+00 -0.00000000000E+00 -0.27857875444E+01  0.27857875444E+01  0.00000000000E+00 0.  1.
          2    1    1    2  501    0 -0.22194386308E+02  0.45575743352E+01  0.14744880476E+03  0.14917946337E+03  0.00000000000E+00 0.  1.
          1    1    1    2  502    0  0.22194386308E+02 -0.45575743352E+01  0.64907637447E+02  0.68748553922E+02  0.00000000000E+00 0.  1.
</event>
<event>
 4    1  0.3927513E+003  0.2370084E+02  0.7546771E-02  0.1483880E+00
          2   -1    0    0  502    0  0.00000000000E+00  0.00000000000E+00  0.77979002368E+01  0.77979002368E+01  0.00000000000E+00 0. -1.
          1   -1    0    0  501    0 -0.00000000000E+00 -0.00000000000E+00 -0.17653503041E+03  0.17653503041E+03  0.00000000000E+00 0.  1.
          2    1    1    2  501    0 -0.49568062951E+01 -0.23176705679E+02 -0.13457567568E+02  0.27255013110E+02  0.00000000000E+00 0. -1.
          1    1    1    2  502    0  0.49568062951E+01  0.23176705679E+02 -0.15527956260E+03  0.15707791754E+03  0.00000000000E+00 0.  1.
</event>
<event>
 4    1  0.3927513E+003  0.2776939E+02  0.7546771E-02  0.1440029E+00
          2   -1    0    0  502    0  0.00000000000E+00  0.00000000000E+00  0.41724023693E+03  0.41724023693E+03  0.00000000000E+00 0.  1.
          1   -1    0    0  501    0 -0.00000000000E+00 -0.00000000000E+00 -0.18587694615E+01  0.18587694615E+01  0.00000000000E+00 0.  1.
          2    1    1    2  501    0 -0.20759214094E+02 -0.18444348805E+02  0.22350024646E+03  0.22521878061E+03  0.00000000000E+00 0.  1.
          1    1    1    2  502    0  0.20759214094E+02  0.18444348805E+02  0.19188122101E+03  0.19388022578E+03  0.00000000000E+00 0.  1.
</event>
<event>
 4    1  0.3927513E+003  0.2358043E+02  0.7546771E-02  0.1485336E+00
          2   -1    0    0  502    0  0.00000000000E+00  0.00000000000E+00  0.68268645870E+03  0.68268645870E+03  0.00000000000E+00 0.  1.
          1   -1    0    0  501    0 -0.00000000000E+00 -0.00000000000E+00 -0.40057115474E+02  0.40057115474E+02  0.00000000000E+00 0.  1.
          2    1    1    2  501    0 -0.22403162953E+02  0.73576368374E+01  0.67899369711E+03  0.67940303006E+03  0.00000000000E+00 0.  1.
          1    1    1    2  502    0  0.22403162953E+02 -0.73576368374E+01 -0.36364353891E+02  0.43340544113E+02  0.00000000000E+00 0.  1.
</event>
<event>
 4    1  0.3927513E+003  0.2454486E+02  0.7546771E-02  0.1473960E+00
          2   -1    0    0  502    0  0.00000000000E+00  0.00000000000E+00  0.17181753372E+02  0.17181753372E+02  0.00000000000E+00 0. -1.
          1   -1    0    0  501    0 -0.00000000000E+00 -0.00000000000E+00 -0.21246315737E+03  0.21246315737E+03  0.00000000000E+00 0. -1.
          2    1    1    2  501    0  0.20226322748E+02 -0.13904895733E+02  0.72800889096E+01  0.25601756811E+02  0.00000000000E+00 0. -1.
          1    1    1    2  502    0 -0.20226322748E+02  0.13904895733E+02 -0.20256149291E+03  0.20404315394E+03  0.00000000000E+00 0. -1.
</event>
<event>
 4    1  0.3927513E+003  0.2677901E+02  0.7546771E-02  0.1449841E+00
          2   -1    0    0  502    0  0.00000000000E+00  0.00000000000E+00  0.10930136420E+01  0.10930136420E+01  0.00000000000E+00 0. -1.
          1   -1    0    0  501    0 -0.00000000000E+00 -0.00000000000E+00 -0.66356622923E+03  0.66356622923E+03  0.00000000000E+00 0. -1.
          2    1    1    2  501    0 -0.24891189001E+02 -0.98764440232E+01 -0.29596176104E+03  0.29717079169E+03  0.00000000000E+00 0. -1.
          1    1    1    2  502    0  0.24891189001E+02  0.98764440232E+01 -0.36651145455E+03  0.36748845118E+03  0.00000000000E+00 0. -1.
</event>
<event>
 4    1  0.3927513E+003  0.2339927E+02  0.7546771E-02  0.1487544E+00
          2   -1    0    0  502    0  0.00000000000E+00  0.00000000000E+00  0.11458450348E+04  0.11458450348E+04  0.00000000000E+00 0.  1.
          1   -1    0    0  501    0 -0.00000000000E+00 -0.00000000000E+00 -0.10157721060E+02  0.10157721060E+02  0.00000000000E+00 0. -1.
          2    1    1    2  501    0 -0.34599518474E+01  0.23142052608E+02  0.11320862094E+04  0.11323280052E+04  0.00000000000E+00 0.  1.
          1    1    1    2  502    0  0.34599518474E+01 -0.23142052608E+02  0.36011043339E+01  0.23674750646E+02  0.00000000000E+00 0. -1.
</event>
<event>
 4    1  0.3927513E+003  0.2010996E+02  0.7546771E-02  0.1532361E+00
          2   -1    0    0  502    0  0.00000000000E+00  0.00000000000E+00  0.19780756936E+02  0.19780756936E+02  0.00000000000E+00 0.  1.
          1   -1    0    0  501    0 -0.00000000000E+00 -0.00000000000E+00 -0.93470174883E+02  0.93470174883E+02  0.00000000000E+00 0.  1.
          2    1    1    2  501    0 -0.17152735780E+02 -0.10497342315E+02  0.13206275148E+02  0.24058600203E+02  0.00000000000E+00 0.  1.
          1    1    1    2  502    0  0.17152735780E+02  0.10497342315E+02 -0.86895693096E+02  0.89192331616E+02  0.00000000000E+00 0.  1.
</event>
<event>
 4    1  0.3927513E+003  0.3238326E+02  0.7546771E-02  0.1399956E+00
          2   -1    0    0  502    0  0.00000000000E+00  0.00000000000E+00  0.72619437188E+03  0.72619437188E+03  0.00000000000E+00 0. -1.
          1   -1    0    0  501    0 -0.00000000000E+00 -0.00000000000E+00 -0.14651114244E+03  0.14651114244E+03  0.00000000000E+00 0. -1.
          2    1    1    2  501    0 -0.32353259175E+02 -0.13936269298E+01  0.72403861655E+03  0.72476243959E+03  0.00000000000E+00 0. -1.
          1    1    1    2  502    0  0.32353259175E+02  0.13936269298E+01 -0.14435538711E+03  0.14794307474E+03  0.00000000000E+00 0. -1.
</event>
<event>
 4    1  0.3927513E+003  0.3741187E+02  0.7546771E-02  0.1364358E+00
          2   -1    0    0  502    0  0.00000000000E+00  0.00000000000E+00  0.35649336078E+02  0.35649336078E+02  0.00000000000E+00 0.  1.
          1   -1    0    0  501    0 -0.00000000000E+00 -0.00000000000E+00 -0.46778166148E+03  0.46778166148E+03  0.00000000000E+00 0.  1.
          2    1    1    2  501    0  0.28920068858E+02  0.23733468654E+02  0.24854455819E+02  0.44915385907E+02  0.00000000000E+00 0.  1.
          1    1    1    2  502    0 -0.28920068858E+02 -0.23733468654E+02 -0.45698678122E+03  0.45851561165E+03  0.00000000000E+00 0.  1.
</event>
<event>
 4    1  0.3927513E+003  0.3344013E+02  0.7546771E-02  0.1391874E+00
          2   -1    0    0  502    0  0.00000000000E+00  0.00000000000E+00  0.56963990752E+01  0.56963990752E+01  0.00000000000E+00 0.  1.
          1   -1    0    0  501    0 -0.00000000000E+00 -0.00000000000E+00 -0.34573926244E+03  0.34573926244E+03  0.00000000000E+00 0. -1.
          2    1    1    2  501    0  0.17916481019E+01  0.33392094797E+02 -0.54499636906E+02  0.63941007348E+02  0.00000000000E+00 0.  1.
          1    1    1    2  502    0 -0.17916481019E+01 -0.33392094797E+02 -0.28554322646E+03  0.28749465416E+03  0.00000000000E+00 0. -1.
</event>
<event>
 4    1  0.3930215E+003  0.3094127E+02  0.7546771E-02  0.1411589E+00
          2   -1    0    0  502    0  0.00000000000E+00  0.00000000000E+00  0.65216273221E+03  0.65216273221E+03  0.00000000000E+00 0.  1.
          1   -1    0    0  501    0 -0.00000000000E+00 -0.00000000000E+00 -0.84232492963E+03  0.84232492963E+03  0.00000000000E+00 0. -1.
          2    1    1    2  501    0  0.30685272558E+02  0.39719506868E+01  0.65151131025E+03  0.65224562071E+03  0.00000000000E+00 0.  1.
          1    1    1    2  502    0 -0.30685272558E+02 -0.39719506868E+01 -0.84167350767E+03  0.84224204113E+03  0.00000000000E+00 0. -1.
</event>
<event>
 4    1  0.3927513E+003  0.2437962E+02  0.7546771E-02  0.1475865E+00
          2   -1    0    0  502    0  0.00000000000E+00  0.00000000000E+00  0.35158401733E+03  0.35158401733E+03  0.00000000000E+00 0.  1.
          1   -1    0    0  501    0 -0.00000000000E+00 -0.00000000000E+00 -0.17657743128E+01  0.17657743128E+01  0.00000000000E+00 0.  1.
          2    1    1    2  501    0  0.51609816382E+01  0.23827078341E+02  0.13843984594E+03  0.14057011182E+03  0.00000000000E+00 0.  1.
          1    1    1    2  502    0 -0.51609816382E+01 -0.23827078341E+02  0.21137839708E+03  0.21277967982E+03  0.00000000000E+00 0.  1.
</event>
<event>
 4    1  0.3927513E+003  0.3275939E+02  0.7546771E-02  0.1397039E+00
          2   -1    0    0  502    0  0.00000000000E+00  0.00000000000E+00  0.15300667162E+04  0.15300667162E+04  0.00000000000E+00 0.  1.
          1   -1    0    0  501    0 -0.00000000000E+00 -0.00000000000E+00 -0.16080509058E+01  0.16080509058E+01  0.00000000000E+00 0. -1.
          2    1    1    2  501    0  0.32249160480E+02 -0.57592545951E+01  0.13392831684E+04  0.13396837621E+04  0.00000000000E+00 0.  1.
          1    1    1    2  502    0 -0.32249160480E+02  0.57592545951E+01  0.18917549692E+03  0.19199100500E+03  0.00000000000E+00 0. -1.
</event>
<event>
 4    1  0.3927513E+003  0.2510088E+02  0.7546771E-02  0.1467678E+00
          2   -1    0    0  502    0  0.00000000000E+00  0.00000000000E+00  0.53617664108E+01  0.53617664108E+01  0.00000000000E+00 0.  1.
          1   -1    0    0  501    0 -0.00000000000E+00 -0.00000000000E+00 -0.99786663055E+03  0.99786663055E+03  0.00000000000E+00 0.  1.
          2    1    1    2  501    0  0.11667845847E+02 -0.22224209508E+02 -0.25098070891E+02  0.35496017768E+02  0.00000000000E+00 0.  1.
          1    1    1    2  502    0 -0.11667845847E+02  0.22224209508E+02 -0.96740679325E+03  0.96773237919E+03  0.00000000000E+00 0.  1.
</event>
<event>
 4    1  0.3927513E+003  0.5402298E+02  0.7546771E-02  0.1281613E+00
          2   -1    0    0  502    0  0.00000000000E+00  0.00000000000E+00  0.69487297168E+03  0.69487297168E+03  0.00000000000E+00 0.  1.
          1   -1    0    0  501    0 -0.00000000000E+00 -0.00000000000E+00 -0.12474555297E+02  0.12474555297E+02  0.00000000000E+00 0.  1.
          2    1    1    2  501    0 -0.11733219132E+02  0.52733421255E+02  0.62924533983E+03  0.63156011578E+03  0.00000000000E+00 0.  1.
          1    1    1    2  502    0  0.11733219132E+02 -0.52733421255E+02  0.53153076551E+02  0.75787411193E+02  0.00000000000E+00 0.  1.
</event>
<event>
 4    1  0.3927513E+003  0.2772451E+02  0.7546771E-02  0.1440463E+00
          2   -1    0    0  502    0  0.00000000000E+00  0.00000000000E+00  0.20614122293E+03  0.20614122293E+03  0.00000000000E+00 0. -1.
          1   -1    0    0  501    0 -0.00000000000E+00 -0.00000000000E+00 -0.65121069458E+03  0.65121069458E+03  0.00000000000E+00 0. -1.
          2    1    1    2  501    0 -0.26287085494E+02 -0.88112081979E+01  0.20491219027E+03  0.20677923971E+03  0.00000000000E+00 0. -1.
          1    1    1    2  502    0  0.26287085494E+02  0.88112081979E+01 -0.64998166193E+03  0.65057267780E+03  0.00000000000E+00 0. -1.
</event>
<event>
 4    1  0.3927513E+003  0.2757301E+02  0.7546771E-02  0.1441935E+00
          2   -1    0    0  502    0  0.00000000000E+00  0.00000000000E+00  0.83032929897E+03  0.83032929897E+03  0.00000000000E+00 0.  1.
          1   -1    0    0  501    0 -0.00000000000E+00 -0.00000000000E+00 -0.92839166619E+02  0.92839166619E+02  0.00000000000E+00 0.  1.
          2    1    1    2  501    0  0.21160019708E+02  0.17678365325E+02  0.82804747253E+03  0.82850641989E+03  0.00000000000E+00 0.  1.
          1    1    1    2  502    0 -0.21160019708E+02 -0.17678365325E+02 -0.90557340182E+02  0.94662045697E+02  0.00000000000E+00 0.  1.
</event>
<event>
 4    1  0.3927513E+003  0.2769837E+02  0.7546771E-02  0.1440716E+00
          2   -1    0    0  502    0  0.00000000000E+00  0.00000000000E+00  0.23417447994E+02  0.23417447994E+02  0.00000000000E+00 0.  1.
          1   -1    0    0  501    0 -0.00000000000E+00 -0.00000000000E+00 -0.26849082645E+03  0.26849082645E+03  0.00000000000E+00 0. -1.
          2    1    1    2  501    0 -0.27235393602E+02 -0.50430951403E+01  0.14223013336E+02  0.31136691886E+02  0.00000000000E+00 0.  1.
          1    1    1    2  502    0  0.27235393602E+02  0.50430951403E+01 -0.25929639179E+03  0.26077158256E+03  0.00000000000E+00 0. -1.
</event>
<event>
 4    1  0.3927513E+003  0.2410187E+02  0.7546771E-02  0.1479107E+00
          2   -1    0    0  502    0  0.00000000000E+00  0.00000000000E+00  0.51725571050E+03  0.51725571050E+03  0.00000000000E+00 0.  1.
          1   -1    0    0  501    0 -0.00000000000E+00 -0.00000000000E+00 -0.77456319723E+03  0.77456319723E+03  0.00000000000E+00 0.  1.
          2    1    1    2  501    0  0.49099152520E+01 -0.23596461432E+02  0.51678728712E+03  0.51734901216E+03  0.00000000000E+00 0.  1.
          1    1    1    2  502    0 -0.49099152520E+01  0.23596461432E+02 -0.77409477384E+03  0.77446989558E+03  0.00000000000E+00 0.  1.
</event>
<event>
 4    1  0.3927513E+003  0.2186013E+02  0.7546771E-02  0.1507330E+00
          2   -1    0    0  502    0  0.00000000000E+00  0.00000000000E+00  0.37140709339E+03  0.37140709339E+03  0.00000000000E+00 0.  1.
          1   -1    0    0  501    0 -0.00000000000E+00 -0.00000000000E+00 -0.14000154179E+02  0.14000154179E+02  0.00000000000E+00 0.  1.
          2    1    1    2  501    0  0.20733892427E+02  0.69261084422E+01  0.36233885380E+03  0.36299767250E+03  0.00000000000E+00 0.  1.
          1    1    1    2  502    0 -0.20733892427E+02 -0.69261084422E+01 -0.49319145805E+01  0.22409575068E+02  0.00000000000E+00 0.  1.
</event>
<event>
 4    1  0.3927513E+003  0.2925731E+02  0.7546771E-02  0.1426162E+00
          2   -1    0    0  502    0  0.00000000000E+00  0.00000000000E+00  0.94438638417E+03  0.94438638417E+03  0.00000000000E+00 0.  1.
          1   -1    0    0  501    0 -0.00000000000E+00 -0.00000000000E+00 -0.35042852189E+03  0.35042852189E+03  0.00000000000E+00 0.  1.
          2    1    1    2  501    0  0.94259699601E+01 -0.27697313924E+02  0.94354856868E+03  0.94400206121E+03  0.00000000000E+00 0.  1.
          1    1    1    2  502    0 -0.94259699601E+01  0.27697313924E+02 -0.34959070640E+03  0.35081284485E+03  0.00000000000E+00 0.  1.
</event>
<event>
 4    1  0.3927513E+003  0.3809312E+02  0.7546771E-02  0.1360037E+00
          2   -1    0    0  502    0  0.00000000000E+00  0.00000000000E+00  0.50291421803E+03  0.50291421803E+03  0.00000000000E+00 0. -1.
          1   -1    0    0  501    0 -0.00000000000E+00 -0.00000000000E+00 -0.47754522711E+01  0.47754522711E+01  0.00000000000E+00 0. -1.
          2    1    1    2  501    0  0.21706077668E+02 -0.31303862229E+02  0.40876877338E+03  0.41053988319E+03  0.00000000000E+00 0. -1.
          1    1    1    2  502    0 -0.21706077668E+02  0.31303862229E+02  0.89369992380E+02  0.97149787113E+02  0.00000000000E+00 0. -1.
</event>
<event>
 4    1  0.3927513E+003  0.2617111E+02  0.7546771E-02  0.1456117E+00
          2   -1    0    0  502    0  0.00000000000E+00  0.00000000000E+00  0.22329472201E+01  0.22329472201E+01  0.00000000000E+00 0.  1.
          1   -1    0    0  501    0 -0.00000000000E+00 -0.00000000000E+00 -0.35859072925E+03  0.35859072925E+03  0.00000000000E+00 0.  1.
          2    1    1    2  501    0  0.15003390175E+02 -0.21443537612E+02 -0.10957378243E+03  0.11265585124E+03  0.00000000000E+00 0.  1.
          1    1    1    2  502    0 -0.15003390175E+02  0.21443537612E+02 -0.24678399959E+03  0.24816782523E+03  0.00000000000E+00 0.  1.
</event>
<event>
 4    1  0.3927513E+003  0.3804101E+02  0.7546771E-02  0.1360364E+00
          2   -1    0    0  502    0  0.00000000000E+00  0.00000000000E+00  0.20251511230E+04  0.20251511230E+04  0.00000000000E+00 0.  1.
          1   -1    0    0  501    0 -0.00000000000E+00 -0.00000000000E+00 -0.16600711953E+02  0.16600711953E+02  0.00000000000E+00 0. -1.
          2    1    1    2  501    0 -0.18425325440E+02 -0.33281018126E+02  0.20029377857E+04  0.20032990022E+04  0.00000000000E+00 0.  1.
          1    1    1    2  502    0  0.18425325440E+02  0.33281018126E+02  0.56126253592E+01  0.38452832776E+02  0.00000000000E+00 0. -1.
</event>
<event>
 4    1  0.3927513E+003  0.2037872E+02  0.7546771E-02  0.1528323E+00
          2   -1    0    0  502    0  0.00000000000E+00  0.00000000000E+00  0.98751464978E+03  0.98751464978E+03  0.00000000000E+00 0.  1.
          1   -1    0    0  501    0 -0.00000000000E+00 -0.00000000000E+00 -0.14465773426E+02  0.14465773426E+02  0.00000000000E+00 0. -1.
          2    1    1    2  501    0 -0.18478089059E+02 -0.85937499680E+01  0.98017864988E+03  0.98039047221E+03  0.00000000000E+00 0.  1.
          1    1    1    2  502    0  0.18478089059E+02  0.85937499680E+01 -0.71297735221E+01  0.21589951002E+02  0.00000000000E+00 0. -1.
</event>
<event>
 4    1  0.3927513E+003  0.2395519E+02  0.7546771E-02  0.1480840E+00
          2   -1    0    0  502    0  0.00000000000E+00  0.00000000000E+00  0.11110920405E+04  0.11110920405E+04  0.00000000000E+00 0.  1.
          1   -1    0    0  501    0 -0.00000000000E+00 -0.00000000000E+00 -0.35143973876E+01  0.35143973876E+01  0.00000000000E+00 0. -1.
          2    1    1    2  501    0 -0.18136752438E+02  0.15649578200E+02  0.10685150773E+04  0.10687835710E+04  0.00000000000E+00 0.  1.
          1    1    1    2  502    0  0.18136752438E+02 -0.15649578200E+02  0.39062565743E+02  0.45822866882E+02  0.00000000000E+00 0. -1.
</event>
<event>
 4    1  0.3927513E+003  0.3081928E+02  0.7546771E-02  0.1412608E+00
          2   -1    0    0  502    0  0.00000000000E+00  0.00000000000E+00  0.12938033217E+03  0.12938033217E+03  0.00000000000E+00 0. -1.
          1   -1    0    0  501    0 -0.00000000000E+00 -0.00000000000E+00 -0.66930333609E+02  0.66930333609E+02  0.00000000000E+00 0. -1.
          2    1    1    2  501    0  0.15914412963E+02 -0.26392415037E+02  0.12384085493E+03  0.12761812356E+03  0.00000000000E+00 0. -1.
          1    1    1    2  502    0 -0.15914412963E+02  0.26392415037E+02 -0.61390856366E+02  0.68692542221E+02  0.00000000000E+00 0. -1.
</event>
<event>
 4    1  0.3927513E+003  0.2045502E+02  0.7546771E-02  0.1527190E+00
          2   -1    0    0  502    0  0.00000000000E+00  0.00000000000E+00  0.57596166172E+02  0.57596166172E+02  0.00000000000E+00 0. -1.
          1   -1    0    0  501    0 -0.00000000000E+00 -0.00000000000E+00 -0.71251149060E+02  0.71251149060E+02  0.00000000000E+00 0. -1.
          2    1    1    2  501    0  0.20050306504E+02 -0.40488085196E+01  0.54223694967E+02  0.57953573981E+02  0.00000000000E+00 0. -1.
          1    1    1    2  502    0 -0.20050306504E+02  0.40488085196E+01 -0.67878677854E+02  0.70893741251E+02  0.00000000000E+00 0. -1.
</event>
<event>
 4    1  0.3927513E+003  0.2612351E+02  0.7546771E-02  0.1456617E+00
          2   -1    0    0  502    0  0.00000000000E+00  0.00000000000E+00  0.13522140383E+04  0.13522140383E+04  0.00000000000E+00 0. -1.
          1   -1    0    0  501    0 -0.00000000000E+00 -0.00000000000E+00 -0.10679084712E+01  0.10679084712E+01  0.00000000000E+00 0. -1.
          2    1    1    2  501    0 -0.24036674614E+02 -0.10231125252E+02  0.11669705503E+04  0.11672629108E+04  0.00000000000E+00 0. -1.
          1    1    1    2  502    0  0.24036674614E+02  0.10231125252E+02  0.18417557945E+03  0.18601903590E+03  0.00000000000E+00 0. -1.
</event>
<event>
 4    1  0.3927513E+003  0.3194345E+02  0.7546771E-02  0.1403427E+00
          2   -1    0    0  502    0  0.00000000000E+00  0.00000000000E+00  0.19964428930E+03  0.19964428930E+03  0.00000000000E+00 0.  1.
          1   -1    0    0  501    0 -0.00000000000E+00 -0.00000000000E+00 -0.80327897613E+01  0.80327897613E+01  0.00000000000E+00 0.  1.
          2    1    1    2  501    0 -0.17408464551E+02  0.26783005807E+02  0.15843094313E+03  0.16161914422E+03  0.00000000000E+00 0.  1.
          1    1    1    2  502    0  0.17408464551E+02 -0.26783005807E+02  0.33180556411E+02  0.46057934841E+02  0.00000000000E+00 0.  1.
</event>
<event>
 4    1  0.3927513E+003  0.2837620E+02  0.7546771E-02  0.1434253E+00
          2   -1    0    0  502    0  0.00000000000E+00  0.00000000000E+00  0.11372152256E+03  0.11372152256E+03  0.00000000000E+00 0. -1.
          1   -1    0    0  501    0 -0.00000000000E+00 -0.00000000000E+00 -0.33451689747E+03  0.33451689747E+03  0.00000000000E+00 0.  1.
          2    1    1    2  501    0  0.24588215262E+02 -0.14164325601E+02  0.11133693508E+03  0.11489613380E+03  0.00000000000E+00 0. -1.
          1    1    1    2  502    0 -0.24588215262E+02  0.14164325601E+02 -0.33213230999E+03  0.33334228623E+03  0.00000000000E+00 0.  1.
</event>
<event>
 4    1  0.3927513E+003  0.2100768E+02  0.7546771E-02  0.1519155E+00
          2   -1    0    0  502    0  0.00000000000E+00  0.00000000000E+00  0.17587989107E+03  0.17587989107E+03  0.00000000000E+00 0.  1.
          1   -1    0    0  501    0 -0.00000000000E+00 -0.00000000000E+00 -0.12877459436E+02  0.12877459436E+02  0.00000000000E+00 0.  1.
          2    1    1    2  501    0  0.87191846686E+01  0.19112785502E+02  0.16618711883E+03  0.16750964514E+03  0.00000000000E+00 0.  1.
          1    1    1    2  502    0 -0.87191846686E+01 -0.19112785502E+02 -0.31846871894E+01  0.21247705369E+02  0.00000000000E+00 0.  1.
</event>
<event>
 4    1  0.3927513E+003  0.2306329E+02  0.7546771E-02  0.1491705E+00
          2   -1    0    0  502    0  0.00000000000E+00  0.00000000000E+00  0.80260097604E+02  0.80260097604E+02  0.00000000000E+00 0.  1.
          1   -1    0    0  501    0 -0.00000000000E+00 -0.00000000000E+00 -0.21188726575E+03  0.21188726575E+03  0.00000000000E+00 0. -1.
          2    1    1    2  501    0 -0.20180257391E+01 -0.22974828134E+02  0.77957509273E+02  0.81297530145E+02  0.00000000000E+00 0.  1.
          1    1    1    2  502    0  0.20180257391E+01  0.22974828134E+02 -0.20958467741E+03  0.21084983321E+03  0.00000000000E+00 0. -1.
</event>
<event>
 4    1  0.3927513E+003  0.2297469E+02  0.7546771E-02  0.1492816E+00
          2   -1    0    0  502    0  0.00000000000E+00  0.00000000000E+00  0.38138454817E+03  0.38138454817E+03  0.00000000000E+00 0. -1.
          1   -1    0    0  501    0 -0.00000000000E+00 -0.00000000000E+00 -0.78649136047E+03  0.78649136047E+03  0.00000000000E+00 0. -1.
          2    1    1    2  501    0  0.19513023183E+02 -0.12127582314E+02  0.38087053989E+03  0.38156284473E+03  0.00000000000E+00 0. -1.
          1    1    1    2  502    0 -0.19513023183E+02  0.12127582314E+02 -0.78597735219E+03  0.78631306391E+03  0.00000000000E+00 0. -1.
</event>
<event>
 4    1  0.3927513E+003  0.2125901E+02  0.7546771E-02  0.1515599E+00
          2   -1    0    0  502    0  0.00000000000E+00  0.00000000000E+00  0.13108367575E+01  0.13108367575E+01  0.00000000000E+00 0.  1.
          1   -1    0    0  501    0 -0.00000000000E+00 -0.00000000000E+00 -0.53701470934E+03  0.53701470934E+03  0.00000000000E+00 0.  1.
          2    1    1    2  501    0  0.16090654900E+02  0.13893750917E+02 -0.10680890052E+03  0.10890402527E+03  0.00000000000E+00 0.  1.
          1    1    1    2  502    0 -0.16090654900E+02 -0.13893750917E+02 -0.42889497206E+03  0.42942152083E+03  0.00000000000E+00 0.  1.
</event>
<event>
 4    1  0.3927513E+003  0.2150581E+02  0.7546771E-02  0.1512164E+00
          2   -1    0    0  502    0  0.00000000000E+00  0.00000000000E+00  0.10991042921E+01  0.10991042921E+01  0.00000000000E+00 0.  1.
          1   -1    0    0  501    0 -0.00000000000E+00 -0.00000000000E+00 -0.97634349109E+03  0.97634349109E+03  0.00000000000E+00 0.  1.
          2    1    1    2  501    0  0.14685271465E+02 -0.15711223743E+02 -0.11896716155E+03  0.12089534845E+03  0.00000000000E+00 0.  1.
          1    1    1    2  502    0 -0.14685271465E+02  0.15711223743E+02 -0.85627722524E+03  0.85654724693E+03  0.00000000000E+00 0.  1.
</event>
<event>
 4    1  0.3927513E+003  0.2370949E+02  0.7546771E-02  0.1483776E+00
          2   -1    0    0  502    0  0.00000000000E+00  0.00000000000E+00  0.22857580990E+01  0.22857580990E+01  0.00000000000E+00 0.  1.
          1   -1    0    0  501    0 -0.00000000000E+00 -0.00000000000E+00 -0.43370391227E+03  0.43370391227E+03  0.00000000000E+00 0. -1.
          2    1    1    2  501    0  0.18763453487E+02 -0.14493891892E+02 -0.72270707319E+02  0.76060470846E+02  0.00000000000E+00 0.  1.
          1    1    1    2  502    0 -0.18763453487E+02  0.14493891892E+02 -0.35914744685E+03  0.35992919952E+03  0.00000000000E+00 0. -1.
</event>
<event>
 4    1  0.3927513E+003  0.2018969E+02  0.7546771E-02  0.1531155E+00
          2   -1    0    0  502    0  0.00000000000E+00  0.00000000000E+00  0.20173563760E+02  0.20173563760E+02  0.00000000000E+00 0.  1.
          1   -1    0    0  501    0 -0.00000000000E+00 -0.00000000000E+00 -0.56023226887E+03  0.56023226887E+03  0.00000000000E+00 0.  1.
          2    1    1    2  501    0 -0.14031964981E+02 -0.14516458363E+02  0.14892148471E+02  0.25087839499E+02  0.00000000000E+00 0.  1.
          1    1    1    2  502    0  0.14031964981E+02  0.14516458363E+02 -0.55495085358E+03  0.55531799313E+03  0.00000000000E+00 0.  1.
</event>
<event>
 4    1  0.3927513E+003  0.4019870E+02  0.7546771E-02  0.1347325E+00
          2   -1    0    0  502    0  0.00000000000E+00  0.00000000000E+00  0.40267030540E+02  0.40267030540E+02  0.00000000000E+00 0.  1.
          1   -1    0    0  501    0 -0.00000000000E+00 -0.00000000000E+00 -0.52365332605E+03  0.52365332605E+03  0.00000000000E+00 0.  1.
          2    1    1    2  501    0 -0.16683979519E+02  0.36572940845E+02  0.29247611700E+02  0.49712754549E+02  0.00000000000E+00 0.  1.
          1    1    1    2  502    0  0.16683979519E+02 -0.36572940845E+02 -0.51263390721E+03  0.51420760204E+03  0.00000000000E+00 0.  1.
</event>
<event>
 4    1  0.3927513E+003  0.3359006E+02  0.7546771E-02  0.1390756E+00
          2   -1    0    0  502    0  0.00000000000E+00  0.00000000000E+00  0.39374479122E+03  0.39374479122E+03  0.00000000000E+00 0.  1.
          1   -1    0    0  501    0 -0.00000000000E+00 -0.00000000000E+00 -0.34347550074E+02  0.34347550074E+02  0.00000000000E+00 0. -1.
          2    1    1    2  501    0 -0.16136974304E+02 -0.29459971775E+02  0.38462166493E+03  0.38608563430E+03  0.00000000000E+00 0.  1.
          1    1    1    2  502    0  0.16136974304E+02  0.29459971775E+02 -0.25224423791E+02  0.42006706991E+02  0.00000000000E+00 0. -1.
</event>
<event>
 4    1  0.3927513E+003  0.2330849E+02  0.7546771E-02  0.1488660E+00
          2   -1    0    0  502    0  0.00000000000E+00  0.00000000000E+00  0.12768116063E+03  0.12768116063E+03  0.00000000000E+00 0.  1.
          1   -1    0    0  501    0 -0.00000000000E+00 -0.00000000000E+00 -0.77072005144E+02  0.77072005144E+02  0.00000000000E+00 0. -1.
          2    1    1    2  501    0 -0.22829283545E+02 -0.47020623490E+01  0.12481501966E+03  0.12697273215E+03  0.00000000000E+00 0.  1.
          1    1    1    2  502    0  0.22829283545E+02  0.47020623490E+01 -0.74205864171E+02  0.77780433625E+02  0.00000000000E+00 0. -1.
</event>
<event>
 4    1  0.3927513E+003  0.3290525E+02  0.7546771E-02  0.1395920E+00
          2   -1    0    0  502    0  0.00000000000E+00  0.00000000000E+00  0.24637392266E+02  0.24637392266E+02  0.00000000000E+00 0. -1.
          1   -1    0    0  501    0 -0.00000000000E+00 -0.00000000000E+00 -0.86935064201E+02  0.86935064201E+02  0.00000000000E+00 0. -1.
          2    1    1    2  501    0 -0.20956357422E+02 -0.25369007410E+02  0.80795264248E+01  0.33882653388E+02  0.00000000000E+00 0. -1.
          1    1    1    2  502    0  0.20956357422E+02  0.25369007410E+02 -0.70377198360E+02  0.77689803079E+02  0.00000000000E+00 0. -1.
</event>
<event>
 4    1  0.3927513E+003  0.2048793E+02  0.7546771E-02  0.1526703E+00
          2   -1    0    0  502    0  0.00000000000E+00  0.00000000000E+00  0.43704126836E+01  0.43704126836E+01  0.00000000000E+00 0. -1.
          1   -1    0    0  501    0 -0.00000000000E+00 -0.00000000000E+00 -0.97662747114E+02  0.97662747114E+02  0.00000000000E+00 0. -1.
          2    1    1    2  501    0  0.13229560533E+02  0.15643958963E+02 -0.53212912409E+02  0.57020774907E+02  0.00000000000E+00 0. -1.
          1    1    1    2  502    0 -0.13229560533E+02 -0.15643958963E+02 -0.40079422022E+02  0.45012384891E+02  0.00000000000E+00 0. -1.
</event>
<event>
 4    1  0.3927513E+003  0.2418458E+02  0.7546771E-02  0.1478136E+00
          2   -1    0    0  502    0  0.00000000000E+00  0.00000000000E+00  0.46100682503E+01  0.46100682503E+01  0.00000000000E+00 0. -1.
          1   -1    0    0  501    0 -0.00000000000E+00 -0.00000000000E+00 -0.11973444686E+04  0.11973444686E+04  0.00000000000E+00 0.  1.
          2    1    1    2  501    0 -0.24052745309E+02 -0.25218163018E+01 -0.28121711111E+02  0.37090763677E+02  0.00000000000E+00 0. -1.
          1    1    1    2  502    0  0.24052745309E+02  0.25218163018E+01 -0.11646126892E+04  0.11648637732E+04  0.00000000000E+00 0.  1.
</event>
<event>
 4    1  0.3927513E+003  0.2157896E+02  0.7546771E-02  0.1511157E+00
          2   -1    0    0  502    0  0.00000000000E+00  0.00000000000E+00  0.32256184717E+03  0.32256184717E+03  0.00000000000E+00 0.  1.
          1   -1    0    0  501    0 -0.00000000000E+00 -0.00000000000E+00 -0.17040888658E+02  0.17040888658E+02  0.00000000000E+00 0. -1.
          2    1    1    2  501    0 -0.12603587159E+02 -0.17515741570E+02  0.31521042200E+03  0.31594819472E+03  0.00000000000E+00 0.  1.
          1    1    1    2  502    0  0.12603587159E+02  0.17515741570E+02 -0.96894634890E+01  0.23654541102E+02  0.00000000000E+00 0. -1.
</event>
<event>
 4    1  0.3927513E+003  0.2026931E+02  0.7546771E-02  0.1529958E+00
          2   -1    0    0  502    0  0.00000000000E+00  0.00000000000E+00  0.80235672737E+01  0.80235672737E+01  0.00000000000E+00 0. -1.
          1   -1    0    0  501    0 -0.00000000000E+00 -0.00000000000E+00 -0.16189966186E+03  0.16189966186E+03  0.00000000000E+00 0.  1.
          2    1    1    2  501    0 -0.12141556662E+02 -0.16230453558E+02 -0.66852614282E+01  0.21343330134E+02  0.00000000000E+00 0. -1.
          1    1    1    2  502    0  0.12141556662E+02  0.16230453558E+02 -0.14719083315E+03  0.14857989900E+03  0.00000000000E+00 0.  1.
</event>
<event>
 4    1  0.3927513E+003  0.4028078E+02  0.7546771E-02  0.1346848E+00
          2   -1    0    0  502    0  0.00000000000E+00  0.00000000000E+00  0.18028938603E+04  0.18028938603E+04  0.00000000000E+00 0.  1.
          1   -1    0    0  501    0 -0.00000000000E+00 -0.00000000000E+00 -0.57478063661E+01  0.57478063661E+01  0.00000000000E+00 0.  1.
          2    1    1    2  501    0 -0.36951850360E+02  0.16034399979E+02  0.17290845743E+04  0.17295537015E+04  0.00000000000E+00 0.  1.
          1    1    1    2  502    0  0.36951850360E+02 -0.16034399979E+02  0.68061479667E+02  0.79087965217E+02  0.00000000000E+00 0.  1.
</event>
<event>
 4    1  0.3927513E+003  0.2493677E+02  0.7546771E-02  0.1469512E+00
          2   -1    0    0  502    0  0.00000000000E+00  0.00000000000E+00  0.40659964800E+03  0.40659964800E+03  0.00000000000E+00 0.  1.
          1   -1    0    0  501    0 -0.00000000000E+00 -0.00000000000E+00 -0.86094880988E+02  0.86094880988E+02  0.00000000000E+00 0. -1.
          2    1    1    2  501    0  0.99520891609E+00 -0.24916902786E+02  0.40440181107E+03  0.40516992396E+03  0.00000000000E+00 0.  1.
          1    1    1    2  502    0 -0.99520891609E+00  0.24916902786E+02 -0.83897044053E+02  0.87524605033E+02  0.00000000000E+00 0. -1.
</event>
<event>
 4    1  0.3927513E+003  0.2127256E+02  0.7546771E-02  0.1515409E+00
          2   -1    0    0  502    0  0.00000000000E+00  0.00000000000E+00  0.42635909848E+01  0.42635909848E+01  0.00000000000E+00 0.  1.
          1   -1    0    0  501    0 -0.00000000000E+00 -0.00000000000E+00 -0.15397167526E+03  0.15397167526E+03  0.00000000000E+00 0.  1.
          2    1    1    2  501    0  0.21272255145E+02 -0.11469887892E+00 -0.30755196198E+02  0.37395241515E+02  0.00000000000E+00 0.  1.
          1    1    1    2  502    0 -0.21272255145E+02  0.11469887892E+00 -0.11895288808E+03  0.12084002473E+03  0.00000000000E+00 0.  1.
</event>
<event>
 4    1  0.3927513E+003  0.2135713E+02  0.7546771E-02  0.1514227E+00
          2   -1    0    0  502    0  0.00000000000E+00  0.00000000000E+00  0.51215968506E+01  0.51215968506E+01  0.00000000000E+00 0.  1.
          1   -1    0    0  501    0 -0.00000000000E+00 -0.00000000000E+00 -0.11193720804E+03  0.11193720804E+03  0.00000000000E+00 0.  1.
          2    1    1    2  501    0 -0.13134952639E+01 -0.21316697742E+02 -0.26947608253E+02  0.34384596304E+02  0.00000000000E+00 0.  1.
          1    1    1    2  502    0  0.13134952639E+01  0.21316697742E+02 -0.79868002936E+02  0.82674208586E+02  0.00000000000E+00 0.  1.
</event>
<event>
 4    1  0.3927513E+003  0.3985487E+02  0.7546771E-02  0.1349338E+00
          2   -1    0    0  502    0  0.00000000000E+00  0.00000000000E+00  0.15158589650E+04  0.15158589650E+04  0.00000000000E+00 0.  1.
          1   -1    0    0  501    0 -0.00000000000E+00 -0.00000000000E+00 -0.44647399502E+02  0.44647399502E+02  0.00000000000E+00 0. -1.
          2    1    1    2  501    0  0.36671460007E+02 -0.15608171514E+02  0.15066484399E+04  0.15071754816E+04  0.00000000000E+00 0.  1.
          1    1    1    2  502    0 -0.36671460007E+02  0.15608171514E+02 -0.35436874417E+02  0.53330882850E+02  0.00000000000E+00 0. -1.
</event>
<event>
 4    1  0.3927513E+003  0.2478273E+02  0.7546771E-02  0.1471249E+00
          2   -1    0    0  502    0  0.00000000000E+00  0.00000000000E+00  0.19195358380E+03  0.19195358380E+03  0.00000000000E+00 0. -1.
          1   -1    0    0  501    0 -0.00000000000E+00 -0.00000000000E+00 -0.11174105670E+04  0.11174105670E+04  0.00000000000E+00 0.  1.
          2    1    1    2  501    0  0.49049571047E+01  0.24292494531E+02  0.19101558754E+03  0.19261655842E+03  0.00000000000E+00 0. -1.
          1    1    1    2  502    0 -0.49049571047E+01 -0.24292494531E+02 -0.11164725708E+04  0.11167475924E+04  0.00000000000E+00 0.  1.
</event>
<event>
 4    1  0.3927513E+003  0.2187394E+02  0.7546771E-02  0.1507144E+00
          2   -1    0    0  502    0  0.00000000000E+00  0.00000000000E+00  0.10711272427E+01  0.10711272427E+01  0.00000000000E+00 0.  1.
          1   -1    0    0  501    0 -0.00000000000E+00 -0.00000000000E+00 -0.47004649946E+03  0.47004649946E+03  0.00000000000E+00 0.  1.
          2    1    1    2  501    0 -0.15971585710E+02 -0.14945822959E+02 -0.18198650750E+03  0.18329636681E+03  0.00000000000E+00 0.  1.
          1    1    1    2  502    0  0.15971585710E+02  0.14945822959E+02 -0.28698886471E+03  0.28782125989E+03  0.00000000000E+00 0.  1.
</event>
<event>
 4    1  0.3927513E+003  0.3098219E+02  0.7546771E-02  0.1411249E+00
          2   -1    0    0  502    0  0.00000000000E+00  0.00000000000E+00  0.19499515052E+03  0.19499515052E+03  0.00000000000E+00 0.  1.
          1   -1    0    0  501    0 -0.00000000000E+00 -0.00000000000E+00 -0.42722381319E+02  0.42722381319E+02  0.00000000000E+00 0.  1.
          2    1    1    2  501    0 -0.30468461130E+02  0.56186528039E+01  0.18793791384E+03  0.19047455431E+03  0.00000000000E+00 0.  1.
          1    1    1    2  502    0  0.30468461130E+02 -0.56186528039E+01 -0.35665144640E+02  0.47242977523E+02  0.00000000000E+00 0.  1.
</event>
<event>
 4    1  0.3927513E+003  0.2589137E+02  0.7546771E-02  0.1459074E+00
          2   -1    0    0  502    0  0.00000000000E+00  0.00000000000E+00  0.29073730765E+03  0.29073730765E+03  0.00000000000E+00 0. -1.
          1   -1    0    0  501    0 -0.00000000000E+00 -0.00000000000E+00 -0.23187498993E+01  0.23187498993E+01  0.00000000000E+00 0. -1.
          2    1    1    2  501    0  0.33218666835E+01 -0.25677388272E+02  0.15518722274E+03  0.15733225089E+03  0.00000000000E+00 0. -1.
          1    1    1    2  502    0 -0.33218666835E+01  0.25677388272E+02  0.13323133501E+03  0.13572380667E+03  0.00000000000E+00 0. -1.
</event>
<event>
 4    1  0.3927513E+003  0.2137282E+02  0.7546771E-02  0.1514008E+00
          2   -1    0    0  502    0  0.00000000000E+00  0.00000000000E+00  0.20366514505E+02  0.20366514505E+02  0.00000000000E+00 0. -1.
          1   -1    0    0  501    0 -0.00000000000E+00 -0.00000000000E+00 -0.19868342820E+03  0.19868342820E+03  0.00000000000E+00 0.  1.
          2    1    1    2  501    0  0.57694536210E+01  0.20579378390E+02  0.13999453100E+02  0.25549600723E+02  0.00000000000E+00 0. -1.
          1    1    1    2  502    0 -0.57694536210E+01 -0.20579378390E+02 -0.19231636680E+03  0.19350034199E+03  0.00000000000E+00 0.  1.
</event>
<event>
 4    1  0.3927513E+003  0.2075150E+02  0.7546771E-02  0.1522843E+00
          2   -1    0    0  502    0  0.00000000000E+00  0.00000000000E+00  0.59839324815E+01  0.59839324815E+01  0.00000000000E+00 0. -1.
          1   -1    0    0  501    0 -0.00000000000E+00 -0.00000000000E+00 -0.10126512586E+03  0.10126512586E+03  0.00000000000E+00 0. -1.
          2    1    1    2  501    0  0.18160576100E+02 -0.10040804594E+02 -0.76486221326E+02  0.79251286007E+02  0.00000000000E+00 0. -1.
          1    1    1    2  502    0 -0.18160576100E+02  0.10040804594E+02 -0.18794972051E+02  0.27997772332E+02  0.00000000000E+00 0. -1.
</event>
<event>
 4    1  0.3927513E+003  0.4413480E+02  0.7546771E-02  0.1325823E+00
          2   -1    0    0  502    0  0.00000000000E+00  0.00000000000E+00  0.28573889481E+03  0.28573889481E+03  0.00000000000E+00 0.  1.
          1   -1    0    0  501    0 -0.00000000000E+00 -0.00000000000E+00 -0.33116453330E+02  0.33116453330E+02  0.00000000000E+00 0.  1.
          2    1    1    2  501    0 -0.26894166160E+02  0.34994057892E+02  0.26838541861E+03  0.27199009759E+03  0.00000000000E+00 0.  1.
          1    1    1    2  502    0  0.26894166160E+02 -0.34994057892E+02 -0.15762977134E+02  0.46865250552E+02  0.00000000000E+00 0.  1.
</event>
<event>
 4    1  0.3927513E+003  0.3532998E+02  0.7546771E-02  0.1378258E+00
          2   -1    0    0  502    0  0.00000000000E+00  0.00000000000E+00  0.46072549872E+01  0.46072549872E+01  0.00000000000E+00 0.  1.
          1   -1    0    0  501    0 -0.00000000000E+00 -0.00000000000E+00 -0.30934585055E+03  0.30934585055E+03  0.00000000000E+00 0.  1.
          2    1    1    2  501    0 -0.97457819818E+01 -0.33959198975E+02 -0.97045473642E+02  0.10327648046E+03  0.00000000000E+00 0.  1.
          1    1    1    2  502    0  0.97457819818E+01  0.33959198975E+02 -0.20769312192E+03  0.21067662508E+03  0.00000000000E+00 0.  1.
</event>
<event>
 4    1  0.3927513E+003  0.2578113E+02  0.7546771E-02  0.1460252E+00
          2   -1    0    0  502    0  0.00000000000E+00  0.00000000000E+00  0.60093358286E+03  0.60093358286E+03  0.00000000000E+00 0. -1.
          1   -1    0    0  501    0 -0.00000000000E+00 -0.00000000000E+00 -0.35486240183E+01  0.35486240183E+01  0.00000000000E+00 0. -1.
          2    1    1    2  501    0  0.91280614539E+00 -0.25764968538E+02  0.54944584639E+03  0.55005036582E+03  0.00000000000E+00 0. -1.
          1    1    1    2  502    0 -0.91280614539E+00  0.25764968538E+02  0.47939112451E+02  0.54431841062E+02  0.00000000000E+00 0. -1.
</event>
<event>
 4    1  0.3927513E+003  0.6780920E+02  0.7546771E-02  0.1235383E+00
          2   -1    0    0  502    0  0.00000000000E+00  0.00000000000E+00  0.68132502277E+01  0.68132502277E+01  0.00000000000E+00 0. -1.
          1   -1    0    0  501    0 -0.00000000000E+00 -0.00000000000E+00 -0.80447803044E+03  0.80447803044E+03  0.00000000000E+00 0.  1.
          2    1    1    2  501    0 -0.62573304727E+02  0.26127946920E+02 -0.23601592448E+03  0.24556385053E+03  0.00000000000E+00 0. -1.
          1    1    1    2  502    0  0.62573304727E+02 -0.26127946920E+02 -0.56164885572E+03  0.56572743014E+03  0.00000000000E+00 0.  1.
</event>
<event>
 4    1  0.3927513E+003  0.2260911E+02  0.7546771E-02  0.1497466E+00
          2   -1    0    0  502    0  0.00000000000E+00  0.00000000000E+00  0.37541583524E+02  0.37541583524E+02  0.00000000000E+00 0. -1.
          1   -1    0    0  501    0 -0.00000000000E+00 -0.00000000000E+00 -0.16054891097E+02  0.16054891097E+02  0.00000000000E+00 0.  1.
          2    1    1    2  501    0  0.11945196715E+02 -0.19195942274E+02  0.21187786644E+02  0.30985387318E+02  0.00000000000E+00 0. -1.
          1    1    1    2  502    0 -0.11945196715E+02  0.19195942274E+02  0.29890578268E+00  0.22611087303E+02  0.00000000000E+00 0.  1.
</event>
<event>
 4    1  0.3927513E+003  0.2195458E+02  0.7546771E-02  0.1506060E+00
          2   -1    0    0  502    0  0.00000000000E+00  0.00000000000E+00  0.39331677303E+02  0.39331677303E+02  0.00000000000E+00 0. -1.
          1   -1    0    0  501    0 -0.00000000000E+00 -0.00000000000E+00 -0.19377676905E+03  0.19377676905E+03  0.00000000000E+00 0. -1.
          2    1    1    2  501    0  0.16176258442E+02 -0.14843592373E+02  0.35585922625E+02  0.41813412451E+02  0.00000000000E+00 0. -1.
          1    1    1    2  502    0 -0.16176258442E+02  0.14843592373E+02 -0.19003101438E+03  0.19129503390E+03  0.00000000000E+00 0. -1.
</event>
<event>
 4    1  0.3927513E+003  0.2019077E+02  0.7546771E-02  0.1531139E+00
          2   -1    0    0  502    0  0.00000000000E+00  0.00000000000E+00  0.12709000533E+02  0.12709000533E+02  0.00000000000E+00 0.  1.
          1   -1    0    0  501    0 -0.00000000000E+00 -0.00000000000E+00 -0.79752737293E+02  0.79752737293E+02  0.00000000000E+00 0. -1.
          2    1    1    2  501    0  0.17124886919E+02 -0.10696044054E+02  0.22225131349E+01  0.20312721999E+02  0.00000000000E+00 0.  1.
          1    1    1    2  502    0 -0.17124886919E+02  0.10696044054E+02 -0.69266249894E+02  0.72149015827E+02  0.00000000000E+00 0. -1.
</event>
<event>
 4    1  0.3927513E+003  0.2304187E+02  0.7546771E-02  0.1491973E+00
          2   -1    0    0  502    0  0.00000000000E+00  0.00000000000E+00  0.13166917563E+04  0.13166917563E+04  0.00000000000E+00 0.  1.
          1   -1    0    0  501    0 -0.00000000000E+00 -0.00000000000E+00 -0.27618361332E+02  0.27618361332E+02  0.00000000000E+00 0. -1.
          2    1    1    2  501    0  0.18100125093E+02 -0.14258800937E+02  0.13117669749E+04  0.13119693306E+04  0.00000000000E+00 0.  1.
          1    1    1    2  502    0 -0.18100125093E+02  0.14258800937E+02 -0.22693579975E+02  0.32340787013E+02  0.00000000000E+00 0. -1.
</event>
<event>
 4    1  0.3927513E+003  0.2555948E+02  0.7546771E-02  0.1462641E+00
          2   -1    0    0  502    0  0.00000000000E+00  0.00000000000E+00  0.92591887309E+03  0.92591887309E+03  0.00000000000E+00 0.  1.
          1   -1    0    0  501    0 -0.00000000000E+00 -0.00000000000E+00 -0.29009902337E+03  0.29009902337E+03  0.00000000000E+00 0. -1.
          2    1    1    2  501    0  0.18257360161E+02 -0.17887313915E+02  0.92517904771E+03  0.92553204024E+03  0.00000000000E+00 0.  1.
          1    1    1    2  502    0 -0.18257360161E+02  0.17887313915E+02 -0.28935919799E+03  0.29048585621E+03  0.00000000000E+00 0. -1.
</event>
<event>
 4    1  0.3927513E+003  0.2876487E+02  0.7546771E-02  0.1430642E+00
          2   -1    0    0  502    0  0.00000000000E+00  0.00000000000E+00  0.75704368391E+01  0.75704368391E+01  0.00000000000E+00 0. -1.
          1   -1    0    0  501    0 -0.00000000000E+00 -0.00000000000E+00 -0.32374273377E+03  0.32374273377E+03  0.00000000000E+00 0. -1.
          2    1    1    2  501    0 -0.26429127550E+02 -0.11354240287E+02 -0.23261738088E+02  0.36993594235E+02  0.00000000000E+00 0. -1.
          1    1    1    2  502    0  0.26429127550E+02  0.11354240287E+02 -0.29291055885E+03  0.29431957638E+03  0.00000000000E+00 0. -1.
</event>
<event>
 4    1  0.3927513E+003  0.3331172E+02  0.7546771E-02  0.1392837E+00
          2   -1    0    0  502    0  0.00000000000E+00  0.00000000000E+00  0.12415621166E+03  0.12415621166E+03  0.00000000000E+00 0.  1.
          1   -1    0    0  501    0 -0.00000000000E+00 -0.00000000000E+00 -0.13398576333E+04  0.13398576333E+04  0.00000000000E+00 0. -1.
          2    1    1    2  501    0 -0.14206743368E+02 -0.30130371662E+02  0.12171065157E+03  0.12618697857E+03  0.00000000000E+00 0.  1.
          1    1    1    2  502    0  0.14206743368E+02  0.30130371662E+02 -0.13374120732E+04  0.13378268664E+04  0.00000000000E+00 0. -1.
</event>
<event>
 4    1  0.3927513E+003  0.2257576E+02  0.7546771E-02  0.1497895E+00
          2   -1    0    0  502    0  0.00000000000E+00  0.00000000000E+00  0.31262579433E+03  0.31262579433E+03  0.00000000000E+00 0.  1.
          1   -1    0    0  501    0 -0.00000000000E+00 -0.00000000000E+00 -0.79760293875E+01  0.79760293875E+01  0.00000000000E+00 0.  1.
          2    1    1    2  501    0  0.11200774942E+02  0.19601209285E+02  0.29530787638E+03  0.29616955721E+03  0.00000000000E+00 0.  1.
          1    1    1    2  502    0 -0.11200774942E+02 -0.19601209285E+02  0.93418885582E+01  0.24432266505E+02  0.00000000000E+00 0.  1.
</event>
<event>
 4    1  0.3927513E+003  0.2755049E+02  0.7546771E-02  0.1442155E+00
          2   -1    0    0  502    0  0.00000000000E+00  0.00000000000E+00  0.40896381574E+02  0.40896381574E+02  0.00000000000E+00 0. -1.
          1   -1    0    0  501    0 -0.00000000000E+00 -0.00000000000E+00 -0.27905527598E+03  0.27905527598E+03  0.00000000000E+00 0.  1.
          2    1    1    2  501    0  0.17910170807E+02  0.20934550591E+02  0.35484899573E+02  0.44924466880E+02  0.00000000000E+00 0. -1.
          1    1    1    2  502    0 -0.17910170807E+02 -0.20934550591E+02 -0.27364379398E+03  0.27502719067E+03  0.00000000000E+00 0.  1.
</event>
<event>
 4    1  0.3927513E+003  0.2132307E+02  0.7546771E-02  0.1514702E+00
          2   -1    0    0  502    0  0.00000000000E+00  0.00000000000E+00  0.64217092617E+02  0.64217092617E+02  0.00000000000E+00 0.  1.
          1   -1    0    0  501    0 -0.00000000000E+00 -0.00000000000E+00 -0.83739177427E+02  0.83739177427E+02  0.00000000000E+00 0. -1.
          2    1    1    2  501    0 -0.14101650515E+02 -0.15994270747E+02  0.61020560762E+02  0.64638858899E+02  0.00000000000E+00 0.  1.
          1    1    1    2  502    0  0.14101650515E+02  0.15994270747E+02 -0.80542645573E+02  0.83317411145E+02  0.00000000000E+00 0. -1.
</event>
<event>
 4    1  0.3927513E+003  0.3071667E+02  0.7546771E-02  0.1413469E+00
          2   -1    0    0  502    0  0.00000000000E+00  0.00000000000E+00  0.54630008084E+03  0.54630008084E+03  0.00000000000E+00 0.  1.
          1   -1    0    0  501    0 -0.00000000000E+00 -0.00000000000E+00 -0.47737223919E+03  0.47737223919E+03  0.00000000000E+00 0. -1.
          2    1    1    2  501    0  0.28281783026E+02 -0.11985595688E+02  0.54537334891E+03  0.54623768037E+03  0.00000000000E+00 0.  1.
          1    1    1    2  502    0 -0.28281783026E+02  0.11985595688E+02 -0.47644550727E+03  0.47743463966E+03  0.00000000000E+00 0. -1.
</event>
<event>
 4    1  0.3927513E+003  0.2584979E+02  0.7546771E-02  0.1459517E+00
          2   -1    0    0  502    0  0.00000000000E+00  0.00000000000E+00  0.48741714889E+02  0.48741714889E+02  0.00000000000E+00 0.  1.
          1   -1    0    0  501    0 -0.00000000000E+00 -0.00000000000E+00 -0.87353613576E+03  0.87353613576E+03  0.00000000000E+00 0.  1.
          2    1    1    2  501    0 -0.23765796913E+02  0.10168505419E+02  0.45108858859E+02  0.51990583310E+02  0.00000000000E+00 0.  1.
          1    1    1    2  502    0  0.23765796913E+02 -0.10168505419E+02 -0.86990327973E+03  0.87028726734E+03  0.00000000000E+00 0.  1.
</event>
<event>
 4    1  0.3927513E+003  0.2438705E+02  0.7546771E-02  0.1475779E+00
          2   -1    0    0  502    0  0.00000000000E+00  0.00000000000E+00  0.24412481136E+02  0.24412481136E+02  0.00000000000E+00 0. -1.
          1   -1    0    0  501    0 -0.00000000000E+00 -0.00000000000E+00 -0.29791870974E+02  0.29791870974E+02  0.00000000000E+00 0.  1.
          2    1    1    2  501    0 -0.23801350829E+02  0.53126370310E+01  0.88811180302E+01  0.25953856572E+02  0.00000000000E+00 0. -1.
          1    1    1    2  502    0  0.23801350829E+02 -0.53126370310E+01 -0.14260507868E+02  0.28250495538E+02  0.00000000000E+00 0.  1.
</event>
<event>
 4    1  0.3927513E+003  0.2373551E+02  0.7546771E-02  0.1483463E+00
          2   -1    0    0  502    0  0.00000000000E+00  0.00000000000E+00  0.71115966739E+03  0.71115966739E+03  0.00000000000E+00 0.  1.
          1   -1    0    0  501    0 -0.00000000000E+00 -0.00000000000E+00 -0.28509113278E+03  0.28509113278E+03  0.00000000000E+00 0.  1.
          2    1    1    2  501    0 -0.89192183416E+01 -0.21995955053E+02  0.71046710794E+03  0.71086347913E+03  0.00000000000E+00 0.  1.
          1    1    1    2  502    0  0.89192183416E+01  0.21995955053E+02 -0.28439857334E+03  0.28538732104E+03  0.00000000000E+00 0.  1.
</event>
<event>
 4    1  0.3927513E+003  0.2072289E+02  0.7546771E-02  0.1523258E+00
          2   -1    0    0  502    0  0.00000000000E+00  0.00000000000E+00  0.63172048796E+03  0.63172048796E+03  0.00000000000E+00 0. -1.
          1   -1    0    0  501    0 -0.00000000000E+00 -0.00000000000E+00 -0.67985471682E+00  0.67985471682E+00  0.00000000000E+00 0.  1.
          2    1    1    2  501    0 -0.10228786744E+02  0.18022479326E+02  0.31245679954E+03  0.31314324105E+03  0.00000000000E+00 0. -1.
          1    1    1    2  502    0  0.10228786744E+02 -0.18022479326E+02  0.31858383371E+03  0.31925710163E+03  0.00000000000E+00 0.  1.
</event>
<event>
 4    1  0.3927513E+003  0.2235965E+02  0.7546771E-02  0.1500699E+00
          2   -1    0    0  502    0  0.00000000000E+00  0.00000000000E+00  0.98927939599E+03  0.98927939599E+03  0.00000000000E+00 0.  1.
          1   -1    0    0  501    0 -0.00000000000E+00 -0.00000000000E+00 -0.12042954942E+01  0.12042954942E+01  0.00000000000E+00 0. -1.
          2    1    1    2  501    0  0.19852810344E+02 -0.10286888040E+02  0.87131913776E+03  0.87160598551E+03  0.00000000000E+00 0.  1.
          1    1    1    2  502    0 -0.19852810344E+02  0.10286888040E+02  0.11675596273E+03  0.11887770597E+03  0.00000000000E+00 0. -1.
</event>
<event>
 4    1  0.3927513E+003  0.2336669E+02  0.7546771E-02  0.1487944E+00
          2   -1    0    0  502    0  0.00000000000E+00  0.00000000000E+00  0.64984258627E+02  0.64984258627E+02  0.00000000000E+00 0.  1.
          1   -1    0    0  501    0 -0.00000000000E+00 -0.00000000000E+00 -0.96585891802E+01  0.96585891802E+01  0.00000000000E+00 0.  1.
          2    1    1    2  501    0 -0.23287968377E+02  0.19164339595E+01  0.41124109330E+02  0.47298991093E+02  0.00000000000E+00 0.  1.
          1    1    1    2  502    0  0.23287968377E+02 -0.19164339595E+01  0.14201560118E+02  0.27343856715E+02  0.00000000000E+00 0.  1.
</event>
<event>
 4    1  0.3927513E+003  0.2189040E+02  0.7546771E-02  0.1506922E+00
          2   -1    0    0  502    0  0.00000000000E+00  0.00000000000E+00  0.68141220529E+02  0.68141220529E+02  0.00000000000E+00 0. -1.
          1   -1    0    0  501    0 -0.00000000000E+00 -0.00000000000E+00 -0.13616996510E+03  0.13616996510E+03  0.00000000000E+00 0.  1.
          2    1    1    2  501    0  0.13375843296E+02 -0.17328489388E+02  0.65468414989E+02  0.69031174766E+02  0.00000000000E+00 0. -1.
          1    1    1    2  502    0 -0.13375843296E+02  0.17328489388E+02 -0.13349715956E+03  0.13528001087E+03  0.00000000000E+00 0.  1.
</event>
<event>
 4    1  0.3927513E+003  0.2406711E+02  0.7546771E-02  0.1479516E+00
          2   -1    0    0  502    0  0.00000000000E+00  0.00000000000E+00  0.10577836080E+04  0.10577836080E+04  0.00000000000E+00 0.  1.
          1   -1    0    0  501    0 -0.00000000000E+00 -0.00000000000E+00 -0.71221085046E+02  0.71221085046E+02  0.00000000000E+00 0. -1.
          2    1    1    2  501    0  0.90697676638E+01  0.22292716209E+02  0.10556093280E+04  0.10558836485E+04  0.00000000000E+00 0.  1.
          1    1    1    2  502    0 -0.90697676638E+01 -0.22292716209E+02 -0.69046804983E+02  0.73121044575E+02  0.00000000000E+00 0. -1.
</event>
<event>
 4    1  0.3927513E+003  0.2089627E+02  0.7546771E-02  0.1520751E+00
          2   -1    0    0  502    0  0.00000000000E+00  0.00000000000E+00  0.93725029952E+02  0.93725029952E+02  0.00000000000E+00 0.  1.
          1   -1    0    0  501    0 -0.00000000000E+00 -0.00000000000E+00 -0.58580466839E+03  0.58580466839E+03  0.00000000000E+00 0. -1.
          2    1    1    2  501    0  0.20148210510E+02 -0.55410925012E+01  0.92371263840E+02  0.94705356111E+02  0.00000000000E+00 0.  1.
          1    1    1    2  502    0 -0.20148210510E+02  0.55410925012E+01 -0.58445090227E+03  0.58482434223E+03  0.00000000000E+00 0. -1.
</event>
<event>
 4    1  0.3927513E+003  0.2051058E+02  0.7546771E-02  0.1526369E+00
          2   -1    0    0  502    0  0.00000000000E+00  0.00000000000E+00  0.83177828616E+01  0.83177828616E+01  0.00000000000E+00 0.  1.
          1   -1    0    0  501    0 -0.00000000000E+00 -0.00000000000E+00 -0.50694783132E+03  0.50694783132E+03  0.00000000000E+00 0.  1.
          2    1    1    2  501    0  0.13122744625E+02  0.15763164570E+02 -0.48713853263E+01  0.21081133242E+02  0.00000000000E+00 0.  1.
          1    1    1    2  502    0 -0.13122744625E+02 -0.15763164570E+02 -0.49375866313E+03  0.49418448094E+03  0.00000000000E+00 0.  1.
</event>
<event>
 4    1  0.3927513E+003  0.5595235E+02  0.7546771E-02  0.1274242E+00
          2   -1    0    0  502    0  0.00000000000E+00  0.00000000000E+00  0.16263589104E+04  0.16263589104E+04  0.00000000000E+00 0.  1.
          1   -1    0    0  501    0 -0.00000000000E+00 -0.00000000000E+00 -0.92782873176E+03  0.92782873176E+03  0.00000000000E+00 0. -1.
          2    1    1    2  501    0  0.50940957371E+02  0.23144851767E+02  0.16250334381E+04  0.16259964145E+04  0.00000000000E+00 0.  1.
          1    1    1    2  502    0 -0.50940957371E+02 -0.23144851767E+02 -0.92650325942E+03  0.92819122761E+03  0.00000000000E+00 0. -1.
</event>
<event>
 4    1  0.3927513E+003  0.2279884E+02  0.7546771E-02  0.1495040E+00
          2   -1    0    0  502    0  0.00000000000E+00  0.00000000000E+00  0.88093683420E+02  0.88093683420E+02  0.00000000000E+00 0. -1.
          1   -1    0    0  501    0 -0.00000000000E+00 -0.00000000000E+00 -0.86988351199E+03  0.86988351199E+03  0.00000000000E+00 0.  1.
          2    1    1    2  501    0  0.21743963211E+02  0.68547112251E+01  0.86466438001E+02  0.89421652315E+02  0.00000000000E+00 0. -1.
          1    1    1    2  502    0 -0.21743963211E+02 -0.68547112251E+01 -0.86825626657E+03  0.86855554310E+03  0.00000000000E+00 0.  1.
</event>
<event>
 4    1  0.3927513E+003  0.3063745E+02  0.7546771E-02  0.1414136E+00
          2   -1    0    0  502    0  0.00000000000E+00  0.00000000000E+00  0.11100113482E+02  0.11100113482E+02  0.00000000000E+00 0.  1.
          1   -1    0    0  501    0 -0.00000000000E+00 -0.00000000000E+00 -0.15783589696E+03  0.15783589696E+03  0.00000000000E+00 0.  1.
          2    1    1    2  501    0  0.96542793821E+01 -0.29076591696E+02 -0.15815613056E+02  0.34478789297E+02  0.00000000000E+00 0.  1.
          1    1    1    2  502    0 -0.96542793821E+01  0.29076591696E+02 -0.13092017042E+03  0.13445722115E+03  0.00000000000E+00 0.  1.
</event>
<event>
 4    1  0.3927513E+003  0.2081192E+02  0.7546771E-02  0.1521967E+00
          2   -1    0    0  502    0  0.00000000000E+00  0.00000000000E+00  0.20585321380E+03  0.20585321380E+03  0.00000000000E+00 0.  1.
          1   -1    0    0  501    0 -0.00000000000E+00 -0.00000000000E+00 -0.46473090550E+02  0.46473090550E+02  0.00000000000E+00 0. -1.
          2    1    1    2  501    0 -0.18140672621E+02  0.10200592018E+02  0.20296407063E+03  0.20402830698E+03  0.00000000000E+00 0.  1.
          1    1    1    2  502    0  0.18140672621E+02 -0.10200592018E+02 -0.43583947383E+02  0.48297997372E+02  0.00000000000E+00 0. -1.
</event>
<event>
 4    1  0.3927513E+003  0.2021902E+02  0.7546771E-02  0.1530714E+00
          2   -1    0    0  502    0  0.00000000000E+00  0.00000000000E+00  0.59252183786E+03  0.59252183786E+03  0.00000000000E+00 0.  1.
          1   -1    0    0  501    0 -0.00000000000E+00 -0.00000000000E+00 -0.30368004966E+03  0.30368004966E+03  0.00000000000E+00 0.  1.
          2    1    1    2  501    0 -0.10445660186E+02 -0.17311761006E+02  0.59201251584E+03  0.59235768569E+03  0.00000000000E+00 0.  1.
          1    1    1    2  502    0  0.10445660186E+02  0.17311761006E+02 -0.30317072765E+03  0.30384420183E+03  0.00000000000E+00 0.  1.
</event>
<event>
 4    1  0.3927513E+003  0.2812800E+02  0.7546771E-02  0.1436595E+00
          2   -1    0    0  502    0  0.00000000000E+00  0.00000000000E+00  0.11695629276E+03  0.11695629276E+03  0.00000000000E+00 0. -1.
          1   -1    0    0  501    0 -0.00000000000E+00 -0.00000000000E+00 -0.14627119660E+02  0.14627119660E+02  0.00000000000E+00 0.  1.
          2    1    1    2  501    0  0.85308252144E+01  0.26803155477E+02  0.99400167927E+02  0.10330332766E+03  0.00000000000E+00 0. -1.
          1    1    1    2  502    0 -0.85308252144E+01 -0.26803155477E+02  0.29290051688E+01  0.28280084753E+02  0.00000000000E+00 0.  1.
</event>
<event>
 4    1  0.3927513E+003  0.2352942E+02  0.7546771E-02  0.1485955E+00
          2   -1    0    0  502    0  0.00000000000E+00  0.00000000000E+00  0.28495867955E+03  0.28495867955E+03  0.00000000000E+00 0. -1.
          1   -1    0    0  501    0 -0.00000000000E+00 -0.00000000000E+00 -0.56717666786E+01  0.56717666786E+01  0.00000000000E+00 0. -1.
          2    1    1    2  501    0  0.86568738919E+01  0.21879039337E+02  0.25746993404E+03  0.25854284125E+03  0.00000000000E+00 0. -1.
          1    1    1    2  502    0 -0.86568738919E+01 -0.21879039337E+02  0.21816978836E+02  0.32087604981E+02  0.00000000000E+00 0. -1.
</event>
<event>
 4    1  0.3927513E+003  0.3626006E+02  0.7546771E-02  0.1371915E+00
          2   -1    0    0  502    0  0.00000000000E+00  0.00000000000E+00  0.11125267159E+04  0.11125267159E+04  0.00000000000E+00 0. -1.
          1   -1    0    0  501    0 -0.00000000000E+00 -0.00000000000E+00 -0.13710801838E+01  0.13710801838E+01  0.00000000000E+00 0. -1.
          2    1    1    2  501    0  0.59710492894E+01  0.35765049114E+02  0.76251005312E+03  0.76337171370E+03  0.00000000000E+00 0. -1.
          1    1    1    2  502    0 -0.59710492894E+01 -0.35765049114E+02  0.34864558260E+03  0.35052608239E+03  0.00000000000E+00 0. -1.
</event>
<event>
 4    1  0.3927513E+003  0.2208441E+02  0.7546771E-02  0.1504327E+00
          2   -1    0    0  502    0  0.00000000000E+00  0.00000000000E+00  0.32343207354E+03  0.32343207354E+03  0.00000000000E+00 0.  1.
          1   -1    0    0  501    0 -0.00000000000E+00 -0.00000000000E+00 -0.34439883539E+02  0.34439883539E+02  0.00000000000E+00 0. -1.
          2    1    1    2  501    0  0.19627271483E+02  0.10123794262E+02  0.31947085966E+03  0.32023327617E+03  0.00000000000E+00 0.  1.
          1    1    1    2  502    0 -0.19627271483E+02 -0.10123794262E+02 -0.30478669659E+02  0.37638680906E+02  0.00000000000E+00 0. -1.
</event>
<event>
 4    1  0.3927513E+003  0.2051102E+02  0.7546771E-02  0.1526362E+00
          2   -1    0    0  502    0  0.00000000000E+00  0.00000000000E+00  0.57226596657E+03  0.57226596657E+03  0.00000000000E+00 0. -1.
          1   -1    0    0  501    0 -0.00000000000E+00 -0.00000000000E+00 -0.23398788242E+01  0.23398788242E+01  0.00000000000E+00 0. -1.
          2    1    1    2  501    0  0.11966129759E+02  0.16658743269E+02  0.52289020917E+03  0.52329233975E+03  0.00000000000E+00 0. -1.
          1    1    1    2  502    0 -0.11966129759E+02 -0.16658743269E+02  0.47035878571E+02  0.51313505646E+02  0.00000000000E+00 0. -1.
</event>
<event>
 4    1  0.3927513E+003  0.2126966E+02  0.7546771E-02  0.1515449E+00
          2   -1    0    0  502    0  0.00000000000E+00  0.00000000000E+00  0.22973032041E+02  0.22973032041E+02  0.00000000000E+00 0.  1.
          1   -1    0    0  501    0 -0.00000000000E+00 -0.00000000000E+00 -0.76090960740E+02  0.76090960740E+02  0.00000000000E+00 0. -1.
          2    1    1    2  501    0  0.65961916534E+01 -0.20220998050E+02  0.16084509569E+02  0.26666644980E+02  0.00000000000E+00 0.  1.
          1    1    1    2  502    0 -0.65961916534E+01  0.20220998050E+02 -0.69202438267E+02  0.72397347801E+02  0.00000000000E+00 0. -1.
</event>
<event>
 4    1  0.3927513E+003  0.2123757E+02  0.7546771E-02  0.1515900E+00
          2   -1    0    0  502    0  0.00000000000E+00  0.00000000000E+00  0.47614963057E+00  0.47614963057E+00  0.00000000000E+00 0.  1.
          1   -1    0    0  501    0 -0.00000000000E+00 -0.00000000000E+00 -0.11127578943E+04  0.11127578943E+04  0.00000000000E+00 0.  1.
          2    1    1    2  501    0 -0.26825366401E+01 -0.21067475293E+02 -0.34147619301E+03  0.34213597430E+03  0.00000000000E+00 0.  1.
          1    1    1    2  502    0  0.26825366401E+01  0.21067475293E+02 -0.77080555167E+03  0.77109806964E+03  0.00000000000E+00 0.  1.
</event>
<event>
 4    1  0.3927513E+003  0.2837827E+02  0.7546771E-02  0.1434234E+00
          2   -1    0    0  502    0  0.00000000000E+00  0.00000000000E+00  0.13054145389E+03  0.13054145389E+03  0.00000000000E+00 0.  1.
          1   -1    0    0  501    0 -0.00000000000E+00 -0.00000000000E+00 -0.14041916152E+03  0.14041916152E+03  0.00000000000E+00 0. -1.
          2    1    1    2  501    0 -0.20290082955E+02  0.19840335789E+02  0.12753195710E+03  0.13065116330E+03  0.00000000000E+00 0.  1.
          1    1    1    2  502    0  0.20290082955E+02 -0.19840335789E+02 -0.13740966473E+03  0.14030945211E+03  0.00000000000E+00 0. -1.
</event>
<event>
 4    1  0.3927513E+003  0.2088586E+02  0.7546771E-02  0.1520901E+00
          2   -1    0    0  502    0  0.00000000000E+00  0.00000000000E+00  0.51520194216E+03  0.51520194216E+03  0.00000000000E+00 0. -1.
          1   -1    0    0  501    0 -0.00000000000E+00 -0.00000000000E+00 -0.90782225880E+00  0.90782225880E+00  0.00000000000E+00 0.  1.
          2    1    1    2  501    0 -0.70551199733E+01  0.19658188511E+02  0.32410897285E+03  0.32478122695E+03  0.00000000000E+00 0. -1.
          1    1    1    2  502    0  0.70551199733E+01 -0.19658188511E+02  0.19018514705E+03  0.19132853747E+03  0.00000000000E+00 0.  1.
</event>
<event>
 4    1  0.3927513E+003  0.2619637E+02  0.7546771E-02  0.1455852E+00
          2   -1    0    0  502    0  0.00000000000E+00  0.00000000000E+00  0.64917124053E+01  0.64917124053E+01  0.00000000000E+00 0.  1.
          1   -1    0    0  501    0 -0.00000000000E+00 -0.00000000000E+00 -0.67412247474E+03  0.67412247474E+03  0.00000000000E+00 0.  1.
          2    1    1    2  501    0 -0.46580515291E+01  0.25778913815E+02 -0.21327804431E+02  0.33780542970E+02  0.00000000000E+00 0.  1.
          1    1    1    2  502    0  0.46580515291E+01 -0.25778913815E+02 -0.64630295790E+03  0.64683364417E+03  0.00000000000E+00 0.  1.
</event>
<event>
 4    1  0.3927513E+003  0.2166485E+02  0.7546771E-02  0.1509981E+00
          2   -1    0    0  502    0  0.00000000000E+00  0.00000000000E+00  0.14002362366E+04  0.14002362366E+04  0.00000000000E+00 0. -1.
          1   -1    0    0  501    0 -0.00000000000E+00 -0.00000000000E+00 -0.78547203658E+01  0.78547203658E+01  0.00000000000E+00 0.  1.
          2    1    1    2  501    0  0.20818082803E+02  0.59977486515E+01  0.13850496806E+04  0.13852191102E+04  0.00000000000E+00 0. -1.
          1    1    1    2  502    0 -0.20818082803E+02 -0.59977486515E+01  0.73318356406E+01  0.22871846762E+02  0.00000000000E+00 0.  1.
</event>
<event>
 4    1  0.3927513E+003  0.2122272E+02  0.7546771E-02  0.1516109E+00
          2   -1    0    0  502    0  0.00000000000E+00  0.00000000000E+00  0.69230013130E+02  0.69230013130E+02  0.00000000000E+00 0.  1.
          1   -1    0    0  501    0 -0.00000000000E+00 -0.00000000000E+00 -0.32469500423E+02  0.32469500423E+02  0.00000000000E+00 0. -1.
          2    1    1    2  501    0 -0.21198497000E+02 -0.10136356646E+01  0.63851152361E+02  0.67285759192E+02  0.00000000000E+00 0.  1.
          1    1    1    2  502    0  0.21198497000E+02  0.10136356646E+01 -0.27090639654E+02  0.34413754360E+02  0.00000000000E+00 0. -1.
</event>
<event>
 4    1  0.3927513E+003  0.2080906E+02  0.7546771E-02  0.1522009E+00
          2   -1    0    0  502    0  0.00000000000E+00  0.00000000000E+00  0.19692803954E+03  0.19692803954E+03  0.00000000000E+00 0. -1.
          1   -1    0    0  501    0 -0.00000000000E+00 -0.00000000000E+00 -0.32365648421E+02  0.32365648421E+02  0.00000000000E+00 0.  1.
          2    1    1    2  501    0  0.19885249847E+02 -0.61313730735E+01  0.19296510673E+03  0.19408387185E+03  0.00000000000E+00 0. -1.
          1    1    1    2  502    0 -0.19885249847E+02  0.61313730735E+01 -0.28402715605E+02  0.35209816117E+02  0.00000000000E+00 0.  1.
</event>
<event>
 4    1  0.3927513E+003  0.3440716E+02  0.7546771E-02  0.1384780E+00
          2   -1    0    0  502    0  0.00000000000E+00  0.00000000000E+00  0.16246227705E+04  0.16246227705E+04  0.00000000000E+00 0.  1.
          1   -1    0    0  501    0 -0.00000000000E+00 -0.00000000000E+00 -0.13899430898E+01  0.13899430898E+01  0.00000000000E+00 0. -1.
          2    1    1    2  501    0  0.55228414700E+01  0.33961019668E+02  0.13723776985E+04  0.13728089452E+04  0.00000000000E+00 0.  1.
          1    1    1    2  502    0 -0.55228414700E+01 -0.33961019668E+02  0.25085512890E+03  0.25320376840E+03  0.00000000000E+00 0. -1.
</event>
<event>
 4    1  0.3927513E+003  0.5984341E+02  0.7546771E-02  0.1260366E+00
          2   -1    0    0  502    0  0.00000000000E+00  0.00000000000E+00  0.94870884905E+03  0.94870884905E+03  0.00000000000E+00 0.  1.
          1   -1    0    0  501    0 -0.00000000000E+00 -0.00000000000E+00 -0.16315095271E+02  0.16315095271E+02  0.00000000000E+00 0.  1.
          2    1    1    2  501    0 -0.45961096860E+02  0.38325080548E+02  0.88922212661E+03  0.89123354104E+03  0.00000000000E+00 0.  1.
          1    1    1    2  502    0  0.45961096860E+02 -0.38325080548E+02  0.43171627163E+02  0.73790403275E+02  0.00000000000E+00 0.  1.
</event>
<event>
 4    1  0.3927513E+003  0.2296151E+02  0.7546771E-02  0.1492982E+00
          2   -1    0    0  502    0  0.00000000000E+00  0.00000000000E+00  0.36071127381E+03  0.36071127381E+03  0.00000000000E+00 0.  1.
          1   -1    0    0  501    0 -0.00000000000E+00 -0.00000000000E+00 -0.68003040518E+01  0.68003040518E+01  0.00000000000E+00 0.  1.
          2    1    1    2  501    0  0.22568987051E+02  0.42274803433E+01  0.33976998383E+03  0.34054496425E+03  0.00000000000E+00 0.  1.
          1    1    1    2  502    0 -0.22568987051E+02 -0.42274803433E+01  0.14140985932E+02  0.26966613612E+02  0.00000000000E+00 0.  1.
</event>
<event>
 4    1  0.3927513E+003  0.3198679E+02  0.7546771E-02  0.1403082E+00
          2   -1    0    0  502    0  0.00000000000E+00  0.00000000000E+00  0.59402764502E+03  0.59402764502E+03  0.00000000000E+00 0.  1.
          1   -1    0    0  501    0 -0.00000000000E+00 -0.00000000000E+00 -0.21207043074E+01  0.21207043074E+01  0.00000000000E+00 0.  1.
          2    1    1    2  501    0  0.23530692845E+02 -0.21667051353E+02  0.42513204958E+03  0.42633368879E+03  0.00000000000E+00 0.  1.
          1    1    1    2  502    0 -0.23530692845E+02  0.21667051353E+02  0.16677489114E+03  0.16981466054E+03  0.00000000000E+00 0.  1.
</event>
<event>
 4    1  0.3927513E+003  0.3673217E+02  0.7546771E-02  0.1368778E+00
          2   -1    0    0  502    0  0.00000000000E+00  0.00000000000E+00  0.57540705651E+01  0.57540705651E+01  0.00000000000E+00 0.  1.
          1   -1    0    0  501    0 -0.00000000000E+00 -0.00000000000E+00 -0.57938139883E+03  0.57938139883E+03  0.00000000000E+00 0.  1.
          2    1    1    2  501    0 -0.27590561593E+02  0.24248982722E+02 -0.61084590916E+02  0.71278183896E+02  0.00000000000E+00 0.  1.
          1    1    1    2  502    0  0.27590561593E+02 -0.24248982722E+02 -0.51254273734E+03  0.51385728550E+03  0.00000000000E+00 0.  1.
</event>
<event>
 4    1  0.3927513E+003  0.2275296E+02  0.7546771E-02  0.1495624E+00
          2   -1    0    0  502    0  0.00000000000E+00  0.00000000000E+00  0.30498443262E+03  0.30498443262E+03  0.00000000000E+00 0.  1.
          1   -1    0    0  501    0 -0.00000000000E+00 -0.00000000000E+00 -0.29432345081E+01  0.29432345081E+01  0.00000000000E+00 0.  1.
          2    1    1    2  501    0 -0.79084615061E+01  0.21334324898E+02  0.25118813027E+03  0.25221652200E+03  0.00000000000E+00 0.  1.
          1    1    1    2  502    0  0.79084615061E+01 -0.21334324898E+02  0.50853067837E+02  0.55711145121E+02  0.00000000000E+00 0.  1.
</event>
<event>
 4    1  0.3927513E+003  0.2075925E+02  0.7546771E-02  0.1522730E+00
          2   -1    0    0  502    0  0.00000000000E+00  0.00000000000E+00  0.63899525728E+03  0.63899525728E+03  0.00000000000E+00 0.  1.
          1   -1    0    0  501    0 -0.00000000000E+00 -0.00000000000E+00 -0.20160491322E+02  0.20160491322E+02  0.00000000000E+00 0.  1.
          2    1    1    2  501    0  0.17795700541E+01 -0.20682836289E+02  0.63343581525E+03  0.63377588991E+03  0.00000000000E+00 0.  1.
          1    1    1    2  502    0 -0.17795700541E+01  0.20682836289E+02 -0.14601049297E+02  0.25379858689E+02  0.00000000000E+00 0.  1.
</event>
<event>
 4    1  0.3927513E+003  0.2055284E+02  0.7546771E-02  0.1525746E+00
          2   -1    0    0  502    0  0.00000000000E+00  0.00000000000E+00  0.23795873047E+02  0.23795873047E+02  0.00000000000E+00 0.  1.
          1   -1    0    0  501    0 -0.00000000000E+00 -0.00000000000E+00 -0.47664653674E+03  0.47664653674E+03  0.00000000000E+00 0. -1.
          2    1    1    2  501    0 -0.17478828011E+02  0.10812477370E+02  0.19092159572E+02  0.28052266444E+02  0.00000000000E+00 0.  1.
          1    1    1    2  502    0  0.17478828011E+02 -0.10812477370E+02 -0.47194282326E+03  0.47239014334E+03  0.00000000000E+00 0. -1.
</event>
<event>
 4    1  0.3927513E+003  0.2930250E+02  0.7546771E-02  0.1425756E+00
          2   -1    0    0  502    0  0.00000000000E+00  0.00000000000E+00  0.37975224081E+01  0.37975224081E+01  0.00000000000E+00 0. -1.
          1   -1    0    0  501    0 -0.00000000000E+00 -0.00000000000E+00 -0.24646465671E+03  0.24646465671E+03  0.00000000000E+00 0.  1.
          2    1    1    2  501    0 -0.28157145608E+02  0.81124461095E+01 -0.85368636205E+02  0.90257635013E+02  0.00000000000E+00 0. -1.
          1    1    1    2  502    0  0.28157145608E+02 -0.81124461095E+01 -0.15729849810E+03  0.16000454411E+03  0.00000000000E+00 0.  1.
</event>
<event>
 4    1  0.3927513E+003  0.2151794E+02  0.7546771E-02  0.1511997E+00
          2   -1    0    0  502    0  0.00000000000E+00  0.00000000000E+00  0.40990249469E+03  0.40990249469E+03  0.00000000000E+00 0.  1.
          1   -1    0    0  501    0 -0.00000000000E+00 -0.00000000000E+00 -0.24746445353E+01  0.24746445353E+01  0.00000000000E+00 0.  1.
          2    1    1    2  501    0 -0.21046160281E+02 -0.44811910556E+01  0.35572598720E+03  0.35637620558E+03  0.00000000000E+00 0.  1.
          1    1    1    2  502    0  0.21046160281E+02  0.44811910556E+01  0.51701862952E+02  0.56000933640E+02  0.00000000000E+00 0.  1.
</event>
<event>
 4    1  0.3927513E+003  0.2910937E+02  0.7546771E-02  0.1427497E+00
          2   -1    0    0  502    0  0.00000000000E+00  0.00000000000E+00  0.90052924143E+03  0.90052924143E+03  0.00000000000E+00 0.  1.
          1   -1    0    0  501    0 -0.00000000000E+00 -0.00000000000E+00 -0.15126841642E+03  0.15126841642E+03  0.00000000000E+00 0. -1.
          2    1    1    2  501    0  0.24409260294E+02  0.15860129187E+02  0.89889103423E+03  0.89936224465E+03  0.00000000000E+00 0.  1.
          1    1    1    2  502    0 -0.24409260294E+02 -0.15860129187E+02 -0.14963020922E+03  0.15243541320E+03  0.00000000000E+00 0. -1.
</event>
<event>
 4    1  0.3927513E+003  0.2002670E+02  0.7546771E-02  0.1533628E+00
          2   -1    0    0  502    0  0.00000000000E+00  0.00000000000E+00  0.14433528348E+01  0.14433528348E+01  0.00000000000E+00 0. -1.
          1   -1    0    0  501    0 -0.00000000000E+00 -0.00000000000E+00 -0.86727931687E+03  0.86727931687E+03  0.00000000000E+00 0. -1.
          2    1    1    2  501    0  0.18516626627E+02  0.76290971749E+01 -0.74838771182E+02  0.77471996601E+02  0.00000000000E+00 0. -1.
          1    1    1    2  502    0 -0.18516626627E+02 -0.76290971749E+01 -0.79099719285E+03  0.79125067310E+03  0.00000000000E+00 0. -1.
</event>
<event>
 4    1  0.3927513E+003  0.5442003E+02  0.7546771E-02  0.1280068E+00
          2   -1    0    0  502    0  0.00000000000E+00  0.00000000000E+00  0.70962609561E+03  0.70962609561E+03  0.00000000000E+00 0.  1.
          1   -1    0    0  501    0 -0.00000000000E+00 -0.00000000000E+00 -0.58173452119E+02  0.58173452119E+02  0.00000000000E+00 0.  1.
          2    1    1    2  501    0  0.52989119743E+02  0.12397290802E+02  0.69559930184E+03  0.69772482280E+03  0.00000000000E+00 0.  1.
          1    1    1    2  502    0 -0.52989119743E+02 -0.12397290802E+02 -0.44146658350E+02  0.70074724929E+02  0.00000000000E+00 0.  1.
</event>
<event>
 4    1  0.3927513E+003  0.2003841E+02  0.7546771E-02  0.1533449E+00
          2   -1    0    0  502    0  0.00000000000E+00  0.00000000000E+00  0.15225437607E+04  0.15225437607E+04  0.00000000000E+00 0.  1.
          1   -1    0    0  501    0 -0.00000000000E+00 -0.00000000000E+00 -0.38531333423E+00  0.38531333423E+00  0.00000000000E+00 0. -1.
          2    1    1    2  501    0  0.19966826672E+02 -0.16921971635E+01  0.11888222459E+04  0.11889911144E+04  0.00000000000E+00 0.  1.
          1    1    1    2  502    0 -0.19966826672E+02  0.16921971635E+01  0.33333620145E+03  0.33393795965E+03  0.00000000000E+00 0. -1.
</event>
<event>
 4    1  0.3927513E+003  0.2139751E+02  0.7546771E-02  0.1513664E+00
          2   -1    0    0  502    0  0.00000000000E+00  0.00000000000E+00  0.14116050553E+04  0.14116050553E+04  0.00000000000E+00 0. -1.
          1   -1    0    0  501    0 -0.00000000000E+00 -0.00000000000E+00 -0.35457196107E+03  0.35457196107E+03  0.00000000000E+00 0.  1.
          2    1    1    2  501    0 -0.63360339504E+01 -0.20437908848E+02  0.14112010542E+04  0.14113632661E+04  0.00000000000E+00 0. -1.
          1    1    1    2  502    0  0.63360339504E+01  0.20437908848E+02 -0.35416796003E+03  0.35481375024E+03  0.00000000000E+00 0.  1.
</event>
<event>
 4    1  0.3927513E+003  0.2603125E+02  0.7546771E-02  0.1457590E+00
          2   -1    0    0  502    0  0.00000000000E+00  0.00000000000E+00  0.45766225901E+02  0.45766225901E+02  0.00000000000E+00 0.  1.
          1   -1    0    0  501    0 -0.00000000000E+00 -0.00000000000E+00 -0.23018942124E+03  0.23018942124E+03  0.00000000000E+00 0.  1.
          2    1    1    2  501    0 -0.25335533083E+02  0.59780395513E+01  0.41254970326E+02  0.48781131292E+02  0.00000000000E+00 0.  1.
          1    1    1    2  502    0  0.25335533083E+02 -0.59780395513E+01 -0.22567816567E+03  0.22717451585E+03  0.00000000000E+00 0.  1.
</event>
<event>
 4    1  0.3927513E+003  0.3236813E+02  0.7546771E-02  0.1400074E+00
          2   -1    0    0  502    0  0.00000000000E+00  0.00000000000E+00  0.78474697698E+03  0.78474697698E+03  0.00000000000E+00 0.  1.
          1   -1    0    0  501    0 -0.00000000000E+00 -0.00000000000E+00 -0.26858029646E+01  0.26858029646E+01  0.00000000000E+00 0. -1.
          2    1    1    2  501    0 -0.23515620432E+02 -0.22242113565E+02  0.67024020591E+03  0.67102133322E+03  0.00000000000E+00 0.  1.
          1    1    1    2  502    0  0.23515620432E+02  0.22242113565E+02  0.11182096811E+03  0.11641144672E+03  0.00000000000E+00 0. -1.
</event>
<event>
 4    1  0.3927513E+003  0.2082964E+02  0.7546771E-02  0.1521711E+00
          2   -1    0    0  502    0  0.00000000000E+00  0.00000000000E+00  0.50991352557E+01  0.50991352557E+01  0.00000000000E+00 0. -1.
          1   -1    0    0  501    0 -0.00000000000E+00 -0.00000000000E+00 -0.44156238892E+03  0.44156238892E+03  0.00000000000E+00 0.  1.
          2    1    1    2  501    0 -0.17435508255E+02 -0.11396365567E+02 -0.17568852846E+02  0.27249563052E+02  0.00000000000E+00 0. -1.
          1    1    1    2  502    0  0.17435508255E+02  0.11396365567E+02 -0.41889440082E+03  0.41941196112E+03  0.00000000000E+00 0.  1.
</event>
<event>
 4    1  0.3927513E+003  0.5174303E+02  0.7546771E-02  0.1290787E+00
          2   -1    0    0  502    0  0.00000000000E+00  0.00000000000E+00  0.30264674805E+03  0.30264674805E+03  0.00000000000E+00 0.  1.
          1   -1    0    0  501    0 -0.00000000000E+00 -0.00000000000E+00 -0.38312507038E+02  0.38312507038E+02  0.00000000000E+00 0.  1.
          2    1    1    2  501    0 -0.30834175281E+02  0.41552313961E+02  0.28167476990E+03  0.28638787887E+03  0.00000000000E+00 0.  1.
          1    1    1    2  502    0  0.30834175281E+02 -0.41552313961E+02 -0.17340528891E+02  0.54571376224E+02  0.00000000000E+00 0.  1.
</event>
<event>
 4    1  0.3927513E+003  0.2779798E+02  0.7546771E-02  0.1439753E+00
          2   -1    0    0  502    0  0.00000000000E+00  0.00000000000E+00  0.77426539464E+03  0.77426539464E+03  0.00000000000E+00 0. -1.
          1   -1    0    0  501    0 -0.00000000000E+00 -0.00000000000E+00 -0.10005726025E+01  0.10005726025E+01  0.00000000000E+00 0. -1.
          2    1    1    2  501    0  0.16132028079E+02 -0.22638142318E+02  0.40623373164E+03  0.40718370859E+03  0.00000000000E+00 0. -1.
          1    1    1    2  502    0 -0.16132028079E+02  0.22638142318E+02  0.36703109040E+03  0.36808225866E+03  0.00000000000E+00 0. -1.
</event>
<event>
 4    1  0.3927513E+003  0.4895324E+02  0.7546771E-02  0.1302776E+00
          2   -1    0    0  502    0  0.00000000000E+00  0.00000000000E+00  0.42236047095E+02  0.42236047095E+02  0.00000000000E+00 0.  1.
          1   -1    0    0  501    0 -0.00000000000E+00 -0.00000000000E+00 -0.12302199630E+03  0.12302199630E+03  0.00000000000E+00 0.  1.
          2    1    1    2  501    0 -0.40168423851E+02 -0.27980658082E+02  0.20258754949E+02  0.52979587139E+02  0.00000000000E+00 0.  1.
          1    1    1    2  502    0  0.40168423851E+02  0.27980658082E+02 -0.10104470415E+03  0.11227845625E+03  0.00000000000E+00 0.  1.
</event>
<event>
 4    1  0.3927513E+003  0.2223056E+02  0.7546771E-02  0.1502393E+00
          2   -1    0    0  502    0  0.00000000000E+00  0.00000000000E+00  0.62020979376E+03  0.62020979376E+03  0.00000000000E+00 0.  1.
          1   -1    0    0  501    0 -0.00000000000E+00 -0.00000000000E+00 -0.11774128566E+01  0.11774128566E+01  0.00000000000E+00 0.  1.
          2    1    1    2  501    0  0.20963860616E+02 -0.73969265454E+01  0.48615902603E+03  0.48666702843E+03  0.00000000000E+00 0.  1.
          1    1    1    2  502    0 -0.20963860616E+02  0.73969265454E+01  0.13287335488E+03  0.13472017819E+03  0.00000000000E+00 0.  1.
</event>
<event>
 4    1  0.3927513E+003  0.2843726E+02  0.7546771E-02  0.1433681E+00
          2   -1    0    0  502    0  0.00000000000E+00  0.00000000000E+00  0.31166756987E+01  0.31166756987E+01  0.00000000000E+00 0. -1.
          1   -1    0    0  501    0 -0.00000000000E+00 -0.00000000000E+00 -0.10284605838E+04  0.10284605838E+04  0.00000000000E+00 0.  1.
          2    1    1    2  501    0 -0.26850313624E+02 -0.93668718309E+01 -0.66667688586E+02  0.72479364864E+02  0.00000000000E+00 0. -1.
          1    1    1    2  502    0  0.26850313624E+02  0.93668718309E+01 -0.95867621947E+03  0.95909789459E+03  0.00000000000E+00 0.  1.
</event>
<event>
 4    1  0.3927513E+003  0.2314832E+02  0.7546771E-02  0.1490644E+00
          2   -1    0    0  502    0  0.00000000000E+00  0.00000000000E+00  0.73585822047E+02  0.73585822047E+02  0.00000000000E+00 0.  1.
          1   -1    0    0  501    0 -0.00000000000E+00 -0.00000000000E+00 -0.81268228421E+01  0.81268228421E+01  0.00000000000E+00 0.  1.
          2    1    1    2  501    0  0.17388634141E+02 -0.15280031840E+02  0.19555744299E+02  0.30302988391E+02  0.00000000000E+00 0.  1.
          1    1    1    2  502    0 -0.17388634141E+02  0.15280031840E+02  0.45903254906E+02  0.51409656498E+02  0.00000000000E+00 0.  1.
</event>
<event>
 4    1  0.3927513E+003  0.2096448E+02  0.7546771E-02  0.1519773E+00
          2   -1    0    0  502    0  0.00000000000E+00  0.00000000000E+00  0.95215135575E+03  0.95215135575E+03  0.00000000000E+00 0. -1.
          1   -1    0    0  501    0 -0.00000000000E+00 -0.00000000000E+00 -0.74071528243E+00  0.74071528243E+00  0.00000000000E+00 0.  1.
          2    1    1    2  501    0  0.20630955380E+02  0.37246674903E+01  0.76817632218E+03  0.76846234223E+03  0.00000000000E+00 0. -1.
          1    1    1    2  502    0 -0.20630955380E+02 -0.37246674903E+01  0.18323431829E+03  0.18442972881E+03  0.00000000000E+00 0.  1.
</event>
<event>
 4    1  0.3927513E+003  0.2548741E+02  0.7546771E-02  0.1463424E+00
          2   -1    0    0  502    0  0.00000000000E+00  0.00000000000E+00  0.13156028515E+04  0.13156028515E+04  0.00000000000E+00 0. -1.
          1   -1    0    0  501    0 -0.00000000000E+00 -0.00000000000E+00 -0.11681510633E+01  0.11681510633E+01  0.00000000000E+00 0. -1.
          2    1    1    2  501    0  0.27550638648E+01  0.25338063726E+02  0.11574623931E+04  0.11577429763E+04  0.00000000000E+00 0. -1.
          1    1    1    2  502    0 -0.27550638648E+01 -0.25338063726E+02  0.15697230735E+03  0.15902802622E+03  0.00000000000E+00 0. -1.
</event>
<event>
 4    1  0.3927513E+003  0.2132749E+02  0.7546771E-02  0.1514640E+00
          2   -1    0    0  502    0  0.00000000000E+00  0.00000000000E+00  0.27591940825E+02  0.27591940825E+02  0.00000000000E+00 0. -1.
          1   -1    0    0  501    0 -0.00000000000E+00 -0.00000000000E+00 -0.79995195762E+02  0.79995195762E+02  0.00000000000E+00 0. -1.
          2    1    1    2  501    0 -0.21198340520E+02 -0.23435012790E+01  0.21729657686E+02  0.30447326028E+02  0.00000000000E+00 0. -1.
          1    1    1    2  502    0  0.21198340520E+02  0.23435012790E+01 -0.74132912624E+02  0.77139810559E+02  0.00000000000E+00 0. -1.
</event>
<event>
 4    1  0.3927513E+003  0.3145583E+02  0.7546771E-02  0.1407353E+00
          2   -1    0    0  502    0  0.00000000000E+00  0.00000000000E+00  0.23583017045E+03  0.23583017045E+03  0.00000000000E+00 0.  1.
          1   -1    0    0  501    0 -0.00000000000E+00 -0.00000000000E+00 -0.63297696346E+01  0.63297696346E+01  0.00000000000E+00 0. -1.
          2    1    1    2  501    0 -0.15913890636E+02 -0.27133327724E+02  0.18505485053E+03  0.18770926214E+03  0.00000000000E+00 0.  1.
          1    1    1    2  502    0  0.15913890636E+02  0.27133327724E+02  0.44445550291E+02  0.54450677950E+02  0.00000000000E+00 0. -1.
</event>
<event>
 4    1  0.3927513E+003  0.3845410E+02  0.7546771E-02  0.1357791E+00
          2   -1    0    0  502    0  0.00000000000E+00  0.00000000000E+00  0.44343752908E+02  0.44343752908E+02  0.00000000000E+00 0. -1.
          1   -1    0    0  501    0 -0.00000000000E+00 -0.00000000000E+00 -0.35268637745E+02  0.35268637745E+02  0.00000000000E+00 0. -1.
          2    1    1    2  501    0 -0.38179078123E+02  0.45908588807E+01  0.13829907616E+02  0.40865441834E+02  0.00000000000E+00 0. -1.
          1    1    1    2  502    0  0.38179078123E+02 -0.45908588807E+01 -0.47547924533E+01  0.38746948820E+02  0.00000000000E+00 0. -1.
</event>
<event>
 4    1  0.3927513E+003  0.2084432E+02  0.7546771E-02  0.1521499E+00
          2   -1    0    0  502    0  0.00000000000E+00  0.00000000000E+00  0.78818183634E+03  0.78818183634E+03  0.00000000000E+00 0. -1.
          1   -1    0    0  501    0 -0.00000000000E+00 -0.00000000000E+00 -0.31094175562E+02  0.31094175562E+02  0.00000000000E+00 0.  1.
          2    1    1    2  501    0 -0.12419715841E+02  0.16740255190E+02  0.78453448320E+03  0.78481134091E+03  0.00000000000E+00 0. -1.
          1    1    1    2  502    0  0.12419715841E+02 -0.16740255190E+02 -0.27446822425E+02  0.34464670992E+02  0.00000000000E+00 0.  1.
</event>
<event>
 4    1  0.3927513E+003  0.2266426E+02  0.7546771E-02  0.1496758E+00
          2   -1    0    0  502    0  0.00000000000E+00  0.00000000000E+00  0.90420808255E+03  0.90420808255E+03  0.00000000000E+00 0. -1.
          1   -1    0    0  501    0 -0.00000000000E+00 -0.00000000000E+00 -0.98175996150E+02  0.98175996150E+02  0.00000000000E+00 0. -1.
          2    1    1    2  501    0  0.74479918029E+01 -0.21405520511E+02  0.90275592629E+03  0.90304038190E+03  0.00000000000E+00 0. -1.
          1    1    1    2  502    0 -0.74479918029E+01  0.21405520511E+02 -0.96723839891E+02  0.99343696798E+02  0.00000000000E+00 0. -1.
</event>
<event>
 4    1  0.3927513E+003  0.5599769E+02  0.7546771E-02  0.1274073E+00
          2   -1    0    0  502    0  0.00000000000E+00  0.00000000000E+00  0.24992859846E+02  0.24992859846E+02  0.00000000000E+00 0.  1.
          1   -1    0    0  501    0 -0.00000000000E+00 -0.00000000000E+00 -0.12594508352E+03  0.12594508352E+03  0.00000000000E+00 0.  1.
          2    1    1    2  501    0 -0.33585316873E+02 -0.44808123294E+02 -0.45819026499E+02  0.72354160985E+02  0.00000000000E+00 0.  1.
          1    1    1    2  502    0  0.33585316873E+02  0.44808123294E+02 -0.55133197178E+02  0.78583782383E+02  0.00000000000E+00 0.  1.
</event>
<event>
 4    1  0.3927513E+003  0.2341910E+02  0.7546771E-02  0.1487301E+00
          2   -1    0    0  502    0  0.00000000000E+00  0.00000000000E+00  0.54446494201E+03  0.54446494201E+03  0.00000000000E+00 0. -1.
          1   -1    0    0  501    0 -0.00000000000E+00 -0.00000000000E+00 -0.60502972235E+01  0.60502972235E+01  0.00000000000E+00 0. -1.
          2    1    1    2  501    0 -0.89094898067E+01 -0.21658147463E+02  0.52050830514E+03  0.52103488375E+03  0.00000000000E+00 0. -1.
          1    1    1    2  502    0  0.89094898067E+01  0.21658147463E+02  0.17906339647E+02  0.29480355488E+02  0.00000000000E+00 0. -1.
</event>
<event>
 4    1  0.3927513E+003  0.2075404E+02  0.7546771E-02  0.1522806E+00
          2   -1    0    0  502    0  0.00000000000E+00  0.00000000000E+00  0.78022601155E+03  0.78022601155E+03  0.00000000000E+00 0.  1.
          1   -1    0    0  501    0 -0.00000000000E+00 -0.00000000000E+00 -0.55207429779E+00  0.55207429779E+00  0.00000000000E+00 0.  1.
          2    1    1    2  501    0  0.83367027889E+01  0.19006029028E+02  0.38769439253E+03  0.38824949678E+03  0.00000000000E+00 0.  1.
          1    1    1    2  502    0 -0.83367027889E+01 -0.19006029028E+02  0.39197954473E+03  0.39252858907E+03  0.00000000000E+00 0.  1.
</event>
<event>
 4    1  0.3927513E+003  0.5007755E+02  0.7546771E-02  0.1297837E+00
          2   -1    0    0  502    0  0.00000000000E+00  0.00000000000E+00  0.10168776729E+04  0.10168776729E+04  0.00000000000E+00 0. -1.
          1   -1    0    0  501    0 -0.00000000000E+00 -0.00000000000E+00 -0.22815737017E+02  0.22815737017E+02  0.00000000000E+00 0. -1.
          2    1    1    2  501    0 -0.23080661154E+02  0.44441466825E+02  0.98797950477E+03  0.98924782676E+03  0.00000000000E+00 0. -1.
          1    1    1    2  502    0  0.23080661154E+02 -0.44441466825E+02  0.60824311201E+01  0.50445583169E+02  0.00000000000E+00 0. -1.
</event>
<event>
 4    1  0.3927513E+003  0.2194648E+02  0.7546771E-02  0.1506169E+00
          2   -1    0    0  502    0  0.00000000000E+00  0.00000000000E+00  0.62362468329E+03  0.62362468329E+03  0.00000000000E+00 0.  1.
          1   -1    0    0  501    0 -0.00000000000E+00 -0.00000000000E+00 -0.11991004677E+01  0.11991004677E+01  0.00000000000E+00 0. -1.
          2    1    1    2  501    0  0.18793508043E+02 -0.11333661867E+02  0.49759045470E+03  0.49807419974E+03  0.00000000000E+00 0.  1.
          1    1    1    2  502    0 -0.18793508043E+02  0.11333661867E+02  0.12483512812E+03  0.12674958401E+03  0.00000000000E+00 0. -1.
</event>
<event>
 4    1  0.3927513E+003  0.2703333E+02  0.7546771E-02  0.1447274E+00
          2   -1    0    0  502    0  0.00000000000E+00  0.00000000000E+00  0.11586829808E+04  0.11586829808E+04  0.00000000000E+00 0.  1.
          1   -1    0    0  501    0 -0.00000000000E+00 -0.00000000000E+00 -0.97056367864E+00  0.97056367864E+00  0.00000000000E+00 0.  1.
          2    1    1    2  501    0 -0.26988656506E+02  0.15535463654E+01  0.92196175898E+03  0.92235800322E+03  0.00000000000E+00 0.  1.
          1    1    1    2  502    0  0.26988656506E+02 -0.15535463654E+01  0.23575065818E+03  0.23729554129E+03  0.00000000000E+00 0.  1.
</event>
<event>
 4    1  0.3927513E+003  0.2014843E+02  0.7546771E-02  0.1531779E+00
          2   -1    0    0  502    0  0.00000000000E+00  0.00000000000E+00  0.25968795732E+03  0.25968795732E+03  0.00000000000E+00 0.  1.
          1   -1    0    0  501    0 -0.00000000000E+00 -0.00000000000E+00 -0.16596843260E+03  0.16596843260E+03  0.00000000000E+00 0. -1.
          2    1    1    2  501    0 -0.28442080570E+01 -0.19946673850E+02  0.25868327060E+03  0.25946674894E+03  0.00000000000E+00 0.  1.
          1    1    1    2  502    0  0.28442080570E+01  0.19946673850E+02 -0.16496374587E+03  0.16618964098E+03  0.00000000000E+00 0. -1.
</event>
<event>
 4    1  0.3927513E+003  0.3564744E+02  0.7546771E-02  0.1376068E+00
          2   -1    0    0  502    0  0.00000000000E+00  0.00000000000E+00  0.15970191313E+04  0.15970191313E+04  0.00000000000E+00 0.  1.
          1   -1    0    0  501    0 -0.00000000000E+00 -0.00000000000E+00 -0.17029812100E+02  0.17029812100E+02  0.00000000000E+00 0.  1.
          2    1    1    2  501    0  0.16816786359E+02 -0.31431448999E+02  0.15779400370E+04  0.15783426436E+04  0.00000000000E+00 0.  1.
          1    1    1    2  502    0 -0.16816786359E+02  0.31431448999E+02  0.20492822431E+01  0.35706299827E+02  0.00000000000E+00 0.  1.
</event>
<event>
 4    1  0.3927513E+003  0.3363742E+02  0.7546771E-02  0.1390404E+00
          2   -1    0    0  502    0  0.00000000000E+00  0.00000000000E+00  0.10320546107E+03  0.10320546107E+03  0.00000000000E+00 0.  1.
          1   -1    0    0  501    0 -0.00000000000E+00 -0.00000000000E+00 -0.11197504924E+02  0.11197504924E+02  0.00000000000E+00 0.  1.
          2    1    1    2  501    0  0.33267971227E+02 -0.49717644547E+01  0.54275957549E+02  0.63854176991E+02  0.00000000000E+00 0.  1.
          1    1    1    2  502    0 -0.33267971227E+02  0.49717644547E+01  0.37731998593E+02  0.50548788998E+02  0.00000000000E+00 0.  1.
</event>
<event>
 4    1  0.3927513E+003  0.2208684E+02  0.7546771E-02  0.1504294E+00
          2   -1    0    0  502    0  0.00000000000E+00  0.00000000000E+00  0.12347049754E+02  0.12347049754E+02  0.00000000000E+00 0. -1.
          1   -1    0    0  501    0 -0.00000000000E+00 -0.00000000000E+00 -0.53048567409E+02  0.53048567409E+02  0.00000000000E+00 0. -1.
          2    1    1    2  501    0 -0.17508998087E+02 -0.13463414192E+02 -0.38321834441E+01  0.22416827734E+02  0.00000000000E+00 0. -1.
          1    1    1    2  502    0  0.17508998087E+02  0.13463414192E+02 -0.36869334210E+02  0.42978789429E+02  0.00000000000E+00 0. -1.
</event>
<event>
 4    1  0.3927513E+003  0.7129647E+02  0.7546771E-02  0.1225636E+00
          2   -1    0    0  502    0  0.00000000000E+00  0.00000000000E+00  0.31463841885E+03  0.31463841885E+03  0.00000000000E+00 0. -1.
          1   -1    0    0  501    0 -0.00000000000E+00 -0.00000000000E+00 -0.76856743580E+03  0.76856743580E+03  0.00000000000E+00 0. -1.
          2    1    1    2  501    0 -0.47955435408E+02 -0.52758527542E+02  0.30891581410E+03  0.31703653767E+03  0.00000000000E+00 0. -1.
          1    1    1    2  502    0  0.47955435408E+02  0.52758527542E+02 -0.76284483105E+03  0.76616931698E+03  0.00000000000E+00 0. -1.
</event>
<event>
 4    1  0.3927513E+003  0.2422826E+02  0.7546771E-02  0.1477625E+00
          2   -1    0    0  502    0  0.00000000000E+00  0.00000000000E+00  0.40737205895E+03  0.40737205895E+03  0.00000000000E+00 0.  1.
          1   -1    0    0  501    0 -0.00000000000E+00 -0.00000000000E+00 -0.25069390970E+01  0.25069390970E+01  0.00000000000E+00 0. -1.
          2    1    1    2  501    0  0.15836522227E+02  0.18336112371E+02  0.33606974442E+03  0.33694195578E+03  0.00000000000E+00 0.  1.
          1    1    1    2  502    0 -0.15836522227E+02 -0.18336112371E+02  0.68795375436E+02  0.72937042266E+02  0.00000000000E+00 0. -1.
</event>
<event>
 4    1  0.3927513E+003  0.2885749E+02  0.7546771E-02  0.1429791E+00
          2   -1    0    0  502    0  0.00000000000E+00  0.00000000000E+00  0.15979549095E+04  0.15979549095E+04  0.00000000000E+00 0. -1.
          1   -1    0    0  501    0 -0.00000000000E+00 -0.00000000000E+00 -0.10378890094E+02  0.10378890094E+02  0.00000000000E+00 0.  1.
          2    1    1    2  501    0 -0.27896007999E+02 -0.73869920227E+01  0.15775057621E+04  0.15777696867E+04  0.00000000000E+00 0. -1.
          1    1    1    2  502    0  0.27896007999E+02  0.73869920227E+01  0.10070257323E+02  0.30564112877E+02  0.00000000000E+00 0.  1.
</event>
<event>
 4    1  0.3927513E+003  0.3738909E+02  0.7546771E-02  0.1364504E+00
          2   -1    0    0  502    0  0.00000000000E+00  0.00000000000E+00  0.89789353289E+01  0.89789353289E+01  0.00000000000E+00 0.  1.
          1   -1    0    0  501    0 -0.00000000000E+00 -0.00000000000E+00 -0.75818732557E+03  0.75818732557E+03  0.00000000000E+00 0.  1.
          2    1    1    2  501    0  0.36629478404E+02  0.74983361592E+01 -0.32665486445E+02  0.49648542154E+02  0.00000000000E+00 0.  1.
          1    1    1    2  502    0 -0.36629478404E+02 -0.74983361592E+01 -0.71654290380E+03  0.71751771875E+03  0.00000000000E+00 0.  1.
</event>
<event>
 4    1  0.3927513E+003  0.2121268E+02  0.7546771E-02  0.1516250E+00
          2   -1    0    0  502    0  0.00000000000E+00  0.00000000000E+00  0.41306131158E+03  0.41306131158E+03  0.00000000000E+00 0. -1.
          1   -1    0    0  501    0 -0.00000000000E+00 -0.00000000000E+00 -0.12392834839E+03  0.12392834839E+03  0.00000000000E+00 0. -1.
          2    1    1    2  501    0  0.15404682571E+02 -0.14583329860E+02  0.41187862585E+03  0.41242451453E+03  0.00000000000E+00 0. -1.
          1    1    1    2  502    0 -0.15404682571E+02  0.14583329860E+02 -0.12274566267E+03  0.12456514544E+03  0.00000000000E+00 0. -1.
</event>
<event>
 4    1  0.3927513E+003  0.2083413E+02  0.7546771E-02  0.1521646E+00
          2   -1    0    0  502    0  0.00000000000E+00  0.00000000000E+00  0.29404606764E+03  0.29404606764E+03  0.00000000000E+00 0. -1.
          1   -1    0    0  501    0 -0.00000000000E+00 -0.00000000000E+00 -0.28721809386E+02  0.28721809386E+02  0.00000000000E+00 0. -1.
          2    1    1    2  501    0  0.20642869134E+02 -0.28165765032E+01  0.28984417489E+03  0.29059199381E+03  0.00000000000E+00 0. -1.
          1    1    1    2  502    0 -0.20642869134E+02  0.28165765032E+01 -0.24519916632E+02  0.32175883219E+02  0.00000000000E+00 0. -1.
</event>
<event>
 4    1  0.3927513E+003  0.2127010E+02  0.7546771E-02  0.1515443E+00
          2   -1    0    0  502    0  0.00000000000E+00  0.00000000000E+00  0.40114863341E+02  0.40114863341E+02  0.00000000000E+00 0.  1.
          1   -1    0    0  501    0 -0.00000000000E+00 -0.00000000000E+00 -0.59664013352E+02  0.59664013352E+02  0.00000000000E+00 0.  1.
          2    1    1    2  501    0 -0.38739382644E+01 -0.20914344359E+02  0.35152909768E+02  0.41087032782E+02  0.00000000000E+00 0.  1.
          1    1    1    2  502    0  0.38739382644E+01  0.20914344359E+02 -0.54702059779E+02  0.58691843911E+02  0.00000000000E+00 0.  1.
</event>
<event>
 4    1  0.3927513E+003  0.5110495E+02  0.7546771E-02  0.1293452E+00
          2   -1    0    0  502    0  0.00000000000E+00  0.00000000000E+00  0.13867122487E+04  0.13867122487E+04  0.00000000000E+00 0. -1.
          1   -1    0    0  501    0 -0.00000000000E+00 -0.00000000000E+00 -0.82777335179E+01  0.82777335179E+01  0.00000000000E+00 0.  1.
          2    1    1    2  501    0  0.22975198566E+02 -0.45649270031E+02  0.13022497045E+04  0.13032520894E+04  0.00000000000E+00 0. -1.
          1    1    1    2  502    0 -0.22975198566E+02  0.45649270031E+02  0.76184810676E+02  0.91737892832E+02  0.00000000000E+00 0.  1.
</event>
<event>
 4    1  0.3927513E+003  0.4157756E+02  0.7546771E-02  0.1339481E+00
          2   -1    0    0  502    0  0.00000000000E+00  0.00000000000E+00  0.10032167550E+04  0.10032167550E+04  0.00000000000E+00 0. -1.
          1   -1    0    0  501    0 -0.00000000000E+00 -0.00000000000E+00 -0.15101438871E+02  0.15101438871E+02  0.00000000000E+00 0.  1.
          2    1    1    2  501    0 -0.23740715409E+02  0.34133147267E+02  0.97328834729E+03  0.97417601093E+03  0.00000000000E+00 0. -1.
          1    1    1    2  502    0  0.23740715409E+02 -0.34133147267E+02  0.14826968856E+02  0.44142182954E+02  0.00000000000E+00 0.  1.
</event>
<event>
 4    1  0.3927513E+003  0.2111569E+02  0.7546771E-02  0.1517619E+00
          2   -1    0    0  502    0  0.00000000000E+00  0.00000000000E+00  0.19651994431E+02  0.19651994431E+02  0.00000000000E+00 0.  1.
          1   -1    0    0  501    0 -0.00000000000E+00 -0.00000000000E+00 -0.10440507859E+03  0.10440507859E+03  0.00000000000E+00 0.  1.
          2    1    1    2  501    0  0.14029528690E+02 -0.15781147618E+02  0.12499916602E+02  0.24538137877E+02  0.00000000000E+00 0.  1.
          1    1    1    2  502    0 -0.14029528690E+02  0.15781147618E+02 -0.97253000760E+02  0.99518935144E+02  0.00000000000E+00 0.  1.
</event>
<event>
 4    1  0.3927513E+003  0.2010354E+02  0.7546771E-02  0.1532459E+00
          2   -1    0    0  502    0  0.00000000000E+00  0.00000000000E+00  0.72243163846E+03  0.72243163846E+03  0.00000000000E+00 0.  1.
          1   -1    0    0  501    0 -0.00000000000E+00 -0.00000000000E+00 -0.48604978197E+02  0.48604978197E+02  0.00000000000E+00 0. -1.
          2    1    1    2  501    0 -0.93091899823E+01 -0.17818284204E+02  0.72020659953E+03  0.72048712569E+03  0.00000000000E+00 0.  1.
          1    1    1    2  502    0  0.93091899823E+01  0.17818284204E+02 -0.46379939273E+02  0.50549490967E+02  0.00000000000E+00 0. -1.
</event>
<event>
 4    1  0.3927513E+003  0.2708238E+02  0.7546771E-02  0.1446782E+00
          2   -1    0    0  502    0  0.00000000000E+00  0.00000000000E+00  0.18601838474E+02  0.18601838474E+02  0.00000000000E+00 0. -1.
          1   -1    0    0  501    0 -0.00000000000E+00 -0.00000000000E+00 -0.62633713813E+02  0.62633713813E+02  0.00000000000E+00 0. -1.
          2    1    1    2  501    0 -0.14240990744E+02 -0.23035835818E+02  0.27069005545E+01  0.27217326463E+02  0.00000000000E+00 0. -1.
          1    1    1    2  502    0  0.14240990744E+02  0.23035835818E+02 -0.46738775893E+02  0.54018225824E+02  0.00000000000E+00 0. -1.
</event>
<event>
 4    1  0.3927513E+003  0.2727945E+02  0.7546771E-02  0.1444821E+00
          2   -1    0    0  502    0  0.00000000000E+00  0.00000000000E+00  0.34540298100E+03  0.34540298100E+03  0.00000000000E+00 0.  1.
          1   -1    0    0  501    0 -0.00000000000E+00 -0.00000000000E+00 -0.88666906411E+01  0.88666906411E+01  0.00000000000E+00 0. -1.
          2    1    1    2  501    0 -0.22448820060E+02 -0.15498995043E+02  0.32238692532E+03  0.32353902081E+03  0.00000000000E+00 0.  1.
          1    1    1    2  502    0  0.22448820060E+02  0.15498995043E+02  0.14149365037E+02  0.30730650829E+02  0.00000000000E+00 0. -1.
</event>
<event>
 4    1  0.3927513E+003  0.2210607E+02  0.7546771E-02  0.1504039E+00
          2   -1    0    0  502    0  0.00000000000E+00  0.00000000000E+00  0.70898153852E+02  0.70898153852E+02  0.00000000000E+00 0.  1.
          1   -1    0    0  501    0 -0.00000000000E+00 -0.00000000000E+00 -0.13319262097E+03  0.13319262097E+03  0.00000000000E+00 0. -1.
          2    1    1    2  501    0 -0.10387198947E+02 -0.19513703862E+02  0.68222668990E+02  0.71714789998E+02  0.00000000000E+00 0.  1.
          1    1    1    2  502    0  0.10387198947E+02  0.19513703862E+02 -0.13051713611E+03  0.13237598483E+03  0.00000000000E+00 0. -1.
</event>
<event>
 4    1  0.3927513E+003  0.2940986E+02  0.7546771E-02  0.1424795E+00
          2   -1    0    0  502    0  0.00000000000E+00  0.00000000000E+00  0.24837976674E+03  0.24837976674E+03  0.00000000000E+00 0. -1.
          1   -1    0    0  501    0 -0.00000000000E+00 -0.00000000000E+00 -0.19091360652E+03  0.19091360652E+03  0.00000000000E+00 0. -1.
          2    1    1    2  501    0  0.12432014081E+02  0.26653045042E+02  0.24636733322E+03  0.24811651026E+03  0.00000000000E+00 0. -1.
          1    1    1    2  502    0 -0.12432014081E+02 -0.26653045042E+02 -0.18890117300E+03  0.19117686300E+03  0.00000000000E+00 0. -1.
</event>
<event>
 4    1  0.3927513E+003  0.2031322E+02  0.7546771E-02  0.1529300E+00
          2   -1    0    0  502    0  0.00000000000E+00  0.00000000000E+00  0.91103139359E+03  0.91103139359E+03  0.00000000000E+00 0.  1.
          1   -1    0    0  501    0 -0.00000000000E+00 -0.00000000000E+00 -0.12401407637E+02  0.12401407637E+02  0.00000000000E+00 0.  1.
          2    1    1    2  501    0 -0.20293271656E+02  0.89997861646E+00  0.90252159661E+03  0.90275016432E+03  0.00000000000E+00 0.  1.
          1    1    1    2  502    0  0.20293271656E+02 -0.89997861646E+00 -0.38916106530E+01  0.20682636909E+02  0.00000000000E+00 0.  1.
</event>
<event>
 4    1  0.3927513E+003  0.3025448E+02  0.7546771E-02  0.1417398E+00
          2   -1    0    0  502    0  0.00000000000E+00  0.00000000000E+00  0.91885676303E+01  0.91885676303E+01  0.00000000000E+00 0.  1.
          1   -1    0    0  501    0 -0.00000000000E+00 -0.00000000000E+00 -0.25420721874E+03  0.25420721874E+03  0.00000000000E+00 0. -1.
          2    1    1    2  501    0 -0.23614683261E+02  0.18912436512E+02 -0.19807891343E+02  0.36161942423E+02  0.00000000000E+00 0.  1.
          1    1    1    2  502    0  0.23614683261E+02 -0.18912436512E+02 -0.22521075976E+03  0.22723384395E+03  0.00000000000E+00 0. -1.
</event>
<event>
 4    1  0.3927513E+003  0.2007967E+02  0.7546771E-02  0.1532821E+00
          2   -1    0    0  502    0  0.00000000000E+00  0.00000000000E+00  0.85970005905E+03  0.85970005905E+03  0.00000000000E+00 0. -1.
          1   -1    0    0  501    0 -0.00000000000E+00 -0.00000000000E+00 -0.21921421504E+01  0.21921421504E+01  0.00000000000E+00 0.  1.
          2    1    1    2  501    0  0.17142186088E+02  0.10456511267E+02  0.81083021877E+03  0.81107881050E+03  0.00000000000E+00 0. -1.
          1    1    1    2  502    0 -0.17142186088E+02 -0.10456511267E+02  0.46677698127E+02  0.50813390698E+02  0.00000000000E+00 0.  1.
</event>
<event>
 4    1  0.3927513E+003  0.2601537E+02  0.7546771E-02  0.1457758E+00
          2   -1    0    0  502    0  0.00000000000E+00  0.00000000000E+00  0.19803529483E+02  0.19803529483E+02  0.00000000000E+00 0.  1.
          1   -1    0    0  501    0 -0.00000000000E+00 -0.00000000000E+00 -0.11961987143E+03  0.11961987143E+03  0.00000000000E+00 0.  1.
          2    1    1    2  501    0 -0.20571716546E+02 -0.15924953618E+02  0.90094508139E+01  0.27531252666E+02  0.00000000000E+00 0.  1.
          1    1    1    2  502    0  0.20571716546E+02  0.15924953618E+02 -0.10882579276E+03  0.11189214824E+03  0.00000000000E+00 0.  1.
</event>
<event>
 4    1  0.3927513E+003  0.4487545E+02  0.7546771E-02  0.1322063E+00
          2   -1    0    0  502    0  0.00000000000E+00  0.00000000000E+00  0.22732695463E+04  0.22732695463E+04  0.00000000000E+00 0.  1.
          1   -1    0    0  501    0 -0.00000000000E+00 -0.00000000000E+00 -0.99722482979E+01  0.99722482979E+01  0.00000000000E+00 0. -1.
          2    1    1    2  501    0 -0.41299059641E+02  0.17555434249E+02  0.22213837506E+04  0.22218369816E+04  0.00000000000E+00 0.  1.
          1    1    1    2  502    0  0.41299059641E+02 -0.17555434249E+02  0.41913547443E+02  0.61404812989E+02  0.00000000000E+00 0. -1.
</event>
<event>
 4    1  0.3927513E+003  0.2060367E+02  0.7546771E-02  0.1524999E+00
          2   -1    0    0  502    0  0.00000000000E+00  0.00000000000E+00  0.16336598328E+03  0.16336598328E+03  0.00000000000E+00 0. -1.
          1   -1    0    0  501    0 -0.00000000000E+00 -0.00000000000E+00 -0.81776669035E+01  0.81776669035E+01  0.00000000000E+00 0. -1.
          2    1    1    2  501    0  0.15934002665E+02  0.13062115015E+02  0.14843985570E+03  0.14986294422E+03  0.00000000000E+00 0. -1.
          1    1    1    2  502    0 -0.15934002665E+02 -0.13062115015E+02  0.67484606752E+01  0.21680705964E+02  0.00000000000E+00 0. -1.
</event>
<event>
 4    1  0.3927513E+003  0.2481234E+02  0.7546771E-02  0.1470914E+00
          2   -1    0    0  502    0  0.00000000000E+00  0.00000000000E+00  0.90548906221E+02  0.90548906221E+02  0.00000000000E+00 0. -1.
          1   -1    0    0  501    0 -0.00000000000E+00 -0.00000000000E+00 -0.63086227541E+03  0.63086227541E+03  0.00000000000E+00 0.  1.
          2    1    1    2  501    0  0.15687916242E+02  0.19223456516E+02  0.88599890635E+02  0.92008655120E+02  0.00000000000E+00 0. -1.
          1    1    1    2  502    0 -0.15687916242E+02 -0.19223456516E+02 -0.62891325983E+03  0.62940252652E+03  0.00000000000E+00 0.  1.
</event>
<event>
 4    1  0.3927513E+003  0.4284373E+02  0.7546771E-02  0.1332582E+00
          2   -1    0    0  502    0  0.00000000000E+00  0.00000000000E+00  0.34379187427E+02  0.34379187427E+02  0.00000000000E+00 0.  1.
          1   -1    0    0  501    0 -0.00000000000E+00 -0.00000000000E+00 -0.12340953578E+03  0.12340953578E+03  0.00000000000E+00 0.  1.
          2    1    1    2  501    0 -0.37507624353E+02  0.20706605015E+02  0.14910477557E+02  0.45364167763E+02  0.00000000000E+00 0.  1.
          1    1    1    2  502    0  0.37507624353E+02 -0.20706605015E+02 -0.10394082591E+03  0.11242455545E+03  0.00000000000E+00 0.  1.
</event>
<event>
 4    1  0.3927513E+003  0.2016616E+02  0.7546771E-02  0.1531511E+00
          2   -1    0    0  502    0  0.00000000000E+00  0.00000000000E+00  0.10518397082E+03  0.10518397082E+03  0.00000000000E+00 0.  1.
          1   -1    0    0  501    0 -0.00000000000E+00 -0.00000000000E+00 -0.55301228105E+02  0.55301228105E+02  0.00000000000E+00 0. -1.
          2    1    1    2  501    0  0.15978084293E+02  0.12303451775E+02  0.10232812294E+03  0.10429630314E+03  0.00000000000E+00 0.  1.
          1    1    1    2  502    0 -0.15978084293E+02 -0.12303451775E+02 -0.52445380225E+02  0.56188895790E+02  0.00000000000E+00 0. -1.
</event>
<event>
 4    1  0.3927513E+003  0.2412452E+02  0.7546771E-02  0.1478840E+00
          2   -1    0    0  502    0  0.00000000000E+00  0.00000000000E+00  0.21849903785E+02  0.21849903785E+02  0.00000000000E+00 0. -1.
          1   -1    0    0  501    0 -0.00000000000E+00 -0.00000000000E+00 -0.40541857125E+03  0.40541857125E+03  0.00000000000E+00 0. -1.
          2    1    1    2  501    0  0.20941871660E+02  0.11976242532E+02  0.14712821526E+02  0.28257025517E+02  0.00000000000E+00 0. -1.
          1    1    1    2  502    0 -0.20941871660E+02 -0.11976242532E+02 -0.39828148899E+03  0.39901144952E+03  0.00000000000E+00 0. -1.
</event>
<event>
 4    1  0.3927513E+003  0.2394817E+02  0.7546771E-02  0.1480923E+00
          2   -1    0    0  502    0  0.00000000000E+00  0.00000000000E+00  0.59196357584E+00  0.59196357584E+00  0.00000000000E+00 0. -1.
          1   -1    0    0  501    0 -0.00000000000E+00 -0.00000000000E+00 -0.10387301436E+04  0.10387301436E+04  0.00000000000E+00 0.  1.
          2    1    1    2  501    0  0.11720729945E+02 -0.20883946849E+02 -0.38426787829E+03  0.38501339851E+03  0.00000000000E+00 0. -1.
          1    1    1    2  502    0 -0.11720729945E+02  0.20883946849E+02 -0.65387030170E+03  0.65430870863E+03  0.00000000000E+00 0.  1.
</event>
<event>
 4    1  0.3927513E+003  0.2744333E+02  0.7546771E-02  0.1443205E+00
          2   -1    0    0  502    0  0.00000000000E+00  0.00000000000E+00  0.83048475645E+03  0.83048475645E+03  0.00000000000E+00 0.  1.
          1   -1    0    0  501    0 -0.00000000000E+00 -0.00000000000E+00 -0.39850364468E+01  0.39850364468E+01  0.00000000000E+00 0. -1.
          2    1    1    2  501    0 -0.20317988837E+02  0.18447651179E+02  0.77994990890E+03  0.78043257038E+03  0.00000000000E+00 0.  1.
          1    1    1    2  502    0  0.20317988837E+02 -0.18447651179E+02  0.46549811098E+02  0.54037222520E+02  0.00000000000E+00 0. -1.
</event>
<event>
 4    1  0.3927513E+003  0.3369015E+02  0.7546771E-02  0.1390013E+00
          2   -1    0    0  502    0  0.00000000000E+00  0.00000000000E+00  0.10537352170E+02  0.10537352170E+02  0.00000000000E+00 0. -1.
          1   -1    0    0  501    0 -0.00000000000E+00 -0.00000000000E+00 -0.29180159821E+03  0.29180159821E+03  0.00000000000E+00 0. -1.
          2    1    1    2  501    0 -0.13399449279E+02 -0.30910859356E+02 -0.20562857663E+02  0.39469704615E+02  0.00000000000E+00 0. -1.
          1    1    1    2  502    0  0.13399449279E+02  0.30910859356E+02 -0.26070138837E+03  0.26286924576E+03  0.00000000000E+00 0. -1.
</event>
<event>
 4    1  0.3927513E+003  0.2663611E+02  0.7546771E-02  0.1451298E+00
          2   -1    0    0  502    0  0.00000000000E+00  0.00000000000E+00  0.16218190509E+02  0.16218190509E+02  0.00000000000E+00 0. -1.
          1   -1    0    0  501    0 -0.00000000000E+00 -0.00000000000E+00 -0.56438836447E+02  0.56438836447E+02  0.00000000000E+00 0.  1.
          2    1    1    2  501    0  0.10337758771E+02  0.24548174608E+02 -0.28822497696E+01  0.26791593769E+02  0.00000000000E+00 0. -1.
          1    1    1    2  502    0 -0.10337758771E+02 -0.24548174608E+02 -0.37338396168E+02  0.45865433186E+02  0.00000000000E+00 0.  1.
</event>
<event>
 4    1  0.3927513E+003  0.3033249E+02  0.7546771E-02  0.1416729E+00
          2   -1    0    0  502    0  0.00000000000E+00  0.00000000000E+00  0.16804318265E+04  0.16804318265E+04  0.00000000000E+00 0.  1.
          1   -1    0    0  501    0 -0.00000000000E+00 -0.00000000000E+00 -0.12287655937E+02  0.12287655937E+02  0.00000000000E+00 0.  1.
          2    1    1    2  501    0 -0.29592740314E+02 -0.66580360715E+01  0.16613608994E+04  0.16616377758E+04  0.00000000000E+00 0.  1.
          1    1    1    2  502    0  0.29592740314E+02  0.66580360715E+01  0.67832711688E+01  0.31081706700E+02  0.00000000000E+00 0.  1.
</event>
<event>
 4    1  0.3927513E+003  0.2001894E+02  0.7546771E-02  0.1533746E+00
          2   -1    0    0  502    0  0.00000000000E+00  0.00000000000E+00  0.12673642444E+02  0.12673642444E+02  0.00000000000E+00 0. -1.
          1   -1    0    0  501    0 -0.00000000000E+00 -0.00000000000E+00 -0.11007880681E+03  0.11007880681E+03  0.00000000000E+00 0. -1.
          2    1    1    2  501    0  0.83535136763E+01 -0.18192767151E+02  0.31135945244E+01  0.20259625816E+02  0.00000000000E+00 0. -1.
          1    1    1    2  502    0 -0.83535136763E+01  0.18192767151E+02 -0.10051875889E+03  0.10249282344E+03  0.00000000000E+00 0. -1.
</event>
<event>
 4    1  0.3927513E+003  0.2283217E+02  0.7546771E-02  0.1494616E+00
          2   -1    0    0  502    0  0.00000000000E+00  0.00000000000E+00  0.80433387769E+01  0.80433387769E+01  0.00000000000E+00 0. -1.
          1   -1    0    0  501    0 -0.00000000000E+00 -0.00000000000E+00 -0.67594663030E+03  0.67594663030E+03  0.00000000000E+00 0.  1.
          2    1    1    2  501    0  0.10328900239E+02 -0.20362261579E+02 -0.87656400049E+01  0.24456989215E+02  0.00000000000E+00 0. -1.
          1    1    1    2  502    0 -0.10328900239E+02  0.20362261579E+02 -0.65913765152E+03  0.65953297986E+03  0.00000000000E+00 0.  1.
</event>
<event>
 4    1  0.3927513E+003  0.2401355E+02  0.7546771E-02  0.1480149E+00
          2   -1    0    0  502    0  0.00000000000E+00  0.00000000000E+00  0.10581753918E+02  0.10581753918E+02  0.00000000000E+00 0.  1.
          1   -1    0    0  501    0 -0.00000000000E+00 -0.00000000000E+00 -0.16881762301E+04  0.16881762301E+04  0.00000000000E+00 0. -1.
          2    1    1    2  501    0 -0.39552162349E+01 -0.23685587630E+02 -0.32398030709E+01  0.24231118851E+02  0.00000000000E+00 0.  1.
          1    1    1    2  502    0  0.39552162349E+01  0.23685587630E+02 -0.16743546731E+04  0.16745268651E+04  0.00000000000E+00 0. -1.
</event>
<event>
 4    1  0.3927513E+003  0.3677195E+02  0.7546771E-02  0.1368516E+00
          2   -1    0    0  502    0  0.00000000000E+00  0.00000000000E+00  0.20595763018E+03  0.20595763018E+03  0.00000000000E+00 0.  1.
          1   -1    0    0  501    0 -0.00000000000E+00 -0.00000000000E+00 -0.19978631640E+02  0.19978631640E+02  0.00000000000E+00 0.  1.
          2    1    1    2  501    0  0.60211908073E+01 -0.36275634486E+02  0.18555330182E+03  0.18916184661E+03  0.00000000000E+00 0.  1.
          1    1    1    2  502    0 -0.60211908073E+01  0.36275634486E+02  0.42569671596E+00  0.36774415206E+02  0.00000000000E+00 0.  1.
</event>
<event>
 4    1  0.3927513E+003  0.2671162E+02  0.7546771E-02  0.1450527E+00
          2   -1    0    0  502    0  0.00000000000E+00  0.00000000000E+00  0.58434525223E+03  0.58434525223E+03  0.00000000000E+00 0.  1.
          1   -1    0    0  501    0 -0.00000000000E+00 -0.00000000000E+00 -0.14135833202E+03  0.14135833202E+03  0.00000000000E+00 0.  1.
          2    1    1    2  501    0 -0.88172079563E+01  0.25214434749E+02  0.58277470917E+03  0.58338655498E+03  0.00000000000E+00 0.  1.
          1    1    1    2  502    0  0.88172079563E+01 -0.25214434749E+02 -0.13978778897E+03  0.14231702927E+03  0.00000000000E+00 0.  1.
</event>
<event>
 4    1  0.3927513E+003  0.4315423E+02  0.7546771E-02  0.1330931E+00
          2   -1    0    0  502    0  0.00000000000E+00  0.00000000000E+00  0.17348309595E+04  0.17348309595E+04  0.00000000000E+00 0.  1.
          1   -1    0    0  501    0 -0.00000000000E+00 -0.00000000000E+00 -0.16345186568E+03  0.16345186568E+03  0.00000000000E+00 0. -1.
          2    1    1    2  501    0 -0.14391588488E+02  0.40683775038E+02  0.17317090853E+04  0.17322467040E+04  0.00000000000E+00 0.  1.
          1    1    1    2  502    0  0.14391588488E+02 -0.40683775038E+02 -0.16032999149E+03  0.16603612119E+03  0.00000000000E+00 0. -1.
</event>
<event>
 4    1  0.3927513E+003  0.3120529E+02  0.7546771E-02  0.1409404E+00
          2   -1    0    0  502    0  0.00000000000E+00  0.00000000000E+00  0.33832109818E+03  0.33832109818E+03  0.00000000000E+00 0.  1.
          1   -1    0    0  501    0 -0.00000000000E+00 -0.00000000000E+00 -0.85888354960E+01  0.85888354960E+01  0.00000000000E+00 0. -1.
          2    1    1    2  501    0  0.44605790213E+01 -0.30884841789E+02  0.30630220644E+03  0.30788766115E+03  0.00000000000E+00 0.  1.
          1    1    1    2  502    0 -0.44605790213E+01  0.30884841789E+02  0.23430056242E+02  0.39022272526E+02  0.00000000000E+00 0. -1.
</event>
<event>
 4    1  0.3927513E+003  0.2014595E+02  0.7546771E-02  0.1531816E+00
          2   -1    0    0  502    0  0.00000000000E+00  0.00000000000E+00  0.11038401546E+02  0.11038401546E+02  0.00000000000E+00 0. -1.
          1   -1    0    0  501    0 -0.00000000000E+00 -0.00000000000E+00 -0.14330195885E+03  0.14330195885E+03  0.00000000000E+00 0. -1.
          2    1    1    2  501    0  0.19667227983E+02  0.43657015828E+01  0.40589623672E+00  0.20150036193E+02  0.00000000000E+00 0. -1.
          1    1    1    2  502    0 -0.19667227983E+02 -0.43657015828E+01 -0.13266945354E+03  0.13419032420E+03  0.00000000000E+00 0. -1.
</event>
<event>
 4    1  0.3927513E+003  0.2271055E+02  0.7546771E-02  0.1496165E+00
          2   -1    0    0  502    0  0.00000000000E+00  0.00000000000E+00  0.11157018917E+04  0.11157018917E+04  0.00000000000E+00 0. -1.
          1   -1    0    0  501    0 -0.00000000000E+00 -0.00000000000E+00 -0.87447312472E+00  0.87447312472E+00  0.00000000000E+00 0. -1.
          2    1    1    2  501    0  0.11571187520E+02  0.19541663830E+02  0.94070987137E+03  0.94098396963E+03  0.00000000000E+00 0. -1.
          1    1    1    2  502    0 -0.11571187520E+02 -0.19541663830E+02  0.17411754725E+03  0.17559239524E+03  0.00000000000E+00 0. -1.
</event>
<event>
 4    1  0.3927513E+003  0.8594118E+02  0.7546771E-02  0.1190688E+00
          2   -1    0    0  502    0  0.00000000000E+00  0.00000000000E+00  0.22156040520E+04  0.22156040520E+04  0.00000000000E+00 0.  1.
          1   -1    0    0  501    0 -0.00000000000E+00 -0.00000000000E+00 -0.33905719566E+01  0.33905719566E+01  0.00000000000E+00 0.  1.
          2    1    1    2  501    0 -0.76460947965E+02 -0.39237856294E+02  0.12499565606E+04  0.12529075342E+04  0.00000000000E+00 0.  1.
          1    1    1    2  502    0  0.76460947965E+02  0.39237856294E+02  0.96225691951E+03  0.96608708980E+03  0.00000000000E+00 0.  1.
</event>
<event>
 4    1  0.3927513E+003  0.2703427E+02  0.7546771E-02  0.1447264E+00
          2   -1    0    0  502    0  0.00000000000E+00  0.00000000000E+00  0.63716287422E+03  0.63716287422E+03  0.00000000000E+00 0. -1.
          1   -1    0    0  501    0 -0.00000000000E+00 -0.00000000000E+00 -0.12689951021E+02  0.12689951021E+02  0.00000000000E+00 0. -1.
          2    1    1    2  501    0 -0.26642773062E+02  0.45841729235E+01  0.62213012514E+03  0.62271722684E+03  0.00000000000E+00 0. -1.
          1    1    1    2  502    0  0.26642773062E+02 -0.45841729235E+01  0.23427980593E+01  0.27135598400E+02  0.00000000000E+00 0. -1.
</event>
<event>
 4    1  0.3927513E+003  0.2988432E+02  0.7546771E-02  0.1420605E+00
          2   -1    0    0  502    0  0.00000000000E+00  0.00000000000E+00  0.22119991384E+04  0.22119991384E+04  0.00000000000E+00 0.  1.
          1   -1    0    0  501    0 -0.00000000000E+00 -0.00000000000E+00 -0.17394529250E+02  0.17394529250E+02  0.00000000000E+00 0. -1.
          2    1    1    2  501    0 -0.95799369932E+01  0.28307191957E+02  0.21989867188E+04  0.21991897739E+04  0.00000000000E+00 0.  1.
          1    1    1    2  502    0  0.95799369932E+01 -0.28307191957E+02 -0.43821096718E+01  0.30203893697E+02  0.00000000000E+00 0. -1.
</event>
<event>
 4    1  0.3927513E+003  0.3139077E+02  0.7546771E-02  0.1407884E+00
          2   -1    0    0  502    0  0.00000000000E+00  0.00000000000E+00  0.11930430726E+04  0.11930430726E+04  0.00000000000E+00 0.  1.
          1   -1    0    0  501    0 -0.00000000000E+00 -0.00000000000E+00 -0.43551088167E+01  0.43551088167E+01  0.00000000000E+00 0.  1.
          2    1    1    2  501    0 -0.59781214410E+01 -0.30816269744E+02  0.11332901534E+04  0.11337248133E+04  0.00000000000E+00 0.  1.
          1    1    1    2  502    0  0.59781214410E+01  0.30816269744E+02  0.55397810399E+02  0.63673368168E+02  0.00000000000E+00 0.  1.
</event>
<event>
 4    1  0.3927513E+003  0.2824282E+02  0.7546771E-02  0.1435508E+00
          2   -1    0    0  502    0  0.00000000000E+00  0.00000000000E+00  0.10064426459E+04  0.10064426459E+04  0.00000000000E+00 0.  1.
          1   -1    0    0  501    0 -0.00000000000E+00 -0.00000000000E+00 -0.14645303667E+01  0.14645303667E+01  0.00000000000E+00 0. -1.
          2    1    1    2  501    0  0.52949866024E+01 -0.27742028078E+02  0.84385434697E+03  0.84432684187E+03  0.00000000000E+00 0.  1.
          1    1    1    2  502    0 -0.52949866024E+01  0.27742028078E+02  0.16112376861E+03  0.16358033444E+03  0.00000000000E+00 0. -1.
</event>
<event>
 4    1  0.3927513E+003  0.2338880E+02  0.7546771E-02  0.1487673E+00
          2   -1    0    0  502    0  0.00000000000E+00  0.00000000000E+00  0.35732077652E+03  0.35732077652E+03  0.00000000000E+00 0.  1.
          1   -1    0    0  501    0 -0.00000000000E+00 -0.00000000000E+00 -0.12081658967E+02  0.12081658967E+02  0.00000000000E+00 0.  1.
          2    1    1    2  501    0  0.19118878566E+02 -0.13472359637E+02  0.34522224052E+03  0.34601362884E+03  0.00000000000E+00 0.  1.
          1    1    1    2  502    0 -0.19118878566E+02  0.13472359637E+02  0.16877036128E-01  0.23388806652E+02  0.00000000000E+00 0.  1.
</event>
<event>
 4    1  0.3927513E+003  0.2208447E+02  0.7546771E-02  0.1504326E+00
          2   -1    0    0  502    0  0.00000000000E+00  0.00000000000E+00  0.53004951940E+00  0.53004951940E+00  0.00000000000E+00 0.  1.
          1   -1    0    0  501    0 -0.00000000000E+00 -0.00000000000E+00 -0.92378660859E+03  0.92378660859E+03  0.00000000000E+00 0.  1.
          2    1    1    2  501    0 -0.97821173859E+01 -0.19799847810E+02 -0.43262170690E+03  0.43318502407E+03  0.00000000000E+00 0.  1.
          1    1    1    2  502    0  0.97821173859E+01  0.19799847810E+02 -0.49063485216E+03  0.49113163404E+03  0.00000000000E+00 0.  1.
</event>
<event>
 4    1  0.3927513E+003  0.2741012E+02  0.7546771E-02  0.1443531E+00
          2   -1    0    0  502    0  0.00000000000E+00  0.00000000000E+00  0.27458619606E+03  0.27458619606E+03  0.00000000000E+00 0.  1.
          1   -1    0    0  501    0 -0.00000000000E+00 -0.00000000000E+00 -0.74305290703E+02  0.74305290703E+02  0.00000000000E+00 0.  1.
          2    1    1    2  501    0 -0.56783875058E+01  0.26815490558E+02  0.27134423202E+03  0.27272514895E+03  0.00000000000E+00 0.  1.
          1    1    1    2  502    0  0.56783875058E+01 -0.26815490558E+02 -0.71063326667E+02  0.76166337811E+02  0.00000000000E+00 0.  1.
</event>
<event>
 4    1  0.3927513E+003  0.2269169E+02  0.7546771E-02  0.1496406E+00
          2   -1    0    0  502    0  0.00000000000E+00  0.00000000000E+00  0.10373020852E+01  0.10373020852E+01  0.00000000000E+00 0.  1.
          1   -1    0    0  501    0 -0.00000000000E+00 -0.00000000000E+00 -0.91886283739E+03  0.91886283739E+03  0.00000000000E+00 0. -1.
          2    1    1    2  501    0  0.42082009596E+01  0.22298064956E+02 -0.14703699972E+03  0.14877765942E+03  0.00000000000E+00 0.  1.
          1    1    1    2  502    0 -0.42082009596E+01 -0.22298064956E+02 -0.77078853558E+03  0.77112248005E+03  0.00000000000E+00 0. -1.
</event>
<event>
 4    1  0.3927513E+003  0.2223554E+02  0.7546771E-02  0.1502327E+00
          2   -1    0    0  502    0  0.00000000000E+00  0.00000000000E+00  0.12610136741E+03  0.12610136741E+03  0.00000000000E+00 0.  1.
          1   -1    0    0  501    0 -0.00000000000E+00 -0.00000000000E+00 -0.47696100052E+01  0.47696100052E+01  0.00000000000E+00 0.  1.
          2    1    1    2  501    0  0.10364721155E+02 -0.19672104427E+02  0.88270090001E+02  0.91027621775E+02  0.00000000000E+00 0.  1.
          1    1    1    2  502    0 -0.10364721155E+02  0.19672104427E+02  0.33061667408E+02  0.39843355644E+02  0.00000000000E+00 0.  1.
</event>
<event>
 4    1  0.3927513E+003  0.3372237E+02  0.7546771E-02  0.1389775E+00
          2   -1    0    0  502    0  0.00000000000E+00  0.00000000000E+00  0.15603407503E+04  0.15603407503E+04  0.00000000000E+00 0.  1.
          1   -1    0    0  501    0 -0.00000000000E+00 -0.00000000000E+00 -0.37285011646E+01  0.37285011646E+01  0.00000000000E+00 0. -1.
          2    1    1    2  501    0 -0.30075079797E+02  0.15254099117E+02  0.14797563086E+04  0.14801405105E+04  0.00000000000E+00 0.  1.
          1    1    1    2  502    0  0.30075079797E+02 -0.15254099117E+02  0.76855940495E+02  0.83928740930E+02  0.00000000000E+00 0. -1.
</event>
<event>
 4    1  0.3927513E+003  0.5099026E+02  0.7546771E-02  0.1293935E+00
          2   -1    0    0  502    0  0.00000000000E+00  0.00000000000E+00  0.60746522962E+03  0.60746522962E+03  0.00000000000E+00 0. -1.
          1   -1    0    0  501    0 -0.00000000000E+00 -0.00000000000E+00 -0.49520412099E+02  0.49520412099E+02  0.00000000000E+00 0.  1.
          2    1    1    2  501    0 -0.41451431779E+02 -0.29694878625E+02  0.59294851012E+03  0.59513691086E+03  0.00000000000E+00 0. -1.
          1    1    1    2  502    0  0.41451431779E+02  0.29694878625E+02 -0.35003692600E+02  0.61848730858E+02  0.00000000000E+00 0.  1.
</event>
<event>
 4    1  0.3927513E+003  0.2425731E+02  0.7546771E-02  0.1477286E+00
          2   -1    0    0  502    0  0.00000000000E+00  0.00000000000E+00  0.86078945338E+02  0.86078945338E+02  0.00000000000E+00 0. -1.
          1   -1    0    0  501    0 -0.00000000000E+00 -0.00000000000E+00 -0.11389147252E+03  0.11389147252E+03  0.00000000000E+00 0. -1.
          2    1    1    2  501    0  0.65081836373E+01 -0.23367936929E+02  0.83031954512E+02  0.86502730596E+02  0.00000000000E+00 0. -1.
          1    1    1    2  502    0 -0.65081836373E+01  0.23367936929E+02 -0.11084448170E+03  0.11346768727E+03  0.00000000000E+00 0. -1.
</event>
<event>
 4    1  0.3927513E+003  0.2233282E+02  0.7546771E-02  0.1501050E+00
          2   -1    0    0  502    0  0.00000000000E+00  0.00000000000E+00  0.96387592445E+03  0.96387592445E+03  0.00000000000E+00 0.  1.
          1   -1    0    0  501    0 -0.00000000000E+00 -0.00000000000E+00 -0.73211117829E+00  0.73211117829E+00  0.00000000000E+00 0.  1.
          2    1    1    2  501    0 -0.37429658479E+01  0.22016922841E+02  0.74273522117E+03  0.74307090069E+03  0.00000000000E+00 0.  1.
          1    1    1    2  502    0  0.37429658479E+01 -0.22016922841E+02  0.22040859210E+03  0.22153713494E+03  0.00000000000E+00 0.  1.
</event>
<event>
 4    1  0.3927513E+003  0.3934121E+02  0.7546771E-02  0.1352390E+00
          2   -1    0    0  502    0  0.00000000000E+00  0.00000000000E+00  0.13193377930E+04  0.13193377930E+04  0.00000000000E+00 0.  1.
          1   -1    0    0  501    0 -0.00000000000E+00 -0.00000000000E+00 -0.10734334526E+02  0.10734334526E+02  0.00000000000E+00 0.  1.
          2    1    1    2  501    0 -0.39242881169E+02  0.27797591144E+01  0.12819471302E+04  0.12825506522E+04  0.00000000000E+00 0.  1.
          1    1    1    2  502    0  0.39242881169E+02 -0.27797591144E+01  0.26656328305E+02  0.47521475376E+02  0.00000000000E+00 0.  1.
</event>
<event>
 4    1  0.3927513E+003  0.4175110E+02  0.7546771E-02  0.1338519E+00
          2   -1    0    0  502    0  0.00000000000E+00  0.00000000000E+00  0.20629831489E+04  0.20629831489E+04  0.00000000000E+00 0.  1.
          1   -1    0    0  501    0 -0.00000000000E+00 -0.00000000000E+00 -0.17902337119E+01  0.17902337119E+01  0.00000000000E+00 0.  1.
          2    1    1    2  501    0  0.41621970702E+02 -0.32811985840E+01  0.17807747417E+04  0.17812641116E+04  0.00000000000E+00 0.  1.
          1    1    1    2  502    0 -0.41621970702E+02  0.32811985840E+01  0.28041817345E+03  0.28350927094E+03  0.00000000000E+00 0.  1.
</event>
<event>
 4    1  0.3927513E+003  0.2040107E+02  0.7546771E-02  0.1527990E+00
          2   -1    0    0  502    0  0.00000000000E+00  0.00000000000E+00  0.11324372462E+04  0.11324372462E+04  0.00000000000E+00 0.  1.
          1   -1    0    0  501    0 -0.00000000000E+00 -0.00000000000E+00 -0.38443603745E+00  0.38443603745E+00  0.00000000000E+00 0.  1.
          2    1    1    2  501    0 -0.83054295010E+01 -0.18633933128E+02  0.68480883294E+03  0.68511264861E+03  0.00000000000E+00 0.  1.
          1    1    1    2  502    0  0.83054295010E+01  0.18633933128E+02  0.44724397718E+03  0.44770903358E+03  0.00000000000E+00 0.  1.
</event>
<event>
 4    1  0.3927513E+003  0.2916457E+02  0.7546771E-02  0.1426998E+00
          2   -1    0    0  502    0  0.00000000000E+00  0.00000000000E+00  0.54344210493E+03  0.54344210493E+03  0.00000000000E+00 0. -1.
          1   -1    0    0  501    0 -0.00000000000E+00 -0.00000000000E+00 -0.15742411347E+01  0.15742411347E+01  0.00000000000E+00 0. -1.
          2    1    1    2  501    0  0.23097761244E+02  0.17806337693E+02  0.29163461717E+03  0.29308927337E+03  0.00000000000E+00 0. -1.
          1    1    1    2  502    0 -0.23097761244E+02 -0.17806337693E+02  0.25023324662E+03  0.25192707269E+03  0.00000000000E+00 0. -1.
</event>
<event>
 4    1  0.3927513E+003  0.4086340E+02  0.7546771E-02  0.1343499E+00
          2   -1    0    0  502    0  0.00000000000E+00  0.00000000000E+00  0.17619092492E+03  0.17619092492E+03  0.00000000000E+00 0.  1.
          1   -1    0    0  501    0 -0.00000000000E+00 -0.00000000000E+00 -0.10093303576E+03  0.10093303576E+03  0.00000000000E+00 0. -1.
          2    1    1    2  501    0  0.39000501288E+02 -0.12197460262E+02  0.16952531632E+03  0.17438076159E+03  0.00000000000E+00 0.  1.
          1    1    1    2  502    0 -0.39000501288E+02  0.12197460262E+02 -0.94267427163E+02  0.10274319910E+03  0.00000000000E+00 0. -1.
</event>
<event>
 4    1  0.3927513E+003  0.3675276E+02  0.7546771E-02  0.1368642E+00
          2   -1    0    0  502    0  0.00000000000E+00  0.00000000000E+00  0.21542895965E+02  0.21542895965E+02  0.00000000000E+00 0.  1.
          1   -1    0    0  501    0 -0.00000000000E+00 -0.00000000000E+00 -0.86981043744E+03  0.86981043744E+03  0.00000000000E+00 0.  1.
          2    1    1    2  501    0 -0.79647162491E+01  0.35879362095E+02  0.51789431585E+01  0.37115856200E+02  0.00000000000E+00 0.  1.
          1    1    1    2  502    0  0.79647162491E+01 -0.35879362095E+02 -0.85344648464E+03  0.85423747721E+03  0.00000000000E+00 0.  1.
</event>
<event>
 4    1  0.3927513E+003  0.2219911E+02  0.7546771E-02  0.1502807E+00
          2   -1    0    0  502    0  0.00000000000E+00  0.00000000000E+00  0.16018554142E+03  0.16018554142E+03  0.00000000000E+00 0. -1.
          1   -1    0    0  501    0 -0.00000000000E+00 -0.00000000000E+00 -0.32849346482E+01  0.32849346482E+01  0.00000000000E+00 0. -1.
          2    1    1    2  501    0  0.18661382594E+02 -0.12023018825E+02  0.57858229619E+02  0.61970758561E+02  0.00000000000E+00 0. -1.
          1    1    1    2  502    0 -0.18661382594E+02  0.12023018825E+02  0.99042377158E+02  0.10149971751E+03  0.00000000000E+00 0. -1.
</event>
<event>
 4    1  0.3927513E+003  0.3520437E+02  0.7546771E-02  0.1379132E+00
          2   -1    0    0  502    0  0.00000000000E+00  0.00000000000E+00  0.42300935051E+03  0.42300935051E+03  0.00000000000E+00 0. -1.
          1   -1    0    0  501    0 -0.00000000000E+00 -0.00000000000E+00 -0.12419327392E+02  0.12419327392E+02  0.00000000000E+00 0.  1.
          2    1    1    2  501    0 -0.32142182341E+02 -0.14360635751E+02  0.39560407781E+03  0.39716738805E+03  0.00000000000E+00 0. -1.
          1    1    1    2  502    0  0.32142182341E+02  0.14360635751E+02  0.14985945307E+02  0.38261289858E+02  0.00000000000E+00 0.  1.
</event>
<event>
 4    1  0.3927513E+003  0.3416269E+02  0.7546771E-02  0.1386547E+00
          2   -1    0    0  502    0  0.00000000000E+00  0.00000000000E+00  0.64033861959E+03  0.64033861959E+03  0.00000000000E+00 0.  1.
          1   -1    0    0  501    0 -0.00000000000E+00 -0.00000000000E+00 -0.53358113156E+03  0.53358113156E+03  0.00000000000E+00 0.  1.
          2    1    1    2  501    0  0.96934227469E+01 -0.32758617268E+02  0.63933528971E+03  0.64024737572E+03  0.00000000000E+00 0.  1.
          1    1    1    2  502    0 -0.96934227469E+01  0.32758617268E+02 -0.53257780169E+03  0.53367237543E+03  0.00000000000E+00 0.  1.
</event>
<event>
 4    1  0.3927513E+003  0.2123867E+02  0.7546771E-02  0.1515884E+00
          2   -1    0    0  502    0  0.00000000000E+00  0.00000000000E+00  0.12125951407E+04  0.12125951407E+04  0.00000000000E+00 0. -1.
          1   -1    0    0  501    0 -0.00000000000E+00 -0.00000000000E+00 -0.38058883498E+01  0.38058883498E+01  0.00000000000E+00 0. -1.
          2    1    1    2  501    0  0.20677329286E+02 -0.48507064091E+01  0.11821075193E+04  0.11822982993E+04  0.00000000000E+00 0. -1.
          1    1    1    2  502    0 -0.20677329286E+02  0.48507064091E+01  0.26681733051E+02  0.34102729769E+02  0.00000000000E+00 0. -1.
</event>
<event>
 4    1  0.3927513E+003  0.3665838E+02  0.7546771E-02  0.1369265E+00
          2   -1    0    0  502    0  0.00000000000E+00  0.00000000000E+00  0.29590736109E+02  0.29590736109E+02  0.00000000000E+00 0. -1.
          1   -1    0    0  501    0 -0.00000000000E+00 -0.00000000000E+00 -0.11075131358E+04  0.11075131358E+04  0.00000000000E+00 0.  1.
          2    1    1    2  501    0 -0.90385372050E+01 -0.35526633015E+02  0.17811850587E+02  0.40756580199E+02  0.00000000000E+00 0. -1.
          1    1    1    2  502    0  0.90385372050E+01  0.35526633015E+02 -0.10957342503E+04  0.10963472917E+04  0.00000000000E+00 0.  1.
</event>
<event>
 4    1  0.3927513E+003  0.2437696E+02  0.7546771E-02  0.1475895E+00
          2   -1    0    0  502    0  0.00000000000E+00  0.00000000000E+00  0.12280433954E+04  0.12280433954E+04  0.00000000000E+00 0.  1.
          1   -1    0    0  501    0 -0.00000000000E+00 -0.00000000000E+00 -0.26454079019E+01  0.26454079019E+01  0.00000000000E+00 0.  1.
          2    1    1    2  501    0  0.21902068270E+02  0.10702138719E+02  0.11689252375E+04  0.11691793905E+04  0.00000000000E+00 0.  1.
          1    1    1    2  502    0 -0.21902068270E+02 -0.10702138719E+02  0.56472750003E+02  0.61509412780E+02  0.00000000000E+00 0.  1.
</event>
<event>
 4    1  0.3927513E+003  0.2063212E+02  0.7546771E-02  0.1524583E+00
          2   -1    0    0  502    0  0.00000000000E+00  0.00000000000E+00  0.56926244600E+03  0.56926244600E+03  0.00000000000E+00 0.  1.
          1   -1    0    0  501    0 -0.00000000000E+00 -0.00000000000E+00 -0.11202203283E+02  0.11202203283E+02  0.00000000000E+00 0. -1.
          2    1    1    2  501    0  0.16738363176E+01 -0.20564112220E+02  0.55940819384E+03  0.55978854202E+03  0.00000000000E+00 0.  1.
          1    1    1    2  502    0 -0.16738363176E+01  0.20564112220E+02 -0.13479511230E+01  0.20676107265E+02  0.00000000000E+00 0. -1.
</event>
<event>
 4    1  0.3927513E+003  0.2418264E+02  0.7546771E-02  0.1478159E+00
          2   -1    0    0  502    0  0.00000000000E+00  0.00000000000E+00  0.18342445096E+02  0.18342445096E+02  0.00000000000E+00 0. -1.
          1   -1    0    0  501    0 -0.00000000000E+00 -0.00000000000E+00 -0.14827690772E+04  0.14827690772E+04  0.00000000000E+00 0.  1.
          2    1    1    2  501    0 -0.13101392769E+02 -0.20326176794E+02  0.10229414016E+02  0.26257205995E+02  0.00000000000E+00 0. -1.
          1    1    1    2  502    0  0.13101392769E+02  0.20326176794E+02 -0.14746560462E+04  0.14748543163E+04  0.00000000000E+00 0.  1.
</event>
<event>
 4    1  0.3927513E+003  0.2664763E+02  0.7546771E-02  0.1451180E+00
          2   -1    0    0  502    0  0.00000000000E+00  0.00000000000E+00  0.12907046227E+02  0.12907046227E+02  0.00000000000E+00 0.  1.
          1   -1    0    0  501    0 -0.00000000000E+00 -0.00000000000E+00 -0.38179971423E+03  0.38179971423E+03  0.00000000000E+00 0.  1.
          2    1    1    2  501    0  0.23840055997E+02  0.11905790481E+02 -0.18647939424E+01  0.26712797933E+02  0.00000000000E+00 0.  1.
          1    1    1    2  502    0 -0.23840055997E+02 -0.11905790481E+02 -0.36702787406E+03  0.36799396253E+03  0.00000000000E+00 0.  1.
</event>
<event>
 4    1  0.3927513E+003  0.4057160E+02  0.7546771E-02  0.1345168E+00
          2   -1    0    0  502    0  0.00000000000E+00  0.00000000000E+00  0.27794455713E+03  0.27794455713E+03  0.00000000000E+00 0. -1.
          1   -1    0    0  501    0 -0.00000000000E+00 -0.00000000000E+00 -0.12256963622E+04  0.12256963622E+04  0.00000000000E+00 0.  1.
          2    1    1    2  501    0  0.32976840202E+02 -0.23634355711E+02  0.27612605881E+03  0.27909076501E+03  0.00000000000E+00 0. -1.
          1    1    1    2  502    0 -0.32976840202E+02  0.23634355711E+02 -0.12238778639E+04  0.12245501543E+04  0.00000000000E+00 0.  1.
</event>
<event>
 4    1  0.3927513E+003  0.2994020E+02  0.7546771E-02  0.1420117E+00
          2   -1    0    0  502    0  0.00000000000E+00  0.00000000000E+00  0.47332803852E+03  0.47332803852E+03  0.00000000000E+00 0. -1.
          1   -1    0    0  501    0 -0.00000000000E+00 -0.00000000000E+00 -0.17626247519E+03  0.17626247519E+03  0.00000000000E+00 0.  1.
          2    1    1    2  501    0 -0.29235444312E+02  0.64578885885E+01  0.47157844058E+03  0.47252792632E+03  0.00000000000E+00 0. -1.
          1    1    1    2  502    0  0.29235444312E+02 -0.64578885885E+01 -0.17451287725E+03  0.17706258740E+03  0.00000000000E+00 0.  1.
</event>
<event>
 4    1  0.3927513E+003  0.2040816E+02  0.7546771E-02  0.1527885E+00
          2   -1    0    0  502    0  0.00000000000E+00  0.00000000000E+00  0.50835970339E+03  0.50835970339E+03  0.00000000000E+00 0. -1.
          1   -1    0    0  501    0 -0.00000000000E+00 -0.00000000000E+00 -0.22672198812E+01  0.22672198812E+01  0.00000000000E+00 0.  1.
          2    1    1    2  501    0  0.16120672731E+01  0.20344395070E+02  0.45707947393E+03  0.45753484966E+03  0.00000000000E+00 0. -1.
          1    1    1    2  502    0 -0.16120672731E+01 -0.20344395070E+02  0.49013009582E+02  0.53092073608E+02  0.00000000000E+00 0.  1.
</event>
<event>
 4    1  0.3927513E+003  0.2005073E+02  0.7546771E-02  0.1533262E+00
          2   -1    0    0  502    0  0.00000000000E+00  0.00000000000E+00  0.58948483263E+02  0.58948483263E+02  0.00000000000E+00 0.  1.
          1   -1    0    0  501    0 -0.00000000000E+00 -0.00000000000E+00 -0.55310719951E+03  0.55310719951E+03  0.00000000000E+00 0. -1.
          2    1    1    2  501    0  0.13579650108E+02 -0.14752112047E+02  0.57055903050E+02  0.60476506015E+02  0.00000000000E+00 0.  1.
          1    1    1    2  502    0 -0.13579650108E+02  0.14752112047E+02 -0.55121461930E+03  0.55157917676E+03  0.00000000000E+00 0. -1.
</event>
<event>
 4    1  0.3927513E+003  0.3366480E+02  0.7546771E-02  0.1390201E+00
          2   -1    0    0  502    0  0.00000000000E+00  0.00000000000E+00  0.11801571576E+02  0.11801571576E+02  0.00000000000E+00 0. -1.
          1   -1    0    0  501    0 -0.00000000000E+00 -0.00000000000E+00 -0.43052418370E+03  0.43052418370E+03  0.00000000000E+00 0. -1.
          2    1    1    2  501    0  0.33146051354E+02 -0.58871252565E+01 -0.14418609706E+02  0.36622605997E+02  0.00000000000E+00 0. -1.
          1    1    1    2  502    0 -0.33146051354E+02  0.58871252565E+01 -0.40430400242E+03  0.40570314928E+03  0.00000000000E+00 0. -1.
</event>
<event>
 4    1  0.3927513E+003  0.2298556E+02  0.7546771E-02  0.1492680E+00
          2   -1    0    0  502    0  0.00000000000E+00  0.00000000000E+00  0.64168546629E+01  0.64168546629E+01  0.00000000000E+00 0.  1.
          1   -1    0    0  501    0 -0.00000000000E+00 -0.00000000000E+00 -0.15066878191E+03  0.15066878191E+03  0.00000000000E+00 0. -1.
          2    1    1    2  501    0  0.27405098033E+01  0.22821601523E+02 -0.19231464393E+02  0.29969736615E+02  0.00000000000E+00 0.  1.
          1    1    1    2  502    0 -0.27405098033E+01 -0.22821601523E+02 -0.12502046286E+03  0.12711589996E+03  0.00000000000E+00 0. -1.
</event>
<event>
 4    1  0.3927513E+003  0.2823484E+02  0.7546771E-02  0.1435583E+00
          2   -1    0    0  502    0  0.00000000000E+00  0.00000000000E+00  0.84109200901E+03  0.84109200901E+03  0.00000000000E+00 0. -1.
          1   -1    0    0  501    0 -0.00000000000E+00 -0.00000000000E+00 -0.11096108864E+01  0.11096108864E+01  0.00000000000E+00 0. -1.
          2    1    1    2  501    0 -0.28141015538E+02 -0.22998199675E+01  0.58078688747E+03  0.58147279780E+03  0.00000000000E+00 0. -1.
          1    1    1    2  502    0  0.28141015538E+02  0.22998199675E+01  0.25919551065E+03  0.26072882209E+03  0.00000000000E+00 0. -1.
</event>
<event>
 4    1  0.3927513E+003  0.3033881E+02  0.7546771E-02  0.1416675E+00
          2   -1    0    0  502    0  0.00000000000E+00  0.00000000000E+00  0.90869952994E+03  0.90869952994E+03  0.00000000000E+00 0.  1.
          1   -1    0    0  501    0 -0.00000000000E+00 -0.00000000000E+00 -0.41451594797E+01  0.41451594797E+01  0.00000000000E+00 0. -1.
          2    1    1    2  501    0  0.21803618562E+02 -0.21096109623E+02  0.84903315793E+03  0.84957503900E+03  0.00000000000E+00 0.  1.
          1    1    1    2  502    0 -0.21803618562E+02  0.21096109623E+02  0.55521212528E+02  0.63269650419E+02  0.00000000000E+00 0. -1.
</event>
<event>
 4    1  0.3927513E+003  0.2510857E+02  0.7546771E-02  0.1467592E+00
          2   -1    0    0  502    0  0.00000000000E+00  0.00000000000E+00  0.13503221647E+01  0.13503221647E+01  0.00000000000E+00 0.  1.
          1   -1    0    0  501    0 -0.00000000000E+00 -0.00000000000E+00 -0.64809113427E+03  0.64809113427E+03  0.00000000000E+00 0. -1.
          2    1    1    2  501    0  0.20635112611E+02 -0.14304979245E+02 -0.15166548866E+03  0.15372983040E+03  0.00000000000E+00 0.  1.
          1    1    1    2  502    0 -0.20635112611E+02  0.14304979245E+02 -0.49507532345E+03  0.49571162604E+03  0.00000000000E+00 0. -1.
</event>
<event>
 4    1  0.3927513E+003  0.2244099E+02  0.7546771E-02  0.1499639E+00
          2   -1    0    0  502    0  0.00000000000E+00  0.00000000000E+00  0.35448817834E+02  0.35448817834E+02  0.00000000000E+00 0.  1.
          1   -1    0    0  501    0 -0.00000000000E+00 -0.00000000000E+00 -0.11421717385E+04  0.11421717385E+04  0.00000000000E+00 0. -1.
          2    1    1    2  501    0 -0.22031362046E+02  0.42681707341E+01  0.31775545163E+02  0.38900944274E+02  0.00000000000E+00 0.  1.
          1    1    1    2  502    0  0.22031362046E+02 -0.42681707341E+01 -0.11384984658E+04  0.11387196120E+04  0.00000000000E+00 0. -1.
</event>
<event>
 4    1  0.3927513E+003  0.2941967E+02  0.7546771E-02  0.1424707E+00
          2   -1    0    0  502    0  0.00000000000E+00  0.00000000000E+00  0.25951801021E+03  0.25951801021E+03  0.00000000000E+00 0. -1.
          1   -1    0    0  501    0 -0.00000000000E+00 -0.00000000000E+00 -0.77062489657E+01  0.77062489657E+01  0.00000000000E+00 0.  1.
          2    1    1    2  501    0 -0.29373322936E+02  0.16507593114E+01  0.22653471488E+03  0.22843706825E+03  0.00000000000E+00 0. -1.
          1    1    1    2  502    0  0.29373322936E+02 -0.16507593114E+01  0.25277046359E+02  0.38787190917E+02  0.00000000000E+00 0.  1.
</event>
<event>
 4    1  0.3927513E+003  0.2264549E+02  0.7546771E-02  0.1496998E+00
          2   -1    0    0  502    0  0.00000000000E+00  0.00000000000E+00  0.26096919261E+02  0.26096919261E+02  0.00000000000E+00 0. -1.
          1   -1    0    0  501    0 -0.00000000000E+00 -0.00000000000E+00 -0.34754171385E+02  0.34754171385E+02  0.00000000000E+00 0.  1.
          2    1    1    2  501    0  0.12535655124E+02 -0.18859368439E+02  0.15728821313E+02  0.27571983011E+02  0.00000000000E+00 0. -1.
          1    1    1    2  502    0 -0.12535655124E+02  0.18859368439E+02 -0.24386073437E+02  0.33279107635E+02  0.00000000000E+00 0.  1.
</event>
<event>
 4    1  0.3927513E+003  0.5209781E+02  0.7546771E-02  0.1289325E+00
          2   -1    0    0  502    0  0.00000000000E+00  0.00000000000E+00  0.72038419612E+03  0.72038419612E+03  0.00000000000E+00 0. -1.
          1   -1    0    0  501    0 -0.00000000000E+00 -0.00000000000E+00 -0.29061821611E+02  0.29061821611E+02  0.00000000000E+00 0. -1.
          2    1    1    2  501    0  0.77761594223E+01 -0.51514203855E+02  0.69525107425E+03  0.69720028550E+03  0.00000000000E+00 0. -1.
          1    1    1    2  502    0 -0.77761594223E+01  0.51514203855E+02 -0.39286997464E+01  0.52245732227E+02  0.00000000000E+00 0. -1.
</event>
<event>
 4    1  0.3927513E+003  0.2246333E+02  0.7546771E-02  0.1499349E+00
          2   -1    0    0  502    0  0.00000000000E+00  0.00000000000E+00  0.21525694492E+03  0.21525694492E+03  0.00000000000E+00 0.  1.
          1   -1    0    0  501    0 -0.00000000000E+00 -0.00000000000E+00 -0.12620654293E+03  0.12620654293E+03  0.00000000000E+00 0.  1.
          2    1    1    2  501    0  0.49963598688E+01  0.21900632289E+02  0.21366391304E+03  0.21484149749E+03  0.00000000000E+00 0.  1.
          1    1    1    2  502    0 -0.49963598688E+01 -0.21900632289E+02 -0.12461351105E+03  0.12662199036E+03  0.00000000000E+00 0.  1.
</event>
<event>
 4    1  0.3927513E+003  0.2056685E+02  0.7546771E-02  0.1525540E+00
          2   -1    0    0  502    0  0.00000000000E+00  0.00000000000E+00  0.17140468581E+01  0.17140468581E+01  0.00000000000E+00 0. -1.
          1   -1    0    0  501    0 -0.00000000000E+00 -0.00000000000E+00 -0.64411677870E+03  0.64411677870E+03  0.00000000000E+00 0. -1.
          2    1    1    2  501    0  0.59219965081E+01  0.19695818795E+02 -0.67580519860E+02  0.70640795474E+02  0.00000000000E+00 0. -1.
          1    1    1    2  502    0 -0.59219965081E+01 -0.19695818795E+02 -0.57482221198E+03  0.57519003008E+03  0.00000000000E+00 0. -1.
</event>
<event>
 4    1  0.3927513E+003  0.2168011E+02  0.7546771E-02  0.1509772E+00
          2   -1    0    0  502    0  0.00000000000E+00  0.00000000000E+00  0.69298114499E+02  0.69298114499E+02  0.00000000000E+00 0. -1.
          1   -1    0    0  501    0 -0.00000000000E+00 -0.00000000000E+00 -0.56727968537E+03  0.56727968537E+03  0.00000000000E+00 0.  1.
          2    1    1    2  501    0 -0.19512623937E+02 -0.94490653187E+01  0.67389580159E+02  0.70791121211E+02  0.00000000000E+00 0. -1.
          1    1    1    2  502    0  0.19512623937E+02  0.94490653187E+01 -0.56537115103E+03  0.56578667866E+03  0.00000000000E+00 0.  1.
</event>
<event>
 4    1  0.3927513E+003  0.3751758E+02  0.7546771E-02  0.1363681E+00
          2   -1    0    0  502    0  0.00000000000E+00  0.00000000000E+00  0.10138250030E+02  0.10138250030E+02  0.00000000000E+00 0. -1.
          1   -1    0    0  501    0 -0.00000000000E+00 -0.00000000000E+00 -0.13936062273E+03  0.13936062273E+03  0.00000000000E+00 0.  1.
          2    1    1    2  501    0 -0.11404131263E+02  0.35742316146E+02 -0.69191741060E+02  0.78708731436E+02  0.00000000000E+00 0. -1.
          1    1    1    2  502    0  0.11404131263E+02 -0.35742316146E+02 -0.60030631636E+02  0.70790141319E+02  0.00000000000E+00 0.  1.
</event>
<event>
 4    1  0.3927513E+003  0.2509904E+02  0.7546771E-02  0.1467698E+00
          2   -1    0    0  502    0  0.00000000000E+00  0.00000000000E+00  0.11964021329E+02  0.11964021329E+02  0.00000000000E+00 0.  1.
          1   -1    0    0  501    0 -0.00000000000E+00 -0.00000000000E+00 -0.52863097393E+03  0.52863097393E+03  0.00000000000E+00 0.  1.
          2    1    1    2  501    0  0.22835274594E+02 -0.10416915447E+02 -0.18505991426E+01  0.25167173270E+02  0.00000000000E+00 0.  1.
          1    1    1    2  502    0 -0.22835274594E+02  0.10416915447E+02 -0.51481635346E+03  0.51542782199E+03  0.00000000000E+00 0.  1.
</event>
<event>
 4    1  0.3927513E+003  0.2127279E+02  0.7546771E-02  0.1515406E+00
          2   -1    0    0  502    0  0.00000000000E+00  0.00000000000E+00  0.27147278453E+01  0.27147278453E+01  0.00000000000E+00 0. -1.
          1   -1    0    0  501    0 -0.00000000000E+00 -0.00000000000E+00 -0.64191628316E+03  0.64191628316E+03  0.00000000000E+00 0. -1.
          2    1    1    2  501    0  0.19114681287E+02  0.93359801584E+01 -0.42275189815E+02  0.47325714365E+02  0.00000000000E+00 0. -1.
          1    1    1    2  502    0 -0.19114681287E+02 -0.93359801584E+01 -0.59692636550E+03  0.59730529664E+03  0.00000000000E+00 0. -1.
</event>
<event>
 4    1  0.3927513E+003  0.2437515E+02  0.7546771E-02  0.1475916E+00
          2   -1    0    0  502    0  0.00000000000E+00  0.00000000000E+00  0.56827848956E+03  0.56827848956E+03  0.00000000000E+00 0. -1.
          1   -1    0    0  501    0 -0.00000000000E+00 -0.00000000000E+00 -0.30954016573E+02  0.30954016573E+02  0.00000000000E+00 0. -1.
          2    1    1    2  501    0 -0.20501747564E+02  0.13184313961E+02  0.56317501186E+03  0.56370226341E+03  0.00000000000E+00 0. -1.
          1    1    1    2  502    0  0.20501747564E+02 -0.13184313961E+02 -0.25850538875E+02  0.35530242723E+02  0.00000000000E+00 0. -1.
</event>
<event>
 4    1  0.3927513E+003  0.2646203E+02  0.7546771E-02  0.1453088E+00
          2   -1    0    0  502    0  0.00000000000E+00  0.00000000000E+00  0.36035237448E+01  0.36035237448E+01  0.00000000000E+00 0. -1.
          1   -1    0    0  501    0 -0.00000000000E+00 -0.00000000000E+00 -0.19931879328E+03  0.19931879328E+03  0.00000000000E+00 0. -1.
          2    1    1    2  501    0 -0.72476931813E+01  0.25450151280E+02 -0.81790890913E+02  0.85965045762E+02  0.00000000000E+00 0. -1.
          1    1    1    2  502    0  0.72476931813E+01 -0.25450151280E+02 -0.11392437862E+03  0.11695727126E+03  0.00000000000E+00 0. -1.
</event>
<event>
 4    1  0.3927513E+003  0.2021840E+02  0.7546771E-02  0.1530723E+00
          2   -1    0    0  502    0  0.00000000000E+00  0.00000000000E+00  0.11166906257E+03  0.11166906257E+03  0.00000000000E+00 0. -1.
          1   -1    0    0  501    0 -0.00000000000E+00 -0.00000000000E+00 -0.10362964023E+02  0.10362964023E+02  0.00000000000E+00 0. -1.
          2    1    1    2  501    0 -0.17231784726E+02 -0.10575882327E+02  0.99722764826E+02  0.10175172488E+03  0.00000000000E+00 0. -1.
          1    1    1    2  502    0  0.17231784726E+02  0.10575882327E+02  0.15833337212E+01  0.20280301712E+02  0.00000000000E+00 0. -1.
</event>
<event>
 4    1  0.3927513E+003  0.2393987E+02  0.7546771E-02  0.1481022E+00
          2   -1    0    0  502    0  0.00000000000E+00  0.00000000000E+00  0.12122246124E+04  0.12122246124E+04  0.00000000000E+00 0.  1.
          1   -1    0    0  501    0 -0.00000000000E+00 -0.00000000000E+00 -0.90498760361E+01  0.90498760361E+01  0.00000000000E+00 0. -1.
          2    1    1    2  501    0  0.23781422260E+02  0.27498110988E+01  0.11960602798E+04  0.11962998414E+04  0.00000000000E+00 0.  1.
          1    1    1    2  502    0 -0.23781422260E+02 -0.27498110988E+01  0.71144565935E+01  0.24974647113E+02  0.00000000000E+00 0. -1.
</event>
<event>
 4    1  0.3927513E+003  0.2522442E+02  0.7546771E-02  0.1466308E+00
          2   -1    0    0  502    0  0.00000000000E+00  0.00000000000E+00  0.10938491046E+03  0.10938491046E+03  0.00000000000E+00 0.  1.
          1   -1    0    0  501    0 -0.00000000000E+00 -0.00000000000E+00 -0.50570608902E+02  0.50570608902E+02  0.00000000000E+00 0. -1.
          2    1    1    2  501    0 -0.16484552490E+02 -0.19092692441E+02  0.10464477793E+03  0.10764200353E+03  0.00000000000E+00 0.  1.
          1    1    1    2  502    0  0.16484552490E+02  0.19092692441E+02 -0.45830476366E+02  0.52313515839E+02  0.00000000000E+00 0. -1.
</event>
<event>
 4    1  0.3927513E+003  0.2189496E+02  0.7546771E-02  0.1506861E+00
          2   -1    0    0  502    0  0.00000000000E+00  0.00000000000E+00  0.22682685474E+03  0.22682685474E+03  0.00000000000E+00 0. -1.
          1   -1    0    0  501    0 -0.00000000000E+00 -0.00000000000E+00 -0.19225398444E+03  0.19225398444E+03  0.00000000000E+00 0.  1.
          2    1    1    2  501    0 -0.16571868578E+02  0.14309518425E+02  0.22567192731E+03  0.22673157680E+03  0.00000000000E+00 0. -1.
          1    1    1    2  502    0  0.16571868578E+02 -0.14309518425E+02 -0.19109905701E+03  0.19234926237E+03  0.00000000000E+00 0.  1.
</event>
<event>
 4    1  0.3927513E+003  0.2035657E+02  0.7546771E-02  0.1528653E+00
          2   -1    0    0  502    0  0.00000000000E+00  0.00000000000E+00  0.12755188865E+03  0.12755188865E+03  0.00000000000E+00 0. -1.
          1   -1    0    0  501    0 -0.00000000000E+00 -0.00000000000E+00 -0.22504100722E+03  0.22504100722E+03  0.00000000000E+00 0.  1.
          2    1    1    2  501    0  0.13976054515E+02  0.14800672559E+02  0.12627471410E+03  0.12790501722E+03  0.00000000000E+00 0. -1.
          1    1    1    2  502    0 -0.13976054515E+02 -0.14800672559E+02 -0.22376383266E+03  0.22468787866E+03  0.00000000000E+00 0.  1.
</event>
<event>
 4    1  0.3927513E+003  0.2003706E+02  0.7546771E-02  0.1533470E+00
          2   -1    0    0  502    0  0.00000000000E+00  0.00000000000E+00  0.97000955182E+02  0.97000955182E+02  0.00000000000E+00 0. -1.
          1   -1    0    0  501    0 -0.00000000000E+00 -0.00000000000E+00 -0.85406489482E+01  0.85406489482E+01  0.00000000000E+00 0. -1.
          2    1    1    2  501    0  0.12720755413E+02 -0.15481158154E+02  0.82114301236E+02  0.84523620033E+02  0.00000000000E+00 0. -1.
          1    1    1    2  502    0 -0.12720755413E+02  0.15481158154E+02  0.63460049978E+01  0.21017984097E+02  0.00000000000E+00 0. -1.
</event>
<event>
 4    1  0.3927513E+003  0.2106040E+02  0.7546771E-02  0.1518404E+00
          2   -1    0    0  502    0  0.00000000000E+00  0.00000000000E+00  0.69449005057E+01  0.69449005057E+01  0.00000000000E+00 0. -1.
          1   -1    0    0  501    0 -0.00000000000E+00 -0.00000000000E+00 -0.46907872565E+03  0.46907872565E+03  0.00000000000E+00 0.  1.
          2    1    1    2  501    0 -0.21051676148E+02 -0.60596814819E+00 -0.98504749132E+01  0.23250206924E+02  0.00000000000E+00 0. -1.
          1    1    1    2  502    0  0.21051676148E+02  0.60596814819E+00 -0.45228335023E+03  0.45277341923E+03  0.00000000000E+00 0.  1.
</event>
<event>
 4    1  0.3927513E+003  0.2172219E+02  0.7546771E-02  0.1509199E+00
          2   -1    0    0  502    0  0.00000000000E+00  0.00000000000E+00  0.32544666652E+03  0.32544666652E+03  0.00000000000E+00 0.  1.
          1   -1    0    0  501    0 -0.00000000000E+00 -0.00000000000E+00 -0.29666491170E+01  0.29666491170E+01  0.00000000000E+00 0. -1.
          2    1    1    2  501    0 -0.21095340400E+02 -0.51807651080E+01  0.27865392234E+03  0.27949930617E+03  0.00000000000E+00 0.  1.
          1    1    1    2  502    0  0.21095340400E+02  0.51807651080E+01  0.43826095060E+02  0.48914009465E+02  0.00000000000E+00 0. -1.
</event>
<event>
 4    1  0.3927513E+003  0.2488239E+02  0.7546771E-02  0.1470123E+00
          2   -1    0    0  502    0  0.00000000000E+00  0.00000000000E+00  0.42589309846E+00  0.42589309846E+00  0.00000000000E+00 0.  1.
          1   -1    0    0  501    0 -0.00000000000E+00 -0.00000000000E+00 -0.14539898945E+04  0.14539898945E+04  0.00000000000E+00 0.  1.
          2    1    1    2  501    0  0.22929007294E+02  0.96640291263E+01 -0.73653689322E+03  0.73695707331E+03  0.00000000000E+00 0.  1.
          1    1    1    2  502    0 -0.22929007294E+02 -0.96640291263E+01 -0.71702710820E+03  0.71745871430E+03  0.00000000000E+00 0.  1.
</event>
<event>
 4    1  0.3927513E+003  0.2864682E+02  0.7546771E-02  0.1431732E+00
          2   -1    0    0  502    0  0.00000000000E+00  0.00000000000E+00  0.10220113852E+01  0.10220113852E+01  0.00000000000E+00 0.  1.
          1   -1    0    0  501    0 -0.00000000000E+00 -0.00000000000E+00 -0.13209458722E+04  0.13209458722E+04  0.00000000000E+00 0.  1.
          2    1    1    2  501    0  0.11768825858E+02 -0.26117720007E+02 -0.24605302414E+03  0.24771502023E+03  0.00000000000E+00 0.  1.
          1    1    1    2  502    0 -0.11768825858E+02  0.26117720007E+02 -0.10738708367E+04  0.10742528633E+04  0.00000000000E+00 0.  1.
</event>
<event>
 4    1  0.3927513E+003  0.3686984E+02  0.7546771E-02  0.1367874E+00
          2   -1    0    0  502    0  0.00000000000E+00  0.00000000000E+00  0.15067502662E+03  0.15067502662E+03  0.00000000000E+00 0. -1.
          1   -1    0    0  501    0 -0.00000000000E+00 -0.00000000000E+00 -0.98707360227E+02  0.98707360227E+02  0.00000000000E+00 0.  1.
          2    1    1    2  501    0  0.30137385855E+02 -0.21239657702E+02  0.14484004155E+03  0.14945910050E+03  0.00000000000E+00 0. -1.
          1    1    1    2  502    0 -0.30137385855E+02  0.21239657702E+02 -0.92872375163E+02  0.99923286344E+02  0.00000000000E+00 0.  1.
</event>
<event>
 4    1  0.3927513E+003  0.2752815E+02  0.7546771E-02  0.1442374E+00
          2   -1    0    0  502    0  0.00000000000E+00  0.00000000000E+00  0.45334481585E+03  0.45334481585E+03  0.00000000000E+00 0.  1.
          1   -1    0    0  501    0 -0.00000000000E+00 -0.00000000000E+00 -0.22444186660E+01  0.22444186660E+01  0.00000000000E+00 0. -1.
          2    1    1    2  501    0  0.42774488494E+01 -0.27193793985E+02  0.34063296653E+03  0.34174349575E+03  0.00000000000E+00 0.  1.
          1    1    1    2  502    0 -0.42774488494E+01  0.27193793985E+02  0.11046743065E+03  0.11384573876E+03  0.00000000000E+00 0. -1.
</event>
<event>
 4    1  0.3927513E+003  0.3001962E+02  0.7546771E-02  0.1419426E+00
          2   -1    0    0  502    0  0.00000000000E+00  0.00000000000E+00  0.25970464169E+03  0.25970464169E+03  0.00000000000E+00 0. -1.
          1   -1    0    0  501    0 -0.00000000000E+00 -0.00000000000E+00 -0.35130623941E+01  0.35130623941E+01  0.00000000000E+00 0. -1.
          2    1    1    2  501    0 -0.27343603972E+02 -0.12389671939E+02  0.11352573077E+03  0.11742771477E+03  0.00000000000E+00 0. -1.
          1    1    1    2  502    0  0.27343603972E+02  0.12389671939E+02  0.14266584852E+03  0.14578998931E+03  0.00000000000E+00 0. -1.
</event>
<event>
 4    1  0.3927513E+003  0.2096562E+02  0.7546771E-02  0.1519756E+00
          2   -1    0    0  502    0  0.00000000000E+00  0.00000000000E+00  0.45817255948E+01  0.45817255948E+01  0.00000000000E+00 0. -1.
          1   -1    0    0  501    0 -0.00000000000E+00 -0.00000000000E+00 -0.12837078820E+03  0.12837078820E+03  0.00000000000E+00 0. -1.
          2    1    1    2  501    0  0.59107536793E+01  0.20115178691E+02 -0.28480283723E+02  0.35365010728E+02  0.00000000000E+00 0. -1.
          1    1    1    2  502    0 -0.59107536793E+01 -0.20115178691E+02 -0.95308778886E+02  0.97587503071E+02  0.00000000000E+00 0. -1.
</event>
<event>
 4    1  0.3927513E+003  0.2854474E+02  0.7546771E-02  0.1432679E+00
          2   -1    0    0  502    0  0.00000000000E+00  0.00000000000E+00  0.21713410285E+02  0.21713410285E+02  0.00000000000E+00 0. -1.
          1   -1    0    0  501    0 -0.00000000000E+00 -0.00000000000E+00 -0.77861097053E+02  0.77861097053E+02  0.00000000000E+00 0.  1.
          2    1    1    2  501    0  0.19113462227E+02  0.21200894441E+02  0.77608094309E+01  0.29580948708E+02  0.00000000000E+00 0. -1.
          1    1    1    2  502    0 -0.19113462227E+02 -0.21200894441E+02 -0.63908496199E+02  0.69993558631E+02  0.00000000000E+00 0.  1.
</event>
<event>
 4    1  0.3927513E+003  0.2223486E+02  0.7546771E-02  0.1502336E+00
          2   -1    0    0  502    0  0.00000000000E+00  0.00000000000E+00  0.20873981270E+03  0.20873981270E+03  0.00000000000E+00 0.  1.
          1   -1    0    0  501    0 -0.00000000000E+00 -0.00000000000E+00 -0.80864335592E+01  0.80864335592E+01  0.00000000000E+00 0. -1.
          2    1    1    2  501    0 -0.17658488207E+02  0.13511729004E+02  0.19149101818E+03  0.19277758965E+03  0.00000000000E+00 0.  1.
          1    1    1    2  502    0  0.17658488207E+02 -0.13511729004E+02  0.91623609589E+01  0.24048656611E+02  0.00000000000E+00 0. -1.
</event>
<event>
 4    1  0.3927513E+003  0.2072396E+02  0.7546771E-02  0.1523243E+00
          2   -1    0    0  502    0  0.00000000000E+00  0.00000000000E+00  0.19254384924E+03  0.19254384924E+03  0.00000000000E+00 0. -1.
          1   -1    0    0  501    0 -0.00000000000E+00 -0.00000000000E+00 -0.51580742022E+02  0.51580742022E+02  0.00000000000E+00 0. -1.
          2    1    1    2  501    0 -0.16182487492E+02  0.12946407076E+02  0.18987543755E+03  0.19100304746E+03  0.00000000000E+00 0. -1.
          1    1    1    2  502    0  0.16182487492E+02 -0.12946407076E+02 -0.48912330327E+02  0.53121543799E+02  0.00000000000E+00 0. -1.
</event>
<event>
 4    1  0.3927513E+003  0.2869636E+02  0.7546771E-02  0.1431274E+00
          2   -1    0    0  502    0  0.00000000000E+00  0.00000000000E+00  0.63218256047E+03  0.63218256047E+03  0.00000000000E+00 0.  1.
          1   -1    0    0  501    0 -0.00000000000E+00 -0.00000000000E+00 -0.33841061962E+01  0.33841061962E+01  0.00000000000E+00 0.  1.
          2    1    1    2  501    0  0.11377005661E+02  0.26344729661E+02  0.56362788159E+03  0.56435792715E+03  0.00000000000E+00 0.  1.
          1    1    1    2  502    0 -0.11377005661E+02 -0.26344729661E+02  0.65170572690E+02  0.71208739516E+02  0.00000000000E+00 0.  1.
</event>
<event>
 4    1  0.3927513E+003  0.2677702E+02  0.7546771E-02  0.1449861E+00
          2   -1    0    0  502    0  0.00000000000E+00  0.00000000000E+00  0.38102802650E+01  0.38102802650E+01  0.00000000000E+00 0. -1.
          1   -1    0    0  501    0 -0.00000000000E+00 -0.00000000000E+00 -0.14707734971E+04  0.14707734971E+04  0.00000000000E+00 0. -1.
          2    1    1    2  501    0  0.11031952115E+02 -0.24398868089E+02 -0.44969613062E+02  0.52338082029E+02  0.00000000000E+00 0. -1.
          1    1    1    2  502    0 -0.11031952115E+02  0.24398868089E+02 -0.14219936038E+04  0.14222456953E+04  0.00000000000E+00 0. -1.
</event>
<event>
 4    1  0.3927513E+003  0.2119177E+02  0.7546771E-02  0.1516544E+00
          2   -1    0    0  502    0  0.00000000000E+00  0.00000000000E+00  0.73092771822E+01  0.73092771822E+01  0.00000000000E+00 0. -1.
          1   -1    0    0  501    0 -0.00000000000E+00 -0.00000000000E+00 -0.29606741293E+03  0.29606741293E+03  0.00000000000E+00 0. -1.
          2    1    1    2  501    0 -0.18780865913E+01  0.21108388502E+02 -0.93444533073E+01  0.23160528534E+02  0.00000000000E+00 0. -1.
          1    1    1    2  502    0  0.18780865913E+01 -0.21108388502E+02 -0.27941368244E+03  0.28021616158E+03  0.00000000000E+00 0. -1.
</event>
<event>
 4    1  0.3927513E+003  0.2755248E+02  0.7546771E-02  0.1442136E+00
          2   -1    0    0  502    0  0.00000000000E+00  0.00000000000E+00  0.91383882495E+03  0.91383882495E+03  0.00000000000E+00 0. -1.
          1   -1    0    0  501    0 -0.00000000000E+00 -0.00000000000E+00 -0.84932749477E+00  0.84932749477E+00  0.00000000000E+00 0. -1.
          2    1    1    2  501    0  0.13707194445E+02  0.23900861437E+02  0.38878925989E+03  0.38976432233E+03  0.00000000000E+00 0. -1.
          1    1    1    2  502    0 -0.13707194445E+02 -0.23900861437E+02  0.52420023757E+03  0.52492383012E+03  0.00000000000E+00 0. -1.
</event>
<event>
 4    1  0.3927513E+003  0.3236566E+02  0.7546771E-02  0.1400094E+00
          2   -1    0    0  502    0  0.00000000000E+00  0.00000000000E+00  0.13694985594E+04  0.13694985594E+04  0.00000000000E+00 0. -1.
          1   -1    0    0  501    0 -0.00000000000E+00 -0.00000000000E+00 -0.89772548677E+00  0.89772548677E+00  0.00000000000E+00 0. -1.
          2    1    1    2  501    0  0.32190960254E+02  0.33582839610E+01  0.94785907896E+03  0.94841149801E+03  0.00000000000E+00 0. -1.
          1    1    1    2  502    0 -0.32190960254E+02 -0.33582839610E+01  0.42074175497E+03  0.42198478690E+03  0.00000000000E+00 0. -1.
</event>
<event>
 4    1  0.3927513E+003  0.4452615E+02  0.7546771E-02  0.1323826E+00
          2   -1    0    0  502    0  0.00000000000E+00  0.00000000000E+00  0.10623099625E+03  0.10623099625E+03  0.00000000000E+00 0. -1.
          1   -1    0    0  501    0 -0.00000000000E+00 -0.00000000000E+00 -0.20443201771E+03  0.20443201771E+03  0.00000000000E+00 0. -1.
          2    1    1    2  501    0 -0.19282309410E+02 -0.40134401384E+02  0.98971122431E+02  0.10852585271E+03  0.00000000000E+00 0. -1.
          1    1    1    2  502    0  0.19282309410E+02  0.40134401384E+02 -0.19717214389E+03  0.20213716125E+03  0.00000000000E+00 0. -1.
</event>
<event>
 4    1  0.3927513E+003  0.2051702E+02  0.7546771E-02  0.1526274E+00
          2   -1    0    0  502    0  0.00000000000E+00  0.00000000000E+00  0.32077367519E+03  0.32077367519E+03  0.00000000000E+00 0. -1.
          1   -1    0    0  501    0 -0.00000000000E+00 -0.00000000000E+00 -0.40518867256E+03  0.40518867256E+03  0.00000000000E+00 0. -1.
          2    1    1    2  501    0  0.15736449949E+02  0.13164811389E+02  0.32018540245E+03  0.32084207962E+03  0.00000000000E+00 0. -1.
          1    1    1    2  502    0 -0.15736449949E+02 -0.13164811389E+02 -0.40460039982E+03  0.40512026813E+03  0.00000000000E+00 0. -1.
</event>
<event>
 4    1  0.3927513E+003  0.2642236E+02  0.7546771E-02  0.1453499E+00
          2   -1    0    0  502    0  0.00000000000E+00  0.00000000000E+00  0.32937131083E+02  0.32937131083E+02  0.00000000000E+00 0.  1.
          1   -1    0    0  501    0 -0.00000000000E+00 -0.00000000000E+00 -0.35403014244E+03  0.35403014244E+03  0.00000000000E+00 0.  1.
          2    1    1    2  501    0 -0.25951791946E+02  0.49644203753E+01  0.27055703072E+02  0.37817351092E+02  0.00000000000E+00 0.  1.
          1    1    1    2  502    0  0.25951791946E+02 -0.49644203753E+01 -0.34814871443E+03  0.34914992243E+03  0.00000000000E+00 0.  1.
</event>
<event>
 4    1  0.3927513E+003  0.2721486E+02  0.7546771E-02  0.1445462E+00
          2   -1    0    0  502    0  0.00000000000E+00  0.00000000000E+00  0.31832359129E+02  0.31832359129E+02  0.00000000000E+00 0.  1.
          1   -1    0    0  501    0 -0.00000000000E+00 -0.00000000000E+00 -0.32682177639E+03  0.32682177639E+03  0.00000000000E+00 0. -1.
          2    1    1    2  501    0 -0.50705072414E+01  0.26738338450E+02  0.25331168912E+02  0.37179522660E+02  0.00000000000E+00 0.  1.
          1    1    1    2  502    0  0.50705072414E+01 -0.26738338450E+02 -0.32032058617E+03  0.32147461286E+03  0.00000000000E+00 0. -1.
</event>
<event>
 4    1  0.3927513E+003  0.5016583E+02  0.7546771E-02  0.1297455E+00
          2   -1    0    0  502    0  0.00000000000E+00  0.00000000000E+00  0.25259906545E+04  0.25259906545E+04  0.00000000000E+00 0.  1.
          1   -1    0    0  501    0 -0.00000000000E+00 -0.00000000000E+00 -0.12776924707E+01  0.12776924707E+01  0.00000000000E+00 0.  1.
          2    1    1    2  501    0 -0.41360622504E+02  0.28388538794E+02  0.18553840686E+04  0.18560621359E+04  0.00000000000E+00 0.  1.
          1    1    1    2  502    0  0.41360622504E+02 -0.28388538794E+02  0.66932889345E+03  0.67120621112E+03  0.00000000000E+00 0.  1.
</event>
<event>
 4    1  0.3927513E+003  0.2723606E+02  0.7546771E-02  0.1445251E+00
          2   -1    0    0  502    0  0.00000000000E+00  0.00000000000E+00  0.35019792897E+03  0.35019792897E+03  0.00000000000E+00 0. -1.
          1   -1    0    0  501    0 -0.00000000000E+00 -0.00000000000E+00 -0.90591196131E+02  0.90591196131E+02  0.00000000000E+00 0.  1.
          2    1    1    2  501    0  0.37048222364E+01  0.26982905347E+02  0.34760601192E+03  0.34867139603E+03  0.00000000000E+00 0. -1.
          1    1    1    2  502    0 -0.37048222364E+01 -0.26982905347E+02 -0.87999279084E+02  0.92117729065E+02  0.00000000000E+00 0.  1.
</event>
<event>
 4    1  0.3927513E+003  0.4819875E+02  0.7546771E-02  0.1306177E+00
          2   -1    0    0  502    0  0.00000000000E+00  0.00000000000E+00  0.24593990900E+03  0.24593990900E+03  0.00000000000E+00 0. -1.
          1   -1    0    0  501    0 -0.00000000000E+00 -0.00000000000E+00 -0.11228994442E+02  0.11228994442E+02  0.00000000000E+00 0. -1.
          2    1    1    2  501    0 -0.13993970889E+02  0.46122515103E+02  0.66115560032E+02  0.81819220841E+02  0.00000000000E+00 0. -1.
          1    1    1    2  502    0  0.13993970889E+02 -0.46122515103E+02  0.16859535453E+03  0.17534968260E+03  0.00000000000E+00 0. -1.
</event>
<event>
 4    1  0.3927513E+003  0.2214687E+02  0.7546771E-02  0.1503498E+00
          2   -1    0    0  502    0  0.00000000000E+00  0.00000000000E+00  0.21430220572E+03  0.21430220572E+03  0.00000000000E+00 0.  1.
          1   -1    0    0  501    0 -0.00000000000E+00 -0.00000000000E+00 -0.73007181524E+01  0.73007181524E+01  0.00000000000E+00 0.  1.
          2    1    1    2  501    0  0.24833078329E+01  0.22007204637E+02  0.19530586560E+03  0.19655753613E+03  0.00000000000E+00 0.  1.
          1    1    1    2  502    0 -0.24833078329E+01 -0.22007204637E+02  0.11695621968E+02  0.25045387738E+02  0.00000000000E+00 0.  1.
</event>
<event>
 4    1  0.3927513E+003  0.2217761E+02  0.7546771E-02  0.1503091E+00
          2   -1    0    0  502    0  0.00000000000E+00  0.00000000000E+00  0.44559391686E+03  0.44559391686E+03  0.00000000000E+00 0. -1.
          1   -1    0    0  501    0 -0.00000000000E+00 -0.00000000000E+00 -0.45465295757E+01  0.45465295757E+01  0.00000000000E+00 0. -1.
          2    1    1    2  501    0 -0.30085205192E+01 -0.21972599862E+02  0.41637637354E+03  0.41696658233E+03  0.00000000000E+00 0. -1.
          1    1    1    2  502    0  0.30085205192E+01  0.21972599862E+02  0.24671013749E+02  0.33173864107E+02  0.00000000000E+00 0. -1.
</event>
<event>
 4    1  0.3927513E+003  0.2316981E+02  0.7546771E-02  0.1490377E+00
          2   -1    0    0  502    0  0.00000000000E+00  0.00000000000E+00  0.85381758804E+01  0.85381758804E+01  0.00000000000E+00 0. -1.
          1   -1    0    0  501    0 -0.00000000000E+00 -0.00000000000E+00 -0.54126413070E+03  0.54126413070E+03  0.00000000000E+00 0.  1.
          2    1    1    2  501    0  0.23129735025E+02  0.13621396676E+01 -0.79213484008E+01  0.24486482542E+02  0.00000000000E+00 0. -1.
          1    1    1    2  502    0 -0.23129735025E+02 -0.13621396676E+01 -0.52480460642E+03  0.52531582404E+03  0.00000000000E+00 0.  1.
</event>
<event>
 4    1  0.3927513E+003  0.2356065E+02  0.7546771E-02  0.1485576E+00
          2   -1    0    0  502    0  0.00000000000E+00  0.00000000000E+00  0.10507800190E+04  0.10507800190E+04  0.00000000000E+00 0.  1.
          1   -1    0    0  501    0 -0.00000000000E+00 -0.00000000000E+00 -0.87360817122E+01  0.87360817122E+01  0.00000000000E+00 0.  1.
          2    1    1    2  501    0  0.21945082631E+02  0.85742335662E+01  0.10345128055E+04  0.10347810633E+04  0.00000000000E+00 0.  1.
          1    1    1    2  502    0 -0.21945082631E+02 -0.85742335662E+01  0.75311318187E+01  0.24735037486E+02  0.00000000000E+00 0.  1.
</event>
<event>
 4    1  0.3927513E+003  0.2550867E+02  0.7546771E-02  0.1463193E+00
          2   -1    0    0  502    0  0.00000000000E+00  0.00000000000E+00  0.68473089557E+02  0.68473089557E+02  0.00000000000E+00 0. -1.
          1   -1    0    0  501    0 -0.00000000000E+00 -0.00000000000E+00 -0.27680161390E+02  0.27680161390E+02  0.00000000000E+00 0.  1.
          2    1    1    2  501    0  0.23718010400E+02  0.93887342730E+01  0.59356019659E+02  0.64605181049E+02  0.00000000000E+00 0. -1.
          1    1    1    2  502    0 -0.23718010400E+02 -0.93887342730E+01 -0.18563091492E+02  0.31548069899E+02  0.00000000000E+00 0.  1.
</event>
<event>
 4    1  0.3927513E+003  0.2091915E+02  0.7546771E-02  0.1520422E+00
          2   -1    0    0  502    0  0.00000000000E+00  0.00000000000E+00  0.45547751516E+03  0.45547751516E+03  0.00000000000E+00 0.  1.
          1   -1    0    0  501    0 -0.00000000000E+00 -0.00000000000E+00 -0.11902034137E+02  0.11902034137E+02  0.00000000000E+00 0.  1.
          2    1    1    2  501    0  0.19809330186E+02  0.67231992967E+01  0.44584694267E+03  0.44633743654E+03  0.00000000000E+00 0.  1.
          1    1    1    2  502    0 -0.19809330186E+02 -0.67231992967E+01 -0.22714616450E+01  0.21042112756E+02  0.00000000000E+00 0.  1.
</event>
<event>
 4    1  0.3927513E+003  0.2021983E+02  0.7546771E-02  0.1530701E+00
          2   -1    0    0  502    0  0.00000000000E+00  0.00000000000E+00  0.25374646071E+03  0.25374646071E+03  0.00000000000E+00 0. -1.
          1   -1    0    0  501    0 -0.00000000000E+00 -0.00000000000E+00 -0.35751453858E+02  0.35751453858E+02  0.00000000000E+00 0. -1.
          2    1    1    2  501    0 -0.18886875319E+02  0.72199437046E+01  0.25044713779E+03  0.25126203548E+03  0.00000000000E+00 0. -1.
          1    1    1    2  502    0  0.18886875319E+02 -0.72199437046E+01 -0.32452130944E+02  0.38235879082E+02  0.00000000000E+00 0. -1.
</event>
<event>
 4    1  0.3927513E+003  0.2748794E+02  0.7546771E-02  0.1442767E+00
          2   -1    0    0  502    0  0.00000000000E+00  0.00000000000E+00  0.12500244299E+02  0.12500244299E+02  0.00000000000E+00 0.  1.
          1   -1    0    0  501    0 -0.00000000000E+00 -0.00000000000E+00 -0.27576004459E+03  0.27576004459E+03  0.00000000000E+00 0.  1.
          2    1    1    2  501    0  0.26234272548E+02  0.82066801623E+01 -0.42720902473E+01  0.27817933254E+02  0.00000000000E+00 0.  1.
          1    1    1    2  502    0 -0.26234272548E+02 -0.82066801623E+01 -0.25898771004E+03  0.26044235564E+03  0.00000000000E+00 0.  1.
</event>
<event>
 4    1  0.3927513E+003  0.2239502E+02  0.7546771E-02  0.1500238E+00
          2   -1    0    0  502    0  0.00000000000E+00  0.00000000000E+00  0.40301873479E+02  0.40301873479E+02  0.00000000000E+00 0. -1.
          1   -1    0    0  501    0 -0.00000000000E+00 -0.00000000000E+00 -0.25626969178E+03  0.25626969178E+03  0.00000000000E+00 0.  1.
          2    1    1    2  501    0  0.18763588633E+02 -0.12225581218E+02  0.36656675342E+02  0.42956360898E+02  0.00000000000E+00 0. -1.
          1    1    1    2  502    0 -0.18763588633E+02  0.12225581218E+02 -0.25262449364E+03  0.25361520436E+03  0.00000000000E+00 0.  1.
</event>
<event>
 4    1  0.3927513E+003  0.2895482E+02  0.7546771E-02  0.1428902E+00
          2   -1    0    0  502    0  0.00000000000E+00  0.00000000000E+00  0.48087541242E+02  0.48087541242E+02  0.00000000000E+00 0. -1.
          1   -1    0    0  501    0 -0.00000000000E+00 -0.00000000000E+00 -0.42625814690E+02  0.42625814690E+02  0.00000000000E+00 0.  1.
          2    1    1    2  501    0 -0.28952723907E+02 -0.34874419062E+00  0.37599131578E+02  0.47456048503E+02  0.00000000000E+00 0. -1.
          1    1    1    2  502    0  0.28952723907E+02  0.34874419062E+00 -0.32137405026E+02  0.43257307429E+02  0.00000000000E+00 0.  1.
</event>
<event>
 4    1  0.3927513E+003  0.2846427E+02  0.7546771E-02  0.1433429E+00
          2   -1    0    0  502    0  0.00000000000E+00  0.00000000000E+00  0.20178661219E+04  0.20178661219E+04  0.00000000000E+00 0. -1.
          1   -1    0    0  501    0 -0.00000000000E+00 -0.00000000000E+00 -0.27217753483E+01  0.27217753483E+01  0.00000000000E+00 0. -1.
          2    1    1    2  501    0  0.11462880543E+02 -0.26054114207E+02  0.19403741622E+04  0.19405829288E+04  0.00000000000E+00 0. -1.
          1    1    1    2  502    0 -0.11462880543E+02  0.26054114207E+02  0.74770184408E+02  0.80004968432E+02  0.00000000000E+00 0. -1.
</event>
<event>
 4    1  0.3927513E+003  0.2396909E+02  0.7546771E-02  0.1480675E+00
          2   -1    0    0  502    0  0.00000000000E+00  0.00000000000E+00  0.96226196201E+03  0.96226196201E+03  0.00000000000E+00 0.  1.
          1   -1    0    0  501    0 -0.00000000000E+00 -0.00000000000E+00 -0.92690883541E+00  0.92690883541E+00  0.00000000000E+00 0.  1.
          2    1    1    2  501    0 -0.18264300998E+02  0.15521999125E+02  0.76796244080E+03  0.76833640264E+03  0.00000000000E+00 0.  1.
          1    1    1    2  502    0  0.18264300998E+02 -0.15521999125E+02  0.19337261238E+03  0.19485246821E+03  0.00000000000E+00 0.  1.
</event>
<event>
 4    1  0.3927513E+003  0.3043461E+02  0.7546771E-02  0.1415857E+00
          2   -1    0    0  502    0  0.00000000000E+00  0.00000000000E+00  0.27657405594E+03  0.27657405594E+03  0.00000000000E+00 0. -1.
          1   -1    0    0  501    0 -0.00000000000E+00 -0.00000000000E+00 -0.87799956275E+02  0.87799956275E+02  0.00000000000E+00 0.  1.
          2    1    1    2  501    0 -0.18532142716E+02  0.24141770099E+02  0.27306557526E+03  0.27475638986E+03  0.00000000000E+00 0. -1.
          1    1    1    2  502    0  0.18532142716E+02 -0.24141770099E+02 -0.84291475598E+02  0.89617622350E+02  0.00000000000E+00 0.  1.
</event>
<event>
 4    1  0.3927513E+003  0.3704659E+02  0.7546771E-02  0.1366720E+00
          2   -1    0    0  502    0  0.00000000000E+00  0.00000000000E+00  0.23216942422E+02  0.23216942422E+02  0.00000000000E+00 0. -1.
          1   -1    0    0  501    0 -0.00000000000E+00 -0.00000000000E+00 -0.33812658332E+03  0.33812658332E+03  0.00000000000E+00 0. -1.
          2    1    1    2  501    0  0.20156032014E+02 -0.31083498633E+02  0.66655212810E+01  0.37641449066E+02  0.00000000000E+00 0. -1.
          1    1    1    2  502    0 -0.20156032014E+02  0.31083498633E+02 -0.32157516218E+03  0.32370207668E+03  0.00000000000E+00 0. -1.
</event>
<event>
 4    1  0.3927513E+003  0.2340609E+02  0.7546771E-02  0.1487461E+00
          2   -1    0    0  502    0  0.00000000000E+00  0.00000000000E+00  0.21334492142E+03  0.21334492142E+03  0.00000000000E+00 0. -1.
          1   -1    0    0  501    0 -0.00000000000E+00 -0.00000000000E+00 -0.10253906350E+02  0.10253906350E+02  0.00000000000E+00 0. -1.
          2    1    1    2  501    0 -0.23314136805E+02 -0.20726494397E+01  0.19833889655E+03  0.19971520407E+03  0.00000000000E+00 0. -1.
          1    1    1    2  502    0  0.23314136805E+02  0.20726494397E+01  0.47521185162E+01  0.23883623700E+02  0.00000000000E+00 0. -1.
</event>
<event>
 4    1  0.3927513E+003  0.2928343E+02  0.7546771E-02  0.1425927E+00
          2   -1    0    0  502    0  0.00000000000E+00  0.00000000000E+00  0.16425422692E+04  0.16425422692E+04  0.00000000000E+00 0.  1.
          1   -1    0    0  501    0 -0.00000000000E+00 -0.00000000000E+00 -0.67658304313E+00  0.67658304313E+00  0.00000000000E+00 0.  1.
          2    1    1    2  501    0 -0.29238534576E+02 -0.16208553589E+01  0.12135687100E+04  0.12139219633E+04  0.00000000000E+00 0.  1.
          1    1    1    2  502    0  0.29238534576E+02  0.16208553589E+01  0.42829697608E+03  0.42929688888E+03  0.00000000000E+00 0.  1.
</event>
<event>
 4    1  0.3927513E+003  0.2625032E+02  0.7546771E-02  0.1455288E+00
          2   -1    0    0  502    0  0.00000000000E+00  0.00000000000E+00  0.16202922018E+03  0.16202922018E+03  0.00000000000E+00 0. -1.
          1   -1    0    0  501    0 -0.00000000000E+00 -0.00000000000E+00 -0.47187597243E+03  0.47187597243E+03  0.00000000000E+00 0. -1.
          2    1    1    2  501    0  0.21491782066E+02 -0.15072574289E+02  0.16059771114E+03  0.16272892802E+03  0.00000000000E+00 0. -1.
          1    1    1    2  502    0 -0.21491782066E+02  0.15072574289E+02 -0.47044446339E+03  0.47117626460E+03  0.00000000000E+00 0. -1.
</event>
<event>
 4    1  0.3927513E+003  0.2034100E+02  0.7546771E-02  0.1528885E+00
          2   -1    0    0  502    0  0.00000000000E+00  0.00000000000E+00  0.77059666679E+02  0.77059666679E+02  0.00000000000E+00 0. -1.
          1   -1    0    0  501    0 -0.00000000000E+00 -0.00000000000E+00 -0.32345445502E+03  0.32345445502E+03  0.00000000000E+00 0.  1.
          2    1    1    2  501    0 -0.12083636369E+02 -0.16362823905E+02  0.75390591874E+02  0.78086475251E+02  0.00000000000E+00 0. -1.
          1    1    1    2  502    0  0.12083636369E+02  0.16362823905E+02 -0.32178538021E+03  0.32242764645E+03  0.00000000000E+00 0.  1.
</event>
<event>
 4    1  0.3927513E+003  0.2148129E+02  0.7546771E-02  0.1512503E+00
          2   -1    0    0  502    0  0.00000000000E+00  0.00000000000E+00  0.19199521097E+02  0.19199521097E+02  0.00000000000E+00 0. -1.
          1   -1    0    0  501    0 -0.00000000000E+00 -0.00000000000E+00 -0.17838261273E+03  0.17838261273E+03  0.00000000000E+00 0. -1.
          2    1    1    2  501    0  0.21144717656E+02 -0.37877264564E+01  0.12303571951E+02  0.24755279017E+02  0.00000000000E+00 0. -1.
          1    1    1    2  502    0 -0.21144717656E+02  0.37877264564E+01 -0.17148666359E+03  0.17282685481E+03  0.00000000000E+00 0. -1.
</event>
<event>
 4    1  0.3927513E+003  0.2167003E+02  0.7546771E-02  0.1509910E+00
          2   -1    0    0  502    0  0.00000000000E+00  0.00000000000E+00  0.57298993573E+03  0.57298993573E+03  0.00000000000E+00 0.  1.
          1   -1    0    0  501    0 -0.00000000000E+00 -0.00000000000E+00 -0.10002570248E+02  0.10002570248E+02  0.00000000000E+00 0.  1.
          2    1    1    2  501    0  0.21668386286E+02  0.26693399050E+00  0.56079314173E+03  0.56121166954E+03  0.00000000000E+00 0.  1.
          1    1    1    2  502    0 -0.21668386286E+02 -0.26693399050E+00  0.21942237532E+01  0.21780836437E+02  0.00000000000E+00 0.  1.
</event>
<event>
 4    1  0.3927513E+003  0.2111016E+02  0.7546771E-02  0.1517698E+00
          2   -1    0    0  502    0  0.00000000000E+00  0.00000000000E+00  0.15976590316E+01  0.15976590316E+01  0.00000000000E+00 0.  1.
          1   -1    0    0  501    0 -0.00000000000E+00 -0.00000000000E+00 -0.33676261704E+03  0.33676261704E+03  0.00000000000E+00 0.  1.
          2    1    1    2  501    0 -0.70941069639E+01 -0.19882463228E+02 -0.97474855015E+02  0.99734578045E+02  0.00000000000E+00 0.  1.
          1    1    1    2  502    0  0.70941069639E+01  0.19882463228E+02 -0.23769010299E+03  0.23862569803E+03  0.00000000000E+00 0.  1.
</event>
<event>
 4    1  0.3927513E+003  0.2350066E+02  0.7546771E-02  0.1486305E+00
          2   -1    0    0  502    0  0.00000000000E+00  0.00000000000E+00  0.13268780103E+04  0.13268780103E+04  0.00000000000E+00 0. -1.
          1   -1    0    0  501    0 -0.00000000000E+00 -0.00000000000E+00 -0.82983367912E+00  0.82983367912E+00  0.00000000000E+00 0.  1.
          2    1    1    2  501    0  0.43270216687E+01 -0.23098872090E+02  0.11316986052E+04  0.11319425843E+04  0.00000000000E+00 0. -1.
          1    1    1    2  502    0 -0.43270216687E+01  0.23098872090E+02  0.19434957136E+03  0.19576525967E+03  0.00000000000E+00 0.  1.
</event>
<event>
 4    1  0.3927513E+003  0.2256375E+02  0.7546771E-02  0.1498050E+00
          2   -1    0    0  502    0  0.00000000000E+00  0.00000000000E+00  0.57254741168E+03  0.57254741168E+03  0.00000000000E+00 0.  1.
          1   -1    0    0  501    0 -0.00000000000E+00 -0.00000000000E+00 -0.77396811945E+02  0.77396811945E+02  0.00000000000E+00 0. -1.
          2    1    1    2  501    0 -0.21641885356E+02  0.63837025048E+01  0.57067519118E+03  0.57112108759E+03  0.00000000000E+00 0.  1.
          1    1    1    2  502    0  0.21641885356E+02 -0.63837025048E+01 -0.75524591452E+02  0.78823136029E+02  0.00000000000E+00 0. -1.
</event>
<event>
 4    1  0.3927513E+003  0.2260723E+02  0.7546771E-02  0.1497490E+00
          2   -1    0    0  502    0  0.00000000000E+00  0.00000000000E+00  0.18485666604E+04  0.18485666604E+04  0.00000000000E+00 0. -1.
          1   -1    0    0  501    0 -0.00000000000E+00 -0.00000000000E+00 -0.60362539049E+00  0.60362539049E+00  0.00000000000E+00 0. -1.
          2    1    1    2  501    0  0.85141637507E+01 -0.20942677740E+02  0.16046495428E+04  0.16048087868E+04  0.00000000000E+00 0. -1.
          1    1    1    2  502    0 -0.85141637507E+01  0.20942677740E+02  0.24331349220E+03  0.24436149906E+03  0.00000000000E+00 0. -1.
</event>
<event>
 4    1  0.3927513E+003  0.2766737E+02  0.7546771E-02  0.1441017E+00
          2   -1    0    0  502    0  0.00000000000E+00  0.00000000000E+00  0.17344193447E+03  0.17344193447E+03  0.00000000000E+00 0. -1.
          1   -1    0    0  501    0 -0.00000000000E+00 -0.00000000000E+00 -0.19455368158E+03  0.19455368158E+03  0.00000000000E+00 0. -1.
          2    1    1    2  501    0  0.16081278810E+02 -0.22513903203E+02  0.17134295069E+03  0.17356235225E+03  0.00000000000E+00 0. -1.
          1    1    1    2  502    0 -0.16081278810E+02  0.22513903203E+02 -0.19245469781E+03  0.19443326380E+03  0.00000000000E+00 0. -1.
</event>
<event>
 4    1  0.3927513E+003  0.2007848E+02  0.7546771E-02  0.1532839E+00
          2   -1    0    0  502    0  0.00000000000E+00  0.00000000000E+00  0.10858491107E+01  0.10858491107E+01  0.00000000000E+00 0.  1.
          1   -1    0    0  501    0 -0.00000000000E+00 -0.00000000000E+00 -0.37133011798E+03  0.37133011798E+03  0.00000000000E+00 0.  1.
          2    1    1    2  501    0  0.40254448825E+01 -0.19670823264E+02 -0.18279485475E+03  0.18389427511E+03  0.00000000000E+00 0.  1.
          1    1    1    2  502    0 -0.40254448825E+01  0.19670823264E+02 -0.18744941412E+03  0.18852169198E+03  0.00000000000E+00 0.  1.
</event>
<event>
 4    1  0.3927513E+003  0.2315518E+02  0.7546771E-02  0.1490559E+00
          2   -1    0    0  502    0  0.00000000000E+00  0.00000000000E+00  0.20926248366E+03  0.20926248366E+03  0.00000000000E+00 0. -1.
          1   -1    0    0  501    0 -0.00000000000E+00 -0.00000000000E+00 -0.45024515424E+01  0.45024515424E+01  0.00000000000E+00 0.  1.
          2    1    1    2  501    0 -0.19856903994E+02  0.11910744559E+02  0.17254432335E+03  0.17409108533E+03  0.00000000000E+00 0. -1.
          1    1    1    2  502    0  0.19856903994E+02 -0.11910744559E+02  0.32215708776E+02  0.39673849878E+02  0.00000000000E+00 0.  1.
</event>
<event>
 4    1  0.3927513E+003  0.4373879E+02  0.7546771E-02  0.1327867E+00
          2   -1    0    0  502    0  0.00000000000E+00  0.00000000000E+00  0.77106520909E+03  0.77106520909E+03  0.00000000000E+00 0.  1.
          1   -1    0    0  501    0 -0.00000000000E+00 -0.00000000000E+00 -0.56685870117E+02  0.56685870117E+02  0.00000000000E+00 0. -1.
          2    1    1    2  501    0 -0.38222468924E+02 -0.21263219717E+02  0.76190639033E+03  0.76316081481E+03  0.00000000000E+00 0.  1.
          1    1    1    2  502    0  0.38222468924E+02  0.21263219717E+02 -0.47527051358E+02  0.64590264391E+02  0.00000000000E+00 0. -1.
</event>
<event>
 4    1  0.3927513E+003  0.2320098E+02  0.7546771E-02  0.1489990E+00
          2   -1    0    0  502    0  0.00000000000E+00  0.00000000000E+00  0.64727726624E+03  0.64727726624E+03  0.00000000000E+00 0.  1.
          1   -1    0    0  501    0 -0.00000000000E+00 -0.00000000000E+00 -0.11405427641E+02  0.11405427641E+02  0.00000000000E+00 0.  1.
          2    1    1    2  501    0  0.13595886522E+02  0.18799926053E+02  0.63504324876E+03  0.63546692530E+03  0.00000000000E+00 0.  1.
          1    1    1    2  502    0 -0.13595886522E+02 -0.18799926053E+02  0.82858984098E+00  0.23215768586E+02  0.00000000000E+00 0.  1.
</event>
<event>
 4    1  0.3927513E+003  0.6299315E+02  0.7546771E-02  0.1249988E+00
          2   -1    0    0  502    0  0.00000000000E+00  0.00000000000E+00  0.46382463886E+03  0.46382463886E+03  0.00000000000E+00 0. -1.
          1   -1    0    0  501    0 -0.00000000000E+00 -0.00000000000E+00 -0.14765886033E+03  0.14765886033E+03  0.00000000000E+00 0.  1.
          2    1    1    2  501    0  0.28080466060E+02  0.56388160063E+02  0.45483525275E+03  0.45917670272E+03  0.00000000000E+00 0. -1.
          1    1    1    2  502    0 -0.28080466060E+02 -0.56388160063E+02 -0.13866947422E+03  0.15230679647E+03  0.00000000000E+00 0.  1.
</event>
<event>
 4    1  0.3927513E+003  0.3046581E+02  0.7546771E-02  0.1415591E+00
          2   -1    0    0  502    0  0.00000000000E+00  0.00000000000E+00  0.14130220343E+02  0.14130220343E+02  0.00000000000E+00 0. -1.
          1   -1    0    0  501    0 -0.00000000000E+00 -0.00000000000E+00 -0.55901462350E+03  0.55901462350E+03  0.00000000000E+00 0.  1.
          2    1    1    2  501    0  0.39891673416E+01 -0.30203512575E+02 -0.32324926760E+01  0.30636818322E+02  0.00000000000E+00 0. -1.
          1    1    1    2  502    0 -0.39891673416E+01  0.30203512575E+02 -0.54165191048E+03  0.54250802552E+03  0.00000000000E+00 0.  1.
</event>
<event>
 4    1  0.3927513E+003  0.2031407E+02  0.7546771E-02  0.1529288E+00
          2   -1    0    0  502    0  0.00000000000E+00  0.00000000000E+00  0.40519380203E+01  0.40519380203E+01  0.00000000000E+00 0.  1.
          1   -1    0    0  501    0 -0.00000000000E+00 -0.00000000000E+00 -0.11663235897E+03  0.11663235897E+03  0.00000000000E+00 0.  1.
          2    1    1    2  501    0 -0.14748843023E+02  0.13968997492E+02 -0.34802662208E+02  0.40297475829E+02  0.00000000000E+00 0.  1.
          1    1    1    2  502    0  0.14748843023E+02 -0.13968997492E+02 -0.77777758741E+02  0.80386821160E+02  0.00000000000E+00 0.  1.
</event>
<event>
 4    1  0.3927513E+003  0.2287110E+02  0.7546771E-02  0.1494123E+00
          2   -1    0    0  502    0  0.00000000000E+00  0.00000000000E+00  0.19503002034E+02  0.19503002034E+02  0.00000000000E+00 0.  1.
          1   -1    0    0  501    0 -0.00000000000E+00 -0.00000000000E+00 -0.29861257589E+03  0.29861257589E+03  0.00000000000E+00 0.  1.
          2    1    1    2  501    0  0.11156782962E+02 -0.19965301519E+02  0.12191827617E+02  0.25917710768E+02  0.00000000000E+00 0.  1.
          1    1    1    2  502    0 -0.11156782962E+02  0.19965301519E+02 -0.29130140147E+03  0.29219786715E+03  0.00000000000E+00 0.  1.
</event>
<event>
 4    1  0.3927513E+003  0.2259155E+02  0.7546771E-02  0.1497692E+00
          2   -1    0    0  502    0  0.00000000000E+00  0.00000000000E+00  0.21190567696E+01  0.21190567696E+01  0.00000000000E+00 0.  1.
          1   -1    0    0  501    0 -0.00000000000E+00 -0.00000000000E+00 -0.78530499758E+03  0.78530499758E+03  0.00000000000E+00 0. -1.
          2    1    1    2  501    0 -0.19741775016E+02  0.10983641192E+02 -0.63769617911E+02  0.67653102095E+02  0.00000000000E+00 0.  1.
          1    1    1    2  502    0  0.19741775016E+02 -0.10983641192E+02 -0.71941632289E+03  0.71977095225E+03  0.00000000000E+00 0. -1.
</event>
<event>
 4    1  0.3927513E+003  0.4404019E+02  0.7546771E-02  0.1326309E+00
          2   -1    0    0  502    0  0.00000000000E+00  0.00000000000E+00  0.35568453263E+03  0.35568453263E+03  0.00000000000E+00 0.  1.
          1   -1    0    0  501    0 -0.00000000000E+00 -0.00000000000E+00 -0.16228994589E+02  0.16228994589E+02  0.00000000000E+00 0.  1.
          2    1    1    2  501    0 -0.24249908111E+00  0.44039520136E+02  0.32125664389E+03  0.32426126717E+03  0.00000000000E+00 0.  1.
          1    1    1    2  502    0  0.24249908111E+00 -0.44039520136E+02  0.18198894145E+02  0.47652260049E+02  0.00000000000E+00 0.  1.
</event>
<event>
 4    1  0.3927513E+003  0.2317884E+02  0.7546771E-02  0.1490265E+00
          2   -1    0    0  502    0  0.00000000000E+00  0.00000000000E+00  0.12626608634E+04  0.12626608634E+04  0.00000000000E+00 0.  1.
          1   -1    0    0  501    0 -0.00000000000E+00 -0.00000000000E+00 -0.43564933719E+02  0.43564933719E+02  0.00000000000E+00 0. -1.
          2    1    1    2  501    0 -0.11534571463E+02  0.20105028730E+02  0.12594635726E+04  0.12596768432E+04  0.00000000000E+00 0.  1.
          1    1    1    2  502    0  0.11534571463E+02 -0.20105028730E+02 -0.40367642917E+02  0.46548953949E+02  0.00000000000E+00 0. -1.
</event>
<event>
 4    1  0.3927513E+003  0.2136822E+02  0.7546771E-02  0.1514072E+00
          2   -1    0    0  502    0  0.00000000000E+00  0.00000000000E+00  0.53620379696E+03  0.53620379696E+03  0.00000000000E+00 0. -1.
          1   -1    0    0  501    0 -0.00000000000E+00 -0.00000000000E+00 -0.30756852852E+03  0.30756852852E+03  0.00000000000E+00 0.  1.
          2    1    1    2  501    0  0.18898469964E+02 -0.99723948853E+01  0.53561936883E+03  0.53604543566E+03  0.00000000000E+00 0. -1.
          1    1    1    2  502    0 -0.18898469964E+02  0.99723948853E+01 -0.30698410039E+03  0.30772688982E+03  0.00000000000E+00 0.  1.
</event>
<event>
 4    1  0.3927513E+003  0.4935608E+02  0.7546771E-02  0.1300989E+00
          2   -1    0    0  502    0  0.00000000000E+00  0.00000000000E+00  0.56524773528E+03  0.56524773528E+03  0.00000000000E+00 0. -1.
          1   -1    0    0  501    0 -0.00000000000E+00 -0.00000000000E+00 -0.27138760654E+02  0.27138760654E+02  0.00000000000E+00 0.  1.
          2    1    1    2  501    0  0.40223851814E+02  0.28601831483E+02  0.54071379703E+03  0.54296172362E+03  0.00000000000E+00 0. -1.
          1    1    1    2  502    0 -0.40223851814E+02 -0.28601831483E+02 -0.26048223985E+01  0.49424772318E+02  0.00000000000E+00 0.  1.
</event>
<event>
 4    1  0.3927513E+003  0.2491502E+02  0.7546771E-02  0.1469756E+00
          2   -1    0    0  502    0  0.00000000000E+00  0.00000000000E+00  0.52995957312E+01  0.52995957312E+01  0.00000000000E+00 0. -1.
          1   -1    0    0  501    0 -0.00000000000E+00 -0.00000000000E+00 -0.99153270579E+03  0.99153270579E+03  0.00000000000E+00 0. -1.
          2    1    1    2  501    0  0.15826716159E+02  0.19242486092E+02 -0.25065148253E+02  0.35341475243E+02  0.00000000000E+00 0. -1.
          1    1    1    2  502    0 -0.15826716159E+02 -0.19242486092E+02 -0.96116796181E+03  0.96149082628E+03  0.00000000000E+00 0. -1.
</event>
<event>
 4    1  0.3927513E+003  0.2546800E+02  0.7546771E-02  0.1463635E+00
          2   -1    0    0  502    0  0.00000000000E+00  0.00000000000E+00  0.99470198349E+00  0.99470198349E+00  0.00000000000E+00 0. -1.
          1   -1    0    0  501    0 -0.00000000000E+00 -0.00000000000E+00 -0.20103189552E+04  0.20103189552E+04  0.00000000000E+00 0.  1.
          2    1    1    2  501    0  0.21815684020E+01  0.25374397242E+02 -0.17804123460E+03  0.17985355291E+03  0.00000000000E+00 0. -1.
          1    1    1    2  502    0 -0.21815684020E+01 -0.25374397242E+02 -0.18312830186E+04  0.18314601042E+04  0.00000000000E+00 0.  1.
</event>
<event>
 4    1  0.3927513E+003  0.2755159E+02  0.7546771E-02  0.1442145E+00
          2   -1    0    0  502    0  0.00000000000E+00  0.00000000000E+00  0.10195437747E+04  0.10195437747E+04  0.00000000000E+00 0. -1.
          1   -1    0    0  501    0 -0.00000000000E+00 -0.00000000000E+00 -0.18143646881E+01  0.18143646881E+01  0.00000000000E+00 0. -1.
          2    1    1    2  501    0  0.15606055387E+02 -0.22705532317E+02  0.90100571675E+03  0.90142686436E+03  0.00000000000E+00 0. -1.
          1    1    1    2  502    0 -0.15606055387E+02  0.22705532317E+02  0.11672369324E+03  0.11993127501E+03  0.00000000000E+00 0. -1.
</event>
<event>
 4    1  0.4648969E+003  0.2389110E+02  0.7546771E-02  0.1481602E+00
          2   -1    0    0  502    0  0.00000000000E+00  0.00000000000E+00  0.76519865729E+03  0.76519865729E+03  0.00000000000E+00 0.  1.
          1   -1    0    0  501    0 -0.00000000000E+00 -0.00000000000E+00 -0.84593985392E+03  0.84593985392E+03  0.00000000000E+00 0. -1.
          2    1    1    2  501    0 -0.11276122337E+02 -0.21062613939E+02  0.76484341288E+03  0.76521646014E+03  0.00000000000E+00 0.  1.
          1    1    1    2  502    0  0.11276122337E+02  0.21062613939E+02 -0.84558460951E+03  0.84592205107E+03  0.00000000000E+00 0. -1.
</event>
<event>
 4    1  0.3927513E+003  0.2446042E+02  0.7546771E-02  0.1474931E+00
          2   -1    0    0  502    0  0.00000000000E+00  0.00000000000E+00  0.28684846462E+03  0.28684846462E+03  0.00000000000E+00 0.  1.
          1   -1    0    0  501    0 -0.00000000000E+00 -0.00000000000E+00 -0.26228953839E+01  0.26228953839E+01  0.00000000000E+00 0.  1.
          2    1    1    2  501    0  0.17647249034E+02 -0.16937725028E+02  0.20760746680E+03  0.20904346964E+03  0.00000000000E+00 0.  1.
          1    1    1    2  502    0 -0.17647249034E+02  0.16937725028E+02  0.76618102432E+02  0.80427890361E+02  0.00000000000E+00 0.  1.
</event>
<event>
 4    1  0.3927513E+003  0.2268071E+02  0.7546771E-02  0.1496547E+00
          2   -1    0    0  502    0  0.00000000000E+00  0.00000000000E+00  0.25336743473E+04  0.25336743473E+04  0.00000000000E+00 0. -1.
          1   -1    0    0  501    0 -0.00000000000E+00 -0.00000000000E+00 -0.20994599502E+00  0.20994599502E+00  0.00000000000E+00 0. -1.
          2    1    1    2  501    0  0.12132922811E+02 -0.19162635978E+02  0.14966639575E+04  0.14968358013E+04  0.00000000000E+00 0. -1.
          1    1    1    2  502    0 -0.12132922811E+02  0.19162635978E+02  0.10368004438E+04  0.10370484920E+04  0.00000000000E+00 0. -1.
</event>
<event>
 4    1  0.3927513E+003  0.2994795E+02  0.7546771E-02  0.1420049E+00
          2   -1    0    0  502    0  0.00000000000E+00  0.00000000000E+00  0.12559733991E+02  0.12559733991E+02  0.00000000000E+00 0.  1.
          1   -1    0    0  501    0 -0.00000000000E+00 -0.00000000000E+00 -0.15962057948E+03  0.15962057948E+03  0.00000000000E+00 0.  1.
          2    1    1    2  501    0  0.28774249140E+02 -0.83019391274E+01 -0.95316641429E+01  0.31428207524E+02  0.00000000000E+00 0.  1.
          1    1    1    2  502    0 -0.28774249140E+02  0.83019391274E+01 -0.13752918134E+03  0.14075210594E+03  0.00000000000E+00 0.  1.
</event>
<event>
 4    1  0.3927513E+003  0.3452863E+02  0.7546771E-02  0.1383908E+00
          2   -1    0    0  502    0  0.00000000000E+00  0.00000000000E+00  0.57146165417E+03  0.57146165417E+03  0.00000000000E+00 0. -1.
          1   -1    0    0  501    0 -0.00000000000E+00 -0.00000000000E+00 -0.21586339997E+03  0.21586339997E+03  0.00000000000E+00 0. -1.
          2    1    1    2  501    0  0.27396179554E+02 -0.21016084656E+02  0.56955470157E+03  0.57060037202E+03  0.00000000000E+00 0. -1.
          1    1    1    2  502    0 -0.27396179554E+02  0.21016084656E+02 -0.21395644737E+03  0.21672468212E+03  0.00000000000E+00 0. -1.
</event>
<event>
 4    1  0.3927513E+003  0.2036754E+02  0.7546771E-02  0.1528489E+00
          2   -1    0    0  502    0  0.00000000000E+00  0.00000000000E+00  0.59930114022E+00  0.59930114022E+00  0.00000000000E+00 0. -1.
          1   -1    0    0  501    0 -0.00000000000E+00 -0.00000000000E+00 -0.69913984011E+03  0.69913984011E+03  0.00000000000E+00 0. -1.
          2    1    1    2  501    0  0.14018765931E+01  0.20319238907E+02 -0.31441456250E+03  0.31507356893E+03  0.00000000000E+00 0. -1.
          1    1    1    2  502    0 -0.14018765931E+01 -0.20319238907E+02 -0.38412597647E+03  0.38466557232E+03  0.00000000000E+00 0. -1.
</event>
<event>
 4    1  0.3927513E+003  0.2406989E+02  0.7546771E-02  0.1479483E+00
          2   -1    0    0  502    0  0.00000000000E+00  0.00000000000E+00  0.58632842734E+03  0.58632842734E+03  0.00000000000E+00 0. -1.
          1   -1    0    0  501    0 -0.00000000000E+00 -0.00000000000E+00 -0.25385401981E+01  0.25385401981E+01  0.00000000000E+00 0.  1.
          2    1    1    2  501    0  0.21533736935E+02  0.10754423325E+02  0.52199710367E+03  0.52255175407E+03  0.00000000000E+00 0. -1.
          1    1    1    2  502    0 -0.21533736935E+02 -0.10754423325E+02  0.61792783473E+02  0.66315213464E+02  0.00000000000E+00 0.  1.
</event>
<event>
 4    1  0.3927513E+003  0.3581047E+02  0.7546771E-02  0.1374953E+00
          2   -1    0    0  502    0  0.00000000000E+00  0.00000000000E+00  0.14000448911E+04  0.14000448911E+04  0.00000000000E+00 0. -1.
          1   -1    0    0  501    0 -0.00000000000E+00 -0.00000000000E+00 -0.10402475499E+01  0.10402475499E+01  0.00000000000E+00 0.  1.
          2    1    1    2  501    0 -0.35252589602E+02 -0.62963828739E+01  0.94164676762E+03  0.94232745078E+03  0.00000000000E+00 0. -1.
          1    1    1    2  502    0  0.35252589602E+02  0.62963828739E+01  0.45735787593E+03  0.45875768788E+03  0.00000000000E+00 0.  1.
</event>
<event>
 4    1  0.3927513E+003  0.2531346E+02  0.7546771E-02  0.1465327E+00
          2   -1    0    0  502    0  0.00000000000E+00  0.00000000000E+00  0.21837462884E+02  0.21837462884E+02  0.00000000000E+00 0.  1.
          1   -1    0    0  501    0 -0.00000000000E+00 -0.00000000000E+00 -0.52769054641E+02  0.52769054641E+02  0.00000000000E+00 0.  1.
          2    1    1    2  501    0  0.11614751339E+02 -0.22491524947E+02  0.93889335295E+01  0.26998578035E+02  0.00000000000E+00 0.  1.
          1    1    1    2  502    0 -0.11614751339E+02  0.22491524947E+02 -0.40320525286E+02  0.47607939490E+02  0.00000000000E+00 0.  1.
</event>
<event>
 4    1  0.3927513E+003  0.3635851E+02  0.7546771E-02  0.1371256E+00
          2   -1    0    0  502    0  0.00000000000E+00  0.00000000000E+00  0.65748155534E+03  0.65748155534E+03  0.00000000000E+00 0. -1.
          1   -1    0    0  501    0 -0.00000000000E+00 -0.00000000000E+00 -0.27171795446E+02  0.27171795446E+02  0.00000000000E+00 0.  1.
          2    1    1    2  501    0 -0.24685480991E+02  0.26693979119E+02  0.64457270126E+03  0.64559732706E+03  0.00000000000E+00 0. -1.
          1    1    1    2  502    0  0.24685480991E+02 -0.26693979119E+02 -0.14262941368E+02  0.39056023728E+02  0.00000000000E+00 0.  1.
</event>
<event>
 4    1  0.3927513E+003  0.2605943E+02  0.7546771E-02  0.1457292E+00
          2   -1    0    0  502    0  0.00000000000E+00  0.00000000000E+00  0.56288759335E+03  0.56288759335E+03  0.00000000000E+00 0. -1.
          1   -1    0    0  501    0 -0.00000000000E+00 -0.00000000000E+00 -0.71573085402E+02  0.71573085402E+02  0.00000000000E+00 0.  1.
          2    1    1    2  501    0 -0.85079568912E-01 -0.26059295449E+02  0.56020258844E+03  0.56080837566E+03  0.00000000000E+00 0. -1.
          1    1    1    2  502    0  0.85079568912E-01  0.26059295449E+02 -0.68888080488E+02  0.73652303095E+02  0.00000000000E+00 0.  1.
</event>
<event>
 4    1  0.3927513E+003  0.2215910E+02  0.7546771E-02  0.1503336E+00
          2   -1    0    0  502    0  0.00000000000E+00  0.00000000000E+00  0.49850831864E+02  0.49850831864E+02  0.00000000000E+00 0.  1.
          1   -1    0    0  501    0 -0.00000000000E+00 -0.00000000000E+00 -0.22429945313E+02  0.22429945313E+02  0.00000000000E+00 0.  1.
          2    1    1    2  501    0  0.12850528487E+02  0.18052416945E+02  0.40776174690E+02  0.46408213307E+02  0.00000000000E+00 0.  1.
          1    1    1    2  502    0 -0.12850528487E+02 -0.18052416945E+02 -0.13355288138E+02  0.25872563870E+02  0.00000000000E+00 0.  1.
</event>
<event>
 4    1  0.3927513E+003  0.2178757E+02  0.7546771E-02  0.1508311E+00
          2   -1    0    0  502    0  0.00000000000E+00  0.00000000000E+00  0.35768169179E+02  0.35768169179E+02  0.00000000000E+00 0.  1.
          1   -1    0    0  501    0 -0.00000000000E+00 -0.00000000000E+00 -0.20788779601E+02  0.20788779601E+02  0.00000000000E+00 0.  1.
          2    1    1    2  501    0 -0.20804630471E+02  0.64703753273E+01  0.24494470285E+02  0.32782273876E+02  0.00000000000E+00 0.  1.
          1    1    1    2  502    0  0.20804630471E+02 -0.64703753273E+01 -0.95150807074E+01  0.23774674904E+02  0.00000000000E+00 0.  1.
</event>
<event>
 4    1  0.3927513E+003  0.2662923E+02  0.7546771E-02  0.1451368E+00
          2   -1    0    0  502    0  0.00000000000E+00  0.00000000000E+00  0.77746785721E+03  0.77746785721E+03  0.00000000000E+00 0.  1.
          1   -1    0    0  501    0 -0.00000000000E+00 -0.00000000000E+00 -0.16148675140E+01  0.16148675140E+01  0.00000000000E+00 0.  1.
          2    1    1    2  501    0  0.13451490859E+02 -0.22982023863E+02  0.64490446767E+03  0.64545401730E+03  0.00000000000E+00 0.  1.
          1    1    1    2  502    0 -0.13451490859E+02  0.22982023863E+02  0.13094852203E+03  0.13362870742E+03  0.00000000000E+00 0.  1.
</event>
<event>
 4    1  0.3927513E+003  0.2414533E+02  0.7546771E-02  0.1478596E+00
          2   -1    0    0  502    0  0.00000000000E+00  0.00000000000E+00  0.10646704029E+04  0.10646704029E+04  0.00000000000E+00 0. -1.
          1   -1    0    0  501    0 -0.00000000000E+00 -0.00000000000E+00 -0.64782022758E+00  0.64782022758E+00  0.00000000000E+00 0. -1.
          2    1    1    2  501    0  0.13061767782E+02 -0.20307315480E+02  0.74153526844E+03  0.74192826552E+03  0.00000000000E+00 0. -1.
          1    1    1    2  502    0 -0.13061767782E+02  0.20307315480E+02  0.32248731428E+03  0.32338995766E+03  0.00000000000E+00 0. -1.
</event>
<event>
 4    1  0.3927513E+003  0.3040323E+02  0.7546771E-02  0.1416124E+00
          2   -1    0    0  502    0  0.00000000000E+00  0.00000000000E+00  0.29128346445E+03  0.29128346445E+03  0.00000000000E+00 0.  1.
          1   -1    0    0  501    0 -0.00000000000E+00 -0.00000000000E+00 -0.43201038924E+01  0.43201038924E+01  0.00000000000E+00 0. -1.
          2    1    1    2  501    0 -0.29395702540E+01  0.30260793400E+02  0.21962988886E+03  0.22172425391E+03  0.00000000000E+00 0.  1.
          1    1    1    2  502    0  0.29395702540E+01 -0.30260793400E+02  0.67333471702E+02  0.73879314439E+02  0.00000000000E+00 0. -1.
</event>
<event>
 4    1  0.3927513E+003  0.3555119E+02  0.7546771E-02  0.1376729E+00
          2   -1    0    0  502    0  0.00000000000E+00  0.00000000000E+00  0.42240733866E+01  0.42240733866E+01  0.00000000000E+00 0.  1.
          1   -1    0    0  501    0 -0.00000000000E+00 -0.00000000000E+00 -0.63216475115E+03  0.63216475115E+03  0.00000000000E+00 0.  1.
          2    1    1    2  501    0  0.13026234999E+02  0.33078761744E+02 -0.83046022262E+02  0.90335646842E+02  0.00000000000E+00 0.  1.
          1    1    1    2  502    0 -0.13026234999E+02 -0.33078761744E+02 -0.54489465550E+03  0.54605317770E+03  0.00000000000E+00 0.  1.
</event>
<event>
 4    1  0.3927513E+003  0.4919283E+02  0.7546771E-02  0.1301710E+00
          2   -1    0    0  502    0  0.00000000000E+00  0.00000000000E+00  0.17198013339E+04  0.17198013339E+04  0.00000000000E+00 0.  1.
          1   -1    0    0  501    0 -0.00000000000E+00 -0.00000000000E+00 -0.15703572507E+04  0.15703572507E+04  0.00000000000E+00 0. -1.
          2    1    1    2  501    0 -0.24413468397E+02  0.42707344665E+02  0.17190641411E+04  0.17197678495E+04  0.00000000000E+00 0.  1.
          1    1    1    2  502    0  0.24413468397E+02 -0.42707344665E+02 -0.15696200580E+04  0.15703907352E+04  0.00000000000E+00 0. -1.
</event>
<event>
 4    1  0.3927513E+003  0.4442391E+02  0.7546771E-02  0.1324345E+00
          2   -1    0    0  502    0  0.00000000000E+00  0.00000000000E+00  0.41518666702E+03  0.41518666702E+03  0.00000000000E+00 0. -1.
          1   -1    0    0  501    0 -0.00000000000E+00 -0.00000000000E+00 -0.15256183777E+02  0.15256183777E+02  0.00000000000E+00 0.  1.
          2    1    1    2  501    0 -0.41163571877E+02  0.16704602915E+02  0.37853914486E+03  0.38113694074E+03  0.00000000000E+00 0. -1.
          1    1    1    2  502    0  0.41163571877E+02 -0.16704602915E+02  0.21391338380E+02  0.49305910050E+02  0.00000000000E+00 0.  1.
</event>
<event>
 4    1  0.3927513E+003  0.2938150E+02  0.7546771E-02  0.1425048E+00
          2   -1    0    0  502    0  0.00000000000E+00  0.00000000000E+00  0.24744988074E+03  0.24744988074E+03  0.00000000000E+00 0.  1.
          1   -1    0    0  501    0 -0.00000000000E+00 -0.00000000000E+00 -0.35777897926E+02  0.35777897926E+02  0.00000000000E+00 0. -1.
          2    1    1    2  501    0  0.10513643460E+02  0.27436027158E+02  0.24036849830E+03  0.24215756701E+03  0.00000000000E+00 0.  1.
          1    1    1    2  502    0 -0.10513643460E+02 -0.27436027158E+02 -0.28696515482E+02  0.41070211660E+02  0.00000000000E+00 0. -1.
</event>
<event>
 4    1  0.3927513E+003  0.2104736E+02  0.7546771E-02  0.1518590E+00
          2   -1    0    0  502    0  0.00000000000E+00  0.00000000000E+00  0.27543848951E+03  0.27543848951E+03  0.00000000000E+00 0. -1.
          1   -1    0    0  501    0 -0.00000000000E+00 -0.00000000000E+00 -0.30403812075E+03  0.30403812075E+03  0.00000000000E+00 0. -1.
          2    1    1    2  501    0  0.19358084719E+02 -0.82617218749E+01  0.27467113841E+03  0.27547636155E+03  0.00000000000E+00 0. -1.
          1    1    1    2  502    0 -0.19358084719E+02  0.82617218749E+01 -0.30327076965E+03  0.30400024872E+03  0.00000000000E+00 0. -1.
</event>
<event>
 4    1  0.3927513E+003  0.3329623E+02  0.7546771E-02  0.1392954E+00
          2   -1    0    0  502    0  0.00000000000E+00  0.00000000000E+00  0.17587151895E+03  0.17587151895E+03  0.00000000000E+00 0. -1.
          1   -1    0    0  501    0 -0.00000000000E+00 -0.00000000000E+00 -0.66134540432E+01  0.66134540432E+01  0.00000000000E+00 0. -1.
          2    1    1    2  501    0  0.83414009828E+01 -0.32234430843E+02  0.64881785922E+02  0.72926563381E+02  0.00000000000E+00 0. -1.
          1    1    1    2  502    0 -0.83414009828E+01  0.32234430843E+02  0.10437627899E+03  0.10955840962E+03  0.00000000000E+00 0. -1.
</event>
<event>
 4    1  0.3927513E+003  0.3599007E+02  0.7546771E-02  0.1373733E+00
          2   -1    0    0  502    0  0.00000000000E+00  0.00000000000E+00  0.57676838793E+03  0.57676838793E+03  0.00000000000E+00 0. -1.
          1   -1    0    0  501    0 -0.00000000000E+00 -0.00000000000E+00 -0.11059842108E+03  0.11059842108E+03  0.00000000000E+00 0.  1.
          2    1    1    2  501    0  0.35539814860E+02 -0.56750717193E+01  0.57326115093E+03  0.57438979104E+03  0.00000000000E+00 0. -1.
          1    1    1    2  502    0 -0.35539814860E+02  0.56750717193E+01 -0.10709118409E+03  0.11297701796E+03  0.00000000000E+00 0.  1.
</event>
<event>
 4    1  0.3927513E+003  0.2708751E+02  0.7546771E-02  0.1446731E+00
          2   -1    0    0  502    0  0.00000000000E+00  0.00000000000E+00  0.55455633103E+03  0.55455633103E+03  0.00000000000E+00 0. -1.
          1   -1    0    0  501    0 -0.00000000000E+00 -0.00000000000E+00 -0.27372374791E+02  0.27372374791E+02  0.00000000000E+00 0.  1.
          2    1    1    2  501    0 -0.83189573468E+01 -0.25778446444E+02  0.54743705550E+03  0.54810679898E+03  0.00000000000E+00 0. -1.
          1    1    1    2  502    0  0.83189573468E+01  0.25778446444E+02 -0.20253099265E+02  0.33821906839E+02  0.00000000000E+00 0.  1.
</event>
<event>
 4    1  0.3927513E+003  0.3838809E+02  0.7546771E-02  0.1358199E+00
          2   -1    0    0  502    0  0.00000000000E+00  0.00000000000E+00  0.73757464155E+02  0.73757464155E+02  0.00000000000E+00 0. -1.
          1   -1    0    0  501    0 -0.00000000000E+00 -0.00000000000E+00 -0.53036583292E+02  0.53036583292E+02  0.00000000000E+00 0.  1.
          2    1    1    2  501    0  0.10783716930E+02  0.36842323828E+02  0.60411427108E+02  0.71576433979E+02  0.00000000000E+00 0. -1.
          1    1    1    2  502    0 -0.10783716930E+02 -0.36842323828E+02 -0.39690546245E+02  0.55217613468E+02  0.00000000000E+00 0.  1.
</event>
<event>
 4    1  0.3927513E+003  0.4820669E+02  0.7546771E-02  0.1306141E+00
          2   -1    0    0  502    0  0.00000000000E+00  0.00000000000E+00  0.68331083003E+03  0.68331083003E+03  0.00000000000E+00 0. -1.
          1   -1    0    0  501    0 -0.00000000000E+00 -0.00000000000E+00 -0.24818763642E+02  0.24818763642E+02  0.00000000000E+00 0. -1.
          2    1    1    2  501    0 -0.82290056257E+01 -0.47499142250E+02  0.65815866697E+03  0.65992174988E+03  0.00000000000E+00 0. -1.
          1    1    1    2  502    0  0.82290056257E+01  0.47499142250E+02  0.33339941423E+00  0.48207843794E+02  0.00000000000E+00 0. -1.
</event>
<event>
 4    1  0.3927513E+003  0.2456620E+02  0.7546771E-02  0.1473715E+00
          2   -1    0    0  502    0  0.00000000000E+00  0.00000000000E+00  0.77847393534E+03  0.77847393534E+03  0.00000000000E+00 0.  1.
          1   -1    0    0  501    0 -0.00000000000E+00 -0.00000000000E+00 -0.26429580311E+02  0.26429580311E+02  0.00000000000E+00 0. -1.
          2    1    1    2  501    0  0.27577579737E+00 -0.24564653420E+02  0.77252764927E+03  0.77291815035E+03  0.00000000000E+00 0.  1.
          1    1    1    2  502    0 -0.27577579737E+00  0.24564653420E+02 -0.20483294248E+02  0.31985365297E+02  0.00000000000E+00 0. -1.
</event>
<event>
 4    1  0.3927513E+003  0.2114762E+02  0.7546771E-02  0.1517168E+00
          2   -1    0    0  502    0  0.00000000000E+00  0.00000000000E+00  0.10204373782E+01  0.10204373782E+01  0.00000000000E+00 0. -1.
          1   -1    0    0  501    0 -0.00000000000E+00 -0.00000000000E+00 -0.50749586704E+03  0.50749586704E+03  0.00000000000E+00 0. -1.
          2    1    1    2  501    0  0.11601831631E+02 -0.17681047471E+02 -0.15932839980E+03  0.16072573198E+03  0.00000000000E+00 0. -1.
          1    1    1    2  502    0 -0.11601831631E+02  0.17681047471E+02 -0.34714702986E+03  0.34779057244E+03  0.00000000000E+00 0. -1.
</event>
<event>
 4    1  0.3927513E+003  0.2263562E+02  0.7546771E-02  0.1497125E+00
          2   -1    0    0  502    0  0.00000000000E+00  0.00000000000E+00  0.32939238315E+02  0.32939238315E+02  0.00000000000E+00 0. -1.
          1   -1    0    0  501    0 -0.00000000000E+00 -0.00000000000E+00 -0.67854193611E+02  0.67854193611E+02  0.00000000000E+00 0.  1.
          2    1    1    2  501    0 -0.31694292432E+01  0.22412628537E+02  0.26787218483E+02  0.35070304728E+02  0.00000000000E+00 0. -1.
          1    1    1    2  502    0  0.31694292432E+01 -0.22412628537E+02 -0.61702173780E+02  0.65723127199E+02  0.00000000000E+00 0.  1.
</event>
<event>
 4    1  0.3927513E+003  0.5158745E+02  0.7546771E-02  0.1291433E+00
          2   -1    0    0  502    0  0.00000000000E+00  0.00000000000E+00  0.58930974574E+02  0.58930974574E+02  0.00000000000E+00 0. -1.
          1   -1    0    0  501    0 -0.00000000000E+00 -0.00000000000E+00 -0.48406498797E+02  0.48406498797E+02  0.00000000000E+00 0.  1.
          2    1    1    2  501    0 -0.70194465723E+01  0.51107650233E+02  0.19163149609E+02  0.55031725808E+02  0.00000000000E+00 0. -1.
          1    1    1    2  502    0  0.70194465723E+01 -0.51107650233E+02 -0.86386738319E+01  0.52305747563E+02  0.00000000000E+00 0.  1.
</event>
<event>
 4    1  0.3927513E+003  0.2012880E+02  0.7546771E-02  0.1532076E+00
          2   -1    0    0  502    0  0.00000000000E+00  0.00000000000E+00  0.14622601593E+02  0.14622601593E+02  0.00000000000E+00 0. -1.
          1   -1    0    0  501    0 -0.00000000000E+00 -0.00000000000E+00 -0.14297310567E+03  0.14297310567E+03  0.00000000000E+00 0. -1.
          2    1    1    2  501    0  0.13075035836E+02  0.15303990185E+02  0.65762090810E+01  0.21175816480E+02  0.00000000000E+00 0. -1.
          1    1    1    2  502    0 -0.13075035836E+02 -0.15303990185E+02 -0.13492671316E+03  0.13641989079E+03  0.00000000000E+00 0. -1.
</event>
<event>
 4    1  0.3927513E+003  0.2828516E+02  0.7546771E-02  0.1435109E+00
          2   -1    0    0  502    0  0.00000000000E+00  0.00000000000E+00  0.37106845774E+03  0.37106845774E+03  0.00000000000E+00 0. -1.
          1   -1    0    0  501    0 -0.00000000000E+00 -0.00000000000E+00 -0.61341066593E+02  0.61341066593E+02  0.00000000000E+00 0. -1.
          2    1    1    2  501    0 -0.24654671479E+02 -0.13863535113E+02  0.36723478697E+03  0.36832246631E+03  0.00000000000E+00 0. -1.
          1    1    1    2  502    0  0.24654671479E+02  0.13863535113E+02 -0.57507395820E+02  0.64087058020E+02  0.00000000000E+00 0. -1.
</event>
<event>
 4    1  0.3927513E+003  0.2596723E+02  0.7546771E-02  0.1458268E+00
          2   -1    0    0  502    0  0.00000000000E+00  0.00000000000E+00  0.24741449156E+02  0.24741449156E+02  0.00000000000E+00 0.  1.
          1   -1    0    0  501    0 -0.00000000000E+00 -0.00000000000E+00 -0.48695223998E+03  0.48695223998E+03  0.00000000000E+00 0.  1.
          2    1    1    2  501    0 -0.18684370959E+02  0.18033059357E+02  0.17478749863E+02  0.31301815358E+02  0.00000000000E+00 0.  1.
          1    1    1    2  502    0  0.18684370959E+02 -0.18033059357E+02 -0.47968954068E+03  0.48039187377E+03  0.00000000000E+00 0.  1.
</event>
<event>
 4    1  0.3927513E+003  0.3428709E+02  0.7546771E-02  0.1385646E+00
          2   -1    0    0  502    0  0.00000000000E+00  0.00000000000E+00  0.25739211571E+03  0.25739211571E+03  0.00000000000E+00 0. -1.
          1   -1    0    0  501    0 -0.00000000000E+00 -0.00000000000E+00 -0.27481154029E+02  0.27481154029E+02  0.00000000000E+00 0. -1.
          2    1    1    2  501    0 -0.32692192964E+02 -0.10335635164E+02  0.24501814220E+03  0.24740552711E+03  0.00000000000E+00 0. -1.
          1    1    1    2  502    0  0.32692192964E+02  0.10335635164E+02 -0.15107180517E+02  0.37467742636E+02  0.00000000000E+00 0. -1.
</event>
<event>
 4    1  0.3927513E+003  0.2840522E+02  0.7546771E-02  0.1433981E+00
          2   -1    0    0  502    0  0.00000000000E+00  0.00000000000E+00  0.16929706705E+04  0.16929706705E+04  0.00000000000E+00 0.  1.
          1   -1    0    0  501    0 -0.00000000000E+00 -0.00000000000E+00 -0.11320826662E+01  0.11320826662E+01  0.00000000000E+00 0. -1.
          2    1    1    2  501    0 -0.28273512204E+02 -0.27322447129E+01  0.14904652154E+04  0.14907358636E+04  0.00000000000E+00 0.  1.
          1    1    1    2  502    0  0.28273512204E+02  0.27322447129E+01  0.20137337242E+03  0.20336688957E+03  0.00000000000E+00 0. -1.
</event>
<event>
 4    1  0.3927513E+003  0.3632131E+02  0.7546771E-02  0.1371505E+00
          2   -1    0    0  502    0  0.00000000000E+00  0.00000000000E+00  0.10918257853E+02  0.10918257853E+02  0.00000000000E+00 0. -1.
          1   -1    0    0  501    0 -0.00000000000E+00 -0.00000000000E+00 -0.77722631740E+03  0.77722631740E+03  0.00000000000E+00 0. -1.
          2    1    1    2  501    0  0.10510587150E+02  0.34767296960E+02 -0.21006363997E+02  0.41958368754E+02  0.00000000000E+00 0. -1.
          1    1    1    2  502    0 -0.10510587150E+02 -0.34767296960E+02 -0.74530169555E+03  0.74618620650E+03  0.00000000000E+00 0. -1.
</event>
<event>
 4    1  0.3927513E+003  0.2341273E+02  0.7546771E-02  0.1487380E+00
          2   -1    0    0  502    0  0.00000000000E+00  0.00000000000E+00  0.64081619372E+01  0.64081619372E+01  0.00000000000E+00 0.  1.
          1   -1    0    0  501    0 -0.00000000000E+00 -0.00000000000E+00 -0.10759579050E+03  0.10759579050E+03  0.00000000000E+00 0.  1.
          2    1    1    2  501    0  0.16563006649E+02  0.16547583509E+02 -0.24786000010E+02  0.34095476323E+02  0.00000000000E+00 0.  1.
          1    1    1    2  502    0 -0.16563006649E+02 -0.16547583509E+02 -0.76401628553E+02  0.79908476114E+02  0.00000000000E+00 0.  1.
</event>
<event>
 4    1  0.3927513E+003  0.2944984E+02  0.7546771E-02  0.1424438E+00
          2   -1    0    0  502    0  0.00000000000E+00  0.00000000000E+00  0.70458772279E+01  0.70458772279E+01  0.00000000000E+00 0.  1.
          1   -1    0    0  501    0 -0.00000000000E+00 -0.00000000000E+00 -0.58907324561E+03  0.58907324561E+03  0.00000000000E+00 0.  1.
          2    1    1    2  501    0  0.20733624690E+02  0.20914352337E+02 -0.25918107153E+02  0.39230620756E+02  0.00000000000E+00 0.  1.
          1    1    1    2  502    0 -0.20733624690E+02 -0.20914352337E+02 -0.55610926123E+03  0.55688850209E+03  0.00000000000E+00 0.  1.
</event>
<event>
 4    1  0.3927513E+003  0.2176759E+02  0.7546771E-02  0.1508582E+00
          2   -1    0    0  502    0  0.00000000000E+00  0.00000000000E+00  0.56625824206E+01  0.56625824206E+01  0.00000000000E+00 0. -1.
          1   -1    0    0  501    0 -0.00000000000E+00 -0.00000000000E+00 -0.88446168199E+03  0.88446168199E+03  0.00000000000E+00 0.  1.
          2    1    1    2  501    0  0.16651468874E+01  0.21703807032E+02 -0.15913596810E+02  0.26964245164E+02  0.00000000000E+00 0. -1.
          1    1    1    2  502    0 -0.16651468874E+01 -0.21703807032E+02 -0.86288550276E+03  0.86316001924E+03  0.00000000000E+00 0.  1.
</event>
<event>
 4    1  0.3927513E+003  0.7015199E+02  0.7546771E-02  0.1228764E+00
          2   -1    0    0  502    0  0.00000000000E+00  0.00000000000E+00  0.70455584583E+02  0.70455584583E+02  0.00000000000E+00 0. -1.
          1   -1    0    0  501    0 -0.00000000000E+00 -0.00000000000E+00 -0.14327165924E+03  0.14327165924E+03  0.00000000000E+00 0.  1.
          2    1    1    2  501    0  0.61201959679E+02 -0.34287338004E+02  0.40092190800E+02  0.80800279573E+02  0.00000000000E+00 0. -1.
          1    1    1    2  502    0 -0.61201959679E+02  0.34287338004E+02 -0.11290826545E+03  0.13292696425E+03  0.00000000000E+00 0.  1.
</event>
<event>
 4    1  0.3927513E+003  0.3337925E+02  0.7546771E-02  0.1392330E+00
          2   -1    0    0  502    0  0.00000000000E+00  0.00000000000E+00  0.39748415376E+03  0.39748415376E+03  0.00000000000E+00 0.  1.
          1   -1    0    0  501    0 -0.00000000000E+00 -0.00000000000E+00 -0.67877787957E+01  0.67877787957E+01  0.00000000000E+00 0.  1.
          2    1    1    2  501    0  0.14064980799E+02 -0.30271285531E+02  0.35022209418E+03  0.35180916655E+03  0.00000000000E+00 0.  1.
          1    1    1    2  502    0 -0.14064980799E+02  0.30271285531E+02  0.40474280784E+02  0.52462766011E+02  0.00000000000E+00 0.  1.
</event>
<event>
 4    1  0.3927513E+003  0.2345109E+02  0.7546771E-02  0.1486910E+00
          2   -1    0    0  502    0  0.00000000000E+00  0.00000000000E+00  0.39447653207E+02  0.39447653207E+02  0.00000000000E+00 0.  1.
          1   -1    0    0  501    0 -0.00000000000E+00 -0.00000000000E+00 -0.16160862833E+04  0.16160862833E+04  0.00000000000E+00 0. -1.
          2    1    1    2  501    0  0.11675883195E+02  0.20337835667E+02  0.35869505522E+02  0.42855282456E+02  0.00000000000E+00 0.  1.
          1    1    1    2  502    0 -0.11675883195E+02 -0.20337835667E+02 -0.16125081356E+04  0.16126786540E+04  0.00000000000E+00 0. -1.
</event>
<event>
 4    1  0.3927513E+003  0.2046296E+02  0.7546771E-02  0.1527072E+00
          2   -1    0    0  502    0  0.00000000000E+00  0.00000000000E+00  0.59915431178E+03  0.59915431178E+03  0.00000000000E+00 0. -1.
          1   -1    0    0  501    0 -0.00000000000E+00 -0.00000000000E+00 -0.18466434002E+03  0.18466434002E+03  0.00000000000E+00 0.  1.
          2    1    1    2  501    0  0.10779783584E+02  0.17393355190E+02  0.59841200731E+03  0.59876177486E+03  0.00000000000E+00 0. -1.
          1    1    1    2  502    0 -0.10779783584E+02 -0.17393355190E+02 -0.18392203555E+03  0.18505687693E+03  0.00000000000E+00 0.  1.
</event>
<event>
 4    1  0.3927513E+003  0.2399016E+02  0.7546771E-02  0.1480425E+00
          2   -1    0    0  502    0  0.00000000000E+00  0.00000000000E+00  0.16472848733E+04  0.16472848733E+04  0.00000000000E+00 0.  1.
          1   -1    0    0  501    0 -0.00000000000E+00 -0.00000000000E+00 -0.19858729555E+01  0.19858729555E+01  0.00000000000E+00 0.  1.
          2    1    1    2  501    0  0.10260194418E+02 -0.21685389716E+02  0.15712383494E+04  0.15714214833E+04  0.00000000000E+00 0.  1.
          1    1    1    2  502    0 -0.10260194418E+02  0.21685389716E+02  0.74060651002E+02  0.77849262961E+02  0.00000000000E+00 0.  1.
</event>
<event>
 4    1  0.3927513E+003  0.7991621E+02  0.7546771E-02  0.1204042E+00
          2   -1    0    0  502    0  0.00000000000E+00  0.00000000000E+00  0.13845413512E+03  0.13845413512E+03  0.00000000000E+00 0.  1.
          1   -1    0    0  501    0 -0.00000000000E+00 -0.00000000000E+00 -0.59818638362E+03  0.59818638362E+03  0.00000000000E+00 0. -1.
          2    1    1    2  501    0  0.79086024303E+02  0.11489172009E+02  0.12396813902E+03  0.14749474501E+03  0.00000000000E+00 0.  1.
          1    1    1    2  502    0 -0.79086024303E+02 -0.11489172009E+02 -0.58370038751E+03  0.58914577373E+03  0.00000000000E+00 0. -1.
</event>
<event>
 4    1  0.3927513E+003  0.2779943E+02  0.7546771E-02  0.1439739E+00
          2   -1    0    0  502    0  0.00000000000E+00  0.00000000000E+00  0.32212558941E+02  0.32212558941E+02  0.00000000000E+00 0.  1.
          1   -1    0    0  501    0 -0.00000000000E+00 -0.00000000000E+00 -0.13104912773E+04  0.13104912773E+04  0.00000000000E+00 0. -1.
          2    1    1    2  501    0 -0.17607361661E+02  0.21512533236E+02  0.26039021874E+02  0.38089879640E+02  0.00000000000E+00 0.  1.
          1    1    1    2  502    0  0.17607361661E+02 -0.21512533236E+02 -0.13043177402E+04  0.13046139566E+04  0.00000000000E+00 0. -1.
</event>
<event>
 4    1  0.3927513E+003  0.2421934E+02  0.7546771E-02  0.1477729E+00
          2   -1    0    0  502    0  0.00000000000E+00  0.00000000000E+00  0.58449395204E+02  0.58449395204E+02  0.00000000000E+00 0. -1.
          1   -1    0    0  501    0 -0.00000000000E+00 -0.00000000000E+00 -0.15490091456E+03  0.15490091456E+03  0.00000000000E+00 0. -1.
          2    1    1    2  501    0  0.19747587359E+02  0.14021749152E+02  0.54935930560E+02  0.60037764134E+02  0.00000000000E+00 0. -1.
          1    1    1    2  502    0 -0.19747587359E+02 -0.14021749152E+02 -0.15138744992E+03  0.15331254563E+03  0.00000000000E+00 0. -1.
</event>
<event>
 4    1  0.3927513E+003  0.2720637E+02  0.7546771E-02  0.1445546E+00
          2   -1    0    0  502    0  0.00000000000E+00  0.00000000000E+00  0.26001639200E+02  0.26001639200E+02  0.00000000000E+00 0. -1.
          1   -1    0    0  501    0 -0.00000000000E+00 -0.00000000000E+00 -0.33222950886E+02  0.33222950886E+02  0.00000000000E+00 0.  1.
          2    1    1    2  501    0  0.25855900126E+02 -0.84651644973E+01  0.75934009578E+01  0.28246173535E+02  0.00000000000E+00 0. -1.
          1    1    1    2  502    0 -0.25855900126E+02  0.84651644973E+01 -0.14814712644E+02  0.30978416551E+02  0.00000000000E+00 0.  1.
</event>
<event>
 4    1  0.3927513E+003  0.3119495E+02  0.7546771E-02  0.1409489E+00
          2   -1    0    0  502    0  0.00000000000E+00  0.00000000000E+00  0.27751813786E+02  0.27751813786E+02  0.00000000000E+00 0.  1.
          1   -1    0    0  501    0 -0.00000000000E+00 -0.00000000000E+00 -0.41278674563E+03  0.41278674563E+03  0.00000000000E+00 0. -1.
          2    1    1    2  501    0  0.23854121727E+02 -0.20102381638E+02  0.18188531815E+02  0.36110214074E+02  0.00000000000E+00 0.  1.
          1    1    1    2  502    0 -0.23854121727E+02  0.20102381638E+02 -0.40322346366E+03  0.40442834535E+03  0.00000000000E+00 0. -1.
</event>
<event>
 4    1  0.3927513E+003  0.2412884E+02  0.7546771E-02  0.1478790E+00
          2   -1    0    0  502    0  0.00000000000E+00  0.00000000000E+00  0.14478715957E+04  0.14478715957E+04  0.00000000000E+00 0. -1.
          1   -1    0    0  501    0 -0.00000000000E+00 -0.00000000000E+00 -0.50650891596E+00  0.50650891596E+00  0.00000000000E+00 0.  1.
          2    1    1    2  501    0 -0.19003208007E+02 -0.14868717684E+02  0.10524665360E+04  0.10527430884E+04  0.00000000000E+00 0. -1.
          1    1    1    2  502    0  0.19003208007E+02  0.14868717684E+02  0.39489855074E+03  0.39563501621E+03  0.00000000000E+00 0.  1.
</event>
<event>
 4    1  0.3927513E+003  0.2138692E+02  0.7546771E-02  0.1513812E+00
          2   -1    0    0  502    0  0.00000000000E+00  0.00000000000E+00  0.44303087472E+02  0.44303087472E+02  0.00000000000E+00 0.  1.
          1   -1    0    0  501    0 -0.00000000000E+00 -0.00000000000E+00 -0.10949914335E+02  0.10949914335E+02  0.00000000000E+00 0.  1.
          2    1    1    2  501    0 -0.18746750949E+02  0.10293642817E+02  0.10073256667E+02  0.23640436829E+02  0.00000000000E+00 0.  1.
          1    1    1    2  502    0  0.18746750949E+02 -0.10293642817E+02  0.23279916470E+02  0.31612564978E+02  0.00000000000E+00 0.  1.
</event>
<event>
 4    1  0.3927513E+003  0.2470878E+02  0.7546771E-02  0.1472088E+00
          2   -1    0    0  502    0  0.00000000000E+00  0.00000000000E+00  0.20979837107E+02  0.20979837107E+02  0.00000000000E+00 0. -1.
          1   -1    0    0  501    0 -0.00000000000E+00 -0.00000000000E+00 -0.16005286979E+03  0.16005286979E+03  0.00000000000E+00 0.  1.
          2    1    1    2  501    0 -0.55648945205E+01  0.24073959644E+02  0.12338615241E+02  0.27618200702E+02  0.00000000000E+00 0. -1.
          1    1    1    2  502    0  0.55648945205E+01 -0.24073959644E+02 -0.15141164792E+03  0.15341450619E+03  0.00000000000E+00 0.  1.
</event>
<event>
 4    1  0.3927513E+003  0.2016370E+02  0.7546771E-02  0.1531548E+00
          2   -1    0    0  502    0  0.00000000000E+00  0.00000000000E+00  0.66905946570E+01  0.66905946570E+01  0.00000000000E+00 0.  1.
          1   -1    0    0  501    0 -0.00000000000E+00 -0.00000000000E+00 -0.32251118038E+03  0.32251118038E+03  0.00000000000E+00 0. -1.
          2    1    1    2  501    0  0.16996823500E+02  0.10848177962E+02 -0.96252459484E+01  0.22343239106E+02  0.00000000000E+00 0.  1.
          1    1    1    2  502    0 -0.16996823500E+02 -0.10848177962E+02 -0.30619533978E+03  0.30685853593E+03  0.00000000000E+00 0. -1.
</event>
<event>
 4    1  0.3927513E+003  0.2103777E+02  0.7546771E-02  0.1518726E+00
          2   -1    0    0  502    0  0.00000000000E+00  0.00000000000E+00  0.52867321619E+03  0.52867321619E+03  0.00000000000E+00 0.  1.
          1   -1    0    0  501    0 -0.00000000000E+00 -0.00000000000E+00 -0.65906896406E+03  0.65906896406E+03  0.00000000000E+00 0.  1.
          2    1    1    2  501    0 -0.21319088068E+01 -0.20929474082E+02  0.52829592075E+03  0.52871463741E+03  0.00000000000E+00 0.  1.
          1    1    1    2  502    0  0.21319088068E+01  0.20929474082E+02 -0.65869166862E+03  0.65902754285E+03  0.00000000000E+00 0.  1.
</event>
<event>
 4    1  0.3927513E+003  0.2366350E+02  0.7546771E-02  0.1484330E+00
          2   -1    0    0  502    0  0.00000000000E+00  0.00000000000E+00  0.13970201783E+04  0.13970201783E+04  0.00000000000E+00 0. -1.
          1   -1    0    0  501    0 -0.00000000000E+00 -0.00000000000E+00 -0.45136610556E+00  0.45136610556E+00  0.00000000000E+00 0. -1.
          2    1    1    2  501    0  0.23568212082E+02 -0.21215099994E+01  0.93209725639E+03  0.93239758515E+03  0.00000000000E+00 0. -1.
          1    1    1    2  502    0 -0.23568212082E+02  0.21215099994E+01  0.46447155578E+03  0.46507395923E+03  0.00000000000E+00 0. -1.
</event>
<event>
 4    1  0.3927513E+003  0.2315037E+02  0.7546771E-02  0.1490619E+00
          2   -1    0    0  502    0  0.00000000000E+00  0.00000000000E+00  0.64376807235E+03  0.64376807235E+03  0.00000000000E+00 0.  1.
          1   -1    0    0  501    0 -0.00000000000E+00 -0.00000000000E+00 -0.83633924605E+01  0.83633924605E+01  0.00000000000E+00 0. -1.
          2    1    1    2  501    0  0.22061263230E+01  0.23045014840E+02  0.62711424467E+03  0.62754140547E+03  0.00000000000E+00 0.  1.
          1    1    1    2  502    0 -0.22061263230E+01 -0.23045014840E+02  0.82904352113E+01  0.24590059339E+02  0.00000000000E+00 0. -1.
</event>
<event>
 4    1  0.3927513E+003  0.2276281E+02  0.7546771E-02  0.1495498E+00
          2   -1    0    0  502    0  0.00000000000E+00  0.00000000000E+00  0.91324502246E+03  0.91324502246E+03  0.00000000000E+00 0. -1.
          1   -1    0    0  501    0 -0.00000000000E+00 -0.00000000000E+00 -0.38841066480E+01  0.38841066480E+01  0.00000000000E+00 0. -1.
          2    1    1    2  501    0 -0.16833316008E+02 -0.15322691846E+02  0.87843131201E+03  0.87872618906E+03  0.00000000000E+00 0. -1.
          1    1    1    2  502    0  0.16833316008E+02  0.15322691846E+02  0.30929603800E+02  0.38402940050E+02  0.00000000000E+00 0. -1.
</event>
<event>
 4    1  0.3927513E+003  0.4153122E+02  0.7546771E-02  0.1339739E+00
          2   -1    0    0  502    0  0.00000000000E+00  0.00000000000E+00  0.61296880372E+02  0.61296880372E+02  0.00000000000E+00 0. -1.
          1   -1    0    0  501    0 -0.00000000000E+00 -0.00000000000E+00 -0.58864262335E+02  0.58864262335E+02  0.00000000000E+00 0.  1.
          2    1    1    2  501    0 -0.46535851593E+01 -0.41269682032E+02  0.44622821620E+02  0.60959320200E+02  0.00000000000E+00 0. -1.
          1    1    1    2  502    0  0.46535851593E+01  0.41269682032E+02 -0.42190203584E+02  0.59201822508E+02  0.00000000000E+00 0.  1.
</event>
<event>
 4    1  0.3927513E+003  0.2340005E+02  0.7546771E-02  0.1487535E+00
          2   -1    0    0  502    0  0.00000000000E+00  0.00000000000E+00  0.47263400142E+01  0.47263400142E+01  0.00000000000E+00 0.  1.
          1   -1    0    0  501    0 -0.00000000000E+00 -0.00000000000E+00 -0.58196300971E+03  0.58196300971E+03  0.00000000000E+00 0.  1.
          2    1    1    2  501    0 -0.32512715281E+01 -0.23173080284E+02 -0.26090981203E+02  0.35047135639E+02  0.00000000000E+00 0.  1.
          1    1    1    2  502    0  0.32512715281E+01  0.23173080284E+02 -0.55114568849E+03  0.55164221408E+03  0.00000000000E+00 0.  1.
</event>
<event>
 4    1  0.3927513E+003  0.2126157E+02  0.7546771E-02  0.1515563E+00
          2   -1    0    0  502    0  0.00000000000E+00  0.00000000000E+00  0.64359612918E+02  0.64359612918E+02  0.00000000000E+00 0. -1.
          1   -1    0    0  501    0 -0.00000000000E+00 -0.00000000000E+00 -0.31719607835E+02  0.31719607835E+02  0.00000000000E+00 0. -1.
          2    1    1    2  501    0  0.20877383616E+02  0.40235694165E+01  0.58708349333E+02  0.62439767288E+02  0.00000000000E+00 0. -1.
          1    1    1    2  502    0 -0.20877383616E+02 -0.40235694165E+01 -0.26068344250E+02  0.33639453465E+02  0.00000000000E+00 0. -1.
</event>
<event>
 4    1  0.3927513E+003  0.2481547E+02  0.7546771E-02  0.1470878E+00
          2   -1    0    0  502    0  0.00000000000E+00  0.00000000000E+00  0.12433848858E+03  0.12433848858E+03  0.00000000000E+00 0. -1.
          1   -1    0    0  501    0 -0.00000000000E+00 -0.00000000000E+00 -0.16751124373E+02  0.16751124373E+02  0.00000000000E+00 0. -1.
          2    1    1    2  501    0  0.10962198788E+02  0.22262920368E+02  0.11299830713E+03  0.11569107502E+03  0.00000000000E+00 0. -1.
          1    1    1    2  502    0 -0.10962198788E+02 -0.22262920368E+02 -0.54109429239E+01  0.25398537929E+02  0.00000000000E+00 0. -1.
</event>
<event>
 4    1  0.3927513E+003  0.2000297E+02  0.7546771E-02  0.1533990E+00
          2   -1    0    0  502    0  0.00000000000E+00  0.00000000000E+00  0.15504495994E+03  0.15504495994E+03  0.00000000000E+00 0. -1.
          1   -1    0    0  501    0 -0.00000000000E+00 -0.00000000000E+00 -0.22245174992E+02  0.22245174992E+02  0.00000000000E+00 0. -1.
          2    1    1    2  501    0  0.17089787870E+02 -0.10395097063E+02  0.14974464109E+03  0.15107473789E+03  0.00000000000E+00 0. -1.
          1    1    1    2  502    0 -0.17089787870E+02  0.10395097063E+02 -0.16944856144E+02  0.26215397043E+02  0.00000000000E+00 0. -1.
</event>
<event>
 4    1  0.3927513E+003  0.2571428E+02  0.7546771E-02  0.1460969E+00
          2   -1    0    0  502    0  0.00000000000E+00  0.00000000000E+00  0.12673936503E+03  0.12673936503E+03  0.00000000000E+00 0. -1.
          1   -1    0    0  501    0 -0.00000000000E+00 -0.00000000000E+00 -0.10716990401E+02  0.10716990401E+02  0.00000000000E+00 0.  1.
          2    1    1    2  501    0 -0.48566609041E+01  0.25251474103E+02  0.10724592611E+03  0.11028559637E+03  0.00000000000E+00 0. -1.
          1    1    1    2  502    0  0.48566609041E+01 -0.25251474103E+02  0.87764485252E+01  0.27170759066E+02  0.00000000000E+00 0.  1.
</event>
<event>
 4    1  0.3927513E+003  0.2356113E+02  0.7546771E-02  0.1485570E+00
          2   -1    0    0  502    0  0.00000000000E+00  0.00000000000E+00  0.25170656180E+01  0.25170656180E+01  0.00000000000E+00 0. -1.
          1   -1    0    0  501    0 -0.00000000000E+00 -0.00000000000E+00 -0.17507791095E+04  0.17507791095E+04  0.00000000000E+00 0.  1.
          2    1    1    2  501    0 -0.11142776038E+02  0.20759707252E+02 -0.54556378664E+02  0.59426638438E+02  0.00000000000E+00 0. -1.
          1    1    1    2  502    0  0.11142776038E+02 -0.20759707252E+02 -0.16937056652E+04  0.16938695367E+04  0.00000000000E+00 0.  1.
</event>
<event>
 4    1  0.3927513E+003  0.2003063E+02  0.7546771E-02  0.1533568E+00
          2   -1    0    0  502    0  0.00000000000E+00  0.00000000000E+00  0.95741213405E+02  0.95741213405E+02  0.00000000000E+00 0. -1.
          1   -1    0    0  501    0 -0.00000000000E+00 -0.00000000000E+00 -0.26170826361E+03  0.26170826361E+03  0.00000000000E+00 0.  1.
          2    1    1    2  501    0 -0.14077043698E+02  0.14250021380E+02  0.94304477998E+02  0.96408302750E+02  0.00000000000E+00 0. -1.
          1    1    1    2  502    0  0.14077043698E+02 -0.14250021380E+02 -0.26027152820E+03  0.26104117426E+03  0.00000000000E+00 0.  1.
</event>
<event>
 4    1  0.3927513E+003  0.2291441E+02  0.7546771E-02  0.1493576E+00
          2   -1    0    0  502    0  0.00000000000E+00  0.00000000000E+00  0.17349010777E+03  0.17349010777E+03  0.00000000000E+00 0.  1.
          1   -1    0    0  501    0 -0.00000000000E+00 -0.00000000000E+00 -0.19149996672E+03  0.19149996672E+03  0.00000000000E+00 0.  1.
          2    1    1    2  501    0  0.17063615411E+02  0.15293891722E+02  0.17204226597E+03  0.17356154924E+03  0.00000000000E+00 0.  1.
          1    1    1    2  502    0 -0.17063615411E+02 -0.15293891722E+02 -0.19005212492E+03  0.19142852525E+03  0.00000000000E+00 0.  1.
</event>
<event>
 4    1  0.3927513E+003  0.4161419E+02  0.7546771E-02  0.1339278E+00
          2   -1    0    0  502    0  0.00000000000E+00  0.00000000000E+00  0.26384043135E+03  0.26384043135E+03  0.00000000000E+00 0.  1.
          1   -1    0    0  501    0 -0.00000000000E+00 -0.00000000000E+00 -0.23067539629E+02  0.23067539629E+02  0.00000000000E+00 0.  1.
          2    1    1    2  501    0 -0.48055724329E+01 -0.41335788178E+02  0.24172697959E+03  0.24528284402E+03  0.00000000000E+00 0.  1.
          1    1    1    2  502    0  0.48055724329E+01  0.41335788178E+02 -0.95408786555E+00  0.41625126959E+02  0.00000000000E+00 0.  1.
</event>
<event>
 4    1  0.3927513E+003  0.2011200E+02  0.7546771E-02  0.1532330E+00
          2   -1    0    0  502    0  0.00000000000E+00  0.00000000000E+00  0.28365094102E+01  0.28365094102E+01  0.00000000000E+00 0.  1.
          1   -1    0    0  501    0 -0.00000000000E+00 -0.00000000000E+00 -0.17641809441E+03  0.17641809441E+03  0.00000000000E+00 0.  1.
          2    1    1    2  501    0  0.54316530858E+01 -0.19364654844E+02 -0.47550821516E+02  0.51629190767E+02  0.00000000000E+00 0.  1.
          1    1    1    2  502    0 -0.54316530858E+01  0.19364654844E+02 -0.12603076348E+03  0.12762541305E+03  0.00000000000E+00 0.  1.
</event>
<event>
 4    1  0.3927513E+003  0.2367200E+02  0.7546771E-02  0.1484228E+00
          2   -1    0    0  502    0  0.00000000000E+00  0.00000000000E+00  0.31989371518E+01  0.31989371518E+01  0.00000000000E+00 0.  1.
          1   -1    0    0  501    0 -0.00000000000E+00 -0.00000000000E+00 -0.30599811640E+03  0.30599811640E+03  0.00000000000E+00 0.  1.
          2    1    1    2  501    0  0.22857241949E+02 -0.61571181675E+01 -0.50313007385E+02  0.55603617920E+02  0.00000000000E+00 0.  1.
          1    1    1    2  502    0 -0.22857241949E+02  0.61571181675E+01 -0.25248617187E+03  0.25359343564E+03  0.00000000000E+00 0.  1.
</event>
<event>
 4    1  0.3927513E+003  0.2584078E+02  0.7546771E-02  0.1459614E+00
          2   -1    0    0  502    0  0.00000000000E+00  0.00000000000E+00  0.70244033786E+03  0.70244033786E+03  0.00000000000E+00 0. -1.
          1   -1    0    0  501    0 -0.00000000000E+00 -0.00000000000E+00 -0.13118870863E+03  0.13118870863E+03  0.00000000000E+00 0.  1.
          2    1    1    2  501    0  0.24969404357E+02  0.66539149579E+01  0.70092744925E+03  0.70140361765E+03  0.00000000000E+00 0. -1.
          1    1    1    2  502    0 -0.24969404357E+02 -0.66539149579E+01 -0.12967582002E+03  0.13222542885E+03  0.00000000000E+00 0.  1.
</event>
<event>
 4    1  0.3927513E+003  0.3463649E+02  0.7546771E-02  0.1383137E+00
          2   -1    0    0  502    0  0.00000000000E+00  0.00000000000E+00  0.99401434064E+01  0.99401434064E+01  0.00000000000E+00 0. -1.
          1   -1    0    0  501    0 -0.00000000000E+00 -0.00000000000E+00 -0.35301206049E+03  0.35301206049E+03  0.00000000000E+00 0. -1.
          2    1    1    2  501    0 -0.14620485450E+02 -0.31399483263E+02 -0.24315239847E+02  0.42319227697E+02  0.00000000000E+00 0. -1.
          1    1    1    2  502    0  0.14620485450E+02  0.31399483263E+02 -0.31875667723E+03  0.32063297620E+03  0.00000000000E+00 0. -1.
</event>
<event>
 4    1  0.3927513E+003  0.2535932E+02  0.7546771E-02  0.1464824E+00
          2   -1    0    0  502    0  0.00000000000E+00  0.00000000000E+00  0.18608334091E+03  0.18608334091E+03  0.00000000000E+00 0.  1.
          1   -1    0    0  501    0 -0.00000000000E+00 -0.00000000000E+00 -0.11884911660E+02  0.11884911660E+02  0.00000000000E+00 0. -1.
          2    1    1    2  501    0 -0.22098640418E+02  0.12439670694E+02  0.17045860542E+03  0.17233464967E+03  0.00000000000E+00 0.  1.
          1    1    1    2  502    0  0.22098640418E+02 -0.12439670694E+02  0.37398238291E+01  0.25633602898E+02  0.00000000000E+00 0. -1.
</event>
<event>
 4    1  0.3927513E+003  0.6699550E+02  0.7546771E-02  0.1237753E+00
          2   -1    0    0  502    0  0.00000000000E+00  0.00000000000E+00  0.19007773353E+03  0.19007773353E+03  0.00000000000E+00 0. -1.
          1   -1    0    0  501    0 -0.00000000000E+00 -0.00000000000E+00 -0.45359303485E+03  0.45359303485E+03  0.00000000000E+00 0.  1.
          2    1    1    2  501    0  0.24606792819E+02  0.62312937678E+02  0.18158860252E+03  0.19355313746E+03  0.00000000000E+00 0. -1.
          1    1    1    2  502    0 -0.24606792819E+02 -0.62312937678E+02 -0.44510390384E+03  0.45011763093E+03  0.00000000000E+00 0.  1.
</event>
<event>
 4    1  0.3927513E+003  0.2613951E+02  0.7546771E-02  0.1456449E+00
          2   -1    0    0  502    0  0.00000000000E+00  0.00000000000E+00  0.10419498724E+04  0.10419498724E+04  0.00000000000E+00 0.  1.
          1   -1    0    0  501    0 -0.00000000000E+00 -0.00000000000E+00 -0.25532502194E+01  0.25532502194E+01  0.00000000000E+00 0.  1.
          2    1    1    2  501    0 -0.24669578362E+02 -0.86420993998E+01  0.96991572559E+03  0.97026789534E+03  0.00000000000E+00 0.  1.
          1    1    1    2  502    0  0.24669578362E+02  0.86420993998E+01  0.69480896616E+02  0.74235227306E+02  0.00000000000E+00 0.  1.
</event>
<event>
 4    1  0.3927513E+003  0.2518607E+02  0.7546771E-02  0.1466733E+00
          2   -1    0    0  502    0  0.00000000000E+00  0.00000000000E+00  0.65975662401E+03  0.65975662401E+03  0.00000000000E+00 0. -1.
          1   -1    0    0  501    0 -0.00000000000E+00 -0.00000000000E+00 -0.39827646913E+01  0.39827646913E+01  0.00000000000E+00 0.  1.
          2    1    1    2  501    0 -0.25162676498E+02 -0.10852314775E+01  0.61693602690E+03  0.61744991643E+03  0.00000000000E+00 0. -1.
          1    1    1    2  502    0  0.25162676498E+02  0.10852314775E+01  0.38837832418E+02  0.46289472268E+02  0.00000000000E+00 0.  1.
</event>
<event>
 4    1  0.3927513E+003  0.2458450E+02  0.7546771E-02  0.1473506E+00
          2   -1    0    0  502    0  0.00000000000E+00  0.00000000000E+00  0.79688813508E+03  0.79688813508E+03  0.00000000000E+00 0.  1.
          1   -1    0    0  501    0 -0.00000000000E+00 -0.00000000000E+00 -0.13746357425E+02  0.13746357425E+02  0.00000000000E+00 0.  1.
          2    1    1    2  501    0 -0.95726810306E+01 -0.22644234650E+02  0.78554792267E+03  0.78593252662E+03  0.00000000000E+00 0.  1.
          1    1    1    2  502    0  0.95726810306E+01  0.22644234650E+02 -0.24061450118E+01  0.24701965890E+02  0.00000000000E+00 0.  1.
</event>
<event>
 4    1  0.3927513E+003  0.5237653E+02  0.7546771E-02  0.1288185E+00
          2   -1    0    0  502    0  0.00000000000E+00  0.00000000000E+00  0.29717008807E+03  0.29717008807E+03  0.00000000000E+00 0.  1.
          1   -1    0    0  501    0 -0.00000000000E+00 -0.00000000000E+00 -0.13592055616E+02  0.13592055616E+02  0.00000000000E+00 0.  1.
          2    1    1    2  501    0  0.45300399702E+02  0.26290193464E+02  0.22979874375E+03  0.23569209387E+03  0.00000000000E+00 0.  1.
          1    1    1    2  502    0 -0.45300399702E+02 -0.26290193464E+02  0.53779288712E+02  0.75070049820E+02  0.00000000000E+00 0.  1.
</event>
<event>
 4    1  0.3927513E+003  0.2143698E+02  0.7546771E-02  0.1513117E+00
          2   -1    0    0  502    0  0.00000000000E+00  0.00000000000E+00  0.38187964173E+02  0.38187964173E+02  0.00000000000E+00 0. -1.
          1   -1    0    0  501    0 -0.00000000000E+00 -0.00000000000E+00 -0.27258437597E+02  0.27258437597E+02  0.00000000000E+00 0.  1.
          2    1    1    2  501    0 -0.54824868035E+01  0.20724053165E+02  0.29920437090E+02  0.36807289995E+02  0.00000000000E+00 0. -1.
          1    1    1    2  502    0  0.54824868035E+01 -0.20724053165E+02 -0.18990910513E+02  0.28639111775E+02  0.00000000000E+00 0.  1.
</event>
<event>
 4    1  0.3927513E+003  0.3615638E+02  0.7546771E-02  0.1372611E+00
          2   -1    0    0  502    0  0.00000000000E+00  0.00000000000E+00  0.93843295286E+01  0.93843295286E+01  0.00000000000E+00 0. -1.
          1   -1    0    0  501    0 -0.00000000000E+00 -0.00000000000E+00 -0.17483870124E+03  0.17483870124E+03  0.00000000000E+00 0.  1.
          2    1    1    2  501    0  0.35906083183E+02 -0.42469914453E+01 -0.41201621223E+02  0.54816579037E+02  0.00000000000E+00 0. -1.
          1    1    1    2  502    0 -0.35906083183E+02  0.42469914453E+01 -0.12425275049E+03  0.12940645174E+03  0.00000000000E+00 0.  1.
</event>
<event>
 4    1  0.3927513E+003  0.2821795E+02  0.7546771E-02  0.1435743E+00
          2   -1    0    0  502    0  0.00000000000E+00  0.00000000000E+00  0.15030198218E+04  0.15030198218E+04  0.00000000000E+00 0.  1.
          1   -1    0    0  501    0 -0.00000000000E+00 -0.00000000000E+00 -0.24694253724E+01  0.24694253724E+01  0.00000000000E+00 0.  1.
          2    1    1    2  501    0  0.13939067484E+02  0.24534773600E+02  0.14174077808E+04  0.14176886364E+04  0.00000000000E+00 0.  1.
          1    1    1    2  502    0 -0.13939067484E+02 -0.24534773600E+02  0.83142615638E+02  0.87800610779E+02  0.00000000000E+00 0.  1.
</event>
<event>
 4    1  0.3927513E+003  0.2366834E+02  0.7546771E-02  0.1484272E+00
          2   -1    0    0  502    0  0.00000000000E+00  0.00000000000E+00  0.11089233124E+04  0.11089233124E+04  0.00000000000E+00 0.  1.
          1   -1    0    0  501    0 -0.00000000000E+00 -0.00000000000E+00 -0.20310060747E+02  0.20310060747E+02  0.00000000000E+00 0. -1.
          2    1    1    2  501    0  0.54189237698E+01  0.23039651041E+02  0.11018573294E+04  0.11021115028E+04  0.00000000000E+00 0.  1.
          1    1    1    2  502    0 -0.54189237698E+01 -0.23039651041E+02 -0.13244077756E+02  0.27121870336E+02  0.00000000000E+00 0. -1.
</event>
<event>
 4    1  0.3927513E+003  0.3172945E+02  0.7546771E-02  0.1405140E+00
          2   -1    0    0  502    0  0.00000000000E+00  0.00000000000E+00  0.13723036672E+03  0.13723036672E+03  0.00000000000E+00 0.  1.
          1   -1    0    0  501    0 -0.00000000000E+00 -0.00000000000E+00 -0.33396310384E+02  0.33396310384E+02  0.00000000000E+00 0. -1.
          2    1    1    2  501    0 -0.23998873551E+02 -0.20756018830E+02  0.12727952562E+03  0.13117482949E+03  0.00000000000E+00 0.  1.
          1    1    1    2  502    0  0.23998873551E+02  0.20756018830E+02 -0.23445469291E+02  0.39451847608E+02  0.00000000000E+00 0. -1.
</event>
<event>
 4    1  0.3927513E+003  0.2801845E+02  0.7546771E-02  0.1437637E+00
          2   -1    0    0  502    0  0.00000000000E+00  0.00000000000E+00  0.86209082257E+03  0.86209082257E+03  0.00000000000E+00 0. -1.
          1   -1    0    0  501    0 -0.00000000000E+00 -0.00000000000E+00 -0.72543677843E+03  0.72543677843E+03  0.00000000000E+00 0. -1.
          2    1    1    2  501    0 -0.23080818027E+02 -0.15884255085E+02  0.86159247383E+03  0.86204792482E+03  0.00000000000E+00 0. -1.
          1    1    1    2  502    0  0.23080818027E+02  0.15884255085E+02 -0.72493842969E+03  0.72547967618E+03  0.00000000000E+00 0. -1.
</event>
<event>
 4    1  0.3927513E+003  0.3809717E+02  0.7546771E-02  0.1360012E+00
          2   -1    0    0  502    0  0.00000000000E+00  0.00000000000E+00  0.79519443107E+01  0.79519443107E+01  0.00000000000E+00 0. -1.
          1   -1    0    0  501    0 -0.00000000000E+00 -0.00000000000E+00 -0.31127531169E+03  0.31127531169E+03  0.00000000000E+00 0.  1.
          2    1    1    2  501    0  0.34997196452E+02 -0.15052927528E+02 -0.49006936150E+02  0.62073135715E+02  0.00000000000E+00 0. -1.
          1    1    1    2  502    0 -0.34997196452E+02  0.15052927528E+02 -0.25431643123E+03  0.25715412029E+03  0.00000000000E+00 0.  1.
</event>
<event>
 4    1  0.3927513E+003  0.2021101E+02  0.7546771E-02  0.1530834E+00
          2   -1    0    0  502    0  0.00000000000E+00  0.00000000000E+00  0.47913533577E+03  0.47913533577E+03  0.00000000000E+00 0. -1.
          1   -1    0    0  501    0 -0.00000000000E+00 -0.00000000000E+00 -0.88992518116E+00  0.88992518116E+00  0.00000000000E+00 0.  1.
          2    1    1    2  501    0 -0.40906444821E+01  0.19792717062E+02  0.28831203936E+03  0.28901957903E+03  0.00000000000E+00 0. -1.
          1    1    1    2  502    0  0.40906444821E+01 -0.19792717062E+02  0.18993337123E+03  0.19100568193E+03  0.00000000000E+00 0.  1.
</event>
<event>
 4    1  0.3927513E+003  0.2031304E+02  0.7546771E-02  0.1529303E+00
          2   -1    0    0  502    0  0.00000000000E+00  0.00000000000E+00  0.63117989230E+02  0.63117989230E+02  0.00000000000E+00 0. -1.
          1   -1    0    0  501    0 -0.00000000000E+00 -0.00000000000E+00 -0.59536553472E+03  0.59536553472E+03  0.00000000000E+00 0. -1.
          2    1    1    2  501    0  0.79348412128E+01 -0.18699141041E+02  0.61305418274E+02  0.64583077432E+02  0.00000000000E+00 0. -1.
          1    1    1    2  502    0 -0.79348412128E+01  0.18699141041E+02 -0.59355296376E+03  0.59390044651E+03  0.00000000000E+00 0. -1.
</event>
<event>
 4    1  0.3927513E+003  0.2202980E+02  0.7546771E-02  0.1505054E+00
          2   -1    0    0  502    0  0.00000000000E+00  0.00000000000E+00  0.11239242361E+03  0.11239242361E+03  0.00000000000E+00 0. -1.
          1   -1    0    0  501    0 -0.00000000000E+00 -0.00000000000E+00 -0.68911962125E+01  0.68911962125E+01  0.00000000000E+00 0. -1.
          2    1    1    2  501    0  0.98628963843E+01  0.19698608043E+02  0.89195693699E+02  0.91875914463E+02  0.00000000000E+00 0. -1.
          1    1    1    2  502    0 -0.98628963843E+01 -0.19698608043E+02  0.16305533700E+02  0.27407705361E+02  0.00000000000E+00 0. -1.
</event>
<event>
 4    1  0.3927513E+003  0.5729904E+02  0.7546771E-02  0.1269296E+00
          2   -1    0    0  502    0  0.00000000000E+00  0.00000000000E+00  0.78835647351E+03  0.78835647351E+03  0.00000000000E+00 0. -1.
          1   -1    0    0  501    0 -0.00000000000E+00 -0.00000000000E+00 -0.61563173361E+03  0.61563173361E+03  0.00000000000E+00 0. -1.
          2    1    1    2  501    0  0.57063266780E+02 -0.51926481373E+01  0.78597804080E+03  0.78806386837E+03  0.00000000000E+00 0. -1.
          1    1    1    2  502    0 -0.57063266780E+02  0.51926481373E+01 -0.61325330090E+03  0.61592433876E+03  0.00000000000E+00 0. -1.
</event>
<event>
 4    1  0.3927513E+003  0.2062071E+02  0.7546771E-02  0.1524750E+00
          2   -1    0    0  502    0  0.00000000000E+00  0.00000000000E+00  0.35834262167E+01  0.35834262167E+01  0.00000000000E+00 0. -1.
          1   -1    0    0  501    0 -0.00000000000E+00 -0.00000000000E+00 -0.67352835191E+03  0.67352835191E+03  0.00000000000E+00 0. -1.
          2    1    1    2  501    0 -0.16841383633E+02 -0.11898802312E+02 -0.27683519177E+02  0.34519428344E+02  0.00000000000E+00 0. -1.
          1    1    1    2  502    0  0.16841383633E+02  0.11898802312E+02 -0.64226140651E+03  0.64259234978E+03  0.00000000000E+00 0. -1.
</event>
<event>
 4    1  0.3927513E+003  0.2245793E+02  0.7546771E-02  0.1499419E+00
          2   -1    0    0  502    0  0.00000000000E+00  0.00000000000E+00  0.42448420446E+03  0.42448420446E+03  0.00000000000E+00 0.  1.
          1   -1    0    0  501    0 -0.00000000000E+00 -0.00000000000E+00 -0.17774854030E+01  0.17774854030E+01  0.00000000000E+00 0.  1.
          2    1    1    2  501    0 -0.12334039320E+02 -0.18767791122E+02  0.33407409573E+03  0.33482810507E+03  0.00000000000E+00 0.  1.
          1    1    1    2  502    0  0.12334039320E+02  0.18767791122E+02  0.88632623328E+02  0.91433584790E+02  0.00000000000E+00 0.  1.
</event>
<event>
 4    1  0.3927513E+003  0.2267715E+02  0.7546771E-02  0.1496593E+00
          2   -1    0    0  502    0  0.00000000000E+00  0.00000000000E+00  0.43120174460E+02  0.43120174460E+02  0.00000000000E+00 0. -1.
          1   -1    0    0  501    0 -0.00000000000E+00 -0.00000000000E+00 -0.94719127467E+02  0.94719127467E+02  0.00000000000E+00 0. -1.
          2    1    1    2  501    0 -0.14231786534E+02  0.17655287479E+02  0.38635439129E+02  0.44798996424E+02  0.00000000000E+00 0. -1.
          1    1    1    2  502    0  0.14231786534E+02 -0.17655287479E+02 -0.90234392136E+02  0.93040305503E+02  0.00000000000E+00 0. -1.
</event>
<event>
 4    1  0.3927513E+003  0.2086286E+02  0.7546771E-02  0.1521232E+00
          2   -1    0    0  502    0  0.00000000000E+00  0.00000000000E+00  0.24648763063E+03  0.24648763063E+03  0.00000000000E+00 0.  1.
          1   -1    0    0  501    0 -0.00000000000E+00 -0.00000000000E+00 -0.45027951623E+01  0.45027951623E+01  0.00000000000E+00 0.  1.
          2    1    1    2  501    0 -0.17809993726E+02 -0.10865677036E+02  0.21883311808E+03  0.21982536792E+03  0.00000000000E+00 0.  1.
          1    1    1    2  502    0  0.17809993726E+02  0.10865677036E+02  0.23151717387E+02  0.31165057868E+02  0.00000000000E+00 0.  1.
</event>
<event>
 4    1  0.3927513E+003  0.2715730E+02  0.7546771E-02  0.1446034E+00
          2   -1    0    0  502    0  0.00000000000E+00  0.00000000000E+00  0.47677152614E+02  0.47677152614E+02  0.00000000000E+00 0.  1.
          1   -1    0    0  501    0 -0.00000000000E+00 -0.00000000000E+00 -0.19297209912E+03  0.19297209912E+03  0.00000000000E+00 0.  1.
          2    1    1    2  501    0 -0.22380491756E+02 -0.15382872297E+02  0.42753692552E+02  0.50649752202E+02  0.00000000000E+00 0.  1.
          1    1    1    2  502    0  0.22380491756E+02  0.15382872297E+02 -0.18804863905E+03  0.18999949953E+03  0.00000000000E+00 0.  1.
</event>
<event>
 4    1  0.3927513E+003  0.4169174E+02  0.7546771E-02  0.1338848E+00
          2   -1    0    0  502    0  0.00000000000E+00  0.00000000000E+00  0.20643037249E+04  0.20643037249E+04  0.00000000000E+00 0.  1.
          1   -1    0    0  501    0 -0.00000000000E+00 -0.00000000000E+00 -0.27908302057E+02  0.27908302057E+02  0.00000000000E+00 0.  1.
          2    1    1    2  501    0  0.36930451694E+02  0.19347952599E+02  0.20484017041E+04  0.20488259425E+04  0.00000000000E+00 0.  1.
          1    1    1    2  502    0 -0.36930451694E+02 -0.19347952599E+02 -0.12006281238E+02  0.43386084420E+02  0.00000000000E+00 0.  1.
</event>
<event>
 4    1  0.3927513E+003  0.2648022E+02  0.7546771E-02  0.1452900E+00
          2   -1    0    0  502    0  0.00000000000E+00  0.00000000000E+00  0.56042551626E+02  0.56042551626E+02  0.00000000000E+00 0.  1.
          1   -1    0    0  501    0 -0.00000000000E+00 -0.00000000000E+00 -0.31979221318E+03  0.31979221318E+03  0.00000000000E+00 0. -1.
          2    1    1    2  501    0  0.26210486000E+02 -0.37699467614E+01  0.52329713155E+02  0.58648111255E+02  0.00000000000E+00 0.  1.
          1    1    1    2  502    0 -0.26210486000E+02  0.37699467614E+01 -0.31607937471E+03  0.31718665355E+03  0.00000000000E+00 0. -1.
</event>
<event>
 4    1  0.3927513E+003  0.2080936E+02  0.7546771E-02  0.1522004E+00
          2   -1    0    0  502    0  0.00000000000E+00  0.00000000000E+00  0.10768992877E+04  0.10768992877E+04  0.00000000000E+00 0. -1.
          1   -1    0    0  501    0 -0.00000000000E+00 -0.00000000000E+00 -0.60868833492E+01  0.60868833492E+01  0.00000000000E+00 0.  1.
          2    1    1    2  501    0  0.20689869667E+02  0.22268162325E+01  0.10587078395E+04  0.10589123283E+04  0.00000000000E+00 0. -1.
          1    1    1    2  502    0 -0.20689869667E+02 -0.22268162325E+01  0.12104564790E+02  0.24073842778E+02  0.00000000000E+00 0.  1.
</event>
